<?xml version="1.0"?>
<VTKFile type="UnstructuredGrid"  version="0.1"  >
<UnstructuredGrid>
<Piece  NumberOfPoints="651" NumberOfCells="1200">
<Points>
<DataArray  type="Float64"  NumberOfComponents="3"  format="ascii">0 0 0  50000 0 0  100000 0 0  150000 0 0  200000 0 0  250000 0 0  300000 0 0  350000 0 0  400000 0 0  450000 0 0  500000 0 0  550000 0 0  600000 0 0  650000 0 0  700000 0 0  750000 0 0  800000 0 0  850000 0 0  900000 0 0  950000 0 0  1000000 0 0  0 50000 0  50000 50000 0  100000 50000 0  150000 50000 0  200000 50000 0  250000 50000 0  300000 50000 0  350000 50000 0  400000 50000 0  450000 50000 0  500000 50000 0  550000 50000 0  600000 50000 0  650000 50000 0  700000 50000 0  750000 50000 0  800000 50000 0  850000 50000 0  900000 50000 0  950000 50000 0  1000000 50000 0  0 100000 0  50000 100000 0  100000 100000 0  150000 100000 0  200000 100000 0  250000 100000 0  300000 100000 0  350000 100000 0  400000 100000 0  450000 100000 0  500000 100000 0  550000 100000 0  600000 100000 0  650000 100000 0  700000 100000 0  750000 100000 0  800000 100000 0  850000 100000 0  900000 100000 0  950000 100000 0  1000000 100000 0  0 150000 0  50000 150000 0  100000 150000 0  150000 150000 0  200000 150000 0  250000 150000 0  300000 150000 0  350000 150000 0  400000 150000 0  450000 150000 0  500000 150000 0  550000 150000 0  600000 150000 0  650000 150000 0  700000 150000 0  750000 150000 0  800000 150000 0  850000 150000 0  900000 150000 0  950000 150000 0  1000000 150000 0  0 200000 0  50000 200000 0  100000 200000 0  150000 200000 0  200000 200000 0  250000 200000 0  300000 200000 0  350000 200000 0  400000 200000 0  450000 200000 0  500000 200000 0  550000 200000 0  600000 200000 0  650000 200000 0  700000 200000 0  750000 200000 0  800000 200000 0  850000 200000 0  900000 200000 0  950000 200000 0  1000000 200000 0  0 250000 0  50000 250000 0  100000 250000 0  150000 250000 0  200000 250000 0  250000 250000 0  300000 250000 0  350000 250000 0  400000 250000 0  450000 250000 0  500000 250000 0  550000 250000 0  600000 250000 0  650000 250000 0  700000 250000 0  750000 250000 0  800000 250000 0  850000 250000 0  900000 250000 0  950000 250000 0  1000000 250000 0  0 300000 0  50000 300000 0  100000 300000 0  150000 300000 0  200000 300000 0  250000 300000 0  300000 300000 0  350000 300000 0  400000 300000 0  450000 300000 0  500000 300000 0  550000 300000 0  600000 300000 0  650000 300000 0  700000 300000 0  750000 300000 0  800000 300000 0  850000 300000 0  900000 300000 0  950000 300000 0  1000000 300000 0  0 350000 0  50000 350000 0  100000 350000 0  150000 350000 0  200000 350000 0  250000 350000 0  300000 350000 0  350000 350000 0  400000 350000 0  450000 350000 0  500000 350000 0  550000 350000 0  600000 350000 0  650000 350000 0  700000 350000 0  750000 350000 0  800000 350000 0  850000 350000 0  900000 350000 0  950000 350000 0  1000000 350000 0  0 400000 0  50000 400000 0  100000 400000 0  150000 400000 0  200000 400000 0  250000 400000 0  300000 400000 0  350000 400000 0  400000 400000 0  450000 400000 0  500000 400000 0  550000 400000 0  600000 400000 0  650000 400000 0  700000 400000 0  750000 400000 0  800000 400000 0  850000 400000 0  900000 400000 0  950000 400000 0  1000000 400000 0  0 450000 0  50000 450000 0  100000 450000 0  150000 450000 0  200000 450000 0  250000 450000 0  300000 450000 0  350000 450000 0  400000 450000 0  450000 450000 0  500000 450000 0  550000 450000 0  600000 450000 0  650000 450000 0  700000 450000 0  750000 450000 0  800000 450000 0  850000 450000 0  900000 450000 0  950000 450000 0  1000000 450000 0  0 500000 0  50000 500000 0  100000 500000 0  150000 500000 0  200000 500000 0  250000 500000 0  300000 500000 0  350000 500000 0  400000 500000 0  450000 500000 0  500000 500000 0  550000 500000 0  600000 500000 0  650000 500000 0  700000 500000 0  750000 500000 0  800000 500000 0  850000 500000 0  900000 500000 0  950000 500000 0  1000000 500000 0  0 550000 0  50000 550000 0  100000 550000 0  150000 550000 0  200000 550000 0  250000 550000 0  300000 550000 0  350000 550000 0  400000 550000 0  450000 550000 0  500000 550000 0  550000 550000 0  600000 550000 0  650000 550000 0  700000 550000 0  750000 550000 0  800000 550000 0  850000 550000 0  900000 550000 0  950000 550000 0  1000000 550000 0  0 600000 0  50000 600000 0  100000 600000 0  150000 600000 0  200000 600000 0  250000 600000 0  300000 600000 0  350000 600000 0  400000 600000 0  450000 600000 0  500000 600000 0  550000 600000 0  600000 600000 0  650000 600000 0  700000 600000 0  750000 600000 0  800000 600000 0  850000 600000 0  900000 600000 0  950000 600000 0  1000000 600000 0  0 650000 0  50000 650000 0  100000 650000 0  150000 650000 0  200000 650000 0  250000 650000 0  300000 650000 0  350000 650000 0  400000 650000 0  450000 650000 0  500000 650000 0  550000 650000 0  600000 650000 0  650000 650000 0  700000 650000 0  750000 650000 0  800000 650000 0  850000 650000 0  900000 650000 0  950000 650000 0  1000000 650000 0  0 700000 0  50000 700000 0  100000 700000 0  150000 700000 0  200000 700000 0  250000 700000 0  300000 700000 0  350000 700000 0  400000 700000 0  450000 700000 0  500000 700000 0  550000 700000 0  600000 700000 0  650000 700000 0  700000 700000 0  750000 700000 0  800000 700000 0  850000 700000 0  900000 700000 0  950000 700000 0  1000000 700000 0  0 750000 0  50000 750000 0  100000 750000 0  150000 750000 0  200000 750000 0  250000 750000 0  300000 750000 0  350000 750000 0  400000 750000 0  450000 750000 0  500000 750000 0  550000 750000 0  600000 750000 0  650000 750000 0  700000 750000 0  750000 750000 0  800000 750000 0  850000 750000 0  900000 750000 0  950000 750000 0  1000000 750000 0  0 800000 0  50000 800000 0  100000 800000 0  150000 800000 0  200000 800000 0  250000 800000 0  300000 800000 0  350000 800000 0  400000 800000 0  450000 800000 0  500000 800000 0  550000 800000 0  600000 800000 0  650000 800000 0  700000 800000 0  750000 800000 0  800000 800000 0  850000 800000 0  900000 800000 0  950000 800000 0  1000000 800000 0  0 850000 0  50000 850000 0  100000 850000 0  150000 850000 0  200000 850000 0  250000 850000 0  300000 850000 0  350000 850000 0  400000 850000 0  450000 850000 0  500000 850000 0  550000 850000 0  600000 850000 0  650000 850000 0  700000 850000 0  750000 850000 0  800000 850000 0  850000 850000 0  900000 850000 0  950000 850000 0  1000000 850000 0  0 900000 0  50000 900000 0  100000 900000 0  150000 900000 0  200000 900000 0  250000 900000 0  300000 900000 0  350000 900000 0  400000 900000 0  450000 900000 0  500000 900000 0  550000 900000 0  600000 900000 0  650000 900000 0  700000 900000 0  750000 900000 0  800000 900000 0  850000 900000 0  900000 900000 0  950000 900000 0  1000000 900000 0  0 950000 0  50000 950000 0  100000 950000 0  150000 950000 0  200000 950000 0  250000 950000 0  300000 950000 0  350000 950000 0  400000 950000 0  450000 950000 0  500000 950000 0  550000 950000 0  600000 950000 0  650000 950000 0  700000 950000 0  750000 950000 0  800000 950000 0  850000 950000 0  900000 950000 0  950000 950000 0  1000000 950000 0  0 1000000 0  50000 1000000 0  100000 1000000 0  150000 1000000 0  200000 1000000 0  250000 1000000 0  300000 1000000 0  350000 1000000 0  400000 1000000 0  450000 1000000 0  500000 1000000 0  550000 1000000 0  600000 1000000 0  650000 1000000 0  700000 1000000 0  750000 1000000 0  800000 1000000 0  850000 1000000 0  900000 1000000 0  950000 1000000 0  1000000 1000000 0  0 1050000 0  50000 1050000 0  100000 1050000 0  150000 1050000 0  200000 1050000 0  250000 1050000 0  300000 1050000 0  350000 1050000 0  400000 1050000 0  450000 1050000 0  500000 1050000 0  550000 1050000 0  600000 1050000 0  650000 1050000 0  700000 1050000 0  750000 1050000 0  800000 1050000 0  850000 1050000 0  900000 1050000 0  950000 1050000 0  1000000 1050000 0  0 1100000 0  50000 1100000 0  100000 1100000 0  150000 1100000 0  200000 1100000 0  250000 1100000 0  300000 1100000 0  350000 1100000 0  400000 1100000 0  450000 1100000 0  500000 1100000 0  550000 1100000 0  600000 1100000 0  650000 1100000 0  700000 1100000 0  750000 1100000 0  800000 1100000 0  850000 1100000 0  900000 1100000 0  950000 1100000 0  1000000 1100000 0  0 1150000 0  50000 1150000 0  100000 1150000 0  150000 1150000 0  200000 1150000 0  250000 1150000 0  300000 1150000 0  350000 1150000 0  400000 1150000 0  450000 1150000 0  500000 1150000 0  550000 1150000 0  600000 1150000 0  650000 1150000 0  700000 1150000 0  750000 1150000 0  800000 1150000 0  850000 1150000 0  900000 1150000 0  950000 1150000 0  1000000 1150000 0  0 1200000 0  50000 1200000 0  100000 1200000 0  150000 1200000 0  200000 1200000 0  250000 1200000 0  300000 1200000 0  350000 1200000 0  400000 1200000 0  450000 1200000 0  500000 1200000 0  550000 1200000 0  600000 1200000 0  650000 1200000 0  700000 1200000 0  750000 1200000 0  800000 1200000 0  850000 1200000 0  900000 1200000 0  950000 1200000 0  1000000 1200000 0  0 1250000 0  50000 1250000 0  100000 1250000 0  150000 1250000 0  200000 1250000 0  250000 1250000 0  300000 1250000 0  350000 1250000 0  400000 1250000 0  450000 1250000 0  500000 1250000 0  550000 1250000 0  600000 1250000 0  650000 1250000 0  700000 1250000 0  750000 1250000 0  800000 1250000 0  850000 1250000 0  900000 1250000 0  950000 1250000 0  1000000 1250000 0  0 1300000 0  50000 1300000 0  100000 1300000 0  150000 1300000 0  200000 1300000 0  250000 1300000 0  300000 1300000 0  350000 1300000 0  400000 1300000 0  450000 1300000 0  500000 1300000 0  550000 1300000 0  600000 1300000 0  650000 1300000 0  700000 1300000 0  750000 1300000 0  800000 1300000 0  850000 1300000 0  900000 1300000 0  950000 1300000 0  1000000 1300000 0  0 1350000 0  50000 1350000 0  100000 1350000 0  150000 1350000 0  200000 1350000 0  250000 1350000 0  300000 1350000 0  350000 1350000 0  400000 1350000 0  450000 1350000 0  500000 1350000 0  550000 1350000 0  600000 1350000 0  650000 1350000 0  700000 135
[...]
<PointData  Scalars="f_10483"> 
<DataArray  type="Float64"  Name="f_10483"  format="ascii">-1.9189559568100595e-01  -6.8824717636651433e-02  -3.4137303486386217e-02  -2.0142630804356399e-02  -1.3366999212356864e-02  -9.2938921205778183e-03  -6.3939109468058161e-03  -4.0720518706709946e-03  -2.0562118238809809e-03  -2.0164218586950558e-04  1.5822012804210545e-03  3.3649141301096267e-03  5.2155216670748761e-03  7.2223315521733741e-03  9.5235668247778422e-03  1.2369560615433107e-02  1.6277241037009078e-02  2.2562782519708984e-02  3.6023437558430356e-02  7.9453839907716706e-02  1.9271127809542618e-01  -9.6154135753410391e-02  -6.3565081199117607e-02  -3.6895082114768551e-02  -2.2975243998559842e-02  -1.5340797296125336e-02  -1.0564567316671292e-02  -7.1996317635698269e-03  -4.5735993108188518e-03  -2.3489552404005270e-03  -3.3798707353210135e-04  1.5790725787249297e-03  3.4951500907708490e-03  5.5030956397968218e-03  7.7225726390953951e-03  1.0341942314305030e-02  1.3704721156547500e-02  1.8523011662622532e-02  2.6457269755087623e-02  4.1527402515567559e-02  7.0448657049602473e-02  1.0436396725290925e-01  -4.6811932539259152e-02  -4.1703374394663685e-02  -3.1723178962248515e-02  -2.2810227750690883e-02  -1.6168869614677943e-02  -1.1402197481407254e-02  -7.8446100473911658e-03  -5.0182815988482950e-03  -2.6230261616865935e-03  -4.6796240718442441e-04  1.5792651791106244e-03  3.6260174687984537e-03  5.7799864177976064e-03  8.1750430906235086e-03  1.1007244749048387e-02  1.4594626190610936e-02  1.9475483653863271e-02  2.6501457742759256e-02  3.6494238751821763e-02  4.7396030841014292e-02  4.8653991987131877e-02  -2.7420438880338870e-02  -2.7775470726317603e-02  -2.4556888689450870e-02  -1.9548878677112493e-02  -1.4837863630907215e-02  -1.0916997483599606e-02  -7.7000285428956497e-03  -4.9968421454201850e-03  -2.6344860637914228e-03  -4.7590809302131248e-04  1.5883062304469103e-03  3.6538943475346282e-03  5.8174975850052027e-03  8.1919047915988332e-03  1.0922418588130381e-02  1.4199765113805059e-02  1.8243403448431790e-02  2.3157642189618619e-02  2.8418843365202964e-02  3.1634314916630768e-02  2.9902021430048283e-02  -1.7943962719956238e-02  -1.9030532952173489e-02  -1.8280764777859417e-02  -1.5714532864833864e-02  -1.2681453646352958e-02  -9.7356104916695822e-03  -7.0553169795312034e-03  -4.6462628077874272e-03  -2.4501316172883770e-03  -3.9382442560363385e-04  1.5948867298993519e-03  3.5858101730991418e-03  5.6495934966646734e-03  7.8612604192935098e-03  1.0299361793261033e-02  1.3030649633526042e-02  1.6056512331447798e-02  1.9176642592853770e-02  2.1746177484081027e-02  2.2392968373342495e-02  2.0888131970122199e-02  -1.2420754346061614e-02  -1.3434127895882560e-02  -1.3546695867495313e-02  -1.2282906718948232e-02  -1.0383892693596996e-02  -8.2578095614111828e-03  -6.1277889728930382e-03  -4.0795804702549463e-03  -2.1254845669983718e-03  -2.4410064238916912e-04  1.5997163081503908e-03  3.4458828816921472e-03  5.3348228389177880e-03  7.3031546395920565e-03  9.3742850699005034e-03  1.1536591881111065e-02  1.3699215109856933e-02  1.5620189749555834e-02  1.6841404988932163e-02  1.6667367467848412e-02  1.5511018005727604e-02  -8.8426187901298001e-03  -9.6779439207072826e-03  -1.0064135504560199e-02  -9.4634636648787303e-03  -8.2760363989565315e-03  -6.7623432907773966e-03  -5.1076198002612703e-03  -3.4137778997250989e-03  -1.7260687233562699e-03  -5.6071794489455262e-05  1.6023276374921291e-03  3.2627032623243446e-03  4.9387883250553060e-03  6.6370101768194432e-03  8.3456100651864203e-03  1.0017140772726136e-02  1.1543148485044511e-02  1.2727712813496684e-02  1.3288680016040253e-02  1.2871115582762523e-02  1.1977435022066669e-02  -6.3792038442138412e-03  -7.0515055339654097e-03  -7.4954325662464757e-03  -7.2297041351378228e-03  -6.4771571622232998e-03  -5.3949975644788772e-03  -4.1177357998004220e-03  -2.7365698927618374e-03  -1.3061586219478129e-03  1.4475041055658932e-04  1.6030281493245424e-03  3.0627135940278624e-03  4.5177833692501626e-03  5.9547765254264473e-03  7.3438950389438729e-03  8.6279901187106735e-03  9.7112496442202361e-03  1.0454095948028491e-02  1.0689932642510070e-02  1.0229606970158947e-02  9.5311072648205600e-03  -4.6209988661940014e-03  -5.1614711031104012e-03  -5.5854112997547820e-03  -5.4884597099160767e-03  -5.0008072393115232e-03  -4.2156500991906978e-03  -3.2257976898202299e-03  -2.1044878107680659e-03  -9.0428115232946127e-04  3.3933828975036168e-04  1.6023135081876037e-03  2.8661502056081664e-03  4.1122037182782208e-03  5.3158860178270260e-03  6.4405912402943606e-03  7.4318396656817875e-03  8.2136634418552689e-03  8.6911420100380613e-03  8.7665261462188913e-03  8.3337393352434872e-03  7.7813489052467981e-03  -3.3399468520970334e-03  -3.7777419811836355e-03  -4.1573934443042363e-03  -4.1446813201529422e-03  -3.8196579015033231e-03  -3.2376487325122948e-03  -2.4618276047091497e-03  -1.5485327437869010e-03  -5.4398643295665880e-04  5.1545295161820417e-04  1.6006988815676602e-03  2.6863855401533287e-03  3.7469922589059867e-03  4.7529398382033889e-03  5.6669828234900020e-03  6.4416323693355171e-03  7.0190550394642059e-03  7.3353255394276329e-03  7.3326017129937207e-03  6.9481161305765737e-03  6.5051436841002397e-03  -2.3989201392013728e-03  -2.7584660812675541e-03  -3.0909227092073420e-03  -3.1192569231537986e-03  -2.8952669067806238e-03  -2.4522343694181703e-03  -1.8335514161569393e-03  -1.0821886785513080e-03  -2.3740043324605142e-04  6.6635408057809213e-04  1.5985989776234389e-03  2.5310083458144964e-03  3.4351323521930382e-03  4.2801221914483588e-03  5.0309092145162946e-03  5.6474710598117869e-03  6.0860549631244504e-03  6.3030918063658433e-03  6.2637689456882494e-03  5.9286690853269782e-03  5.5671477306539667e-03  -1.7114946021911494e-03  -2.0127939941356914e-03  -2.3036618218853955e-03  -2.3511318583893334e-03  -2.1905197730576801e-03  -1.8423533998604301e-03  -1.3372473710914156e-03  -7.0844657945207416e-04  1.0881029198266629e-05  7.8910982562494186e-04  1.5962968029586278e-03  2.4034941318956541e-03  3.1816674933356978e-03  3.9006227791856308e-03  4.5283506012942796e-03  5.0312435949557395e-03  5.3756637112918389e-03  5.5310376169825154e-03  5.4758579358647743e-03  5.1835549927635597e-03  4.8817402515648686e-03  -1.2218488932135730e-03  -1.4813301805953094e-03  -1.7393066750567216e-03  -1.7951096360321111e-03  -1.6742128228069493e-03  -1.3898360335481297e-03  -9.6455795554853158e-04  -4.2494506642239903e-04  2.0055044741884137e-04  8.8306865543089671e-04  1.5939568169156888e-03  2.3047895350432118e-03  2.9870867215530009e-03  3.6120407788501107e-03  4.1505664717607022e-03  4.5739732614905231e-03  4.8555063616960176e-03  4.9726884276705945e-03  4.9116709721669068e-03  4.6529291246552263e-03  4.3935174136403013e-03  -8.9389882135137403e-04  -1.1253098913838007e-03  -1.3599188867405047e-03  -1.4190707451674418e-03  -1.3223385864163781e-03  -1.0788897115136557e-03  -7.0647049753156527e-04  -2.2736882667163304e-04  3.3324340145704344e-04  9.4869561086314311e-04  1.5916543812988986e-03  2.2345491790889409e-03  2.8497784399365194e-03  3.4099224145174270e-03  3.8881894076848887e-03  4.2592875406035451e-03  4.5008451690432142e-03  4.5952072983979656e-03  4.5328285578748340e-03  4.2978315416147246e-03  4.0666360905873711e-03  -7.0516423996557138e-04  -9.2040903674504946e-04  -1.1411597778764539e-03  -1.2016759375736545e-03  -1.1181296597698055e-03  -8.9768559155668532e-04  -5.5551397985428971e-04  -1.1153301337360103e-04  4.1099746083146497e-04  9.8677920632333723e-04  1.5894055394904956e-03  2.1919924395776657e-03  2.7676420622816519e-03  3.2899096856061948e-03  3.7334449512870225e-03  4.0749387643914409e-03  4.2944420007071677e-03  4.3768356845228186e-03  4.3147769681742562e-03  4.0938642751661321e-03  3.8787697563952631e-03  -6.4331271126238389e-04  -8.5322772193948012e-04  -1.0694373631903653e-03  -1.1307675406255788e-03  -1.0517566194425064e-03  -8.3901911403972459e-04  -5.0690103323507954e-04  -7.4570498583355089e-05  4.3532652618093030e-04  9.9794304374825052e-04  1.5871914416923905e-03  2.1764398396369386e-03  2.7390563572055856e-03  3.2489533819717469e-03  3.6812839166255325e-03  4.0134019974321471e-03  4.2261395028363059e-03  4.3051504240201035e-03  4.2438202465849570e-03  4.0276106053338655e-03  3.8176955946567551e-03  -7.0438687300106780e-04  -9.1948139177188001e-04  -1.1403940847797558e-03  -1.2024528011284291e-03  -1.1200591173134730e-03  -9.0055588099923075e-04  -5.5906206789677504e-04  -1.1552680221811457e-04  4.0674082110443965e-04  9.8239044380709728e-04  1.5849773438938028e-03  2.1876036770614136e-03  2.7633854225546073e-03  3.2859158967615343e-03  3.7298968632443791e-03  4.0720684749487564e-03  4.2925125431633833e-03  4.3760588209679225e-03  4.3155426612708414e-03  4.0947919201392083e-03  3.8795471233596893e-03  -8.9225320719392930e-04  -1.1234486582210918e-03  -1.3584456744808650e-03  -1.4208244150040071e-03  -1.3264622856500674e-03  -1.0849046572120496e-03  -7.1380652429554740e-04  -2.3553953113051494e-04  3.2460444344828009e-04  9.3983370429442221e-04  1.5827285020839136e-03  2.2256872725201354e-03  2.8411394819276279e-03  3.4017517100583686e-03  3.8808533809206970e-03  4.2532725949049627e-03  4.4967214698092874e-03  4.5934536285610989e-03  4.5343017701343653e-03  4.2996927747773889e-03  4.0682817047447738e-03  -1.2191345302479525e-03  -1.4785462412625146e-03  -1.7372880887736610e-03  -1.7983055442773485e-03  -1.6811234783037708e-03  -1.3995903781002573e-03  -9.7618358837302049e-04  -4.3765789546527532e-04  1.8729616182939379e-04  8.6959334833747333e-04  1.5804260664643841e-03  2.2913142279497056e-03  2.9738324359633583e-03  3.5993279498069426e-03  4.1389408389358590e-03  4.5642189169379952e-03  4.8485957061988223e-03  4.9694925194249760e-03  4.9136895584496534e-03  4.6557130639877211e-03  4.3962317766056596e-03  -1.7073573681741674e-03  -2.0091721093722435e-03  -2.3014750524725917e-03  -2.3566547335904420e-03  -2.2012808279010688e-03  -1.8568607115675359e-03  -1.3539677179093452e-03  -7.2623989580420669e-04  -7.2846099572670188e-06  7.7088875148072190e-04  1.5780860804169899e-03  2.3852730577513161e-03  3.1635018541799013e-03  3.8828294628330631e-03  4.5116302544757876e-03  5.0167362832480413e-03  5.3649026564479329e-03  5.5255147417809054e-03  5.4780447052770812e-03  5.1871768775266251e-03  4.8858774855815206e-03  -2.3927648472651950e-03  -2.7542862019371540e-03  -3.0893860622972545e-03  -3.1287089229751481e-03  -2.9116720797357047e-03  -2.4730881764265561e-03  -1.8565263311354936e-03  -1.1057393080720871e-03  -2.6074946882052933e-04  6.4337453755543901e-04  1.5757839057455550e-03  2.5080288027916693e-03  3.4117833166181638e-03  4.2565715619270524e-03  5.0079342995370630e-03  5.6266172528026352e-03  6.0696497901685824e-03  6.2936398065437564e-03  6.2653055925977249e-03  5.9328489646568710e-03  5.5733030225897104e-03  -3.3307608007134598e-03  -3.7737332471882517e-03  -4.1582188296038344e-03  -4.1609426560385325e-03  -3.8446721560782852e-03  -3.2672494859547472e-03  -2.4925999401152971e-03  -1.5785569548346296e-03  -5.7260937554201423e-04  4.8799734320753059e-04  1.5736840017920230e-03  2.6589299317424150e-03  3.7183693163201836e-03  4.7229156271550799e-03  5.6362104880830705e-03  6.4120316158921015e-03  6.9940407848881848e-03  7.3190642035410557e-03  7.3317763276932908e-03  6.9521248645713265e-03  6.5143297354830869e-03  -4.6069660218618661e-03  -5.1593564518560954e-03  -5.5921432628297024e-03  -5.5167591266507060e-03  -5.0392805584732079e-03  -4.2574567823072656e-03  -3.2662083569281958e-03  -2.1415031344684614e-03  -9.3782083492567332e-04  3.0823267774053440e-04  1.5720693751597038e-03  2.8350445935981152e-03  4.0786640356815125e-03  5.2788706941259101e-03  6.4001805731854549e-03  7.3900329825639897e-03  8.1751901226922510e-03  8.6628425933021284e-03  8.7597941831428511e-03  8.3358539864969751e-03  7.7953817495783470e-03  -6.3567243814360826e-03  -7.0552240867708654e-03  -7.5155497591204781e-03  -7.2797130646429899e-03  -6.5368667608432258e-03  -5.4536072353445703e-03  -4.1695121555889430e-03  -2.7803936420811460e-03  -1.3434004859120632e-03  1.1166928930581915e-04  1.5713547340075816e-03  3.0296324727768593e-03  4.4805415052854361e-03  5.9109527761063941e-03  7.2921186831542521e-03  8.5693804478434756e-03  9.6515400455986482e-03  1.0404087018521628e-02  1.0669815449634504e-02  1.0225888417352298e-02  9.5535867275976204e-03  -8.8030521386797365e-03  -9.6967326993710502e-03  -1.0114297132648550e-02  -9.5533299301128038e-03  -8.3687656016738672e-03  -6.8427578893708058e-03  -5.1712271818452234e-03  -3.4626272934896668e-03  -1.7644054417335570e-03  -8.8320379007374538e-05  1.5720552458232150e-03  3.2304546778062024e-03  4.9004516066775364e-03  6.5881607830540661e-03  8.2820026836012434e-03  9.9367261741310185e-03  1.1450419282325120e-02  1.2637846548260549e-02  1.3238518387950069e-02  1.2852326804097251e-02  1.2017001673515947e-02  -1.2336635122332585e-02  -1.3492984584448161e-02  -1.3667022105534726e-02  -1.2445806866172773e-02  -1.0524832226493830e-02  -8.3622089977681124e-03  -6.1999021865742857e-03  -4.1287717562781970e-03  -2.1604399556122327e-03  -2.7149999839131626e-04  1.5746665751489254e-03  3.4184835256898618e-03  5.2998674503035815e-03  7.2539633535680685e-03  9.3021718562181430e-03  1.1432192444752583e-02  1.3558275576957813e-02  1.5457289602328568e-02  1.6721078750889934e-02  1.6608510779280793e-02  1.5595137229455731e-02  -1.7713749086708582e-02  -1.9218585489923872e-02  -1.8571794600672452e-02  -1.6002259709469970e-02  -1.2882129448091880e-02  -9.8562667501945461e-03  -7.1249789099477011e-03  -4.6868775359926737e-03  -2.4752106133717048e-03  -4.1142728981047419e-04  1.5794961533879563e-03  3.5682073088921756e-03  5.6245145005809983e-03  7.8206456910875927e-03  1.0229699862843528e-02  1.2909993374999706e-02  1.5855836529706374e-02  1.8888915748214292e-02  2.1455147661264096e-02  2.2204915835589017e-02  2.1118345603368869e-02  -2.6727638546597165e-02  -2.8459932033177773e-02  -2.5244460481775574e-02  -1.9983259306230117e-02  -1.5069020565079073e-02  -1.1025382230479450e-02  -7.7480357048232687e-03  -5.0175219083039100e-03  -2.6431147017176304e-03  -4.7951146425107645e-04  1.5860766528353538e-03  3.6502909763047159e-03  5.8088689470785632e-03  8.1712250287144430e-03  1.0874411426201869e-02  1.4091380366923962e-02  1.8012246514257819e-02  2.2723261560497521e-02  2.7731271572872859e-02  3.0949853609765234e-02  3.0594821763788894e-02  -4.5479609103601930e-02  -4.4221647957500089e-02  -3.3319855868363973e-02  -2.3327074859357550e-02  -1.6301100770503708e-02  -1.1420243307280298e-02  -7.8328618657371799e-03  -5.0006602073249589e-03  -2.6056035345069792e-03  -4.5163458551207721e-04  1.5951177041743573e-03  3.6423452904705928e-03  5.7974090449767965e-03  8.1926644821459626e-03  1.1018992930701323e-02  1.4576580364736403e-02  1.9343252498035486e-02  2.5984610634088873e-02  3.4897561845697672e-02  4.4877757278164815e-02  4.9986315422782771e-02  -1.0118958436920826e-01  -6.7274274165997086e-02  -3.8353019632065208e-02  -2.3282886871657350e-02  -1.5348628779241535e-02  -1.0530338273200183e-02  -7.1675594309804315e-03  -4.5481897557859566e-03  -2.3287127564968458e-03  -3.2076720747611876e-04  1.5953103045680751e-03  3.5123699568266296e-03  5.5233381237000554e-03  7.7479821941275930e-03  1.0374014646893411e-02  1.3738950200017025e-02  1.8515180179504168e-02  2.6149626881986739e-02  4.0069464998264283e-02  6.6739464082709088e-02  9.9328518637072497e-02  -1.8953689521168476e-01  -7.6279457024043776e-02  -3.2849054674886587e-02  -1.9388399636254518e-02  -1.3102858153612522e-02  -9.1951777320744624e-03  -6.3491839414445538e-03  -4.0479486688569412e-03  -2.0411387837688901e-03  -1.9053124680948246e-04  1.5921816028772560e-03  3.3760250691694696e-03  5.2305947071867066e-03  7.2464347539870529e-03  9.5682938301385675e-03  1.2468275003935634e-02  1.6541382095752257e-02  2.3317013687807343e-02  3.7311686369919286e-02  7.1999100520307766e-02  1.9506997856479347e-01  </DataArray> 
</PointData> 
</Piece>
</UnstructuredGrid>
</VTKFile>