<?xml version="1.0"?>
<VTKFile type="UnstructuredGrid"  version="0.1"  >
<UnstructuredGrid>
<Piece  NumberOfPoints="651" NumberOfCells="1200">
<Points>
<DataArray  type="Float64"  NumberOfComponents="3"  format="ascii">0 0 0  50000 0 0  100000 0 0  150000 0 0  200000 0 0  250000 0 0  300000 0 0  350000 0 0  400000 0 0  450000 0 0  500000 0 0  550000 0 0  600000 0 0  650000 0 0  700000 0 0  750000 0 0  800000 0 0  850000 0 0  900000 0 0  950000 0 0  1000000 0 0  0 50000 0  50000 50000 0  100000 50000 0  150000 50000 0  200000 50000 0  250000 50000 0  300000 50000 0  350000 50000 0  400000 50000 0  450000 50000 0  500000 50000 0  550000 50000 0  600000 50000 0  650000 50000 0  700000 50000 0  750000 50000 0  800000 50000 0  850000 50000 0  900000 50000 0  950000 50000 0  1000000 50000 0  0 100000 0  50000 100000 0  100000 100000 0  150000 100000 0  200000 100000 0  250000 100000 0  300000 100000 0  350000 100000 0  400000 100000 0  450000 100000 0  500000 100000 0  550000 100000 0  600000 100000 0  650000 100000 0  700000 100000 0  750000 100000 0  800000 100000 0  850000 100000 0  900000 100000 0  950000 100000 0  1000000 100000 0  0 150000 0  50000 150000 0  100000 150000 0  150000 150000 0  200000 150000 0  250000 150000 0  300000 150000 0  350000 150000 0  400000 150000 0  450000 150000 0  500000 150000 0  550000 150000 0  600000 150000 0  650000 150000 0  700000 150000 0  750000 150000 0  800000 150000 0  850000 150000 0  900000 150000 0  950000 150000 0  1000000 150000 0  0 200000 0  50000 200000 0  100000 200000 0  150000 200000 0  200000 200000 0  250000 200000 0  300000 200000 0  350000 200000 0  400000 200000 0  450000 200000 0  500000 200000 0  550000 200000 0  600000 200000 0  650000 200000 0  700000 200000 0  750000 200000 0  800000 200000 0  850000 200000 0  900000 200000 0  950000 200000 0  1000000 200000 0  0 250000 0  50000 250000 0  100000 250000 0  150000 250000 0  200000 250000 0  250000 250000 0  300000 250000 0  350000 250000 0  400000 250000 0  450000 250000 0  500000 250000 0  550000 250000 0  600000 250000 0  650000 250000 0  700000 250000 0  750000 250000 0  800000 250000 0  850000 250000 0  900000 250000 0  950000 250000 0  1000000 250000 0  0 300000 0  50000 300000 0  100000 300000 0  150000 300000 0  200000 300000 0  250000 300000 0  300000 300000 0  350000 300000 0  400000 300000 0  450000 300000 0  500000 300000 0  550000 300000 0  600000 300000 0  650000 300000 0  700000 300000 0  750000 300000 0  800000 300000 0  850000 300000 0  900000 300000 0  950000 300000 0  1000000 300000 0  0 350000 0  50000 350000 0  100000 350000 0  150000 350000 0  200000 350000 0  250000 350000 0  300000 350000 0  350000 350000 0  400000 350000 0  450000 350000 0  500000 350000 0  550000 350000 0  600000 350000 0  650000 350000 0  700000 350000 0  750000 350000 0  800000 350000 0  850000 350000 0  900000 350000 0  950000 350000 0  1000000 350000 0  0 400000 0  50000 400000 0  100000 400000 0  150000 400000 0  200000 400000 0  250000 400000 0  300000 400000 0  350000 400000 0  400000 400000 0  450000 400000 0  500000 400000 0  550000 400000 0  600000 400000 0  650000 400000 0  700000 400000 0  750000 400000 0  800000 400000 0  850000 400000 0  900000 400000 0  950000 400000 0  1000000 400000 0  0 450000 0  50000 450000 0  100000 450000 0  150000 450000 0  200000 450000 0  250000 450000 0  300000 450000 0  350000 450000 0  400000 450000 0  450000 450000 0  500000 450000 0  550000 450000 0  600000 450000 0  650000 450000 0  700000 450000 0  750000 450000 0  800000 450000 0  850000 450000 0  900000 450000 0  950000 450000 0  1000000 450000 0  0 500000 0  50000 500000 0  100000 500000 0  150000 500000 0  200000 500000 0  250000 500000 0  300000 500000 0  350000 500000 0  400000 500000 0  450000 500000 0  500000 500000 0  550000 500000 0  600000 500000 0  650000 500000 0  700000 500000 0  750000 500000 0  800000 500000 0  850000 500000 0  900000 500000 0  950000 500000 0  1000000 500000 0  0 550000 0  50000 550000 0  100000 550000 0  150000 550000 0  200000 550000 0  250000 550000 0  300000 550000 0  350000 550000 0  400000 550000 0  450000 550000 0  500000 550000 0  550000 550000 0  600000 550000 0  650000 550000 0  700000 550000 0  750000 550000 0  800000 550000 0  850000 550000 0  900000 550000 0  950000 550000 0  1000000 550000 0  0 600000 0  50000 600000 0  100000 600000 0  150000 600000 0  200000 600000 0  250000 600000 0  300000 600000 0  350000 600000 0  400000 600000 0  450000 600000 0  500000 600000 0  550000 600000 0  600000 600000 0  650000 600000 0  700000 600000 0  750000 600000 0  800000 600000 0  850000 600000 0  900000 600000 0  950000 600000 0  1000000 600000 0  0 650000 0  50000 650000 0  100000 650000 0  150000 650000 0  200000 650000 0  250000 650000 0  300000 650000 0  350000 650000 0  400000 650000 0  450000 650000 0  500000 650000 0  550000 650000 0  600000 650000 0  650000 650000 0  700000 650000 0  750000 650000 0  800000 650000 0  850000 650000 0  900000 650000 0  950000 650000 0  1000000 650000 0  0 700000 0  50000 700000 0  100000 700000 0  150000 700000 0  200000 700000 0  250000 700000 0  300000 700000 0  350000 700000 0  400000 700000 0  450000 700000 0  500000 700000 0  550000 700000 0  600000 700000 0  650000 700000 0  700000 700000 0  750000 700000 0  800000 700000 0  850000 700000 0  900000 700000 0  950000 700000 0  1000000 700000 0  0 750000 0  50000 750000 0  100000 750000 0  150000 750000 0  200000 750000 0  250000 750000 0  300000 750000 0  350000 750000 0  400000 750000 0  450000 750000 0  500000 750000 0  550000 750000 0  600000 750000 0  650000 750000 0  700000 750000 0  750000 750000 0  800000 750000 0  850000 750000 0  900000 750000 0  950000 750000 0  1000000 750000 0  0 800000 0  50000 800000 0  100000 800000 0  150000 800000 0  200000 800000 0  250000 800000 0  300000 800000 0  350000 800000 0  400000 800000 0  450000 800000 0  500000 800000 0  550000 800000 0  600000 800000 0  650000 800000 0  700000 800000 0  750000 800000 0  800000 800000 0  850000 800000 0  900000 800000 0  950000 800000 0  1000000 800000 0  0 850000 0  50000 850000 0  100000 850000 0  150000 850000 0  200000 850000 0  250000 850000 0  300000 850000 0  350000 850000 0  400000 850000 0  450000 850000 0  500000 850000 0  550000 850000 0  600000 850000 0  650000 850000 0  700000 850000 0  750000 850000 0  800000 850000 0  850000 850000 0  900000 850000 0  950000 850000 0  1000000 850000 0  0 900000 0  50000 900000 0  100000 900000 0  150000 900000 0  200000 900000 0  250000 900000 0  300000 900000 0  350000 900000 0  400000 900000 0  450000 900000 0  500000 900000 0  550000 900000 0  600000 900000 0  650000 900000 0  700000 900000 0  750000 900000 0  800000 900000 0  850000 900000 0  900000 900000 0  950000 900000 0  1000000 900000 0  0 950000 0  50000 950000 0  100000 950000 0  150000 950000 0  200000 950000 0  250000 950000 0  300000 950000 0  350000 950000 0  400000 950000 0  450000 950000 0  500000 950000 0  550000 950000 0  600000 950000 0  650000 950000 0  700000 950000 0  750000 950000 0  800000 950000 0  850000 950000 0  900000 950000 0  950000 950000 0  1000000 950000 0  0 1000000 0  50000 1000000 0  100000 1000000 0  150000 1000000 0  200000 1000000 0  250000 1000000 0  300000 1000000 0  350000 1000000 0  400000 1000000 0  450000 1000000 0  500000 1000000 0  550000 1000000 0  600000 1000000 0  650000 1000000 0  700000 1000000 0  750000 1000000 0  800000 1000000 0  850000 1000000 0  900000 1000000 0  950000 1000000 0  1000000 1000000 0  0 1050000 0  50000 1050000 0  100000 1050000 0  150000 1050000 0  200000 1050000 0  250000 1050000 0  300000 1050000 0  350000 1050000 0  400000 1050000 0  450000 1050000 0  500000 1050000 0  550000 1050000 0  600000 1050000 0  650000 1050000 0  700000 1050000 0  750000 1050000 0  800000 1050000 0  850000 1050000 0  900000 1050000 0  950000 1050000 0  1000000 1050000 0  0 1100000 0  50000 1100000 0  100000 1100000 0  150000 1100000 0  200000 1100000 0  250000 1100000 0  300000 1100000 0  350000 1100000 0  400000 1100000 0  450000 1100000 0  500000 1100000 0  550000 1100000 0  600000 1100000 0  650000 1100000 0  700000 1100000 0  750000 1100000 0  800000 1100000 0  850000 1100000 0  900000 1100000 0  950000 1100000 0  1000000 1100000 0  0 1150000 0  50000 1150000 0  100000 1150000 0  150000 1150000 0  200000 1150000 0  250000 1150000 0  300000 1150000 0  350000 1150000 0  400000 1150000 0  450000 1150000 0  500000 1150000 0  550000 1150000 0  600000 1150000 0  650000 1150000 0  700000 1150000 0  750000 1150000 0  800000 1150000 0  850000 1150000 0  900000 1150000 0  950000 1150000 0  1000000 1150000 0  0 1200000 0  50000 1200000 0  100000 1200000 0  150000 1200000 0  200000 1200000 0  250000 1200000 0  300000 1200000 0  350000 1200000 0  400000 1200000 0  450000 1200000 0  500000 1200000 0  550000 1200000 0  600000 1200000 0  650000 1200000 0  700000 1200000 0  750000 1200000 0  800000 1200000 0  850000 1200000 0  900000 1200000 0  950000 1200000 0  1000000 1200000 0  0 1250000 0  50000 1250000 0  100000 1250000 0  150000 1250000 0  200000 1250000 0  250000 1250000 0  300000 1250000 0  350000 1250000 0  400000 1250000 0  450000 1250000 0  500000 1250000 0  550000 1250000 0  600000 1250000 0  650000 1250000 0  700000 1250000 0  750000 1250000 0  800000 1250000 0  850000 1250000 0  900000 1250000 0  950000 1250000 0  1000000 1250000 0  0 1300000 0  50000 1300000 0  100000 1300000 0  150000 1300000 0  200000 1300000 0  250000 1300000 0  300000 1300000 0  350000 1300000 0  400000 1300000 0  450000 1300000 0  500000 1300000 0  550000 1300000 0  600000 1300000 0  650000 1300000 0  700000 1300000 0  750000 1300000 0  800000 1300000 0  850000 1300000 0  900000 1300000 0  950000 1300000 0  1000000 1300000 0  0 1350000 0  50000 1350000 0  100000 1350000 0  150000 1350000 0  200000 1350000 0  250000 1350000 0  300000 1350000 0  350000 1350000 0  400000 1350000 0  450000 1350000 0  500000 1350000 0  550000 1350000 0  600000 1350000 0  650000 1350000 0  700000 135
[...]
<PointData  Scalars="f_10483"> 
<DataArray  type="Float64"  Name="f_10483"  format="ascii">-3.4784408651283305e-01  -1.1952891933097211e-01  -5.7246759132379997e-02  -3.2530080638971996e-02  -2.0893774582174930e-02  -1.4198027434215717e-02  -9.6805625840699714e-03  -6.2522513125304680e-03  -3.4058464692103170e-03  -8.6738635309277588e-04  1.5358274361404035e-03  3.9367430481214265e-03  6.4672734860135844e-03  9.2961116156925119e-03  1.2685798681360902e-02  1.7105840892084032e-02  2.3506758618632009e-02  3.4247487802139806e-02  5.7888344855661023e-02  1.3660132772871122e-01  3.4879596666240364e-01  -1.7056366355994199e-01  -1.1092685083564136e-01  -6.3165931388733429e-02  -3.8316754086014426e-02  -2.4970564265866427e-02  -1.6891357675138507e-02  -1.1440040036092695e-02  -7.3787067229553254e-03  -4.0788192846874958e-03  -1.1865859573412590e-03  1.5258940450037621e-03  4.2363500092386704e-03  7.1223675244557489e-03  1.0411616329235164e-02  1.4458817549101083e-02  1.9902109277592190e-02  2.8046515544925280e-02  4.1912489807141885e-02  6.8849881893144615e-02  1.2129133733257334e-01  1.8340276078107709e-01  -8.1497531484819211e-02  -7.2430173951644514e-02  -5.4605677302689830e-02  -3.8707483589391689e-02  -2.7055451394188416e-02  -1.8893589842445685e-02  -1.2993659640547309e-02  -8.4707318067371445e-03  -4.7650562130286426e-03  -1.5172723569714746e-03  1.5241747190584119e-03  4.5646029854043649e-03  7.8099609327420168e-03  1.1514620317961771e-02  1.6047328427857502e-02  2.1999860394572694e-02  3.0365829136148652e-02  4.2713599549432171e-02  6.0574383624350900e-02  8.0203230341115830e-02  8.2178671612107873e-02  -4.7256078845029290e-02  -4.7966348078829490e-02  -4.2202245508201459e-02  -3.3315921685882932e-02  -2.5098333608481856e-02  -1.8398992262502772e-02  -1.3041251308436050e-02  -8.6642156609045839e-03  -4.9401804983167479e-03  -1.6080173878337436e-03  1.5421504763375412e-03  4.6947955728329658e-03  8.0360548348869000e-03  1.1781996222893219e-02  1.6208843417848614e-02  2.1676925377642056e-02  2.8601359659577674e-02  3.7192117227025041e-02  4.6525387672547831e-02  5.2274332855368810e-02  4.9136632221863402e-02  -3.0610572803341472e-02  -3.2589852806163375e-02  -3.1272388050052329e-02  -2.6791745927703114e-02  -2.1570399971129056e-02  -1.6582937233924174e-02  -1.2137115046637694e-02  -8.2290261693127170e-03  -4.7401010597832123e-03  -1.5260893060544934e-03  1.5548854093916625e-03  4.6399127133579252e-03  7.8676276322881787e-03  1.1385049576689966e-02  1.5346455473797375e-02  1.9886023824189955e-02  2.5021249841163253e-02  3.0405959414278150e-02  3.4893655038568186e-02  3.6016320138693915e-02  3.3318128408273542e-02  -2.0883814215605912e-02  -2.2751569426346065e-02  -2.3026239370082465e-02  -2.0901915183353065e-02  -1.7708315959537049e-02  -1.4168074485926472e-02  -1.0673692447399579e-02  -7.3686033199200076e-03  -4.2640565768903614e-03  -1.3108849221468704e-03  1.5645559109862329e-03  4.4443445761726211e-03  7.4115035269558547e-03  1.0542426576776913e-02  1.3890056863802689e-02  1.7444536231070725e-02  2.1053241793700699e-02  2.4290410974314572e-02  2.6342174116510624e-02  2.5953152769667781e-02  2.3838829185584068e-02  -1.4559050227736108e-02  -1.6141869745689579e-02  -1.6954851645612976e-02  -1.6040492865261258e-02  -1.4124141198494292e-02  -1.1668651445519282e-02  -9.0016231021042229e-03  -6.2987141362287882e-03  -3.6330113907912850e-03  -1.0166742137239966e-03  1.5700979068404429e-03  4.1605615094701485e-03  6.7882812002855791e-03  9.4736821350978745e-03  1.2204381140964130e-02  1.4903442623060707e-02  1.7383365229507966e-02  1.9297593823677364e-02  2.0144194118737756e-02  1.9272288242233260e-02  1.7586267762638354e-02  -1.0199442483546076e-02  -1.1518897519063657e-02  -1.2474918254082848e-02  -1.2180068125649497e-02  -1.1047344473126563e-02  -9.3574330939208208e-03  -7.3493611602268392e-03  -5.1820345467061052e-03  -2.9475536252044987e-03  -6.9072972499111451e-04  1.5720738041323473e-03  3.8375415309780878e-03  6.1022574104414055e-03  8.3492922875345928e-03  1.0531985837159429e-02  1.2553801185095047e-02  1.4247486940702879e-02  1.5365018336223942e-02  1.5608614054238960e-02  1.4621069060793761e-02  1.3253722224456883e-02  -7.0978957099135376e-03  -8.1992432252107096e-03  -9.1466978562926536e-03  -9.1685655164494180e-03  -8.5142744587032200e-03  -7.3512979244214748e-03  -5.8454101465840102e-03  -4.1249790363138070e-03  -2.2799399483399915e-03  -3.6869490630237953e-04  1.5713750624084170e-03  3.5131098062645819e-03  5.4290833279137555e-03  7.2809704276113356e-03  9.0083591719121864e-03  1.0517863227388027e-02  1.1676147378947146e-02  1.2313669483685983e-02  1.2254384728042293e-02  1.1289489289698357e-02  1.0165491596997556e-02  -4.8569091553532636e-03  -5.7820214007748240e-03  -6.6650203268839121e-03  -6.8461560280206274e-03  -6.4850773955341902e-03  -5.6817435693728964e-03  -4.5494979313442426e-03  -3.1874093982892193e-03  -1.6751572880302867e-03  -7.3858175794270915e-05  1.5689448705744435e-03  3.2126339696001514e-03  4.8163127024557122e-03  6.3315498663543577e-03  7.6956225843000893e-03  8.8265491278041626e-03  9.6224964025294017e-03  9.9687522462772547e-03  9.7603483053730414e-03  8.8676372274203909e-03  7.9322279530528259e-03  -3.2321564947759879e-03  -4.0167965668194512e-03  -4.8200275644443239e-03  -5.0776382358266722e-03  -4.8971553320621194e-03  -4.3386253198596705e-03  -3.4800140459568638e-03  -2.3969125602124161e-03  -1.1572054182383718e-03  1.8058238767919304e-04  1.5655500567817197e-03  2.9508845300706432e-03  4.2895472477024917e-03  5.5299573807375511e-03  6.6124728826676043e-03  7.4677905461844945e-03  8.0188304586395909e-03  8.1872751461791026e-03  7.9098143662919285e-03  7.1012484023313853e-03  6.3124699608232571e-03  -2.0645460911468561e-03  -2.7395350246465044e-03  -3.4661512568587446e-03  -3.7570367258893882e-03  -3.6879071093322774e-03  -3.2951617436883761e-03  -2.6335675376266549e-03  -1.7614155599483463e-03  -7.3606492172746381e-04  3.8850214030251981e-04  1.5617212637113439e-03  2.7350097871692079e-03  3.8596257885450732e-03  4.8845410781378279e-03  5.7550588004132760e-03  6.4129893757332987e-03  6.7992572988522879e-03  6.8591373579363884e-03  6.5539905874562460e-03  5.8245318293569425e-03  5.1483902289122477e-03  -1.2472837879384492e-03  -1.8399330336062705e-03  -2.5019584901175371e-03  -2.8046081935774628e-03  -2.8035295929432877e-03  -2.5211566201696622e-03  -1.9973954475530167e-03  -1.2785007107185260e-03  -4.1355369086791663e-04  5.4809319043307397e-04  1.5577739204349270e-03  2.5673888121330048e-03  3.5287361322267176e-03  4.3928595240686234e-03  5.1099787912029966e-03  5.6305483168447596e-03  5.9079110680342285e-03  5.9023181205751351e-03  5.5898067631554903e-03  4.9263391069457353e-03  4.3338234183003914e-03  -7.0861535931646092e-04  -1.2438614224937860e-03  -1.8577247313650925e-03  -2.1627633318655978e-03  -2.2019245784092529e-03  -1.9896497038586151e-03  -1.5567378067465633e-03  -9.4163704035596005e-04  -1.8760541754012821e-04  6.5974615791974630e-04  1.5538601283741670e-03  2.4478793796540044e-03  3.2948881160194039e-03  4.0481644026881267e-03  4.6618625423643575e-03  5.0924825845427030e-03  5.3013809749194625e-03  5.2579069872355517e-03  4.9466557603846323e-03  4.3321166266066871e-03  3.7973603875770001e-03  -4.0232059236722023e-04  -9.0358601673131876e-04  -1.4879129585815241e-03  -1.7927040191936788e-03  -1.8533070329810105e-03  -1.6801189059464556e-03  -1.2990081237154350e-03  -7.4405992127979294e-04  -5.5112836782789622e-05  7.2459252505344173e-04  1.5500221673673961e-03  2.3753903345251478e-03  3.1548848504521516e-03  3.8433983923969219e-03  4.3975875847468643e-03  4.7775115829919480e-03  4.9490065529499833e-03  4.8862886269581728e-03  4.5784932486201873e-03  3.9939064871319461e-03  3.4929934745343227e-03  -3.0242856104154947e-04  -7.9231637703424708e-04  -1.3667684605732588e-03  -1.6721077680482699e-03  -1.7400663470970126e-03  -1.5799464938985772e-03  -1.2160295203758175e-03  -6.8101928266019217e-04  -1.3656448776879247e-05  7.4359791248317455e-04  1.5462370889846944e-03  2.3488762654875223e-03  3.1061306267515460e-03  3.7734934606404691e-03  4.3085036983621814e-03  4.6724206718904383e-03  4.8325405250925534e-03  4.7645819460455209e-03  4.4592426385704131e-03  3.8847905550308407e-03  3.3949027390382841e-03  -4.0051929653839318e-04  -9.0143230913601699e-04  -1.4860190706235709e-03  -1.7938144489615536e-03  -1.8565323749550027e-03  -1.6850374050008732e-03  -1.3051134067613539e-03  -7.5092421441774466e-04  -6.2410672478803011e-05  7.1708384344420877e-04  1.5424520106005358e-03  2.3678816529158720e-03  3.1475870147560899e-03  3.8365340992587206e-03  4.3914823017006405e-03  4.7725930839372672e-03  4.9457812109757696e-03  4.8851781971900885e-03  4.5803871365779633e-03  3.9960601947271216e-03  3.4947947703630601e-03  -7.0488620958382181e-04  -1.2396424486131295e-03  -1.8541815823900822e-03  -2.1654328092407700e-03  -2.2089067969265847e-03  -2.0000084065541985e-03  -1.5693883643819284e-03  -9.5569022471261715e-04  -2.0241393805008485e-04  6.4459479831103529e-04  1.5386140495892609e-03  2.4327280200451169e-03  3.2800795955091814e-03  4.0341112183311188e-03  4.6492119847286106e-03  5.0821238818467571e-03  5.2943987564016666e-03  5.2552375098598499e-03  4.9501989093595211e-03  4.3363356004873666e-03  3.8010895373096726e-03  -1.2413492403113948e-03  -1.8338649289557742e-03  -2.4973325851639729e-03  -2.8098439425833367e-03  -2.8154368900448726e-03  -2.5380741388606413e-03  -2.0175046132260089e-03  -1.3003853460996219e-03  -4.3626195426473593e-04  5.2508536582405866e-04  1.5347002575203535e-03  2.5443809875237977e-03  3.5060278688294816e-03  4.3709748886869466e-03  5.0898696255292988e-03  5.6136307981530303e-03  5.8960037709319601e-03  5.8970823715685699e-03  5.5944326681085918e-03  4.9324072115958118e-03  4.3397579659271148e-03  -2.0559160509290401e-03  -2.7320576513719980e-03  -3.4615164094688685e-03  -3.7666631799490500e-03  -3.7067831208682182e-03  -3.3205151977559917e-03  -2.6625846224448890e-03  -1.7920669001790734e-03  -7.6715161059470803e-04  3.5746439077536410e-04  1.5307529142311149e-03  2.7039720376418035e-03  3.8285390996772809e-03  4.8538897379062206e-03  5.7260417155939542e-03  6.3876359216645182e-03  6.7803812873153766e-03  6.8495109038758427e-03  6.5586254348453093e-03  5.8320092026308981e-03  5.1570202691296639e-03  -3.2199957828466723e-03  -4.0087742243518397e-03  -4.8173401883091866e-03  -5.0948009681969445e-03  -4.9263562806624106e-03  -4.3753163682164961e-03  -3.5199987047114020e-03  -2.4374832027935526e-03  -1.1970730697688061e-03  1.4158964785599429e-04  1.5269241211423579e-03  2.9118917902470859e-03  4.2496795961712661e-03  5.4893867381553413e-03  6.5724882239117082e-03  7.4310994978261241e-03  7.9896295100377480e-03  8.1701124138074399e-03  7.9125017424260969e-03  7.1092707447982734e-03  6.3246306727520549e-03  -4.8397537750826764e-03  -5.7751630494460885e-03  -6.6678741273946849e-03  -6.8762780683008524e-03  -6.5300222245610502e-03  -5.7340749498489127e-03  -4.6031484063606271e-03  -3.2390756884305410e-03  -1.7238385245447552e-03  -1.2015979169765646e-04  1.5235293073249309e-03  3.1663323536962862e-03  4.7676314659403198e-03  6.2798835762118421e-03  7.6419721092821254e-03  8.7742177473262382e-03  9.5775515735005284e-03  9.9386302059952056e-03  9.7574945048608339e-03  8.8744955787481861e-03  7.9493833333222335e-03  -7.0730174190329290e-03  -8.1970151117274903e-03  -9.1619105500670792e-03  -9.2211953057152705e-03  -8.5836732009894022e-03  -7.4253890494490231e-03  -5.9158849939943154e-03  -4.1884962497131693e-03  -2.3366091500314277e-03  -4.2063562839255862e-04  1.5210991154599304e-03  3.4611690841739543e-03  5.3724141262212850e-03  7.2174532142105551e-03  8.9378843245000467e-03  1.0443772102358100e-02  1.1606748636658422e-02  1.2261039694417681e-02  1.2239172034265920e-02  1.1291717403180345e-02  1.0190369887877453e-02  -1.0161248046493543e-02  -1.1528594882821921e-02  -1.2516139876263700e-02  -1.2272544158258321e-02  -1.1155012762757176e-02  -9.4613270071754168e-03  -7.4395116592673467e-03  -5.2568181096670722e-03  -3.0097832325927782e-03  -7.4506735314127108e-04  1.5204003737003134e-03  3.7832039028274644e-03  6.0400278030521741e-03  8.2745087245721261e-03  1.0441835338116765e-02  1.2449907271837561e-02  1.4139818651069145e-02  1.5272542303611901e-02  1.5567392432055136e-02  1.4611371697033460e-02  1.3291916661508493e-02  -1.4493793584668417e-02  -1.6179814064253225e-02  -1.7051719940757472e-02  -1.6205119645714413e-02  -1.4290891051574569e-02  -1.1810968445162761e-02  -9.1119069631002917e-03  -6.3812079572629814e-03  -3.6958070224719442e-03  -1.0680873316695279e-03  1.5223762709556839e-03  4.1091483915241559e-03  6.7254855686039398e-03  9.3911883140620645e-03  1.2094097279965653e-02  1.4761125623413923e-02  1.7216615376423813e-02  1.9132967043220584e-02  2.0047325823590020e-02  1.9234343923666991e-02  1.7651524405704905e-02  -2.0746355007593673e-02  -2.2860678591666853e-02  -2.3249699938515739e-02  -2.1197936796349456e-02  -1.7960767615778129e-02  -1.4352062053193611e-02  -1.0797582685965654e-02  -7.4499523989716042e-03  -4.3190293491732826e-03  -1.3518703984034960e-03  1.5279182667784124e-03  4.4033590999157128e-03  7.3565307546722093e-03  1.0461077497723849e-02  1.3766166625234427e-02  1.7260548663800696e-02  2.0800790137455460e-02  2.3994389361313338e-02  2.6118713548072159e-02  2.5844043604343513e-02  2.3976288393594978e-02  -3.0225654230239742e-02  -3.2923845960651003e-02  -3.1801180860544738e-02  -2.7313485236303392e-02  -2.1928775663246036e-02  -1.6793549646327101e-02  -1.2253981295978718e-02  -8.2925753989045344e-03  -4.7751534545255924e-03  -1.5474385356085271e-03  1.5375887683533565e-03  4.6185634838036248e-03  7.8325752375451134e-03  1.1321500347096856e-02  1.5229589224454365e-02  1.9675411411784482e-02  2.4662874149041589e-02  2.9884220105671697e-02  3.4364862228068699e-02  3.5682326984200992e-02  3.3703046981373538e-02  -4.6044158043748257e-02  -4.9181858677251070e-02  -4.3432913494477518e-02  -3.4099643049028690e-02  -2.5508885481654309e-02  -1.8584451199779445e-02  -1.3116369240032483e-02  -8.6895220451110571e-03  -4.9435806571274023e-03  -1.6023213950866267e-03  1.5503237014044150e-03  4.7004915655798124e-03  8.0326546760753955e-03  1.1756689838685507e-02  1.6133725486250392e-02  2.1491466440363153e-02  2.8190807786401397e-02  3.6408395863873060e-02  4.5294719686262315e-02  5.1058822256937690e-02  5.0348553023142298e-02  -7.9086197433834743e-02  -7.7110756162871441e-02  -5.7481909446209997e-02  -3.9621125371397177e-02  -2.7273354958200581e-02  -1.8907386216690435e-02  -1.2954854250024843e-02  -8.4221461401645051e-03  -4.7174867549689753e-03  -1.4721288076450160e-03  1.5682994586963253e-03  4.6097465347304670e-03  7.8575303908009937e-03  1.1563205984532747e-02  1.6086133818378104e-02  2.1986064020325304e-02  3.0147925572133069e-02  4.1799957767420064e-02  5.7698151480815280e-02  7.5522648129863729e-02  8.4590005663081516e-02  -1.8031028660247914e-01  -1.1819886315415308e-01  -6.5757407714913327e-02  -3.8820015629046974e-02  -2.4954041366931447e-02  -1.6809635099673179e-02  -1.1366343371237479e-02  -7.3191421514114804e-03  -4.0298933466589443e-03  -1.1438758314573966e-03  1.5665801327723128e-03  4.2790601351222028e-03  7.1712934624835294e-03  1.0471180900777812e-02  1.4532514213954559e-02  1.9983831853054568e-02  2.8063038443856436e-02  4.1409228264103433e-02  6.6258405566953768e-02  1.1401932501403675e-01  1.7365613773846839e-01  -3.4570349248372972e-01  -1.3350885355016559e-01  -5.4795870677353718e-02  -3.1155013624000596e-02  -2.0414284440608384e-02  -1.4013366714142453e-02  -9.5933245034789828e-03  -6.2036374378535153e-03  -3.3747993082031968e-03  -8.4426887032771378e-04  1.5566467416478992e-03  3.9598605308861935e-03  6.4983206470202249e-03  9.3447254903687941e-03  1.2773036761950941e-02  1.7290501612155694e-02  2.3986248760196446e-02  3.5622554817104871e-02  6.0339233310667727e-02  1.2262139350948782e-01  3.5093656069159435e-01  </DataArray> 
</PointData> 
</Piece>
</UnstructuredGrid>
</VTKFile>