<?xml version="1.0"?>
<VTKFile type="UnstructuredGrid"  version="0.1"  >
<UnstructuredGrid>
<Piece  NumberOfPoints="651" NumberOfCells="1200">
<Points>
<DataArray  type="Float64"  NumberOfComponents="3"  format="ascii">0 0 0  50000 0 0  100000 0 0  150000 0 0  200000 0 0  250000 0 0  300000 0 0  350000 0 0  400000 0 0  450000 0 0  500000 0 0  550000 0 0  600000 0 0  650000 0 0  700000 0 0  750000 0 0  800000 0 0  850000 0 0  900000 0 0  950000 0 0  1000000 0 0  0 50000 0  50000 50000 0  100000 50000 0  150000 50000 0  200000 50000 0  250000 50000 0  300000 50000 0  350000 50000 0  400000 50000 0  450000 50000 0  500000 50000 0  550000 50000 0  600000 50000 0  650000 50000 0  700000 50000 0  750000 50000 0  800000 50000 0  850000 50000 0  900000 50000 0  950000 50000 0  1000000 50000 0  0 100000 0  50000 100000 0  100000 100000 0  150000 100000 0  200000 100000 0  250000 100000 0  300000 100000 0  350000 100000 0  400000 100000 0  450000 100000 0  500000 100000 0  550000 100000 0  600000 100000 0  650000 100000 0  700000 100000 0  750000 100000 0  800000 100000 0  850000 100000 0  900000 100000 0  950000 100000 0  1000000 100000 0  0 150000 0  50000 150000 0  100000 150000 0  150000 150000 0  200000 150000 0  250000 150000 0  300000 150000 0  350000 150000 0  400000 150000 0  450000 150000 0  500000 150000 0  550000 150000 0  600000 150000 0  650000 150000 0  700000 150000 0  750000 150000 0  800000 150000 0  850000 150000 0  900000 150000 0  950000 150000 0  1000000 150000 0  0 200000 0  50000 200000 0  100000 200000 0  150000 200000 0  200000 200000 0  250000 200000 0  300000 200000 0  350000 200000 0  400000 200000 0  450000 200000 0  500000 200000 0  550000 200000 0  600000 200000 0  650000 200000 0  700000 200000 0  750000 200000 0  800000 200000 0  850000 200000 0  900000 200000 0  950000 200000 0  1000000 200000 0  0 250000 0  50000 250000 0  100000 250000 0  150000 250000 0  200000 250000 0  250000 250000 0  300000 250000 0  350000 250000 0  400000 250000 0  450000 250000 0  500000 250000 0  550000 250000 0  600000 250000 0  650000 250000 0  700000 250000 0  750000 250000 0  800000 250000 0  850000 250000 0  900000 250000 0  950000 250000 0  1000000 250000 0  0 300000 0  50000 300000 0  100000 300000 0  150000 300000 0  200000 300000 0  250000 300000 0  300000 300000 0  350000 300000 0  400000 300000 0  450000 300000 0  500000 300000 0  550000 300000 0  600000 300000 0  650000 300000 0  700000 300000 0  750000 300000 0  800000 300000 0  850000 300000 0  900000 300000 0  950000 300000 0  1000000 300000 0  0 350000 0  50000 350000 0  100000 350000 0  150000 350000 0  200000 350000 0  250000 350000 0  300000 350000 0  350000 350000 0  400000 350000 0  450000 350000 0  500000 350000 0  550000 350000 0  600000 350000 0  650000 350000 0  700000 350000 0  750000 350000 0  800000 350000 0  850000 350000 0  900000 350000 0  950000 350000 0  1000000 350000 0  0 400000 0  50000 400000 0  100000 400000 0  150000 400000 0  200000 400000 0  250000 400000 0  300000 400000 0  350000 400000 0  400000 400000 0  450000 400000 0  500000 400000 0  550000 400000 0  600000 400000 0  650000 400000 0  700000 400000 0  750000 400000 0  800000 400000 0  850000 400000 0  900000 400000 0  950000 400000 0  1000000 400000 0  0 450000 0  50000 450000 0  100000 450000 0  150000 450000 0  200000 450000 0  250000 450000 0  300000 450000 0  350000 450000 0  400000 450000 0  450000 450000 0  500000 450000 0  550000 450000 0  600000 450000 0  650000 450000 0  700000 450000 0  750000 450000 0  800000 450000 0  850000 450000 0  900000 450000 0  950000 450000 0  1000000 450000 0  0 500000 0  50000 500000 0  100000 500000 0  150000 500000 0  200000 500000 0  250000 500000 0  300000 500000 0  350000 500000 0  400000 500000 0  450000 500000 0  500000 500000 0  550000 500000 0  600000 500000 0  650000 500000 0  700000 500000 0  750000 500000 0  800000 500000 0  850000 500000 0  900000 500000 0  950000 500000 0  1000000 500000 0  0 550000 0  50000 550000 0  100000 550000 0  150000 550000 0  200000 550000 0  250000 550000 0  300000 550000 0  350000 550000 0  400000 550000 0  450000 550000 0  500000 550000 0  550000 550000 0  600000 550000 0  650000 550000 0  700000 550000 0  750000 550000 0  800000 550000 0  850000 550000 0  900000 550000 0  950000 550000 0  1000000 550000 0  0 600000 0  50000 600000 0  100000 600000 0  150000 600000 0  200000 600000 0  250000 600000 0  300000 600000 0  350000 600000 0  400000 600000 0  450000 600000 0  500000 600000 0  550000 600000 0  600000 600000 0  650000 600000 0  700000 600000 0  750000 600000 0  800000 600000 0  850000 600000 0  900000 600000 0  950000 600000 0  1000000 600000 0  0 650000 0  50000 650000 0  100000 650000 0  150000 650000 0  200000 650000 0  250000 650000 0  300000 650000 0  350000 650000 0  400000 650000 0  450000 650000 0  500000 650000 0  550000 650000 0  600000 650000 0  650000 650000 0  700000 650000 0  750000 650000 0  800000 650000 0  850000 650000 0  900000 650000 0  950000 650000 0  1000000 650000 0  0 700000 0  50000 700000 0  100000 700000 0  150000 700000 0  200000 700000 0  250000 700000 0  300000 700000 0  350000 700000 0  400000 700000 0  450000 700000 0  500000 700000 0  550000 700000 0  600000 700000 0  650000 700000 0  700000 700000 0  750000 700000 0  800000 700000 0  850000 700000 0  900000 700000 0  950000 700000 0  1000000 700000 0  0 750000 0  50000 750000 0  100000 750000 0  150000 750000 0  200000 750000 0  250000 750000 0  300000 750000 0  350000 750000 0  400000 750000 0  450000 750000 0  500000 750000 0  550000 750000 0  600000 750000 0  650000 750000 0  700000 750000 0  750000 750000 0  800000 750000 0  850000 750000 0  900000 750000 0  950000 750000 0  1000000 750000 0  0 800000 0  50000 800000 0  100000 800000 0  150000 800000 0  200000 800000 0  250000 800000 0  300000 800000 0  350000 800000 0  400000 800000 0  450000 800000 0  500000 800000 0  550000 800000 0  600000 800000 0  650000 800000 0  700000 800000 0  750000 800000 0  800000 800000 0  850000 800000 0  900000 800000 0  950000 800000 0  1000000 800000 0  0 850000 0  50000 850000 0  100000 850000 0  150000 850000 0  200000 850000 0  250000 850000 0  300000 850000 0  350000 850000 0  400000 850000 0  450000 850000 0  500000 850000 0  550000 850000 0  600000 850000 0  650000 850000 0  700000 850000 0  750000 850000 0  800000 850000 0  850000 850000 0  900000 850000 0  950000 850000 0  1000000 850000 0  0 900000 0  50000 900000 0  100000 900000 0  150000 900000 0  200000 900000 0  250000 900000 0  300000 900000 0  350000 900000 0  400000 900000 0  450000 900000 0  500000 900000 0  550000 900000 0  600000 900000 0  650000 900000 0  700000 900000 0  750000 900000 0  800000 900000 0  850000 900000 0  900000 900000 0  950000 900000 0  1000000 900000 0  0 950000 0  50000 950000 0  100000 950000 0  150000 950000 0  200000 950000 0  250000 950000 0  300000 950000 0  350000 950000 0  400000 950000 0  450000 950000 0  500000 950000 0  550000 950000 0  600000 950000 0  650000 950000 0  700000 950000 0  750000 950000 0  800000 950000 0  850000 950000 0  900000 950000 0  950000 950000 0  1000000 950000 0  0 1000000 0  50000 1000000 0  100000 1000000 0  150000 1000000 0  200000 1000000 0  250000 1000000 0  300000 1000000 0  350000 1000000 0  400000 1000000 0  450000 1000000 0  500000 1000000 0  550000 1000000 0  600000 1000000 0  650000 1000000 0  700000 1000000 0  750000 1000000 0  800000 1000000 0  850000 1000000 0  900000 1000000 0  950000 1000000 0  1000000 1000000 0  0 1050000 0  50000 1050000 0  100000 1050000 0  150000 1050000 0  200000 1050000 0  250000 1050000 0  300000 1050000 0  350000 1050000 0  400000 1050000 0  450000 1050000 0  500000 1050000 0  550000 1050000 0  600000 1050000 0  650000 1050000 0  700000 1050000 0  750000 1050000 0  800000 1050000 0  850000 1050000 0  900000 1050000 0  950000 1050000 0  1000000 1050000 0  0 1100000 0  50000 1100000 0  100000 1100000 0  150000 1100000 0  200000 1100000 0  250000 1100000 0  300000 1100000 0  350000 1100000 0  400000 1100000 0  450000 1100000 0  500000 1100000 0  550000 1100000 0  600000 1100000 0  650000 1100000 0  700000 1100000 0  750000 1100000 0  800000 1100000 0  850000 1100000 0  900000 1100000 0  950000 1100000 0  1000000 1100000 0  0 1150000 0  50000 1150000 0  100000 1150000 0  150000 1150000 0  200000 1150000 0  250000 1150000 0  300000 1150000 0  350000 1150000 0  400000 1150000 0  450000 1150000 0  500000 1150000 0  550000 1150000 0  600000 1150000 0  650000 1150000 0  700000 1150000 0  750000 1150000 0  800000 1150000 0  850000 1150000 0  900000 1150000 0  950000 1150000 0  1000000 1150000 0  0 1200000 0  50000 1200000 0  100000 1200000 0  150000 1200000 0  200000 1200000 0  250000 1200000 0  300000 1200000 0  350000 1200000 0  400000 1200000 0  450000 1200000 0  500000 1200000 0  550000 1200000 0  600000 1200000 0  650000 1200000 0  700000 1200000 0  750000 1200000 0  800000 1200000 0  850000 1200000 0  900000 1200000 0  950000 1200000 0  1000000 1200000 0  0 1250000 0  50000 1250000 0  100000 1250000 0  150000 1250000 0  200000 1250000 0  250000 1250000 0  300000 1250000 0  350000 1250000 0  400000 1250000 0  450000 1250000 0  500000 1250000 0  550000 1250000 0  600000 1250000 0  650000 1250000 0  700000 1250000 0  750000 1250000 0  800000 1250000 0  850000 1250000 0  900000 1250000 0  950000 1250000 0  1000000 1250000 0  0 1300000 0  50000 1300000 0  100000 1300000 0  150000 1300000 0  200000 1300000 0  250000 1300000 0  300000 1300000 0  350000 1300000 0  400000 1300000 0  450000 1300000 0  500000 1300000 0  550000 1300000 0  600000 1300000 0  650000 1300000 0  700000 1300000 0  750000 1300000 0  800000 1300000 0  850000 1300000 0  900000 1300000 0  950000 1300000 0  1000000 1300000 0  0 1350000 0  50000 1350000 0  100000 1350000 0  150000 1350000 0  200000 1350000 0  250000 1350000 0  300000 1350000 0  350000 1350000 0  400000 1350000 0  450000 1350000 0  500000 1350000 0  550000 1350000 0  600000 1350000 0  650000 1350000 0  700000 135
[...]
<PointData  Scalars="f_10483"> 
<DataArray  type="Float64"  Name="f_10483"  format="ascii">-3.9546845620794424e-01  -1.3525222777849163e-01  -6.4994366390238034e-02  -3.7207292562728235e-02  -2.4181729871463449e-02  -1.6737303745472901e-02  -1.1761692794553972e-02  -8.0253348678761809e-03  -4.9533732638861495e-03  -2.2339374476882468e-03  3.3041184363842433e-04  2.8921102242530201e-03  5.6024227065545043e-03  8.6542758588352871e-03  1.2346762837038346e-02  1.7212656770379937e-02  2.4325868592263468e-02  3.6336842906520825e-02  6.2868743953661460e-02  1.5191457689478247e-01  3.9450765712242369e-01  -1.9339482772110650e-01  -1.2574543209612499e-01  -7.1917818673936887e-02  -4.3894068824579024e-02  -2.8894299377302764e-02  -1.9861617286251052e-02  -1.3811939600754344e-02  -9.3437243805350543e-03  -5.7438886787053471e-03  -2.6098764158779993e-03  3.1846060737705442e-04  3.2444658166454789e-03  6.3713119892702657e-03  9.9588525622223440e-03  1.4410578984255705e-02  2.0449946394711798e-02  2.9552620149005813e-02  4.5131576790389018e-02  7.5514667204713740e-02  1.3485092416483849e-01  2.0533039341083165e-01  -9.2626908359345617e-02  -8.2460243882258519e-02  -6.2388568931892180e-02  -4.4459037012860657e-02  -3.1354945658462620e-02  -2.2212047454568527e-02  -1.5638654022263523e-02  -1.0631555675823539e-02  -6.5555030705215381e-03  -3.0018269998653871e-03  3.1623122519501182e-04  3.6331291061966289e-03  7.1840370565689603e-03  1.1258890683184471e-02  1.6276919027884730e-02  2.2909385322063137e-02  3.2281928843913558e-02  4.6171704796669572e-02  6.6319451571531449e-02  8.8476885357445911e-02  9.0582365944279375e-02  -5.4127414025844062e-02  -5.4969207297768163e-02  -4.8470414714071604e-02  -3.8455951706318825e-02  -2.9223337138028403e-02  -2.1721724220920519e-02  -1.5748327977977636e-02  -1.0892633231494612e-02  -6.7818477387847267e-03  -3.1184941096245910e-03  3.3692077440251623e-04  3.7951457148325757e-03  7.4688113055835963e-03  1.1604408360482351e-02  1.6516479970298554e-02  2.2614767786502250e-02  3.0371338426635273e-02  4.0026973231012147e-02  5.0541179556237784e-02  5.7018376995009890e-02  5.3454484335566585e-02  -3.5437122505030651e-02  -3.7683221355801932e-02  -3.6197004358810903e-02  -3.1159164247329479e-02  -2.5304524402560515e-02  -1.9727701197393369e-02  -1.4774190195035180e-02  -1.0437117368353337e-02  -6.5801731849865104e-03  -3.0381344118616052e-03  3.5146882456996083e-04  3.7456658008282314e-03  7.3032337082798047e-03  1.1192459795686656e-02  1.5589911788797957e-02  2.0649594852671881e-02  2.6393910475199543e-02  3.2434460508150825e-02  3.7479452702770595e-02  3.8742217661727245e-02  3.5696016213630333e-02  -2.4506898877852450e-02  -2.6623524397621286e-02  -2.6938821836372591e-02  -2.4562251286718611e-02  -2.0993559842308048e-02  -1.7045345101003081e-02  -1.3159048421159808e-02  -9.4944895413154994e-03  -6.0623183282897770e-03  -2.8050078789539148e-03  3.6258266304036764e-04  3.5351068084355898e-03  6.8082876741698767e-03  1.0270384163092623e-02  1.3983210901495898e-02  1.7937708869060775e-02  2.1963636592572205e-02  2.5582230783872784e-02  2.7877339171630468e-02  2.7431692495151771e-02  2.5040449278946397e-02  -1.7389830225587197e-02  -1.9189073283046528e-02  -2.0119699137801577e-02  -1.9111691684211785e-02  -1.6984128236637783e-02  -1.4257511667691474e-02  -1.1300380694131177e-02  -8.3094262425076459e-03  -5.3655264259799447e-03  -2.4807333067642721e-03  3.6900349036982132e-04  3.2229347532847755e-03  6.1206620343993321e-03  9.0869500833630889e-03  1.2109510013877906e-02  1.5103136821198470e-02  1.7857729077537986e-02  1.9983449137210094e-02  2.0915582557531183e-02  1.9917682527793870e-02  1.8002788195141759e-02  -1.2477334176308572e-02  -1.3984799585587336e-02  -1.5085052263265338e-02  -1.4780083538074591e-02  -1.3537798792361154e-02  -1.1673885552107376e-02  -9.4573631446641382e-03  -7.0664710709596873e-03  -4.6039213785933905e-03  -2.1189497824809452e-03  3.7137302219341452e-04  2.8647297540701864e-03  5.3586913566301235e-03  7.8355532661940116e-03  1.0243998798922328e-02  1.2476317588554321e-02  1.4344834825028473e-02  1.5570432037470789e-02  1.5818051437216905e-02  1.4681587825213347e-02  1.3120032694855474e-02  -8.9786493683516131e-03  -1.0244611181405260e-02  -1.1342344598984814e-02  -1.1398681349852455e-02  -1.0697770879732168e-02  -9.4280788159652115e-03  -7.7763287987155380e-03  -5.8866573540207042e-03  -3.8596504343315751e-03  -1.7601762795157786e-03  3.7069712253411644e-04  2.5034734494314131e-03  4.6083571603598439e-03  6.6432166901368040e-03  8.5409169594838734e-03  1.0196979844609629e-02  1.1461652131643199e-02  1.2143989469133101e-02  1.2045766270178606e-02  1.0927826810140514e-02  9.6360170549126666e-03  -6.4492003679180983e-03  -7.5195733245643380e-03  -8.5500858078700892e-03  -8.7894719463970650e-03  -8.4209617967869275e-03  -7.5571476762800955e-03  -6.3258397659784115e-03  -4.8383766599843772e-03  -3.1840240094685147e-03  -1.4309592548028894e-03  3.6804347441810568e-04  2.1680663736514177e-03  3.9238774308606190e-03  5.5817003949701315e-03  7.0715441841932179e-03  8.3015434662791921e-03  9.1572283179368382e-03  9.5092599483783923e-03  9.2393017050644514e-03  8.1974155144308360e-03  7.1150964479389936e-03  -4.6152693002613470e-03  -5.5290999470245595e-03  -6.4734333357782201e-03  -6.8016464328612102e-03  -6.6382304659172537e-03  -6.0508768657165403e-03  -5.1276164809565140e-03  -3.9534737874628171e-03  -2.6045936651269779e-03  -1.1464227944911092e-03  3.6428127692777920e-04  1.8754154097995121e-03  3.3346217303228598e-03  4.6843743469508385e-03  5.8579636130406685e-03  6.7776399766333777e-03  7.3566858508744759e-03  7.5066810780549222e-03  7.1561607235936537e-03  6.2054951016280125e-03  5.2867073620028833e-03  -3.2980271766762017e-03  -4.0890491006953912e-03  -4.9493203656908085e-03  -5.3168251470122434e-03  -5.2800397458606287e-03  -4.8799953368490129e-03  -4.1786025304806048e-03  -3.2414732897110320e-03  -2.1330069509954779e-03  -9.1366855405075197e-04  3.6001341827058690e-04  1.6337858881257698e-03  2.8532156178693586e-03  3.9612492551792666e-03  4.8966122715212576e-03  5.5939633902321890e-03  5.9867929563024117e-03  6.0132406538616363e-03  5.6296646303613425e-03  4.7659619753475319e-03  3.9734173643108323e-03  -2.3768763017773201e-03  -3.0752125327138213e-03  -3.8639115714973679e-03  -4.2457799432767066e-03  -4.2864371532644625e-03  -4.0111202530173015e-03  -3.4649761921773650e-03  -2.7000934725802113e-03  -1.7716160430425191e-03  -7.3488618385749447e-04  3.5559972314866135e-04  1.4460199429286898e-03  2.4824371190806491e-03  3.4100257185878616e-03  4.1729577324284882e-03  4.7155605898696086e-03  4.9852811213824226e-03  4.9371511094223330e-03  4.5441385501832311e-03  3.7536613819450747e-03  3.0553211416586828e-03  -1.7703748522879112e-03  -2.4038141074542657e-03  -3.1387799549268641e-03  -3.5239542314560923e-03  -3.6104059316376218e-03  -3.4143019141243741e-03  -2.9704941312200406e-03  -2.3222891327175830e-03  -1.5183108717114174e-03  -6.0974563441626103e-04  3.5121534333196653e-04  1.3120748842228101e-03  2.2202692137155765e-03  3.0234203934177105e-03  3.6700748400174885e-03  4.1113319988778070e-03  4.3036572036979923e-03  4.2123663849709400e-03  3.8201549805457684e-03  3.0843349598382308e-03  2.4513532712718317e-03  -1.4258150848939332e-03  -2.0207213407630602e-03  -2.7225923955096127e-03  -3.1077829840938861e-03  -3.2186238083855806e-03  -3.0666812906851230e-03  -2.6812233619477148e-03  -2.1006439349111009e-03  -1.3697350369413226e-03  -5.3704517693577809e-04  3.4691111003874731e-04  1.2308006552938086e-03  2.0632602666358431e-03  2.7936919970375806e-03  3.3734300907541821e-03  3.7575651339707542e-03  3.9076105462314331e-03  3.7943940133262355e-03  3.4057950594698436e-03  2.7035878717388186e-03  2.1090345517669235e-03  -1.3134758724377478e-03  -1.8954734540513453e-03  -2.5862688203655395e-03  -2.9721705772062972e-03  -3.0913665124005086e-03  -2.9541827732420109e-03  -2.5880879759219819e-03  -2.0299210327635315e-03  -1.3232439224555668e-03  -5.1573774349096828e-04  3.4266392827245141e-04  1.2010656000375067e-03  2.0085717790070162e-03  2.7152488893219117e-03  3.2734158324878781e-03  3.6395106298146482e-03  3.7766943689776541e-03  3.6574984337855230e-03  3.2715966769446421e-03  2.5808013106298220e-03  1.9988037290164674e-03  -1.4237066951892433e-03  -2.0182600151612061e-03  -2.7204672028914531e-03  -3.1090661567478302e-03  -3.2222826896550266e-03  -3.0722372773991096e-03  -2.6881022341893840e-03  -2.1083641404805909e-03  -1.3779324100860327e-03  -5.4547279874893524e-04  3.3841674650436025e-04  1.2223730334806025e-03  2.0550628934910753e-03  2.7859717914678157e-03  3.3665512185121677e-03  3.7520091472564663e-03  3.9039516649617412e-03  3.7931108406720560e-03  3.4079202520878129e-03  2.7060491973405370e-03  2.1111429414715221e-03  -1.7660254146976413e-03  -2.3990071032636436e-03  -3.1348271239700176e-03  -3.5270385283949195e-03  -3.6183293471242807e-03  -3.4260041423094358e-03  -2.9847469834565652e-03  -2.3380925368652783e-03  -1.5349413571707667e-03  -6.2674702768328241e-04  3.3411251320558124e-04  1.2950734909555875e-03  2.2036387282559230e-03  3.0076169892696157e-03  3.6558219877805302e-03  4.0996297706923342e-03  4.2957337882108060e-03  4.2092820880315178e-03  3.8241078115024982e-03  3.0891419640289072e-03  2.4557027088621692e-03  -2.3699932850898046e-03  -3.0683335253750693e-03  -3.8588106936113826e-03  -4.2518232528501523e-03  -4.2999532648132100e-03  -4.0302327333067711e-03  -3.4876298758743565e-03  -2.7246978620434977e-03  -1.7971092625448874e-03  -7.6069208639895840e-04  3.2972813337888156e-04  1.4202140403870060e-03  2.4569438995778042e-03  3.3854213291239152e-03  4.1503040487306866e-03  4.6964481095792899e-03  4.9717650098329048e-03  4.9311077998481041e-03  4.5492394280687238e-03  3.7605403892833848e-03  3.0622041583458644e-03  -3.2880895077492369e-03  -4.0806341187838617e-03  -4.9443367737947814e-03  -5.3279127972951359e-03  -5.3014650997398769e-03  -4.9086355336778525e-03  -4.2112844149777614e-03  -3.2759213986474794e-03  -2.1678877613477928e-03  -9.4845803161126212e-04  3.2531443824134360e-04  1.5989964105649680e-03  2.8183348075164179e-03  3.9268011462418075e-03  4.8639303870228719e-03  5.5653231934020267e-03  5.9653676024220689e-03  6.0021530035777619e-03  5.6346482222564805e-03  4.7743769572584777e-03  3.9833550332374007e-03  -4.6013795054495946e-03  -5.5201672450711668e-03  -6.4708328670330098e-03  -6.8213532214949956e-03  -6.6713579943205549e-03  -6.0923121200905156e-03  -5.1726357565120458e-03  -3.9990464904369688e-03  -2.6492938738214892e-03  -1.1900875533066855e-03  3.2104657956195329e-04  1.8317506509835297e-03  3.2899215216274512e-03  4.6388016439754568e-03  5.8129443374835884e-03  6.7362047222576269e-03  7.3235583224694053e-03  7.4869742894195660e-03  7.1587611923378128e-03  6.2144278035806463e-03  5.3005971568141274e-03  -6.4297685913937332e-03  -7.5120876578805658e-03  -8.5539738485093837e-03  -8.8239320918256734e-03  -8.4719004613937558e-03  -7.6162156097517872e-03  -6.3862163276847553e-03  -4.8963725384804785e-03  -3.2385495743864718e-03  -1.4827385171874835e-03  3.1728438204207488e-04  2.1162871112662745e-03  3.8693518659416123e-03  5.5237045164726571e-03  7.0111676224850691e-03  8.2424755328053285e-03  9.1062896533277340e-03  9.4747998029477195e-03  9.2354136644235817e-03  8.2049011811136090e-03  7.1345282244620872e-03  -8.9506891983741847e-03  -1.0242498953594630e-02  -1.1360438413627636e-02  -1.1458661612587467e-02  -1.0776324275112945e-02  -9.5116519881015982e-03  -7.8555891030010292e-03  -5.9578888336775408e-03  -3.9230293039195932e-03  -1.8181455930035488e-03  3.1463073388932414e-04  2.4455041359431220e-03  4.5449782907706392e-03  6.5719852104783524e-03  8.4616566551963326e-03  1.0113406672470550e-02  1.1383098736259563e-02  1.2084009206395338e-02  1.2027672455533642e-02  1.0929939037949825e-02  9.6639772248893804e-03  -1.2434704838318676e-02  -1.3996259968666441e-02  -1.5132723580666011e-02  -1.4885104180931228e-02  -1.3659506968512326e-02  -1.1790989732068952e-02  -9.5586709424695607e-03  -7.1502254097705305e-03  -4.6733635002292780e-03  -2.1794018976835287e-03  3.1395483418824178e-04  2.8042776388670677e-03  5.2892492349931415e-03  7.7517989273814614e-03  1.0142691001114455e-02  1.2359213408589450e-02  1.4223126648873791e-02  1.5465411394610520e-02  1.5770380119812875e-02  1.4670127442131978e-02  1.3162662032844431e-02  -1.7317460338597029e-02  -1.9232354671237354e-02  -2.0230254700974414e-02  -1.9298121280673427e-02  -1.7172401221035732e-02  -1.4417808964737752e-02  -1.1424182157457503e-02  -8.4016222269770666e-03  -5.4353341780388024e-03  -2.5376068969399164e-03  3.1632436596961506e-04  3.1660611631086034e-03  6.0508542823393399e-03  8.9947540988918155e-03  1.1985708550548839e-02  1.4942839524148424e-02  1.7669456093135687e-02  1.9797019540744417e-02  2.0805026994354762e-02  1.9874401139600151e-02  1.8075158082130737e-02  -2.4355121422377571e-02  -2.6746364638570667e-02  -2.7192011315056250e-02  -2.4896902927332907e-02  -2.1278308736081341e-02  -1.7252381012623018e-02  -1.3297883045105322e-02  -9.5850563067398555e-03  -6.1229598178444613e-03  -2.8497789521264305e-03  3.2274519326334227e-04  3.4903357352627498e-03  6.7476461846143710e-03  1.0179817397666600e-02  1.3844376277547856e-02  1.7730672957437653e-02  2.1678887698794211e-02  2.5247579143253089e-02  2.7624149692940941e-02  2.7308852254198556e-02  2.5192226734419967e-02  -3.5010688357010426e-02  -3.8056889805096965e-02  -3.6794124846162360e-02  -3.1749132651598164e-02  -2.5708582618713102e-02  -1.9964266996248651e-02  -1.4904583932426859e-02  -1.0507131939355345e-02  -6.6179058519761072e-03  -3.0603379445406156e-03  3.3385903171228676e-04  3.7234622681489092e-03  7.2655010412894412e-03  1.1122445224683182e-02  1.5459518051404029e-02  2.0413029053813758e-02  2.5989852259041660e-02  3.1844492103875244e-02  3.6882332215411213e-02  3.8368549212426328e-02  3.6122450361648649e-02  -5.2769156478852289e-02  -5.6333049138292596e-02  -4.9855851699574273e-02  -3.9341645374432466e-02  -2.9686010570139337e-02  -2.1929439930077163e-02  -1.5831152113928430e-02  -1.0919080504153104e-02  -6.7834834492818729e-03  -3.1098178585469999e-03  3.4840708187765988e-04  3.8038219659098627e-03  7.4671755950854804e-03  1.1577961087822474e-02  1.6433655834345747e-02  2.2407052077343153e-02  2.9908664994520051e-02  3.9141279562891554e-02  4.9155742570724546e-02  5.5654535154474799e-02  5.4812741882555992e-02  -8.9897038087383863e-02  -8.7791557500582540e-02  -6.5634123714785123e-02  -4.5486376940043489e-02  -3.1596600987387417e-02  -2.2224057465613865e-02  -1.5591591171494158e-02  -1.0573562826836450e-02  -6.4987092002503138e-03  -2.9478012498947324e-03  3.6909663110123623e-04  3.6871548561668945e-03  7.2408309268394309e-03  1.1316883532169662e-02  1.6323981878652014e-02  2.2897375311014878e-02  3.2040273514984986e-02  4.5144364869479300e-02  6.3073896788621117e-02  8.3145571739093080e-02  9.3312236216229250e-02  -2.0464506555356540e-01  -1.3416559630777455e-01  -7.4829339347863746e-02  -4.4446248933693845e-02  -2.8867292292426756e-02  -1.9764618538219800e-02  -1.3725251127828993e-02  -9.2735247058432033e-03  -5.6859841329234672e-03  -2.5591379603174869e-03  3.6686724894463503e-04  3.2952042722056377e-03  6.4292165350512869e-03  1.0029052236912884e-02  1.4497267457179133e-02  2.0546945142739713e-02  2.9579627233877595e-02  4.4579396681267577e-02  7.2603146530774765e-02  1.2643075995316075e-01  1.9408015557829075e-01  -3.9382232926507033e-01  -1.5122924903757609e-01  -6.2183416096725147e-02  -3.5651515049775484e-02  -2.3640540735650570e-02  -1.6527328913862008e-02  -1.1661434980590480e-02  -7.9689480024383117e-03  -4.9170948501918487e-03  -2.2067823679104608e-03  3.5491601269758136e-04  2.9192653040304864e-03  5.6387011202482752e-03  8.7106627242724069e-03  1.2447020651000779e-02  1.7422631601989032e-02  2.4867057728073974e-02  3.7892620419466408e-02  6.5679694247151990e-02  1.3593755563566431e-01  3.9615378406539759e-01  </DataArray> 
</PointData> 
</Piece>
</UnstructuredGrid>
</VTKFile>