<?xml version="1.0"?>
<VTKFile type="UnstructuredGrid"  version="0.1"  >
<UnstructuredGrid>
<Piece  NumberOfPoints="651" NumberOfCells="1200">
<Points>
<DataArray  type="Float64"  NumberOfComponents="3"  format="ascii">0 0 0  50000 0 0  100000 0 0  150000 0 0  200000 0 0  250000 0 0  300000 0 0  350000 0 0  400000 0 0  450000 0 0  500000 0 0  550000 0 0  600000 0 0  650000 0 0  700000 0 0  750000 0 0  800000 0 0  850000 0 0  900000 0 0  950000 0 0  1000000 0 0  0 50000 0  50000 50000 0  100000 50000 0  150000 50000 0  200000 50000 0  250000 50000 0  300000 50000 0  350000 50000 0  400000 50000 0  450000 50000 0  500000 50000 0  550000 50000 0  600000 50000 0  650000 50000 0  700000 50000 0  750000 50000 0  800000 50000 0  850000 50000 0  900000 50000 0  950000 50000 0  1000000 50000 0  0 100000 0  50000 100000 0  100000 100000 0  150000 100000 0  200000 100000 0  250000 100000 0  300000 100000 0  350000 100000 0  400000 100000 0  450000 100000 0  500000 100000 0  550000 100000 0  600000 100000 0  650000 100000 0  700000 100000 0  750000 100000 0  800000 100000 0  850000 100000 0  900000 100000 0  950000 100000 0  1000000 100000 0  0 150000 0  50000 150000 0  100000 150000 0  150000 150000 0  200000 150000 0  250000 150000 0  300000 150000 0  350000 150000 0  400000 150000 0  450000 150000 0  500000 150000 0  550000 150000 0  600000 150000 0  650000 150000 0  700000 150000 0  750000 150000 0  800000 150000 0  850000 150000 0  900000 150000 0  950000 150000 0  1000000 150000 0  0 200000 0  50000 200000 0  100000 200000 0  150000 200000 0  200000 200000 0  250000 200000 0  300000 200000 0  350000 200000 0  400000 200000 0  450000 200000 0  500000 200000 0  550000 200000 0  600000 200000 0  650000 200000 0  700000 200000 0  750000 200000 0  800000 200000 0  850000 200000 0  900000 200000 0  950000 200000 0  1000000 200000 0  0 250000 0  50000 250000 0  100000 250000 0  150000 250000 0  200000 250000 0  250000 250000 0  300000 250000 0  350000 250000 0  400000 250000 0  450000 250000 0  500000 250000 0  550000 250000 0  600000 250000 0  650000 250000 0  700000 250000 0  750000 250000 0  800000 250000 0  850000 250000 0  900000 250000 0  950000 250000 0  1000000 250000 0  0 300000 0  50000 300000 0  100000 300000 0  150000 300000 0  200000 300000 0  250000 300000 0  300000 300000 0  350000 300000 0  400000 300000 0  450000 300000 0  500000 300000 0  550000 300000 0  600000 300000 0  650000 300000 0  700000 300000 0  750000 300000 0  800000 300000 0  850000 300000 0  900000 300000 0  950000 300000 0  1000000 300000 0  0 350000 0  50000 350000 0  100000 350000 0  150000 350000 0  200000 350000 0  250000 350000 0  300000 350000 0  350000 350000 0  400000 350000 0  450000 350000 0  500000 350000 0  550000 350000 0  600000 350000 0  650000 350000 0  700000 350000 0  750000 350000 0  800000 350000 0  850000 350000 0  900000 350000 0  950000 350000 0  1000000 350000 0  0 400000 0  50000 400000 0  100000 400000 0  150000 400000 0  200000 400000 0  250000 400000 0  300000 400000 0  350000 400000 0  400000 400000 0  450000 400000 0  500000 400000 0  550000 400000 0  600000 400000 0  650000 400000 0  700000 400000 0  750000 400000 0  800000 400000 0  850000 400000 0  900000 400000 0  950000 400000 0  1000000 400000 0  0 450000 0  50000 450000 0  100000 450000 0  150000 450000 0  200000 450000 0  250000 450000 0  300000 450000 0  350000 450000 0  400000 450000 0  450000 450000 0  500000 450000 0  550000 450000 0  600000 450000 0  650000 450000 0  700000 450000 0  750000 450000 0  800000 450000 0  850000 450000 0  900000 450000 0  950000 450000 0  1000000 450000 0  0 500000 0  50000 500000 0  100000 500000 0  150000 500000 0  200000 500000 0  250000 500000 0  300000 500000 0  350000 500000 0  400000 500000 0  450000 500000 0  500000 500000 0  550000 500000 0  600000 500000 0  650000 500000 0  700000 500000 0  750000 500000 0  800000 500000 0  850000 500000 0  900000 500000 0  950000 500000 0  1000000 500000 0  0 550000 0  50000 550000 0  100000 550000 0  150000 550000 0  200000 550000 0  250000 550000 0  300000 550000 0  350000 550000 0  400000 550000 0  450000 550000 0  500000 550000 0  550000 550000 0  600000 550000 0  650000 550000 0  700000 550000 0  750000 550000 0  800000 550000 0  850000 550000 0  900000 550000 0  950000 550000 0  1000000 550000 0  0 600000 0  50000 600000 0  100000 600000 0  150000 600000 0  200000 600000 0  250000 600000 0  300000 600000 0  350000 600000 0  400000 600000 0  450000 600000 0  500000 600000 0  550000 600000 0  600000 600000 0  650000 600000 0  700000 600000 0  750000 600000 0  800000 600000 0  850000 600000 0  900000 600000 0  950000 600000 0  1000000 600000 0  0 650000 0  50000 650000 0  100000 650000 0  150000 650000 0  200000 650000 0  250000 650000 0  300000 650000 0  350000 650000 0  400000 650000 0  450000 650000 0  500000 650000 0  550000 650000 0  600000 650000 0  650000 650000 0  700000 650000 0  750000 650000 0  800000 650000 0  850000 650000 0  900000 650000 0  950000 650000 0  1000000 650000 0  0 700000 0  50000 700000 0  100000 700000 0  150000 700000 0  200000 700000 0  250000 700000 0  300000 700000 0  350000 700000 0  400000 700000 0  450000 700000 0  500000 700000 0  550000 700000 0  600000 700000 0  650000 700000 0  700000 700000 0  750000 700000 0  800000 700000 0  850000 700000 0  900000 700000 0  950000 700000 0  1000000 700000 0  0 750000 0  50000 750000 0  100000 750000 0  150000 750000 0  200000 750000 0  250000 750000 0  300000 750000 0  350000 750000 0  400000 750000 0  450000 750000 0  500000 750000 0  550000 750000 0  600000 750000 0  650000 750000 0  700000 750000 0  750000 750000 0  800000 750000 0  850000 750000 0  900000 750000 0  950000 750000 0  1000000 750000 0  0 800000 0  50000 800000 0  100000 800000 0  150000 800000 0  200000 800000 0  250000 800000 0  300000 800000 0  350000 800000 0  400000 800000 0  450000 800000 0  500000 800000 0  550000 800000 0  600000 800000 0  650000 800000 0  700000 800000 0  750000 800000 0  800000 800000 0  850000 800000 0  900000 800000 0  950000 800000 0  1000000 800000 0  0 850000 0  50000 850000 0  100000 850000 0  150000 850000 0  200000 850000 0  250000 850000 0  300000 850000 0  350000 850000 0  400000 850000 0  450000 850000 0  500000 850000 0  550000 850000 0  600000 850000 0  650000 850000 0  700000 850000 0  750000 850000 0  800000 850000 0  850000 850000 0  900000 850000 0  950000 850000 0  1000000 850000 0  0 900000 0  50000 900000 0  100000 900000 0  150000 900000 0  200000 900000 0  250000 900000 0  300000 900000 0  350000 900000 0  400000 900000 0  450000 900000 0  500000 900000 0  550000 900000 0  600000 900000 0  650000 900000 0  700000 900000 0  750000 900000 0  800000 900000 0  850000 900000 0  900000 900000 0  950000 900000 0  1000000 900000 0  0 950000 0  50000 950000 0  100000 950000 0  150000 950000 0  200000 950000 0  250000 950000 0  300000 950000 0  350000 950000 0  400000 950000 0  450000 950000 0  500000 950000 0  550000 950000 0  600000 950000 0  650000 950000 0  700000 950000 0  750000 950000 0  800000 950000 0  850000 950000 0  900000 950000 0  950000 950000 0  1000000 950000 0  0 1000000 0  50000 1000000 0  100000 1000000 0  150000 1000000 0  200000 1000000 0  250000 1000000 0  300000 1000000 0  350000 1000000 0  400000 1000000 0  450000 1000000 0  500000 1000000 0  550000 1000000 0  600000 1000000 0  650000 1000000 0  700000 1000000 0  750000 1000000 0  800000 1000000 0  850000 1000000 0  900000 1000000 0  950000 1000000 0  1000000 1000000 0  0 1050000 0  50000 1050000 0  100000 1050000 0  150000 1050000 0  200000 1050000 0  250000 1050000 0  300000 1050000 0  350000 1050000 0  400000 1050000 0  450000 1050000 0  500000 1050000 0  550000 1050000 0  600000 1050000 0  650000 1050000 0  700000 1050000 0  750000 1050000 0  800000 1050000 0  850000 1050000 0  900000 1050000 0  950000 1050000 0  1000000 1050000 0  0 1100000 0  50000 1100000 0  100000 1100000 0  150000 1100000 0  200000 1100000 0  250000 1100000 0  300000 1100000 0  350000 1100000 0  400000 1100000 0  450000 1100000 0  500000 1100000 0  550000 1100000 0  600000 1100000 0  650000 1100000 0  700000 1100000 0  750000 1100000 0  800000 1100000 0  850000 1100000 0  900000 1100000 0  950000 1100000 0  1000000 1100000 0  0 1150000 0  50000 1150000 0  100000 1150000 0  150000 1150000 0  200000 1150000 0  250000 1150000 0  300000 1150000 0  350000 1150000 0  400000 1150000 0  450000 1150000 0  500000 1150000 0  550000 1150000 0  600000 1150000 0  650000 1150000 0  700000 1150000 0  750000 1150000 0  800000 1150000 0  850000 1150000 0  900000 1150000 0  950000 1150000 0  1000000 1150000 0  0 1200000 0  50000 1200000 0  100000 1200000 0  150000 1200000 0  200000 1200000 0  250000 1200000 0  300000 1200000 0  350000 1200000 0  400000 1200000 0  450000 1200000 0  500000 1200000 0  550000 1200000 0  600000 1200000 0  650000 1200000 0  700000 1200000 0  750000 1200000 0  800000 1200000 0  850000 1200000 0  900000 1200000 0  950000 1200000 0  1000000 1200000 0  0 1250000 0  50000 1250000 0  100000 1250000 0  150000 1250000 0  200000 1250000 0  250000 1250000 0  300000 1250000 0  350000 1250000 0  400000 1250000 0  450000 1250000 0  500000 1250000 0  550000 1250000 0  600000 1250000 0  650000 1250000 0  700000 1250000 0  750000 1250000 0  800000 1250000 0  850000 1250000 0  900000 1250000 0  950000 1250000 0  1000000 1250000 0  0 1300000 0  50000 1300000 0  100000 1300000 0  150000 1300000 0  200000 1300000 0  250000 1300000 0  300000 1300000 0  350000 1300000 0  400000 1300000 0  450000 1300000 0  500000 1300000 0  550000 1300000 0  600000 1300000 0  650000 1300000 0  700000 1300000 0  750000 1300000 0  800000 1300000 0  850000 1300000 0  900000 1300000 0  950000 1300000 0  1000000 1300000 0  0 1350000 0  50000 1350000 0  100000 1350000 0  150000 1350000 0  200000 1350000 0  250000 1350000 0  300000 1350000 0  350000 1350000 0  400000 1350000 0  450000 1350000 0  500000 1350000 0  550000 1350000 0  600000 1350000 0  650000 1350000 0  700000 135
[...]
<PointData  Scalars="f_10483"> 
<DataArray  type="Float64"  Name="f_10483"  format="ascii">-2.0376952151457284e-01  -7.2587718886500438e-02  -3.5705239619540745e-02  -2.0852978489854380e-02  -1.3688259754446121e-02  -9.4046889676667588e-03  -6.3734876332205989e-03  -3.9599240613985356e-03  -1.8732391923973759e-03  4.1321129431669754e-05  1.8804538560673663e-03  3.7183654255710432e-03  5.6286550047506363e-03  7.7056406650521997e-03  1.0097149164169185e-02  1.3070846029717864e-02  1.7178488205925276e-02  2.3821156737582110e-02  3.8100307324075475e-02  8.4313238457819392e-02  2.0512355061649268e-01  -1.0175688592151691e-01  -6.7050643354901948e-02  -3.8697502950684540e-02  -2.3911142100890608e-02  -1.5822995576498380e-02  -1.0783573158505807e-02  -7.2510320775558664e-03  -4.5080218750367463e-03  -2.1940389736210108e-03  -1.0843508266286059e-04  1.8768114429756394e-03  3.8609918671007578e-03  5.9433172903090086e-03  8.2517004397818800e-03  1.0987475242684822e-02  1.4517484437933582e-02  1.9601141260354119e-02  2.8007350273178307e-02  4.4018522985218377e-02  7.4793785877498770e-02  1.1091337551415859e-01  -4.9290907994338412e-02  -4.3859934793881637e-02  -3.3252440766208591e-02  -2.3786260043569315e-02  -1.6747079919585954e-02  -1.1709994867647892e-02  -7.9647414388364871e-03  -5.0012232072390974e-03  -2.4987510452930445e-03  -2.5325058243193981e-04  1.8768565958165518e-03  4.0064389724562190e-03  6.2507208550166282e-03  8.7529032902665393e-03  1.1722581345259053e-02  1.5499444954635211e-02  2.0657941304978993e-02  2.8106515996738725e-02  3.8722654795480010e-02  5.0317162153482947e-02  5.1645470140960555e-02  -2.8709502134463633e-02  -2.9088551471036887e-02  -2.5668185722420314e-02  -2.0353417082715857e-02  -1.5363837197107360e-02  -1.1221547142733098e-02  -7.8331244828469260e-03  -4.9949375406213260e-03  -2.5218395904378316e-03  -2.6707257198833791e-04  1.8865710957316369e-03  4.0416713813821361e-03  6.3017733398248029e-03  8.7876852291404860e-03  1.1654963209245261e-02  1.5107706509680838e-02  1.9380850117298298e-02  2.4587064232018872e-02  3.0171049708310194e-02  3.3587813869268068e-02  3.1746345709208749e-02  -1.8656420165835932e-02  -1.9813503857939726e-02  -1.9020558857712568e-02  -1.6303281064782394e-02  -1.3096395760297926e-02  -9.9877877233082012e-03  -7.1660554489758948e-03  -4.6361968063714700e-03  -2.3352101853405601e-03  -1.8447268489871137e-04  1.8936273742324774e-03  3.9740826165334904e-03  6.1327816253465813e-03  8.4503200676554133e-03  1.1011138756403607e-02  1.3887245210134852e-02  1.7081227785892251e-02  2.0381147485087143e-02  2.3102216725633767e-02  2.3785249713686465e-02  2.2184923639435444e-02  -1.2796478367534569e-02  -1.3878440086617311e-02  -1.4006070546603550e-02  -1.2674934681136861e-02  -1.0673185315787034e-02  -8.4342433424620146e-03  -6.1947678773816173e-03  -4.0451910669246473e-03  -1.9978287823692012e-03  -2.9183554853447145e-05  1.8988279759377877e-03  3.8293452002138256e-03  5.8060496381576185e-03  7.8686001618725587e-03  1.0042641894222800e-02  1.2316596180479823e-02  1.4594605284553260e-02  1.6620008811382373e-02  1.7906214691425167e-02  1.7713044360005328e-02  1.6479514156042471e-02  -9.0002022005545024e-03  -9.8955956329241593e-03  -1.0317489812280504e-02  -9.6926831005415930e-03  -8.4473394586459701e-03  -6.8582545648218510e-03  -5.1220696230681500e-03  -3.3466513633429130e-03  -1.5795492932611759e-03  1.6752000453885391e-04  1.9016620530603488e-03  3.6379143080696409e-03  5.3914857215674513e-03  7.1698195540464572e-03  8.9610167389342667e-03  1.0715200530918331e-02  1.2317546320821406e-02  1.3560059957813566e-02  1.4142907195871078e-02  1.3687533935496592e-02  1.2730133594418032e-02  -6.3880358998284247e-03  -7.1119333037479669e-03  -7.5975588576213792e-03  -7.3298335264988706e-03  -6.5467943164294945e-03  -5.4156187493805998e-03  -4.0791968956785237e-03  -2.6341816374168543e-03  -1.1382763076474595e-03  3.7842323596456616e-04  1.9024560392669246e-03  3.4279943554093324e-03  4.9491450719215558e-03  6.4520968817433268e-03  7.9056401810661276e-03  9.2494264365923801e-03  1.0381893124231009e-02  1.1154762954572245e-02  1.1390855855213312e-02  1.0887704750610263e-02  1.0135890023786030e-02  -4.5260452843860722e-03  -5.1105849988087072e-03  -5.5761721895871705e-03  -5.4883686913411627e-03  -4.9867982372183099e-03  -4.1706476497463613e-03  -3.1385634399572243e-03  -1.9682117853012317e-03  -7.1517127790632232e-04  5.8320161229884193e-04  1.9017368837702495e-03  3.2211956296287290e-03  4.5221793916577985e-03  5.7789542663104357e-03  6.9529712166031699e-03  7.9866101848107707e-03  8.7992968104805072e-03  9.2901363601066381e-03  9.3550676686011951e-03  8.8800210458310283e-03  8.2827516109915643e-03  -3.1720744660297885e-03  -3.6474134136135401e-03  -4.0661395643698693e-03  -4.0678896081968322e-03  -3.7388842159141789e-03  -3.1380231008096460e-03  -2.3324689175297521e-03  -1.3819745933938521e-03  -3.3544637186789340e-04  7.6875899326611099e-04  1.9000535131337129e-03  3.0318225074786047e-03  4.1372865846196274e-03  5.1853335391583268e-03  6.1366621398550036e-03  6.9410166147836619e-03  7.5370475859172096e-03  7.8567884139659448e-03  7.8386228504673840e-03  7.4147380534173701e-03  6.9338710676990576e-03  -2.1799919153754625e-03  -2.5715494188315825e-03  -2.9396248171432975e-03  -2.9846287391451123e-03  -2.7625458627870544e-03  -2.3087680908786910e-03  -1.6694061416510746e-03  -8.9001653985053232e-04  -1.2132944832499004e-05  9.2786077674800117e-04  1.8978484026901036e-03  2.8680151563632112e-03  3.8084142344977797e-03  4.6865319742880442e-03  5.4653345464971631e-03  6.1024680666627203e-03  6.5515376196281176e-03  6.7662396970362797e-03  6.7095133056193062e-03  6.3386346928046861e-03  5.9449885382407558e-03  -1.4572736138420625e-03  -1.7860467464681843e-03  -2.1090464015137405e-03  -2.1737919030222794e-03  -2.0185138795466157e-03  -1.6649576787240035e-03  -1.1456061471591865e-03  -4.9566809280571472e-04  2.4977949508950454e-04  1.0573381684619053e-03  1.8954240049657482e-03  2.7335237149773645e-03  3.5410317114350442e-03  4.2860959884404972e-03  4.9349079282626348e-03  5.4519198475335064e-03  5.8014989074487849e-03  5.9512027525530494e-03  5.8782075030280349e-03  5.5537041802986515e-03  5.2244182911217298e-03  -9.4386915030308504e-04  -1.2272902874147569e-03  -1.5143588407122103e-03  -1.5873067404952865e-03  -1.4736835092838000e-03  -1.1873839428299582e-03  -7.5229874795305625e-04  -1.9651828694263956e-04  4.4989264739438481e-04  1.1564620271679472e-03  1.8929565219004344e-03  2.6293938538350793e-03  3.3357332776745882e-03  3.9815758039974296e-03  4.5362079795918707e-03  4.9693086831720445e-03  5.2525826317759280e-03  5.3622447025232318e-03  5.2837020339410847e-03  4.9958464419811487e-03  4.7125428272531064e-03  -6.0079261595601607e-04  -8.5361780434422229e-04  -1.1150008445301735e-03  -1.1909389470909468e-03  -1.1025316765141840e-03  -8.5930334913467653e-04  -4.7996527936119125e-04  1.1960153354752749e-05  5.8989966705483851e-04  1.2257028709863279e-03  1.8905271399095470e-03  2.5552843919696634e-03  3.1908533131620883e-03  3.7682987399151029e-03  4.2593401461601208e-03  4.6372746453313581e-03  4.8784876275792576e-03  4.9643637720100482e-03  4.8849563637649602e-03  4.6231834596989355e-03  4.3706253453033497e-03  -4.0367517339995036e-04  -6.3881423657259368e-04  -8.8489621057945397e-04  -9.6190520752037966e-04  -8.8720437104008120e-04  -6.6815209380462583e-04  -3.2069320670653734e-04  1.3418288292548657e-04  6.7193999231621626e-04  1.2658846777599399e-03  1.8881537018000719e-03  2.5103812396588916e-03  3.1041866415920834e-03  3.6416658301987410e-03  4.0960692371003289e-03  4.4428072749886898e-03  4.6608560604650094e-03  4.7343247924959931e-03  4.6556552406939152e-03  4.4094138947160530e-03  4.1744562640856813e-03  -3.3911949782304746e-04  -5.6841130190974330e-04  -8.0946191332437309e-04  -8.8720997393255268e-04  -8.1722441930656123e-04  -6.0626977648886517e-04  -2.6940509810783226e-04  1.7318205211646029e-04  6.9760956492095775e-04  1.2776630868330126e-03  1.8858167413452057e-03  2.4939703958578659e-03  3.0740239177714131e-03  3.5984514305780176e-03  4.0410385808046225e-03  4.3779032591878438e-03  4.5888579020070654e-03  4.6588434566338438e-03  4.5810953960257169e-03  4.3400447846108489e-03  4.1107529805241424e-03  -4.0282278138479720e-04  -6.3778041201511019e-04  -8.8402175799268752e-04  -9.6269130979486836e-04  -8.8922257776463546e-04  -6.7117379228994985e-04  -3.2443575440377879e-04  1.2996765249537889e-04  6.6744684109980594e-04  1.2612522430315051e-03  1.8834797808897992e-03  2.5057488049304425e-03  3.0996934903756521e-03  3.6374505997684775e-03  4.0923266894029179e-03  4.4397855765032140e-03  4.6588378537403335e-03  4.7335386902213790e-03  4.6565296932805636e-03  4.4104477192734408e-03  4.1753086561007553e-03  -5.9899186260334086e-04  -8.5154997699871701e-04  -1.1133228810643562e-03  -1.1927302893094329e-03  -1.1068541448795196e-03  -8.6564116263344545e-04  -4.8770666346460955e-04  3.3347427776942283e-06  5.8078016952834008e-04  1.2163490907191497e-03  1.8811063427786477e-03  2.5459306117023924e-03  3.1817338156354506e-03  3.7596733293378559e-03  4.2515987620564827e-03  4.6309368318323925e-03  4.8741651592136706e-03  4.9625724297912453e-03  4.8866343272306705e-03  4.6252512870444060e-03  4.3724260986559909e-03  -9.4090934455437697e-04  -1.2242129592820092e-03  -1.5120685512413344e-03  -1.5906112198234563e-03  -1.4809491490772415e-03  -1.1976752004755442e-03  -7.6457449689824918e-04  -2.0994232130698635e-04  4.3590020501312103e-04  1.1422396288507137e-03  1.8786769607846742e-03  2.6151714555177562e-03  3.3217408352931126e-03  3.9681517696327712e-03  4.5239322306462977e-03  4.9590174255260315e-03  5.2453169919820918e-03  5.3589402231946628e-03  5.2859923234116393e-03  4.9989237701135890e-03  4.7155026330015495e-03  -1.4527848084249003e-03  -1.7820706976011287e-03  -2.1065740203295301e-03  -2.1795692698546375e-03  -2.0298654247518028e-03  -1.6802863648393653e-03  -1.1632744455721338e-03  -5.1446250575390765e-04  2.3060177124820070e-04  1.0381097677035816e-03  1.8762094777143514e-03  2.7142953142189120e-03  3.5218539875934542e-03  4.2673015754918359e-03  4.9172396298490916e-03  5.4365911614175123e-03  5.7901473622430496e-03  5.9454253857201657e-03  5.8806798842117296e-03  5.5576802291653175e-03  5.2289070965385580e-03  -2.1733550555461494e-03  -2.5670012101088927e-03  -2.9378798229221900e-03  -2.9946062143394732e-03  -2.7799041369334621e-03  -2.3308345839719593e-03  -1.6937010638113253e-03  -9.1489849160725299e-04  -3.6780751821188208e-05  9.0361832631051108e-04  1.8737850799825685e-03  2.8437727059255325e-03  3.7837664275086631e-03  4.6616500225307566e-03  5.4410396243361877e-03  6.0804015735686310e-03  6.5341793454808698e-03  6.7562622218411373e-03  6.7112582998397757e-03  6.3431829015268559e-03  5.9516253980696305e-03  -3.1622375850067302e-03  -3.6431045707233044e-03  -4.0669893677715736e-03  -4.0851549312709888e-03  -3.7654141032257664e-03  -3.1693831320979281e-03  -2.3650286571760032e-03  -1.4137000564859354e-03  -3.6565310195256837e-04  7.3981097518497707e-04  1.8715799695285605e-03  3.0028744893972116e-03  4.1070798545344680e-03  5.1536080760656222e-03  6.1041024002079138e-03  6.9096565834943528e-03  7.5105176986044958e-03  7.8395230908907369e-03  7.8377730470648131e-03  7.4190468963069526e-03  6.9437079487213683e-03  -4.5111181283013198e-03  -5.1083875631380482e-03  -5.5834341859062270e-03  -5.5185028774136806e-03  -5.0276633277933991e-03  -4.2149767021319954e-03  -3.1813377339336580e-03  -2.0073207836493684e-03  -7.5054590900342595e-04  5.5043785302135383e-04  1.8698965988782840e-03  3.1884318703510007e-03  4.4868047605601631e-03  5.7398452679615283e-03  6.9101969226257305e-03  7.9422811324238209e-03  8.7584317199039981e-03  9.2600021740327273e-03  9.3478056722809608e-03  8.8822184815008400e-03  8.2976787670757269e-03  -6.3642565410962811e-03  -7.1160712679165447e-03  -7.6192223725179411e-03  -7.3831294718813565e-03  -6.6102596415494787e-03  -5.4777929539228682e-03  -4.1340066984089695e-03  -2.6804633990968507e-03  -1.1775115892830969e-03  3.4363912722419805e-04  1.8691774433648722e-03  3.3932102466687169e-03  4.9099097902854097e-03  6.4058151200625333e-03  7.8508303783345074e-03  9.1872522320485071e-03  1.0318427799109261e-02  1.1101467009187937e-02  1.1369192340315092e-02  1.0883566786440434e-02  1.0159669382517469e-02  -8.9585001117255397e-03  -9.9159004527991489e-03  -1.0371273713173401e-02  -9.7884264751244322e-03  -8.5459128381467509e-03  -6.9435670482604810e-03  -5.1893832562920255e-03  -3.3981860714168812e-03  -1.6198522389468230e-03  1.3371917454563944e-04  1.8699714295531103e-03  3.6041134780761862e-03  5.3511827758812875e-03  7.1182848459716234e-03  8.8937031057090866e-03  1.0629888047477883e-02  1.2218972941318434e-02  1.3464316583228548e-02  1.4089123294976243e-02  1.3667229115620025e-02  1.2771835683246194e-02  -1.2707880673340992e-02  -1.3941410877298183e-02  -1.4134581208721110e-02  -1.2848375328693899e-02  -1.0822971801886523e-02  -8.5449626978351435e-03  -6.2710084115965604e-03  -4.0969666792600714e-03  -2.0344161555544359e-03  -5.7711717615964844e-05  1.8728055066583589e-03  3.8008170374511621e-03  5.7694622649720126e-03  7.8168245495363435e-03  9.9664013600066596e-03  1.2205876825105048e-02  1.4444818798451345e-02  1.6446568163822436e-02  1.7777704029304609e-02  1.7650073569322317e-02  1.6568111850235125e-02  -1.8413290156713516e-02  -2.0013616230959222e-02  -1.9330583242917330e-02  -1.6609514002397390e-02  -1.3309594303232711e-02  -1.0115611727502022e-02  -7.2395052737908470e-03  -4.6786865850566347e-03  -2.3611481427567001e-03  -2.0244913394850810e-04  1.8780061083509476e-03  3.9561061674835600e-03  6.1068436679300730e-03  8.4078302889695374e-03  1.0937688931587586e-02  1.3759421205939579e-02  1.6868029242954819e-02  2.0074914547468566e-02  2.2792192340424872e-02  2.3585137340663701e-02  2.2428053648556833e-02  -2.7974712226445982e-02  -2.9816180386503358e-02  -2.6399416225572864e-02  -2.0815430749323290e-02  -1.5609216634641390e-02  -1.1336073027053625e-02  -7.8833297266385893e-03  -5.0160517465475552e-03  -2.5301398572402782e-03  -2.7003789880224535e-04  1.8850623868467619e-03  4.0387060545680727e-03  6.2934730730218975e-03  8.7665710232135447e-03  1.1604757965452649e-02  1.4993180625358983e-02  1.9135470679762033e-02  2.4125050565407768e-02  2.9439819205151933e-02  3.2860184953795918e-02  3.2481135617225258e-02  -4.7873836658112810e-02  -4.6545528670652044e-02  -3.4951021312709232e-02  -2.4334882514028038e-02  -1.6886307822313963e-02  -1.1727811472001921e-02  -7.9509478626474152e-03  -4.9812698076691911e-03  -2.4790873724283391e-03  -2.3480548987282315e-04  1.8947768867652360e-03  4.0248840650151203e-03  6.2703845278808956e-03  8.7728566898355089e-03  1.1736374921447024e-02  1.5481628350279612e-02  2.0518713402248874e-02  2.7557893526276064e-02  3.7024074248970196e-02  4.7631568276698608e-02  5.3062541477179447e-02  -1.0714174203112778e-01  -7.1022152394569951e-02  -4.0246889502399429e-02  -2.4235716790436613e-02  -1.5829507777665744e-02  -1.0745850955282072e-02  -7.2158417600584430e-03  -4.4800669571724841e-03  -2.1716838077103016e-03  -8.9358384508014764e-05  1.8948220396151360e-03  3.8800685652553915e-03  5.9656724562192507e-03  8.2796553576454188e-03  1.1022665560181185e-02  1.4555206641155644e-02  1.9594629059184483e-02  2.7682775583628749e-02  4.2469136433496549e-02  7.0822276837816001e-02  1.0552851940450628e-01  -2.0135191713341871e-01  -8.0541604974818617e-02  -3.4328673841212388e-02  -2.0049523254814614e-02  -1.3406854723220230e-02  -9.2992125470541427e-03  -6.3255156815333891e-03  -3.9340071824351753e-03  -1.8570215221453514e-03  5.3268057027640875e-05  1.8911796265292347e-03  3.7303123531668265e-03  5.6448726750023956e-03  7.7315575440151767e-03  1.0145121115855846e-02  1.3176322450329615e-02  1.7459893237149963e-02  2.4624611972618150e-02  3.9476873102392500e-02  7.6359352369483671e-02  2.0754115499769610e-01  </DataArray> 
</PointData> 
</Piece>
</UnstructuredGrid>
</VTKFile>