<?xml version="1.0"?>
<VTKFile type="UnstructuredGrid"  version="0.1"  >
<UnstructuredGrid>
<Piece  NumberOfPoints="651" NumberOfCells="1200">
<Points>
<DataArray  type="Float64"  NumberOfComponents="3"  format="ascii">0 0 0  50000 0 0  100000 0 0  150000 0 0  200000 0 0  250000 0 0  300000 0 0  350000 0 0  400000 0 0  450000 0 0  500000 0 0  550000 0 0  600000 0 0  650000 0 0  700000 0 0  750000 0 0  800000 0 0  850000 0 0  900000 0 0  950000 0 0  1000000 0 0  0 50000 0  50000 50000 0  100000 50000 0  150000 50000 0  200000 50000 0  250000 50000 0  300000 50000 0  350000 50000 0  400000 50000 0  450000 50000 0  500000 50000 0  550000 50000 0  600000 50000 0  650000 50000 0  700000 50000 0  750000 50000 0  800000 50000 0  850000 50000 0  900000 50000 0  950000 50000 0  1000000 50000 0  0 100000 0  50000 100000 0  100000 100000 0  150000 100000 0  200000 100000 0  250000 100000 0  300000 100000 0  350000 100000 0  400000 100000 0  450000 100000 0  500000 100000 0  550000 100000 0  600000 100000 0  650000 100000 0  700000 100000 0  750000 100000 0  800000 100000 0  850000 100000 0  900000 100000 0  950000 100000 0  1000000 100000 0  0 150000 0  50000 150000 0  100000 150000 0  150000 150000 0  200000 150000 0  250000 150000 0  300000 150000 0  350000 150000 0  400000 150000 0  450000 150000 0  500000 150000 0  550000 150000 0  600000 150000 0  650000 150000 0  700000 150000 0  750000 150000 0  800000 150000 0  850000 150000 0  900000 150000 0  950000 150000 0  1000000 150000 0  0 200000 0  50000 200000 0  100000 200000 0  150000 200000 0  200000 200000 0  250000 200000 0  300000 200000 0  350000 200000 0  400000 200000 0  450000 200000 0  500000 200000 0  550000 200000 0  600000 200000 0  650000 200000 0  700000 200000 0  750000 200000 0  800000 200000 0  850000 200000 0  900000 200000 0  950000 200000 0  1000000 200000 0  0 250000 0  50000 250000 0  100000 250000 0  150000 250000 0  200000 250000 0  250000 250000 0  300000 250000 0  350000 250000 0  400000 250000 0  450000 250000 0  500000 250000 0  550000 250000 0  600000 250000 0  650000 250000 0  700000 250000 0  750000 250000 0  800000 250000 0  850000 250000 0  900000 250000 0  950000 250000 0  1000000 250000 0  0 300000 0  50000 300000 0  100000 300000 0  150000 300000 0  200000 300000 0  250000 300000 0  300000 300000 0  350000 300000 0  400000 300000 0  450000 300000 0  500000 300000 0  550000 300000 0  600000 300000 0  650000 300000 0  700000 300000 0  750000 300000 0  800000 300000 0  850000 300000 0  900000 300000 0  950000 300000 0  1000000 300000 0  0 350000 0  50000 350000 0  100000 350000 0  150000 350000 0  200000 350000 0  250000 350000 0  300000 350000 0  350000 350000 0  400000 350000 0  450000 350000 0  500000 350000 0  550000 350000 0  600000 350000 0  650000 350000 0  700000 350000 0  750000 350000 0  800000 350000 0  850000 350000 0  900000 350000 0  950000 350000 0  1000000 350000 0  0 400000 0  50000 400000 0  100000 400000 0  150000 400000 0  200000 400000 0  250000 400000 0  300000 400000 0  350000 400000 0  400000 400000 0  450000 400000 0  500000 400000 0  550000 400000 0  600000 400000 0  650000 400000 0  700000 400000 0  750000 400000 0  800000 400000 0  850000 400000 0  900000 400000 0  950000 400000 0  1000000 400000 0  0 450000 0  50000 450000 0  100000 450000 0  150000 450000 0  200000 450000 0  250000 450000 0  300000 450000 0  350000 450000 0  400000 450000 0  450000 450000 0  500000 450000 0  550000 450000 0  600000 450000 0  650000 450000 0  700000 450000 0  750000 450000 0  800000 450000 0  850000 450000 0  900000 450000 0  950000 450000 0  1000000 450000 0  0 500000 0  50000 500000 0  100000 500000 0  150000 500000 0  200000 500000 0  250000 500000 0  300000 500000 0  350000 500000 0  400000 500000 0  450000 500000 0  500000 500000 0  550000 500000 0  600000 500000 0  650000 500000 0  700000 500000 0  750000 500000 0  800000 500000 0  850000 500000 0  900000 500000 0  950000 500000 0  1000000 500000 0  0 550000 0  50000 550000 0  100000 550000 0  150000 550000 0  200000 550000 0  250000 550000 0  300000 550000 0  350000 550000 0  400000 550000 0  450000 550000 0  500000 550000 0  550000 550000 0  600000 550000 0  650000 550000 0  700000 550000 0  750000 550000 0  800000 550000 0  850000 550000 0  900000 550000 0  950000 550000 0  1000000 550000 0  0 600000 0  50000 600000 0  100000 600000 0  150000 600000 0  200000 600000 0  250000 600000 0  300000 600000 0  350000 600000 0  400000 600000 0  450000 600000 0  500000 600000 0  550000 600000 0  600000 600000 0  650000 600000 0  700000 600000 0  750000 600000 0  800000 600000 0  850000 600000 0  900000 600000 0  950000 600000 0  1000000 600000 0  0 650000 0  50000 650000 0  100000 650000 0  150000 650000 0  200000 650000 0  250000 650000 0  300000 650000 0  350000 650000 0  400000 650000 0  450000 650000 0  500000 650000 0  550000 650000 0  600000 650000 0  650000 650000 0  700000 650000 0  750000 650000 0  800000 650000 0  850000 650000 0  900000 650000 0  950000 650000 0  1000000 650000 0  0 700000 0  50000 700000 0  100000 700000 0  150000 700000 0  200000 700000 0  250000 700000 0  300000 700000 0  350000 700000 0  400000 700000 0  450000 700000 0  500000 700000 0  550000 700000 0  600000 700000 0  650000 700000 0  700000 700000 0  750000 700000 0  800000 700000 0  850000 700000 0  900000 700000 0  950000 700000 0  1000000 700000 0  0 750000 0  50000 750000 0  100000 750000 0  150000 750000 0  200000 750000 0  250000 750000 0  300000 750000 0  350000 750000 0  400000 750000 0  450000 750000 0  500000 750000 0  550000 750000 0  600000 750000 0  650000 750000 0  700000 750000 0  750000 750000 0  800000 750000 0  850000 750000 0  900000 750000 0  950000 750000 0  1000000 750000 0  0 800000 0  50000 800000 0  100000 800000 0  150000 800000 0  200000 800000 0  250000 800000 0  300000 800000 0  350000 800000 0  400000 800000 0  450000 800000 0  500000 800000 0  550000 800000 0  600000 800000 0  650000 800000 0  700000 800000 0  750000 800000 0  800000 800000 0  850000 800000 0  900000 800000 0  950000 800000 0  1000000 800000 0  0 850000 0  50000 850000 0  100000 850000 0  150000 850000 0  200000 850000 0  250000 850000 0  300000 850000 0  350000 850000 0  400000 850000 0  450000 850000 0  500000 850000 0  550000 850000 0  600000 850000 0  650000 850000 0  700000 850000 0  750000 850000 0  800000 850000 0  850000 850000 0  900000 850000 0  950000 850000 0  1000000 850000 0  0 900000 0  50000 900000 0  100000 900000 0  150000 900000 0  200000 900000 0  250000 900000 0  300000 900000 0  350000 900000 0  400000 900000 0  450000 900000 0  500000 900000 0  550000 900000 0  600000 900000 0  650000 900000 0  700000 900000 0  750000 900000 0  800000 900000 0  850000 900000 0  900000 900000 0  950000 900000 0  1000000 900000 0  0 950000 0  50000 950000 0  100000 950000 0  150000 950000 0  200000 950000 0  250000 950000 0  300000 950000 0  350000 950000 0  400000 950000 0  450000 950000 0  500000 950000 0  550000 950000 0  600000 950000 0  650000 950000 0  700000 950000 0  750000 950000 0  800000 950000 0  850000 950000 0  900000 950000 0  950000 950000 0  1000000 950000 0  0 1000000 0  50000 1000000 0  100000 1000000 0  150000 1000000 0  200000 1000000 0  250000 1000000 0  300000 1000000 0  350000 1000000 0  400000 1000000 0  450000 1000000 0  500000 1000000 0  550000 1000000 0  600000 1000000 0  650000 1000000 0  700000 1000000 0  750000 1000000 0  800000 1000000 0  850000 1000000 0  900000 1000000 0  950000 1000000 0  1000000 1000000 0  0 1050000 0  50000 1050000 0  100000 1050000 0  150000 1050000 0  200000 1050000 0  250000 1050000 0  300000 1050000 0  350000 1050000 0  400000 1050000 0  450000 1050000 0  500000 1050000 0  550000 1050000 0  600000 1050000 0  650000 1050000 0  700000 1050000 0  750000 1050000 0  800000 1050000 0  850000 1050000 0  900000 1050000 0  950000 1050000 0  1000000 1050000 0  0 1100000 0  50000 1100000 0  100000 1100000 0  150000 1100000 0  200000 1100000 0  250000 1100000 0  300000 1100000 0  350000 1100000 0  400000 1100000 0  450000 1100000 0  500000 1100000 0  550000 1100000 0  600000 1100000 0  650000 1100000 0  700000 1100000 0  750000 1100000 0  800000 1100000 0  850000 1100000 0  900000 1100000 0  950000 1100000 0  1000000 1100000 0  0 1150000 0  50000 1150000 0  100000 1150000 0  150000 1150000 0  200000 1150000 0  250000 1150000 0  300000 1150000 0  350000 1150000 0  400000 1150000 0  450000 1150000 0  500000 1150000 0  550000 1150000 0  600000 1150000 0  650000 1150000 0  700000 1150000 0  750000 1150000 0  800000 1150000 0  850000 1150000 0  900000 1150000 0  950000 1150000 0  1000000 1150000 0  0 1200000 0  50000 1200000 0  100000 1200000 0  150000 1200000 0  200000 1200000 0  250000 1200000 0  300000 1200000 0  350000 1200000 0  400000 1200000 0  450000 1200000 0  500000 1200000 0  550000 1200000 0  600000 1200000 0  650000 1200000 0  700000 1200000 0  750000 1200000 0  800000 1200000 0  850000 1200000 0  900000 1200000 0  950000 1200000 0  1000000 1200000 0  0 1250000 0  50000 1250000 0  100000 1250000 0  150000 1250000 0  200000 1250000 0  250000 1250000 0  300000 1250000 0  350000 1250000 0  400000 1250000 0  450000 1250000 0  500000 1250000 0  550000 1250000 0  600000 1250000 0  650000 1250000 0  700000 1250000 0  750000 1250000 0  800000 1250000 0  850000 1250000 0  900000 1250000 0  950000 1250000 0  1000000 1250000 0  0 1300000 0  50000 1300000 0  100000 1300000 0  150000 1300000 0  200000 1300000 0  250000 1300000 0  300000 1300000 0  350000 1300000 0  400000 1300000 0  450000 1300000 0  500000 1300000 0  550000 1300000 0  600000 1300000 0  650000 1300000 0  700000 1300000 0  750000 1300000 0  800000 1300000 0  850000 1300000 0  900000 1300000 0  950000 1300000 0  1000000 1300000 0  0 1350000 0  50000 1350000 0  100000 1350000 0  150000 1350000 0  200000 1350000 0  250000 1350000 0  300000 1350000 0  350000 1350000 0  400000 1350000 0  450000 1350000 0  500000 1350000 0  550000 1350000 0  600000 1350000 0  650000 1350000 0  700000 135
[...]
<PointData  Scalars="f_10483"> 
<DataArray  type="Float64"  Name="f_10483"  format="ascii">-3.3289722144078654e-01  -1.1477403601319017e-01  -5.5078579243259873e-02  -3.1360710422585474e-02  -2.0176657041227803e-02  -1.3724641357078718e-02  -9.3565016747382979e-03  -6.0288937101976069e-03  -3.2565601112144989e-03  -7.7782114577282214e-04  1.5720441326493402e-03  3.9197238993955450e-03  6.3909149484827083e-03  9.1464973739580607e-03  1.2437175852470906e-02  1.6711902080869510e-02  2.2880985800976177e-02  3.3207867224794255e-02  5.5905712171154351e-02  1.3128146764790680e-01  3.3380500211519998e-01  -1.6352998946507749e-01  -1.0647159977196569e-01  -6.0681174751095024e-02  -3.6859922367542340e-02  -2.4049772097279487e-02  -1.6279856436098899e-02  -1.1022872843942639e-02  -7.0939605610658993e-03  -3.8919759396991724e-03  -1.0789002985466649e-03  1.5627647974522469e-03  4.2025043401815489e-03  7.0096676399631413e-03  1.0201540126517283e-02  1.4117060588243281e-02  1.9366695357434693e-02  2.7200060537866735e-02  4.0510300555311421e-02  6.6331796286193512e-02  1.1654725220423259e-01  1.7596736330802973e-01  -7.8235392635375725e-02  -6.9529336859770099e-02  -5.2435740066109932e-02  -3.7195098702851093e-02  -2.6013621903380794e-02  -1.8169884023266754e-02  -1.2488553936911130e-02  -8.1229981573624141e-03  -4.5379173608841097e-03  -1.3899056198097776e-03  1.5612185362257167e-03  4.5113703968032593e-03  7.6570687014009845e-03  1.1241193563062841e-02  1.5616153395929568e-02  2.1347969290971793e-02  2.9387484618715640e-02  4.1235544183803569e-02  5.8355909803452961e-02  7.7165253945081030e-02  7.9090396969333343e-02  -4.5377679945653816e-02  -4.6048505990007767e-02  -4.0523006513741341e-02  -3.2001942291518697e-02  -2.4113420944821558e-02  -1.7674287523588447e-02  -1.2516377705112219e-02  -8.2948668833577478e-03  -4.6966488392452014e-03  -1.4723538834093477e-03  1.5783238649972086e-03  4.6313716557018552e-03  7.8643705364930608e-03  1.1483555470350440e-02  1.5752752078338622e-02  2.1016292310079975e-02  2.7670861820382316e-02  3.5916469577179748e-02  4.4867039884040838e-02  5.0379138568248605e-02  4.7377354550180661e-02  -2.9397688323471380e-02  -3.1291636371166498e-02  -3.0028740109352553e-02  -2.5728569269142069e-02  -2.0712570117088741e-02  -1.5916270546924526e-02  -1.1635235746836291e-02  -7.8665104708969449e-03  -4.4972583650990392e-03  -1.3900058461052639e-03  1.5904722158480173e-03  4.5748278199273249e-03  7.6951925995287617e-03  1.1091715907907128e-02  1.4911470389337191e-02  1.9282226591259968e-02  2.4219904651901020e-02  2.9392006761391767e-02  3.3699104108177377e-02  3.4776270814396694e-02  3.2190316840454272e-02  -2.0062278651883359e-02  -2.1849805028235556e-02  -2.2110974503959876e-02  -2.0068247935735119e-02  -1.6996242426706727e-02  -1.3588343711047206e-02  -1.0221195690381426e-02  -7.0329003126707122e-03  -4.0348840105646350e-03  -1.1806706610357650e-03  1.5996774818573740e-03  4.3841839562123964e-03  7.2517753095490828e-03  1.0275019443401834e-02  1.3504002596912945e-02  1.6928624616078056e-02  2.0401988173216940e-02  2.3515516586269158e-02  2.5488543046535424e-02  2.5118138677116077e-02  2.3093330081915647e-02  -1.3994761599434736e-02  -1.5507650126526400e-02  -1.6282134462040063e-02  -1.5397949156452529e-02  -1.3550057046378586e-02  -1.1182549619847102e-02  -8.6097417502456128e-03  -6.0004527453030119e-03  -3.4252278220720236e-03  -8.9624470866916744e-04  1.6049364305116508e-03  4.1096463658221770e-03  6.6495100918428683e-03  9.2435630140883969e-03  1.1879407873645676e-02  1.4482805823131798e-02  1.6873598700826910e-02  1.8719280348699196e-02  1.9538332789095492e-02  1.8707596743097167e-02  1.7095599050931387e-02  -9.8142873958883374e-03  -1.1072990274249602e-02  -1.1981976563015346e-02  -1.1690271686027154e-02  -1.0593084561672147e-02  -8.9596899930380301e-03  -7.0193759370899660e-03  -4.9247626994195709e-03  -2.7644963235027679e-03  -5.8193993433942415e-04  1.6067862570576107e-03  3.7980571504768372e-03  5.9881506505722899e-03  8.1604027909130388e-03  1.0269676566198387e-02  1.2223071671974119e-02  1.3859974373353390e-02  1.4942459594293004e-02  1.5184887964881003e-02  1.4245870385047463e-02  1.2941298466627484e-02  -6.8410541118803557e-03  -7.8892891124604392e-03  -8.7879010623552727e-03  -8.7985580008810484e-03  -8.1594608700436364e-03  -7.0312291344568839e-03  -5.5728332706685693e-03  -3.9075153939176375e-03  -2.1217469189625440e-03  -2.7182293662994229e-04  1.6060812700722780e-03  3.4855733965086502e-03  5.3400061159501319e-03  7.1322986932703877e-03  8.8042293946213306e-03  1.0266018990284502e-02  1.1389668191605995e-02  1.2012587967744189e-02  1.1965968135231495e-02  1.1050789223446529e-02  9.9809385258468331e-03  -4.6929482027360265e-03  -5.5713205914704449e-03  -6.4065618945866494e-03  -6.5689045594634577e-03  -6.2103999764446241e-03  -5.4268793857452091e-03  -4.3269908395949337e-03  -3.0058172866332688e-03  -1.5399232610716564e-03  1.1870681635537276e-05  1.6037243317853103e-03  3.1964208862043588e-03  4.7504765767733877e-03  6.2192000432935339e-03  7.5422316887943834e-03  8.6408011228198307e-03  9.4171801139491945e-03  9.7614055276386731e-03  9.5728723959677547e-03  8.7284377251737270e-03  7.8402936983946580e-03  -3.1352801535964301e-03  -3.8785058930273231e-03  -4.6362569811263686e-03  -4.8712082140426830e-03  -4.6854521036655645e-03  -4.1365386031378369e-03  -3.2991728167167675e-03  -2.2458853642635039e-03  -1.0418804841705763e-03  2.5656386268323883e-04  1.6004491020784380e-03  2.9446809426523423e-03  4.2439490818805747e-03  5.4486035916967148e-03  6.5012968342591741e-03  7.3354664142465708e-03  7.8771590242957632e-03  8.0513315260748747e-03  7.7973336640395569e-03  7.0345535908972042e-03  6.2874428338129847e-03  -2.0154511415650268e-03  -2.6534061270807804e-03  -3.3371461368295620e-03  -3.6035548673401881e-03  -3.5242933964278128e-03  -3.1342532735766241e-03  -2.4858948052955679e-03  -1.6351392665266032e-03  -6.3706545148607869e-04  4.5644544558384753e-04  1.5967628318342498e-03  2.7371430442114024e-03  3.8306899478990474e-03  4.8283289574947647e-03  5.6774950937227330e-03  6.3223153965685230e-03  6.7061208638158135e-03  6.7764910969358395e-03  6.4964140854297889e-03  5.8100079097251128e-03  5.1710079207750231e-03  -1.2312205868476207e-03  -1.7902909123118909e-03  -2.4118667028637580e-03  -2.6893131285584721e-03  -2.6751414970296716e-03  -2.3908801098923415e-03  -1.8747513607157520e-03  -1.1711270976345885e-03  -3.2712907269880938e-04  6.0982830235424708e-04  1.5929665969985794e-03  2.5760392181647623e-03  3.5127019397255699e-03  4.3558986076521417e-03  5.0578058895632801e-03  5.5708586661299209e-03  5.8503028812442849e-03  5.8580671215929655e-03  5.5711798815588284e-03  4.9482594180577820e-03  4.3893565544529459e-03  -7.1403641636951236e-04  -1.2182111977448601e-03  -1.7935561129525431e-03  -2.0731835348520352e-03  -2.0975160366306328e-03  -1.8804451795362866e-03  -1.4514757683432504e-03  -8.4749312741859537e-04  -1.1002457948024091e-04  7.1712012835830881e-04  1.5892050777926387e-03  2.4611976358480648e-03  3.2880090631828549e-03  4.0247463304141024e-03  4.6273754810448389e-03  5.0541385777537187e-03  5.2679655036611851e-03  5.2394939430532167e-03  4.9539247056106673e-03  4.3779539548129635e-03  3.8742716407190159e-03  -4.1982538925073600e-04  -8.9154521989035678e-04  -1.4385864096381938e-03  -1.7179366527894180e-03  -1.7627963850972567e-03  -1.5831971295066311e-03  -1.2039275451825560e-03  -6.5769055605997644e-04  1.7270427535453437e-05  7.7942768545906285e-04  1.5855178443935610e-03  2.3915483128649113e-03  3.1535012517540928e-03  3.8280432463566228e-03  4.3735485225928480e-03  4.7516762951692777e-03  4.9296496029766967e-03  4.8827610534388326e-03  4.6005392762568948e-03  4.0532590157817223e-03  3.5818873162505103e-03  -3.2385843246088400e-04  -7.8471537331279611e-04  -1.3222992003114665e-03  -1.6021633348116023e-03  -1.6540680985789925e-03  -1.4869990248592747e-03  -1.1242271908990218e-03  -5.9713120717600279e-04  5.7099920115960044e-05  7.9768899539079709e-04  1.5818820667966962e-03  2.3660751382037991e-03  3.1066642134823185e-03  3.7608953407794769e-03  4.2879913245081397e-03  4.6507631584735030e-03  4.8178322321966458e-03  4.7659274684308537e-03  4.4860633339306307e-03  3.9484795069314226e-03  3.4876225660796264e-03  -4.1812318263250055e-04  -8.8949488216369854e-04  -1.4367751426382165e-03  -1.7189969198201584e-03  -1.7658854693595530e-03  -1.5879121615557724e-03  -1.2097843889845097e-03  -6.6427911275415881e-04  1.0262881842965332e-05  7.7221582072844639e-04  1.5782462891984811e-03  2.3843364481342562e-03  3.1464937060615588e-03  3.8214546896622012e-03  4.3676916787906070e-03  4.7469612631198853e-03  4.9265605187141922e-03  4.8817007864078946e-03  4.6023505432567034e-03  4.0553093535082600e-03  3.5835895228686584e-03  -7.1050750710353774e-04  -1.2141898211971102e-03  -1.7901605719938801e-03  -2.0757298094362139e-03  -2.1042013700459652e-03  -1.8903744441425719e-03  -1.4636113474393343e-03  -8.6098219681502862e-04  -1.2424492958952707e-04  7.0256649774129573e-04  1.5745590557952288e-03  2.4466440052308843e-03  3.2737887130733180e-03  4.0112572610173361e-03  4.6152399019483920e-03  5.0442093131470899e-03  5.2612801702454177e-03  5.2369476684685345e-03  4.9573202465692115e-03  4.3819753313607303e-03  3.8778005499850213e-03  -1.2255924208412975e-03  -1.7844952844452240e-03  -2.4074157479448059e-03  -2.6943029879786828e-03  -2.6865387476322842e-03  -2.4070945325228056e-03  -1.8940417559628019e-03  -1.1921344740590924e-03  -3.4893780613904534e-04  5.8772491541719373e-04  1.5707975365817214e-03  2.5539358312275297e-03  3.4908932062849428e-03  4.3348912312270917e-03  5.0385154943155654e-03  5.5546442434987525e-03  5.8389056306410230e-03  5.8530772621720999e-03  5.5756308364773334e-03  4.9540550459240447e-03  4.3949847204589479e-03  -2.0072437871687041e-03  -2.6462437761171670e-03  -3.3326499518195616e-03  -3.6127269633256442e-03  -3.5423567302086713e-03  -3.1585512629676944e-03  -2.5137309601302171e-03  -1.6645648239112295e-03  -6.6692581432332802e-04  4.2662108935892420e-04  1.5670013017341118e-03  2.7073186879862472e-03  3.8008295850612797e-03  4.7989034001093061e-03  5.6496589388870533e-03  6.2980174071763555e-03  6.6880575300340365e-03  6.7673190009495451e-03  6.5009102704390162e-03  5.8171702606881993e-03  5.1792152751709572e-03  -3.1236787002127736e-03  -3.8707894572942237e-03  -4.6335695304335700e-03  -4.8875673924694343e-03  -4.7133948906949788e-03  -4.1717022806543654e-03  -3.3375327006779998e-03  -2.2848394581269369e-03  -1.0801849483204182e-03  2.1908319090123597e-04  1.5633150314727517e-03  2.9072002708700009e-03  4.2056446177299832e-03  5.4096494978322683e-03  6.4629369502966563e-03  7.3003027367285808e-03  7.8492162372648892e-03  8.0349723476468085e-03  7.8000211147314352e-03  7.0422700266296098e-03  6.2990442871961403e-03  -4.6765295648004013e-03  -5.5646735915755672e-03  -6.4091082623657951e-03  -6.5976413940385340e-03  -6.2534159803566032e-03  -5.4770369892395117e-03  -4.3784675552288642e-03  -3.0554359097426532e-03  -1.5867124432345295e-03  -3.2656752673405251e-05  1.5600398017427259e-03  3.1518934518949627e-03  4.7036873946096434e-03  6.1695814201830233e-03  7.4907549731589680e-03  8.5906435193237110e-03  9.3741641100353063e-03  9.7326686930618699e-03  9.5703260281872499e-03  8.7350847250677027e-03  7.8567123363291660e-03  -6.8171743922576964e-03  -7.8870250898515331e-03  -8.8022040016323810e-03  -8.8488238341493039e-03  -8.2259040580233162e-03  -7.1022548567194364e-03  -5.6404652610761085e-03  -3.9685345597436335e-03  -2.1762419824382139e-03  -3.2180926300636771e-04  1.5576828634265667e-03  3.4355870701318035e-03  5.2855110524734922e-03  7.0712795274430508e-03  8.7365974042120497e-03  1.0194993268019689e-02  1.1323225003623903e-02  1.1962322134473605e-02  1.1951665195952527e-02  1.1053053246054266e-02  1.0004818245468807e-02  -9.7775343330395118e-03  -1.1082106251451489e-02  -1.2021123831281805e-02  -1.1778695460702909e-02  -1.0696210239782081e-02  -9.0593075384273851e-03  -7.1059124326775672e-03  -4.9966386574152710e-03  -2.8243865170922227e-03  -6.3429301700782285e-04  1.5569778764075164e-03  3.7457040678079961e-03  5.9282604569819370e-03  8.0885268329159207e-03  1.0183140070608738e-02  1.2123454126582032e-02  1.3756848695240487e-02  1.4854035819614208e-02  1.5145740696611728e-02  1.4236754407843631e-02  1.2978051529475414e-02  -1.3931834917337248e-02  -1.5543832609493480e-02  -1.6374568655491552e-02  -1.5555516215111679e-02  -1.3709834567267385e-02  -1.1319041689605760e-02  -8.7156437401517631e-03  -6.0797988806216823e-03  -3.4857459583960563e-03  -9.4588223238753976e-04  1.5588277029187898e-03  4.0600088421033700e-03  6.5889919555179085e-03  9.1642168787681964e-03  1.1773505883737247e-02  1.4346313753370010e-02  1.6713821179934415e-02  1.8561713290036572e-02  1.9445898595640904e-02  1.8671414260127580e-02  1.7158525733027771e-02  -1.9929565948302249e-02  -2.1954374543492659e-02  -2.2324778912917762e-02  -2.0351752452679825e-02  -1.7238224039668026e-02  -1.3764860482572156e-02  -1.0340238463444810e-02  -7.1112553099635023e-03  -4.0880111761320065e-03  -1.2204198228078730e-03  1.5640866515429759e-03  4.3444347944400193e-03  7.1986481439810244e-03  1.0196664446107661e-02  1.3384959823847485e-02  1.6752107844550362e-02  2.0160006560251666e-02  2.3232012069319845e-02  2.5274738637572580e-02  2.5013569161855626e-02  2.3226042785495501e-02  -2.9026552706799949e-02  -3.1612506680733642e-02  -3.0535339974532925e-02  -2.6228242627793781e-02  -2.1056140518357740e-02  -1.6118462457768195e-02  -1.1747706255887056e-02  -7.9279517744881376e-03  -4.5314284661310857e-03  -1.4110636865419170e-03  1.5732919175333281e-03  4.5537699794904220e-03  7.6610224984960664e-03  1.1030274604314709e-02  1.4798999880284543e-02  1.9080034680413891e-02  2.3876334250627573e-02  2.8892333402734165e-02  3.3192504242990244e-02  3.4455400504824471e-02  3.2561452457124059e-02  -4.4213590416449157e-02  -4.7215374434514644e-02  -4.1703275750352278e-02  -3.2752705443561889e-02  -2.4507097686833939e-02  -1.7852528176589107e-02  -1.2588987944891486e-02  -8.3197913369350771e-03  -4.7006064030988065e-03  -1.4676075223198108e-03  1.5854402683807760e-03  4.6361180167911378e-03  7.8604129726386491e-03  1.1458631016771933e-02  1.5680141838557652e-02  2.0838051657077184e-02  2.7277185078366274e-02  3.5165706425130609e-02  4.3686770647420832e-02  4.9212270123732645e-02  4.8541444079383295e-02  -7.5926632835451466e-02  -7.4001489811226687e-02  -5.5192145669697691e-02  -3.8071780050149544e-02  -2.6223720485144326e-02  -1.8184205157462729e-02  -1.2452389262467174e-02  -8.0774294296335480e-03  -4.4933045679942628e-03  -1.3476062634092585e-03  1.6025455971640061e-03  4.5536697532034360e-03  7.7016814942901671e-03  1.1286762290790132e-02  1.5652318070371745e-02  2.1333648156773289e-02  2.9177386036948819e-02  4.0358862836498775e-02  5.5599504199850394e-02  7.2693100993600518e-02  8.1399156769247194e-02  -1.7280359917383770e-01  -1.1338348807021038e-01  -6.3168032152352158e-02  -3.7346536421600476e-02  -2.4036296404251978e-02  -1.6202931223890809e-02  -1.0953296454751616e-02  -7.0377759930630931e-03  -3.8459035065340737e-03  -1.0387402067669629e-03  1.6009993359574945e-03  4.2426644319609351e-03  7.0557400731275088e-03  1.0257724694518950e-02  1.4186636977432643e-02  1.9443620569639979e-02  2.7213536230890595e-02  4.0023686501247650e-02  6.3844938884925762e-02  1.0963536390596411e-01  1.6669375359920102e-01  -3.3064123798093542e-01  -1.2811770351376475e-01  -5.2741948037240298e-02  -3.0044103091040889e-02  -1.9717221667332949e-02  -1.3548137947304150e-02  -9.2734117189618489e-03  -5.9827332404893650e-03  -3.2271508150407925e-03  -7.5595976596920273e-04  1.5917200007719600e-03  3.9415852791988819e-03  6.4203242446559681e-03  9.1926578436656772e-03  1.2520265808246462e-02  1.6888405490642581e-02  2.3340421174869053e-02  3.4524474556332792e-02  5.8242343377155233e-02  1.1793780014730361e-01  3.3606098557513442e-01  </DataArray> 
</PointData> 
</Piece>
</UnstructuredGrid>
</VTKFile>