<?xml version="1.0"?>
<VTKFile type="UnstructuredGrid"  version="0.1"  >
<UnstructuredGrid>
<Piece  NumberOfPoints="651" NumberOfCells="1200">
<Points>
<DataArray  type="Float64"  NumberOfComponents="3"  format="ascii">0 0 0  50000 0 0  100000 0 0  150000 0 0  200000 0 0  250000 0 0  300000 0 0  350000 0 0  400000 0 0  450000 0 0  500000 0 0  550000 0 0  600000 0 0  650000 0 0  700000 0 0  750000 0 0  800000 0 0  850000 0 0  900000 0 0  950000 0 0  1000000 0 0  0 50000 0  50000 50000 0  100000 50000 0  150000 50000 0  200000 50000 0  250000 50000 0  300000 50000 0  350000 50000 0  400000 50000 0  450000 50000 0  500000 50000 0  550000 50000 0  600000 50000 0  650000 50000 0  700000 50000 0  750000 50000 0  800000 50000 0  850000 50000 0  900000 50000 0  950000 50000 0  1000000 50000 0  0 100000 0  50000 100000 0  100000 100000 0  150000 100000 0  200000 100000 0  250000 100000 0  300000 100000 0  350000 100000 0  400000 100000 0  450000 100000 0  500000 100000 0  550000 100000 0  600000 100000 0  650000 100000 0  700000 100000 0  750000 100000 0  800000 100000 0  850000 100000 0  900000 100000 0  950000 100000 0  1000000 100000 0  0 150000 0  50000 150000 0  100000 150000 0  150000 150000 0  200000 150000 0  250000 150000 0  300000 150000 0  350000 150000 0  400000 150000 0  450000 150000 0  500000 150000 0  550000 150000 0  600000 150000 0  650000 150000 0  700000 150000 0  750000 150000 0  800000 150000 0  850000 150000 0  900000 150000 0  950000 150000 0  1000000 150000 0  0 200000 0  50000 200000 0  100000 200000 0  150000 200000 0  200000 200000 0  250000 200000 0  300000 200000 0  350000 200000 0  400000 200000 0  450000 200000 0  500000 200000 0  550000 200000 0  600000 200000 0  650000 200000 0  700000 200000 0  750000 200000 0  800000 200000 0  850000 200000 0  900000 200000 0  950000 200000 0  1000000 200000 0  0 250000 0  50000 250000 0  100000 250000 0  150000 250000 0  200000 250000 0  250000 250000 0  300000 250000 0  350000 250000 0  400000 250000 0  450000 250000 0  500000 250000 0  550000 250000 0  600000 250000 0  650000 250000 0  700000 250000 0  750000 250000 0  800000 250000 0  850000 250000 0  900000 250000 0  950000 250000 0  1000000 250000 0  0 300000 0  50000 300000 0  100000 300000 0  150000 300000 0  200000 300000 0  250000 300000 0  300000 300000 0  350000 300000 0  400000 300000 0  450000 300000 0  500000 300000 0  550000 300000 0  600000 300000 0  650000 300000 0  700000 300000 0  750000 300000 0  800000 300000 0  850000 300000 0  900000 300000 0  950000 300000 0  1000000 300000 0  0 350000 0  50000 350000 0  100000 350000 0  150000 350000 0  200000 350000 0  250000 350000 0  300000 350000 0  350000 350000 0  400000 350000 0  450000 350000 0  500000 350000 0  550000 350000 0  600000 350000 0  650000 350000 0  700000 350000 0  750000 350000 0  800000 350000 0  850000 350000 0  900000 350000 0  950000 350000 0  1000000 350000 0  0 400000 0  50000 400000 0  100000 400000 0  150000 400000 0  200000 400000 0  250000 400000 0  300000 400000 0  350000 400000 0  400000 400000 0  450000 400000 0  500000 400000 0  550000 400000 0  600000 400000 0  650000 400000 0  700000 400000 0  750000 400000 0  800000 400000 0  850000 400000 0  900000 400000 0  950000 400000 0  1000000 400000 0  0 450000 0  50000 450000 0  100000 450000 0  150000 450000 0  200000 450000 0  250000 450000 0  300000 450000 0  350000 450000 0  400000 450000 0  450000 450000 0  500000 450000 0  550000 450000 0  600000 450000 0  650000 450000 0  700000 450000 0  750000 450000 0  800000 450000 0  850000 450000 0  900000 450000 0  950000 450000 0  1000000 450000 0  0 500000 0  50000 500000 0  100000 500000 0  150000 500000 0  200000 500000 0  250000 500000 0  300000 500000 0  350000 500000 0  400000 500000 0  450000 500000 0  500000 500000 0  550000 500000 0  600000 500000 0  650000 500000 0  700000 500000 0  750000 500000 0  800000 500000 0  850000 500000 0  900000 500000 0  950000 500000 0  1000000 500000 0  0 550000 0  50000 550000 0  100000 550000 0  150000 550000 0  200000 550000 0  250000 550000 0  300000 550000 0  350000 550000 0  400000 550000 0  450000 550000 0  500000 550000 0  550000 550000 0  600000 550000 0  650000 550000 0  700000 550000 0  750000 550000 0  800000 550000 0  850000 550000 0  900000 550000 0  950000 550000 0  1000000 550000 0  0 600000 0  50000 600000 0  100000 600000 0  150000 600000 0  200000 600000 0  250000 600000 0  300000 600000 0  350000 600000 0  400000 600000 0  450000 600000 0  500000 600000 0  550000 600000 0  600000 600000 0  650000 600000 0  700000 600000 0  750000 600000 0  800000 600000 0  850000 600000 0  900000 600000 0  950000 600000 0  1000000 600000 0  0 650000 0  50000 650000 0  100000 650000 0  150000 650000 0  200000 650000 0  250000 650000 0  300000 650000 0  350000 650000 0  400000 650000 0  450000 650000 0  500000 650000 0  550000 650000 0  600000 650000 0  650000 650000 0  700000 650000 0  750000 650000 0  800000 650000 0  850000 650000 0  900000 650000 0  950000 650000 0  1000000 650000 0  0 700000 0  50000 700000 0  100000 700000 0  150000 700000 0  200000 700000 0  250000 700000 0  300000 700000 0  350000 700000 0  400000 700000 0  450000 700000 0  500000 700000 0  550000 700000 0  600000 700000 0  650000 700000 0  700000 700000 0  750000 700000 0  800000 700000 0  850000 700000 0  900000 700000 0  950000 700000 0  1000000 700000 0  0 750000 0  50000 750000 0  100000 750000 0  150000 750000 0  200000 750000 0  250000 750000 0  300000 750000 0  350000 750000 0  400000 750000 0  450000 750000 0  500000 750000 0  550000 750000 0  600000 750000 0  650000 750000 0  700000 750000 0  750000 750000 0  800000 750000 0  850000 750000 0  900000 750000 0  950000 750000 0  1000000 750000 0  0 800000 0  50000 800000 0  100000 800000 0  150000 800000 0  200000 800000 0  250000 800000 0  300000 800000 0  350000 800000 0  400000 800000 0  450000 800000 0  500000 800000 0  550000 800000 0  600000 800000 0  650000 800000 0  700000 800000 0  750000 800000 0  800000 800000 0  850000 800000 0  900000 800000 0  950000 800000 0  1000000 800000 0  0 850000 0  50000 850000 0  100000 850000 0  150000 850000 0  200000 850000 0  250000 850000 0  300000 850000 0  350000 850000 0  400000 850000 0  450000 850000 0  500000 850000 0  550000 850000 0  600000 850000 0  650000 850000 0  700000 850000 0  750000 850000 0  800000 850000 0  850000 850000 0  900000 850000 0  950000 850000 0  1000000 850000 0  0 900000 0  50000 900000 0  100000 900000 0  150000 900000 0  200000 900000 0  250000 900000 0  300000 900000 0  350000 900000 0  400000 900000 0  450000 900000 0  500000 900000 0  550000 900000 0  600000 900000 0  650000 900000 0  700000 900000 0  750000 900000 0  800000 900000 0  850000 900000 0  900000 900000 0  950000 900000 0  1000000 900000 0  0 950000 0  50000 950000 0  100000 950000 0  150000 950000 0  200000 950000 0  250000 950000 0  300000 950000 0  350000 950000 0  400000 950000 0  450000 950000 0  500000 950000 0  550000 950000 0  600000 950000 0  650000 950000 0  700000 950000 0  750000 950000 0  800000 950000 0  850000 950000 0  900000 950000 0  950000 950000 0  1000000 950000 0  0 1000000 0  50000 1000000 0  100000 1000000 0  150000 1000000 0  200000 1000000 0  250000 1000000 0  300000 1000000 0  350000 1000000 0  400000 1000000 0  450000 1000000 0  500000 1000000 0  550000 1000000 0  600000 1000000 0  650000 1000000 0  700000 1000000 0  750000 1000000 0  800000 1000000 0  850000 1000000 0  900000 1000000 0  950000 1000000 0  1000000 1000000 0  0 1050000 0  50000 1050000 0  100000 1050000 0  150000 1050000 0  200000 1050000 0  250000 1050000 0  300000 1050000 0  350000 1050000 0  400000 1050000 0  450000 1050000 0  500000 1050000 0  550000 1050000 0  600000 1050000 0  650000 1050000 0  700000 1050000 0  750000 1050000 0  800000 1050000 0  850000 1050000 0  900000 1050000 0  950000 1050000 0  1000000 1050000 0  0 1100000 0  50000 1100000 0  100000 1100000 0  150000 1100000 0  200000 1100000 0  250000 1100000 0  300000 1100000 0  350000 1100000 0  400000 1100000 0  450000 1100000 0  500000 1100000 0  550000 1100000 0  600000 1100000 0  650000 1100000 0  700000 1100000 0  750000 1100000 0  800000 1100000 0  850000 1100000 0  900000 1100000 0  950000 1100000 0  1000000 1100000 0  0 1150000 0  50000 1150000 0  100000 1150000 0  150000 1150000 0  200000 1150000 0  250000 1150000 0  300000 1150000 0  350000 1150000 0  400000 1150000 0  450000 1150000 0  500000 1150000 0  550000 1150000 0  600000 1150000 0  650000 1150000 0  700000 1150000 0  750000 1150000 0  800000 1150000 0  850000 1150000 0  900000 1150000 0  950000 1150000 0  1000000 1150000 0  0 1200000 0  50000 1200000 0  100000 1200000 0  150000 1200000 0  200000 1200000 0  250000 1200000 0  300000 1200000 0  350000 1200000 0  400000 1200000 0  450000 1200000 0  500000 1200000 0  550000 1200000 0  600000 1200000 0  650000 1200000 0  700000 1200000 0  750000 1200000 0  800000 1200000 0  850000 1200000 0  900000 1200000 0  950000 1200000 0  1000000 1200000 0  0 1250000 0  50000 1250000 0  100000 1250000 0  150000 1250000 0  200000 1250000 0  250000 1250000 0  300000 1250000 0  350000 1250000 0  400000 1250000 0  450000 1250000 0  500000 1250000 0  550000 1250000 0  600000 1250000 0  650000 1250000 0  700000 1250000 0  750000 1250000 0  800000 1250000 0  850000 1250000 0  900000 1250000 0  950000 1250000 0  1000000 1250000 0  0 1300000 0  50000 1300000 0  100000 1300000 0  150000 1300000 0  200000 1300000 0  250000 1300000 0  300000 1300000 0  350000 1300000 0  400000 1300000 0  450000 1300000 0  500000 1300000 0  550000 1300000 0  600000 1300000 0  650000 1300000 0  700000 1300000 0  750000 1300000 0  800000 1300000 0  850000 1300000 0  900000 1300000 0  950000 1300000 0  1000000 1300000 0  0 1350000 0  50000 1350000 0  100000 1350000 0  150000 1350000 0  200000 1350000 0  250000 1350000 0  300000 1350000 0  350000 1350000 0  400000 1350000 0  450000 1350000 0  500000 1350000 0  550000 1350000 0  600000 1350000 0  650000 1350000 0  700000 135
[...]
<PointData  Scalars="f_10483"> 
<DataArray  type="Float64"  Name="f_10483"  format="ascii">-7.5094243329096727e-02  -2.8542528826955911e-02  -1.5070816136696768e-02  -9.3804481351233183e-03  -6.3778693662601658e-03  -4.3741840029497244e-03  -2.8109667638129749e-03  -1.4752350923609178e-03  -2.6809232059926545e-04  8.6685289049089325e-04  1.9687719809589610e-03  3.0703710928284235e-03  4.2041678437468666e-03  5.4085557023761579e-03  6.7375016566695199e-03  8.2815225417223678e-03  1.0223781365130373e-02  1.3044577576436196e-02  1.8549768815617713e-02  3.5265290469994270e-02  7.7839776816013923e-02  -3.8457904324870562e-02  -2.6087724331612962e-02  -1.5729706518453058e-02  -1.0153462357263346e-02  -6.8987557311145919e-03  -4.6902239186531729e-03  -3.0004650200160525e-03  -1.5882132920117121e-03  -3.3194755382470850e-04  8.3824915084748392e-04  1.9696961057528235e-03  3.1009990845328548e-03  4.2707365029686856e-03  5.5261865718720304e-03  6.9375049289357709e-03  8.6285587131341348e-03  1.0856093385196929e-02  1.4228380863698247e-02  2.0234733896826580e-02  3.1364072719988055e-02  4.4247650972657780e-02  -1.9160730668782773e-02  -1.7202610071244902e-02  -1.3290394388608380e-02  -9.6965381579617507e-03  -6.8976542661799787e-03  -4.7664816268668236e-03  -3.0685186550771224e-03  -1.6350793427205709e-03  -3.5985821969845410e-04  8.2580193926211506e-04  1.9708601788724417e-03  3.1160128457509671e-03  4.3020665008505115e-03  5.5784962504844783e-03  7.0157864562138093e-03  8.7267425022637211e-03  1.0902411213918004e-02  1.3846055356135353e-02  1.7841392615658567e-02  2.2080547698892301e-02  2.2581745502151994e-02  -1.1415388380094999e-02  -1.1533991925575594e-02  -1.0226112143560836e-02  -8.1572407177451494e-03  -6.1391467988884960e-03  -4.3790570697249511e-03  -2.8586365029350919e-03  -1.5161945282541893e-03  -2.9336327316683083e-04  8.5717807783584660e-04  1.9740524541453624e-03  3.0915897908061476e-03  4.2444351432789282e-03  5.4723978600275738e-03  6.8257318494110812e-03  8.3691560736604761e-03  1.0174787420702075e-02  1.2267286713186000e-02  1.4429113447320532e-02  1.5735370265772711e-02  1.5076701318710532e-02  -7.5877468084668935e-03  -7.9629067490874800e-03  -7.5827405460574633e-03  -6.4566120360711084e-03  -5.1058953156835080e-03  -3.7526673786932945e-03  -2.4742535177369805e-03  -1.2808707704059165e-03  -1.5674295113772893e-04  9.2107883492027970e-04  1.9763641971779575e-03  3.0325569101976937e-03  4.1133901699075227e-03  5.2436004112387993e-03  6.4480249352568651e-03  7.7453352240125098e-03  9.1275229868913992e-03  1.0508529600158002e-02  1.1632306611356655e-02  1.1973434842426061e-02  1.1430550732304900e-02  -5.3245028598267099e-03  -5.6495494464544032e-03  -5.5801355998994530e-03  -4.9552898577394843e-03  -4.0551149490448647e-03  -3.0399450005714483e-03  -2.0004092912122018e-03  -9.7497190245587895e-04  2.6462516196819483e-05  1.0075751164070309e-03  1.9779035881844920e-03  2.9491387757049686e-03  3.9331391993676435e-03  4.9399248455427921e-03  5.9738061914259063e-03  7.0249634786408192e-03  8.0528152873886247e-03  8.9594010691329811e-03  9.5653684301868509e-03  9.6110589070744819e-03  9.2289633816005981e-03  -3.8176594310119125e-03  -4.0636341067443720e-03  -4.0889484201048635e-03  -3.7211005497689085e-03  -3.1055778632606383e-03  -2.3433740309316093e-03  -1.5082426881245887e-03  -6.4304330101550304e-04  2.3087500644416138e-04  1.1051936970873633e-03  1.9785845652150491e-03  2.8527119744877470e-03  3.7292836040617051e-03  4.6070390332602247e-03  5.4775121086296169e-03  6.3184314412913240e-03  7.0844049649406342e-03  7.6975890246943112e-03  8.0489011178495242e-03  8.0112611230886508e-03  7.7424626801355003e-03  -2.7372473786377617e-03  -2.9204988292230814e-03  -2.9682087322045270e-03  -2.7344900522998689e-03  -2.2965392632803235e-03  -1.7149369497175900e-03  -1.0428149671395288e-03  -3.1780944744390084e-04  4.3597685721405340e-04  1.2042139631620191e-03  1.9785479770068992e-03  2.7533912373948477e-03  3.5231224303696736e-03  4.2792341017274353e-03  5.0069601457560535e-03  5.6812204590232446e-03  6.2626355246017300e-03  6.6961829447509001e-03  6.9180533014673966e-03  6.8636464483552524e-03  6.6700636794061229e-03  -1.9278583478728600e-03  -2.0670078300503822e-03  -2.1147858811496499e-03  -1.9543204702919350e-03  -1.6288147446974913e-03  -1.1744780516233107e-03  -6.2808014341996215e-04  -1.9810994685743441e-05  6.2756571242552164e-04  1.2975714965752169e-03  1.9779957753640826e-03  2.6587208643232239e-03  3.3295674386165409e-03  3.9781119199273325e-03  4.5874387936221872e-03  5.1340561752201341e-03  5.5867733513156187e-03  5.9080679250114237e-03  6.0603932011691905e-03  6.0086985394385934e-03  5.8644135799629125e-03  -1.3081291343919417e-03  -1.4172359116693604e-03  -1.4595959803730553e-03  -1.3416057495097013e-03  -1.0893136414351029e-03  -7.2494427658120178e-04  -2.7397066344236849e-04  2.4009432816549602e-04  7.9720509520331013e-04  1.3808399857486227e-03  1.9771260476235744e-03  2.5735571803947484e-03  3.1575673327077633e-03  3.7150947041328739e-03  4.2292835662499388e-03  4.6796221540783868e-03  5.0420723217772913e-03  5.2909138837305162e-03  5.4033188500228384e-03  5.3585176955396096e-03  5.2466031912408503e-03  -8.3161734947948375e-04  -9.2033206906689299e-04  -9.5704453031951106e-04  -8.6522336876271918e-04  -6.6198239355392109e-04  -3.6164632600609487e-04  1.7655452162703211e-05  4.5753727913343576e-04  9.4074937204054339e-04  1.4516735402065753e-03  1.9760934478726521e-03  2.5005591309809785e-03  3.0115741615723661e-03  3.4947834557670652e-03  3.9343457613422858e-03  4.3127376276832731e-03  4.6113133592406907e-03  4.8118965249305612e-03  4.8998592038102069e-03  4.8615526414541189e-03  4.7711536718353141e-03  -4.6974848718943786e-04  -5.4459203270572115e-04  -5.7677420997378104e-04  -5.0185126807409655e-04  -3.3208339563824395e-04  -7.7328750972123383e-05  2.4892071356779765e-04  6.3192957294479224e-04  1.0568132635693820e-03  1.5091333736370828e-03  1.9750005646950375e-03  2.4408603194347963e-03  2.8931265068500929e-03  3.3178187347741154e-03  3.7003619621181977e-03  4.0257203906185054e-03  4.2790363253548836e-03  4.4468389016039164e-03  4.5191000065731820e-03  4.4858525245912951e-03  4.4099305295228495e-03  -2.0394230884448523e-04  -2.6944625139277764e-04  -2.9835982619694695e-04  -2.3456495434437733e-04  -8.7568792088785986e-05  1.3530243274780237e-04  4.2342511483049966e-04  7.6453163435824447e-04  1.1455348961586355e-03  1.5530998684136796e-03  1.9739048876176220e-03  2.3946817424426669e-03  2.8021426825972128e-03  3.1829112167748954e-03  3.5235742409175366e-03  3.8109654617617876e-03  4.0327630985033816e-03  4.1783791782916031e-03  4.2403851790898716e-03  4.2107680616421837e-03  4.1445631233746616e-03  -2.1855618269176836e-05  -8.1360198516018152e-05  -1.0812275910218853e-04  -5.1475510126078035e-05  8.0676561455233757e-05  2.8241574370124100e-04  5.4482597088279156e-04  8.5720498041364477e-04  1.2077011666434042e-03  1.5838351682958029e-03  1.9728308745001672e-03  2.3617982905170193e-03  2.7378365540212642e-03  3.0881396269524584e-03  3.4001871901984584e-03  3.6620890506150090e-03  3.8631208955411177e-03  3.9943961615282455e-03  4.0499367160715879e-03  4.0227429448209361e-03  3.9628101654323820e-03  8.4464339317108140e-05  2.8294718029740985e-05  2.7195538981733411e-06  5.5273657768107984e-05  1.7895824023457242e-04  3.6856330820995298e-04  6.1607851379457074e-04  9.1166424533614416e-04  1.2441844723611391e-03  1.6016907904011233e-03  1.9717814586557624e-03  2.3418553871288592e-03  2.6993067131041524e-03  3.0317207085427886e-03  3.3271316551192476e-03  3.5743880679047412e-03  3.7636428579447918e-03  3.8869015850053327e-03  3.9389257502631444e-03  3.9131450408825550e-03  3.8567712067658871e-03  1.1950425870249706e-04  6.4345511040046118e-05  3.9089126380458092e-05  9.0152009497586745e-05  2.1095544078769641e-04  3.9649651437645731e-04  6.3905341589996128e-04  9.2906006971844640e-04  1.2556103660902797e-03  1.6069305127417834e-03  1.9707471380049310e-03  2.3345637632681301e-03  2.6858839099198639e-03  3.0124342062920239e-03  3.3024408601108721e-03  3.5449977616347828e-03  3.7305388352238686e-03  3.8513422665142003e-03  3.9024051496314230e-03  3.8771487649718263e-03  3.8219900173093683e-03  8.4723069246002739e-05  2.8349235129349417e-05  2.5685257487686251e-06  5.4592691006465157e-05  1.7785141806678608e-04  3.6710620810647792e-04  6.1436262089158763e-04  9.0977356746765230e-04  1.2421875629059218e-03  1.5996388888809944e-03  1.9697128173540176e-03  2.3398034856087252e-03  2.6973098036489319e-03  3.0298300306742343e-03  3.3254157622161968e-03  3.5729309678012118e-03  3.7625360357769560e-03  3.8862206182436309e-03  3.9387747221136769e-03  3.9131995579821050e-03  3.8570299366947362e-03  -2.1315889420531296e-05  -8.1248668809047944e-05  -1.0844244005969293e-04  -5.2901885516447231e-05  7.8373380470421922e-05  2.7940522539613848e-04  5.4130708581225941e-04  8.5335464905779770e-04  1.2036577219886231e-03  1.5796959854926249e-03  1.9686634015093772e-03  2.3576591077138047e-03  2.7337931093664313e-03  3.0842892955965490e-03  3.3966683051278421e-03  3.6590785323098287e-03  3.8608177145562075e-03  3.9929697861377390e-03  4.0496170351140047e-03  4.0228544745278443e-03  3.9633498942809693e-03  -2.0306884736282023e-04  -2.6927378563029579e-04  -2.9889090307796392e-04  -2.3688490227982107e-04  -9.1268822491895928e-05  1.3052881424923667e-04  4.1792003509296891e-04  7.5858305923506668e-04  1.1393515934123156e-03  1.5468125335665632e-03  1.9675893883915026e-03  2.3883944075955197e-03  2.7959593798508268e-03  3.1769626416516062e-03  3.5180691611798715e-03  3.8061918432630592e-03  4.0290630681001057e-03  4.1760592303559966e-03  4.2398541022086820e-03  4.2109405274044958e-03  4.1454365848561702e-03  -4.6843625351108173e-04  -5.4435824857946961e-04  -5.7760573056129941e-04  -5.0534462559219504e-04  -3.3754204934353038e-04  -8.4226114607728746e-05  2.4113231389194032e-04  6.2367554123535500e-04  1.0483677691588409e-03  1.5006339565737702e-03  1.9664937113133868e-03  2.4323609023714442e-03  2.8846810124394614e-03  3.3095647030645199e-03  3.6925735624421269e-03  4.0188230269826691e-03  4.2735776716493834e-03  4.4433455440855878e-03  4.5182684859854157e-03  4.4860863087173315e-03  4.4112427632009964e-03  -8.2965939582362242e-04  -9.2005836544232231e-04  -9.5836492779832619e-04  -8.7040224891890160e-04  -6.6981908322951615e-04  -3.7124335167285349e-04  7.1485146672803427e-06  4.4671082024165304e-04  9.2992011443568303e-04  1.4409351450266048e-03  1.9654008281347534e-03  2.4898207358009469e-03  3.0007449039673633e-03  3.4839569968751027e-03  3.9238388238466175e-03  4.3031406020162455e-03  4.6034766695647921e-03  4.8067176447740730e-03  4.8985388063310853e-03  4.8618263450784082e-03  4.7731116254909013e-03  -1.3051089152292417e-03  -1.4170234195278386e-03  -1.4618245740109410e-03  -1.3494196077189220e-03  -1.1005780457664118e-03  -7.3812787806856414e-04  -2.8778929024126862e-04  2.2639957187469965e-04  7.8392694329896173e-04  1.3679370956114299e-03  1.9643682283823774e-03  2.5606542902574707e-03  3.1442891808032593e-03  3.7013999478418763e-03  4.2154649394507649e-03  4.6664385525906904e-03  5.0308079174455908e-03  5.2831000255208977e-03  5.4010902563845714e-03  5.3587301876807823e-03  5.2496234104031751e-03  -1.9229193039514265e-03  -2.0672042634267917e-03  -2.1188989251571845e-03  -1.9665736489999194e-03  -1.6452790753052275e-03  -1.1925618992112328e-03  -6.4594451761486608e-04  -3.6617643921402471e-05  6.1192683738832193e-04  1.2827734116809596e-03  1.9634985006398344e-03  2.6439227794288881e-03  3.3139285635791762e-03  3.9613052706914224e-03  4.5695744194269557e-03  5.1159723276317818e-03  5.5703090207074027e-03  5.8958147463029492e-03  6.0562801571611641e-03  6.0085021060617650e-03  5.8693526238839649e-03  -2.7285694033946373e-03  -2.9221521723431653e-03  -2.9765590254551381e-03  -2.7546886687395658e-03  -2.3211412485921474e-03  -1.7397261830158317e-03  -1.0654658697507602e-03  -3.3773982572389696e-04  4.1837184563260003e-04  1.1881030386066574e-03  1.9629462989943203e-03  2.7372803128393988e-03  3.5055174187880499e-03  4.2593037234471814e-03  4.9843092431444457e-03  5.6564312257244946e-03  6.2380335392893220e-03  6.6759843283105882e-03  6.9097030082161739e-03  6.8619931052346216e-03  6.6787416546488171e-03  -3.8009684041236504e-03  -4.0697668470758737e-03  -4.1074068418367332e-03  -3.7560947486832801e-03  -3.1429106889324645e-03  -2.3769371652862586e-03  -1.5360178326272492e-03  -6.6554475725991039e-04  2.1221067193722659e-04  1.0887823015103921e-03  1.9629097107828068e-03  2.8363005789106906e-03  3.7106192695545949e-03  4.5845375770155201e-03  5.4497369641265305e-03  6.2848683069360945e-03  7.0470721392681080e-03  7.6625948257791803e-03  8.0304426961169406e-03  8.0051283827565090e-03  7.7591537070232893e-03  -5.2874691055874584e-03  -5.6695646310599753e-03  -5.6238741541729835e-03  -5.0179067931226161e-03  -4.1113210113828671e-03  -3.0834692026393156e-03  -2.0323119154275634e-03  -9.9843056954653495e-04  8.3550766273240154e-06  9.9235550028929295e-04  1.9635906878095466e-03  2.9339191595871674e-03  3.9150317597980043e-03  4.9164661784518631e-03  5.9419035672101566e-03  6.9814392765724011e-03  7.9966092250498156e-03  8.8967841337488467e-03  9.5216298759122960e-03  9.5910437224680876e-03  9.2659971358393413e-03  -7.4890564562882424e-03  -8.0319405664076825e-03  -7.6908123353410449e-03  -6.5670353241491682e-03  -5.1860287108894199e-03  -3.8038409480156822e-03  -2.5065306592632168e-03  -1.3021061352469429e-03  -1.7189589391662232e-04  9.0893736579274577e-04  1.9651300788123493e-03  3.0204154410701108e-03  4.0982372271284864e-03  5.2223650463975166e-03  6.4157477937302658e-03  7.6941616546896182e-03  9.0473895916846209e-03  1.0398106312078725e-02  1.1524234822071646e-02  1.1904401025104639e-02  1.1529241084483074e-02  -1.1135207042685273e-02  -1.1793875989746353e-02  -1.0487619171302403e-02  -8.3257924371795394e-03  -6.2332931447046198e-03  -4.4276617976683379e-03  -2.8842375734216092e-03  -1.5309035840393045e-03  -3.0294086729114989e-04  8.4990448518144110e-04  1.9674418218421641e-03  3.0843161981516788e-03  4.2348575491544492e-03  5.4576888042422115e-03  6.8001307789242529e-03  8.3205513457166192e-03  1.0080641074885179e-02  1.2098734993750315e-02  1.4167606419576940e-02  1.5475486201599905e-02  1.5356882656119812e-02  -1.8640251226104354e-02  -1.8139053422849979e-02  -1.3899898339635952e-02  -9.9045610801300459e-03  -6.9609169379228775e-03  -4.7852482262736020e-03  -3.0742921802259441e-03  -1.6370019744975017e-03  -3.6057222486389072e-04  8.2548143023556298e-04  1.9706340971140540e-03  3.1156923367243292e-03  4.3013524956849077e-03  5.5765736187072248e-03  7.0100129310645852e-03  8.7079759028563762e-03  1.0839148542174302e-02  1.3638032433965601e-02  1.7231888664627677e-02  2.1144104347282557e-02  2.3102224944828085e-02  -4.0306156696552152e-02  -2.7422578443917604e-02  -1.6293239620792935e-02  -1.0286886587686997e-02  -6.9145991091976739e-03  -4.6870644371411014e-03  -2.9960106529458449e-03  -1.5846922958836019e-03  -3.2924222698094423e-04  8.4049519145458788e-04  1.9717981702345134e-03  3.1032451251398695e-03  4.2734418298122582e-03  5.5297075679998434e-03  6.9419592960055631e-03  8.6317181946455983e-03  1.0840250007113019e-02  1.4094956633273301e-02  1.9671200794483798e-02  3.0029218607677859e-02  4.2399398600961459e-02  -7.3898282539893570e-02  -3.1323796193899058e-02  -1.4608274539569262e-02  -9.1030833004166912e-03  -6.2822870891262829e-03  -4.3400282657262380e-03  -2.7960073806774593e-03  -1.4670614263861794e-03  -2.6267356775786584e-04  8.7112318316011144e-04  1.9727222950294415e-03  3.0746413854975392e-03  4.2095865965881144e-03  5.4167293683506888e-03  6.7524610398047536e-03  8.3156782789455055e-03  1.0319363642263792e-02  1.3321942411141582e-02  1.9012310412741144e-02  3.2484023103044157e-02  7.9035737605233067e-02  </DataArray> 
</PointData> 
</Piece>
</UnstructuredGrid>
</VTKFile>