<?xml version="1.0"?>
<VTKFile type="UnstructuredGrid"  version="0.1"  >
<UnstructuredGrid>
<Piece  NumberOfPoints="651" NumberOfCells="1200">
<Points>
<DataArray  type="Float64"  NumberOfComponents="3"  format="ascii">0 0 0  50000 0 0  100000 0 0  150000 0 0  200000 0 0  250000 0 0  300000 0 0  350000 0 0  400000 0 0  450000 0 0  500000 0 0  550000 0 0  600000 0 0  650000 0 0  700000 0 0  750000 0 0  800000 0 0  850000 0 0  900000 0 0  950000 0 0  1000000 0 0  0 50000 0  50000 50000 0  100000 50000 0  150000 50000 0  200000 50000 0  250000 50000 0  300000 50000 0  350000 50000 0  400000 50000 0  450000 50000 0  500000 50000 0  550000 50000 0  600000 50000 0  650000 50000 0  700000 50000 0  750000 50000 0  800000 50000 0  850000 50000 0  900000 50000 0  950000 50000 0  1000000 50000 0  0 100000 0  50000 100000 0  100000 100000 0  150000 100000 0  200000 100000 0  250000 100000 0  300000 100000 0  350000 100000 0  400000 100000 0  450000 100000 0  500000 100000 0  550000 100000 0  600000 100000 0  650000 100000 0  700000 100000 0  750000 100000 0  800000 100000 0  850000 100000 0  900000 100000 0  950000 100000 0  1000000 100000 0  0 150000 0  50000 150000 0  100000 150000 0  150000 150000 0  200000 150000 0  250000 150000 0  300000 150000 0  350000 150000 0  400000 150000 0  450000 150000 0  500000 150000 0  550000 150000 0  600000 150000 0  650000 150000 0  700000 150000 0  750000 150000 0  800000 150000 0  850000 150000 0  900000 150000 0  950000 150000 0  1000000 150000 0  0 200000 0  50000 200000 0  100000 200000 0  150000 200000 0  200000 200000 0  250000 200000 0  300000 200000 0  350000 200000 0  400000 200000 0  450000 200000 0  500000 200000 0  550000 200000 0  600000 200000 0  650000 200000 0  700000 200000 0  750000 200000 0  800000 200000 0  850000 200000 0  900000 200000 0  950000 200000 0  1000000 200000 0  0 250000 0  50000 250000 0  100000 250000 0  150000 250000 0  200000 250000 0  250000 250000 0  300000 250000 0  350000 250000 0  400000 250000 0  450000 250000 0  500000 250000 0  550000 250000 0  600000 250000 0  650000 250000 0  700000 250000 0  750000 250000 0  800000 250000 0  850000 250000 0  900000 250000 0  950000 250000 0  1000000 250000 0  0 300000 0  50000 300000 0  100000 300000 0  150000 300000 0  200000 300000 0  250000 300000 0  300000 300000 0  350000 300000 0  400000 300000 0  450000 300000 0  500000 300000 0  550000 300000 0  600000 300000 0  650000 300000 0  700000 300000 0  750000 300000 0  800000 300000 0  850000 300000 0  900000 300000 0  950000 300000 0  1000000 300000 0  0 350000 0  50000 350000 0  100000 350000 0  150000 350000 0  200000 350000 0  250000 350000 0  300000 350000 0  350000 350000 0  400000 350000 0  450000 350000 0  500000 350000 0  550000 350000 0  600000 350000 0  650000 350000 0  700000 350000 0  750000 350000 0  800000 350000 0  850000 350000 0  900000 350000 0  950000 350000 0  1000000 350000 0  0 400000 0  50000 400000 0  100000 400000 0  150000 400000 0  200000 400000 0  250000 400000 0  300000 400000 0  350000 400000 0  400000 400000 0  450000 400000 0  500000 400000 0  550000 400000 0  600000 400000 0  650000 400000 0  700000 400000 0  750000 400000 0  800000 400000 0  850000 400000 0  900000 400000 0  950000 400000 0  1000000 400000 0  0 450000 0  50000 450000 0  100000 450000 0  150000 450000 0  200000 450000 0  250000 450000 0  300000 450000 0  350000 450000 0  400000 450000 0  450000 450000 0  500000 450000 0  550000 450000 0  600000 450000 0  650000 450000 0  700000 450000 0  750000 450000 0  800000 450000 0  850000 450000 0  900000 450000 0  950000 450000 0  1000000 450000 0  0 500000 0  50000 500000 0  100000 500000 0  150000 500000 0  200000 500000 0  250000 500000 0  300000 500000 0  350000 500000 0  400000 500000 0  450000 500000 0  500000 500000 0  550000 500000 0  600000 500000 0  650000 500000 0  700000 500000 0  750000 500000 0  800000 500000 0  850000 500000 0  900000 500000 0  950000 500000 0  1000000 500000 0  0 550000 0  50000 550000 0  100000 550000 0  150000 550000 0  200000 550000 0  250000 550000 0  300000 550000 0  350000 550000 0  400000 550000 0  450000 550000 0  500000 550000 0  550000 550000 0  600000 550000 0  650000 550000 0  700000 550000 0  750000 550000 0  800000 550000 0  850000 550000 0  900000 550000 0  950000 550000 0  1000000 550000 0  0 600000 0  50000 600000 0  100000 600000 0  150000 600000 0  200000 600000 0  250000 600000 0  300000 600000 0  350000 600000 0  400000 600000 0  450000 600000 0  500000 600000 0  550000 600000 0  600000 600000 0  650000 600000 0  700000 600000 0  750000 600000 0  800000 600000 0  850000 600000 0  900000 600000 0  950000 600000 0  1000000 600000 0  0 650000 0  50000 650000 0  100000 650000 0  150000 650000 0  200000 650000 0  250000 650000 0  300000 650000 0  350000 650000 0  400000 650000 0  450000 650000 0  500000 650000 0  550000 650000 0  600000 650000 0  650000 650000 0  700000 650000 0  750000 650000 0  800000 650000 0  850000 650000 0  900000 650000 0  950000 650000 0  1000000 650000 0  0 700000 0  50000 700000 0  100000 700000 0  150000 700000 0  200000 700000 0  250000 700000 0  300000 700000 0  350000 700000 0  400000 700000 0  450000 700000 0  500000 700000 0  550000 700000 0  600000 700000 0  650000 700000 0  700000 700000 0  750000 700000 0  800000 700000 0  850000 700000 0  900000 700000 0  950000 700000 0  1000000 700000 0  0 750000 0  50000 750000 0  100000 750000 0  150000 750000 0  200000 750000 0  250000 750000 0  300000 750000 0  350000 750000 0  400000 750000 0  450000 750000 0  500000 750000 0  550000 750000 0  600000 750000 0  650000 750000 0  700000 750000 0  750000 750000 0  800000 750000 0  850000 750000 0  900000 750000 0  950000 750000 0  1000000 750000 0  0 800000 0  50000 800000 0  100000 800000 0  150000 800000 0  200000 800000 0  250000 800000 0  300000 800000 0  350000 800000 0  400000 800000 0  450000 800000 0  500000 800000 0  550000 800000 0  600000 800000 0  650000 800000 0  700000 800000 0  750000 800000 0  800000 800000 0  850000 800000 0  900000 800000 0  950000 800000 0  1000000 800000 0  0 850000 0  50000 850000 0  100000 850000 0  150000 850000 0  200000 850000 0  250000 850000 0  300000 850000 0  350000 850000 0  400000 850000 0  450000 850000 0  500000 850000 0  550000 850000 0  600000 850000 0  650000 850000 0  700000 850000 0  750000 850000 0  800000 850000 0  850000 850000 0  900000 850000 0  950000 850000 0  1000000 850000 0  0 900000 0  50000 900000 0  100000 900000 0  150000 900000 0  200000 900000 0  250000 900000 0  300000 900000 0  350000 900000 0  400000 900000 0  450000 900000 0  500000 900000 0  550000 900000 0  600000 900000 0  650000 900000 0  700000 900000 0  750000 900000 0  800000 900000 0  850000 900000 0  900000 900000 0  950000 900000 0  1000000 900000 0  0 950000 0  50000 950000 0  100000 950000 0  150000 950000 0  200000 950000 0  250000 950000 0  300000 950000 0  350000 950000 0  400000 950000 0  450000 950000 0  500000 950000 0  550000 950000 0  600000 950000 0  650000 950000 0  700000 950000 0  750000 950000 0  800000 950000 0  850000 950000 0  900000 950000 0  950000 950000 0  1000000 950000 0  0 1000000 0  50000 1000000 0  100000 1000000 0  150000 1000000 0  200000 1000000 0  250000 1000000 0  300000 1000000 0  350000 1000000 0  400000 1000000 0  450000 1000000 0  500000 1000000 0  550000 1000000 0  600000 1000000 0  650000 1000000 0  700000 1000000 0  750000 1000000 0  800000 1000000 0  850000 1000000 0  900000 1000000 0  950000 1000000 0  1000000 1000000 0  0 1050000 0  50000 1050000 0  100000 1050000 0  150000 1050000 0  200000 1050000 0  250000 1050000 0  300000 1050000 0  350000 1050000 0  400000 1050000 0  450000 1050000 0  500000 1050000 0  550000 1050000 0  600000 1050000 0  650000 1050000 0  700000 1050000 0  750000 1050000 0  800000 1050000 0  850000 1050000 0  900000 1050000 0  950000 1050000 0  1000000 1050000 0  0 1100000 0  50000 1100000 0  100000 1100000 0  150000 1100000 0  200000 1100000 0  250000 1100000 0  300000 1100000 0  350000 1100000 0  400000 1100000 0  450000 1100000 0  500000 1100000 0  550000 1100000 0  600000 1100000 0  650000 1100000 0  700000 1100000 0  750000 1100000 0  800000 1100000 0  850000 1100000 0  900000 1100000 0  950000 1100000 0  1000000 1100000 0  0 1150000 0  50000 1150000 0  100000 1150000 0  150000 1150000 0  200000 1150000 0  250000 1150000 0  300000 1150000 0  350000 1150000 0  400000 1150000 0  450000 1150000 0  500000 1150000 0  550000 1150000 0  600000 1150000 0  650000 1150000 0  700000 1150000 0  750000 1150000 0  800000 1150000 0  850000 1150000 0  900000 1150000 0  950000 1150000 0  1000000 1150000 0  0 1200000 0  50000 1200000 0  100000 1200000 0  150000 1200000 0  200000 1200000 0  250000 1200000 0  300000 1200000 0  350000 1200000 0  400000 1200000 0  450000 1200000 0  500000 1200000 0  550000 1200000 0  600000 1200000 0  650000 1200000 0  700000 1200000 0  750000 1200000 0  800000 1200000 0  850000 1200000 0  900000 1200000 0  950000 1200000 0  1000000 1200000 0  0 1250000 0  50000 1250000 0  100000 1250000 0  150000 1250000 0  200000 1250000 0  250000 1250000 0  300000 1250000 0  350000 1250000 0  400000 1250000 0  450000 1250000 0  500000 1250000 0  550000 1250000 0  600000 1250000 0  650000 1250000 0  700000 1250000 0  750000 1250000 0  800000 1250000 0  850000 1250000 0  900000 1250000 0  950000 1250000 0  1000000 1250000 0  0 1300000 0  50000 1300000 0  100000 1300000 0  150000 1300000 0  200000 1300000 0  250000 1300000 0  300000 1300000 0  350000 1300000 0  400000 1300000 0  450000 1300000 0  500000 1300000 0  550000 1300000 0  600000 1300000 0  650000 1300000 0  700000 1300000 0  750000 1300000 0  800000 1300000 0  850000 1300000 0  900000 1300000 0  950000 1300000 0  1000000 1300000 0  0 1350000 0  50000 1350000 0  100000 1350000 0  150000 1350000 0  200000 1350000 0  250000 1350000 0  300000 1350000 0  350000 1350000 0  400000 1350000 0  450000 1350000 0  500000 1350000 0  550000 1350000 0  600000 1350000 0  650000 1350000 0  700000 135
[...]
<PointData  Scalars="f_10483"> 
<DataArray  type="Float64"  Name="f_10483"  format="ascii">-4.3341946325084602e-01  -1.4625937328419472e-01  -6.9408451060665052e-02  -3.9094221766975731e-02  -2.4926424630021093e-02  -1.6866382197800400e-02  -1.1514459730169544e-02  -7.5258547358825001e-03  -4.2700745375422906e-03  -1.4039192821180169e-03  1.2906010421967718e-03  3.9821721929882174e-03  6.8381966527490340e-03  1.0071732807999547e-02  1.4012099750031783e-02  1.9244213357143349e-02  2.6943309511155023e-02  3.9997422474680626e-02  6.8899400687265966e-02  1.6653837220646381e-01  4.3495891047181268e-01  -2.1037555516126086e-01  -1.3602764141034202e-01  -7.7195603739937987e-02  -4.6541120879555260e-02  -3.0173409557468098e-02  -2.0352617142329443e-02  -1.3809021460290463e-02  -9.0056806915165596e-03  -5.1595478330803794e-03  -1.8276432231108261e-03  1.2769866438631131e-03  4.3790244790301259e-03  7.7029574838809048e-03  1.1535382382875256e-02  1.6320193098771921e-02  2.2851352331264608e-02  3.2745376980653558e-02  4.9739796960051944e-02  8.2977456030242147e-02  1.4805124021543878e-01  2.2553178698461529e-01  -9.9845891293290079e-02  -8.8788318003632141e-02  -6.6866535425909229e-02  -4.7253024236670882e-02  -3.2947145343393505e-02  -2.2992955430269947e-02  -1.5863251009353957e-02  -1.0456792755825053e-02  -6.0758022019882429e-03  -2.2707417636405750e-03  1.2743679114571927e-03  4.8182011608601969e-03  8.6202122097538934e-03  1.2999850541355088e-02  1.8418170366806947e-02  2.5612229320324639e-02  3.5817006535795975e-02  5.0983021303376820e-02  7.3026148463647342e-02  9.7276036070255700e-02  9.9458793050165251e-02  -5.7835491044641855e-02  -5.8798155192203876e-02  -5.1693424004436876e-02  -4.0744200483373592e-02  -3.0672042341283109e-02  -2.2507163516603649e-02  -1.6025204359177019e-02  -1.0774549753738965e-02  -6.3450598863579767e-03  -2.4091228470762218e-03  1.2973314082057380e-03  5.0068727396183647e-03  8.9541319903197036e-03  1.3410842300777409e-02  1.8723310132138474e-02  2.5342217866893103e-02  3.3786849257935944e-02  4.4323573553226206e-02  5.5815037749888240e-02  6.2891551715233043e-02  5.8966544845588074e-02  -3.7462674535591864e-02  -3.9934177494620283e-02  -3.8308288444656058e-02  -3.2809167424963592e-02  -2.6430895099889804e-02  -2.0366870195451151e-02  -1.4993982502990697e-02  -1.0302879550783033e-02  -6.1425288899660943e-03  -2.3302988467273009e-03  1.3133809461200509e-03  4.9621029202332493e-03  8.7913746484473542e-03  1.2987141000993381e-02  1.7744468339972817e-02  2.3233818018477185e-02  2.9481694060446494e-02  3.6064710172343833e-02  4.1570732022878698e-02  4.2948646736383926e-02  3.9612010996275260e-02  -2.5541056981549504e-02  -2.7865630304458266e-02  -2.8213797639410808e-02  -2.5628165434459962e-02  -2.1749258987093630e-02  -1.7463836114580456e-02  -1.3253873600044170e-02  -9.2926922968687275e-03  -5.5904002517221264e-03  -2.0825056406506832e-03  1.3256963210623550e-03  4.7393174419984420e-03  8.2646432624976767e-03  1.1999801939144822e-02  1.6013997636260501e-02  2.0298877547239823e-02  2.4669658932141857e-02  2.8603726268072342e-02  3.1100444417798762e-02  3.0608437559409746e-02  2.7986741065649797e-02  -1.7770119704598800e-02  -1.9749601955090661e-02  -2.0776635298933008e-02  -1.9690683552987039e-02  -1.7388421397920548e-02  -1.4437798156257476e-02  -1.1241194149100712e-02  -8.0126433888720924e-03  -4.8394278175516109e-03  -1.7334673265327035e-03  1.3328491849434567e-03  4.4037772298813468e-03  7.5239584418628422e-03  1.0721792694063785e-02  1.3985112951338500e-02  1.7221915533758913e-02  2.0203446523084864e-02  2.2504104789369740e-02  2.3507444536652988e-02  2.2406106184828977e-02  2.0300877547940976e-02  -1.2400279464347713e-02  -1.4064251299731165e-02  -1.5283076431307573e-02  -1.4969361885318314e-02  -1.3636522474470640e-02  -1.1628988460317425e-02  -9.2405482767379376e-03  -6.6653839606052086e-03  -4.0149474872883248e-03  -1.3420970306257933e-03  1.3355486300211073e-03  4.0165350613819107e-03  6.6992868401724850e-03  9.3654949971777642e-03  1.1960028185523969e-02  1.4365971746023122e-02  1.6378802184541873e-02  1.7693732689026468e-02  1.7945055428030154e-02  1.6686052493036715e-02  1.4962920225888314e-02  -8.5720976246091499e-03  -9.9752734456436988e-03  -1.1196965697274972e-02  -1.1281686505737206e-02  -1.0542437040090519e-02  -9.1848836160739918e-03  -7.4130464785333409e-03  -5.3840657061893652e-03  -3.2073064339849370e-03  -9.5295644596818157e-04  1.3348948717245290e-03  3.6248470733979518e-03  5.8851729050712629e-03  8.0706206596294940e-03  1.0108523028322715e-02  1.1885258122331630e-02  1.3237530282607294e-02  1.3956733196351333e-02  1.3826439101664386e-02  1.2582178916740374e-02  1.1150512446696835e-02  -5.8024266789775056e-03  -6.9942145892524432e-03  -8.1468991589150139e-03  -8.4346776326371265e-03  -8.0604623633151132e-03  -7.1471797652106197e-03  -5.8345918876802176e-03  -4.2441612560048976e-03  -2.4730630573342720e-03  -5.9529580089376637e-04  1.3320586729107591e-03  3.2605451679448547e-03  5.1413647954011293e-03  6.9163393835821509e-03  8.5094853492876238e-03  9.8207824562782115e-03  1.0725332393006937e-02  1.1081719108090709e-02  1.0760651101081603e-02  9.5951545724992388e-03  8.3900349365961750e-03  -3.7935451192295387e-03  -4.8157769082146371e-03  -5.8775216881914120e-03  -6.2647190275706309e-03  -6.1161157904732243e-03  -5.5056546548140732e-03  -4.5296979166349755e-03  -3.2810646210424902e-03  -1.8427247090238761e-03  -2.8584116400131329e-04  1.3279939624875985e-03  2.9423123142572221e-03  4.5003666515122092e-03  5.9397236415608991e-03  7.1878368288382649e-03  8.1599782967447035e-03  8.7614665771211988e-03  8.8955239413557562e-03  8.4840040503031573e-03  7.4150473636198392e-03  6.3871495681824524e-03  -2.3505671816712380e-03  -3.2393995692179350e-03  -4.2114466783157133e-03  -4.6432807707454454e-03  -4.6342009799699184e-03  -4.2290338744497523e-03  -3.4956249920001037e-03  -2.5056497455668825e-03  -1.3293356037808568e-03  -3.2510987985430791e-05  1.3233634702244567e-03  2.6793466111038095e-03  3.9762998661419793e-03  5.1521873699449305e-03  6.1402929545452314e-03  6.8693555137929359e-03  7.2667080818127183e-03  7.2645662469966810e-03  6.8151801213405675e-03  5.8391689585925808e-03  4.9484743244892077e-03  -1.3417065646211537e-03  -2.1295619524367747e-03  -3.0247208555134299e-03  -3.4733932192629407e-03  -3.5497544215480734e-03  -3.2813532404230954e-03  -2.7177144617370973e-03  -1.9157741482231528e-03  -9.3570663781853487e-04  1.6218123694118446e-04  1.3185638512963397e-03  2.4748814957406100e-03  3.5724476459789165e-03  4.5515755409297675e-03  5.3514248736655050e-03  5.9112399112377671e-03  6.1735683264582753e-03  6.0890844803293135e-03  5.6282206934022538e-03  4.7309702864081829e-03  3.9429674697175803e-03  -6.7769207600212541e-04  -1.3946632940328449e-03  -2.2318367011557893e-03  -2.6848254922906861e-03  -2.8117564790239779e-03  -2.6302380487204929e-03  -2.1785300875042739e-03  -1.5039906313131493e-03  -6.5970612306824150e-04  2.9850850478492903e-04  1.3137894647459812e-03  2.3289638479034101e-03  3.2867856270901532e-03  4.1301859300266752e-03  4.8030557808630917e-03  5.2520037377281762e-03  5.4294165439819787e-03  5.2972200381671553e-03  4.8365218173275267e-03  3.9983223229312151e-03  3.2817601408480575e-03  -3.0058373797248785e-04  -9.7539320593402923e-04  -1.7767549574851469e-03  -2.2301368424498488e-03  -2.3840092718023852e-03  -2.2509331268149389e-03  -1.8630515158891393e-03  -1.2623618754861480e-03  -4.9778283509252735e-04  3.7772532284302774e-04  1.3090983877249108e-03  2.2404005697992725e-03  3.1156630895438045e-03  3.8797300259828943e-03  4.4795119485828991e-03  4.8659605070200396e-03  4.9969739423669128e-03  4.8405146962764026e-03  4.3833952527316871e-03  3.5816218171393303e-03  2.9071541728244560e-03  -1.7763973635419336e-04  -8.3832490477723956e-04  -1.6276991348760481e-03  -2.0819794800007977e-03  -2.2450715256040112e-03  -2.1281800683379147e-03  -1.7614757652096591e-03  -1.1852597344241213e-03  -4.4711297805719209e-04  4.0094284636977098e-04  1.3044676007847829e-03  2.2079923552017168e-03  3.0560481796343968e-03  3.7941949360093992e-03  4.3704109668036882e-03  4.7371152699397677e-03  4.8540067272110823e-03  4.6909146816102769e-03  4.2366343364853964e-03  3.4472601063859202e-03  2.7865749379632136e-03  -2.9821897121668400e-04  -9.7268661553169739e-04  -1.7744600511232105e-03  -2.2315794946679134e-03  -2.3880387407607321e-03  -2.2570253054193731e-03  -1.8705767469901812e-03  -1.2707948243992604e-03  -5.0672788796851469e-04  3.6853463177026111e-04  1.2998368138425653e-03  2.2312098787264528e-03  3.1067180366677544e-03  3.8712970770694915e-03  4.4719867174814803e-03  4.8598683284152800e-03  4.9929444734082970e-03  4.8390720440580860e-03  4.3856901590934262e-03  3.5843284075415234e-03  2.9095189395801730e-03  -6.7282493924441394e-04  -1.3893871213271740e-03  -2.2275866157221882e-03  -2.6882848365615245e-03  -2.8204813423790094e-03  -2.6430685361313864e-03  -2.1941205792749374e-03  -1.5212507284483652e-03  -6.7785042552070192e-04  2.7997135365989559e-04  1.2951457368150273e-03  2.3104266967781603e-03  3.2686413246373561e-03  4.1129258328910113e-03  4.7874652890919547e-03  5.2391732503168330e-03  5.4206916806263583e-03  5.2937606938956655e-03  4.8407719027610211e-03  4.0035984956369747e-03  3.2866272776058722e-03  -1.3340322681202339e-03  -2.1220350848095795e-03  -3.0192854918015839e-03  -3.4801492787282758e-03  -3.5646331248606667e-03  -3.3023047096475112e-03  -2.7424896720853161e-03  -1.9426403393608678e-03  -9.6351244441998196e-04  1.3405370581134058e-04  1.2903713502530779e-03  2.4467539646105202e-03  3.5446418393769419e-03  4.5247093497913253e-03  5.3266496633164002e-03  5.8902884420124176e-03  6.1586896231448467e-03  6.0823284208631253e-03  5.6336560571135915e-03  4.7384971540349206e-03  3.9506417662181692e-03  -2.3395391229004466e-03  -3.2302337570014653e-03  -4.2062449197461773e-03  -4.6556310454023836e-03  -4.6577728802229918e-03  -4.2604203122126351e-03  -3.5313577529774249e-03  -2.5432521683905955e-03  -1.3673646645994389e-03  -7.0411409569411888e-05  1.2855717313069728e-03  2.6414461895195068e-03  3.9382708053227128e-03  5.1145849471200978e-03  6.1045601935665753e-03  6.8379690760285976e-03  7.2431361815584547e-03  7.2522159723386803e-03  6.8203818799091563e-03  5.8483347708084511e-03  4.9595023832596204e-03  -3.7782143666034544e-03  -4.8061121620367768e-03  -5.8750688487157919e-03  -6.2865887397692329e-03  -6.1525313755415607e-03  -5.5510430951777210e-03  -4.5789016272876184e-03  -3.3307884400271734e-03  -1.8914314499928367e-03  -3.3337711274766639e-04  1.2809412390184073e-03  2.8947763655104227e-03  4.4516599105422694e-03  5.8899998225748597e-03  7.1386331181839176e-03  8.1145898563790859e-03  8.7250509920509239e-03  8.8736542291554341e-03  8.4864568897776802e-03  7.4247121097969077e-03  6.4024803208080419e-03  -5.7810997350265566e-03  -6.9862193709238993e-03  -8.1517158995008509e-03  -8.4727839065126612e-03  -8.1163971914398735e-03  -7.2118472547289822e-03  -5.9005501477600100e-03  -4.3074041820760313e-03  -2.5324295939127507e-03  -6.5160996646817799e-04  1.2768765285616271e-03  3.2042310023698414e-03  5.0819982588214928e-03  6.8530964575095098e-03  8.4435270892058416e-03  9.7561149667574742e-03  1.0669397564879697e-02  1.1043612834212920e-02  1.0755834360494061e-02  9.6031497908267392e-03  8.4113618805457535e-03  -8.5415772451351187e-03  -9.9732437151702838e-03  -1.1217503900088584e-02  -1.1347797994781528e-02  -1.0628595081054919e-02  -9.2763229208044310e-03  -7.4995878268240704e-03  -5.4616854581577175e-03  -3.2762377036211782e-03  -1.0159118719620154e-03  1.2740403297063507e-03  3.5618916474035442e-03  5.8162416354337037e-03  7.9930009076593748e-03  1.0021981680029740e-02  1.1793818817598245e-02  1.3151372241639767e-02  1.3890621707303978e-02  1.3805900898848488e-02  1.2584208647212410e-02  1.1181032826170159e-02  -1.2353985024328596e-02  -1.4077117291465538e-02  -1.5336120226454496e-02  -1.5084797487463567e-02  -1.3769866983005297e-02  -1.1757036544521267e-02  -9.3510929840590062e-03  -6.7565597957460078e-03  -4.0903516387665439e-03  -1.4075998599921500e-03  1.2733865713629349e-03  3.9510322320149612e-03  6.6238826886930585e-03  9.2743191620350898e-03  1.1849483478200216e-02  1.4237923661815637e-02  1.6245457676003373e-02  1.7578297086877217e-02  1.7892011632879522e-02  1.6673186501299890e-02  1.5009214665906472e-02  -1.7691942346372221e-02  -1.9797170983247011e-02  -2.0898509335070783e-02  -1.9895169587809923e-02  -1.7594511321563470e-02  -1.4612980332284128e-02  -1.1376177749909235e-02  -8.1128574926734674e-03  -4.9150232405015702e-03  -1.7948420285379958e-03  1.2760860163936831e-03  4.3424025278754712e-03  7.4483630189116096e-03  1.0621578590260368e-02  1.3850129350526942e-02  1.7046733357728116e-02  1.9997356599437188e-02  2.2299618754542477e-02  2.3385570500511332e-02  2.2358537156669484e-02  2.0379054906166271e-02  -2.5377805864053814e-02  -2.7999502357800049e-02  -2.8491509216196691e-02  -2.5994791066508285e-02  -2.2060723730632375e-02  -1.7689942345789678e-02  -1.3405062434863493e-02  -9.3908667377907377e-03  -5.6557080611748228e-03  -2.1303822406942316e-03  1.2832388802355905e-03  4.6914408419545415e-03  8.1993354530440730e-03  1.1901627498220956e-02  1.5862808801438359e-02  2.0072771316027128e-02  2.4358194188597970e-02  2.8237100636018107e-02  3.0822732841006437e-02  3.0474565506063769e-02  2.8149992183144113e-02  -3.7003075794621802e-02  -4.0339711534719082e-02  -3.8961796821238022e-02  -3.3455774970764372e-02  -2.6872758858940381e-02  -2.0624882817041720e-02  -1.5135533138596124e-02  -1.0378205799661984e-02  -6.1824394471475721e-03  -2.3531677189520110e-03  1.2955542551549831e-03  4.9392340480081919e-03  8.7514640912650273e-03  1.2911814752112805e-02  1.7602917704364913e-02  2.2975805396883507e-02  2.9039830301390072e-02  3.5418102626535497e-02  4.0917223646288060e-02  4.2543112696278737e-02  4.0071609737243170e-02  -5.6357609643829340e-02  -6.0282616513470992e-02  -5.3206102548185169e-02  -4.1714638351615159e-02  -3.1177914056417497e-02  -2.2733282665454015e-02  -1.6114374930761344e-02  -1.0801907099446999e-02  -6.3451967890209137e-03  -2.3979375383382582e-03  1.3116037930681174e-03  5.0180580483560012e-03  8.9539950876557015e-03  1.3383484955067842e-02  1.8634139560551894e-02  2.5116098718040075e-02  3.3280977542796845e-02  4.3353135684977083e-02  5.4302359206128505e-02  6.1407090393954256e-02  6.0444426246398002e-02  -9.6849857848206267e-02  -9.4667100868331605e-02  -7.0417213261851269e-02  -4.8374086101712913e-02  -3.3208071334242743e-02  -2.3003294118857511e-02  -1.5809235165406079e-02  -1.0390915340002842e-02  -6.0112770084353243e-03  -2.2092659595609695e-03  1.3345672898355157e-03  4.8796769649393917e-03  8.6847374033059959e-03  1.3065727957175217e-02  1.8472186210752511e-02  2.5601890631733883e-02  3.5556080544942706e-02  4.9861959438326574e-02  6.9475470627686220e-02  9.1397253205524512e-02  1.0245482649523648e-01  -2.2292285178224672e-01  -1.4544230501329333e-01  -8.0368520828331486e-02  -4.7130861758311424e-02  -3.0136441779041456e-02  -2.0242417129749782e-02  -1.3711257897330582e-02  -8.9264471814879537e-03  -5.0940222825305225e-03  -1.7700892777013180e-03  1.3319485574584623e-03  4.4365784244392572e-03  7.7684830344298258e-03  1.1614615892902446e-02  1.6417956661729679e-02  2.2961552343840584e-02  3.2782344759075564e-02  4.9150056081288557e-02  7.9804538941835715e-02  1.3863657661245640e-01  2.1298449036353895e-01  -4.3234997526934771e-01  -1.6392943700416154e-01  -6.6290465485260533e-02  -3.7388487272884914e-02  -2.4334374309505719e-02  -1.6635278155599748e-02  -1.1403164548566949e-02  -7.4627976065922887e-03  -4.2292614513808960e-03  -1.3732369916430655e-03  1.3183341591408583e-03  4.0128544834628216e-03  6.8790097389098467e-03  1.0134789937288936e-02  1.4123394931633186e-02  1.9475317399341979e-02  2.7535359831667796e-02  4.1703156968763637e-02  7.2017386262645977e-02  1.4886830848646007e-01  4.3602839845342067e-01  </DataArray> 
</PointData> 
</Piece>
</UnstructuredGrid>
</VTKFile>