<?xml version="1.0"?>
<VTKFile type="UnstructuredGrid"  version="0.1"  >
<UnstructuredGrid>
<Piece  NumberOfPoints="651" NumberOfCells="1200">
<Points>
<DataArray  type="Float64"  NumberOfComponents="3"  format="ascii">0 0 0  50000 0 0  100000 0 0  150000 0 0  200000 0 0  250000 0 0  300000 0 0  350000 0 0  400000 0 0  450000 0 0  500000 0 0  550000 0 0  600000 0 0  650000 0 0  700000 0 0  750000 0 0  800000 0 0  850000 0 0  900000 0 0  950000 0 0  1000000 0 0  0 50000 0  50000 50000 0  100000 50000 0  150000 50000 0  200000 50000 0  250000 50000 0  300000 50000 0  350000 50000 0  400000 50000 0  450000 50000 0  500000 50000 0  550000 50000 0  600000 50000 0  650000 50000 0  700000 50000 0  750000 50000 0  800000 50000 0  850000 50000 0  900000 50000 0  950000 50000 0  1000000 50000 0  0 100000 0  50000 100000 0  100000 100000 0  150000 100000 0  200000 100000 0  250000 100000 0  300000 100000 0  350000 100000 0  400000 100000 0  450000 100000 0  500000 100000 0  550000 100000 0  600000 100000 0  650000 100000 0  700000 100000 0  750000 100000 0  800000 100000 0  850000 100000 0  900000 100000 0  950000 100000 0  1000000 100000 0  0 150000 0  50000 150000 0  100000 150000 0  150000 150000 0  200000 150000 0  250000 150000 0  300000 150000 0  350000 150000 0  400000 150000 0  450000 150000 0  500000 150000 0  550000 150000 0  600000 150000 0  650000 150000 0  700000 150000 0  750000 150000 0  800000 150000 0  850000 150000 0  900000 150000 0  950000 150000 0  1000000 150000 0  0 200000 0  50000 200000 0  100000 200000 0  150000 200000 0  200000 200000 0  250000 200000 0  300000 200000 0  350000 200000 0  400000 200000 0  450000 200000 0  500000 200000 0  550000 200000 0  600000 200000 0  650000 200000 0  700000 200000 0  750000 200000 0  800000 200000 0  850000 200000 0  900000 200000 0  950000 200000 0  1000000 200000 0  0 250000 0  50000 250000 0  100000 250000 0  150000 250000 0  200000 250000 0  250000 250000 0  300000 250000 0  350000 250000 0  400000 250000 0  450000 250000 0  500000 250000 0  550000 250000 0  600000 250000 0  650000 250000 0  700000 250000 0  750000 250000 0  800000 250000 0  850000 250000 0  900000 250000 0  950000 250000 0  1000000 250000 0  0 300000 0  50000 300000 0  100000 300000 0  150000 300000 0  200000 300000 0  250000 300000 0  300000 300000 0  350000 300000 0  400000 300000 0  450000 300000 0  500000 300000 0  550000 300000 0  600000 300000 0  650000 300000 0  700000 300000 0  750000 300000 0  800000 300000 0  850000 300000 0  900000 300000 0  950000 300000 0  1000000 300000 0  0 350000 0  50000 350000 0  100000 350000 0  150000 350000 0  200000 350000 0  250000 350000 0  300000 350000 0  350000 350000 0  400000 350000 0  450000 350000 0  500000 350000 0  550000 350000 0  600000 350000 0  650000 350000 0  700000 350000 0  750000 350000 0  800000 350000 0  850000 350000 0  900000 350000 0  950000 350000 0  1000000 350000 0  0 400000 0  50000 400000 0  100000 400000 0  150000 400000 0  200000 400000 0  250000 400000 0  300000 400000 0  350000 400000 0  400000 400000 0  450000 400000 0  500000 400000 0  550000 400000 0  600000 400000 0  650000 400000 0  700000 400000 0  750000 400000 0  800000 400000 0  850000 400000 0  900000 400000 0  950000 400000 0  1000000 400000 0  0 450000 0  50000 450000 0  100000 450000 0  150000 450000 0  200000 450000 0  250000 450000 0  300000 450000 0  350000 450000 0  400000 450000 0  450000 450000 0  500000 450000 0  550000 450000 0  600000 450000 0  650000 450000 0  700000 450000 0  750000 450000 0  800000 450000 0  850000 450000 0  900000 450000 0  950000 450000 0  1000000 450000 0  0 500000 0  50000 500000 0  100000 500000 0  150000 500000 0  200000 500000 0  250000 500000 0  300000 500000 0  350000 500000 0  400000 500000 0  450000 500000 0  500000 500000 0  550000 500000 0  600000 500000 0  650000 500000 0  700000 500000 0  750000 500000 0  800000 500000 0  850000 500000 0  900000 500000 0  950000 500000 0  1000000 500000 0  0 550000 0  50000 550000 0  100000 550000 0  150000 550000 0  200000 550000 0  250000 550000 0  300000 550000 0  350000 550000 0  400000 550000 0  450000 550000 0  500000 550000 0  550000 550000 0  600000 550000 0  650000 550000 0  700000 550000 0  750000 550000 0  800000 550000 0  850000 550000 0  900000 550000 0  950000 550000 0  1000000 550000 0  0 600000 0  50000 600000 0  100000 600000 0  150000 600000 0  200000 600000 0  250000 600000 0  300000 600000 0  350000 600000 0  400000 600000 0  450000 600000 0  500000 600000 0  550000 600000 0  600000 600000 0  650000 600000 0  700000 600000 0  750000 600000 0  800000 600000 0  850000 600000 0  900000 600000 0  950000 600000 0  1000000 600000 0  0 650000 0  50000 650000 0  100000 650000 0  150000 650000 0  200000 650000 0  250000 650000 0  300000 650000 0  350000 650000 0  400000 650000 0  450000 650000 0  500000 650000 0  550000 650000 0  600000 650000 0  650000 650000 0  700000 650000 0  750000 650000 0  800000 650000 0  850000 650000 0  900000 650000 0  950000 650000 0  1000000 650000 0  0 700000 0  50000 700000 0  100000 700000 0  150000 700000 0  200000 700000 0  250000 700000 0  300000 700000 0  350000 700000 0  400000 700000 0  450000 700000 0  500000 700000 0  550000 700000 0  600000 700000 0  650000 700000 0  700000 700000 0  750000 700000 0  800000 700000 0  850000 700000 0  900000 700000 0  950000 700000 0  1000000 700000 0  0 750000 0  50000 750000 0  100000 750000 0  150000 750000 0  200000 750000 0  250000 750000 0  300000 750000 0  350000 750000 0  400000 750000 0  450000 750000 0  500000 750000 0  550000 750000 0  600000 750000 0  650000 750000 0  700000 750000 0  750000 750000 0  800000 750000 0  850000 750000 0  900000 750000 0  950000 750000 0  1000000 750000 0  0 800000 0  50000 800000 0  100000 800000 0  150000 800000 0  200000 800000 0  250000 800000 0  300000 800000 0  350000 800000 0  400000 800000 0  450000 800000 0  500000 800000 0  550000 800000 0  600000 800000 0  650000 800000 0  700000 800000 0  750000 800000 0  800000 800000 0  850000 800000 0  900000 800000 0  950000 800000 0  1000000 800000 0  0 850000 0  50000 850000 0  100000 850000 0  150000 850000 0  200000 850000 0  250000 850000 0  300000 850000 0  350000 850000 0  400000 850000 0  450000 850000 0  500000 850000 0  550000 850000 0  600000 850000 0  650000 850000 0  700000 850000 0  750000 850000 0  800000 850000 0  850000 850000 0  900000 850000 0  950000 850000 0  1000000 850000 0  0 900000 0  50000 900000 0  100000 900000 0  150000 900000 0  200000 900000 0  250000 900000 0  300000 900000 0  350000 900000 0  400000 900000 0  450000 900000 0  500000 900000 0  550000 900000 0  600000 900000 0  650000 900000 0  700000 900000 0  750000 900000 0  800000 900000 0  850000 900000 0  900000 900000 0  950000 900000 0  1000000 900000 0  0 950000 0  50000 950000 0  100000 950000 0  150000 950000 0  200000 950000 0  250000 950000 0  300000 950000 0  350000 950000 0  400000 950000 0  450000 950000 0  500000 950000 0  550000 950000 0  600000 950000 0  650000 950000 0  700000 950000 0  750000 950000 0  800000 950000 0  850000 950000 0  900000 950000 0  950000 950000 0  1000000 950000 0  0 1000000 0  50000 1000000 0  100000 1000000 0  150000 1000000 0  200000 1000000 0  250000 1000000 0  300000 1000000 0  350000 1000000 0  400000 1000000 0  450000 1000000 0  500000 1000000 0  550000 1000000 0  600000 1000000 0  650000 1000000 0  700000 1000000 0  750000 1000000 0  800000 1000000 0  850000 1000000 0  900000 1000000 0  950000 1000000 0  1000000 1000000 0  0 1050000 0  50000 1050000 0  100000 1050000 0  150000 1050000 0  200000 1050000 0  250000 1050000 0  300000 1050000 0  350000 1050000 0  400000 1050000 0  450000 1050000 0  500000 1050000 0  550000 1050000 0  600000 1050000 0  650000 1050000 0  700000 1050000 0  750000 1050000 0  800000 1050000 0  850000 1050000 0  900000 1050000 0  950000 1050000 0  1000000 1050000 0  0 1100000 0  50000 1100000 0  100000 1100000 0  150000 1100000 0  200000 1100000 0  250000 1100000 0  300000 1100000 0  350000 1100000 0  400000 1100000 0  450000 1100000 0  500000 1100000 0  550000 1100000 0  600000 1100000 0  650000 1100000 0  700000 1100000 0  750000 1100000 0  800000 1100000 0  850000 1100000 0  900000 1100000 0  950000 1100000 0  1000000 1100000 0  0 1150000 0  50000 1150000 0  100000 1150000 0  150000 1150000 0  200000 1150000 0  250000 1150000 0  300000 1150000 0  350000 1150000 0  400000 1150000 0  450000 1150000 0  500000 1150000 0  550000 1150000 0  600000 1150000 0  650000 1150000 0  700000 1150000 0  750000 1150000 0  800000 1150000 0  850000 1150000 0  900000 1150000 0  950000 1150000 0  1000000 1150000 0  0 1200000 0  50000 1200000 0  100000 1200000 0  150000 1200000 0  200000 1200000 0  250000 1200000 0  300000 1200000 0  350000 1200000 0  400000 1200000 0  450000 1200000 0  500000 1200000 0  550000 1200000 0  600000 1200000 0  650000 1200000 0  700000 1200000 0  750000 1200000 0  800000 1200000 0  850000 1200000 0  900000 1200000 0  950000 1200000 0  1000000 1200000 0  0 1250000 0  50000 1250000 0  100000 1250000 0  150000 1250000 0  200000 1250000 0  250000 1250000 0  300000 1250000 0  350000 1250000 0  400000 1250000 0  450000 1250000 0  500000 1250000 0  550000 1250000 0  600000 1250000 0  650000 1250000 0  700000 1250000 0  750000 1250000 0  800000 1250000 0  850000 1250000 0  900000 1250000 0  950000 1250000 0  1000000 1250000 0  0 1300000 0  50000 1300000 0  100000 1300000 0  150000 1300000 0  200000 1300000 0  250000 1300000 0  300000 1300000 0  350000 1300000 0  400000 1300000 0  450000 1300000 0  500000 1300000 0  550000 1300000 0  600000 1300000 0  650000 1300000 0  700000 1300000 0  750000 1300000 0  800000 1300000 0  850000 1300000 0  900000 1300000 0  950000 1300000 0  1000000 1300000 0  0 1350000 0  50000 1350000 0  100000 1350000 0  150000 1350000 0  200000 1350000 0  250000 1350000 0  300000 1350000 0  350000 1350000 0  400000 1350000 0  450000 1350000 0  500000 1350000 0  550000 1350000 0  600000 1350000 0  650000 1350000 0  700000 135
[...]
<PointData  Scalars="f_10483"> 
<DataArray  type="Float64"  Name="f_10483"  format="ascii">-6.9807408464726370e-02  -2.6589373290768215e-02  -1.4059358588525587e-02  -8.7373157116271954e-03  -5.9034616343955583e-03  -3.9958268100999533e-03  -2.4990079979662189e-03  -1.2162175070731078e-03  -5.5419382892737541e-05  1.0364821281321306e-03  2.0967708515308120e-03  3.1567666509557347e-03  4.2476199043889806e-03  5.4059090592428949e-03  6.6825065080218298e-03  8.1617043320006480e-03  1.0012675794156413e-02  1.2678544781980999e-02  1.7829937608119840e-02  3.3366003493957935e-02  7.2884057523684598e-02  -3.5747442082328405e-02  -2.4266614847776251e-02  -1.4634396136700029e-02  -9.4270236073741350e-03  -6.3674045174486327e-03  -4.2762005037845904e-03  -2.6666541758719616e-03  -1.3160518254866683e-03  -1.1181018500710228e-04  1.0113039317202763e-03  2.0977982518533950e-03  3.1841824455725561e-03  4.3069439510142011e-03  5.5105601955509845e-03  6.8604935560113225e-03  8.4715053062847830e-03  1.0580652217361767e-02  1.3749557873505241e-02  1.9354973823556942e-02  2.9699396562392538e-02  4.1658196211648658e-02  -1.7787295235828088e-02  -1.5968505350761088e-02  -1.2324387526405241e-02  -8.9653430193937823e-03  -6.3378303354191491e-03  -4.3265035448003981e-03  -2.7158169724882703e-03  -1.3504511064431493e-03  -1.3228711133927884e-04  1.0023130078975840e-03  2.0989669790373697e-03  3.1957395412575847e-03  4.3307998845872010e-03  5.5502482474281394e-03  6.9194135678643061e-03  8.5424129177098847e-03  1.0595206291627531e-02  1.3356853580814960e-02  1.7087172574325234e-02  2.1033247713103335e-02  2.1499874652482234e-02  -1.0568658182755606e-02  -1.0674280021269217e-02  -9.4478171981435127e-03  -7.5081909465479725e-03  -5.6105071518166042e-03  -3.9488822852590377e-03  -2.5077919096830152e-03  -1.2309898724566079e-03  -6.4891905293893980e-05  1.0341546832507518e-03  2.1019360017268639e-03  3.1703516160032784e-03  4.2715918549101105e-03  5.4425365288379756e-03  6.7295397646936561e-03  8.1920313676283781e-03  9.8958407803770524e-03  1.1862273981243125e-02  1.3887554952678948e-02  1.5112317568868744e-02  1.4504476842306761e-02  -6.9950032505979977e-03  -7.3359555277654788e-03  -6.9691785231631460e-03  -5.9063163288388615e-03  -4.6313165395548131e-03  -3.3511718798820882e-03  -2.1385471948963597e-03  -1.0036577427892672e-03  6.7614496465793017e-05  1.0962375022987294e-03  2.1040790355678200e-03  3.1127738648999859e-03  4.1442226011404416e-03  5.2211806042649399e-03  6.3663477799636749e-03  7.5964920532089267e-03  8.9033929522464115e-03  1.0206252028449785e-02  1.1266565121887550e-02  1.1596993589795296e-02  1.1099864808221485e-02  -4.8749548024122347e-03  -5.1682875340050205e-03  -5.0894388089720967e-03  -4.4931578806201309e-03  -3.6387095581246615e-03  -2.6752624470047560e-03  -1.6874415372383966e-03  -7.1146266983144460e-04  2.4304568364067990e-04  1.1791646586461818e-03  2.1054916877766062e-03  3.0326653968985066e-03  3.9714774292864477e-03  4.9309645695303625e-03  5.9147773924100337e-03  6.9133467440270656e-03  7.8884729516940626e-03  8.7487238588483725e-03  9.3273139666665301e-03  9.3840146812426695e-03  9.0375675520508961e-03  -3.4566439785736177e-03  -3.6770485171577182e-03  -3.6869392590510299e-03  -3.3306361731341681e-03  -2.7423865154031063e-03  -2.0161070887913472e-03  -1.2205610717924318e-03  -3.9590068366120569e-04  4.3770039526223528e-04  1.2722043459568819e-03  2.1061019847581110e-03  2.9406848000238907e-03  3.7772826495063574e-03  4.6144438672207624e-03  5.4439854018599170e-03  6.2448693766970513e-03  6.9745905972687164e-03  7.5605964160422598e-03  7.9015154243603225e-03  7.8800592789919546e-03  7.6383823515733095e-03  -2.4344044020045389e-03  -2.5978595944032151e-03  -2.6301842381281451e-03  -2.3999960913563779e-03  -1.9783934528447402e-03  -1.4217799131201418e-03  -7.7970464782729570e-04  -8.7395571611768389e-05  6.3246912755792470e-04  1.3662931962189438e-03  2.1060440453916055e-03  2.8462673583338795e-03  3.5814765435420747e-03  4.3034936601001779e-03  4.9983140929190668e-03  5.6423503653003065e-03  6.1987595260356715e-03  6.6162448975476953e-03  6.8354608663203885e-03  6.7968024909345710e-03  6.6236422730994709e-03  -1.6651406744893015e-03  -1.7890771447402348e-03  -1.8233518941792293e-03  -1.6628066470902939e-03  -1.3472683485572922e-03  -9.1056617348638403e-04  -3.8705197491208169e-04  1.9498930328324095e-04  8.1415107487524841e-04  1.4548595784463244e-03  2.1055073484941766e-03  2.7564334882929759e-03  3.3979194107701975e-03  4.0181587848111908e-03  4.6011711608993592e-03  5.1248744456279440e-03  5.5600588242742293e-03  5.8716781648877805e-03  6.0247052751763210e-03  5.9866881735203999e-03  5.8578390872299256e-03  -1.0741696183648327e-03  -1.1714378022636539e-03  -1.2024177845721960e-03  -1.0828205934164789e-03  -8.3675792409068509e-04  -4.8511668651891605e-04  -5.1773282414153038e-05  4.4119461701631494e-04  9.7491753703255217e-04  1.5337928956482699e-03  2.1046765883800571e-03  2.6756940246922506e-03  3.2349148071071981e-03  3.7690192290170078e-03  4.2620946405653257e-03  4.6948398817692246e-03  5.0446927807941029e-03  5.2875486534644653e-03  5.4019893775969193e-03  5.3686515196245356e-03  5.2686272071576076e-03  -6.1875259213577235e-04  -6.9801173168107121e-04  -7.2516213456295258e-04  -6.3115228193127493e-04  -4.3191872230229138e-04  -1.4103051687731409e-04  2.2444293366907499e-04  6.4718542614157178e-04  1.1109295524752416e-03  1.6009186038986325e-03  2.1036955156665308e-03  2.6065141482230448e-03  3.0965852129118776e-03  3.5603228807042035e-03  3.9827636948141136e-03  4.3473870305250186e-03  4.6366370651570342e-03  4.8333998572980177e-03  4.9238422937564631e-03  4.8951373725117453e-03  4.8141824586922380e-03  -2.7240545378504430e-04  -3.3943490743733388e-04  -3.6344700271187183e-04  -2.8615714112641778e-04  -1.1904976343981070e-04  1.2845582686155186e-04  4.4359221603319901e-04  8.1243329499187760e-04  1.2209113064356948e-03  1.6553695837267890e-03  2.1026592669198974e-03  2.5499414685681886e-03  2.9843479783379962e-03  3.3926455163090031e-03  3.7610508485451900e-03  4.0753562636830125e-03  4.3215228847711387e-03  4.4868012354202479e-03  4.5616242613609852e-03  4.5365657425537461e-03  4.4684303650337443e-03  -1.7765922488585215e-05  -7.6559591236178420e-05  -9.8297395353808662e-05  -3.2111704742307864e-05  1.1305063793235116e-04  3.3013341086440601e-04  6.0903469747849407e-04  9.3812214089600287e-04  1.3049998157842958e-03  1.6970388836940419e-03  2.1016210284867708e-03  2.5061766258446666e-03  2.8981179376513758e-03  3.2647758301465584e-03  3.5934491318463735e-03  3.8716685377657525e-03  4.0877515660825894e-03  4.2316277898410311e-03  4.2961517175100841e-03  4.2737194098402490e-03  4.2141993706476090e-03  1.5677433698280897e-04  1.0327319653714184e-04  8.3028510478239383e-05  1.4204634492018069e-04  2.7286348319366778e-04  4.6974508057451997e-04  7.2417937883885377e-04  1.0259905988044781e-03  1.3639324912187332e-03  1.7261731679580742e-03  2.1006033234774171e-03  2.4750069639962800e-03  2.8371580214171482e-03  3.1749194478855468e-03  3.4764213835419837e-03  3.7303817526949620e-03  3.9266042357347462e-03  4.0566033104997550e-03  4.1145911688182189e-03  4.0939195046994243e-03  4.0399724877070936e-03  2.5872423580688839e-04  2.0816210170333625e-04  1.8873137472546402e-04  2.4363853898152235e-04  3.6626070687223081e-04  5.5153011712860570e-04  7.9177997021030050e-04  1.0776380027997968e-03  1.3985241694819950e-03  1.7431011414884795e-03  2.0996087169651667e-03  2.4561006304688227e-03  2.8006261915563984e-03  3.1214131554653125e-03  3.4071081296143677e-03  3.6471166893192772e-03  3.8320595480302536e-03  3.9542840861433257e-03  4.0086974841473761e-03  3.9890628954451128e-03  3.9382877047325271e-03  2.9232862587312271e-04  2.4264710642294454e-04  2.2341462076083866e-04  2.7683468979886576e-04  3.9667087162999524e-04  5.7805167531238153e-04  8.1357955268083224e-04  1.0941371519329998e-03  1.4093585472086370e-03  1.7480690804595835e-03  2.0986282505604968e-03  2.4491874206614560e-03  2.7878979539126057e-03  3.1031193491885285e-03  3.3836769484410136e-03  3.6192048258098268e-03  3.8005856294925019e-03  3.9204218113238340e-03  3.9738418803619497e-03  3.9546093946998392e-03  3.9049278752496543e-03  2.5896879639027739e-04  2.0819360567770405e-04  1.8855901697544455e-04  2.4297241497938575e-04  3.6519695309225841e-04  5.5013981180291368e-04  7.9014837150748413e-04  1.0758433456561920e-03  1.3966303095647836e-03  1.7411558706521657e-03  2.0976477841557575e-03  2.4541553596325026e-03  2.7987323316391835e-03  3.1196184983216494e-03  3.4054765309114881e-03  3.6457263839935320e-03  3.8309957942502331e-03  3.9536179621411328e-03  4.0085251263972960e-03  3.9890943994194223e-03  3.9385322653158706e-03  1.5728401341568064e-04  1.0333699642338525e-04  8.2665332304592245e-05  1.4065319062296451e-04  2.7065226538773666e-04  4.6687474842717000e-04  7.2083511757976772e-04  1.0223370532357965e-03  1.3600984797038731e-03  1.7222495371245273e-03  2.0966531776433024e-03  2.4710833331626982e-03  2.8333240099022382e-03  3.1712659023168080e-03  3.4730771222828182e-03  3.7275114205475371e-03  3.9243930179287219e-03  4.0552101562024070e-03  4.1142279906444933e-03  4.0939833045856040e-03  4.0404821641399089e-03  -1.6942869524826400e-05  -7.6462908717425242e-05  -9.8895216387249367e-05  -3.4371288718317849e-05  1.0950493503985426e-04  3.2558796335627828e-04  6.0380736927519694e-04  9.3248067097453187e-04  1.2991385634693335e-03  1.6910798752757812e-03  2.0956354726335853e-03  2.5002176174263777e-03  2.8922566853363525e-03  3.2591343602249830e-03  3.5882218036429494e-03  3.8671230902574700e-03  4.0842058631899341e-03  4.2293682058648649e-03  4.2955538964764743e-03  4.2738160923588382e-03  4.2150224236112170e-03  -2.7117386391100696e-04  -3.3930924143096136e-04  -3.6436776023815806e-04  -2.8954473429757547e-04  -1.2426638364880144e-04  1.2190023743880865e-04  4.3620565257606637e-04  8.0461098481166330e-04  1.2129085227821983e-03  1.6473150325516843e-03  2.0945972341998497e-03  2.5418869173930458e-03  2.9763451946844166e-03  3.3848232061286410e-03  3.7536642850878560e-03  4.0688006742600515e-03  4.3163062645619433e-03  4.4834136422488699e-03  4.5607035038344595e-03  4.5366914085599088e-03  4.4696619549075773e-03  -6.1692595756954215e-04  -6.9788087138896208e-04  -7.2658579263361908e-04  -6.3614335617538458e-04  -4.3938056403483995e-04  -1.5013052940349915e-04  2.1449280630665241e-04  6.3693362041581584e-04  1.1006712882075554e-03  1.5907423528959790e-03  2.0935609854523364e-03  2.5963378972203338e-03  3.0863269486440578e-03  3.5500710749782802e-03  3.9728135674514612e-03  4.3382870179985815e-03  4.6291752234241985e-03  4.8284087830536143e-03  4.9224186356855004e-03  4.8952682328035797e-03  4.8160090932582002e-03  -1.0713707060349535e-03  -1.1713950185017511e-03  -1.2047328764740414e-03  -1.0902921523418699e-03  -8.4743627967215113e-04  -4.9758338064821196e-04  -6.4838139445329109e-05  4.2823727210202585e-04  9.6234169401109232e-04  1.5215624764255628e-03  2.0925799127375563e-03  2.6634636054694637e-03  3.2223389640855943e-03  3.7560618841025305e-03  4.2490297835338945e-03  4.6823731876396140e-03  5.0340144252122663e-03  5.2800770945386931e-03  5.3996742856947067e-03  5.3686943033861003e-03  5.2714261194871234e-03  -1.6605825861073478e-03  -1.7894316723975627e-03  -1.8274487740533231e-03  -1.6744216637652454e-03  -1.3628023231526858e-03  -9.2761794450771547e-04  -4.0391465978051951e-04  1.7909771630642978e-04  7.9933709034649060e-04  1.4408230128231168e-03  2.0917491526216809e-03  2.7423969226696939e-03  3.3831054262412857e-03  4.0022671978341435e-03  4.5843084760306147e-03  5.1078226746062074e-03  5.5445248496783827e-03  5.8600631482123647e-03  6.0206083953017559e-03  5.9863336458626671e-03  5.8623971756115063e-03  -2.4263857719768684e-03  -2.5995459898114615e-03  -2.6382043651971541e-03  -2.4189883964252897e-03  -2.0015030249148102e-03  -1.4450938641813575e-03  -8.0105759180197492e-04  -1.0623715898462377e-04  6.1577995757237513e-04  1.3509891427798976e-03  2.0912124557219188e-03  2.8309633048947511e-03  3.5647873735563645e-03  4.2846520727270812e-03  4.9769611489440327e-03  5.6190364142386122e-03  6.1756499539650511e-03  6.5972525924782068e-03  6.8274407392507992e-03  6.7951160955258012e-03  6.6316609031267194e-03  -3.4411258504503826e-03  -3.6828027778682323e-03  -3.7042589232366028e-03  -3.3633399149201066e-03  -2.7773340961490828e-03  -2.0476128755801391e-03  -1.2467289007453695e-03  -4.1718736610800970e-04  4.1997385160518706e-04  1.2565717010869597e-03  2.0911545163524899e-03  2.9250521551538867e-03  3.7595561058491418e-03  4.5931571847736760e-03  5.4178175729065782e-03  6.2133635899077160e-03  6.9396430165220863e-03  7.5278926742556136e-03  7.8841957601740748e-03  7.8743050182808350e-03  7.6539004796960831e-03  -4.8403110509268573e-03  -5.1867581801174284e-03  -5.1300574655418598e-03  -4.5514673577268091e-03  -3.6912164505765658e-03  -2.7160902429133067e-03  -1.7175208912990354e-03  -7.3370806842118182e-04  2.2577907182161057e-04  1.1645911042089370e-03  2.0917648133306397e-03  3.0180918424611972e-03  3.9542108174672394e-03  4.9087191709403641e-03  5.8846980383490269e-03  6.8725189481179958e-03  7.8359660592414032e-03  8.6904143817407610e-03  9.2866953100958095e-03  9.3655440351294843e-03  9.0722113035357783e-03  -6.9026083070944048e-03  -7.3997370886666469e-03  -7.0693086207613883e-03  -6.0089955273296743e-03  -4.7061364511323690e-03  -3.3992355520994022e-03  -2.1690912788569026e-03  -1.0239241031597054e-03  5.3033899963977316e-05  1.0844826362040388e-03  2.0931774655360900e-03  3.1010189988052456e-03  4.1296420046384860e-03  5.2009142438942555e-03  6.3358036960027841e-03  7.5484283809911391e-03  8.8285730406680463e-03  1.0103572829957838e-02  1.1166435024287982e-02  1.1533212028892983e-02  1.1192259751724614e-02  -1.0307220341172107e-02  -1.0915061067733050e-02  -9.6902984515507221e-03  -7.6650174801253983e-03  -5.6985842792673111e-03  -3.9947748665232416e-03  -2.5322832635907644e-03  -1.2452800277360601e-03  -7.4335353808571998e-05  1.0269048850981228e-03  2.0953204993744892e-03  3.1631018178505856e-03  4.2621484063952797e-03  5.4282463735582853e-03  6.7050484107856120e-03  8.1461387863637283e-03  9.8077636529256256e-03  1.1705447447664493e-02  1.3645073699269863e-02  1.4871536522403002e-02  1.4765914683889837e-02  -1.7302618151327456e-02  -1.6835991211953418e-02  -1.2889916073193371e-02  -9.1595970796987253e-03  -6.3979497905202552e-03  -4.3451564166068464e-03  -2.7221570667630688e-03  -1.3529917463275462e-03  -1.3354338348683137e-04  1.0015169598427528e-03  2.0982895220629503e-03  3.1949434932026710e-03  4.3295436124394879e-03  5.5477076075434381e-03  6.9130734735891267e-03  8.5237600459029030e-03  1.0535086836525667e-02  1.3162599520508656e-02  1.6521644027534019e-02  2.0165761851906692e-02  2.1984551736980714e-02  -3.7460939710440740e-02  -2.5502140061217152e-02  -1.5157717322415411e-02  -9.5523013723839475e-03  -6.3833957162510186e-03  -4.2742488051793178e-03  -2.6632370549083948e-03  -1.3133036944492184e-03  -1.0968744991293306e-04  1.0130740555285070e-03  2.0994582492475915e-03  3.1859525693807025e-03  4.3090666861081862e-03  5.5133083265881512e-03  6.8639106769744973e-03  8.4734570048894883e-03  1.0564661018558607e-02  1.3624280108494221e-02  1.8831652637838838e-02  2.8463871348946467e-02  3.9944698583522675e-02  -6.8686801022463093e-02  -2.9168746992759689e-02  -1.3632681106964712e-02  -8.4812882808521766e-03  -5.8154192930413009e-03  -3.9644478308924229e-03  -2.4852500069170134e-03  -1.2086525581397663e-03  -5.0363403286608676e-05  1.0404898501462836e-03  2.1004856495711066e-03  3.1607743729697882e-03  4.2526758839949589e-03  5.4134740081760299e-03  6.6962644990707591e-03  8.1930833112078428e-03  1.0100718135510231e-02  1.2934572212754875e-02  1.8256615089676954e-02  3.0786629791959945e-02  7.4004664965962544e-02  </DataArray> 
</PointData> 
</Piece>
</UnstructuredGrid>
</VTKFile>