<?xml version="1.0"?>
<VTKFile type="UnstructuredGrid"  version="0.1"  >
<UnstructuredGrid>
<Piece  NumberOfPoints="651" NumberOfCells="1200">
<Points>
<DataArray  type="Float64"  NumberOfComponents="3"  format="ascii">0 0 0  50000 0 0  100000 0 0  150000 0 0  200000 0 0  250000 0 0  300000 0 0  350000 0 0  400000 0 0  450000 0 0  500000 0 0  550000 0 0  600000 0 0  650000 0 0  700000 0 0  750000 0 0  800000 0 0  850000 0 0  900000 0 0  950000 0 0  1000000 0 0  0 50000 0  50000 50000 0  100000 50000 0  150000 50000 0  200000 50000 0  250000 50000 0  300000 50000 0  350000 50000 0  400000 50000 0  450000 50000 0  500000 50000 0  550000 50000 0  600000 50000 0  650000 50000 0  700000 50000 0  750000 50000 0  800000 50000 0  850000 50000 0  900000 50000 0  950000 50000 0  1000000 50000 0  0 100000 0  50000 100000 0  100000 100000 0  150000 100000 0  200000 100000 0  250000 100000 0  300000 100000 0  350000 100000 0  400000 100000 0  450000 100000 0  500000 100000 0  550000 100000 0  600000 100000 0  650000 100000 0  700000 100000 0  750000 100000 0  800000 100000 0  850000 100000 0  900000 100000 0  950000 100000 0  1000000 100000 0  0 150000 0  50000 150000 0  100000 150000 0  150000 150000 0  200000 150000 0  250000 150000 0  300000 150000 0  350000 150000 0  400000 150000 0  450000 150000 0  500000 150000 0  550000 150000 0  600000 150000 0  650000 150000 0  700000 150000 0  750000 150000 0  800000 150000 0  850000 150000 0  900000 150000 0  950000 150000 0  1000000 150000 0  0 200000 0  50000 200000 0  100000 200000 0  150000 200000 0  200000 200000 0  250000 200000 0  300000 200000 0  350000 200000 0  400000 200000 0  450000 200000 0  500000 200000 0  550000 200000 0  600000 200000 0  650000 200000 0  700000 200000 0  750000 200000 0  800000 200000 0  850000 200000 0  900000 200000 0  950000 200000 0  1000000 200000 0  0 250000 0  50000 250000 0  100000 250000 0  150000 250000 0  200000 250000 0  250000 250000 0  300000 250000 0  350000 250000 0  400000 250000 0  450000 250000 0  500000 250000 0  550000 250000 0  600000 250000 0  650000 250000 0  700000 250000 0  750000 250000 0  800000 250000 0  850000 250000 0  900000 250000 0  950000 250000 0  1000000 250000 0  0 300000 0  50000 300000 0  100000 300000 0  150000 300000 0  200000 300000 0  250000 300000 0  300000 300000 0  350000 300000 0  400000 300000 0  450000 300000 0  500000 300000 0  550000 300000 0  600000 300000 0  650000 300000 0  700000 300000 0  750000 300000 0  800000 300000 0  850000 300000 0  900000 300000 0  950000 300000 0  1000000 300000 0  0 350000 0  50000 350000 0  100000 350000 0  150000 350000 0  200000 350000 0  250000 350000 0  300000 350000 0  350000 350000 0  400000 350000 0  450000 350000 0  500000 350000 0  550000 350000 0  600000 350000 0  650000 350000 0  700000 350000 0  750000 350000 0  800000 350000 0  850000 350000 0  900000 350000 0  950000 350000 0  1000000 350000 0  0 400000 0  50000 400000 0  100000 400000 0  150000 400000 0  200000 400000 0  250000 400000 0  300000 400000 0  350000 400000 0  400000 400000 0  450000 400000 0  500000 400000 0  550000 400000 0  600000 400000 0  650000 400000 0  700000 400000 0  750000 400000 0  800000 400000 0  850000 400000 0  900000 400000 0  950000 400000 0  1000000 400000 0  0 450000 0  50000 450000 0  100000 450000 0  150000 450000 0  200000 450000 0  250000 450000 0  300000 450000 0  350000 450000 0  400000 450000 0  450000 450000 0  500000 450000 0  550000 450000 0  600000 450000 0  650000 450000 0  700000 450000 0  750000 450000 0  800000 450000 0  850000 450000 0  900000 450000 0  950000 450000 0  1000000 450000 0  0 500000 0  50000 500000 0  100000 500000 0  150000 500000 0  200000 500000 0  250000 500000 0  300000 500000 0  350000 500000 0  400000 500000 0  450000 500000 0  500000 500000 0  550000 500000 0  600000 500000 0  650000 500000 0  700000 500000 0  750000 500000 0  800000 500000 0  850000 500000 0  900000 500000 0  950000 500000 0  1000000 500000 0  0 550000 0  50000 550000 0  100000 550000 0  150000 550000 0  200000 550000 0  250000 550000 0  300000 550000 0  350000 550000 0  400000 550000 0  450000 550000 0  500000 550000 0  550000 550000 0  600000 550000 0  650000 550000 0  700000 550000 0  750000 550000 0  800000 550000 0  850000 550000 0  900000 550000 0  950000 550000 0  1000000 550000 0  0 600000 0  50000 600000 0  100000 600000 0  150000 600000 0  200000 600000 0  250000 600000 0  300000 600000 0  350000 600000 0  400000 600000 0  450000 600000 0  500000 600000 0  550000 600000 0  600000 600000 0  650000 600000 0  700000 600000 0  750000 600000 0  800000 600000 0  850000 600000 0  900000 600000 0  950000 600000 0  1000000 600000 0  0 650000 0  50000 650000 0  100000 650000 0  150000 650000 0  200000 650000 0  250000 650000 0  300000 650000 0  350000 650000 0  400000 650000 0  450000 650000 0  500000 650000 0  550000 650000 0  600000 650000 0  650000 650000 0  700000 650000 0  750000 650000 0  800000 650000 0  850000 650000 0  900000 650000 0  950000 650000 0  1000000 650000 0  0 700000 0  50000 700000 0  100000 700000 0  150000 700000 0  200000 700000 0  250000 700000 0  300000 700000 0  350000 700000 0  400000 700000 0  450000 700000 0  500000 700000 0  550000 700000 0  600000 700000 0  650000 700000 0  700000 700000 0  750000 700000 0  800000 700000 0  850000 700000 0  900000 700000 0  950000 700000 0  1000000 700000 0  0 750000 0  50000 750000 0  100000 750000 0  150000 750000 0  200000 750000 0  250000 750000 0  300000 750000 0  350000 750000 0  400000 750000 0  450000 750000 0  500000 750000 0  550000 750000 0  600000 750000 0  650000 750000 0  700000 750000 0  750000 750000 0  800000 750000 0  850000 750000 0  900000 750000 0  950000 750000 0  1000000 750000 0  0 800000 0  50000 800000 0  100000 800000 0  150000 800000 0  200000 800000 0  250000 800000 0  300000 800000 0  350000 800000 0  400000 800000 0  450000 800000 0  500000 800000 0  550000 800000 0  600000 800000 0  650000 800000 0  700000 800000 0  750000 800000 0  800000 800000 0  850000 800000 0  900000 800000 0  950000 800000 0  1000000 800000 0  0 850000 0  50000 850000 0  100000 850000 0  150000 850000 0  200000 850000 0  250000 850000 0  300000 850000 0  350000 850000 0  400000 850000 0  450000 850000 0  500000 850000 0  550000 850000 0  600000 850000 0  650000 850000 0  700000 850000 0  750000 850000 0  800000 850000 0  850000 850000 0  900000 850000 0  950000 850000 0  1000000 850000 0  0 900000 0  50000 900000 0  100000 900000 0  150000 900000 0  200000 900000 0  250000 900000 0  300000 900000 0  350000 900000 0  400000 900000 0  450000 900000 0  500000 900000 0  550000 900000 0  600000 900000 0  650000 900000 0  700000 900000 0  750000 900000 0  800000 900000 0  850000 900000 0  900000 900000 0  950000 900000 0  1000000 900000 0  0 950000 0  50000 950000 0  100000 950000 0  150000 950000 0  200000 950000 0  250000 950000 0  300000 950000 0  350000 950000 0  400000 950000 0  450000 950000 0  500000 950000 0  550000 950000 0  600000 950000 0  650000 950000 0  700000 950000 0  750000 950000 0  800000 950000 0  850000 950000 0  900000 950000 0  950000 950000 0  1000000 950000 0  0 1000000 0  50000 1000000 0  100000 1000000 0  150000 1000000 0  200000 1000000 0  250000 1000000 0  300000 1000000 0  350000 1000000 0  400000 1000000 0  450000 1000000 0  500000 1000000 0  550000 1000000 0  600000 1000000 0  650000 1000000 0  700000 1000000 0  750000 1000000 0  800000 1000000 0  850000 1000000 0  900000 1000000 0  950000 1000000 0  1000000 1000000 0  0 1050000 0  50000 1050000 0  100000 1050000 0  150000 1050000 0  200000 1050000 0  250000 1050000 0  300000 1050000 0  350000 1050000 0  400000 1050000 0  450000 1050000 0  500000 1050000 0  550000 1050000 0  600000 1050000 0  650000 1050000 0  700000 1050000 0  750000 1050000 0  800000 1050000 0  850000 1050000 0  900000 1050000 0  950000 1050000 0  1000000 1050000 0  0 1100000 0  50000 1100000 0  100000 1100000 0  150000 1100000 0  200000 1100000 0  250000 1100000 0  300000 1100000 0  350000 1100000 0  400000 1100000 0  450000 1100000 0  500000 1100000 0  550000 1100000 0  600000 1100000 0  650000 1100000 0  700000 1100000 0  750000 1100000 0  800000 1100000 0  850000 1100000 0  900000 1100000 0  950000 1100000 0  1000000 1100000 0  0 1150000 0  50000 1150000 0  100000 1150000 0  150000 1150000 0  200000 1150000 0  250000 1150000 0  300000 1150000 0  350000 1150000 0  400000 1150000 0  450000 1150000 0  500000 1150000 0  550000 1150000 0  600000 1150000 0  650000 1150000 0  700000 1150000 0  750000 1150000 0  800000 1150000 0  850000 1150000 0  900000 1150000 0  950000 1150000 0  1000000 1150000 0  0 1200000 0  50000 1200000 0  100000 1200000 0  150000 1200000 0  200000 1200000 0  250000 1200000 0  300000 1200000 0  350000 1200000 0  400000 1200000 0  450000 1200000 0  500000 1200000 0  550000 1200000 0  600000 1200000 0  650000 1200000 0  700000 1200000 0  750000 1200000 0  800000 1200000 0  850000 1200000 0  900000 1200000 0  950000 1200000 0  1000000 1200000 0  0 1250000 0  50000 1250000 0  100000 1250000 0  150000 1250000 0  200000 1250000 0  250000 1250000 0  300000 1250000 0  350000 1250000 0  400000 1250000 0  450000 1250000 0  500000 1250000 0  550000 1250000 0  600000 1250000 0  650000 1250000 0  700000 1250000 0  750000 1250000 0  800000 1250000 0  850000 1250000 0  900000 1250000 0  950000 1250000 0  1000000 1250000 0  0 1300000 0  50000 1300000 0  100000 1300000 0  150000 1300000 0  200000 1300000 0  250000 1300000 0  300000 1300000 0  350000 1300000 0  400000 1300000 0  450000 1300000 0  500000 1300000 0  550000 1300000 0  600000 1300000 0  650000 1300000 0  700000 1300000 0  750000 1300000 0  800000 1300000 0  850000 1300000 0  900000 1300000 0  950000 1300000 0  1000000 1300000 0  0 1350000 0  50000 1350000 0  100000 1350000 0  150000 1350000 0  200000 1350000 0  250000 1350000 0  300000 1350000 0  350000 1350000 0  400000 1350000 0  450000 1350000 0  500000 1350000 0  550000 1350000 0  600000 1350000 0  650000 1350000 0  700000 135
[...]
<PointData  Scalars="f_10483"> 
<DataArray  type="Float64"  Name="f_10483"  format="ascii">-2.4996166592680785e-01  -8.8166006409267778e-02  -4.3099688534031511e-02  -2.5056272504413522e-02  -1.6444005362543361e-02  -1.1378656055664642e-02  -7.8629967729532922e-03  -5.1147578450672689e-03  -2.7734111904872214e-03  -6.4630285601660045e-04  1.3869858410104207e-03  3.4187126695334742e-03  5.5403904820147711e-03  7.8695318903498589e-03  1.0590385685410621e-02  1.4035533168532526e-02  1.8886130522264150e-02  2.6856802271782609e-02  4.4175608402931416e-02  1.0079738296355471e-01  2.5022225293517986e-01  -1.2426107422934990e-01  -8.1612113412814880e-02  -4.6991767696326348e-02  -2.8970361874146023e-02  -1.9189527990047538e-02  -1.3169798892233547e-02  -9.0157226312876215e-03  -5.8422804196650146e-03  -3.2029187613778209e-03  -8.4819988539556850e-04  1.3813667888614132e-03  3.6095583169519739e-03  5.9600547817368517e-03  8.5922118147333821e-03  1.1756268408029362e-02  1.5906297828039203e-02  2.1977892989985596e-02  3.2143736394494672e-02  5.1667948452359114e-02  8.9379804597917792e-02  1.3377297227827559e-01  -6.0100165448424912e-02  -5.3477405974066680e-02  -4.0535498471625894e-02  -2.9002887599860319e-02  -2.0479320485289068e-02  -1.4434895433532541e-02  -9.9927551150997360e-03  -6.5223118458683062e-03  -3.6261518573667511e-03  -1.0505944923387340e-03  1.3808413605666289e-03  3.8115806855801748e-03  6.3854951169647605e-03  9.2810819986757272e-03  1.2758812229809841e-02  1.7239355391516879e-02  2.3432039995635725e-02  3.2457314316853565e-02  4.5401458144257917e-02  5.9581311034440948e-02  6.1153302688535874e-02  -3.5097722617907438e-02  -3.5571379890746394e-02  -3.1396615469192771e-02  -2.4935098972137373e-02  -1.8906315237556696e-02  -1.3939407036873550e-02  -9.9141700241133206e-03  -6.5764489228606025e-03  -3.6954028682708836e-03  -1.0877605381606939e-03  1.3931360193306958e-03  3.8758078995003802e-03  6.4899682236538954e-03  9.3867152827915353e-03  1.2760154027092553e-02  1.6864472478058751e-02  2.1992456273208488e-02  2.8288012045624658e-02  3.5077566087715499e-02  3.9246263872641289e-02  3.6995088490336656e-02  -2.2905501539101775e-02  -2.4324996052707649e-02  -2.3366936633745294e-02  -2.0084145197047966e-02  -1.6228785299349621e-02  -1.2514166017850588e-02  -9.1671983033413257e-03  -6.1901535102832188e-03  -3.5023488239603055e-03  -1.0042975299173658e-03  1.4019947501902523e-03  3.8111821310211208e-03  6.3190250667671186e-03  9.0272007852363629e-03  1.2042374129404180e-02  1.5456358298419980e-02  1.9276375428580666e-02  2.3247206188094748e-02  2.6535327489020391e-02  2.7357087720798770e-02  2.5402806786540177e-02  -1.5793671101198031e-02  -1.7129421944400869e-02  -1.7308979758613587e-02  -1.5724696497137508e-02  -1.3339536101475102e-02  -1.0680669311770339e-02  -8.0350558626621719e-03  -5.5104033343611677e-03  -3.1188905908535185e-03  -8.2898201738136861e-04  1.4086059439067814e-03  3.6492872794102686e-03  5.9491479750899854e-03  8.3594263284574172e-03  1.0914331308235480e-02  1.3602636828476965e-02  1.6310021334286207e-02  1.8725199792640233e-02  2.0255746197688964e-02  1.9995263480438844e-02  1.8476428584149353e-02  -1.1182755472342279e-02  -1.2300586158995663e-02  -1.2852382753962211e-02  -1.2136197742857548e-02  -1.0674937380100965e-02  -8.8058364824804038e-03  -6.7679004825297300e-03  -4.6910304401577554e-03  -2.6311819941432476e-03  -6.0040536777833137e-04  1.4122907685429902e-03  3.4276015983171334e-03  5.4664380531521360e-03  7.5402222404811307e-03  9.6367086443491339e-03  1.1697124827019342e-02  1.3583053204315514e-02  1.5041661337734245e-02  1.5707545115471910e-02  1.5114273547867707e-02  1.3920933684895130e-02  -8.0115558640182737e-03  -8.9274785834440439e-03  -9.5670353963743047e-03  -9.2915063075841801e-03  -8.3954472927938659e-03  -7.0829823411988728e-03  -5.5281268736047957e-03  -3.8477467838692616e-03  -2.1107716667313286e-03  -3.5218874019010639e-04  1.4134486871604144e-03  3.1809604874813947e-03  4.9450899136276412e-03  6.6908642112982345e-03  8.3819460623885175e-03  9.9461828726563357e-03  1.1260696263968304e-02  1.2144902536024186e-02  1.2382401356913547e-02  1.1720984424094388e-02  1.0770703195060925e-02  -5.7565729206286694e-03  -6.5064711190260319e-03  -7.1277103706055885e-03  -7.0748824283588842e-03  -6.5228918457166689e-03  -5.5931592550654639e-03  -4.4060459784499460e-03  -3.0556568611874889e-03  -1.6087405802707145e-03  -1.0954131167794710e-04  1.4127238199574794e-03  2.9361472455717436e-03  4.4386275952104778e-03  5.8902612864048321e-03  7.2453481751503868e-03  8.4346427747076808e-03  9.3604688609151727e-03  9.8997141551050664e-03  9.9248952195799909e-03  9.2917873786167050e-03  8.5260459120321506e-03  -4.1243024360899435e-03  -4.7419897372926109e-03  -5.3086100100063760e-03  -5.3663793215622145e-03  -5.0248469087599782e-03  -4.3562422306746796e-03  -3.4426187721510095e-03  -2.3564409341360918e-03  -1.1565829374584242e-03  1.1120183133884960e-04  1.4107915731630504e-03  2.7109847911755171e-03  3.9803785474410228e-03  5.1822093530489053e-03  6.2695656678779460e-03  7.1819153740366338e-03  7.8448208696435678e-03  8.1752338315934283e-03  8.0974691518060759e-03  7.5243701214612480e-03  6.8997384123394498e-03  -2.9359237155164889e-03  -3.4502565308963417e-03  -3.9548898555109117e-03  -4.0652417517310739e-03  -3.8533841964940372e-03  -3.3626493723222777e-03  -2.6493546256998821e-03  -1.7687216688900766e-03  -7.7078148053217666e-04  3.0092563138018946e-04  1.4081984788018394e-03  2.5157077737164965e-03  3.5879620089014179e-03  4.5862712420352046e-03  5.4662942145728864e-03  6.1769858075678878e-03  6.6620760704001669e-03  6.8649981299672641e-03  6.7402367864249661e-03  6.2321121536182446e-03  5.7151598623370135e-03  -2.0766904099304385e-03  -2.5120573770667561e-03  -2.9597896301222482e-03  -3.0930306249693572e-03  -2.9614328760634041e-03  -2.5913874647630689e-03  -2.0224459565030229e-03  -1.2971953629133330e-03  -4.5785906861731612e-04  4.5554560371146988e-04  1.4053200249332072e-03  2.3551235894655850e-03  3.2685017497322134e-03  4.1074245012620563e-03  4.8313658860011655e-03  5.3975152086750125e-03  5.7627454850899540e-03  5.8875428792002030e-03  5.7440652763750223e-03  5.2945026564791510e-03  4.8585372829471288e-03  -1.4709895578118156e-03  -1.8482768274652151e-03  -2.2495485633282370e-03  -2.3911619995305583e-03  -2.3089779591995477e-03  -2.0195221244582811e-03  -1.5516962394659002e-03  -9.3934865122056305e-04  -2.1860665262503709e-04  5.7401662190241184e-04  1.4023767347938546e-03  2.2306748654274439e-03  3.0230396352263697e-03  3.7431206250175017e-03  4.3541030190254156e-03  4.8195358433345305e-03  5.1053026987327010e-03  5.1826225259367928e-03  5.0340069432425021e-03  4.6318164751727254e-03  4.2547509657916314e-03  -1.0690020383520415e-03  -1.4065091365841353e-03  -1.7739445192623301e-03  -1.9176480784644763e-03  -1.8649685315815132e-03  -1.6268698262376961e-03  -1.2257852338869561e-03  -6.8992743661538860e-04  -5.1158377824007385e-05  6.5680897389612655e-04  1.3994720514902135e-03  2.1420578107475886e-03  2.8497517469723769e-03  3.4879355278806816e-03  4.0227322366947977e-03  4.4221140307818627e-03  4.6577433053132137e-03  4.7072990458286489e-03  4.5592237206037419e-03  4.1913594003788138e-03  3.8542608728604692e-03  -8.3919864339203711e-04  -1.1534545801605860e-03  -1.5004658631789843e-03  -1.6443924727243065e-03  -1.6075755142389257e-03  -1.3981964801178565e-03  -1.0352125196226700e-03  -5.4369985183730970e-04  4.6975437101551490e-05  7.0486431347545645e-04  1.3966310563260007e-03  2.0883491773042643e-03  2.7460736147768322e-03  3.3364173085755136e-03  3.8273600442527917e-03  4.1894665669718195e-03  4.3976123152580249e-03  4.4329038503211722e-03  4.2868755736484698e-03  3.9396990552474902e-03  3.6257155089508249e-03  -7.6409371762782910e-04  -1.0706074145177137e-03  -1.4108421617795065e-03  -1.5553079977143822e-03  -1.5239469032080463e-03  -1.3241812819895539e-03  -9.7385276200508434e-04  -4.9704437901603902e-04  7.7679261219908551e-05  7.1894925586703294e-04  1.3938324990170326e-03  2.0687157421677310e-03  2.7099857368170404e-03  3.2847093770560698e-03  3.7615177600484849e-03  4.1118462800360705e-03  4.3116119012566881e-03  4.3429729957640629e-03  4.1985071598291861e-03  3.8582724125670381e-03  3.5517587156771654e-03  -8.3805051090185762e-04  -1.1520340571984594e-03  -1.4992105755990159e-03  -1.6452388522717849e-03  -1.6099473172096234e-03  -1.4018015689256961e-03  -1.0396950462097999e-03  -5.4875231053604426e-04  4.1591383259404677e-05  6.9931582072978095e-04  1.3910339417072680e-03  2.0828006845585671e-03  2.7406895609346539e-03  3.3313648498765965e-03  3.8228775176654553e-03  4.1858614781637958e-03  4.3952405122871744e-03  4.4320574707735474e-03  4.2881308612282990e-03  3.9411195782095071e-03  3.6268636414409200e-03  -1.0665958748128945e-03  -1.4036944023309570e-03  -1.7715587225552989e-03  -1.9196340477801120e-03  -1.8700783072658368e-03  -1.6344490327370258e-03  -1.2350672386533953e-03  -7.0027052984318421e-04  -6.2086748938317506e-05  6.4560718728410541e-04  1.3881929465405839e-03  2.1308560241354488e-03  2.8388233758578868e-03  3.4775924346526505e-03  4.0134502319280861e-03  4.4145348242822808e-03  4.6526335296285717e-03  4.7053130765126287e-03  4.5616095173106616e-03  4.1941741346319715e-03  3.8566670363996032e-03  -1.4670859677461295e-03  -1.8441514771266301e-03  -2.2463419451954920e-03  -2.3949575278896648e-03  -2.3176377006870344e-03  -2.0318708452919214e-03  -1.5664380209868887e-03  -9.5545562698352230e-04  -2.3537463719634175e-04  5.5699013259981843e-04  1.3852882632324093e-03  2.2136483761247315e-03  3.0062716506547922e-03  3.7270136492541504e-03  4.3393612375039444e-03  4.8071871225003693e-03  5.0966429572447272e-03  5.1788269975771963e-03  5.0372135613748750e-03  4.6359418255109653e-03  4.2586545558570277e-03  -2.0708722849045987e-03  -2.5068376584356047e-03  -2.9564002783300418e-03  -3.0998778811552686e-03  -2.9750804870469728e-03  -2.6098502106359934e-03  -2.0437008879673046e-03  -1.3197595032337624e-03  -4.8083675170871492e-04  4.3254140855461011e-04  1.3823449730857769e-03  2.3321193943085616e-03  3.2455240666404476e-03  4.0848603609410289e-03  4.8101109545361353e-03  5.3790524628012882e-03  5.7490978741057087e-03  5.8806956230136485e-03  5.7474546281666167e-03  5.2997223751098527e-03  4.8643554079725992e-03  -2.9274948642979367e-03  -3.4444471555774461e-03  -3.9525717883822521e-03  -4.0773331319249135e-03  -3.8744110723607865e-03  -3.3893208095339463e-03  -2.6786292165458764e-03  -1.7986062440153361e-03  -8.0029701088753528e-04  2.7195722429330704e-04  1.3794665192064695e-03  2.4867393666293696e-03  3.5584464785455181e-03  4.5563866669092205e-03  5.4370196237259723e-03  6.1503143703551645e-03  6.6410491945323533e-03  6.8529067497724479e-03  6.7425548535528746e-03  6.2379215289365478e-03  5.7235887135550934e-03  -4.1120734143038368e-03  -4.7367051234231457e-03  -5.3098041537655120e-03  -5.3875688335540198e-03  -5.0571558716090139e-03  -4.3942503760099946e-03  -3.4819006698607303e-03  -2.3945443550409803e-03  -1.1927135494406544e-03  7.6680206819911123e-05  1.3768734248305343e-03  2.6764631666562526e-03  3.9442479354581715e-03  5.1441059321432172e-03  6.2302837701671450e-03  7.1439072287000074e-03  7.8125119067931192e-03  8.1540443196003159e-03  8.0962750080458869e-03  7.5296547353299621e-03  6.9119674341246900e-03  -5.7383809139995951e-03  -6.5041223805803253e-03  -7.1372302215408894e-03  -7.1120491570687075e-03  -6.5728038628868370e-03  -5.6469777766908359e-03  -4.4576831771463874e-03  -3.1025962884126484e-03  -1.6509625972277136e-03  -1.4848224759505418e-04  1.3749411780170297e-03  2.8972063096543324e-03  4.3964055782527867e-03  5.8433218591787033e-03  7.1937109764526773e-03  8.3808242530806557e-03  9.3105568437432187e-03  9.8625474263935049e-03  9.9153753686432727e-03  9.2941361170614193e-03  8.5442379186605830e-03  -7.9830381970290316e-03  -8.9333194260571482e-03  -9.5947363588741053e-03  -9.3572375379908299e-03  -8.4730312659475372e-03  -7.1585178746519477e-03  -5.5942810644011368e-03  -3.9031992133257130e-03  -2.1574249156664014e-03  -3.9329548952713692e-04  1.3742163107913900e-03  3.1398537381440474e-03  4.8984366646919230e-03  6.6354117818407552e-03  8.3157918715906932e-03  9.8706473392012467e-03  1.1183112290812426e-02  1.2079171305615281e-02  1.2354700394411675e-02  1.1715143581479775e-02  1.0799220862049376e-02  -1.1133268686859366e-02  -1.2326608549825393e-02  -1.2919880117429354e-02  -1.2253996339703000e-02  -1.0795388206303512e-02  -8.9094598290299087e-03  -6.8490436463810285e-03  -4.7525572425306381e-03  -2.6787730552142786e-03  -6.3993660038691382e-04  1.3753742293846217e-03  3.3880703657082466e-03  5.4188469920804505e-03  7.4786954381071448e-03  9.5555654804961882e-03  1.1593501480467562e-02  1.3462602378110228e-02  1.4923862740886116e-02  1.5640047752002402e-02  1.5088251157036056e-02  1.3970420470377134e-02  -1.5688763586101041e-02  -1.7207598482383318e-02  -1.7468081199637484e-02  -1.5937534794608917e-02  -1.3522356336283289e-02  -1.0814971830503445e-02  -8.1266663102870507e-03  -5.5717613305282469e-03  -3.1614829771741170e-03  -8.6162228150214845e-04  1.3790590539988193e-03  3.6166470152893043e-03  5.9065555887689034e-03  8.2980683322893319e-03  1.0822720860609094e-02  1.3468334309741800e-02  1.6127201099475012e-02  1.8512361495165285e-02  2.0096644756661373e-02  1.9917086942453820e-02  1.8581336099245307e-02  -2.2615141788464344e-02  -2.4569422722716443e-02  -2.3747662490951733e-02  -2.0459541190059764e-02  -1.6488710430584697e-02  -1.2668693300459444e-02  -9.2547091314711481e-03  -6.2395357873231694e-03  -3.5313600688669823e-03  -1.0235171331283326e-03  1.3856702477001569e-03  3.7919625278099818e-03  6.2900138218599765e-03  8.9778185081955137e-03  1.1954863301273011e-02  1.5301831015809302e-02  1.9016450297342322e-02  2.2871810195078539e-02  2.6154601631808900e-02  2.7112661050786049e-02  2.5693166537176355e-02  -3.4207423492207199e-02  -3.6458598874509709e-02  -3.2289901089617851e-02  -2.5500347047579232e-02  -1.9204791275212695e-02  -1.4076807480102458e-02  -9.9724890291648296e-03  -6.5990502848836700e-03  -3.7023032257586879e-03  -1.0881429016123176e-03  1.3945289785550279e-03  3.8754255360485624e-03  6.4830678661655138e-03  9.3641139207675875e-03  1.2701835022039842e-02  1.6727072034828209e-02  2.1693980235549772e-02  2.7722763970178269e-02  3.4184280467283501e-02  3.8359044888871145e-02  3.7885387616035493e-02  -5.8365637690298219e-02  -5.6793646036224096e-02  -4.2613793146115103e-02  -2.9669649318785716e-02  -2.0644374997626752e-02  -1.4451690393550378e-02  -9.9711472318736553e-03  -6.4934170007602500e-03  -3.5978301190628861e-03  -1.0239156876858070e-03  1.4068236373252403e-03  3.8382594902328345e-03  6.4138168552680969e-03  9.3099768437826212e-03  1.2780420113034565e-02  1.7222560431497114e-02  2.3266985483295512e-02  3.1790552597923363e-02  4.3323163469757515e-02  5.6265070972266108e-02  6.2887830446654511e-02  -1.3098530727980981e-01  -8.6592139599578011e-02  -4.8880283454154676e-02  -2.9356071396386581e-02  -1.9190227991946085e-02  -1.3118632830048623e-02  -8.9686034100733125e-03  -5.8045468168013842e-03  -3.1723897838204264e-03  -8.2189331904439103e-04  1.4062982090432326e-03  3.6358648833028982e-03  5.9905837592936790e-03  8.6299454175961417e-03  1.1803387629242398e-02  1.5957463890222050e-02  2.1977192988084281e-02  3.1758026872249788e-02  4.9779432694522459e-02  8.4399778411136619e-02  1.2704873922776447e-01  -2.4743458793666059e-01  -9.8009717965126114e-02  -4.1387943404672570e-02  -2.4069137273642814e-02  -1.6098465524203777e-02  -1.1247868170526450e-02  -7.8027206874423426e-03  -5.0818668924078169e-03  -2.7527254840895746e-03  -6.3104767161792179e-04  1.4006791569020525e-03  3.4339678539319295e-03  5.5610761884120887e-03  7.9024228430088460e-03  1.0650661770920909e-02  1.4166321053669637e-02  1.9231670360602224e-02  2.7843937502548745e-02  4.5887353532276388e-02  9.0953671407675019e-02  2.5274933092538826e-01  </DataArray> 
</PointData> 
</Piece>
</UnstructuredGrid>
</VTKFile>