<?xml version="1.0"?>
<VTKFile type="UnstructuredGrid"  version="0.1"  >
<UnstructuredGrid>
<Piece  NumberOfPoints="651" NumberOfCells="1200">
<Points>
<DataArray  type="Float64"  NumberOfComponents="3"  format="ascii">0 0 0  50000 0 0  100000 0 0  150000 0 0  200000 0 0  250000 0 0  300000 0 0  350000 0 0  400000 0 0  450000 0 0  500000 0 0  550000 0 0  600000 0 0  650000 0 0  700000 0 0  750000 0 0  800000 0 0  850000 0 0  900000 0 0  950000 0 0  1000000 0 0  0 50000 0  50000 50000 0  100000 50000 0  150000 50000 0  200000 50000 0  250000 50000 0  300000 50000 0  350000 50000 0  400000 50000 0  450000 50000 0  500000 50000 0  550000 50000 0  600000 50000 0  650000 50000 0  700000 50000 0  750000 50000 0  800000 50000 0  850000 50000 0  900000 50000 0  950000 50000 0  1000000 50000 0  0 100000 0  50000 100000 0  100000 100000 0  150000 100000 0  200000 100000 0  250000 100000 0  300000 100000 0  350000 100000 0  400000 100000 0  450000 100000 0  500000 100000 0  550000 100000 0  600000 100000 0  650000 100000 0  700000 100000 0  750000 100000 0  800000 100000 0  850000 100000 0  900000 100000 0  950000 100000 0  1000000 100000 0  0 150000 0  50000 150000 0  100000 150000 0  150000 150000 0  200000 150000 0  250000 150000 0  300000 150000 0  350000 150000 0  400000 150000 0  450000 150000 0  500000 150000 0  550000 150000 0  600000 150000 0  650000 150000 0  700000 150000 0  750000 150000 0  800000 150000 0  850000 150000 0  900000 150000 0  950000 150000 0  1000000 150000 0  0 200000 0  50000 200000 0  100000 200000 0  150000 200000 0  200000 200000 0  250000 200000 0  300000 200000 0  350000 200000 0  400000 200000 0  450000 200000 0  500000 200000 0  550000 200000 0  600000 200000 0  650000 200000 0  700000 200000 0  750000 200000 0  800000 200000 0  850000 200000 0  900000 200000 0  950000 200000 0  1000000 200000 0  0 250000 0  50000 250000 0  100000 250000 0  150000 250000 0  200000 250000 0  250000 250000 0  300000 250000 0  350000 250000 0  400000 250000 0  450000 250000 0  500000 250000 0  550000 250000 0  600000 250000 0  650000 250000 0  700000 250000 0  750000 250000 0  800000 250000 0  850000 250000 0  900000 250000 0  950000 250000 0  1000000 250000 0  0 300000 0  50000 300000 0  100000 300000 0  150000 300000 0  200000 300000 0  250000 300000 0  300000 300000 0  350000 300000 0  400000 300000 0  450000 300000 0  500000 300000 0  550000 300000 0  600000 300000 0  650000 300000 0  700000 300000 0  750000 300000 0  800000 300000 0  850000 300000 0  900000 300000 0  950000 300000 0  1000000 300000 0  0 350000 0  50000 350000 0  100000 350000 0  150000 350000 0  200000 350000 0  250000 350000 0  300000 350000 0  350000 350000 0  400000 350000 0  450000 350000 0  500000 350000 0  550000 350000 0  600000 350000 0  650000 350000 0  700000 350000 0  750000 350000 0  800000 350000 0  850000 350000 0  900000 350000 0  950000 350000 0  1000000 350000 0  0 400000 0  50000 400000 0  100000 400000 0  150000 400000 0  200000 400000 0  250000 400000 0  300000 400000 0  350000 400000 0  400000 400000 0  450000 400000 0  500000 400000 0  550000 400000 0  600000 400000 0  650000 400000 0  700000 400000 0  750000 400000 0  800000 400000 0  850000 400000 0  900000 400000 0  950000 400000 0  1000000 400000 0  0 450000 0  50000 450000 0  100000 450000 0  150000 450000 0  200000 450000 0  250000 450000 0  300000 450000 0  350000 450000 0  400000 450000 0  450000 450000 0  500000 450000 0  550000 450000 0  600000 450000 0  650000 450000 0  700000 450000 0  750000 450000 0  800000 450000 0  850000 450000 0  900000 450000 0  950000 450000 0  1000000 450000 0  0 500000 0  50000 500000 0  100000 500000 0  150000 500000 0  200000 500000 0  250000 500000 0  300000 500000 0  350000 500000 0  400000 500000 0  450000 500000 0  500000 500000 0  550000 500000 0  600000 500000 0  650000 500000 0  700000 500000 0  750000 500000 0  800000 500000 0  850000 500000 0  900000 500000 0  950000 500000 0  1000000 500000 0  0 550000 0  50000 550000 0  100000 550000 0  150000 550000 0  200000 550000 0  250000 550000 0  300000 550000 0  350000 550000 0  400000 550000 0  450000 550000 0  500000 550000 0  550000 550000 0  600000 550000 0  650000 550000 0  700000 550000 0  750000 550000 0  800000 550000 0  850000 550000 0  900000 550000 0  950000 550000 0  1000000 550000 0  0 600000 0  50000 600000 0  100000 600000 0  150000 600000 0  200000 600000 0  250000 600000 0  300000 600000 0  350000 600000 0  400000 600000 0  450000 600000 0  500000 600000 0  550000 600000 0  600000 600000 0  650000 600000 0  700000 600000 0  750000 600000 0  800000 600000 0  850000 600000 0  900000 600000 0  950000 600000 0  1000000 600000 0  0 650000 0  50000 650000 0  100000 650000 0  150000 650000 0  200000 650000 0  250000 650000 0  300000 650000 0  350000 650000 0  400000 650000 0  450000 650000 0  500000 650000 0  550000 650000 0  600000 650000 0  650000 650000 0  700000 650000 0  750000 650000 0  800000 650000 0  850000 650000 0  900000 650000 0  950000 650000 0  1000000 650000 0  0 700000 0  50000 700000 0  100000 700000 0  150000 700000 0  200000 700000 0  250000 700000 0  300000 700000 0  350000 700000 0  400000 700000 0  450000 700000 0  500000 700000 0  550000 700000 0  600000 700000 0  650000 700000 0  700000 700000 0  750000 700000 0  800000 700000 0  850000 700000 0  900000 700000 0  950000 700000 0  1000000 700000 0  0 750000 0  50000 750000 0  100000 750000 0  150000 750000 0  200000 750000 0  250000 750000 0  300000 750000 0  350000 750000 0  400000 750000 0  450000 750000 0  500000 750000 0  550000 750000 0  600000 750000 0  650000 750000 0  700000 750000 0  750000 750000 0  800000 750000 0  850000 750000 0  900000 750000 0  950000 750000 0  1000000 750000 0  0 800000 0  50000 800000 0  100000 800000 0  150000 800000 0  200000 800000 0  250000 800000 0  300000 800000 0  350000 800000 0  400000 800000 0  450000 800000 0  500000 800000 0  550000 800000 0  600000 800000 0  650000 800000 0  700000 800000 0  750000 800000 0  800000 800000 0  850000 800000 0  900000 800000 0  950000 800000 0  1000000 800000 0  0 850000 0  50000 850000 0  100000 850000 0  150000 850000 0  200000 850000 0  250000 850000 0  300000 850000 0  350000 850000 0  400000 850000 0  450000 850000 0  500000 850000 0  550000 850000 0  600000 850000 0  650000 850000 0  700000 850000 0  750000 850000 0  800000 850000 0  850000 850000 0  900000 850000 0  950000 850000 0  1000000 850000 0  0 900000 0  50000 900000 0  100000 900000 0  150000 900000 0  200000 900000 0  250000 900000 0  300000 900000 0  350000 900000 0  400000 900000 0  450000 900000 0  500000 900000 0  550000 900000 0  600000 900000 0  650000 900000 0  700000 900000 0  750000 900000 0  800000 900000 0  850000 900000 0  900000 900000 0  950000 900000 0  1000000 900000 0  0 950000 0  50000 950000 0  100000 950000 0  150000 950000 0  200000 950000 0  250000 950000 0  300000 950000 0  350000 950000 0  400000 950000 0  450000 950000 0  500000 950000 0  550000 950000 0  600000 950000 0  650000 950000 0  700000 950000 0  750000 950000 0  800000 950000 0  850000 950000 0  900000 950000 0  950000 950000 0  1000000 950000 0  0 1000000 0  50000 1000000 0  100000 1000000 0  150000 1000000 0  200000 1000000 0  250000 1000000 0  300000 1000000 0  350000 1000000 0  400000 1000000 0  450000 1000000 0  500000 1000000 0  550000 1000000 0  600000 1000000 0  650000 1000000 0  700000 1000000 0  750000 1000000 0  800000 1000000 0  850000 1000000 0  900000 1000000 0  950000 1000000 0  1000000 1000000 0  0 1050000 0  50000 1050000 0  100000 1050000 0  150000 1050000 0  200000 1050000 0  250000 1050000 0  300000 1050000 0  350000 1050000 0  400000 1050000 0  450000 1050000 0  500000 1050000 0  550000 1050000 0  600000 1050000 0  650000 1050000 0  700000 1050000 0  750000 1050000 0  800000 1050000 0  850000 1050000 0  900000 1050000 0  950000 1050000 0  1000000 1050000 0  0 1100000 0  50000 1100000 0  100000 1100000 0  150000 1100000 0  200000 1100000 0  250000 1100000 0  300000 1100000 0  350000 1100000 0  400000 1100000 0  450000 1100000 0  500000 1100000 0  550000 1100000 0  600000 1100000 0  650000 1100000 0  700000 1100000 0  750000 1100000 0  800000 1100000 0  850000 1100000 0  900000 1100000 0  950000 1100000 0  1000000 1100000 0  0 1150000 0  50000 1150000 0  100000 1150000 0  150000 1150000 0  200000 1150000 0  250000 1150000 0  300000 1150000 0  350000 1150000 0  400000 1150000 0  450000 1150000 0  500000 1150000 0  550000 1150000 0  600000 1150000 0  650000 1150000 0  700000 1150000 0  750000 1150000 0  800000 1150000 0  850000 1150000 0  900000 1150000 0  950000 1150000 0  1000000 1150000 0  0 1200000 0  50000 1200000 0  100000 1200000 0  150000 1200000 0  200000 1200000 0  250000 1200000 0  300000 1200000 0  350000 1200000 0  400000 1200000 0  450000 1200000 0  500000 1200000 0  550000 1200000 0  600000 1200000 0  650000 1200000 0  700000 1200000 0  750000 1200000 0  800000 1200000 0  850000 1200000 0  900000 1200000 0  950000 1200000 0  1000000 1200000 0  0 1250000 0  50000 1250000 0  100000 1250000 0  150000 1250000 0  200000 1250000 0  250000 1250000 0  300000 1250000 0  350000 1250000 0  400000 1250000 0  450000 1250000 0  500000 1250000 0  550000 1250000 0  600000 1250000 0  650000 1250000 0  700000 1250000 0  750000 1250000 0  800000 1250000 0  850000 1250000 0  900000 1250000 0  950000 1250000 0  1000000 1250000 0  0 1300000 0  50000 1300000 0  100000 1300000 0  150000 1300000 0  200000 1300000 0  250000 1300000 0  300000 1300000 0  350000 1300000 0  400000 1300000 0  450000 1300000 0  500000 1300000 0  550000 1300000 0  600000 1300000 0  650000 1300000 0  700000 1300000 0  750000 1300000 0  800000 1300000 0  850000 1300000 0  900000 1300000 0  950000 1300000 0  1000000 1300000 0  0 1350000 0  50000 1350000 0  100000 1350000 0  150000 1350000 0  200000 1350000 0  250000 1350000 0  300000 1350000 0  350000 1350000 0  400000 1350000 0  450000 1350000 0  500000 1350000 0  550000 1350000 0  600000 1350000 0  650000 1350000 0  700000 135
[...]
<PointData  Scalars="f_10483"> 
<DataArray  type="Float64"  Name="f_10483"  format="ascii">-4.8979285144515766e-01  -1.6233054447079751e-01  -7.5864138948394513e-02  -4.1882719332934366e-02  -2.6059529856838397e-02  -1.7107040825701168e-02  -1.1209908244599805e-02  -6.8566510632460959e-03  -3.3360984586660444e-03  -2.5945639083235561e-04  2.6212914886277472e-03  5.4986430863290317e-03  8.5636472968306006e-03  1.2058777448624129e-02  1.6357366439043019e-02  2.2120076020095660e-02  3.0668833091515343e-02  4.5232573484958565e-02  7.7557123273404666e-02  1.8781842485652009e-01  4.9513708750159879e-01  -2.3533010429182794e-01  -1.5108185182348849e-01  -8.4969056125021758e-02  -5.0465449446954580e-02  -3.2100567312868207e-02  -2.1130157159234955e-02  -1.3866903698957088e-02  -8.5760963367561803e-03  -4.3725329297223019e-03  -7.5414756004143970e-04  2.6052702977725170e-03  5.9617051135766033e-03  9.5709052663529703e-03  1.3758618427726788e-02  1.9027750468824624e-02  2.6275051363531102e-02  3.7322175155779673e-02  5.6380313219385608e-02  9.3792659175074095e-02  1.6730176558335125e-01  2.5513875552032178e-01  -1.1040702953802353e-01  -9.8081579599139115e-02  -7.3473920331543194e-02  -5.1395578107239555e-02  -3.5334241715467118e-02  -2.4195938406171225e-02  -1.6255089403053140e-02  -1.0267015161088508e-02  -5.4425494220565456e-03  -1.2724081607356477e-03  2.6021464042144957e-03  6.4752546497615074e-03  1.0641932844433408e-02  1.5464809811534294e-02  2.1466061802602854e-02  2.9478847172959930e-02  4.0898002857155967e-02  5.7928321067213531e-02  8.2744602237018308e-02  1.1005045416114762e-01  1.1229284201586665e-01  -6.3289534187099747e-02  -6.4450061557431243e-02  -5.6464150912562010e-02  -4.4147890579686599e-02  -3.2850395088512348e-02  -2.3717778399172006e-02  -1.6494313120902087e-02  -1.0668295995839605e-02  -5.7750026530864734e-03  -1.4427567690954138e-03  2.6284706354256430e-03  6.7031910006446682e-03  1.1048237557771231e-02  1.5972271467631510e-02  2.1868040879701491e-02  2.9246086783168281e-02  3.8694806557559649e-02  5.0518106572209016e-02  6.3436643453888816e-02  7.1382219524457988e-02  6.6914803040179341e-02  -4.0474658896320945e-02  -4.3283971594857716e-02  -4.1454739167057365e-02  -3.5282008119435319e-02  -2.8139850455080859e-02  -2.1365059866082517e-02  -1.5380705897556541e-02  -1.0173793670760619e-02  -5.5717431674771906e-03  -1.3664430408920896e-03  2.6467104126247335e-03  6.6655610659548748e-03  1.0890111756049736e-02  1.5532153556461125e-02  2.0813825030613149e-02  2.6929679330624109e-02  3.3912264058474931e-02  4.1286985047582658e-02  4.7465714031195309e-02  4.9009711399971852e-02  4.5243981743581872e-02  -2.7112283621805039e-02  -2.9744738901786444e-02  -3.0140425542497257e-02  -2.7249339015463014e-02  -2.2917830399932199e-02  -1.8140548235769972e-02  -1.3458776262173774e-02  -9.0654811789179449e-03  -4.9699320995403671e-03  -1.0974165193752695e-03  2.6607892750761630e-03  6.4251240524783723e-03  1.0317352556818760e-02  1.4450068878318002e-02  1.8903320446551304e-02  2.3669833528365526e-02  2.8543623328122675e-02  3.2937998688447705e-02  3.5729146807576356e-02  3.5169480507675634e-02  3.2208223974886506e-02  -1.8389524623370880e-02  -2.0634865371243899e-02  -2.1801796383333891e-02  -2.0601609063011245e-02  -1.8044466087436806e-02  -1.4767228444779011e-02  -1.1221680262030725e-02  -7.6471099085574715e-03  -4.1401062619164809e-03  -7.1234999546143510e-04  2.6690165695928119e-03  6.0556046276428769e-03  9.4994632441704457e-03  1.3034347975839897e-02  1.6648316911185280e-02  2.0239484734944028e-02  2.3551908693368567e-02  2.6107805098368998e-02  2.7215494654905109e-02  2.5963787622062015e-02  2.3578311207579784e-02  -1.2352678375660507e-02  -1.4247293834763804e-02  -1.5638460983684484e-02  -1.5311567847032321e-02  -1.3846696648959995e-02  -1.1629919173815199e-02  -8.9911476483889169e-03  -6.1477784198599398e-03  -3.2239812298050707e-03  -2.7786134997154725e-04  2.6722027463558702e-03  5.6260567217119020e-03  8.5834118546245838e-03  1.1525117294548302e-02  1.4390513460612566e-02  1.7049290657061244e-02  1.9272379838709677e-02  2.0717577583513239e-02  2.0974703769074059e-02  1.9537423682247122e-02  1.7576352672858286e-02  -8.0428172127101905e-03  -9.6483442599157396e-03  -1.1050614936859283e-02  -1.1176591279910724e-02  -1.0381662604069178e-02  -8.8963494615812034e-03  -6.9498894333549950e-03  -4.7183556464319917e-03  -2.3238938287414510e-03  1.5557588066474707e-04  2.6715851781779765e-03  5.1899854616196438e-03  7.6762610676870688e-03  1.0080637250687608e-02  1.2322403494871705e-02  1.4274625524519599e-02  1.5754284468967181e-02  1.6527038854148118e-02  1.6350109422619906e-02  1.4921708853556278e-02  1.3283855283418741e-02  -4.9209628792378302e-03  -6.2921391744060612e-03  -7.6233255443943493e-03  -7.9819204021739001e-03  -7.5998809400379241e-03  -6.6150286141271998e-03  -5.1845578895256565e-03  -3.4446762886325348e-03  -1.5040808101982519e-03  5.5475565164036893e-04  2.6684852537050816e-03  4.7835112041221669e-03  6.8458499909331569e-03  8.7909199789671291e-03  1.0534012921673148e-02  1.1963229246944391e-02  1.2938479395010824e-02  1.3300743443340576e-02  1.2904903067146992e-02  1.1558711077314010e-02  1.0172164621374432e-02  -2.6547317499457670e-03  -3.8375740254475467e-03  -5.0714685658127144e-03  -5.5453540601941775e-03  -5.4191449513085778e-03  -4.7757768322020475e-03  -3.7237820852122389e-03  -2.3673433821617094e-03  -7.9938277940845332e-04  9.0060418750580868e-04  2.6639806509427943e-03  4.4279189043118687e-03  6.1292771344317980e-03  7.6984708367262514e-03  9.0544452555208054e-03  1.0102297310411346e-02  1.0735733688527668e-02  1.0845777094978882e-02  1.0344642051400817e-02  9.1021729164285203e-03  7.9125974022317119e-03  -1.0261237445093575e-03  -2.0603719697832945e-03  -3.1969329585540391e-03  -3.7236700235164541e-03  -3.7560831806697577e-03  -3.3444557834789524e-03  -2.5653278336489550e-03  -1.4992304027231671e-03  -2.2490161784787587e-04  1.1840015658467005e-03  2.6588215582555564e-03  4.1337776145568177e-03  5.5428664420540258e-03  6.8167818387798286e-03  7.8808650931451851e-03  8.6552112602918240e-03  9.0581600506303029e-03  9.0132548487634207e-03  8.4668196404495844e-03  7.3254528012063180e-03  6.2888096887128379e-03  1.1270225549803631e-04  -8.0872417251855394e-04  -1.8611616148008145e-03  -2.4087184088438271e-03  -2.5385029230252719e-03  -2.2813939413989584e-03  -1.6933574939760878e-03  -8.3842719610994576e-04  2.1586399931936243e-04  1.4019528790315146e-03  2.6534585205180991e-03  3.9049009135112313e-03  5.0906569334267168e-03  6.1439379653821166e-03  6.9965778425742347e-03  7.5803857241139687e-03  7.8307360134685679e-03  7.6918962640936291e-03  7.1306329620480328e-03  6.0755970597491001e-03  5.1537801136970389e-03  8.6222030970965465e-04  2.0204565469946890e-05  -9.6845183995793583e-04  -1.5220896154028532e-03  -1.7096170634613181e-03  -1.5507309950610955e-03  -1.0887316929208547e-03  -3.7692565467399477e-04  5.2506127687013365e-04  1.5546402210177266e-03  2.6481140951666862e-03  3.7414743645058091e-03  4.7706298880696172e-03  5.6716517668230684e-03  6.3816181981272736e-03  6.8405572630724967e-03  6.9948674485856470e-03  6.8014632584419230e-03  6.2391446629273453e-03  5.2491774169756752e-03  4.4074746190083747e-03  1.2878407094184701e-03  4.9314234320536464e-04  -4.5600101600259160e-04  -1.0107652169654472e-03  -1.2290887745477217e-03  -1.1249863208932685e-03  -7.3487275901191996e-04  -1.0604825008086322e-04  7.0651331075077253e-04  1.6433892454775661e-03  2.6428571326343997e-03  3.6422483377208095e-03  4.5788569232914078e-03  5.3908566981797053e-03  6.0186785508661751e-03  6.4072010521084239e-03  6.5090026002244351e-03  6.2877898324413756e-03  5.7288128043919018e-03  4.7791303057978492e-03  3.9847441048729846e-03  1.4266117541764053e-03  6.4775862737059126e-04  -2.8816248593238521e-04  -8.4415964549847101e-04  -1.0730072506667347e-03  -9.8720170100596014e-04  -6.2093531366919053e-04  -1.9608461154204615e-05  7.6329757471695081e-04  1.6694010002980602e-03  2.6376649479722607e-03  3.6059288956488129e-03  4.5120323212368635e-03  5.2949383571178127e-03  5.8962652096434184e-03  6.2625315969896331e-03  6.3483371466567171e-03  6.1194895414913610e-03  5.5634923819251475e-03  4.6275712686214589e-03  3.8487181418161531e-03  1.2905857911180119e-03  4.9619959019288351e-04  -4.5348290840024078e-04  -1.0124599364497227e-03  -1.2336727042355782e-03  -1.1318711561262181e-03  -7.4334865489358620e-04  -1.1552680221811457e-04  6.9647297266007180e-04  1.6330815582236828e-03  2.6324727633075949e-03  3.6319406504668672e-03  4.5688165852006352e-03  5.3813781460421281e-03  6.0102026549840870e-03  6.4003162168751078e-03  6.5044186705362737e-03  6.2860951129568143e-03  5.7313309119940356e-03  4.7821875527852215e-03  3.9874891865724427e-03  8.6785527697751433e-04  2.6152479010603944e-05  -9.6381476693959724e-04  -1.5261333624538565e-03  -1.7195375526007951e-03  -1.5652273670950906e-03  -1.1062883021602961e-03  -3.9632187086798026e-04  5.0470000787475702e-04  1.5338555314311289e-03  2.6272158007674736e-03  3.7206896749189733e-03  4.7502686190738601e-03  5.6522555506285880e-03  6.3640615888873077e-03  6.8260608910379987e-03  6.9849469594455019e-03  6.7974195113901870e-03  6.2437817359455817e-03  5.2551253305164617e-03  4.4131095862763878e-03  1.2154978228106096e-04  -8.0026716376956845e-04  -1.8553030660661113e-03  -2.4165663681112999e-03  -2.5554061174903743e-03  -2.3050558281446105e-03  -1.7212479466169710e-03  -8.6860806943844554e-04  1.8467296250494864e-04  1.3704289824120152e-03  2.6218713754020905e-03  3.8733770168914482e-03  5.0594658966116981e-03  6.1137570920527969e-03  6.9686873899323411e-03  7.5567238373672680e-03  7.8138328190025339e-03  7.6840483048251917e-03  7.1364915107821926e-03  6.0840540684976019e-03  5.1626276404797356e-03  -1.0134797927453002e-03  -2.0501229052360152e-03  -3.1914897444754557e-03  -3.7379249527894416e-03  -3.7828301546618055e-03  -3.3798813643345954e-03  -2.6055351972029193e-03  -1.5414519428536958e-03  -2.6753654614202832e-04  1.1415522813453996e-03  2.6165083376431088e-03  4.0913283300551525e-03  5.5002315137590843e-03  6.7745602986480158e-03  7.8406577295897142e-03  8.6197856794345204e-03  9.0314130766369263e-03  8.9989999194892475e-03  8.4722628545271291e-03  7.3357018657529693e-03  6.3014536404765219e-03  -2.6372675062761313e-03  -3.8268430204681128e-03  -5.0693121554353784e-03  -5.5704471990144985e-03  -5.4604037925714815e-03  -4.8269674144702044e-03  -3.7791153595991087e-03  -2.4231409408247131e-03  -8.5394723854738126e-04  8.4741099156082796e-04  2.6113492449256711e-03  4.3747257083663746e-03  6.0747126752917525e-03  7.6426732780616935e-03  8.9991119811319957e-03  1.0051106728140946e-02  1.0694474847262565e-02  1.0820683956156622e-02  1.0346798461776954e-02  9.1129039214070933e-03  7.9300616459008610e-03  -4.8968347254302750e-03  -6.2833811813630897e-03  -7.6295731711897774e-03  -8.0254135473866017e-03  -7.6631494990698134e-03  -6.6878993510244055e-03  -5.2586830257787221e-03  -3.5155900830982274e-03  -1.5705200950853154e-03  4.9181869171176435e-04  2.6068446421237562e-03  4.7205742441928811e-03  6.7794107060447726e-03  8.7200061844997390e-03  1.0459887785417812e-02  1.1890358510044500e-02  1.2875210835976139e-02  1.3257250298125335e-02  1.2898655440349675e-02  1.1567469070355862e-02  1.0196292775180468e-02  -8.0085253874842312e-03  -9.6463789576118932e-03  -1.1074779526668870e-02  -1.1251708958204105e-02  -1.0478954573043589e-02  -8.9992956286255536e-03  -7.0470735990112287e-03  -4.8053073548588237e-03  -2.4009311718839704e-03  8.5344434166687833e-05  2.6037447176023645e-03  5.1197540151209364e-03  7.5992237245430336e-03  9.9936855422587782e-03  1.2225219329212937e-02  1.4171679357471902e-02  1.5656992499989232e-02  1.6451921175851321e-02  1.6325944832807807e-02  1.4923674155858633e-02  1.3318147108643996e-02  -1.2301022776926190e-02  -1.4262093786301562e-02  -1.5699373873123312e-02  -1.5442247687577347e-02  -1.3997049942804353e-02  -1.1773960761196453e-02  -9.1151835647910028e-03  -6.2497873987657389e-03  -3.3080819588725326e-03  -3.5072682597901505e-04  2.6031271493702421e-03  5.5531912457037662e-03  8.4993111255557263e-03  1.1423108315640364e-02  1.4266477544207425e-02  1.6905249069675856e-02  1.9122026544860962e-02  2.0586897742963670e-02  2.0913790879631036e-02  1.9522623730706588e-02  1.7628008271591576e-02  -1.8302981311637146e-02  -2.0688457726104077e-02  -2.1940164758946896e-02  -2.0832475202436553e-02  -1.8276578797480299e-02  -1.4964154839109838e-02  -1.1372987015404224e-02  -7.7590180801045908e-03  -4.2241333484694197e-03  -7.8027473196310619e-04  2.6063133260795911e-03  5.9876798911405399e-03  9.4154361576160479e-03  1.2922439804290448e-02  1.6497010157808301e-02  2.0042558340608477e-02  2.3319795983319697e-02  2.5876938958938819e-02  2.7077126279287808e-02  2.5910195267198326e-02  2.3664854519312141e-02  -2.6932894078911980e-02  -2.9894150611685318e-02  -3.0453816911594628e-02  -2.7662668792509351e-02  -2.3268293432247008e-02  -1.8394503632558401e-02  -1.3627990550805992e-02  -9.1747389826231998e-03  -5.0420226611608875e-03  -1.1497941568427083e-03  2.6145406205520349e-03  6.3727464150105332e-03  1.0245261995197201e-02  1.4340811074610606e-02  1.8734106157915844e-02  2.3415878131573253e-02  2.8193160295802044e-02  3.2524668911394772e-02  3.5415755438471738e-02  3.5020068797772134e-02  3.2387613517778129e-02  -3.9968651847540532e-02  -4.3734381503917660e-02  -4.2190384135168221e-02  -3.6011655151624987e-02  -2.8636934162601001e-02  -2.1654349434831882e-02  -1.5538495134889273e-02  -1.0256823660790707e-02  -5.6147818604168507e-03  -1.3902311703442021e-03  2.6286194829785101e-03  6.6417729365023659e-03  1.0847073063109109e-02  1.5449123566429173e-02  2.0656035793277589e-02  2.6640389761871306e-02  3.3415180350948190e-02  4.0557338015384456e-02  4.6730069063074670e-02  4.8559301490904747e-02  4.5749988792359822e-02  -6.1639473144016889e-02  -6.6106889628291657e-02  -5.8161313557788891e-02  -4.5242776676213216e-02  -3.3419476661669202e-02  -2.3970756887369583e-02  -1.6592710983975068e-02  -1.0696941571960458e-02  -5.7729076621378436e-03  -1.4278611050337201e-03  2.6468592601777930e-03  6.7180866647059915e-03  1.1050332548718646e-02  1.5943625891508939e-02  2.1769643016625890e-02  2.8993108294967741e-02  3.8125724984397480e-02  4.9423220475673962e-02  6.1739480808649300e-02  6.9725391453584598e-02  6.8564864083259319e-02  -1.0701751211947573e-01  -1.0477512426479545e-01  -7.7469272340810524e-02  -5.2652991171155135e-02  -3.5622672961224039e-02  -2.4203517277127534e-02  -1.6190731906847899e-02  -1.0189479915836838e-02  -5.3666029487760177e-03  -1.1999247541272951e-03  2.6731834914119120e-03  6.5477380563694031e-03  1.0717879317713038e-02  1.5542345056783580e-02  2.1530419298805465e-02  2.9471268302000087e-02  4.0609571611394606e-02  5.6670908003288750e-02  7.8749250227729592e-02  1.0335690949545470e-01  1.1568235943440100e-01  -2.4986342562346447e-01  -1.6202643568674754e-01  -8.8517329278735860e-02  -5.1104983323239560e-02  -3.2046845259780202e-02  -2.0999721467643853e-02  -1.3752420573022801e-02  -8.4832885319885629e-03  -4.2955753706583862e-03  -6.8637521790768856e-04  2.6700595978877795e-03  6.0294774557099438e-03  9.6478628254158365e-03  1.3851426232492843e-02  1.9142233594756499e-02  2.6405487055117971e-02  3.7375897208862550e-02  5.5740779343092572e-02  9.0244386021345782e-02  1.5635718172005694e-01  2.4060543418858241e-01  -4.8986175760463069e-01  -1.8254309495973808e-01  -7.2281793376958961e-02  -3.9957243588750142e-02  -2.5393503195473621e-02  -1.6844746124175435e-02  -1.1082036543214239e-02  -6.7834475528627779e-03  -3.2883174011154545e-03  -2.2331319064115824e-04  2.6540384070511797e-03  5.5347862865198268e-03  8.6114283543805258e-03  1.2131980959006481e-02  1.6485238140427176e-02  2.2382370721619086e-02  3.1334859752877184e-02  4.7158049229133955e-02  8.1139468844812365e-02  1.6760587436753796e-01  4.9506818134225061e-01  </DataArray> 
</PointData> 
</Piece>
</UnstructuredGrid>
</VTKFile>