<?xml version="1.0"?>
<VTKFile type="UnstructuredGrid"  version="0.1"  >
<UnstructuredGrid>
<Piece  NumberOfPoints="651" NumberOfCells="1200">
<Points>
<DataArray  type="Float64"  NumberOfComponents="3"  format="ascii">0 0 0  50000 0 0  100000 0 0  150000 0 0  200000 0 0  250000 0 0  300000 0 0  350000 0 0  400000 0 0  450000 0 0  500000 0 0  550000 0 0  600000 0 0  650000 0 0  700000 0 0  750000 0 0  800000 0 0  850000 0 0  900000 0 0  950000 0 0  1000000 0 0  0 50000 0  50000 50000 0  100000 50000 0  150000 50000 0  200000 50000 0  250000 50000 0  300000 50000 0  350000 50000 0  400000 50000 0  450000 50000 0  500000 50000 0  550000 50000 0  600000 50000 0  650000 50000 0  700000 50000 0  750000 50000 0  800000 50000 0  850000 50000 0  900000 50000 0  950000 50000 0  1000000 50000 0  0 100000 0  50000 100000 0  100000 100000 0  150000 100000 0  200000 100000 0  250000 100000 0  300000 100000 0  350000 100000 0  400000 100000 0  450000 100000 0  500000 100000 0  550000 100000 0  600000 100000 0  650000 100000 0  700000 100000 0  750000 100000 0  800000 100000 0  850000 100000 0  900000 100000 0  950000 100000 0  1000000 100000 0  0 150000 0  50000 150000 0  100000 150000 0  150000 150000 0  200000 150000 0  250000 150000 0  300000 150000 0  350000 150000 0  400000 150000 0  450000 150000 0  500000 150000 0  550000 150000 0  600000 150000 0  650000 150000 0  700000 150000 0  750000 150000 0  800000 150000 0  850000 150000 0  900000 150000 0  950000 150000 0  1000000 150000 0  0 200000 0  50000 200000 0  100000 200000 0  150000 200000 0  200000 200000 0  250000 200000 0  300000 200000 0  350000 200000 0  400000 200000 0  450000 200000 0  500000 200000 0  550000 200000 0  600000 200000 0  650000 200000 0  700000 200000 0  750000 200000 0  800000 200000 0  850000 200000 0  900000 200000 0  950000 200000 0  1000000 200000 0  0 250000 0  50000 250000 0  100000 250000 0  150000 250000 0  200000 250000 0  250000 250000 0  300000 250000 0  350000 250000 0  400000 250000 0  450000 250000 0  500000 250000 0  550000 250000 0  600000 250000 0  650000 250000 0  700000 250000 0  750000 250000 0  800000 250000 0  850000 250000 0  900000 250000 0  950000 250000 0  1000000 250000 0  0 300000 0  50000 300000 0  100000 300000 0  150000 300000 0  200000 300000 0  250000 300000 0  300000 300000 0  350000 300000 0  400000 300000 0  450000 300000 0  500000 300000 0  550000 300000 0  600000 300000 0  650000 300000 0  700000 300000 0  750000 300000 0  800000 300000 0  850000 300000 0  900000 300000 0  950000 300000 0  1000000 300000 0  0 350000 0  50000 350000 0  100000 350000 0  150000 350000 0  200000 350000 0  250000 350000 0  300000 350000 0  350000 350000 0  400000 350000 0  450000 350000 0  500000 350000 0  550000 350000 0  600000 350000 0  650000 350000 0  700000 350000 0  750000 350000 0  800000 350000 0  850000 350000 0  900000 350000 0  950000 350000 0  1000000 350000 0  0 400000 0  50000 400000 0  100000 400000 0  150000 400000 0  200000 400000 0  250000 400000 0  300000 400000 0  350000 400000 0  400000 400000 0  450000 400000 0  500000 400000 0  550000 400000 0  600000 400000 0  650000 400000 0  700000 400000 0  750000 400000 0  800000 400000 0  850000 400000 0  900000 400000 0  950000 400000 0  1000000 400000 0  0 450000 0  50000 450000 0  100000 450000 0  150000 450000 0  200000 450000 0  250000 450000 0  300000 450000 0  350000 450000 0  400000 450000 0  450000 450000 0  500000 450000 0  550000 450000 0  600000 450000 0  650000 450000 0  700000 450000 0  750000 450000 0  800000 450000 0  850000 450000 0  900000 450000 0  950000 450000 0  1000000 450000 0  0 500000 0  50000 500000 0  100000 500000 0  150000 500000 0  200000 500000 0  250000 500000 0  300000 500000 0  350000 500000 0  400000 500000 0  450000 500000 0  500000 500000 0  550000 500000 0  600000 500000 0  650000 500000 0  700000 500000 0  750000 500000 0  800000 500000 0  850000 500000 0  900000 500000 0  950000 500000 0  1000000 500000 0  0 550000 0  50000 550000 0  100000 550000 0  150000 550000 0  200000 550000 0  250000 550000 0  300000 550000 0  350000 550000 0  400000 550000 0  450000 550000 0  500000 550000 0  550000 550000 0  600000 550000 0  650000 550000 0  700000 550000 0  750000 550000 0  800000 550000 0  850000 550000 0  900000 550000 0  950000 550000 0  1000000 550000 0  0 600000 0  50000 600000 0  100000 600000 0  150000 600000 0  200000 600000 0  250000 600000 0  300000 600000 0  350000 600000 0  400000 600000 0  450000 600000 0  500000 600000 0  550000 600000 0  600000 600000 0  650000 600000 0  700000 600000 0  750000 600000 0  800000 600000 0  850000 600000 0  900000 600000 0  950000 600000 0  1000000 600000 0  0 650000 0  50000 650000 0  100000 650000 0  150000 650000 0  200000 650000 0  250000 650000 0  300000 650000 0  350000 650000 0  400000 650000 0  450000 650000 0  500000 650000 0  550000 650000 0  600000 650000 0  650000 650000 0  700000 650000 0  750000 650000 0  800000 650000 0  850000 650000 0  900000 650000 0  950000 650000 0  1000000 650000 0  0 700000 0  50000 700000 0  100000 700000 0  150000 700000 0  200000 700000 0  250000 700000 0  300000 700000 0  350000 700000 0  400000 700000 0  450000 700000 0  500000 700000 0  550000 700000 0  600000 700000 0  650000 700000 0  700000 700000 0  750000 700000 0  800000 700000 0  850000 700000 0  900000 700000 0  950000 700000 0  1000000 700000 0  0 750000 0  50000 750000 0  100000 750000 0  150000 750000 0  200000 750000 0  250000 750000 0  300000 750000 0  350000 750000 0  400000 750000 0  450000 750000 0  500000 750000 0  550000 750000 0  600000 750000 0  650000 750000 0  700000 750000 0  750000 750000 0  800000 750000 0  850000 750000 0  900000 750000 0  950000 750000 0  1000000 750000 0  0 800000 0  50000 800000 0  100000 800000 0  150000 800000 0  200000 800000 0  250000 800000 0  300000 800000 0  350000 800000 0  400000 800000 0  450000 800000 0  500000 800000 0  550000 800000 0  600000 800000 0  650000 800000 0  700000 800000 0  750000 800000 0  800000 800000 0  850000 800000 0  900000 800000 0  950000 800000 0  1000000 800000 0  0 850000 0  50000 850000 0  100000 850000 0  150000 850000 0  200000 850000 0  250000 850000 0  300000 850000 0  350000 850000 0  400000 850000 0  450000 850000 0  500000 850000 0  550000 850000 0  600000 850000 0  650000 850000 0  700000 850000 0  750000 850000 0  800000 850000 0  850000 850000 0  900000 850000 0  950000 850000 0  1000000 850000 0  0 900000 0  50000 900000 0  100000 900000 0  150000 900000 0  200000 900000 0  250000 900000 0  300000 900000 0  350000 900000 0  400000 900000 0  450000 900000 0  500000 900000 0  550000 900000 0  600000 900000 0  650000 900000 0  700000 900000 0  750000 900000 0  800000 900000 0  850000 900000 0  900000 900000 0  950000 900000 0  1000000 900000 0  0 950000 0  50000 950000 0  100000 950000 0  150000 950000 0  200000 950000 0  250000 950000 0  300000 950000 0  350000 950000 0  400000 950000 0  450000 950000 0  500000 950000 0  550000 950000 0  600000 950000 0  650000 950000 0  700000 950000 0  750000 950000 0  800000 950000 0  850000 950000 0  900000 950000 0  950000 950000 0  1000000 950000 0  0 1000000 0  50000 1000000 0  100000 1000000 0  150000 1000000 0  200000 1000000 0  250000 1000000 0  300000 1000000 0  350000 1000000 0  400000 1000000 0  450000 1000000 0  500000 1000000 0  550000 1000000 0  600000 1000000 0  650000 1000000 0  700000 1000000 0  750000 1000000 0  800000 1000000 0  850000 1000000 0  900000 1000000 0  950000 1000000 0  1000000 1000000 0  0 1050000 0  50000 1050000 0  100000 1050000 0  150000 1050000 0  200000 1050000 0  250000 1050000 0  300000 1050000 0  350000 1050000 0  400000 1050000 0  450000 1050000 0  500000 1050000 0  550000 1050000 0  600000 1050000 0  650000 1050000 0  700000 1050000 0  750000 1050000 0  800000 1050000 0  850000 1050000 0  900000 1050000 0  950000 1050000 0  1000000 1050000 0  0 1100000 0  50000 1100000 0  100000 1100000 0  150000 1100000 0  200000 1100000 0  250000 1100000 0  300000 1100000 0  350000 1100000 0  400000 1100000 0  450000 1100000 0  500000 1100000 0  550000 1100000 0  600000 1100000 0  650000 1100000 0  700000 1100000 0  750000 1100000 0  800000 1100000 0  850000 1100000 0  900000 1100000 0  950000 1100000 0  1000000 1100000 0  0 1150000 0  50000 1150000 0  100000 1150000 0  150000 1150000 0  200000 1150000 0  250000 1150000 0  300000 1150000 0  350000 1150000 0  400000 1150000 0  450000 1150000 0  500000 1150000 0  550000 1150000 0  600000 1150000 0  650000 1150000 0  700000 1150000 0  750000 1150000 0  800000 1150000 0  850000 1150000 0  900000 1150000 0  950000 1150000 0  1000000 1150000 0  0 1200000 0  50000 1200000 0  100000 1200000 0  150000 1200000 0  200000 1200000 0  250000 1200000 0  300000 1200000 0  350000 1200000 0  400000 1200000 0  450000 1200000 0  500000 1200000 0  550000 1200000 0  600000 1200000 0  650000 1200000 0  700000 1200000 0  750000 1200000 0  800000 1200000 0  850000 1200000 0  900000 1200000 0  950000 1200000 0  1000000 1200000 0  0 1250000 0  50000 1250000 0  100000 1250000 0  150000 1250000 0  200000 1250000 0  250000 1250000 0  300000 1250000 0  350000 1250000 0  400000 1250000 0  450000 1250000 0  500000 1250000 0  550000 1250000 0  600000 1250000 0  650000 1250000 0  700000 1250000 0  750000 1250000 0  800000 1250000 0  850000 1250000 0  900000 1250000 0  950000 1250000 0  1000000 1250000 0  0 1300000 0  50000 1300000 0  100000 1300000 0  150000 1300000 0  200000 1300000 0  250000 1300000 0  300000 1300000 0  350000 1300000 0  400000 1300000 0  450000 1300000 0  500000 1300000 0  550000 1300000 0  600000 1300000 0  650000 1300000 0  700000 1300000 0  750000 1300000 0  800000 1300000 0  850000 1300000 0  900000 1300000 0  950000 1300000 0  1000000 1300000 0  0 1350000 0  50000 1350000 0  100000 1350000 0  150000 1350000 0  200000 1350000 0  250000 1350000 0  300000 1350000 0  350000 1350000 0  400000 1350000 0  450000 1350000 0  500000 1350000 0  550000 1350000 0  600000 1350000 0  650000 1350000 0  700000 135
[...]
<PointData  Scalars="f_10483"> 
<DataArray  type="Float64"  Name="f_10483"  format="ascii">-1.3431357295594185e-01  -4.8847219022277795e-02  -2.4477877145820493e-02  -1.4520833555187480e-02  -9.5773320039473746e-03  -6.4991541258954478e-03  -4.2272617689101729e-03  -2.3538539610112289e-03  -6.9358895861922748e-04  8.5278735190823381e-04  2.3486747692446660e-03  3.8438500764811645e-03  5.3876965030304784e-03  7.0420571944206801e-03  8.9015888050640469e-03  1.1136217559155892e-02  1.4098900690195501e-02  1.8702149436038078e-02  2.8300879182480566e-02  5.8700882750311434e-02  1.3709405011598338e-01  -6.7625469810150315e-02  -4.4920145097541574e-02  -2.6173617652246465e-02  -1.6319458678128066e-02  -1.0815528608554748e-02  -7.2794089174894232e-03  -4.7110597644625914e-03  -2.6491395161834567e-03  -8.6324359394323702e-04  7.7489215447540491e-04  2.3477989568941302e-03  3.9201288616437660e-03  5.5564748542779622e-03  7.3392798234490396e-03  9.3972542564175251e-03  1.1965103777068364e-02  1.5532438813049890e-02  2.1248805613321577e-02  3.1903171763507723e-02  5.2143988263958545e-02  7.5774668353601846e-02  -3.2910628260528672e-02  -2.9329998635193179e-02  -2.2302557617820754e-02  -1.5983452504148656e-02  -1.1210396921643833e-02  -7.7176608400427102e-03  -5.0495592555195694e-03  -2.8795689258909931e-03  -1.0031722895090765e-03  7.0949309020234316e-04  2.3486084348463970e-03  3.9875079249706603e-03  5.6997400174212025e-03  7.5764933684059777e-03  9.7511643607871290e-03  1.2440639054166175e-02  1.6013531308156834e-02  2.1054600031830094e-02  2.8123918173982656e-02  3.5775612725145005e-02  3.6678785536791526e-02  -1.9142816435873889e-02  -1.9388345463323450e-02  -1.7111572227737137e-02  -1.3539587937851962e-02  -1.0137139693898277e-02  -7.2599313920942415e-03  -4.8552575496677046e-03  -2.7962109289911977e-03  -9.6659586488911117e-04  7.2578728346121282e-04  2.3546282748007248e-03  3.9844752515251648e-03  5.6804909968018414e-03  7.5186700711442492e-03  9.5968764157836357e-03  1.2043532113468088e-02  1.5005698200613461e-02  1.8548515998469278e-02  2.2296946170950696e-02  2.4572054999378475e-02  2.3353132208480440e-02  -1.2395309014749846e-02  -1.3145937907117211e-02  -1.2589438842480852e-02  -1.0728412889933111e-02  -8.5118140296249947e-03  -6.3337088709377546e-03  -4.3238519298999245e-03  -2.4908156572815430e-03  -7.9780458383860707e-04  8.0293665462579809e-04  2.3590395731292132e-03  3.9166995701892127e-03  5.5226832547408322e-03  7.2265280118610220e-03  9.0797115111615548e-03  1.1124777126302993e-02  1.3357855427016884e-02  1.5633595996548073e-02  1.7495255755650623e-02  1.7980592980056529e-02  1.6931444343989417e-02  -8.4591109960988654e-03  -9.1446750043839790e-03  -9.1777598355349248e-03  -8.2268366389887347e-03  -6.8106949524450846e-03  -5.2178790413013251e-03  -3.6075909021404725e-03  -2.0431675819192574e-03  -5.3640023470302961e-04  9.2475479477281426e-04  2.3621856702419931e-03  3.8012460007272801e-03  5.2676312883441620e-03  6.7842209268341438e-03  8.3643957913809557e-03  9.9967582117796387e-03  1.1614324193817112e-02  1.3044596741957999e-02  1.3964094908284333e-02  1.3888318520683491e-02  1.3100925926751220e-02  -5.9007827831939665e-03  -6.4506095412546986e-03  -6.6635374394303426e-03  -6.1745407954922000e-03  -5.2604122724483711e-03  -4.1044129129671411e-03  -2.8378516055398242e-03  -1.5343157143060692e-03  -2.2790425934379619e-04  1.0708376130790570e-03  2.3637950773784909e-03  3.6581099731569995e-03  4.9610270825349257e-03  6.2746247991172241e-03  7.5881929325839446e-03  8.8660525942397643e-03  1.0030022630263797e-02  1.0941279581123347e-02  1.1401389763444165e-02  1.1166713721572716e-02  1.0575813875054562e-02  -4.1255928905508049e-03  -4.5555686297639661e-03  -4.8023047687835206e-03  -4.5467372190271258e-03  -3.9401297057453481e-03  -3.0925495231203916e-03  -2.0989474288881072e-03  -1.0246613874752232e-03  9.0210188538751213e-05  1.2235445531629458e-03  2.3640900119004092e-03  3.5055929159907200e-03  4.6417511244805521e-03  5.7610674239386003e-03  6.8406662468071212e-03  7.8386909098195675e-03  8.6865802554426854e-03  9.2858418825523554e-03  9.5199389362952223e-03  9.2618404602508014e-03  8.8136327414055065e-03  -2.8424313508057849e-03  -3.1792431290721635e-03  -3.4104937137899695e-03  -3.2739882610511402e-03  -2.8560904355443770e-03  -2.2218472497780154e-03  -1.4366221199169909e-03  -5.5273957546262472e-04  3.9157455108917511e-04  1.3698294809372387e-03  2.3634206964567852e-03  3.3575899905968166e-03  4.3374719444548545e-03  5.2840856374752774e-03  6.1701512121292018e-03  6.9561015844333014e-03  7.5877222823923420e-03  7.9981956176354094e-03  8.1194628930982074e-03  7.8820114276860025e-03  7.5368912043953509e-03  -1.8921377945945769e-03  -2.1595258389014694e-03  -2.3621564971380224e-03  -2.2873053545168008e-03  -1.9869763082635819e-03  -1.4998859114646631e-03  -8.7057894627057817e-04  -1.3934884061329281e-04  6.6025865337730944e-04  1.5013867627188043e-03  2.3621452817652036e-03  3.2231925200369503e-03  4.0650782744452354e-03  4.8655680039716822e-03  5.5971879245449050e-03  6.2255167815557485e-03  6.7092423592353054e-03  7.0033198817116360e-03  7.0674670463114339e-03  6.8613334924895429e-03  6.5901920016338267e-03  -1.1814225074008428e-03  -1.3982358794341950e-03  -1.5724944797333904e-03  -1.5301960207969383e-03  -1.3046091695594203e-03  -9.1936459989960264e-04  -4.0527171300283908e-04  2.0677560721272107e-04  8.8822952417034052e-04  1.6137186866605274e-03  2.3605494397553072e-03  3.1074810206607210e-03  3.8331867826329490e-03  4.5147152281572889e-03  5.1262758680938637e-03  5.6387974078634150e-03  6.0208661157958292e-03  6.2415689907846447e-03  6.2763863031411633e-03  6.1000893950580596e-03  5.8816292173625665e-03  -6.5303353683793144e-04  -8.3374375511856085e-04  -9.8437691122000084e-04  -9.5967832912589813e-04  -7.8241914039915261e-04  -4.6766465648379025e-04  -3.7468199960474720e-05  4.8403915960781966e-04  1.0726092703044168e-03  1.7049414011209888e-03  2.3588261695580838e-03  3.0127086844456163e-03  3.6449747297158460e-03  4.2332432071203324e-03  4.7539528475930874e-03  5.1825614308500644e-03  5.4946858673515838e-03  5.6683141444703817e-03  5.6878466991436899e-03  5.5359990105895958e-03  5.3545998597398425e-03  -2.7078967703605250e-04  -4.2648451619274792e-04  -5.5928417225981552e-04  -5.4433798376610687e-04  -3.9840453124953030e-04  -1.3173498157509971e-04  2.3905063563052433e-04  6.9441784514159420e-04  1.2134145568238673e-03  1.7747170789019176e-03  2.3570860240652797e-03  2.9394103727710123e-03  3.5005419917573601e-03  4.0191368375402953e-03  4.4737204917655767e-03  4.8431848365950471e-03  5.1078806499930962e-03  5.2512646799661644e-03  5.2627588534215940e-03  5.1292321559407560e-03  4.9732682974058537e-03  -1.1619014405215161e-05  -1.5098058697042002e-04  -2.7156603748837096e-04  -2.6208691442576810e-04  -1.3582436649193247e-04  9.9596465869876747e-05  4.3078369771842157e-04  8.4112258394193986e-04  1.3119359872282462e-03  1.8234477011355888e-03  2.3553781407150668e-03  2.8872606434710382e-03  3.3986077071974192e-03  3.8690820787880367e-03  4.2788277302519724e-03  4.6090908443001963e-03  4.8432089190427437e-03  4.9678559017025210e-03  4.9752159973604207e-03  4.8542160162914644e-03  4.7147592785278603e-03  1.3877194051107141e-04  8.6286868576193591e-06  -1.0490594138692589e-04  -9.8367165405066585e-05  1.6921353135072975e-05  2.3462023847813657e-04  5.4304330240106502e-04  9.2718346013677053e-04  1.3696830958125916e-03  1.8517302119495029e-03  2.3537111124404173e-03  2.8556630535611716e-03  3.3376140819135315e-03  3.7799253207678601e-03  4.1637508309229441e-03  4.4717021557302318e-03  4.6887557732041363e-03  4.8032616425375835e-03  4.8087919548462157e-03  4.6950680873288474e-03  4.5648968011558046e-03  1.8822038255064525e-04  6.1051012520203795e-05  -5.0236719059738291e-05  -4.4925726349093652e-05  6.6599474631912810e-05  2.7835869601266204e-04  5.7920953263919579e-04  9.5465354555742819e-04  1.3877566313212433e-03  1.8600237269276972e-03  2.3520698692555374e-03  2.8441160115835759e-03  3.3163831071907042e-03  3.7494861929554869e-03  4.1249302058747883e-03  4.4257810425024054e-03  4.6375402638839441e-03  4.7490654648654172e-03  4.7543764575761725e-03  4.6430887259961461e-03  4.5159193559656859e-03  1.3924293736048687e-04  9.0716511874840115e-06  -1.0465221632978884e-04  -9.9121904021297642e-05  1.5383965311694983e-05  2.3243758278474315e-04  5.4038890759096846e-04  9.2421441774491659e-04  1.3665256565982070e-03  1.8484766849498934e-03  2.3504286260704137e-03  2.8524095265615567e-03  3.3344566426991343e-03  3.7769562783758984e-03  4.1610964361127323e-03  4.4695195000367385e-03  4.6872183853806761e-03  4.8025069039212597e-03  4.8090456799032644e-03  4.6955110516586317e-03  4.5653677980051549e-03  -1.0619540011866415e-05  -1.5007627777536230e-04  -2.7107625884419416e-04  -2.6371616318638318e-04  -1.3906918052713479e-04  9.5048894214458721e-05  4.2531200826151491e-04  8.3505765972416532e-04  1.3055320313136896e-03  1.8168790950393362e-03  2.3487615977950222e-03  2.8806920373747259e-03  3.3922037512827737e-03  3.8630171545701469e-03  4.2733560407949263e-03  4.6045432726446517e-03  4.8399641050073765e-03  4.9662266529416866e-03  4.9757057760044989e-03  4.8551203254864573e-03  4.7157587529211538e-03  -2.6912855889025492e-04  -4.2509241742498695e-04  -5.5861911490560966e-04  -5.4712494145028249e-04  -4.0374091147784446e-04  -1.3904509808092551e-04  2.3041924674714040e-04  6.8500290097090486e-04  1.2035977467525663e-03  1.7647293657380278e-03  2.3470537144434471e-03  2.9294226596070722e-03  3.4907251816859346e-03  4.0097218933694088e-03  4.4650891028819566e-03  4.8358747200889438e-03  5.1025442697645142e-03  5.2484777222817176e-03  5.2634239107755510e-03  5.1306242547082765e-03  4.9749294155514321e-03  -6.5046012122491656e-04  -8.3185927207439047e-04  -9.8370696062810245e-04  -9.6417440595496522e-04  -7.9054612883696013e-04  -4.7842169233688680e-04  -4.9813109081673977e-05  4.7089653138920331e-04  1.0591650087921187e-03  1.6914310540612726e-03  2.3453135689484052e-03  2.9991983373858261e-03  3.6315304682033801e-03  4.2201005789014295e-03  4.7416079384715055e-03  5.1718043949965653e-03  5.4865588789134202e-03  5.6638180676409546e-03  5.6885166497352146e-03  5.5378834936334618e-03  5.3571732753525817e-03  -1.1774894788484267e-03  -1.3959496565434286e-03  -1.5722465646260016e-03  -1.5374292522697618e-03  -1.3167263772820700e-03  -9.3465766935161795e-04  -4.2213612958445844e-04  1.8942451034969278e-04  8.7095295587205472e-04  1.5966587178429263e-03  2.3435902987478398e-03  3.0904210518430068e-03  3.8159102143344018e-03  4.4973641312939221e-03  5.1094114515117918e-03  5.6235043384108962e-03  6.0087489080726426e-03  6.2343357593113123e-03  6.2766342182480886e-03  6.1023756179484278e-03  5.8855622459146190e-03  -1.8860522631205395e-03  -2.1571937539755217e-03  -2.3633273077966698e-03  -2.2991801431973802e-03  -2.0051026207228446e-03  -1.5213770430461246e-03  -8.9304818603856250e-04  -1.6142826546852046e-04  6.3906146405539547e-04  1.4809472184620484e-03  2.3419944567331669e-03  3.2027529757800376e-03  4.0438810851230319e-03  4.8434885791160736e-03  5.5747186847764111e-03  6.2040256499736567e-03  6.6911160467753323e-03  6.9914450930303722e-03  7.0662962356521902e-03  6.8636655774149975e-03  6.5962775331073120e-03  -2.8327514658829417e-03  -3.1778716891723321e-03  -3.4153231545835947e-03  -3.2940558791218814e-03  -2.8835825438817764e-03  -2.2519618459268900e-03  -1.4660114736273306e-03  -5.7994589897749662e-04  3.6666779403974486e-04  1.3465497478957577e-03  2.3407190420350419e-03  3.3343102575551916e-03  4.3125651874051053e-03  5.2568793139599413e-03  6.1407618584182434e-03  6.9259869882836106e-03  7.5602301740540509e-03  7.9781279995637840e-03  8.1146334523037721e-03  7.8833828675852115e-03  7.5465710893176888e-03  -4.1094930028933475e-03  -4.5577007217366527e-03  -4.8157991977802522e-03  -4.5817021440397185e-03  -3.9824405169348511e-03  -3.1345511713178282e-03  -2.1365265083115098e-03  -1.0569276854481707e-03  6.2388614006071044e-05  1.1985468224935928e-03  2.3400497265830783e-03  3.4805951853212110e-03  4.6139295499475564e-03  5.7288011259651666e-03  6.8030871673829992e-03  7.7966892616211448e-03  8.6442694442520739e-03  9.2508769575386108e-03  9.5064445072974117e-03  9.2597083682772422e-03  8.8297326290623888e-03  -5.8716741365412075e-03  -6.4625739830566683e-03  -6.6972500249279287e-03  -6.2371398426117140e-03  -5.3258828917598896e-03  -4.1619128557445458e-03  -2.8840531940965458e-03  -1.5704850606359478e-03  -2.5688734405786051e-04  1.0460297653176228e-03  2.3403446610952942e-03  3.6333021253954199e-03  4.9320439978205472e-03  6.2384554527868171e-03  7.5419913440264190e-03  8.8085526514612277e-03  9.9645520109509032e-03  1.0878680534002406e-02  1.1367677177945290e-02  1.1154749279769671e-02  1.0604922521706689e-02  -8.3967861882335588e-03  -9.1841787821625321e-03  -9.2599551697650270e-03  -8.3404570034474705e-03  -6.9101844553185673e-03  -5.2926184732927858e-03  -3.6602560529033551e-03  -2.0800811883630449e-03  -5.6349154987725587e-04  9.0289373773731296e-04  2.3419540682218698e-03  3.7793849436916866e-03  5.2405399731697009e-03  6.7473073203898771e-03  8.3117306406173420e-03  9.9220187797871440e-03  1.1514834690942078e-02  1.2930976377497384e-02  1.3881899574052307e-02  1.3848814742903507e-02  1.3163250734615797e-02  -1.2227304605461368e-02  -1.3276453241524985e-02  -1.2791116017125508e-02  -1.0929456258038761e-02  -8.6537156885247261e-03  -6.4206373878250411e-03  -4.3755717726934778e-03  -2.5223882733992333e-03  -8.1854351628274228e-04  7.8744016826696442e-04  2.3451001653263864e-03  3.9012030838302975e-03  5.5019443222964672e-03  7.1949553957428832e-03  9.0279916683673311e-03  1.1037848609414777e-02  1.3215953768115470e-02  1.5432552628440102e-02  1.7293578581003260e-02  1.7850077645646573e-02  1.7099448753277190e-02  -1.8648992469929862e-02  -1.9867915260826322e-02  -1.7592806432415689e-02  -1.3844376259959917e-02  -1.0301558462126350e-02  -7.3393923749964993e-03  -4.8927366773217195e-03  -2.8145303326880364e-03  -9.7635125834874016e-04  7.1966448692635369e-04  2.3495114636502977e-03  3.9783524549901984e-03  5.6707356033419256e-03  7.5003506674469669e-03  9.5593972881290405e-03  1.1964071130564975e-02  1.4841279432383945e-02  1.8243727676358894e-02  2.1815711966268365e-02  2.4092485201871874e-02  2.3846956174423718e-02  -3.1974645798190489e-02  -3.1071472986554664e-02  -2.3419778435431016e-02  -1.6350460293315570e-02  -1.1309391569668354e-02  -7.7364993156938833e-03  -5.0470246223247063e-03  -2.8723536299493117e-03  -9.9560027896785090e-04  7.1663181348104231e-04  2.3555313036047703e-03  3.9946466482492079e-03  5.7073120279621256e-03  7.5837086643470580e-03  9.7536989939812566e-03  1.2421800578513966e-02  1.5914536660130887e-02  2.0687592242660559e-02  2.7006697356366325e-02  3.4034138373774614e-02  3.7614767999125297e-02  -7.1070528614885456e-02  -4.7439848525308199e-02  -2.7199032024928245e-02  -1.6544665874789879e-02  -1.0828299074548761e-02  -7.2609640385864925e-03  -4.6931145179477099e-03  -2.6351400849866195e-03  -8.5233511581985573e-04  7.8401087681205940e-04  2.3563407815609511e-03  3.9292475839802716e-03  5.5673833324010177e-03  7.3532792546453715e-03  9.4151995029316971e-03  1.1983548655970198e-02  1.5519668347054377e-02  2.1023598416657421e-02  3.0877757390821062e-02  4.9624284836182142e-02  7.2329609548839630e-02  -1.3238991037723921e-01  -5.3996743011614355e-02  -2.3596739443872507e-02  -1.3998009697489879e-02  -9.3947609516839888e-03  -6.4320778206668136e-03  -4.1974490665888800e-03  -2.3379174559541162e-03  -6.8355676456889364e-04  8.6028966197774690e-04  2.3554649692134294e-03  3.8513523865505335e-03  5.3977286970806025e-03  7.0579936994775144e-03  8.9314015073849434e-03  1.1203293864383981e-02  1.4281471742458082e-02  1.9224973293733284e-02  2.9182016884421062e-02  5.3551358760963008e-02  1.3901771269471741e-01  </DataArray> 
</PointData> 
</Piece>
</UnstructuredGrid>
</VTKFile>