<?xml version="1.0"?>
<VTKFile type="UnstructuredGrid"  version="0.1"  >
<UnstructuredGrid>
<Piece  NumberOfPoints="651" NumberOfCells="1200">
<Points>
<DataArray  type="Float64"  NumberOfComponents="3"  format="ascii">0 0 0  50000 0 0  100000 0 0  150000 0 0  200000 0 0  250000 0 0  300000 0 0  350000 0 0  400000 0 0  450000 0 0  500000 0 0  550000 0 0  600000 0 0  650000 0 0  700000 0 0  750000 0 0  800000 0 0  850000 0 0  900000 0 0  950000 0 0  1000000 0 0  0 50000 0  50000 50000 0  100000 50000 0  150000 50000 0  200000 50000 0  250000 50000 0  300000 50000 0  350000 50000 0  400000 50000 0  450000 50000 0  500000 50000 0  550000 50000 0  600000 50000 0  650000 50000 0  700000 50000 0  750000 50000 0  800000 50000 0  850000 50000 0  900000 50000 0  950000 50000 0  1000000 50000 0  0 100000 0  50000 100000 0  100000 100000 0  150000 100000 0  200000 100000 0  250000 100000 0  300000 100000 0  350000 100000 0  400000 100000 0  450000 100000 0  500000 100000 0  550000 100000 0  600000 100000 0  650000 100000 0  700000 100000 0  750000 100000 0  800000 100000 0  850000 100000 0  900000 100000 0  950000 100000 0  1000000 100000 0  0 150000 0  50000 150000 0  100000 150000 0  150000 150000 0  200000 150000 0  250000 150000 0  300000 150000 0  350000 150000 0  400000 150000 0  450000 150000 0  500000 150000 0  550000 150000 0  600000 150000 0  650000 150000 0  700000 150000 0  750000 150000 0  800000 150000 0  850000 150000 0  900000 150000 0  950000 150000 0  1000000 150000 0  0 200000 0  50000 200000 0  100000 200000 0  150000 200000 0  200000 200000 0  250000 200000 0  300000 200000 0  350000 200000 0  400000 200000 0  450000 200000 0  500000 200000 0  550000 200000 0  600000 200000 0  650000 200000 0  700000 200000 0  750000 200000 0  800000 200000 0  850000 200000 0  900000 200000 0  950000 200000 0  1000000 200000 0  0 250000 0  50000 250000 0  100000 250000 0  150000 250000 0  200000 250000 0  250000 250000 0  300000 250000 0  350000 250000 0  400000 250000 0  450000 250000 0  500000 250000 0  550000 250000 0  600000 250000 0  650000 250000 0  700000 250000 0  750000 250000 0  800000 250000 0  850000 250000 0  900000 250000 0  950000 250000 0  1000000 250000 0  0 300000 0  50000 300000 0  100000 300000 0  150000 300000 0  200000 300000 0  250000 300000 0  300000 300000 0  350000 300000 0  400000 300000 0  450000 300000 0  500000 300000 0  550000 300000 0  600000 300000 0  650000 300000 0  700000 300000 0  750000 300000 0  800000 300000 0  850000 300000 0  900000 300000 0  950000 300000 0  1000000 300000 0  0 350000 0  50000 350000 0  100000 350000 0  150000 350000 0  200000 350000 0  250000 350000 0  300000 350000 0  350000 350000 0  400000 350000 0  450000 350000 0  500000 350000 0  550000 350000 0  600000 350000 0  650000 350000 0  700000 350000 0  750000 350000 0  800000 350000 0  850000 350000 0  900000 350000 0  950000 350000 0  1000000 350000 0  0 400000 0  50000 400000 0  100000 400000 0  150000 400000 0  200000 400000 0  250000 400000 0  300000 400000 0  350000 400000 0  400000 400000 0  450000 400000 0  500000 400000 0  550000 400000 0  600000 400000 0  650000 400000 0  700000 400000 0  750000 400000 0  800000 400000 0  850000 400000 0  900000 400000 0  950000 400000 0  1000000 400000 0  0 450000 0  50000 450000 0  100000 450000 0  150000 450000 0  200000 450000 0  250000 450000 0  300000 450000 0  350000 450000 0  400000 450000 0  450000 450000 0  500000 450000 0  550000 450000 0  600000 450000 0  650000 450000 0  700000 450000 0  750000 450000 0  800000 450000 0  850000 450000 0  900000 450000 0  950000 450000 0  1000000 450000 0  0 500000 0  50000 500000 0  100000 500000 0  150000 500000 0  200000 500000 0  250000 500000 0  300000 500000 0  350000 500000 0  400000 500000 0  450000 500000 0  500000 500000 0  550000 500000 0  600000 500000 0  650000 500000 0  700000 500000 0  750000 500000 0  800000 500000 0  850000 500000 0  900000 500000 0  950000 500000 0  1000000 500000 0  0 550000 0  50000 550000 0  100000 550000 0  150000 550000 0  200000 550000 0  250000 550000 0  300000 550000 0  350000 550000 0  400000 550000 0  450000 550000 0  500000 550000 0  550000 550000 0  600000 550000 0  650000 550000 0  700000 550000 0  750000 550000 0  800000 550000 0  850000 550000 0  900000 550000 0  950000 550000 0  1000000 550000 0  0 600000 0  50000 600000 0  100000 600000 0  150000 600000 0  200000 600000 0  250000 600000 0  300000 600000 0  350000 600000 0  400000 600000 0  450000 600000 0  500000 600000 0  550000 600000 0  600000 600000 0  650000 600000 0  700000 600000 0  750000 600000 0  800000 600000 0  850000 600000 0  900000 600000 0  950000 600000 0  1000000 600000 0  0 650000 0  50000 650000 0  100000 650000 0  150000 650000 0  200000 650000 0  250000 650000 0  300000 650000 0  350000 650000 0  400000 650000 0  450000 650000 0  500000 650000 0  550000 650000 0  600000 650000 0  650000 650000 0  700000 650000 0  750000 650000 0  800000 650000 0  850000 650000 0  900000 650000 0  950000 650000 0  1000000 650000 0  0 700000 0  50000 700000 0  100000 700000 0  150000 700000 0  200000 700000 0  250000 700000 0  300000 700000 0  350000 700000 0  400000 700000 0  450000 700000 0  500000 700000 0  550000 700000 0  600000 700000 0  650000 700000 0  700000 700000 0  750000 700000 0  800000 700000 0  850000 700000 0  900000 700000 0  950000 700000 0  1000000 700000 0  0 750000 0  50000 750000 0  100000 750000 0  150000 750000 0  200000 750000 0  250000 750000 0  300000 750000 0  350000 750000 0  400000 750000 0  450000 750000 0  500000 750000 0  550000 750000 0  600000 750000 0  650000 750000 0  700000 750000 0  750000 750000 0  800000 750000 0  850000 750000 0  900000 750000 0  950000 750000 0  1000000 750000 0  0 800000 0  50000 800000 0  100000 800000 0  150000 800000 0  200000 800000 0  250000 800000 0  300000 800000 0  350000 800000 0  400000 800000 0  450000 800000 0  500000 800000 0  550000 800000 0  600000 800000 0  650000 800000 0  700000 800000 0  750000 800000 0  800000 800000 0  850000 800000 0  900000 800000 0  950000 800000 0  1000000 800000 0  0 850000 0  50000 850000 0  100000 850000 0  150000 850000 0  200000 850000 0  250000 850000 0  300000 850000 0  350000 850000 0  400000 850000 0  450000 850000 0  500000 850000 0  550000 850000 0  600000 850000 0  650000 850000 0  700000 850000 0  750000 850000 0  800000 850000 0  850000 850000 0  900000 850000 0  950000 850000 0  1000000 850000 0  0 900000 0  50000 900000 0  100000 900000 0  150000 900000 0  200000 900000 0  250000 900000 0  300000 900000 0  350000 900000 0  400000 900000 0  450000 900000 0  500000 900000 0  550000 900000 0  600000 900000 0  650000 900000 0  700000 900000 0  750000 900000 0  800000 900000 0  850000 900000 0  900000 900000 0  950000 900000 0  1000000 900000 0  0 950000 0  50000 950000 0  100000 950000 0  150000 950000 0  200000 950000 0  250000 950000 0  300000 950000 0  350000 950000 0  400000 950000 0  450000 950000 0  500000 950000 0  550000 950000 0  600000 950000 0  650000 950000 0  700000 950000 0  750000 950000 0  800000 950000 0  850000 950000 0  900000 950000 0  950000 950000 0  1000000 950000 0  0 1000000 0  50000 1000000 0  100000 1000000 0  150000 1000000 0  200000 1000000 0  250000 1000000 0  300000 1000000 0  350000 1000000 0  400000 1000000 0  450000 1000000 0  500000 1000000 0  550000 1000000 0  600000 1000000 0  650000 1000000 0  700000 1000000 0  750000 1000000 0  800000 1000000 0  850000 1000000 0  900000 1000000 0  950000 1000000 0  1000000 1000000 0  0 1050000 0  50000 1050000 0  100000 1050000 0  150000 1050000 0  200000 1050000 0  250000 1050000 0  300000 1050000 0  350000 1050000 0  400000 1050000 0  450000 1050000 0  500000 1050000 0  550000 1050000 0  600000 1050000 0  650000 1050000 0  700000 1050000 0  750000 1050000 0  800000 1050000 0  850000 1050000 0  900000 1050000 0  950000 1050000 0  1000000 1050000 0  0 1100000 0  50000 1100000 0  100000 1100000 0  150000 1100000 0  200000 1100000 0  250000 1100000 0  300000 1100000 0  350000 1100000 0  400000 1100000 0  450000 1100000 0  500000 1100000 0  550000 1100000 0  600000 1100000 0  650000 1100000 0  700000 1100000 0  750000 1100000 0  800000 1100000 0  850000 1100000 0  900000 1100000 0  950000 1100000 0  1000000 1100000 0  0 1150000 0  50000 1150000 0  100000 1150000 0  150000 1150000 0  200000 1150000 0  250000 1150000 0  300000 1150000 0  350000 1150000 0  400000 1150000 0  450000 1150000 0  500000 1150000 0  550000 1150000 0  600000 1150000 0  650000 1150000 0  700000 1150000 0  750000 1150000 0  800000 1150000 0  850000 1150000 0  900000 1150000 0  950000 1150000 0  1000000 1150000 0  0 1200000 0  50000 1200000 0  100000 1200000 0  150000 1200000 0  200000 1200000 0  250000 1200000 0  300000 1200000 0  350000 1200000 0  400000 1200000 0  450000 1200000 0  500000 1200000 0  550000 1200000 0  600000 1200000 0  650000 1200000 0  700000 1200000 0  750000 1200000 0  800000 1200000 0  850000 1200000 0  900000 1200000 0  950000 1200000 0  1000000 1200000 0  0 1250000 0  50000 1250000 0  100000 1250000 0  150000 1250000 0  200000 1250000 0  250000 1250000 0  300000 1250000 0  350000 1250000 0  400000 1250000 0  450000 1250000 0  500000 1250000 0  550000 1250000 0  600000 1250000 0  650000 1250000 0  700000 1250000 0  750000 1250000 0  800000 1250000 0  850000 1250000 0  900000 1250000 0  950000 1250000 0  1000000 1250000 0  0 1300000 0  50000 1300000 0  100000 1300000 0  150000 1300000 0  200000 1300000 0  250000 1300000 0  300000 1300000 0  350000 1300000 0  400000 1300000 0  450000 1300000 0  500000 1300000 0  550000 1300000 0  600000 1300000 0  650000 1300000 0  700000 1300000 0  750000 1300000 0  800000 1300000 0  850000 1300000 0  900000 1300000 0  950000 1300000 0  1000000 1300000 0  0 1350000 0  50000 1350000 0  100000 1350000 0  150000 1350000 0  200000 1350000 0  250000 1350000 0  300000 1350000 0  350000 1350000 0  400000 1350000 0  450000 1350000 0  500000 1350000 0  550000 1350000 0  600000 1350000 0  650000 1350000 0  700000 135
[...]
<PointData  Scalars="f_10483"> 
<DataArray  type="Float64"  Name="f_10483"  format="ascii">-2.3164931068246369e-01  -8.1898882542495263e-02  -4.0033280745312295e-02  -2.3236674799020120e-02  -1.5189908923079608e-02  -1.0429789946024707e-02  -7.1028095322852617e-03  -4.4842832976829065e-03  -2.2409944062296359e-03  -1.9520449064994229e-04  1.7641007405229342e-03  3.7219779553364345e-03  5.7627927089868060e-03  7.9948588939676470e-03  1.0588084027651773e-02  1.3849621120067483e-02  1.8410111559290326e-02  2.5862115407326535e-02  4.1994470343495544e-02  9.4538644915513198e-02  2.3268463485536717e-01  -1.1527244641957413e-01  -7.5739397307101136e-02  -4.3568640558191360e-02  -2.6813276086492102e-02  -1.7694655745307323e-02  -1.2058180316560453e-02  -8.1466548922323519e-03  -5.1406422051251772e-03  -2.6272959761491567e-03  -3.7635032568025063e-04  1.7592642341903951e-03  3.8936239804742839e-03  6.1407151926062319e-03  8.6474840685825220e-03  1.1644956672843295e-02  1.5553051870879107e-02  2.1238500570549716e-02  3.0716157166288061e-02  4.8865571474061023e-02  8.3859836301362414e-02  1.2500650665084490e-01  -5.5695164210901475e-02  -4.9536479989482851e-02  -3.7506676925022790e-02  -2.6782947749646586e-02  -1.8840148338616563e-02  -1.3189576224014113e-02  -9.0195496687734047e-03  -5.7466368957019495e-03  -3.0034771392690282e-03  -5.5585874442987246e-04  1.7589644685815854e-03  4.0731562161153440e-03  6.5192916209210914e-03  9.2619802329148467e-03  1.2541730355090423e-02  1.6747501666839026e-02  2.2535852373395709e-02  3.0944266742816966e-02  4.2977200780043447e-02  5.6145465270202879e-02  5.7625785654857056e-02  -3.2419144895006753e-02  -3.2854713573054743e-02  -2.8975281261314531e-02  -2.2962793172453696e-02  -1.7340558888455686e-02  -1.2696023698373964e-02  -8.9194646934441894e-03  -5.7765074351149243e-03  -3.0542192685067073e-03  -5.8366246509160735e-04  1.7702382909722423e-03  4.1257880984617570e-03  6.6023955473749115e-03  9.3392486098266107e-03  1.2515323615825668e-02  1.6365181195250884e-02  2.1158955420438875e-02  2.7028324820931482e-02  3.3346019779198634e-02  3.7220473893309132e-02  3.5130169523140034e-02  -2.1061643358053599e-02  -2.2378476748281403e-02  -2.1485658903915763e-02  -1.8424440509692577e-02  -1.4822786591850465e-02  -1.1345058134743772e-02  -8.2031831410350527e-03  -5.4005228287586343e-03  -2.8633443370315666e-03  -5.0036484083473051e-04  1.7783874842040028e-03  4.0598225909600867e-03  6.4318746606052126e-03  8.9879255384195788e-03  1.1825904931232877e-02  1.5029845301780463e-02  1.8605130379894988e-02  2.2313456089075426e-02  2.5379456818331148e-02  2.6146397454962750e-02  2.4330282194306878e-02  -1.4438745036584384e-02  -1.5675509120425677e-02  -1.5835466076419554e-02  -1.4350544924872291e-02  -1.2115414699271765e-02  -9.6206578809827411e-03  -7.1335818505131494e-03  -4.7551680828973779e-03  -2.4976810659438162e-03  -3.3276517304481589e-04  1.7844424739094885e-03  3.9045127104954348e-03  6.0786376612149843e-03  8.3534868293773778e-03  1.0759883872587958e-02  1.3286433499917955e-02  1.5826007613009573e-02  1.8088658970320387e-02  1.9523294584490071e-02  1.9288468551158424e-02  1.7880847183214980e-02  -1.0146593868861808e-02  -1.1177666092023281e-02  -1.1679218785398337e-02  -1.0999028764274613e-02  -9.6222310726543341e-03  -7.8624864085596012e-03  -5.9422583809770040e-03  -3.9828587405997245e-03  -2.0369826735347463e-03  -1.1657931926773365e-04  1.7877912198216829e-03  3.6945783567713052e-03  5.6224299900391071e-03  7.5811805184131465e-03  9.5586906293140279e-03  1.1499639915437542e-02  1.3274811219490569e-02  1.4648878570746680e-02  1.5282020980106654e-02  1.4742145834163452e-02  1.3640822600550915e-02  -7.1947343617312460e-03  -8.0356183360135811e-03  -8.6152702055830154e-03  -8.3428847768704552e-03  -7.4909404894153570e-03  -6.2491556193798713e-03  -4.7793933460153612e-03  -3.1906360178635632e-03  -1.5474438442075549e-03  1.1708630200910940e-04  1.7888042391113357e-03  3.4622515953072735e-03  5.1318977984049921e-03  6.7832002915842304e-03  8.3818045956990557e-03  9.8601533624395228e-03  1.1103683363790839e-02  1.1944422893469298e-02  1.2181266072197364e-02  1.1581472518621421e-02  1.0708752887807800e-02  -5.0944547798275229e-03  -5.7795198832568655e-03  -6.3398675893701802e-03  -6.2732494438394494e-03  -5.7407568808251104e-03  -4.8551374147780347e-03  -3.7282696494131871e-03  -2.4478424965463505e-03  -1.0762502100734785e-03  3.4494100335974659e-04  1.7880797509144931e-03  3.2322843416913963e-03  4.6564926795065274e-03  6.0324148397246776e-03  7.3171316379253889e-03  8.4459299076298129e-03  9.3278086231598639e-03  9.8483333145514048e-03  9.8891573441587371e-03  9.3179050035419961e-03  8.6182285401708216e-03  -3.5721327466263541e-03  -4.1337659029405125e-03  -4.6422174499304121e-03  -4.6777564628088719e-03  -4.3407571586089920e-03  -3.6982398947703753e-03  -2.8264329809951200e-03  -1.7928337820803939e-03  -6.5242503284475533e-04  5.5192350257981734e-04  1.7862435999879496e-03  3.0211161835630193e-03  4.2269350949526354e-03  5.3691363367161663e-03  6.4037754989533400e-03  7.2743323758823588e-03  7.9114836282297672e-03  8.2380798024543119e-03  8.1839330552405266e-03  7.6695385509924843e-03  7.1015332446748803e-03  -2.4615800829670869e-03  -2.9273274149783195e-03  -3.3779521278952777e-03  -3.4622320721507528e-03  -3.2458697034242769e-03  -2.7690829543620000e-03  -2.0841866660335612e-03  -1.2426191688439828e-03  -2.9108857349367979e-04  7.2966045758092013e-04  1.7838015405813293e-03  2.8381561953302074e-03  3.8593955234480838e-03  4.8112400732705455e-03  5.6522032330103694e-03  6.3346384801801240e-03  6.8061413016449017e-03  7.0141690320328458e-03  6.9165214246907410e-03  6.4626910626157013e-03  5.9945506190419665e-03  -1.6566429048002873e-03  -2.0496135442377964e-03  -2.4477448864483565e-03  -2.5535212167893911e-03  -2.4120344051317441e-03  -2.0478422982212635e-03  -1.4977147213824360e-03  -8.0134375606858192e-04  1.8471154593986174e-06  8.7443097630372649e-04  1.7811004129487530e-03  2.6877926490077976e-03  3.5603394265429815e-03  4.3631266951399119e-03  5.0582573912928306e-03  5.6057662947256413e-03  5.9654667875669891e-03  6.1006276880614680e-03  5.9853861437060606e-03  5.5855653577223541e-03  5.1920466350568930e-03  -1.0877452250661090e-03  -1.4275210956245774e-03  -1.7831531559528632e-03  -1.8971116768800194e-03  -1.8019066501795162e-03  -1.5130153592748654e-03  -1.0573587901127098e-03  -4.6651991068509730e-04  2.2575398951260256e-04  9.8531809451683273e-04  1.7783433190585616e-03  2.5713081655085951e-03  3.3306240875947074e-03  4.0222717857433896e-03  4.6118283334123742e-03  5.0652491203729035e-03  5.3507079688418580e-03  5.4413986911714752e-03  5.3209855385932753e-03  4.9644958940567073e-03  4.6249144432233599e-03  -7.0929179833480779e-04  -1.0128245985912294e-03  -1.3377061898952789e-03  -1.4540215820909397e-03  -1.3865740997697287e-03  -1.1457446028641733e-03  -7.5248796933190146e-04  -2.3316656122272008e-04  3.8243772264395857e-04  1.0627957969103336e-03  1.7756249072180480e-03  2.4883805408477022e-03  3.1684799433327987e-03  3.7835336830704096e-03  4.3018619671455561e-03  4.6935312320053818e-03  4.9320671277547339e-03  4.9966207593317956e-03  4.8762854057955813e-03  4.5509964087521327e-03  4.2478260713301819e-03  -4.9256089785883791e-04  -7.7499112282291703e-04  -1.0813959156902306e-03  -1.1982166488488761e-03  -1.1457470711627186e-03  -9.3182702808444046e-04  -5.7421215660009232e-04  -9.6363074116912774e-05  4.7425627955590750e-04  1.1077622880059930e-03  1.7729673364029464e-03  2.4381264602392838e-03  3.0714775886169754e-03  3.6417858778958500e-03  4.1191024322961688e-03  4.4759003377778332e-03  4.6886761481377383e-03  4.7397342171859782e-03  4.6209840324715765e-03  4.3144193524902374e-03  4.0322306208214085e-03  -4.2167726313135868e-04  -6.9709661332549848e-04  -9.9738866679045172e-04  -1.1148107607925574e-03  -1.0674939254706219e-03  -8.6258359731788395e-04  -5.1680957758324850e-04  -5.2713705211071432e-05  5.0298440940213052e-04  1.1209422937321798e-03  1.7703499629751476e-03  2.4197576322187182e-03  3.0377155165506667e-03  3.5934136311665497e-03  4.0575095035416614e-03  4.4032835232790321e-03  4.6081938514336493e-03  4.6555106867565213e-03  4.5380885927544350e-03  4.2377965392891718e-03  3.9623771890950326e-03  -4.9153069485803798e-04  -7.7371942652680365e-04  -1.0802841065077719e-03  -1.1990342912222552e-03  -1.1479762221749048e-03  -9.3520041181701806e-04  -5.7840250633809395e-04  -1.0108595194085026e-04  4.6922233733520549e-04  1.1025734657109931e-03  1.7677325895466569e-03  2.4329376379442639e-03  3.0664436463962463e-03  3.6370630000717432e-03  4.1149120825579753e-03  4.4725269540450896e-03  4.6864469971254121e-03  4.7389165748124617e-03  4.6220958416539034e-03  4.3156910487862485e-03  4.0332608238221263e-03  -7.0712614536799334e-04  -1.0102964827896836e-03  -1.3355854798326285e-03  -1.4559208333687834e-03  -1.3913672017927630e-03  -1.1528313060456578e-03  -7.6116204118883925e-04  -2.4283375711711233e-04  3.7221998261750063e-04  1.0523193851005395e-03  1.7650750187294111e-03  2.4779041290377999e-03  3.1582622033061768e-03  3.7738664871758017e-03  4.2931878952883655e-03  4.6864445288236677e-03  4.9272740257314124e-03  4.9947215080535980e-03  4.8784061158581270e-03  4.5535245245536494e-03  4.2499917242969790e-03  -1.0842145172629129e-03  -1.4237959680957373e-03  -1.7802856126315132e-03  -1.9006987652096304e-03  -1.8100080428813232e-03  -1.5245491944150681e-03  -1.0711284074581273e-03  -4.8157185979313147e-04  2.1007583835209794e-04  9.6939176043579355e-04  1.7623566068849571e-03  2.5553818314274488e-03  3.3149459364339561e-03  4.0072198366349950e-03  4.5980587160665155e-03  5.0537152852322209e-03  5.3426065761396037e-03  5.4378116028414121e-03  5.3238530819142756e-03  4.9682210215852190e-03  4.6284451510262793e-03  -1.6513467090989761e-03  -2.0448654317635493e-03  -2.4446862177460028e-03  -2.5599277621014714e-03  -2.4247668616087319e-03  -2.0650663687708866e-03  -1.5175574653426148e-03  -8.2242676919459085e-04  -1.9639500601864327e-05  8.5290727693042886e-04  1.7595995129884104e-03  2.6662689496343480e-03  3.5388528104813837e-03  4.3420436820133567e-03  5.0384146473319586e-03  5.5885422241752853e-03  5.9527343310893793e-03  6.0942211427487958e-03  5.9884448124078440e-03  5.5903134701961793e-03  5.1973428307578512e-03  -2.4538506930869958e-03  -2.9219911366592240e-03  -3.3758214987325841e-03  -3.4734691060750232e-03  -3.2654413756897181e-03  -2.7939385542297508e-03  -2.1115033070661150e-03  -1.2705401473325840e-03  -3.1869559751538095e-04  7.0254373059890876e-04  1.7568983853464698e-03  2.8110394683479715e-03  3.8317884994258839e-03  4.7833190947812829e-03  5.6248865919769735e-03  6.3097828803114105e-03  6.7865696293784861e-03  7.0029319981076751e-03  6.9186520538527313e-03  6.4680273409342369e-03  6.0022800089216018e-03  -3.5608333187228921e-03  -4.1288386250382973e-03  -4.6432331292841668e-03  -4.6973798764989800e-03  -4.3707837022787521e-03  -3.7336324499383667e-03  -2.8630755730176920e-03  -1.8284364107887204e-03  -6.8623516903184667e-04  5.1958374235342092e-04  1.7544563259268620e-03  2.9887764233363229e-03  4.1931249587649766e-03  5.3335337080071092e-03  6.3671329069297875e-03  7.2389398207131674e-03  7.8814570845587174e-03  8.2184563887630034e-03  8.1829173758857995e-03  7.6744658288939891e-03  7.1128326725775314e-03  -5.0775286142214875e-03  -5.7772050775892732e-03  -6.3484574182035829e-03  -6.3076333885987044e-03  -5.7871086972143167e-03  -4.9052299816944797e-03  -3.7764317120014650e-03  -2.4917149138112093e-03  -1.1157927536013820e-03  3.0841558420839453e-04  1.7526201749833701e-03  3.1957589225397637e-03  4.6169501359779944e-03  5.9885424224589250e-03  7.2689695753359483e-03  8.3958373407118491e-03  9.2814568067690270e-03  9.8139493697905564e-03  9.8805675153240177e-03  9.3202198092086509e-03  8.6351547057762369e-03  -7.1680529618590571e-03  -8.0407725926678730e-03  -8.6405661462418386e-03  -8.4037229675192164e-03  -7.5629834378520729e-03  -6.3194534365153873e-03  -4.8411046697900677e-03  -3.2425003656884228e-03  -1.5911978725191549e-03  7.8448330572409281e-05  1.7518956867661843e-03  3.4236136238702825e-03  5.0881437700928001e-03  6.7313359437584279e-03  8.3200932719229900e-03  9.7898555453021559e-03  1.1031640415352106e-02  1.1883584702818462e-02  1.2155970131536643e-02  1.1576318261965726e-02  1.0735434287679235e-02  -1.0100122674598750e-02  -1.1201445908205382e-02  -1.1741321054148339e-02  -1.1108178644798586e-02  -9.7341112935598276e-03  -7.9589399895270748e-03  -6.0179907034226179e-03  -4.0404805925373663e-03  -2.0817300641744808e-03  -1.5387843091339097e-04  1.7529087060339410e-03  3.6572792451253673e-03  5.5776825993987733e-03  7.5235586664744985e-03  9.4829583068669013e-03  1.1403186334467970e-02  1.3162930998582558e-02  1.4539728690220233e-02  1.5219918711354459e-02  1.4718366017979566e-02  1.3687293794813111e-02  -1.4340147257251697e-02  -1.5747768625188521e-02  -1.5982594658523853e-02  -1.4547959044372524e-02  -1.2285307687087493e-02  -9.7457335740223569e-03  -7.2191839467148147e-03  -4.8127869035212876e-03  -2.5379377353705861e-03  -3.6381278465780605e-04  1.7562574519259418e-03  3.8734650988822717e-03  6.0383809917877737e-03  8.2958680087525487e-03  1.0674281776384907e-02  1.3161357806876436e-02  1.5656114625191068e-02  1.7891244850816859e-02  1.9376166002382365e-02  1.9216209046393169e-02  1.7979444962546696e-02  -2.0789582268318861e-02  -2.2605697528968727e-02  -2.1838756892349678e-02  -1.8772756163124897e-02  -1.5064430453980010e-02  -1.1489145375897482e-02  -8.2852050053744235e-03  -5.4472256125786241e-03  -2.8911747347756377e-03  -5.1912266513686964e-04  1.7623124416171684e-03  4.0410647666577907e-03  6.4040442628607100e-03  8.9412227545987554e-03  1.1743883066892263e-02  1.4885758060625087e-02  1.8363486517762422e-02  2.1965140435639043e-02  2.5026358829892563e-02  2.5919176674271752e-02  2.4602343284040450e-02  -3.1589469597103445e-02  -3.3679773967270496e-02  -2.9805319853191365e-02  -2.3487624894972386e-02  -1.7618255494525076e-02  -1.2824481269372731e-02  -8.9746236899728802e-03  -5.7985486839912340e-03  -3.0616956215504805e-03  -5.8508817264345345e-04  1.7704616348440646e-03  4.1243623909097294e-03  6.5949191943306066e-03  9.3172073609494779e-03  1.2460164619295869e-02  1.6236723624250604e-02  2.0881258814366956e-02  2.6503493098408600e-02  3.2515981187315350e-02  3.6395413499086988e-02  3.5959844821042024e-02  -5.4085085728721408e-02  -5.2604765344086493e-02  -3.9436500853995644e-02  -2.7403566816838334e-02  -1.8995152447470763e-02  -1.3206801740952314e-02  -9.0010304292305835e-03  -5.7212803070731426e-03  -2.9785916950911652e-03  -5.3245629029187501e-04  1.7817354572397463e-03  4.0965586702530971e-03  6.5441770650984561e-03  9.2873368215425651e-03  1.2560249594631989e-02  1.6730276149899036e-02  2.2380848264539139e-02  3.0323647675620759e-02  4.1047376851060191e-02  5.3077179915583167e-02  5.9235864137029602e-02  -1.2146580672449882e-01  -8.0319136375132896e-02  -4.5324871547956898e-02  -2.7175457240272812e-02  -1.7697800644597063e-02  -1.2012351944970632e-02  -8.1042567469656046e-03  -5.1067841427260745e-03  -2.6000152667633994e-03  -3.5292405463914180e-04  1.7814356916422023e-03  3.9170502515151577e-03  6.1679959019914554e-03  8.6813421309808059e-03  1.1687354818108847e-02  1.5598880242467021e-02  2.1235355671257415e-02  3.0353976012503336e-02  4.7109340484287728e-02  7.9280097233313918e-02  1.1881314634587287e-01  -2.2914393492897173e-01  -9.0997944989201482e-02  -3.8453770417341035e-02  -2.2321415481281900e-02  -1.4869411633318445e-02  -1.0308921194144796e-02  -7.0473841017629664e-03  -4.4541589681021034e-03  -2.2220927831360705e-03  -1.8127802949412515e-04  1.7765991853166986e-03  3.7359044164920444e-03  5.7816943320800635e-03  8.0249832235480077e-03  1.0643509458173441e-02  1.3970489871946396e-02  1.8730608849050114e-02  2.6777374725060504e-02  4.3573980671453884e-02  8.5439582468787176e-02  2.3519001060891567e-01  </DataArray> 
</PointData> 
</Piece>
</UnstructuredGrid>
</VTKFile>