<?xml version="1.0"?>
<VTKFile type="UnstructuredGrid"  version="0.1"  >
<UnstructuredGrid>
<Piece  NumberOfPoints="651" NumberOfCells="1200">
<Points>
<DataArray  type="Float64"  NumberOfComponents="3"  format="ascii">0 0 0  50000 0 0  100000 0 0  150000 0 0  200000 0 0  250000 0 0  300000 0 0  350000 0 0  400000 0 0  450000 0 0  500000 0 0  550000 0 0  600000 0 0  650000 0 0  700000 0 0  750000 0 0  800000 0 0  850000 0 0  900000 0 0  950000 0 0  1000000 0 0  0 50000 0  50000 50000 0  100000 50000 0  150000 50000 0  200000 50000 0  250000 50000 0  300000 50000 0  350000 50000 0  400000 50000 0  450000 50000 0  500000 50000 0  550000 50000 0  600000 50000 0  650000 50000 0  700000 50000 0  750000 50000 0  800000 50000 0  850000 50000 0  900000 50000 0  950000 50000 0  1000000 50000 0  0 100000 0  50000 100000 0  100000 100000 0  150000 100000 0  200000 100000 0  250000 100000 0  300000 100000 0  350000 100000 0  400000 100000 0  450000 100000 0  500000 100000 0  550000 100000 0  600000 100000 0  650000 100000 0  700000 100000 0  750000 100000 0  800000 100000 0  850000 100000 0  900000 100000 0  950000 100000 0  1000000 100000 0  0 150000 0  50000 150000 0  100000 150000 0  150000 150000 0  200000 150000 0  250000 150000 0  300000 150000 0  350000 150000 0  400000 150000 0  450000 150000 0  500000 150000 0  550000 150000 0  600000 150000 0  650000 150000 0  700000 150000 0  750000 150000 0  800000 150000 0  850000 150000 0  900000 150000 0  950000 150000 0  1000000 150000 0  0 200000 0  50000 200000 0  100000 200000 0  150000 200000 0  200000 200000 0  250000 200000 0  300000 200000 0  350000 200000 0  400000 200000 0  450000 200000 0  500000 200000 0  550000 200000 0  600000 200000 0  650000 200000 0  700000 200000 0  750000 200000 0  800000 200000 0  850000 200000 0  900000 200000 0  950000 200000 0  1000000 200000 0  0 250000 0  50000 250000 0  100000 250000 0  150000 250000 0  200000 250000 0  250000 250000 0  300000 250000 0  350000 250000 0  400000 250000 0  450000 250000 0  500000 250000 0  550000 250000 0  600000 250000 0  650000 250000 0  700000 250000 0  750000 250000 0  800000 250000 0  850000 250000 0  900000 250000 0  950000 250000 0  1000000 250000 0  0 300000 0  50000 300000 0  100000 300000 0  150000 300000 0  200000 300000 0  250000 300000 0  300000 300000 0  350000 300000 0  400000 300000 0  450000 300000 0  500000 300000 0  550000 300000 0  600000 300000 0  650000 300000 0  700000 300000 0  750000 300000 0  800000 300000 0  850000 300000 0  900000 300000 0  950000 300000 0  1000000 300000 0  0 350000 0  50000 350000 0  100000 350000 0  150000 350000 0  200000 350000 0  250000 350000 0  300000 350000 0  350000 350000 0  400000 350000 0  450000 350000 0  500000 350000 0  550000 350000 0  600000 350000 0  650000 350000 0  700000 350000 0  750000 350000 0  800000 350000 0  850000 350000 0  900000 350000 0  950000 350000 0  1000000 350000 0  0 400000 0  50000 400000 0  100000 400000 0  150000 400000 0  200000 400000 0  250000 400000 0  300000 400000 0  350000 400000 0  400000 400000 0  450000 400000 0  500000 400000 0  550000 400000 0  600000 400000 0  650000 400000 0  700000 400000 0  750000 400000 0  800000 400000 0  850000 400000 0  900000 400000 0  950000 400000 0  1000000 400000 0  0 450000 0  50000 450000 0  100000 450000 0  150000 450000 0  200000 450000 0  250000 450000 0  300000 450000 0  350000 450000 0  400000 450000 0  450000 450000 0  500000 450000 0  550000 450000 0  600000 450000 0  650000 450000 0  700000 450000 0  750000 450000 0  800000 450000 0  850000 450000 0  900000 450000 0  950000 450000 0  1000000 450000 0  0 500000 0  50000 500000 0  100000 500000 0  150000 500000 0  200000 500000 0  250000 500000 0  300000 500000 0  350000 500000 0  400000 500000 0  450000 500000 0  500000 500000 0  550000 500000 0  600000 500000 0  650000 500000 0  700000 500000 0  750000 500000 0  800000 500000 0  850000 500000 0  900000 500000 0  950000 500000 0  1000000 500000 0  0 550000 0  50000 550000 0  100000 550000 0  150000 550000 0  200000 550000 0  250000 550000 0  300000 550000 0  350000 550000 0  400000 550000 0  450000 550000 0  500000 550000 0  550000 550000 0  600000 550000 0  650000 550000 0  700000 550000 0  750000 550000 0  800000 550000 0  850000 550000 0  900000 550000 0  950000 550000 0  1000000 550000 0  0 600000 0  50000 600000 0  100000 600000 0  150000 600000 0  200000 600000 0  250000 600000 0  300000 600000 0  350000 600000 0  400000 600000 0  450000 600000 0  500000 600000 0  550000 600000 0  600000 600000 0  650000 600000 0  700000 600000 0  750000 600000 0  800000 600000 0  850000 600000 0  900000 600000 0  950000 600000 0  1000000 600000 0  0 650000 0  50000 650000 0  100000 650000 0  150000 650000 0  200000 650000 0  250000 650000 0  300000 650000 0  350000 650000 0  400000 650000 0  450000 650000 0  500000 650000 0  550000 650000 0  600000 650000 0  650000 650000 0  700000 650000 0  750000 650000 0  800000 650000 0  850000 650000 0  900000 650000 0  950000 650000 0  1000000 650000 0  0 700000 0  50000 700000 0  100000 700000 0  150000 700000 0  200000 700000 0  250000 700000 0  300000 700000 0  350000 700000 0  400000 700000 0  450000 700000 0  500000 700000 0  550000 700000 0  600000 700000 0  650000 700000 0  700000 700000 0  750000 700000 0  800000 700000 0  850000 700000 0  900000 700000 0  950000 700000 0  1000000 700000 0  0 750000 0  50000 750000 0  100000 750000 0  150000 750000 0  200000 750000 0  250000 750000 0  300000 750000 0  350000 750000 0  400000 750000 0  450000 750000 0  500000 750000 0  550000 750000 0  600000 750000 0  650000 750000 0  700000 750000 0  750000 750000 0  800000 750000 0  850000 750000 0  900000 750000 0  950000 750000 0  1000000 750000 0  0 800000 0  50000 800000 0  100000 800000 0  150000 800000 0  200000 800000 0  250000 800000 0  300000 800000 0  350000 800000 0  400000 800000 0  450000 800000 0  500000 800000 0  550000 800000 0  600000 800000 0  650000 800000 0  700000 800000 0  750000 800000 0  800000 800000 0  850000 800000 0  900000 800000 0  950000 800000 0  1000000 800000 0  0 850000 0  50000 850000 0  100000 850000 0  150000 850000 0  200000 850000 0  250000 850000 0  300000 850000 0  350000 850000 0  400000 850000 0  450000 850000 0  500000 850000 0  550000 850000 0  600000 850000 0  650000 850000 0  700000 850000 0  750000 850000 0  800000 850000 0  850000 850000 0  900000 850000 0  950000 850000 0  1000000 850000 0  0 900000 0  50000 900000 0  100000 900000 0  150000 900000 0  200000 900000 0  250000 900000 0  300000 900000 0  350000 900000 0  400000 900000 0  450000 900000 0  500000 900000 0  550000 900000 0  600000 900000 0  650000 900000 0  700000 900000 0  750000 900000 0  800000 900000 0  850000 900000 0  900000 900000 0  950000 900000 0  1000000 900000 0  0 950000 0  50000 950000 0  100000 950000 0  150000 950000 0  200000 950000 0  250000 950000 0  300000 950000 0  350000 950000 0  400000 950000 0  450000 950000 0  500000 950000 0  550000 950000 0  600000 950000 0  650000 950000 0  700000 950000 0  750000 950000 0  800000 950000 0  850000 950000 0  900000 950000 0  950000 950000 0  1000000 950000 0  0 1000000 0  50000 1000000 0  100000 1000000 0  150000 1000000 0  200000 1000000 0  250000 1000000 0  300000 1000000 0  350000 1000000 0  400000 1000000 0  450000 1000000 0  500000 1000000 0  550000 1000000 0  600000 1000000 0  650000 1000000 0  700000 1000000 0  750000 1000000 0  800000 1000000 0  850000 1000000 0  900000 1000000 0  950000 1000000 0  1000000 1000000 0  0 1050000 0  50000 1050000 0  100000 1050000 0  150000 1050000 0  200000 1050000 0  250000 1050000 0  300000 1050000 0  350000 1050000 0  400000 1050000 0  450000 1050000 0  500000 1050000 0  550000 1050000 0  600000 1050000 0  650000 1050000 0  700000 1050000 0  750000 1050000 0  800000 1050000 0  850000 1050000 0  900000 1050000 0  950000 1050000 0  1000000 1050000 0  0 1100000 0  50000 1100000 0  100000 1100000 0  150000 1100000 0  200000 1100000 0  250000 1100000 0  300000 1100000 0  350000 1100000 0  400000 1100000 0  450000 1100000 0  500000 1100000 0  550000 1100000 0  600000 1100000 0  650000 1100000 0  700000 1100000 0  750000 1100000 0  800000 1100000 0  850000 1100000 0  900000 1100000 0  950000 1100000 0  1000000 1100000 0  0 1150000 0  50000 1150000 0  100000 1150000 0  150000 1150000 0  200000 1150000 0  250000 1150000 0  300000 1150000 0  350000 1150000 0  400000 1150000 0  450000 1150000 0  500000 1150000 0  550000 1150000 0  600000 1150000 0  650000 1150000 0  700000 1150000 0  750000 1150000 0  800000 1150000 0  850000 1150000 0  900000 1150000 0  950000 1150000 0  1000000 1150000 0  0 1200000 0  50000 1200000 0  100000 1200000 0  150000 1200000 0  200000 1200000 0  250000 1200000 0  300000 1200000 0  350000 1200000 0  400000 1200000 0  450000 1200000 0  500000 1200000 0  550000 1200000 0  600000 1200000 0  650000 1200000 0  700000 1200000 0  750000 1200000 0  800000 1200000 0  850000 1200000 0  900000 1200000 0  950000 1200000 0  1000000 1200000 0  0 1250000 0  50000 1250000 0  100000 1250000 0  150000 1250000 0  200000 1250000 0  250000 1250000 0  300000 1250000 0  350000 1250000 0  400000 1250000 0  450000 1250000 0  500000 1250000 0  550000 1250000 0  600000 1250000 0  650000 1250000 0  700000 1250000 0  750000 1250000 0  800000 1250000 0  850000 1250000 0  900000 1250000 0  950000 1250000 0  1000000 1250000 0  0 1300000 0  50000 1300000 0  100000 1300000 0  150000 1300000 0  200000 1300000 0  250000 1300000 0  300000 1300000 0  350000 1300000 0  400000 1300000 0  450000 1300000 0  500000 1300000 0  550000 1300000 0  600000 1300000 0  650000 1300000 0  700000 1300000 0  750000 1300000 0  800000 1300000 0  850000 1300000 0  900000 1300000 0  950000 1300000 0  1000000 1300000 0  0 1350000 0  50000 1350000 0  100000 1350000 0  150000 1350000 0  200000 1350000 0  250000 1350000 0  300000 1350000 0  350000 1350000 0  400000 1350000 0  450000 1350000 0  500000 1350000 0  550000 1350000 0  600000 1350000 0  650000 1350000 0  700000 135
[...]
<PointData  Scalars="f_10483"> 
<DataArray  type="Float64"  Name="f_10483"  format="ascii">-2.8046127825886830e-01  -9.7907625412622268e-02  -4.7384853806440363e-02  -2.7220085892854629e-02  -1.7645953480002273e-02  -1.2061778989910435e-02  -8.2264231569591645e-03  -5.2598220361989448e-03  -2.7548789153494075e-03  -4.9331929299314861e-04  1.6615916159001009e-03  3.8147104978846491e-03  6.0700573527474079e-03  8.5611113886541693e-03  1.1496773078115292e-02  1.5253027020259826e-02  2.0596840636548982e-02  2.9449276875541539e-02  4.8783104698402920e-02  1.1237682824392442e-01  2.8130134793248074e-01  -1.3868140570654405e-01  -9.0691059437780511e-02  -5.1899383956311614e-02  -3.1717311779616376e-02  -2.0807055017894992e-02  -1.4134289069257943e-02  -9.5679188394579093e-03  -6.1111105421429359e-03  -3.2597344069681183e-03  -7.3146651831795828e-04  1.6546192254860306e-03  4.0391251934811835e-03  6.5625436596245118e-03  9.4056414239477703e-03  1.2851601155108904e-02  1.7412791364694348e-02  2.4142067249682427e-02  3.5480969100873554e-02  5.7351333572044305e-02  9.9710526075948991e-02  1.4967135251444583e-01  -6.6674877260303259e-02  -5.9267523358234493e-02  -4.4773653223368792e-02  -3.1860101972185001e-02  -2.2345830873201043e-02  -1.5630192508871089e-02  -1.0725131992558510e-02  -6.9195808417199002e-03  -3.7647850454639990e-03  -9.7371876095061561e-04  1.6537079281963268e-03  4.2803318751709332e-03  7.0694958540500367e-03  1.0223563532912879e-02  1.4037184220373082e-02  1.8985172231696684e-02  2.5866871461555717e-02  3.5944354831405019e-02  5.0443971740668302e-02  6.6349485409075010e-02  6.8066271747386498e-02  -3.8736190051331165e-02  -3.9278625770845781e-02  -3.4600010704474236e-02  -2.7371615675346288e-02  -2.0649456972242821e-02  -1.5133253749360486e-02  -1.0684919956351391e-02  -7.0165278508450522e-03  -3.8666216924336471e-03  -1.0273724981698391e-03  1.6677718629147418e-03  4.3649105330790397e-03  7.2114850339797133e-03  1.0379044646216383e-02  1.4087604833758283e-02  1.8624902163559245e-02  2.4322406836276646e-02  3.1344907475122606e-02  3.8939742596560238e-02  4.3610033810747580e-02  4.1082141175297647e-02  -2.5126166911742093e-02  -2.6721330035397717e-02  -2.5650590028016135e-02  -2.1989108172974330e-02  -1.7701021029803855e-02  -1.3582797359800341e-02  -9.8869098030620571e-03  -6.6137193848457530e-03  -3.6706145716340214e-03  -9.4402086453533314e-04  1.6778503199472298e-03  4.3029811395234379e-03  7.0405996563992039e-03  1.0006641223692162e-02  1.3322762497202325e-02  1.7094122340747343e-02  2.1331137957285161e-02  2.5749769300263837e-02  2.9417351018545843e-02  3.0333710037400902e-02  2.8144135907249367e-02  -1.7182867242859345e-02  -1.8687007583703119e-02  -1.8898306027810285e-02  -1.7143752641500944e-02  -1.4502604648399378e-02  -1.1564207213239452e-02  -8.6489851793339918e-03  -5.8760404938959770e-03  -3.2573309130345834e-03  -7.5581509945366922e-04  1.6854203983729310e-03  4.1301448423587501e-03  6.6428857659629297e-03  9.2827634599513490e-03  1.2089842143103907e-02  1.5053257552560340e-02  1.8046489085422543e-02  2.0721930432664043e-02  2.2416832881163379e-02  2.2114172323881531e-02  2.0406404855974811e-02  -1.2028444096220111e-02  -1.3293742490034215e-02  -1.3929776265169710e-02  -1.3151537684318395e-02  -1.1546186988064153e-02  -9.4909752146752555e-03  -7.2530442343432151e-03  -4.9768682714652129e-03  -2.7238964327752514e-03  -5.0628183163035423e-04  1.6896860387274808e-03  3.8886081252832612e-03  6.1153304545060799e-03  8.3840559145592821e-03  1.0682427151372523e-02  1.2945851390505051e-02  1.5020291052532971e-02  1.6623141058323139e-02  1.7345544610562352e-02  1.6662592704685907e-02  1.5312895736321197e-02  -8.4818259966926383e-03  -9.5255587937921309e-03  -1.0266387690831888e-02  -9.9851706434414527e-03  -9.0140383054402133e-03  -7.5815438227068710e-03  -5.8823645630560768e-03  -4.0467501125607298e-03  -2.1510267637863184e-03  -2.3334988390566268e-04  1.6910970780246715e-03  3.6176671428757132e-03  5.5416291391142021e-03  7.4473339026842906e-03  9.2951181045886483e-03  1.1005047650511504e-02  1.2440123411563163e-02  1.3398321999659214e-02  1.3637296128597005e-02  1.2871616711959020e-02  1.1789223325387350e-02  -5.9607657772573442e-03  -6.8215617094155310e-03  -7.5464779592209720e-03  -7.5173037805416672e-03  -6.9325203346135749e-03  -5.9282559761455814e-03  -4.6393021568639442e-03  -3.1706648107967155e-03  -1.5964796895714453e-03  3.4482392945392106e-05  1.6903760050286285e-03  3.3475869741632041e-03  4.9822844909077303e-03  6.5618549766286614e-03  8.0358961106648790e-03  9.3274725013411802e-03  1.0327564875414428e-02  1.0898302649764628e-02  1.0896704325114437e-02  1.0158219392263549e-02  9.2794487888849201e-03  -4.1383347444742423e-03  -4.8524745808034902e-03  -5.5188885033328290e-03  -5.6152142007571742e-03  -5.2667559261996210e-03  -4.5545925245054708e-03  -3.5707044871330041e-03  -2.3960086332097956e-03  -1.0959943409469535e-03  2.7869199151697239e-04  1.6882829168182434e-03  3.0985655475321478e-03  4.4751010973544539e-03  5.7774022323596125e-03  6.9535222041740815e-03  7.9361089243959078e-03  8.6420216317857450e-03  8.9781623163139885e-03  8.8595061884058461e-03  8.1856484987037643e-03  7.4635447274349542e-03  -2.8145562961879862e-03  -3.4130857141980281e-03  -4.0111250684866035e-03  -4.1670779050865612e-03  -3.9640574667913972e-03  -3.4507107484548780e-03  -2.6901995559565619e-03  -1.7442002585390309e-03  -6.6840619373113386e-04  4.8888451963714265e-04  1.6854340269798281e-03  2.8822601150045612e-03  4.0401982601331043e-03  5.1164611105424919e-03  6.0618491897006226e-03  6.8195263051591274e-03  7.3266280868617339e-03  7.5197080021691901e-03  7.3475944467793130e-03  6.7455319973014566e-03  6.1439502973313579e-03  -1.8603123837587520e-03  -2.3697140122167846e-03  -2.9039328314267210e-03  -3.0855832774496958e-03  -2.9723240743318750e-03  -2.5937023304639381e-03  -1.9940521576119388e-03  -1.2209173583913424e-03  -3.2130647497661949e-04  6.6034236158289347e-04  1.6822538393432035e-03  2.7042062180967484e-03  3.6858494164445799e-03  4.5850346507367691e-03  5.3567496677861398e-03  5.9533211560671411e-03  6.3265878207779073e-03  6.4322526816785169e-03  6.2390683644998890e-03  5.7027422609832699e-03  5.1926130423953437e-03  -1.1898731760320463e-03  -1.6331552097878955e-03  -2.1146194929509204e-03  -2.3053145779150905e-03  -2.2470747929707246e-03  -1.9582588232163484e-03  -1.4711986908086333e-03  -8.2363885658389487e-04  -5.5787229052170378e-05  7.9179049330715284e-04  1.6789927721803748e-03  2.5661310606910309e-03  3.4134348783439903e-03  4.1805698747092428e-03  4.8266285554585736e-03  5.3110344916645529e-03  5.5957326312005449e-03  5.6485220872047855e-03  5.4499028198054114e-03  4.9673878256603996e-03  4.5243386132681647e-03  -7.4630987739643113e-04  -1.1439733176807786e-03  -1.5866597524343646e-03  -1.7792401617354077e-03  -1.7536794960441497e-03  -1.5219891201533368e-03  -1.1091842018606591e-03  -5.4667440217851806e-04  1.3010110762445558e-04  8.8368371026432448e-04  1.6757694762393163e-03  2.4677718676893328e-03  3.2210574080985990e-03  3.8971909345514302e-03  4.4585273342770551e-03  4.8694372887690329e-03  5.0983639517177505e-03  5.1204152276630626e-03  4.9228696010940841e-03  4.4796990428154658e-03  4.0824978145916988e-03  -4.9334223096396130e-04  -8.6420061450951735e-04  -1.2833302606381786e-03  -1.4758015579116931e-03  -1.4677309430581101e-03  -1.2679390672056228e-03  -8.9749707514206111e-04  -3.8428281502314614e-04  2.3905897529121433e-04  9.3703105371625796e-04  1.6726142435293310e-03  2.4081444619736304e-03  3.1059365559679493e-03  3.7289130114256585e-03  4.2414953498071300e-03  4.6109590971082810e-03  4.8093685280762907e-03  4.8157225594071618e-03  4.6208587030128296e-03  4.2015454958365065e-03  3.8309993520157029e-03  -4.1074666200909330e-04  -7.7265498770829211e-04  -1.1839405574681754e-03  -1.3768938606374013e-03  -1.3748349100538310e-03  -1.1857161426167121e-03  -8.2934153563739407e-04  -3.3247049905083258e-04  2.7314958641050282e-04  9.5266656816486044e-04  1.6695050269664184e-03  2.3863434857688479e-03  3.0658604675259135e-03  3.6714805529910717e-03  4.1683515895817981e-03  4.5247261965649325e-03  4.7138449640046305e-03  4.7159039145894307e-03  4.5229506114201649e-03  4.1116650416598522e-03  3.7497567159606952e-03  -4.9198929806459533e-04  -8.6253544188534352e-04  -1.2818486490611546e-03  -1.4767125054555249e-03  -1.4703584741258256e-03  -1.2719490431605720e-03  -9.0248529586326094e-04  -3.8990295748613668e-04  2.3307349796757658e-04  9.3086559195917809e-04  1.6663958104025146e-03  2.4019790002165228e-03  3.0999510786442778e-03  3.7232928689624671e-03  4.2365071290856931e-03  4.6069491211531257e-03  4.8067409970084032e-03  4.8148116118631656e-03  4.6223403145897067e-03  4.2032106684605644e-03  3.8323522849149820e-03  -7.4348776064238342e-04  -1.1406889888658214e-03  -1.5838595471437263e-03  -1.7814051737125528e-03  -1.7593538977686222e-03  -1.5304272348229790e-03  -1.1195172803352056e-03  -5.5818088061437680e-04  1.1795264583420735e-04  8.7123818624054792e-04  1.6632405776894586e-03  2.4553263436654219e-03  3.2089089463081437e-03  3.8856844561153030e-03  4.4481942558021997e-03  4.8609991740991079e-03  5.0926895499929228e-03  5.1182502156854872e-03  4.9256698063846142e-03  4.4829833716304168e-03  4.0853199313457510e-03  -1.1853285593215292e-03  -1.6283777717130531e-03  -2.1108927658569417e-03  -2.3095120332561401e-03  -2.2567225772536421e-03  -1.9720244377213498e-03  -1.4876185015203504e-03  -8.4155982077658870e-04  -7.4424824416192869e-05  7.7287899323336541e-04  1.6600172817427907e-03  2.5472195606171043e-03  3.3947972829796525e-03  4.1626489105161049e-03  4.8102087447463035e-03  5.2972688771589626e-03  5.5860848469170823e-03  5.6443246318631938e-03  5.4536295468989903e-03  4.9721652637348792e-03  4.5288832299783836e-03  -1.8536029884525032e-03  -2.3637322070391930e-03  -2.9000583105540617e-03  -3.0932426277327191e-03  -2.9875777668344474e-03  -2.6143111021284739e-03  -2.0177396138537484e-03  -1.2460245968111555e-03  -3.4683936252483133e-04  6.3480383581895428e-04  1.6567562145710214e-03  2.6786676923326201e-03  3.6603165288959442e-03  4.5599274123162715e-03  5.3330622115434741e-03  5.9327123844017029e-03  6.3113341282745733e-03  6.4245933313947842e-03  6.2429428853718856e-03  5.7087240661603924e-03  5.1993224377012192e-03  -2.8049402433929014e-03  -3.4065219433608938e-03  -4.0085843928364317e-03  -4.1806979482267251e-03  -3.9876180329228381e-03  -3.4805162512267962e-03  -2.7228391357766845e-03  -1.7774510566272194e-03  -7.0118820622511364e-04  4.5674993889846180e-04  1.6535760269213821e-03  2.8501255342655994e-03  4.0074162476385093e-03  5.0832103124534784e-03  6.0292096098794479e-03  6.7897208023860100e-03  7.3030675207290821e-03  7.5060879590279324e-03  7.3501351224286764e-03  6.7520957681379643e-03  6.1535663501259639e-03  -4.1245346735008324e-03  -4.8466384447666405e-03  -5.5204961344657690e-03  -5.6391522623752965e-03  -5.3030115778528730e-03  -4.5970988704725230e-03  -3.6145121502620544e-03  -2.4383921784587939e-03  -1.1360910434627957e-03  2.4044450635350440e-04  1.6507271370651791e-03  3.0603180623683052e-03  4.4350043948378952e-03  5.7350186871096926e-03  6.9097145410438052e-03  7.8936025784273698e-03  8.6057659801308962e-03  8.9542242546944081e-03  8.8578985572717490e-03  8.1914846347398169e-03  7.4773447984074117e-03  -5.9404387349545895e-03  -6.8192093383286538e-03  -7.5576942711762934e-03  -7.5592925958297618e-03  -6.9885548214891104e-03  -5.9884624474295890e-03  -4.6968860567686600e-03  -3.2228449227466628e-03  -1.6432744370371006e-03  -8.5769202999343960e-06  1.6486340488320076e-03  3.3045276609175302e-03  4.9354897434412811e-03  6.5096748646776082e-03  7.9783122107587191e-03  9.2672660300553104e-03  1.0271530388536882e-02  1.0856313834474588e-02  1.0885488013157550e-02  1.0160571763349387e-02  9.2997758311870269e-03  -8.4502132714578335e-03  -9.5326066580231992e-03  -1.0298286074658615e-02  -1.0059311945728015e-02  -9.1011133576468194e-03  -7.6660375966145283e-03  -5.9561080507119423e-03  -4.1083238488254055e-03  -2.2026190852689250e-03  -2.7865708903888518e-04  1.6479129758091857e-03  3.5723599377421307e-03  5.4900368176308608e-03  7.3857601664184406e-03  9.2213746169310992e-03  1.0920553876601586e-02  1.2353048359354087e-02  1.3324180697370127e-02  1.3605397744767938e-02  1.2864568847726295e-02  1.1820836050621338e-02  -1.1973885682387001e-02  -1.3323582650744051e-02  -1.4006534556620246e-02  -1.3284131004394233e-02  -1.1681280998626569e-02  -9.6068413366252031e-03  -7.3434170975179578e-03  -5.0450458607258202e-03  -2.7763204006878827e-03  -5.4959807147433415e-04  1.6493240150782665e-03  3.8452918854389325e-03  6.0629064865927009e-03  8.3158783252974249e-03  1.0592054288195919e-02  1.2829985268552523e-02  1.4885197041967484e-02  1.6490547738244335e-02  1.7268786319109188e-02  1.6632752543973953e-02  1.5367454150153358e-02  -1.7067394802025588e-02  -1.8775162269924036e-02  -1.9077822827210589e-02  -1.7382920378734450e-02  -1.4707479031525840e-02  -1.1714247498698073e-02  -8.7508320892713595e-03  -5.9437534061419096e-03  -3.3038757121696574e-03  -7.9113478857495889e-04  1.6535896554077494e-03  4.0948251532372500e-03  6.5963409668273031e-03  9.2150505477042854e-03  1.1987995233164841e-02  1.4903217267099407e-02  1.7841614702292730e-02  2.0482762695426589e-02  2.2237316081758933e-02  2.2026017637657769e-02  2.0521877296807496e-02  -2.4805125853267732e-02  -2.6994699983411939e-02  -2.6078340964572413e-02  -2.2410759246328887e-02  -1.7992127903394998e-02  -1.3755112286898571e-02  -9.9837524433862516e-03  -6.6676311699000327e-03  -3.7015896026231093e-03  -9.6397108575646691e-04  1.6611597338167601e-03  4.2830309183021064e-03  7.0096246254095799e-03  9.9527294386368738e-03  1.3225919856876597e-02  1.6921807413647082e-02  2.1040031083690323e-02  2.5328118226904370e-02  2.8989600081983927e-02  3.0060340089382340e-02  2.8465176965722365e-02  -3.7743131121253645e-02  -4.0271023756701295e-02  -3.5600732542552270e-02  -2.8005897421173737e-02  -2.0983396782384804e-02  -1.5285892109713581e-02  -1.0748594779946753e-02  -7.0400345924290335e-03  -3.8724749802080782e-03  -1.0259004793163719e-03  1.6712381908449701e-03  4.3663825519322944e-03  7.2056317462046255e-03  1.0355537904631418e-02  1.4023930010161542e-02  1.8472263803204336e-02  2.3988467026131607e-02  3.0710625729290092e-02  3.7939020758474544e-02  4.2617635824884377e-02  4.2075200105373571e-02  -6.4727261693218671e-02  -6.3010475354930498e-02  -4.7104961686607265e-02  -3.2605344777428692e-02  -2.2527861407647200e-02  -1.5646162177837892e-02  -1.0698174166550618e-02  -6.8845534791156324e-03  -3.7304858002696452e-03  -9.4132182139992611e-04  1.6853021255715396e-03  4.3127288147213260e-03  7.1037950992438150e-03  1.0258590895515840e-02  1.4064142046379468e-02  1.8969202562727751e-02  2.5684840927106781e-02  3.5199112026155957e-02  4.8112663277417381e-02  6.2606533412359180e-02  7.0013887314462106e-02  -1.4633234246001947e-01  -9.6371516021664952e-02  -5.4012323517912450e-02  -3.2141959046850792e-02  -2.0803057195738505e-02  -1.4073781310807490e-02  -9.5125911012630994e-03  -6.0666313701309227e-03  -3.2235336058267011e-03  -7.0011513969426024e-04  1.6843908282972611e-03  4.0704765721045989e-03  6.5987444607653002e-03  9.4501205959588181e-03  1.2906928893302321e-02  1.7473299123142456e-02  2.4146065071835820e-02  3.5056321833634337e-02  5.5238394010434289e-02  9.4030069492044482e-02  1.4202041576091273e-01  -2.7796233787799379e-01  -1.0903781818953992e-01  -4.5444094644209919e-02  -2.6110266821483090e-02  -1.7257830582581398e-02  -1.1914016966355287e-02  -8.1577630242553375e-03  -5.2221013348256315e-03  -2.7310472989393281e-03  -4.7570044408836164e-04  1.6774184378923935e-03  3.8323293467891848e-03  6.0938889691571144e-03  8.5988320900269675e-03  1.1565433210818389e-02  1.5400789043813765e-02  2.0984963533968216e-02  3.0559095946907998e-02  5.0723863860617648e-02  1.0124663546698265e-01  2.8380028831342446e-01  </DataArray> 
</PointData> 
</Piece>
</UnstructuredGrid>
</VTKFile>