<?xml version="1.0"?>
<VTKFile type="UnstructuredGrid"  version="0.1"  >
<UnstructuredGrid>
<Piece  NumberOfPoints="651" NumberOfCells="1200">
<Points>
<DataArray  type="Float64"  NumberOfComponents="3"  format="ascii">0 0 0  50000 0 0  100000 0 0  150000 0 0  200000 0 0  250000 0 0  300000 0 0  350000 0 0  400000 0 0  450000 0 0  500000 0 0  550000 0 0  600000 0 0  650000 0 0  700000 0 0  750000 0 0  800000 0 0  850000 0 0  900000 0 0  950000 0 0  1000000 0 0  0 50000 0  50000 50000 0  100000 50000 0  150000 50000 0  200000 50000 0  250000 50000 0  300000 50000 0  350000 50000 0  400000 50000 0  450000 50000 0  500000 50000 0  550000 50000 0  600000 50000 0  650000 50000 0  700000 50000 0  750000 50000 0  800000 50000 0  850000 50000 0  900000 50000 0  950000 50000 0  1000000 50000 0  0 100000 0  50000 100000 0  100000 100000 0  150000 100000 0  200000 100000 0  250000 100000 0  300000 100000 0  350000 100000 0  400000 100000 0  450000 100000 0  500000 100000 0  550000 100000 0  600000 100000 0  650000 100000 0  700000 100000 0  750000 100000 0  800000 100000 0  850000 100000 0  900000 100000 0  950000 100000 0  1000000 100000 0  0 150000 0  50000 150000 0  100000 150000 0  150000 150000 0  200000 150000 0  250000 150000 0  300000 150000 0  350000 150000 0  400000 150000 0  450000 150000 0  500000 150000 0  550000 150000 0  600000 150000 0  650000 150000 0  700000 150000 0  750000 150000 0  800000 150000 0  850000 150000 0  900000 150000 0  950000 150000 0  1000000 150000 0  0 200000 0  50000 200000 0  100000 200000 0  150000 200000 0  200000 200000 0  250000 200000 0  300000 200000 0  350000 200000 0  400000 200000 0  450000 200000 0  500000 200000 0  550000 200000 0  600000 200000 0  650000 200000 0  700000 200000 0  750000 200000 0  800000 200000 0  850000 200000 0  900000 200000 0  950000 200000 0  1000000 200000 0  0 250000 0  50000 250000 0  100000 250000 0  150000 250000 0  200000 250000 0  250000 250000 0  300000 250000 0  350000 250000 0  400000 250000 0  450000 250000 0  500000 250000 0  550000 250000 0  600000 250000 0  650000 250000 0  700000 250000 0  750000 250000 0  800000 250000 0  850000 250000 0  900000 250000 0  950000 250000 0  1000000 250000 0  0 300000 0  50000 300000 0  100000 300000 0  150000 300000 0  200000 300000 0  250000 300000 0  300000 300000 0  350000 300000 0  400000 300000 0  450000 300000 0  500000 300000 0  550000 300000 0  600000 300000 0  650000 300000 0  700000 300000 0  750000 300000 0  800000 300000 0  850000 300000 0  900000 300000 0  950000 300000 0  1000000 300000 0  0 350000 0  50000 350000 0  100000 350000 0  150000 350000 0  200000 350000 0  250000 350000 0  300000 350000 0  350000 350000 0  400000 350000 0  450000 350000 0  500000 350000 0  550000 350000 0  600000 350000 0  650000 350000 0  700000 350000 0  750000 350000 0  800000 350000 0  850000 350000 0  900000 350000 0  950000 350000 0  1000000 350000 0  0 400000 0  50000 400000 0  100000 400000 0  150000 400000 0  200000 400000 0  250000 400000 0  300000 400000 0  350000 400000 0  400000 400000 0  450000 400000 0  500000 400000 0  550000 400000 0  600000 400000 0  650000 400000 0  700000 400000 0  750000 400000 0  800000 400000 0  850000 400000 0  900000 400000 0  950000 400000 0  1000000 400000 0  0 450000 0  50000 450000 0  100000 450000 0  150000 450000 0  200000 450000 0  250000 450000 0  300000 450000 0  350000 450000 0  400000 450000 0  450000 450000 0  500000 450000 0  550000 450000 0  600000 450000 0  650000 450000 0  700000 450000 0  750000 450000 0  800000 450000 0  850000 450000 0  900000 450000 0  950000 450000 0  1000000 450000 0  0 500000 0  50000 500000 0  100000 500000 0  150000 500000 0  200000 500000 0  250000 500000 0  300000 500000 0  350000 500000 0  400000 500000 0  450000 500000 0  500000 500000 0  550000 500000 0  600000 500000 0  650000 500000 0  700000 500000 0  750000 500000 0  800000 500000 0  850000 500000 0  900000 500000 0  950000 500000 0  1000000 500000 0  0 550000 0  50000 550000 0  100000 550000 0  150000 550000 0  200000 550000 0  250000 550000 0  300000 550000 0  350000 550000 0  400000 550000 0  450000 550000 0  500000 550000 0  550000 550000 0  600000 550000 0  650000 550000 0  700000 550000 0  750000 550000 0  800000 550000 0  850000 550000 0  900000 550000 0  950000 550000 0  1000000 550000 0  0 600000 0  50000 600000 0  100000 600000 0  150000 600000 0  200000 600000 0  250000 600000 0  300000 600000 0  350000 600000 0  400000 600000 0  450000 600000 0  500000 600000 0  550000 600000 0  600000 600000 0  650000 600000 0  700000 600000 0  750000 600000 0  800000 600000 0  850000 600000 0  900000 600000 0  950000 600000 0  1000000 600000 0  0 650000 0  50000 650000 0  100000 650000 0  150000 650000 0  200000 650000 0  250000 650000 0  300000 650000 0  350000 650000 0  400000 650000 0  450000 650000 0  500000 650000 0  550000 650000 0  600000 650000 0  650000 650000 0  700000 650000 0  750000 650000 0  800000 650000 0  850000 650000 0  900000 650000 0  950000 650000 0  1000000 650000 0  0 700000 0  50000 700000 0  100000 700000 0  150000 700000 0  200000 700000 0  250000 700000 0  300000 700000 0  350000 700000 0  400000 700000 0  450000 700000 0  500000 700000 0  550000 700000 0  600000 700000 0  650000 700000 0  700000 700000 0  750000 700000 0  800000 700000 0  850000 700000 0  900000 700000 0  950000 700000 0  1000000 700000 0  0 750000 0  50000 750000 0  100000 750000 0  150000 750000 0  200000 750000 0  250000 750000 0  300000 750000 0  350000 750000 0  400000 750000 0  450000 750000 0  500000 750000 0  550000 750000 0  600000 750000 0  650000 750000 0  700000 750000 0  750000 750000 0  800000 750000 0  850000 750000 0  900000 750000 0  950000 750000 0  1000000 750000 0  0 800000 0  50000 800000 0  100000 800000 0  150000 800000 0  200000 800000 0  250000 800000 0  300000 800000 0  350000 800000 0  400000 800000 0  450000 800000 0  500000 800000 0  550000 800000 0  600000 800000 0  650000 800000 0  700000 800000 0  750000 800000 0  800000 800000 0  850000 800000 0  900000 800000 0  950000 800000 0  1000000 800000 0  0 850000 0  50000 850000 0  100000 850000 0  150000 850000 0  200000 850000 0  250000 850000 0  300000 850000 0  350000 850000 0  400000 850000 0  450000 850000 0  500000 850000 0  550000 850000 0  600000 850000 0  650000 850000 0  700000 850000 0  750000 850000 0  800000 850000 0  850000 850000 0  900000 850000 0  950000 850000 0  1000000 850000 0  0 900000 0  50000 900000 0  100000 900000 0  150000 900000 0  200000 900000 0  250000 900000 0  300000 900000 0  350000 900000 0  400000 900000 0  450000 900000 0  500000 900000 0  550000 900000 0  600000 900000 0  650000 900000 0  700000 900000 0  750000 900000 0  800000 900000 0  850000 900000 0  900000 900000 0  950000 900000 0  1000000 900000 0  0 950000 0  50000 950000 0  100000 950000 0  150000 950000 0  200000 950000 0  250000 950000 0  300000 950000 0  350000 950000 0  400000 950000 0  450000 950000 0  500000 950000 0  550000 950000 0  600000 950000 0  650000 950000 0  700000 950000 0  750000 950000 0  800000 950000 0  850000 950000 0  900000 950000 0  950000 950000 0  1000000 950000 0  0 1000000 0  50000 1000000 0  100000 1000000 0  150000 1000000 0  200000 1000000 0  250000 1000000 0  300000 1000000 0  350000 1000000 0  400000 1000000 0  450000 1000000 0  500000 1000000 0  550000 1000000 0  600000 1000000 0  650000 1000000 0  700000 1000000 0  750000 1000000 0  800000 1000000 0  850000 1000000 0  900000 1000000 0  950000 1000000 0  1000000 1000000 0  0 1050000 0  50000 1050000 0  100000 1050000 0  150000 1050000 0  200000 1050000 0  250000 1050000 0  300000 1050000 0  350000 1050000 0  400000 1050000 0  450000 1050000 0  500000 1050000 0  550000 1050000 0  600000 1050000 0  650000 1050000 0  700000 1050000 0  750000 1050000 0  800000 1050000 0  850000 1050000 0  900000 1050000 0  950000 1050000 0  1000000 1050000 0  0 1100000 0  50000 1100000 0  100000 1100000 0  150000 1100000 0  200000 1100000 0  250000 1100000 0  300000 1100000 0  350000 1100000 0  400000 1100000 0  450000 1100000 0  500000 1100000 0  550000 1100000 0  600000 1100000 0  650000 1100000 0  700000 1100000 0  750000 1100000 0  800000 1100000 0  850000 1100000 0  900000 1100000 0  950000 1100000 0  1000000 1100000 0  0 1150000 0  50000 1150000 0  100000 1150000 0  150000 1150000 0  200000 1150000 0  250000 1150000 0  300000 1150000 0  350000 1150000 0  400000 1150000 0  450000 1150000 0  500000 1150000 0  550000 1150000 0  600000 1150000 0  650000 1150000 0  700000 1150000 0  750000 1150000 0  800000 1150000 0  850000 1150000 0  900000 1150000 0  950000 1150000 0  1000000 1150000 0  0 1200000 0  50000 1200000 0  100000 1200000 0  150000 1200000 0  200000 1200000 0  250000 1200000 0  300000 1200000 0  350000 1200000 0  400000 1200000 0  450000 1200000 0  500000 1200000 0  550000 1200000 0  600000 1200000 0  650000 1200000 0  700000 1200000 0  750000 1200000 0  800000 1200000 0  850000 1200000 0  900000 1200000 0  950000 1200000 0  1000000 1200000 0  0 1250000 0  50000 1250000 0  100000 1250000 0  150000 1250000 0  200000 1250000 0  250000 1250000 0  300000 1250000 0  350000 1250000 0  400000 1250000 0  450000 1250000 0  500000 1250000 0  550000 1250000 0  600000 1250000 0  650000 1250000 0  700000 1250000 0  750000 1250000 0  800000 1250000 0  850000 1250000 0  900000 1250000 0  950000 1250000 0  1000000 1250000 0  0 1300000 0  50000 1300000 0  100000 1300000 0  150000 1300000 0  200000 1300000 0  250000 1300000 0  300000 1300000 0  350000 1300000 0  400000 1300000 0  450000 1300000 0  500000 1300000 0  550000 1300000 0  600000 1300000 0  650000 1300000 0  700000 1300000 0  750000 1300000 0  800000 1300000 0  850000 1300000 0  900000 1300000 0  950000 1300000 0  1000000 1300000 0  0 1350000 0  50000 1350000 0  100000 1350000 0  150000 1350000 0  200000 1350000 0  250000 1350000 0  300000 1350000 0  350000 1350000 0  400000 1350000 0  450000 1350000 0  500000 1350000 0  550000 1350000 0  600000 1350000 0  650000 1350000 0  700000 135
[...]
<PointData  Scalars="f_10483"> 
<DataArray  type="Float64"  Name="f_10483"  format="ascii">-2.6624371583903100e-01  -9.3251751601923838e-02  -4.5232974233394029e-02  -2.6041027705658054e-02  -1.6907940873455110e-02  -1.1561620555695333e-02  -7.8726904423794038e-03  -5.0059048550701556e-03  -2.5755356466001856e-03  -3.7509113354352891e-04  1.7246370094560028e-03  3.8226790727771938e-03  6.0172707881634823e-03  8.4345251405420710e-03  1.1272002836292190e-02  1.4885765506583850e-02  2.0003450273365486e-02  2.8451642122070984e-02  4.6861992170297413e-02  1.0725296738448974e-01  2.6718558338226689e-01  -1.3187221035995078e-01  -8.6337765388092597e-02  -4.9459601787381707e-02  -3.0269442480154722e-02  -1.9877558164749617e-02  -1.3504430166494953e-02  -9.1270975743342145e-03  -5.8000414183427612e-03  -3.0455693965431938e-03  -5.9647718798634339e-04  1.7182881777604159e-03  4.0315676623982810e-03  6.4760983483733159e-03  9.2227857828159378e-03  1.2539668583963152e-02  1.6912354666002802e-02  2.3339907521153985e-02  3.4140514456303971e-02  5.4933834088384245e-02  9.5158024660389917e-02  1.4255853017537609e-01  -6.3471212632311341e-02  -5.6422855594399607e-02  -4.2640707391743284e-02  -3.0361185628682702e-02  -2.1301651625679111e-02  -1.4894011163654346e-02  -1.0201254273341941e-02  -6.5492598916203374e-03  -3.5128494988157155e-03  -8.2032116593530049e-04  1.7175537661522414e-03  4.2546740572035778e-03  6.9454173119753654e-03  9.9811682329564375e-03  1.3640871099349965e-02  1.8374480803187820e-02  2.4940023861934637e-02  3.4534548064698009e-02  4.8320027344245640e-02  6.3433457613902719e-02  6.5085641971074720e-02  -3.6878961020526554e-02  -3.7389193140691376e-02  -3.2941829995643185e-02  -2.6065566553872221e-02  -1.9661646458819501e-02  -1.4397481735262667e-02  -1.0143194011689984e-02  -6.6263613039567364e-03  -3.5995892351768240e-03  -8.6633555913817964e-04  1.7308015747559944e-03  4.3298320068358197e-03  7.0700390432201082e-03  1.0113566423330092e-02  1.3668522384341363e-02  1.8007235299112540e-02  2.3443412381398531e-02  3.0132253539524659e-02  3.7357415329069450e-02  4.1797555859782440e-02  3.9397073081262307e-02  -2.3918789063741619e-02  -2.5433199780562153e-02  -2.4414366919080478e-02  -2.0926804558463193e-02  -1.6837329480488526e-02  -1.2904291055396965e-02  -9.3684271049902929e-03  -6.2309825156216777e-03  -3.4048312368812911e-03  -7.8287805317316084e-04  1.7403189145976151e-03  4.2666078768609991e-03  6.8990189605124923e-03  9.7469280853709778e-03  1.2925097977441638e-02  1.6532551607980197e-02  2.0578231337804637e-02  2.4791321772850795e-02  2.8284656333811706e-02  2.9157456322310506e-02  2.7075854070790342e-02  -1.6356736607911166e-02  -1.7783630319047176e-02  -1.7980597969577926e-02  -1.6304308764541482e-02  -1.3780667949798764e-02  -1.0970517929112493e-02  -8.1789306657442575e-03  -5.5197893624904220e-03  -3.0051638185300739e-03  -6.0055118669462553e-04  1.7474474424344878e-03  4.0987531908890477e-03  6.5140058850226661e-03  9.0486956329220436e-03  1.1740187819425768e-02  1.4577441815241102e-02  1.7439526304220441e-02  1.9995495866536896e-02  2.1614853407742992e-02  2.1331331110546747e-02  1.9710190045629267e-02  -1.1451725724911758e-02  -1.2649400031849434e-02  -1.3246981402861903e-02  -1.2497321617768271e-02  -1.0958112218450571e-02  -8.9882663414376333e-03  -6.8420227362962277e-03  -4.6571778889653720e-03  -2.4926690972284214e-03  -3.6061205529105316e-04  1.7514454315019855e-03  3.8663010718446912e-03  6.0069842065305261e-03  8.1864111726339880e-03  1.0392266168497845e-02  1.2562618268229115e-02  1.4550588842772052e-02  1.6087225524649189e-02  1.6783588497774813e-02  1.6141597348925819e-02  1.4863591732049779e-02  -8.0775893390578734e-03  -9.0626798458656350e-03  -9.7571627649776019e-03  -9.4786087647681355e-03  -8.5419134316132104e-03  -7.1644391473588854e-03  -5.5313893859239042e-03  -3.7668800271783483e-03  -1.9438504341410807e-03  -9.9009827973908755e-05  1.7527394470694885e-03  3.6064974537273406e-03  5.4572835430706417e-03  7.2897509062564174e-03  9.0657548329977685e-03  1.0708924715375429e-02  1.2088733596760515e-02  1.3012987968826047e-02  1.3251228510953207e-02  1.2533276463903464e-02  1.1511499214986801e-02  -5.6789616565603883e-03  -6.4888110452717774e-03  -7.1661768913910337e-03  -7.1261342986561425e-03  -6.5563408658195679e-03  -5.5861881267365516e-03  -4.3438502341318179e-03  -2.9293360262802538e-03  -1.4133965450576446e-03  1.5726916071891181e-04  1.7520160016360770e-03  3.3480069982363644e-03  4.9221990135740841e-03  6.4432162970768344e-03  7.8628088461681640e-03  9.1075648876005853e-03  1.0073665077634152e-02  1.0630006050411698e-02  1.0640705998945616e-02  9.9505600759035636e-03  9.1237183617116236e-03  -3.9441866092646159e-03  -4.6139358572245461e-03  -5.2344732382863983e-03  -5.3130180418139768e-03  -4.9676284116924258e-03  -4.2753279359537153e-03  -3.3235424333308027e-03  -2.1893122957362845e-03  -9.3509397930671180e-04  3.9070824947415620e-04  1.7499963001832341e-03  3.1099353812533430e-03  4.4374760229596915e-03  5.6938361211594721e-03  6.8293762900905981e-03  7.7798712811941806e-03  8.4661717980945520e-03  8.7997903335081586e-03  8.6999823286975520e-03  8.0724517010458789e-03  7.3952126109538196e-03  -2.6829414986385132e-03  -3.2426356517229718e-03  -3.7976270345706207e-03  -3.9324940102749787e-03  -3.7252568425094053e-03  -3.2221237625821137e-03  -2.4831128717151627e-03  -1.5669379580962083e-03  -5.2669428377061570e-04  5.9150224520809573e-04  1.7472645572136646e-03  2.9032848689936092e-03  4.0220823026091458e-03  5.0627481494826994e-03  5.9783111953413447e-03  6.7145923296935981e-03  7.2117538811421406e-03  7.4095088755629151e-03  7.2592811893361755e-03  6.7005174613069592e-03  6.1379764095110647e-03  -1.7726620440773598e-03  -2.2478335585309254e-03  -2.7420910771347759e-03  -2.9013024510072729e-03  -2.7794187281671486e-03  -2.4045349443721910e-03  -1.8187847909216452e-03  -1.0674343536182253e-03  -1.9529453415965481e-04  7.5522597747595943e-04  1.7442227588846543e-03  2.7332549086549812e-03  3.6837597879643001e-03  4.5554788077323289e-03  5.3054591856233407e-03  5.8882607552576934e-03  6.2580355137500376e-03  6.3726870000231283e-03  6.2025343174195811e-03  5.7063021390277007e-03  5.2304686537244603e-03  -1.1322330221701935e-03  -1.5449299291504300e-03  -1.9892512126772855e-03  -2.1571463388573540e-03  -2.0876697723246121e-03  -1.7983326976054865e-03  -1.3198851578906322e-03  -6.8827870520869468e-04  5.8154774693998566e-05  8.8071156873295619e-04  1.7411075773815729e-03  2.6014404108286515e-03  3.4237300451093033e-03  4.1694718718394306e-03  4.7996387765502557e-03  5.2755509074661521e-03  5.5609656598583834e-03  5.6252592388976886e-03  5.4498611931890362e-03  5.0045540008345725e-03  4.5920900793355035e-03  -7.0797177603725144e-04  -1.0776986731221693e-03  -1.4854599911357969e-03  -1.6552962280341177e-03  -1.6170122967406702e-03  -1.3821310952504529e-03  -9.7447377607656836e-04  -4.2397658459271452e-04  2.3556754543756567e-04  9.6842226064226518e-04  1.7380306541884163e-03  2.5075583798205648e-03  3.2401266646909228e-03  3.8990544614667141e-03  4.4484292610353715e-03  4.8542791003922565e-03  5.0865307869905289e-03  5.1214812374974867e-03  4.9469510181441674e-03  4.5387337495279741e-03  4.1694481546169131e-03  -4.6577015093890792e-04  -8.1030492939653410e-04  -1.1959173833170633e-03  -1.3657739243113979e-03  -1.3442150708174413e-03  -1.1397596272033944e-03  -7.7249870794375726e-04  -2.6901739392959134e-04  3.3954952591637807e-04  1.0193371489326966e-03  1.7350198570075946e-03  2.4506515529292227e-03  3.1302662141976037e-03  3.7384830944034554e-03  4.2413606662552563e-03  4.6076892513512695e-03  4.8108302816743812e-03  4.8307597763671759e-03  4.6586436676215211e-03  4.2728574901317066e-03  3.9286185772823617e-03  -3.8665777792349645e-04  -7.2279030699112388e-04  -1.1010383264441666e-03  -1.2713955992305693e-03  -1.2555874068422438e-03  -1.0613141735380468e-03  -7.0746920995419559e-04  -2.1957637949693393e-04  3.7208312916423388e-04  1.0342599206027915e-03  1.7320534695646718e-03  2.4298470185273465e-03  3.0920238099683629e-03  3.6836833186330077e-03  4.1715761490940615e-03  4.5254211126814006e-03  4.7196943459879613e-03  4.7355025383774285e-03  4.5651452655910045e-03  4.1868972461375654e-03  3.8507647170699633e-03  -4.6451163813632901e-04  -8.0875055098561370e-04  -1.1945367284749567e-03  -1.3666528372206623e-03  -1.3467233425289518e-03  -1.1435823122083744e-03  -7.7725372711586632e-04  -2.7437615526802213e-04  3.3384072493418697e-04  1.0134553862000987e-03  1.7290870821208501e-03  2.4447697901966011e-03  3.1245574132153803e-03  3.7331243330648287e-03  4.2366056470829272e-03  4.6038665663460966e-03  4.8083220099627080e-03  4.8298808634577566e-03  4.6600243224634852e-03  4.2744118685425162e-03  3.9298770900848563e-03  -7.0534121547248410e-04  -1.0746268103832399e-03  -1.4828440789987768e-03  -1.6573742983519721e-03  -1.6224238478462917e-03  -1.3901721612508430e-03  -9.8432232189779741e-04  -4.3494752233352136e-04  2.2398027443840243e-04  9.5654855930610077e-04  1.7260762849372396e-03  2.4956846784842724e-03  3.2285393936915688e-03  3.8880835237256580e-03  4.4385807152138509e-03  4.8462380343916025e-03  5.0811192358845734e-03  5.1194031671792295e-03  4.9495669302810803e-03  4.5418056122668964e-03  4.1720787151816787e-03  -1.1279831401934718e-03  -1.5404470616918833e-03  -1.9857542540453184e-03  -2.1611522997538233e-03  -2.0968587207161262e-03  -1.8114439683272925e-03  -1.3355318374159580e-03  -7.0536493271022198e-04  4.0376894015472852e-05  8.6266652829302076e-04  1.7229993617389780e-03  2.5833953703885896e-03  3.4059521644304847e-03  4.1523856443374859e-03  4.7839920970244136e-03  5.2624396367437921e-03  5.5517767114663568e-03  5.6212532780007089e-03  5.4533581518206239e-03  5.0090368682927724e-03  4.5963399613119385e-03  -1.7663617145858355e-03  -2.2421951998879423e-03  -2.7384273782782168e-03  -2.9085800608818018e-03  -2.7939285746108682e-03  -2.4241538161229297e-03  -1.8413522464943268e-03  -1.0913718686095281e-03  -2.1965284884686417e-04  7.3085203045875795e-04  1.7198841802277317e-03  2.7088809616376041e-03  3.6594014732766957e-03  4.5315412927403858e-03  5.2828917300498596e-03  5.8686418835061076e-03  6.2435256673056029e-03  6.3654093901479285e-03  6.2061980162755083e-03  5.7119404976702310e-03  5.2367689832156202e-03  -2.6738694703763873e-03  -3.2364105221703533e-03  -3.7951742501974375e-03  -3.9454019364245675e-03  -3.7476469420070838e-03  -3.2504853905645785e-03  -2.5142042562200382e-03  -1.5986412103693489e-03  -5.5797536350247069e-04  5.6082207010851360e-04  1.7168423818867949e-03  2.8726046938937658e-03  3.9908012228767140e-03  5.0310448972087874e-03  5.9472198108354865e-03  6.6862307017100091e-03  7.1893637816433306e-03  7.3966009494122950e-03  7.2617339737085880e-03  6.7067425908589762e-03  6.1470484377727248e-03  -3.9311056718230666e-03  -4.6083447619123643e-03  -5.2358753895613008e-03  -5.3356833943731955e-03  -5.0020648589649587e-03  -4.3157643420733468e-03  -3.3652693509802220e-03  -2.2297291820594120e-03  -9.7336908386804258e-04  3.5417155783279739e-04  1.7141106389008582e-03  3.0733986896116349e-03  4.3992009183976936e-03  5.6534192348354885e-03  6.7876493724400317e-03  7.7394348750731562e-03  8.4317353508205160e-03  8.7771249809475704e-03  8.6985801774215454e-03  8.0780427963572984e-03  7.4082935483944668e-03  -5.6596114225843201e-03  -6.4864531367720387e-03  -7.1765990598110889e-03  -7.1658991112801993e-03  -6.6095581385114954e-03  -5.6434579484906187e-03  -4.3987019070723960e-03  -2.9791093579941696e-03  -1.4580920745018817e-03  1.1609994082907761e-04  1.7120909374269445e-03  3.3068377783462065e-03  4.8775034841291049e-03  6.3934429653618851e-03  7.8079571732262345e-03  9.0502950658447653e-03  1.0020447804940330e-02  1.0590241237785816e-02  1.0630283830524088e-02  9.9529179844023031e-03  9.1430685956870646e-03  -8.0473922758602361e-03  -9.0691695247710393e-03  -9.7871215718183802e-03  -9.5488810296979025e-03  -8.6246266576461856e-03  -7.2448177762790816e-03  -5.6016478939201805e-03  -3.8256439671952754e-03  -1.9931766040220270e-03  -1.4239051468649297e-04  1.7113674919686304e-03  3.5631167670144223e-03  5.4079573731890106e-03  7.2309869662383905e-03  8.9954963249999128e-03  1.0628546086453101e-02  1.2006020370725215e-02  1.2942715703893898e-02  1.3221269704110233e-02  1.2526786784996490e-02  1.1541696278183652e-02  -1.1399484792918916e-02  -1.2677490409787811e-02  -1.3319481558636553e-02  -1.2623118585523263e-02  -1.1086481903667128e-02  -9.0985113291489044e-03  -6.9281592294410882e-03  -4.7223042335967167e-03  -2.5428772675072982e-03  -4.0219413282997118e-04  1.7126615075098211e-03  3.8247189943054500e-03  5.9567760362509549e-03  8.1212848280014707e-03  1.0306129675351239e-02  1.2452373280515426e-02  1.4422219157552599e-02  1.5961428556891394e-02  1.6711088341997686e-02  1.6113506970985444e-02  1.4915832664041720e-02  -1.6246083106484521e-02  -1.7867224171394216e-02  -1.8150746468594867e-02  -1.6531388927410583e-02  -1.3975419365124947e-02  -1.1113334876177721e-02  -8.2760808803899709e-03  -5.5845886939075674e-03  -3.0498989460230248e-03  -6.3464625189807759e-04  1.7166594965536486e-03  4.0646581256854027e-03  6.4692707575292061e-03  8.9838963015038392e-03  1.1643037604778472e-02  1.4434624868173693e-02  1.7244774888891080e-02  1.9768415703664076e-02  2.1444704908722148e-02  2.1247737258197022e-02  1.9820843547054885e-02  -2.3611747131615450e-02  -2.5693349383128665e-02  -2.4820549394644561e-02  -2.1327214833719903e-02  -1.7114124398715895e-02  -1.3068444668930096e-02  -9.4609910384218371e-03  -6.2828211463732174e-03  -3.4349120215293773e-03  -8.0250093788617990e-04  1.7237880243745074e-03  4.2469849921477993e-03  6.8689381758639118e-03  9.6950894546184996e-03  1.2832534044008666e-02  1.6368397994445148e-02  2.0301436419573795e-02  2.4390911497589440e-02  2.7878473858242280e-02  2.8897306719739880e-02  2.7382896002915234e-02  -3.5932966142029080e-02  -3.8333448920547006e-02  -3.3893308389870334e-02  -2.6668146600381477e-02  -1.9979305442308970e-02  -1.4543128360066094e-02  -1.0204415445326475e-02  -6.6494594843373774e-03  -3.6059321042416870e-03  -8.6572506786551282e-04  1.7333053642116477e-03  4.3304424981082902e-03  7.0636961741546390e-03  1.0090468242948535e-02  1.3607300950703598e-02  1.7861588674307410e-02  2.3125753397906200e-02  2.9529673493010618e-02  3.6405936934835022e-02  4.0853300079919566e-02  4.0343067959758325e-02  -6.1621535031724843e-02  -5.9969350674574984e-02  -4.4855920404997064e-02  -3.1070441125529705e-02  -2.1475916922830036e-02  -1.4910373864129592e-02  -1.0176764160325287e-02  -6.5170612939548875e-03  -3.4813103729891583e-03  -7.9056711822587684e-04  1.7465531728226185e-03  4.2844281049127207e-03  6.9769564378013823e-03  1.0013366830620667e-02  1.3665361212365206e-02  1.8358118102710565e-02  2.4765758564781089e-02  3.3825292567845930e-02  4.6104814330980057e-02  5.9886962533708642e-02  6.6935319571652732e-02  -1.3909442323578169e-01  -9.1693917720930287e-02  -5.1469727149069097e-02  -3.0676407517092080e-02  -1.9875800582016191e-02  -1.3448247726918348e-02  -9.0755616449167270e-03  -5.7586788437962062e-03  -3.0119914093710127e-03  -5.6746072340591242e-04  1.7458187612286453e-03  4.0605841269784476e-03  6.5096763355449068e-03  9.2641483573615863e-03  1.2591204513379323e-02  1.6968537105577219e-02  2.3341665103884499e-02  3.3733549419362088e-02  5.2923708726688126e-02  8.9801872327533186e-02  1.3533631729949058e-01  -2.6372147644261518e-01  -1.0378886044493502e-01  -4.3397885230924180e-02  -2.4987535182825243e-02  -1.6539343334205332e-02  -1.1421658567482723e-02  -7.8078958972324997e-03  -4.9704182015114064e-03  -2.5531638491516000e-03  -3.5857213377610449e-04  1.7394699295416264e-03  3.8391980725443840e-03  6.0396425856117245e-03  8.4700117941003440e-03  1.1336797381438418e-02  1.5025727494795351e-02  2.0372047812613724e-02  2.9505134644899008e-02  4.8697081172752392e-02  9.6715858541455715e-02  2.6970782277874822e-01  </DataArray> 
</PointData> 
</Piece>
</UnstructuredGrid>
</VTKFile>