<?xml version="1.0"?>
<VTKFile type="UnstructuredGrid"  version="0.1"  >
<UnstructuredGrid>
<Piece  NumberOfPoints="651" NumberOfCells="1200">
<Points>
<DataArray  type="Float64"  NumberOfComponents="3"  format="ascii">0 0 0  50000 0 0  100000 0 0  150000 0 0  200000 0 0  250000 0 0  300000 0 0  350000 0 0  400000 0 0  450000 0 0  500000 0 0  550000 0 0  600000 0 0  650000 0 0  700000 0 0  750000 0 0  800000 0 0  850000 0 0  900000 0 0  950000 0 0  1000000 0 0  0 50000 0  50000 50000 0  100000 50000 0  150000 50000 0  200000 50000 0  250000 50000 0  300000 50000 0  350000 50000 0  400000 50000 0  450000 50000 0  500000 50000 0  550000 50000 0  600000 50000 0  650000 50000 0  700000 50000 0  750000 50000 0  800000 50000 0  850000 50000 0  900000 50000 0  950000 50000 0  1000000 50000 0  0 100000 0  50000 100000 0  100000 100000 0  150000 100000 0  200000 100000 0  250000 100000 0  300000 100000 0  350000 100000 0  400000 100000 0  450000 100000 0  500000 100000 0  550000 100000 0  600000 100000 0  650000 100000 0  700000 100000 0  750000 100000 0  800000 100000 0  850000 100000 0  900000 100000 0  950000 100000 0  1000000 100000 0  0 150000 0  50000 150000 0  100000 150000 0  150000 150000 0  200000 150000 0  250000 150000 0  300000 150000 0  350000 150000 0  400000 150000 0  450000 150000 0  500000 150000 0  550000 150000 0  600000 150000 0  650000 150000 0  700000 150000 0  750000 150000 0  800000 150000 0  850000 150000 0  900000 150000 0  950000 150000 0  1000000 150000 0  0 200000 0  50000 200000 0  100000 200000 0  150000 200000 0  200000 200000 0  250000 200000 0  300000 200000 0  350000 200000 0  400000 200000 0  450000 200000 0  500000 200000 0  550000 200000 0  600000 200000 0  650000 200000 0  700000 200000 0  750000 200000 0  800000 200000 0  850000 200000 0  900000 200000 0  950000 200000 0  1000000 200000 0  0 250000 0  50000 250000 0  100000 250000 0  150000 250000 0  200000 250000 0  250000 250000 0  300000 250000 0  350000 250000 0  400000 250000 0  450000 250000 0  500000 250000 0  550000 250000 0  600000 250000 0  650000 250000 0  700000 250000 0  750000 250000 0  800000 250000 0  850000 250000 0  900000 250000 0  950000 250000 0  1000000 250000 0  0 300000 0  50000 300000 0  100000 300000 0  150000 300000 0  200000 300000 0  250000 300000 0  300000 300000 0  350000 300000 0  400000 300000 0  450000 300000 0  500000 300000 0  550000 300000 0  600000 300000 0  650000 300000 0  700000 300000 0  750000 300000 0  800000 300000 0  850000 300000 0  900000 300000 0  950000 300000 0  1000000 300000 0  0 350000 0  50000 350000 0  100000 350000 0  150000 350000 0  200000 350000 0  250000 350000 0  300000 350000 0  350000 350000 0  400000 350000 0  450000 350000 0  500000 350000 0  550000 350000 0  600000 350000 0  650000 350000 0  700000 350000 0  750000 350000 0  800000 350000 0  850000 350000 0  900000 350000 0  950000 350000 0  1000000 350000 0  0 400000 0  50000 400000 0  100000 400000 0  150000 400000 0  200000 400000 0  250000 400000 0  300000 400000 0  350000 400000 0  400000 400000 0  450000 400000 0  500000 400000 0  550000 400000 0  600000 400000 0  650000 400000 0  700000 400000 0  750000 400000 0  800000 400000 0  850000 400000 0  900000 400000 0  950000 400000 0  1000000 400000 0  0 450000 0  50000 450000 0  100000 450000 0  150000 450000 0  200000 450000 0  250000 450000 0  300000 450000 0  350000 450000 0  400000 450000 0  450000 450000 0  500000 450000 0  550000 450000 0  600000 450000 0  650000 450000 0  700000 450000 0  750000 450000 0  800000 450000 0  850000 450000 0  900000 450000 0  950000 450000 0  1000000 450000 0  0 500000 0  50000 500000 0  100000 500000 0  150000 500000 0  200000 500000 0  250000 500000 0  300000 500000 0  350000 500000 0  400000 500000 0  450000 500000 0  500000 500000 0  550000 500000 0  600000 500000 0  650000 500000 0  700000 500000 0  750000 500000 0  800000 500000 0  850000 500000 0  900000 500000 0  950000 500000 0  1000000 500000 0  0 550000 0  50000 550000 0  100000 550000 0  150000 550000 0  200000 550000 0  250000 550000 0  300000 550000 0  350000 550000 0  400000 550000 0  450000 550000 0  500000 550000 0  550000 550000 0  600000 550000 0  650000 550000 0  700000 550000 0  750000 550000 0  800000 550000 0  850000 550000 0  900000 550000 0  950000 550000 0  1000000 550000 0  0 600000 0  50000 600000 0  100000 600000 0  150000 600000 0  200000 600000 0  250000 600000 0  300000 600000 0  350000 600000 0  400000 600000 0  450000 600000 0  500000 600000 0  550000 600000 0  600000 600000 0  650000 600000 0  700000 600000 0  750000 600000 0  800000 600000 0  850000 600000 0  900000 600000 0  950000 600000 0  1000000 600000 0  0 650000 0  50000 650000 0  100000 650000 0  150000 650000 0  200000 650000 0  250000 650000 0  300000 650000 0  350000 650000 0  400000 650000 0  450000 650000 0  500000 650000 0  550000 650000 0  600000 650000 0  650000 650000 0  700000 650000 0  750000 650000 0  800000 650000 0  850000 650000 0  900000 650000 0  950000 650000 0  1000000 650000 0  0 700000 0  50000 700000 0  100000 700000 0  150000 700000 0  200000 700000 0  250000 700000 0  300000 700000 0  350000 700000 0  400000 700000 0  450000 700000 0  500000 700000 0  550000 700000 0  600000 700000 0  650000 700000 0  700000 700000 0  750000 700000 0  800000 700000 0  850000 700000 0  900000 700000 0  950000 700000 0  1000000 700000 0  0 750000 0  50000 750000 0  100000 750000 0  150000 750000 0  200000 750000 0  250000 750000 0  300000 750000 0  350000 750000 0  400000 750000 0  450000 750000 0  500000 750000 0  550000 750000 0  600000 750000 0  650000 750000 0  700000 750000 0  750000 750000 0  800000 750000 0  850000 750000 0  900000 750000 0  950000 750000 0  1000000 750000 0  0 800000 0  50000 800000 0  100000 800000 0  150000 800000 0  200000 800000 0  250000 800000 0  300000 800000 0  350000 800000 0  400000 800000 0  450000 800000 0  500000 800000 0  550000 800000 0  600000 800000 0  650000 800000 0  700000 800000 0  750000 800000 0  800000 800000 0  850000 800000 0  900000 800000 0  950000 800000 0  1000000 800000 0  0 850000 0  50000 850000 0  100000 850000 0  150000 850000 0  200000 850000 0  250000 850000 0  300000 850000 0  350000 850000 0  400000 850000 0  450000 850000 0  500000 850000 0  550000 850000 0  600000 850000 0  650000 850000 0  700000 850000 0  750000 850000 0  800000 850000 0  850000 850000 0  900000 850000 0  950000 850000 0  1000000 850000 0  0 900000 0  50000 900000 0  100000 900000 0  150000 900000 0  200000 900000 0  250000 900000 0  300000 900000 0  350000 900000 0  400000 900000 0  450000 900000 0  500000 900000 0  550000 900000 0  600000 900000 0  650000 900000 0  700000 900000 0  750000 900000 0  800000 900000 0  850000 900000 0  900000 900000 0  950000 900000 0  1000000 900000 0  0 950000 0  50000 950000 0  100000 950000 0  150000 950000 0  200000 950000 0  250000 950000 0  300000 950000 0  350000 950000 0  400000 950000 0  450000 950000 0  500000 950000 0  550000 950000 0  600000 950000 0  650000 950000 0  700000 950000 0  750000 950000 0  800000 950000 0  850000 950000 0  900000 950000 0  950000 950000 0  1000000 950000 0  0 1000000 0  50000 1000000 0  100000 1000000 0  150000 1000000 0  200000 1000000 0  250000 1000000 0  300000 1000000 0  350000 1000000 0  400000 1000000 0  450000 1000000 0  500000 1000000 0  550000 1000000 0  600000 1000000 0  650000 1000000 0  700000 1000000 0  750000 1000000 0  800000 1000000 0  850000 1000000 0  900000 1000000 0  950000 1000000 0  1000000 1000000 0  0 1050000 0  50000 1050000 0  100000 1050000 0  150000 1050000 0  200000 1050000 0  250000 1050000 0  300000 1050000 0  350000 1050000 0  400000 1050000 0  450000 1050000 0  500000 1050000 0  550000 1050000 0  600000 1050000 0  650000 1050000 0  700000 1050000 0  750000 1050000 0  800000 1050000 0  850000 1050000 0  900000 1050000 0  950000 1050000 0  1000000 1050000 0  0 1100000 0  50000 1100000 0  100000 1100000 0  150000 1100000 0  200000 1100000 0  250000 1100000 0  300000 1100000 0  350000 1100000 0  400000 1100000 0  450000 1100000 0  500000 1100000 0  550000 1100000 0  600000 1100000 0  650000 1100000 0  700000 1100000 0  750000 1100000 0  800000 1100000 0  850000 1100000 0  900000 1100000 0  950000 1100000 0  1000000 1100000 0  0 1150000 0  50000 1150000 0  100000 1150000 0  150000 1150000 0  200000 1150000 0  250000 1150000 0  300000 1150000 0  350000 1150000 0  400000 1150000 0  450000 1150000 0  500000 1150000 0  550000 1150000 0  600000 1150000 0  650000 1150000 0  700000 1150000 0  750000 1150000 0  800000 1150000 0  850000 1150000 0  900000 1150000 0  950000 1150000 0  1000000 1150000 0  0 1200000 0  50000 1200000 0  100000 1200000 0  150000 1200000 0  200000 1200000 0  250000 1200000 0  300000 1200000 0  350000 1200000 0  400000 1200000 0  450000 1200000 0  500000 1200000 0  550000 1200000 0  600000 1200000 0  650000 1200000 0  700000 1200000 0  750000 1200000 0  800000 1200000 0  850000 1200000 0  900000 1200000 0  950000 1200000 0  1000000 1200000 0  0 1250000 0  50000 1250000 0  100000 1250000 0  150000 1250000 0  200000 1250000 0  250000 1250000 0  300000 1250000 0  350000 1250000 0  400000 1250000 0  450000 1250000 0  500000 1250000 0  550000 1250000 0  600000 1250000 0  650000 1250000 0  700000 1250000 0  750000 1250000 0  800000 1250000 0  850000 1250000 0  900000 1250000 0  950000 1250000 0  1000000 1250000 0  0 1300000 0  50000 1300000 0  100000 1300000 0  150000 1300000 0  200000 1300000 0  250000 1300000 0  300000 1300000 0  350000 1300000 0  400000 1300000 0  450000 1300000 0  500000 1300000 0  550000 1300000 0  600000 1300000 0  650000 1300000 0  700000 1300000 0  750000 1300000 0  800000 1300000 0  850000 1300000 0  900000 1300000 0  950000 1300000 0  1000000 1300000 0  0 1350000 0  50000 1350000 0  100000 1350000 0  150000 1350000 0  200000 1350000 0  250000 1350000 0  300000 1350000 0  350000 1350000 0  400000 1350000 0  450000 1350000 0  500000 1350000 0  550000 1350000 0  600000 1350000 0  650000 1350000 0  700000 135
[...]
<PointData  Scalars="f_10483"> 
<DataArray  type="Float64"  Name="f_10483"  format="ascii">-2.1488579161636520e-01  -7.6423662229558972e-02  -3.7580387774761366e-02  -2.1962613780551320e-02  -1.4450602197895464e-02  -9.9793163856979096e-03  -6.8314055376483065e-03  -4.3367015058506896e-03  -2.1877522925655584e-03  -2.2079994981796886e-04  1.6664329251917249e-03  3.5523634630206784e-03  5.5147685102091672e-03  7.6534198524980815e-03  1.0124791141511973e-02  1.3212066402093025e-02  1.7498075035871835e-02  2.4459452781271741e-02  3.9468656189676196e-02  8.8170417140476534e-02  2.1577022343354135e-01  -1.0724253643320594e-01  -7.0640455492178941e-02  -4.0784570250544355e-02  -2.5223736361148462e-02  -1.6730191580570781e-02  -1.1455773067430151e-02  -7.7738807349799523e-03  -4.9269971918300603e-03  -2.5340455348602238e-03  -3.8276135288394702e-04  1.6623247826250413e-03  3.7062702944558011e-03  5.8540487163976094e-03  8.2410154412657002e-03  1.1080151389120699e-02  1.4759166612438439e-02  2.0079717424667749e-02  2.8907524150455534e-02  4.5759750647840887e-02  7.8193435635815642e-02  1.1628723749151981e-01  -5.1981779241773766e-02  -4.6263737622267438e-02  -3.5096274987917231e-02  -2.5135530194941358e-02  -1.7740870580279317e-02  -1.2462330967301410e-02  -8.5497469790267351e-03  -5.4641777606595880e-03  -2.8665886356176590e-03  -5.4107501820739991e-04  1.6622355700284389e-03  3.8649785081600169e-03  6.1891669718438106e-03  8.7863911981013298e-03  1.1878382903473660e-02  1.5824202665884156e-02  2.1230600502379158e-02  2.9056781467937408e-02  4.0230137451205662e-02  5.2443714002471657e-02  5.3833142697725073e-02  -3.0339025655366336e-02  -3.0739951976532051e-02  -2.7139087441507136e-02  -2.1549985854855812e-02  -1.6311508805279994e-02  -1.1971530913176577e-02  -8.4302188438713770e-03  -5.4718527030482248e-03  -2.9003679023778227e-03  -5.6030117419824093e-04  1.6725588947174468e-03  3.9069506255809544e-03  6.2526319726568073e-03  8.8376167632857102e-03  1.1826654926730800e-02  1.5435816263360078e-02  1.9913875786800827e-02  2.5380978983280244e-02  3.1253523717884119e-02  3.4850289428108035e-02  3.2911103102241566e-02  -1.9771936315207329e-02  -2.0991904897353555e-02  -2.0159942318987389e-02  -1.7307490905212570e-02  -1.3945302648077022e-02  -1.0691395911971786e-02  -7.7435509848735873e-03  -5.1061316889240010e-03  -2.7119282903253195e-03  -4.7735466744633153e-04  1.6800432791037900e-03  3.8399248280000502e-03  6.0828957568160331e-03  8.4945619929249934e-03  1.1164654066999440e-02  1.4169896772683811e-02  1.7513967550245913e-02  2.0974547398895402e-02  2.3831200001016892e-02  2.4547005672665025e-02  2.2861633926082269e-02  -1.3611530593981491e-02  -1.4754533885869588e-02  -1.4895174314178585e-02  -1.3503668129395800e-02  -1.1410114194615068e-02  -9.0704564697947545e-03  -6.7334227904288432e-03  -4.4936088009392998e-03  -2.3633233944615403e-03  -3.1717249709176782e-04  1.6855782092436405e-03  3.6909746487363434e-03  5.7456360576576358e-03  7.8919632929463201e-03  1.0157624270140653e-02  1.2531099536977718e-02  1.4912085077082568e-02  1.7030811415946361e-02  1.8375282091321572e-02  1.8165445417158529e-02  1.6863247386014527e-02  -9.6202201971314211e-03  -1.0569105086779688e-02  -1.1022566106879314e-02  -1.0376064792149517e-02  -9.0789969530308320e-03  -7.4226888187542183e-03  -5.6139533594772636e-03  -3.7659592019358892e-03  -1.9282917518736635e-03  -1.1277120580853805e-04  1.6886134192311425e-03  3.4922284824472293e-03  5.3146224775902969e-03  7.1641665075740657e-03  9.0288549129390935e-03  1.0856657839098303e-02  1.2527076474428179e-02  1.3821349826295116e-02  1.4423885285322027e-02  1.3935049243544179e-02  1.2920905603473049e-02  -6.8746894534209369e-03  -7.6446445900526724e-03  -8.1673775568278043e-03  -7.8978463385241740e-03  -7.0876509464670098e-03  -5.9128546586574484e-03  -4.5238213412655591e-03  -3.0220639658379150e-03  -1.4679925275262798e-03  1.0710699450905981e-04  1.6894925385950753e-03  3.2734714131934795e-03  4.8532828789478984e-03  6.4148180051063677e-03  7.9256204781896333e-03  9.3224965669956219e-03  1.0498759608772954e-02  1.1298373861087790e-02  1.1534727993498924e-02  1.0993449215393749e-02  1.0194036962842384e-02  -4.9193487630820182e-03  -5.5433738959580264e-03  -6.0462270508320837e-03  -5.9667037301403989e-03  -5.4528678159363707e-03  -4.6092494907031068e-03  -3.5397053895561527e-03  -2.3258505297698222e-03  -1.0259510125785179e-03  3.2097380586869426e-04  1.6887705250300316e-03  3.0575464874072343e-03  4.4072412787387848e-03  5.7111082282664599e-03  6.9288722807697139e-03  8.0001166199400904e-03  8.8401590427747007e-03  9.3427730611603081e-03  9.3982683323325603e-03  8.8853956493158415e-03  8.2479063744686602e-03  -3.4995775900752380e-03  -4.0087120903562236e-03  -4.4625970034053797e-03  -4.4775019120040860e-03  -4.1451946242061282e-03  -3.5277703511117360e-03  -2.6959578369865774e-03  -1.7125587917261301e-03  -6.2887317253704136e-04  5.1496275079826513e-04  1.6870265301079301e-03  2.8595952621134841e-03  4.0047725271480710e-03  5.0900834940105846e-03  6.0743961728194282e-03  6.9049870577528732e-03  7.5173676237724231e-03  7.8399587007656844e-03  7.8077706695456224e-03  7.3484261170285500e-03  6.8334388891570725e-03  -2.4612915474824990e-03  -2.8818084786215730e-03  -3.2821115063030514e-03  -3.3423532748112399e-03  -3.1223098512279841e-03  -2.6592674036990372e-03  -2.0017731571126173e-03  -1.1976964593454376e-03  -2.9060713599359959e-04  6.8139371832208983e-04  1.6847278929768006e-03  2.6882545646332166e-03  3.6606936442766108e-03  4.5680475838956736e-03  5.3715291149904016e-03  6.0267016459805796e-03  6.4848071568334954e-03  6.6970916931495391e-03  6.6244766468357211e-03  6.2212184246455355e-03  5.7985005325572577e-03  -1.7065666251113920e-03  -2.0603152621193471e-03  -2.4125413822552451e-03  -2.4931531254140486e-03  -2.3430430207641837e-03  -1.9850559062346554e-03  -1.4533544310389966e-03  -7.8490767387859013e-04  -1.6500921073400965e-05  8.1688288644210028e-04  1.6821944961378677e-03  2.5475233439019663e-03  3.3808613795160607e-03  4.1488760939552005e-03  4.8161507742914052e-03  5.3454014824492512e-03  5.6992074177007078e-03  5.8434456680051669e-03  5.7541039548718335e-03  5.4003060417751022e-03  5.0460373569686219e-03  -1.1715887179619016e-03  -1.4768669553673363e-03  -1.7905203599922915e-03  -1.8792802945058564e-03  -1.7726086529718226e-03  -1.4850150236768607e-03  -1.0415742230184047e-03  -4.7174560935521367e-04  1.9296050225618515e-04  9.2062904217017681e-04  1.6796130896366717e-03  2.4385385988921295e-03  3.1659696805634080e-03  3.8300840950475866e-03  4.3987109206845287e-03  4.8400674033406447e-03  5.1244742748983718e-03  5.2269659697843493e-03  5.1322720994584053e-03  4.8178074761193864e-03  4.5126822143457092e-03  -8.1477082241902604e-04  -1.0872136494294489e-03  -1.3731530975906109e-03  -1.4646229743284342e-03  -1.3841413713161551e-03  -1.1415620038920651e-03  -7.5647030617934736e-04  -2.5350002725837599e-04  3.3951746731722084e-04  9.9310549517973574e-04  1.6770701199954089e-03  2.3609651132486410e-03  3.0143090441934637e-03  3.6068098791086018e-03  4.1088527173870557e-03  4.4924679338562536e-03  4.7329218478125712e-03  4.8107290079038708e-03  4.7155729724001408e-03  4.4292390370548286e-03  4.1571043445783875e-03  -6.1003831930428747e-04  -8.6344275954065386e-04  -1.1328127779527265e-03  -1.2251134214829209e-03  -1.1588233165151756e-03  -9.4148311163035330e-04  -5.8974141049813284e-04  -1.2555348384593200e-04  4.2539745224313389e-04  1.0351664390096549e-03  1.6745850918786940e-03  2.3139604759909926e-03  2.9235839346734116e-03  3.4742437327214340e-03  3.9379351926549172e-03  4.2889179451952751e-03  4.5051990005591461e-03  4.5701861694732813e-03  4.4761191998804011e-03  4.2065907069034573e-03  3.9533931029845839e-03  -5.4302624814468454e-04  -7.9012285155119987e-04  -1.0540299008521929e-03  -1.1470097269632178e-03  -1.0856020952492139e-03  -8.7671434989749543e-04  -5.3605420651958301e-04  -8.4728950571668355e-05  4.5226796506267253e-04  1.0474952863481473e-03  1.6721380401109832e-03  2.2967807938743395e-03  2.8920081151614613e-03  3.4290050307981268e-03  3.8803302867485897e-03  4.2209904301288978e-03  4.4298781754822788e-03  4.4912858071971262e-03  4.3983059810861402e-03  4.1343989317848811e-03  3.8873023283783588e-03  -6.0911702275115605e-04  -8.6231462666996786e-04  -1.1318431196465915e-03  -1.2259100892395660e-03  -1.1609229203262354e-03  -9.4464186496414650e-04  -5.9365911242618790e-04  -1.2996765249537889e-04  4.2069214555018667e-04  1.0303156042309597e-03  1.6696909883426750e-03  2.3091096412122800e-03  2.9188786279804439e-03  3.4698295640718259e-03  3.9340174907266847e-03  4.2857591918613247e-03  4.5030993967479583e-03  4.5693895017165061e-03  4.4770888581864106e-03  4.2077188397740455e-03  3.9543143995376352e-03  -8.1282826434595000e-04  -1.0849629568221622e-03  -1.3712968921670411e-03  -1.4664529276707441e-03  -1.3886457675803823e-03  -1.1481918536260522e-03  -7.6457663715948684e-04  -2.6253379888401316e-04  3.2996703602851526e-04  9.8331096697155517e-04  1.6672059602241063e-03  2.3511705850403626e-03  3.0047586129046096e-03  3.5977761074827666e-03  4.1007463864066850e-03  4.4858380841220589e-03  4.7284174515480797e-03  4.8088990545612307e-03  4.7174291778236035e-03  4.4314897296620836e-03  4.1590469026514341e-03  -1.1684061341147287e-03  -1.4735313958879519e-03  -1.7879960192262864e-03  -1.8826898895521825e-03  -1.7801981946673781e-03  -1.4957913231120350e-03  -1.0544348404590677e-03  -4.8580801482561351e-04  1.7830639965555687e-04  9.0573748132472746e-04  1.6646629905794315e-03  2.4236470380465851e-03  3.1513155779625550e-03  3.8160216895768580e-03  4.3858503032434635e-03  4.8292911039050229e-03  5.1168847332024011e-03  5.2235563747376045e-03  5.1347964402240773e-03  4.8211430355984564e-03  4.5158647981926132e-03  -1.7017612767397789e-03  -2.0560299615454904e-03  -2.4098278746411371e-03  -2.4991695877745481e-03  -2.3549313374716372e-03  -2.0011254022232745e-03  -1.4718746940694137e-03  -8.0460001373749643e-04  -3.6585299302030232e-05  7.9675273630953924e-04  1.6620815840727098e-03  2.5273931937692695e-03  3.3607770012871285e-03  4.1291837540957986e-03  4.7976305112603576e-03  5.3293319864599628e-03  5.6873191009926783e-03  5.8374292056441162e-03  5.7568174624854059e-03  5.4045913423485569e-03  5.0508427053398931e-03  -2.4542244523309167e-03  -2.8769423444178839e-03  -3.2802005666066059e-03  -3.3528156129207401e-03  -3.1405310766070360e-03  -2.6824255657583659e-03  -2.0272530347735683e-03  -1.2237715036843685e-03  -3.1641756406990948e-04  6.5602151557034229e-04  1.6595481872256044e-03  2.6628823618812655e-03  3.6348832161998464e-03  4.5419725395561420e-03  5.3460492373286822e-03  6.0035434839203769e-03  6.4665859314535536e-03  6.6866293550392119e-03  6.6263875865315040e-03  6.2260845588486893e-03  5.8055676277083959e-03  -3.4891628089332807e-03  -4.0041500368028409e-03  -4.4634945893179991e-03  -4.4956826205389822e-03  -4.1730915435495433e-03  -3.5607109775362042e-03  -2.7301200926101179e-03  -1.7458074138084934e-03  -6.6049644695182169e-04  4.8468081807895189e-04  1.6572495500830752e-03  2.8293133293938958e-03  3.9731492527327735e-03  5.0568348719275584e-03  6.0402339171949952e-03  6.8720464313273104e-03  7.4894707044278232e-03  7.8217779922296858e-03  7.8068730836320984e-03  7.3529881705812613e-03  6.8438536702982618e-03  -4.9036302942471717e-03  -5.5411195690913684e-03  -6.0539922521059171e-03  -5.9984969809358489e-03  -5.4958829625565931e-03  -4.6558405397310407e-03  -3.5845962005707612e-03  -2.3668321480767281e-03  -1.0629651985563724e-03  2.8672959277047875e-04  1.6555055551459872e-03  3.0233022743087639e-03  4.3702270927603593e-03  5.6701266099587408e-03  6.8839814697540412e-03  7.9535255709107626e-03  8.7971438961529820e-03  9.3109798103633915e-03  9.3905031310574944e-03  8.8876499761816295e-03  8.2636248433029108e-03  -6.8497608826214324e-03  -7.6491731351684940e-03  -8.1904519132718935e-03  -7.9540977808656120e-03  -7.1544835285608926e-03  -5.9782204867965963e-03  -4.5813443980040423e-03  -3.0705419249324297e-03  -1.5090067987827257e-03  7.0804666966292113e-05  1.6547835415627987e-03  3.2371690856504483e-03  4.8122686076909121e-03  6.3663400460110047e-03  7.8680974214499055e-03  9.2571307388547765e-03  1.0431927026677211e-02  1.1242122418744439e-02  1.1511653637053098e-02  1.0988920670276627e-02  1.0218965533641176e-02  -9.5766295232490913e-03  -1.0590773163314896e-02  -1.1079609205092508e-02  -1.0477073746074790e-02  -9.1828003942234556e-03  -7.5123817589117332e-03  -5.6845788327694775e-03  -3.8198904274182590e-03  -1.9703463974442888e-03  -1.4795240230709096e-04  1.6556626609069960e-03  3.4570472859484220e-03  5.2725678320191321e-03  7.1102352820907842e-03  8.9582294396455039e-03  1.0766964898938873e-02  1.2423273033233248e-02  1.3720340872367561e-02  1.4366842187106809e-02  1.3913381167007327e-02  1.2964496277354576e-02  -1.3518971305780754e-02  -1.4821169336918717e-02  -1.5031006011085080e-02  -1.3686535335726533e-02  -1.1567808996886073e-02  -9.1868234568049986e-03  -6.8133481899879432e-03  -4.5476872128086378e-03  -2.4013599775301745e-03  -3.4669856861475927e-04  1.6586978708760440e-03  3.6614485772131977e-03  5.7075994745886096e-03  7.8378848810761494e-03  1.0077698870580297e-02  1.2414732549965730e-02  1.4754390274809005e-02  1.6847944209612574e-02  1.8239450394411928e-02  1.8098809966107177e-02  1.6955806674214341e-02  -1.9517357845826370e-02  -2.1202729592403557e-02  -2.0486923920766901e-02  -1.7630271318673781e-02  -1.4169691470056599e-02  -1.0825620692523279e-02  -7.8203779868607024e-03  -5.1502859128015983e-03  -2.7386196767024877e-03  -4.9564874789196321e-04  1.6642328010025536e-03  3.8216307475542784e-03  6.0562043704384767e-03  8.4504077690466459e-03  1.1087827065011198e-02  1.4035671992130790e-02  1.7289578728263557e-02  2.0651766985430434e-02  2.3504218399233053e-02  2.4336180977611629e-02  2.3116212395462177e-02  -2.9566827021941841e-02  -3.1506013347806304e-02  -2.7909247637611340e-02  -2.2036702903051750e-02  -1.6569599706613595e-02  -1.2091540183204873e-02  -8.4823788465980040e-03  -5.4933406831680761e-03  -2.9083558925485577e-03  -5.6267454547790968e-04  1.6717171853839158e-03  3.9045772543011220e-03  6.2446439824855931e-03  8.8161287831651017e-03  1.1774494924003174e-02  1.5315806993330391e-02  1.9655784885464888e-02  2.4894261935080469e-02  3.0483363521773936e-02  3.4084228056827856e-02  3.3683301735664917e-02  -5.0488866617334816e-02  -4.9099437922099219e-02  -3.6885861370896687e-02  -2.5712505387692083e-02  -1.7886324422182638e-02  -1.2479926585721916e-02  -8.5341068233351029e-03  -5.4421151179785479e-03  -2.8448908917311317e-03  -5.2070242805283054e-04  1.6820405100769365e-03  3.8853510983143614e-03  6.2108647157298807e-03  8.8084538407813863e-03  1.1894023059164144e-02  1.5806607047462014e-02  2.1085146660473651e-02  2.8479806275182568e-02  3.8440551068216589e-02  4.9608013702625145e-02  5.5326055322157029e-02  -1.1294296141093577e-01  -7.4849159555339315e-02  -4.2415474567480523e-02  -2.5563248070177010e-02  -1.6735441344446177e-02  -1.1414890532256597e-02  -7.7358753089661761e-03  -4.8967393611298203e-03  -2.5097726362735473e-03  -3.6199421433836691e-04  1.6819512974902053e-03  3.7270374330011626e-03  5.8783216149837988e-03  8.2712732719651891e-03  1.1118156815133369e-02  1.4800049147610251e-02  2.0074467660789994e-02  2.8568012441423291e-02  4.4128846330897517e-02  7.3984731572639781e-02  1.1058681251374626e-01  -2.1242594735291179e-01  -8.4826141059924184e-02  -3.6124380109269272e-02  -2.1115176700965990e-02  -1.4153798955632589e-02  -9.8677903218981743e-03  -6.7805150613473707e-03  -4.3091437723539973e-03  -2.1704924300780114e-03  -2.0808738289682517e-04  1.6778431549298184e-03  3.5650760299416294e-03  5.5320283726964419e-03  7.6809775859943740e-03  1.0175681617812333e-02  1.3323592465891853e-02  1.7794878278133464e-02  2.5306889860853169e-02  4.0924663855156397e-02  7.9767938310092851e-02  2.1823006769704706e-01  </DataArray> 
</PointData> 
</Piece>
</UnstructuredGrid>
</VTKFile>