<?xml version="1.0"?>
<VTKFile type="UnstructuredGrid"  version="0.1"  >
<UnstructuredGrid>
<Piece  NumberOfPoints="651" NumberOfCells="1200">
<Points>
<DataArray  type="Float64"  NumberOfComponents="3"  format="ascii">0 0 0  50000 0 0  100000 0 0  150000 0 0  200000 0 0  250000 0 0  300000 0 0  350000 0 0  400000 0 0  450000 0 0  500000 0 0  550000 0 0  600000 0 0  650000 0 0  700000 0 0  750000 0 0  800000 0 0  850000 0 0  900000 0 0  950000 0 0  1000000 0 0  0 50000 0  50000 50000 0  100000 50000 0  150000 50000 0  200000 50000 0  250000 50000 0  300000 50000 0  350000 50000 0  400000 50000 0  450000 50000 0  500000 50000 0  550000 50000 0  600000 50000 0  650000 50000 0  700000 50000 0  750000 50000 0  800000 50000 0  850000 50000 0  900000 50000 0  950000 50000 0  1000000 50000 0  0 100000 0  50000 100000 0  100000 100000 0  150000 100000 0  200000 100000 0  250000 100000 0  300000 100000 0  350000 100000 0  400000 100000 0  450000 100000 0  500000 100000 0  550000 100000 0  600000 100000 0  650000 100000 0  700000 100000 0  750000 100000 0  800000 100000 0  850000 100000 0  900000 100000 0  950000 100000 0  1000000 100000 0  0 150000 0  50000 150000 0  100000 150000 0  150000 150000 0  200000 150000 0  250000 150000 0  300000 150000 0  350000 150000 0  400000 150000 0  450000 150000 0  500000 150000 0  550000 150000 0  600000 150000 0  650000 150000 0  700000 150000 0  750000 150000 0  800000 150000 0  850000 150000 0  900000 150000 0  950000 150000 0  1000000 150000 0  0 200000 0  50000 200000 0  100000 200000 0  150000 200000 0  200000 200000 0  250000 200000 0  300000 200000 0  350000 200000 0  400000 200000 0  450000 200000 0  500000 200000 0  550000 200000 0  600000 200000 0  650000 200000 0  700000 200000 0  750000 200000 0  800000 200000 0  850000 200000 0  900000 200000 0  950000 200000 0  1000000 200000 0  0 250000 0  50000 250000 0  100000 250000 0  150000 250000 0  200000 250000 0  250000 250000 0  300000 250000 0  350000 250000 0  400000 250000 0  450000 250000 0  500000 250000 0  550000 250000 0  600000 250000 0  650000 250000 0  700000 250000 0  750000 250000 0  800000 250000 0  850000 250000 0  900000 250000 0  950000 250000 0  1000000 250000 0  0 300000 0  50000 300000 0  100000 300000 0  150000 300000 0  200000 300000 0  250000 300000 0  300000 300000 0  350000 300000 0  400000 300000 0  450000 300000 0  500000 300000 0  550000 300000 0  600000 300000 0  650000 300000 0  700000 300000 0  750000 300000 0  800000 300000 0  850000 300000 0  900000 300000 0  950000 300000 0  1000000 300000 0  0 350000 0  50000 350000 0  100000 350000 0  150000 350000 0  200000 350000 0  250000 350000 0  300000 350000 0  350000 350000 0  400000 350000 0  450000 350000 0  500000 350000 0  550000 350000 0  600000 350000 0  650000 350000 0  700000 350000 0  750000 350000 0  800000 350000 0  850000 350000 0  900000 350000 0  950000 350000 0  1000000 350000 0  0 400000 0  50000 400000 0  100000 400000 0  150000 400000 0  200000 400000 0  250000 400000 0  300000 400000 0  350000 400000 0  400000 400000 0  450000 400000 0  500000 400000 0  550000 400000 0  600000 400000 0  650000 400000 0  700000 400000 0  750000 400000 0  800000 400000 0  850000 400000 0  900000 400000 0  950000 400000 0  1000000 400000 0  0 450000 0  50000 450000 0  100000 450000 0  150000 450000 0  200000 450000 0  250000 450000 0  300000 450000 0  350000 450000 0  400000 450000 0  450000 450000 0  500000 450000 0  550000 450000 0  600000 450000 0  650000 450000 0  700000 450000 0  750000 450000 0  800000 450000 0  850000 450000 0  900000 450000 0  950000 450000 0  1000000 450000 0  0 500000 0  50000 500000 0  100000 500000 0  150000 500000 0  200000 500000 0  250000 500000 0  300000 500000 0  350000 500000 0  400000 500000 0  450000 500000 0  500000 500000 0  550000 500000 0  600000 500000 0  650000 500000 0  700000 500000 0  750000 500000 0  800000 500000 0  850000 500000 0  900000 500000 0  950000 500000 0  1000000 500000 0  0 550000 0  50000 550000 0  100000 550000 0  150000 550000 0  200000 550000 0  250000 550000 0  300000 550000 0  350000 550000 0  400000 550000 0  450000 550000 0  500000 550000 0  550000 550000 0  600000 550000 0  650000 550000 0  700000 550000 0  750000 550000 0  800000 550000 0  850000 550000 0  900000 550000 0  950000 550000 0  1000000 550000 0  0 600000 0  50000 600000 0  100000 600000 0  150000 600000 0  200000 600000 0  250000 600000 0  300000 600000 0  350000 600000 0  400000 600000 0  450000 600000 0  500000 600000 0  550000 600000 0  600000 600000 0  650000 600000 0  700000 600000 0  750000 600000 0  800000 600000 0  850000 600000 0  900000 600000 0  950000 600000 0  1000000 600000 0  0 650000 0  50000 650000 0  100000 650000 0  150000 650000 0  200000 650000 0  250000 650000 0  300000 650000 0  350000 650000 0  400000 650000 0  450000 650000 0  500000 650000 0  550000 650000 0  600000 650000 0  650000 650000 0  700000 650000 0  750000 650000 0  800000 650000 0  850000 650000 0  900000 650000 0  950000 650000 0  1000000 650000 0  0 700000 0  50000 700000 0  100000 700000 0  150000 700000 0  200000 700000 0  250000 700000 0  300000 700000 0  350000 700000 0  400000 700000 0  450000 700000 0  500000 700000 0  550000 700000 0  600000 700000 0  650000 700000 0  700000 700000 0  750000 700000 0  800000 700000 0  850000 700000 0  900000 700000 0  950000 700000 0  1000000 700000 0  0 750000 0  50000 750000 0  100000 750000 0  150000 750000 0  200000 750000 0  250000 750000 0  300000 750000 0  350000 750000 0  400000 750000 0  450000 750000 0  500000 750000 0  550000 750000 0  600000 750000 0  650000 750000 0  700000 750000 0  750000 750000 0  800000 750000 0  850000 750000 0  900000 750000 0  950000 750000 0  1000000 750000 0  0 800000 0  50000 800000 0  100000 800000 0  150000 800000 0  200000 800000 0  250000 800000 0  300000 800000 0  350000 800000 0  400000 800000 0  450000 800000 0  500000 800000 0  550000 800000 0  600000 800000 0  650000 800000 0  700000 800000 0  750000 800000 0  800000 800000 0  850000 800000 0  900000 800000 0  950000 800000 0  1000000 800000 0  0 850000 0  50000 850000 0  100000 850000 0  150000 850000 0  200000 850000 0  250000 850000 0  300000 850000 0  350000 850000 0  400000 850000 0  450000 850000 0  500000 850000 0  550000 850000 0  600000 850000 0  650000 850000 0  700000 850000 0  750000 850000 0  800000 850000 0  850000 850000 0  900000 850000 0  950000 850000 0  1000000 850000 0  0 900000 0  50000 900000 0  100000 900000 0  150000 900000 0  200000 900000 0  250000 900000 0  300000 900000 0  350000 900000 0  400000 900000 0  450000 900000 0  500000 900000 0  550000 900000 0  600000 900000 0  650000 900000 0  700000 900000 0  750000 900000 0  800000 900000 0  850000 900000 0  900000 900000 0  950000 900000 0  1000000 900000 0  0 950000 0  50000 950000 0  100000 950000 0  150000 950000 0  200000 950000 0  250000 950000 0  300000 950000 0  350000 950000 0  400000 950000 0  450000 950000 0  500000 950000 0  550000 950000 0  600000 950000 0  650000 950000 0  700000 950000 0  750000 950000 0  800000 950000 0  850000 950000 0  900000 950000 0  950000 950000 0  1000000 950000 0  0 1000000 0  50000 1000000 0  100000 1000000 0  150000 1000000 0  200000 1000000 0  250000 1000000 0  300000 1000000 0  350000 1000000 0  400000 1000000 0  450000 1000000 0  500000 1000000 0  550000 1000000 0  600000 1000000 0  650000 1000000 0  700000 1000000 0  750000 1000000 0  800000 1000000 0  850000 1000000 0  900000 1000000 0  950000 1000000 0  1000000 1000000 0  0 1050000 0  50000 1050000 0  100000 1050000 0  150000 1050000 0  200000 1050000 0  250000 1050000 0  300000 1050000 0  350000 1050000 0  400000 1050000 0  450000 1050000 0  500000 1050000 0  550000 1050000 0  600000 1050000 0  650000 1050000 0  700000 1050000 0  750000 1050000 0  800000 1050000 0  850000 1050000 0  900000 1050000 0  950000 1050000 0  1000000 1050000 0  0 1100000 0  50000 1100000 0  100000 1100000 0  150000 1100000 0  200000 1100000 0  250000 1100000 0  300000 1100000 0  350000 1100000 0  400000 1100000 0  450000 1100000 0  500000 1100000 0  550000 1100000 0  600000 1100000 0  650000 1100000 0  700000 1100000 0  750000 1100000 0  800000 1100000 0  850000 1100000 0  900000 1100000 0  950000 1100000 0  1000000 1100000 0  0 1150000 0  50000 1150000 0  100000 1150000 0  150000 1150000 0  200000 1150000 0  250000 1150000 0  300000 1150000 0  350000 1150000 0  400000 1150000 0  450000 1150000 0  500000 1150000 0  550000 1150000 0  600000 1150000 0  650000 1150000 0  700000 1150000 0  750000 1150000 0  800000 1150000 0  850000 1150000 0  900000 1150000 0  950000 1150000 0  1000000 1150000 0  0 1200000 0  50000 1200000 0  100000 1200000 0  150000 1200000 0  200000 1200000 0  250000 1200000 0  300000 1200000 0  350000 1200000 0  400000 1200000 0  450000 1200000 0  500000 1200000 0  550000 1200000 0  600000 1200000 0  650000 1200000 0  700000 1200000 0  750000 1200000 0  800000 1200000 0  850000 1200000 0  900000 1200000 0  950000 1200000 0  1000000 1200000 0  0 1250000 0  50000 1250000 0  100000 1250000 0  150000 1250000 0  200000 1250000 0  250000 1250000 0  300000 1250000 0  350000 1250000 0  400000 1250000 0  450000 1250000 0  500000 1250000 0  550000 1250000 0  600000 1250000 0  650000 1250000 0  700000 1250000 0  750000 1250000 0  800000 1250000 0  850000 1250000 0  900000 1250000 0  950000 1250000 0  1000000 1250000 0  0 1300000 0  50000 1300000 0  100000 1300000 0  150000 1300000 0  200000 1300000 0  250000 1300000 0  300000 1300000 0  350000 1300000 0  400000 1300000 0  450000 1300000 0  500000 1300000 0  550000 1300000 0  600000 1300000 0  650000 1300000 0  700000 1300000 0  750000 1300000 0  800000 1300000 0  850000 1300000 0  900000 1300000 0  950000 1300000 0  1000000 1300000 0  0 1350000 0  50000 1350000 0  100000 1350000 0  150000 1350000 0  200000 1350000 0  250000 1350000 0  300000 1350000 0  350000 1350000 0  400000 1350000 0  450000 1350000 0  500000 1350000 0  550000 1350000 0  600000 1350000 0  650000 1350000 0  700000 135
[...]
<PointData  Scalars="f_10483"> 
<DataArray  type="Float64"  Name="f_10483"  format="ascii">-3.8299627400114145e-01  -1.3052695997822500e-01  -6.2189064031630159e-02  -3.5139810531361511e-02  -2.2447944668028113e-02  -1.5183351936074457e-02  -1.0317727431162826e-02  -6.6552129318631402e-03  -3.6371983046377416e-03  -9.6094054372714509e-04  1.5650283899789506e-03  4.0884320994535794e-03  6.7558562713787972e-03  9.7543782764449981e-03  1.3374288149678172e-02  1.8133146283625824e-02  2.5075242042207464e-02  3.6781253291521689e-02  6.2619546121594774e-02  1.4917189797358960e-01  3.8436505238521235e-01  -1.8694696090143723e-01  -1.2123525008303303e-01  -6.8866790661134353e-02  -4.1607989442967987e-02  -2.7006395392382088e-02  -1.8203223605786138e-02  -1.2297487371625879e-02  -7.9270503000308020e-03  -4.3991912548261613e-03  -1.3231085496431671e-03  1.5535626512019713e-03  4.4279767677468697e-03  7.4971243695444948e-03  1.1013091990208798e-02  1.5367618369192841e-02  2.1263622229161953e-02  3.0135717440291455e-02  4.5302385856392027e-02  7.4855285673230132e-02  1.3252732531778752e-01  2.0098250289675929e-01  -8.9006361889974420e-02  -7.9102236203536652e-02  -5.9570616798025833e-02  -4.2130637634776834e-02  -2.9376263831990976e-02  -2.0469557470368129e-02  -1.4058222876463149e-02  -9.1675529767495552e-03  -5.1804876298347140e-03  -1.7002417906699123e-03  1.5514524484322397e-03  4.8020202370721013e-03  8.2795799451332655e-03  1.2265490266835663e-02  1.7166815294405276e-02  2.3635672793696973e-02  3.2765897058396713e-02  4.6284293664155741e-02  6.5880937987332369e-02  8.7429418543845755e-02  8.9507151829423717e-02  -5.1530766551341298e-02  -5.2339478151283453e-02  -4.6017389069559232e-02  -3.6274762689837106e-02  -2.7286547990896741e-02  -1.9978065060523527e-02  -1.4152818272453934e-02  -9.4122469975931218e-03  -5.3944224058508480e-03  -1.8106287499294591e-03  1.5714848248884483e-03  4.9563280673864587e-03  8.5501402635386227e-03  1.2592075990466505e-02  1.7387442406451847e-02  2.3334074533118771e-02  3.0890313289186087e-02  4.0289509446972481e-02  5.0519306396913953e-02  5.6821499022565808e-02  5.3361227842925033e-02  -3.3331742247360685e-02  -3.5513059503045070e-02  -3.4067507901310370e-02  -2.9163890968897078e-02  -2.3461718335442111e-02  -1.8026766422989886e-02  -1.3195424103354770e-02  -8.9615351912251812e-03  -5.1930683795298931e-03  -1.7298586817091446e-03  1.5855959546242642e-03  4.9055139005384852e-03  8.3838127197329217e-03  1.2183649575707604e-02  1.6476216631225303e-02  2.1410737576202946e-02  2.7008426636040785e-02  3.2891059069689935e-02  3.7801844714978571e-02  3.9030939597862260e-02  3.6068816355643983e-02  -2.2690795930794250e-02  -2.4747271964112881e-02  -2.5052899034033991e-02  -2.2737127622810806e-02  -1.9258751542842723e-02  -1.5408738723591919e-02  -1.1616741439120745e-02  -8.0386410550661314e-03  -4.6852382009958671e-03  -1.5010258026391928e-03  1.5963612371497397e-03  4.6985406903780500e-03  7.8981696397575005e-03  1.1280642451494773e-02  1.4905630547262409e-02  1.8763876212697837e-02  2.2689375495683915e-02  2.6216127013116236e-02  2.8452590219570743e-02  2.8020496377853362e-02  2.5696073399667868e-02  -1.5764328468429852e-02  -1.7511335003903280e-02  -1.8413762976592998e-02  -1.7428372861758586e-02  -1.5351668499711878e-02  -1.2690302006777596e-02  -9.8029583937712592e-03  -6.8812716156203425e-03  -4.0042494995326970e-03  -1.1839759683801431e-03  1.6025697595051730e-03  4.3931887024517965e-03  7.2260223602435602e-03  1.0124784268532879e-02  1.3077156766340940e-02  1.5999920200465440e-02  1.8688408997997369e-02  2.0763201462334305e-02  2.1674674363729537e-02  2.0706997687374065e-02  1.8847313592015229e-02  -1.0984981374645545e-02  -1.2447073376355651e-02  -1.3512699045087841e-02  -1.3210218024719720e-02  -1.1994306260965579e-02  -1.0172249524998473e-02  -8.0058511806899626e-03  -5.6687021837394111e-03  -3.2609646598825469e-03  -8.3081412790875003e-04  1.6048439280946008e-03  4.0434467480660735e-03  6.4823224830377361e-03  8.9039481736054426e-03  1.1258123226134875e-02  1.3439822430537301e-02  1.5266282473649953e-02  1.6465864649839203e-02  1.6712463608676655e-02  1.5611766525719320e-02  1.4097070878770143e-02  -7.5820714914511915e-03  -8.8082788744848657e-03  -9.8698746616331882e-03  -9.9179275827740842e-03  -9.2282125190320564e-03  -7.9841605721746832e-03  -6.3674555553420260e-03  -4.5184424277012790e-03  -2.5351468040387651e-03  -4.8088392825708766e-04  1.6041620904598780e-03  3.6910535594380589e-03  5.7505616013393060e-03  7.7414672771298435e-03  9.5982503843868340e-03  1.1219099320738371e-02  1.2458208992412206e-02  1.3129782803915534e-02  1.3040917914626584e-02  1.1959791194226339e-02  1.0708506114869268e-02  -5.1223099071175384e-03  -6.1575556447619542e-03  -7.1525268671258444e-03  -7.3778560931614980e-03  -7.0110746705850917e-03  -6.1617469416134912e-03  -4.9542017095666234e-03  -3.4968264708463257e-03  -1.8765812962823376e-03  -1.5994609775647916e-04  1.6015619402187427e-03  3.3640577304107381e-03  5.0833505639753902e-03  6.7069485701719755e-03  8.1666081070183062e-03  9.3728409312526656e-03  1.0214216697425947e-02  1.0564915664853630e-02  1.0309807545410238e-02  9.3038707455197784e-03  8.2570791807223907e-03  -3.3390145813189959e-03  -4.2215465721020537e-03  -5.1318079975458007e-03  -5.4429385169474480e-03  -5.2753172626387214e-03  -4.6948031643563939e-03  -3.7870027554440956e-03  -2.6346700685834419e-03  -1.3119619836867954e-03  1.1734026737810488e-04  1.5978880199331933e-03  3.0788504882190040e-03  4.5091491865001465e-03  5.8326883552350973e-03  6.9844589030615472e-03  7.8887439949470364e-03  8.4611456981726670e-03  8.6156766449766720e-03  8.2828280381892928e-03  7.3664814704768045e-03  6.4791939530539685e-03  -2.0580729480730161e-03  -2.8209226368372188e-03  -3.6488437197897483e-03  -3.9977669446274082e-03  -3.9530625286784546e-03  -3.5546499358404047e-03  -2.8627161758934408e-03  -1.9411092381457183e-03  -8.5253256474808860e-04  3.4410996186066902e-04  1.5937258110816177e-03  2.8434269779629936e-03  4.0401503247137569e-03  5.1282931320000827e-03  6.0481648423552879e-03  6.7361468483948979e-03  7.1275207512748340e-03  7.1621473270134248e-03  6.7975863650726791e-03  5.9663815062071255e-03  5.2021028191860134e-03  -1.1621805124546437e-03  -1.8347983066312871e-03  -2.5927660883391652e-03  -2.9553829798797089e-03  -2.9858283917360631e-03  -2.7086642595426634e-03  -2.1677698532562547e-03  -1.4138258629046851e-03  -5.0051425449939245e-04  5.1826636996066993e-04  1.5894244338476751e-03  2.6605166935768604e-03  3.6789875481202028e-03  4.5914255985353139e-03  5.3434604427930535e-03  5.8808969205559822e-03  6.1526046723395025e-03  6.1148776775846580e-03  5.7414235198155888e-03  4.9817630453257503e-03  4.3091783954945168e-03  -5.7220383467287300e-04  -1.1816997248346188e-03  -1.8872277921303977e-03  -2.2528957227233278e-03  -2.3277735498075354e-03  -2.1276097642838167e-03  -1.6862729759620644e-03  -1.0458953617464453e-03  -2.5380552043212498e-04  6.4015508094624135e-04  1.5851534705897594e-03  2.5300519842851887e-03  3.4236482630308363e-03  4.2149279969175410e-03  4.8537902297008367e-03  5.2926380725290276e-03  5.4891191109126521e-03  5.4095277216702773e-03  5.0370198567576789e-03  4.3306836895333116e-03  3.7216560918507894e-03  -2.3697975329294471e-04  -8.0901993990748888e-04  -1.4822796129520196e-03  -1.8478789481007991e-03  -1.9464206825369713e-03  -1.7891851321600121e-03  -1.4046131871665369e-03  -8.3005585532145137e-04  -1.0910841257668710e-04  7.1096163861978691e-04  1.5809616699726939e-03  2.4508961984976850e-03  3.2707405834086880e-03  3.9912212071848635e-03  4.5649567965477195e-03  4.9482383025016728e-03  5.1036254375327024e-03  5.0027701829750710e-03  4.6338590844030901e-03  3.9602832490136927e-03  3.3885974322960524e-03  -1.2767957311622663e-04  -6.8717277397822743e-04  -1.3496350042942373e-03  -1.7158992072104945e-03  -1.8225502525409192e-03  -1.6796626721070152e-03  -1.3139288058832128e-03  -7.6118616274645744e-04  -6.3831560773367526e-05  7.3171394814489034e-04  1.5768259455460054e-03  2.4219379429486721e-03  3.2174834518716106e-03  3.9148380538513092e-03  4.4675806969952259e-03  4.8333145632254689e-03  4.9762021436636755e-03  4.8695510983352364e-03  4.5032868954188619e-03  3.8408246651022403e-03  3.2813314642404566e-03  -2.3494554117280451e-04  -8.0663135789049256e-04  -1.4802071932791345e-03  -1.8491182918510991e-03  -1.9499735464106422e-03  -1.7945864113841630e-03  -1.4113049054367416e-03  -8.3756931608133063e-04  -1.1708869231200446e-04  7.0275569259429377e-04  1.5726902211176024e-03  2.4426902524721434e-03  3.2627603036733165e-03  3.9837077464247176e-03  4.5582650782771813e-03  4.9428370232772294e-03  5.1000725736587930e-03  5.0015308392245411e-03  4.6359315040757918e-03  3.9626718310305543e-03  3.3906316444161037e-03  -5.6800420073085044e-04  -1.1770317984129790e-03  -1.8833679656362207e-03  -2.2558758305485558e-03  -2.3354672197931411e-03  -2.1389861814146184e-03  -1.7001383385935372e-03  -1.0612761058183472e-03  -2.6999637193891342e-04  6.2359990680169695e-04  1.5684984204952358e-03  2.5134968101404478e-03  3.4074574115237526e-03  4.1995472528452539e-03  4.8399248670689442e-03  5.2812616553978278e-03  5.4814254409265373e-03  5.4065476138444720e-03  5.0408796832517415e-03  4.3353516159550026e-03  3.7258557257928760e-03  -1.1555265043796095e-03  -1.8281111542097566e-03  -2.5877716286978173e-03  -2.9612257864665673e-03  -2.9989527812242507e-03  -2.7272450294468283e-03  -2.1898085516922155e-03  -1.4377737074438056e-03  -5.2533565703690875e-04  4.9313519750067501e-04  1.5642274572277694e-03  2.6353855211166534e-03  3.6541661455822255e-03  4.5674777539955547e-03  5.3214217443563099e-03  5.8623161506509971e-03  6.1394802828505721e-03  6.1090348709970446e-03  5.7464179794564562e-03  4.9884501977468477e-03  4.3158324035692209e-03  -2.0484509280780210e-03  -2.8127296150971376e-03  -3.6439344739599092e-03  -4.0084954359007096e-03  -3.9738688601659135e-03  -3.5824949572938261e-03  -2.8945129512645855e-03  -1.9746412409205817e-03  -8.8649843364402769e-04  3.1022491309998874e-04  1.5599260799788977e-03  2.8095419292020300e-03  4.0061844558172124e-03  5.0947611292242422e-03  6.0163680669829507e-03  6.7083018269402011e-03  7.1067144197863152e-03  7.1514188357391720e-03  6.8024956109016500e-03  5.9745745279466324e-03  5.2117248391806139e-03  -3.3255420619538682e-03  -4.2128295793732937e-03  -5.1291761470821260e-03  -5.4620247538701913e-03  -5.3074938070719335e-03  -4.7350921038569098e-03  -3.8308070119850591e-03  -2.6790364641727424e-03  -1.3554972954497547e-03  7.4801402823208090e-05  1.5557638711060551e-03  3.0363116236637126e-03  4.4656138747363149e-03  5.7883219596446085e-03  6.9406546465190849e-03  7.8484550554448057e-03  8.4289691537377375e-03  8.5965904080524090e-03  8.2854598886519405e-03  7.3751984632048212e-03  6.4926664724185906e-03  -5.1034272896299266e-03  -6.1502188544225117e-03  -7.1561556543083514e-03  -7.4112637737539962e-03  -7.0605648063355635e-03  -6.2191890401773302e-03  -5.0129562159611403e-03  -3.5532966791328542e-03  -1.9296986729511311e-03  -2.1040583939626668e-04  1.5520899507921310e-03  3.3135979887704199e-03  5.0302331873055776e-03  6.6504783618841186e-03  8.1078536006220399e-03  9.3153988326867207e-03  1.0164726561673269e-02  1.0531507984259130e-02  1.0306178758226195e-02  9.3112075358582399e-03  8.2759617982087544e-03  -7.5548542237832686e-03  -8.8061393031332123e-03  -9.8872660235285615e-03  -9.9761309128226418e-03  -9.3045571013341041e-03  -8.0654474296816478e-03  -6.4445984933543168e-03  -4.5878153861199610e-03  -2.5969097103476671e-03  -5.3740166845830050e-04  1.5494898005156377e-03  3.6345358192363423e-03  5.6887986950292548e-03  7.6720943187095882e-03  9.5211074463725440e-03  1.1137812463228786e-02  1.2381864410107380e-02  1.3071579473864304e-02  1.3023526552729122e-02  1.1961930765576688e-02  1.0735723382536481e-02  -1.0943418987685723e-02  -1.2458114634625183e-02  -1.3558811717578671e-02  -1.3312212758752147e-02  -1.2112630582585460e-02  -1.0286170539502450e-02  -8.1044713351313968e-03  -5.7502962826301027e-03  -3.3286705920841297e-03  -8.8979485712607483e-04  1.5488079628406006e-03  3.9844660188482301e-03  6.4146165508350969e-03  8.8223540747130891e-03  1.1159503071691059e-02  1.3325901416030126e-02  1.5147958152026644e-02  1.6363869915803245e-02  1.6666350936182562e-02  1.5600725267447579e-02  1.4138633265729034e-02  -1.5693661700923189e-02  -1.7553345796270641e-02  -1.8521022472625871e-02  -1.7609549571250074e-02  -1.5534757106946389e-02  -1.2846268309454527e-02  -9.9235048753688292e-03  -6.9711323775938396e-03  -4.0723704693289807e-03  -1.2395368115522486e-03  1.5510821313891756e-03  4.3376278592791766e-03  7.1579013904461697e-03  1.0034923506557585e-02  1.2956610284740698e-02  1.5843953897784847e-02  1.8505320390758626e-02  2.0582024752838893e-02  2.1567414867693157e-02  2.0664986895003876e-02  1.8917980359520723e-02  -2.2542421508552596e-02  -2.4866844486726245e-02  -2.5298938328450316e-02  -2.3062475122029046e-02  -1.9535723604644183e-02  -1.5610224321709377e-02  -1.1751978656319410e-02  -8.1269905605881130e-03  -4.7445177488770725e-03  -1.5448887995131947e-03  1.5572906537098998e-03  4.6546776935037296e-03  7.8388900918754910e-03  1.1192292945971172e-02  1.4770393330061285e-02  1.8562390614577266e-02  2.2412403433877882e-02  2.5890779513892691e-02  2.8206550925148708e-02  2.7900923855236237e-02  2.5844447821908190e-02  -3.2915164464479479e-02  -3.5877287706687688e-02  -3.4648192823825454e-02  -2.9737407178590702e-02  -2.3854774745005736e-02  -1.8257085685228939e-02  -1.3322564740301518e-02  -9.0299976848220217e-03  -5.2301608288737996e-03  -1.7518620096947460e-03  1.5680559362143479e-03  4.8835105725525824e-03  8.3467202703882623e-03  1.2115187082109334e-02  1.6349075994276360e-02  2.1180418313961107e-02  2.6615370226472031e-02  3.2317542859989577e-02  3.7221159792455792e-02  3.8666711394213876e-02  3.6485394138523301e-02  -5.0207575951669296e-02  -5.3667847131307185e-02  -4.7365654505707615e-02  -3.7135857555847557e-02  -2.7736661398142320e-02  -2.0180422642143436e-02  -1.4233790515529436e-02  -9.4384240995832903e-03  -5.3964883726817523e-03  -1.8026761765450102e-03  1.5821670659478470e-03  4.9642806407706091e-03  8.5480742967067678e-03  1.2565898888474987e-02  1.7306470163374381e-02  2.3131716951496448e-02  3.0440199881936317e-02  3.9428414580955237e-02  4.9171040960755308e-02  5.5493130042531660e-02  5.4684418442594723e-02  -8.6353499937992337e-02  -8.4275766652445766e-02  -6.2727286096046095e-02  -4.3130641772986304e-02  -2.9612245167324094e-02  -2.0482020902698538e-02  -1.4013163403463359e-02  -9.1118383759345653e-03  -5.1259280542602934e-03  -1.6483683462151380e-03  1.6021994424193272e-03  4.8538936815264912e-03  8.3341395207069437e-03  1.2321204867648802e-02  1.7211874767403025e-02  2.3623209361363699e-02  3.2529915723059903e-02  4.5284289525939027e-02  6.2724268689295121e-02  8.2255888094908733e-02  9.2160013781394198e-02  -1.9782885100496830e-01  -1.2937367342619288e-01  -7.1701633781843424e-02  -4.2148733965155727e-02  -2.6982065549167638e-02  -1.8109970338122245e-02  -1.2213966478216045e-02  -7.8594400992777133e-03  -4.3434724786444315e-03  -1.2743248768648191e-03  1.6000892396740457e-03  4.4767604405248681e-03  7.5528431457253797e-03  1.1080702190960594e-02  1.5451139262600787e-02  2.1356875496822584e-02  3.0160047283501770e-02  4.4761641334197862e-02  7.2020442552509223e-02  1.2438890197460027e-01  1.9010061279314869e-01  -3.8121140049333713e-01  -1.4601824608185657e-01  -5.9465894230124279e-02  -3.3627601400236636e-02  -2.1921590151050784e-02  -1.4979494392560990e-02  -1.0220636258680907e-02  -6.6007263854966965e-03  -3.6022043804634267e-03  -9.3478020855747497e-04  1.5886235009108752e-03  4.1145924346229334e-03  6.7908501955525882e-03  9.8088648228107107e-03  1.3471379322159055e-02  1.8337003827137519e-02  2.5601596559182475e-02  3.8293462422639597e-02  6.5342715923078998e-02  1.3368061186992516e-01  3.8614992589311375e-01  </DataArray> 
</PointData> 
</Piece>
</UnstructuredGrid>
</VTKFile>