<?xml version="1.0"?>
<VTKFile type="UnstructuredGrid"  version="0.1"  >
<UnstructuredGrid>
<Piece  NumberOfPoints="651" NumberOfCells="1200">
<Points>
<DataArray  type="Float64"  NumberOfComponents="3"  format="ascii">0 0 0  50000 0 0  100000 0 0  150000 0 0  200000 0 0  250000 0 0  300000 0 0  350000 0 0  400000 0 0  450000 0 0  500000 0 0  550000 0 0  600000 0 0  650000 0 0  700000 0 0  750000 0 0  800000 0 0  850000 0 0  900000 0 0  950000 0 0  1000000 0 0  0 50000 0  50000 50000 0  100000 50000 0  150000 50000 0  200000 50000 0  250000 50000 0  300000 50000 0  350000 50000 0  400000 50000 0  450000 50000 0  500000 50000 0  550000 50000 0  600000 50000 0  650000 50000 0  700000 50000 0  750000 50000 0  800000 50000 0  850000 50000 0  900000 50000 0  950000 50000 0  1000000 50000 0  0 100000 0  50000 100000 0  100000 100000 0  150000 100000 0  200000 100000 0  250000 100000 0  300000 100000 0  350000 100000 0  400000 100000 0  450000 100000 0  500000 100000 0  550000 100000 0  600000 100000 0  650000 100000 0  700000 100000 0  750000 100000 0  800000 100000 0  850000 100000 0  900000 100000 0  950000 100000 0  1000000 100000 0  0 150000 0  50000 150000 0  100000 150000 0  150000 150000 0  200000 150000 0  250000 150000 0  300000 150000 0  350000 150000 0  400000 150000 0  450000 150000 0  500000 150000 0  550000 150000 0  600000 150000 0  650000 150000 0  700000 150000 0  750000 150000 0  800000 150000 0  850000 150000 0  900000 150000 0  950000 150000 0  1000000 150000 0  0 200000 0  50000 200000 0  100000 200000 0  150000 200000 0  200000 200000 0  250000 200000 0  300000 200000 0  350000 200000 0  400000 200000 0  450000 200000 0  500000 200000 0  550000 200000 0  600000 200000 0  650000 200000 0  700000 200000 0  750000 200000 0  800000 200000 0  850000 200000 0  900000 200000 0  950000 200000 0  1000000 200000 0  0 250000 0  50000 250000 0  100000 250000 0  150000 250000 0  200000 250000 0  250000 250000 0  300000 250000 0  350000 250000 0  400000 250000 0  450000 250000 0  500000 250000 0  550000 250000 0  600000 250000 0  650000 250000 0  700000 250000 0  750000 250000 0  800000 250000 0  850000 250000 0  900000 250000 0  950000 250000 0  1000000 250000 0  0 300000 0  50000 300000 0  100000 300000 0  150000 300000 0  200000 300000 0  250000 300000 0  300000 300000 0  350000 300000 0  400000 300000 0  450000 300000 0  500000 300000 0  550000 300000 0  600000 300000 0  650000 300000 0  700000 300000 0  750000 300000 0  800000 300000 0  850000 300000 0  900000 300000 0  950000 300000 0  1000000 300000 0  0 350000 0  50000 350000 0  100000 350000 0  150000 350000 0  200000 350000 0  250000 350000 0  300000 350000 0  350000 350000 0  400000 350000 0  450000 350000 0  500000 350000 0  550000 350000 0  600000 350000 0  650000 350000 0  700000 350000 0  750000 350000 0  800000 350000 0  850000 350000 0  900000 350000 0  950000 350000 0  1000000 350000 0  0 400000 0  50000 400000 0  100000 400000 0  150000 400000 0  200000 400000 0  250000 400000 0  300000 400000 0  350000 400000 0  400000 400000 0  450000 400000 0  500000 400000 0  550000 400000 0  600000 400000 0  650000 400000 0  700000 400000 0  750000 400000 0  800000 400000 0  850000 400000 0  900000 400000 0  950000 400000 0  1000000 400000 0  0 450000 0  50000 450000 0  100000 450000 0  150000 450000 0  200000 450000 0  250000 450000 0  300000 450000 0  350000 450000 0  400000 450000 0  450000 450000 0  500000 450000 0  550000 450000 0  600000 450000 0  650000 450000 0  700000 450000 0  750000 450000 0  800000 450000 0  850000 450000 0  900000 450000 0  950000 450000 0  1000000 450000 0  0 500000 0  50000 500000 0  100000 500000 0  150000 500000 0  200000 500000 0  250000 500000 0  300000 500000 0  350000 500000 0  400000 500000 0  450000 500000 0  500000 500000 0  550000 500000 0  600000 500000 0  650000 500000 0  700000 500000 0  750000 500000 0  800000 500000 0  850000 500000 0  900000 500000 0  950000 500000 0  1000000 500000 0  0 550000 0  50000 550000 0  100000 550000 0  150000 550000 0  200000 550000 0  250000 550000 0  300000 550000 0  350000 550000 0  400000 550000 0  450000 550000 0  500000 550000 0  550000 550000 0  600000 550000 0  650000 550000 0  700000 550000 0  750000 550000 0  800000 550000 0  850000 550000 0  900000 550000 0  950000 550000 0  1000000 550000 0  0 600000 0  50000 600000 0  100000 600000 0  150000 600000 0  200000 600000 0  250000 600000 0  300000 600000 0  350000 600000 0  400000 600000 0  450000 600000 0  500000 600000 0  550000 600000 0  600000 600000 0  650000 600000 0  700000 600000 0  750000 600000 0  800000 600000 0  850000 600000 0  900000 600000 0  950000 600000 0  1000000 600000 0  0 650000 0  50000 650000 0  100000 650000 0  150000 650000 0  200000 650000 0  250000 650000 0  300000 650000 0  350000 650000 0  400000 650000 0  450000 650000 0  500000 650000 0  550000 650000 0  600000 650000 0  650000 650000 0  700000 650000 0  750000 650000 0  800000 650000 0  850000 650000 0  900000 650000 0  950000 650000 0  1000000 650000 0  0 700000 0  50000 700000 0  100000 700000 0  150000 700000 0  200000 700000 0  250000 700000 0  300000 700000 0  350000 700000 0  400000 700000 0  450000 700000 0  500000 700000 0  550000 700000 0  600000 700000 0  650000 700000 0  700000 700000 0  750000 700000 0  800000 700000 0  850000 700000 0  900000 700000 0  950000 700000 0  1000000 700000 0  0 750000 0  50000 750000 0  100000 750000 0  150000 750000 0  200000 750000 0  250000 750000 0  300000 750000 0  350000 750000 0  400000 750000 0  450000 750000 0  500000 750000 0  550000 750000 0  600000 750000 0  650000 750000 0  700000 750000 0  750000 750000 0  800000 750000 0  850000 750000 0  900000 750000 0  950000 750000 0  1000000 750000 0  0 800000 0  50000 800000 0  100000 800000 0  150000 800000 0  200000 800000 0  250000 800000 0  300000 800000 0  350000 800000 0  400000 800000 0  450000 800000 0  500000 800000 0  550000 800000 0  600000 800000 0  650000 800000 0  700000 800000 0  750000 800000 0  800000 800000 0  850000 800000 0  900000 800000 0  950000 800000 0  1000000 800000 0  0 850000 0  50000 850000 0  100000 850000 0  150000 850000 0  200000 850000 0  250000 850000 0  300000 850000 0  350000 850000 0  400000 850000 0  450000 850000 0  500000 850000 0  550000 850000 0  600000 850000 0  650000 850000 0  700000 850000 0  750000 850000 0  800000 850000 0  850000 850000 0  900000 850000 0  950000 850000 0  1000000 850000 0  0 900000 0  50000 900000 0  100000 900000 0  150000 900000 0  200000 900000 0  250000 900000 0  300000 900000 0  350000 900000 0  400000 900000 0  450000 900000 0  500000 900000 0  550000 900000 0  600000 900000 0  650000 900000 0  700000 900000 0  750000 900000 0  800000 900000 0  850000 900000 0  900000 900000 0  950000 900000 0  1000000 900000 0  0 950000 0  50000 950000 0  100000 950000 0  150000 950000 0  200000 950000 0  250000 950000 0  300000 950000 0  350000 950000 0  400000 950000 0  450000 950000 0  500000 950000 0  550000 950000 0  600000 950000 0  650000 950000 0  700000 950000 0  750000 950000 0  800000 950000 0  850000 950000 0  900000 950000 0  950000 950000 0  1000000 950000 0  0 1000000 0  50000 1000000 0  100000 1000000 0  150000 1000000 0  200000 1000000 0  250000 1000000 0  300000 1000000 0  350000 1000000 0  400000 1000000 0  450000 1000000 0  500000 1000000 0  550000 1000000 0  600000 1000000 0  650000 1000000 0  700000 1000000 0  750000 1000000 0  800000 1000000 0  850000 1000000 0  900000 1000000 0  950000 1000000 0  1000000 1000000 0  0 1050000 0  50000 1050000 0  100000 1050000 0  150000 1050000 0  200000 1050000 0  250000 1050000 0  300000 1050000 0  350000 1050000 0  400000 1050000 0  450000 1050000 0  500000 1050000 0  550000 1050000 0  600000 1050000 0  650000 1050000 0  700000 1050000 0  750000 1050000 0  800000 1050000 0  850000 1050000 0  900000 1050000 0  950000 1050000 0  1000000 1050000 0  0 1100000 0  50000 1100000 0  100000 1100000 0  150000 1100000 0  200000 1100000 0  250000 1100000 0  300000 1100000 0  350000 1100000 0  400000 1100000 0  450000 1100000 0  500000 1100000 0  550000 1100000 0  600000 1100000 0  650000 1100000 0  700000 1100000 0  750000 1100000 0  800000 1100000 0  850000 1100000 0  900000 1100000 0  950000 1100000 0  1000000 1100000 0  0 1150000 0  50000 1150000 0  100000 1150000 0  150000 1150000 0  200000 1150000 0  250000 1150000 0  300000 1150000 0  350000 1150000 0  400000 1150000 0  450000 1150000 0  500000 1150000 0  550000 1150000 0  600000 1150000 0  650000 1150000 0  700000 1150000 0  750000 1150000 0  800000 1150000 0  850000 1150000 0  900000 1150000 0  950000 1150000 0  1000000 1150000 0  0 1200000 0  50000 1200000 0  100000 1200000 0  150000 1200000 0  200000 1200000 0  250000 1200000 0  300000 1200000 0  350000 1200000 0  400000 1200000 0  450000 1200000 0  500000 1200000 0  550000 1200000 0  600000 1200000 0  650000 1200000 0  700000 1200000 0  750000 1200000 0  800000 1200000 0  850000 1200000 0  900000 1200000 0  950000 1200000 0  1000000 1200000 0  0 1250000 0  50000 1250000 0  100000 1250000 0  150000 1250000 0  200000 1250000 0  250000 1250000 0  300000 1250000 0  350000 1250000 0  400000 1250000 0  450000 1250000 0  500000 1250000 0  550000 1250000 0  600000 1250000 0  650000 1250000 0  700000 1250000 0  750000 1250000 0  800000 1250000 0  850000 1250000 0  900000 1250000 0  950000 1250000 0  1000000 1250000 0  0 1300000 0  50000 1300000 0  100000 1300000 0  150000 1300000 0  200000 1300000 0  250000 1300000 0  300000 1300000 0  350000 1300000 0  400000 1300000 0  450000 1300000 0  500000 1300000 0  550000 1300000 0  600000 1300000 0  650000 1300000 0  700000 1300000 0  750000 1300000 0  800000 1300000 0  850000 1300000 0  900000 1300000 0  950000 1300000 0  1000000 1300000 0  0 1350000 0  50000 1350000 0  100000 1350000 0  150000 1350000 0  200000 1350000 0  250000 1350000 0  300000 1350000 0  350000 1350000 0  400000 1350000 0  450000 1350000 0  500000 1350000 0  550000 1350000 0  600000 1350000 0  650000 1350000 0  700000 135
[...]
<PointData  Scalars="f_10483"> 
<DataArray  type="Float64"  Name="f_10483"  format="ascii">-3.6948088101041460e-01  -1.2711511796518940e-01  -6.1297523410380014e-02  -3.5218059044667571e-02  -2.2964943975450115e-02  -1.5936795226055501e-02  -1.1215833663020548e-02  -7.6505421178106638e-03  -4.7036656157956941e-03  -2.0844421851635288e-03  3.9077116832336647e-04  2.8635310175136306e-03  5.4742988469474035e-03  8.4024872132241121e-03  1.1926833107703911e-02  1.6544910027640549e-02  2.3262044905400969e-02  3.4566941410784584e-02  5.9492471402079118e-02  1.4277759690565966e-01  3.6833705065941807e-01  -1.8128512807454444e-01  -1.1810837841409225e-01  -6.7656543698217983e-02  -4.1401144546595707e-02  -2.7322114644748138e-02  -1.8820229832435365e-02  -1.3103532968370522e-02  -8.8616006247254162e-03  -5.4284311997964997e-03  -2.4286387240165671e-03  3.7994312662502404e-04  3.1863653464870396e-03  6.1795237034672950e-03  9.6013267434068052e-03  1.3828096677490142e-02  1.9535792496401017e-02  2.8105115599840986e-02  4.2730512446791963e-02  7.1194340426868521e-02  1.2668613596203157e-01  1.9249367083335106e-01  -8.7045769965985120e-02  -7.7488314378062875e-02  -5.8666486403285110e-02  -4.1868590801178433e-02  -2.9573120207253868e-02  -2.0976425844687775e-02  -1.4777876673362507e-02  -1.0040151730984189e-02  -6.1700536770225326e-03  -2.7863844631989113e-03  3.7799296961914236e-04  3.5412885841539800e-03  6.9223795800053183e-03  1.0791380209622951e-02  1.5539397461914533e-02  2.1793427250657582e-02  3.0605576559977074e-02  4.3636644839629445e-02  6.2510422934638710e-02  8.3259791564109425e-02  8.5297638605995402e-02  -5.0915293068143255e-02  -5.1681966519366566e-02  -4.5591988964246717e-02  -3.6205943928108851e-02  -2.7538494099268656e-02  -2.0483524735794612e-02  -1.4852799315890636e-02  -1.0263440354402494e-02  -6.3677701415598940e-03  -2.8885635908443273e-03  3.9716634501001395e-04  3.6855206642997075e-03  7.1743612496858377e-03  1.1093224080074513e-02  1.5735303034281705e-02  2.1482814590795162e-02  2.8776098283514493e-02  3.7838764366030765e-02  4.7695343534033048e-02  5.3767507889521650e-02  5.0442254722315436e-02  -3.3362065905727600e-02  -3.5458890829251764e-02  -3.4066688969721412e-02  -2.9339181152367194e-02  -2.3837134407915475e-02  -1.8588415732687189e-02  -1.3917481849394713e-02  -9.8191155946752186e-03  -6.1668944842430129e-03  -2.8072846441195625e-03  4.1070431575198751e-04  3.6329855137330917e-03  7.0071072794028570e-03  1.0689502070595347e-02  1.4844314461823969e-02  1.9614499642460551e-02  2.5019719055206627e-02  3.0695093277322182e-02  3.5429752821305581e-02  3.6614585032306975e-02  3.3762524946866400e-02  -2.3101256326134152e-02  -2.5079018500746036e-02  -2.5371856208905766e-02  -2.3135825781293470e-02  -1.9775986465067605e-02  -1.6054887944661547e-02  -1.2386715580644058e-02  -8.9221752870297238e-03  -5.6722597927712920e-03  -2.5841066374676768e-03  4.2101307867917920e-04  3.4307400346340585e-03  6.5337144640448671e-03  9.8115780731605207e-03  1.3321195874429065e-02  1.7053055052885336e-02  2.0846717355046149e-02  2.4252929950094659e-02  2.6412468764091011e-02  2.5998230236876849e-02  2.3761356495873829e-02  -1.6425112536053912e-02  -1.8103691794458653e-02  -1.8968996238376681e-02  -1.8013228782026228e-02  -1.6003273045281503e-02  -1.3427574489452806e-02  -1.0631882538946430e-02  -7.8011873751321625e-03  -5.0120370201433961e-03  -2.2765517601655385e-03  4.2694359671138370e-04  3.1343531609808999e-03  5.8819080318822381e-03  8.6919477967979906e-03  1.1552122527650163e-02  1.4381823460346903e-02  1.6983524552830944e-02  1.8991479515893910e-02  1.9875895205923009e-02  1.8947986032184470e-02  1.7160655465219523e-02  -1.1820503830182603e-02  -1.3223152327818654e-02  -1.4243239818696404e-02  -1.3943976820562951e-02  -1.2762685667182798e-02  -1.0995600517634938e-02  -8.8950491288480333e-03  -6.6285153746181141e-03  -4.2928100327251180e-03  -1.9347125202597124e-03  4.2909313932973521e-04  2.7957266672182413e-03  5.1622022227771746e-03  7.5112398187873776e-03  9.7941082837748623e-03  1.1909311283358320e-02  1.3680537159436715e-02  1.4845970420559025e-02  1.5091277150837665e-02  1.4037603245146779e-02  1.2584307756942451e-02  -8.5431616733284959e-03  -9.7173107941611030e-03  -1.0731434694313662e-02  -1.0768600330973420e-02  -1.0093605857393479e-02  -8.8832556327124671e-03  -7.3126149390536953e-03  -5.5170476528466671e-03  -3.5912152894682324e-03  -1.5963912564382655e-03  4.2840390951745164e-04  2.4549692139364605e-03  4.4548230233008631e-03  6.3879477034564551e-03  8.1909460864138146e-03  9.7655100735609991e-03  1.0971020928164852e-02  1.1628443297831333e-02  1.1551877288379418e-02  1.0519099687712131e-02  9.3208837599134554e-03  -6.1746547201079263e-03  -7.1639434147681468e-03  -8.1122883089221436e-03  -8.3191958233490206e-03  -7.9547382663111722e-03  -7.1244925099433771e-03  -5.9482164145128365e-03  -4.5304212908275163e-03  -2.9550388154501745e-03  -1.2863185907211160e-03  4.2587425375545271e-04  2.1390124174672565e-03  3.8102742493711901e-03  5.3888559506043909e-03  6.8088097050374068e-03  7.9837695788173256e-03  8.8062974573578524e-03  9.1551947718703074e-03  8.9195514328977970e-03  7.9607690080545617e-03  6.9604570129322071e-03  -4.4575729305673427e-03  -5.2992088622537195e-03  -6.1648400659355951e-03  -6.4536247095506221e-03  -6.2805711340875791e-03  -5.7091250230354726e-03  -4.8217118717134785e-03  -3.6981049216214890e-03  -2.4098510107208658e-03  -1.0185444627505843e-03  4.2231636079850495e-04  1.8635718640579479e-03  3.2558239876231618e-03  4.5448551779161865e-03  5.6678893511165574e-03  6.5518784713750290e-03  7.1154699484326728e-03  7.2758691559043987e-03  6.9661418853917282e-03  6.0947432817578156e-03  5.2486123677079602e-03  -3.2240269399123412e-03  -3.9501212652325486e-03  -4.7357371555066348e-03  -5.0603930293013676e-03  -5.0054142684592589e-03  -4.6092575032491570e-03  -3.9298508198250320e-03  -3.0287281443452997e-03  -1.9663677792230924e-03  -7.9962483713458623e-04  4.1829287693573259e-04  1.6362892016294943e-03  2.8030994451026677e-03  3.8650248971403194e-03  4.7644537387940946e-03  5.4400277045554913e-03  5.8293782499435299e-03  5.8746222089999661e-03  5.5348996252176938e-03  4.7461882258917551e-03  4.0187836813846186e-03  -2.3610625744084398e-03  -3.0001792742429976e-03  -3.7180235590423523e-03  -4.0555341920674396e-03  -4.0727248007439579e-03  -3.7932709943206697e-03  -3.2593935844080955e-03  -2.5199283828437110e-03  -1.6266405583178108e-03  -6.3153523711866673e-04  4.1413888668212902e-04  1.4597471264769229e-03  2.4545467262977205e-03  3.3469814275571049e-03  4.0845926083117297e-03  4.6151222019245658e-03  4.8893044048317581e-03  4.8650847617522841e-03  4.5171414003278383e-03  3.7977122857043256e-03  3.1586738094751409e-03  -1.7925985559714230e-03  -2.3709496967320733e-03  -3.0380959617258970e-03  -3.3783543952271180e-03  -3.4382122724103759e-03  -3.2328712636812838e-03  -2.7949162649348845e-03  -2.1649422797112195e-03  -1.3885808407821485e-03  -5.1391054753683837e-04  4.1001668038298105e-04  1.3338461327259195e-03  2.2081609045694500e-03  2.9837347890826521e-03  3.6122399622586757e-03  4.0477875427575010e-03  4.2495726273867511e-03  4.1851670754146633e-03  3.8383287317800990e-03  3.1704319007090113e-03  2.5925604200711821e-03  -1.4695152734259549e-03  -2.0118417957284444e-03  -2.6478322842302280e-03  -2.9879303274923711e-03  -3.0705145328201147e-03  -2.9064935327279746e-03  -2.5232305931194698e-03  -1.9567129217714523e-03  -1.2489687917291220e-03  -4.4558713111548761e-04  4.0597229492788235e-04  1.2574678708489099e-03  2.0606299612093149e-03  2.7679209967869218e-03  3.3336428496372251e-03  3.7156582327954333e-03  3.8778951042747630e-03  3.7930795619739114e-03  3.4497971691117941e-03  2.8135152325834733e-03  2.2715435320047224e-03  -1.3641652098594500e-03  -1.8944258135387229e-03  -2.5199940944352931e-03  -2.8607027410579916e-03  -2.9510783509487577e-03  -2.8008695953676242e-03  -2.4357581064583579e-03  -1.8902723431648875e-03  -1.2052837987536385e-03  -4.2556264191076867e-04  4.0198267953409214e-04  1.2295280009804017e-03  2.0092491578276531e-03  2.6942377022450884e-03  3.2397234655452672e-03  3.6048349544605751e-03  3.7550437100457457e-03  3.6646681001568488e-03  3.3239594535340428e-03  2.6983911726368814e-03  2.1681305689577922e-03  -1.4675781729072883e-03  -2.0095498734860680e-03  -2.6458318100136594e-03  -2.9891142028757658e-03  -3.0739297451784116e-03  -2.9116928737033601e-03  -2.5296774905512747e-03  -1.9639556377079479e-03  -1.2566646021367593e-03  -4.5350251178075899e-04  3.9799306413869525e-04  1.2495524901835924e-03  2.0529341508016261e-03  2.7606782808501677e-03  3.3271959522051006e-03  3.7104588918197667e-03  3.8744798919162346e-03  3.7918956865902976e-03  3.4517976433281823e-03  2.8158071548257213e-03  2.2734806325233020e-03  -1.7885950609768202e-03  -2.3664665416142641e-03  -3.0343633726842814e-03  -3.3812017163185912e-03  -3.4456072682927637e-03  -3.2438221836683040e-03  -2.8082746031761522e-03  -2.1797694300077380e-03  -1.4041955455013470e-03  -5.2988077366253469e-04  3.9394867867863085e-04  1.3178759066000364e-03  2.1925461998499704e-03  2.9689076387857689e-03  3.5988816240170047e-03  4.0368366227701014e-03  4.2421776315038776e-03  4.1823197543226342e-03  3.8420613208216027e-03  3.1749150558268626e-03  2.5965639150658374e-03  -2.3547084503854586e-03  -2.9937469266136077e-03  -3.7131760412354308e-03  -4.0611194026595717e-03  -4.0853390457417172e-03  -3.8111568428402585e-03  -3.2806272492352387e-03  -2.5430160684893777e-03  -1.6505813672377041e-03  -6.5578176742231084e-04  3.8982647237052287e-04  1.4355005961730752e-03  2.4306059173773878e-03  3.3238937419108267e-03  4.0633589434838410e-03  4.5972363534041915e-03  4.8766901598332876e-03  4.8594995511594312e-03  4.5219889181342928e-03  3.8041446333332962e-03  3.1650279334977994e-03  -3.2148183223013782e-03  -3.9422228668066260e-03  -4.7309342661299271e-03  -5.0706568499122480e-03  -5.0254128908593845e-03  -4.6360623454787314e-03  -3.9604883797270951e-03  -3.0610595380838627e-03  -1.9991340860553999e-03  -8.3232384258857166e-04  3.8567248210287351e-04  1.6035901961752416e-03  2.7703331382697830e-03  3.8326935034008226e-03  4.7338161788908909e-03  5.4132228623246965e-03  5.8093796275423912e-03  5.8643583883881715e-03  5.5397025145935679e-03  4.7540866243171260e-03  4.0279922989951960e-03  -4.4446470086320780e-03  -5.2907779226787155e-03  -6.1621765263091630e-03  -6.4719037968224685e-03  -6.3115045893561671e-03  -5.7479131123085326e-03  -4.8639239920629249e-03  -3.7408898188758736e-03  -2.4518586285941207e-03  -1.0596065050366083e-03  3.8164899822004265e-04  1.8225098217715474e-03  3.2138163697490729e-03  4.5020702806606678e-03  5.6256772307656817e-03  6.5130903821003323e-03  7.0845364931624508e-03  7.2575900686310986e-03  6.9688054250171758e-03  6.1031742213321014e-03  5.2615382896427278e-03  -6.1564916538634617e-03  -7.1568036489812886e-03  -8.1155860738201368e-03  -8.3512294127947705e-03  -8.0023320982910602e-03  -7.1798042197647599e-03  -6.0048443460020166e-03  -4.5848905915860426e-03  -3.0063088903668545e-03  -1.3350470584721549e-03  3.7809110523625227e-04  2.0902839497157098e-03  3.7590041744535313e-03  5.3343866498446043e-03  6.7521817735465535e-03  7.9284578689939236e-03  8.7587036253758497e-03  9.1231611824226441e-03  8.9162536679983310e-03  7.9679087738404770e-03  6.9786200791754757e-03  -8.5169184008507797e-03  -9.7151343286426967e-03  -1.0747911929305316e-02  -1.0824477938762093e-02  -1.0167055569109643e-02  -8.9615447145260617e-03  -7.3869807274018050e-03  -5.5839823444658477e-03  -3.6508576643274841e-03  -1.6510038549743047e-03  3.7556144944070433e-04  2.4003566153999452e-03  4.3951806484405142e-03  6.3210130118357766e-03  8.1165802980637872e-03  9.6872209917448979e-03  1.0897571216446029e-02  1.1572565690040089e-02  1.1535400053385757e-02  1.0521276153229286e-02  9.3471270323904811e-03  -1.1780342397881234e-02  -1.3233637886076351e-02  -1.4287311791763574e-02  -1.4042005061495319e-02  -1.2876571800394466e-02  -1.1105345924344224e-02  -8.9901429247905337e-03  -6.7072744598296891e-03  -4.3582368638400279e-03  -1.9917613082939501e-03  3.7487221959003273e-04  2.7386778791835113e-03  5.0967753916612603e-03  7.4324807335742179e-03  9.6990144878300877e-03  1.1799565876645990e-02  1.3566651026221763e-02  1.4747942179623282e-02  1.5047205177767373e-02  1.4027117686886970e-02  1.2624469189242919e-02  -1.6356690106151123e-02  -1.8144020673105218e-02  -1.9071929846843520e-02  -1.8187514156832972e-02  -1.6179559193801721e-02  -1.3577858101355804e-02  -1.0748157168695901e-02  -7.8879824378750851e-03  -5.0779426729824469e-03  -2.3303878020952905e-03  3.7702176216932446e-04  3.0805171190506605e-03  5.8160023790421482e-03  8.6051527340533646e-03  1.1435847897898147e-02  1.4231539848440401e-02  1.6807238404306677e-02  1.8817194141083387e-02  1.9772961597452812e-02  1.8907657153535207e-02  1.7229077895121195e-02  -2.2957391136783346e-02  -2.5194264877775079e-02  -2.5608503404995670e-02  -2.3448964591031109e-02  -2.0042751996027997e-02  -1.6249089693916013e-02  -1.2517230515502974e-02  -9.0076127142688402e-03  -5.7297491051779489e-03  -2.6267746757818147e-03  3.8295228016815678e-04  3.3880719963196191e-03  6.4762251516374521e-03  9.7261406459198708e-03  1.3190680939567823e-02  1.6858853303627852e-02  2.0579951824081375e-02  2.3939791140351951e-02  2.6175821567995656e-02  2.5882983859844177e-02  2.3905221685223330e-02  -3.2958559587729114e-02  -3.5810619673160037e-02  -3.4625787462179265e-02  -2.9891127918247603e-02  -2.4215753696193453e-02  -1.8810534283505639e-02  -1.4040349102916756e-02  -9.8855367117242441e-03  -6.2031419205567026e-03  -2.8290201549013979e-03  3.9326104307489630e-04  3.6112500029509748e-03  6.9708598430884543e-03  1.0623080953544960e-02  1.4721447208299840e-02  1.9392381091639453e-02  2.4641099766923732e-02  3.0143146511435320e-02  3.4870654328840324e-02  3.6262856188393193e-02  3.4166031264863096e-02  -4.9638289363091052e-02  -5.2963542530294526e-02  -4.6891378174856176e-02  -3.7034799006932205e-02  -2.7972132924493690e-02  -2.0678849231839571e-02  -1.4931337675376345e-02  -1.0289258721206167e-02  -6.3703958908422941e-03  -2.8815553054706332e-03  4.0679901381423356e-04  3.6925289496731236e-03  7.1717355004025434e-03  1.1067405713269562e-02  1.5656764674794120e-02  2.1287490094747889e-02  2.8342459458285459e-02  3.7009909287200889e-02  4.6395954323413736e-02  5.2485931878583719e-02  5.1719258427365439e-02  -8.4493673246602743e-02  -8.2455826204747090e-02  -6.1706457575385801e-02  -4.2832679480488821e-02  -2.9801611200929140e-02  -2.0989461891680324e-02  -1.4735432102990914e-02  -9.9874148507378812e-03  -6.1184142211467389e-03  -2.7373232253104390e-03  4.2597238921933433e-04  3.5903498220420859e-03  6.9740190358803956e-03  1.0844117089867501e-02  1.5581842032284181e-02  2.1780391203662278e-02  3.0377085566298246e-02  4.2672556160312111e-02  5.9470451762521706e-02  7.8292279737398537e-02  8.7849735325366538e-02  -1.9168970547361347e-01  -1.2588217060248241e-01  -7.0390375067519370e-02  -4.1926547087587376e-02  -2.7301150240744129e-02  -1.8731827137384392e-02  -1.3024131318533300e-02  -8.7973613844932446e-03  -5.3755583445830148e-03  -2.3823999876197307e-03  4.2402223223660519e-04  3.2326040828835390e-03  6.2323965586799776e-03  9.6655659836377503e-03  1.3907498327325574e-02  1.9624195191448906e-02  2.8126080003841022e-02  4.2205109905794146e-02  6.8460509057555713e-02  1.1891234377361515e-01  1.8208909343420607e-01  -3.6753308529959933e-01  -1.4197363154597756e-01  -5.8688506042649413e-02  -3.3762976051533097e-02  -2.2458079546272509e-02  -1.5740944668599863e-02  -1.1122867748727490e-02  -7.5985218542941289e-03  -4.6703334880485326e-03  -2.0595656586329435e-03  4.1319419055141208e-04  2.8884075440439153e-03  5.5076309746940697e-03  8.4545074767399652e-03  1.2019799021995996e-02  1.6740760585094518e-02  2.3768909334576364e-02  3.6022024403912410e-02  6.2101488769788979e-02  1.2791908332484000e-01  3.7028484637032616e-01  </DataArray> 
</PointData> 
</Piece>
</UnstructuredGrid>
</VTKFile>