<?xml version="1.0"?>
<VTKFile type="UnstructuredGrid"  version="0.1"  >
<UnstructuredGrid>
<Piece  NumberOfPoints="651" NumberOfCells="1200">
<Points>
<DataArray  type="Float64"  NumberOfComponents="3"  format="ascii">0 0 0  50000 0 0  100000 0 0  150000 0 0  200000 0 0  250000 0 0  300000 0 0  350000 0 0  400000 0 0  450000 0 0  500000 0 0  550000 0 0  600000 0 0  650000 0 0  700000 0 0  750000 0 0  800000 0 0  850000 0 0  900000 0 0  950000 0 0  1000000 0 0  0 50000 0  50000 50000 0  100000 50000 0  150000 50000 0  200000 50000 0  250000 50000 0  300000 50000 0  350000 50000 0  400000 50000 0  450000 50000 0  500000 50000 0  550000 50000 0  600000 50000 0  650000 50000 0  700000 50000 0  750000 50000 0  800000 50000 0  850000 50000 0  900000 50000 0  950000 50000 0  1000000 50000 0  0 100000 0  50000 100000 0  100000 100000 0  150000 100000 0  200000 100000 0  250000 100000 0  300000 100000 0  350000 100000 0  400000 100000 0  450000 100000 0  500000 100000 0  550000 100000 0  600000 100000 0  650000 100000 0  700000 100000 0  750000 100000 0  800000 100000 0  850000 100000 0  900000 100000 0  950000 100000 0  1000000 100000 0  0 150000 0  50000 150000 0  100000 150000 0  150000 150000 0  200000 150000 0  250000 150000 0  300000 150000 0  350000 150000 0  400000 150000 0  450000 150000 0  500000 150000 0  550000 150000 0  600000 150000 0  650000 150000 0  700000 150000 0  750000 150000 0  800000 150000 0  850000 150000 0  900000 150000 0  950000 150000 0  1000000 150000 0  0 200000 0  50000 200000 0  100000 200000 0  150000 200000 0  200000 200000 0  250000 200000 0  300000 200000 0  350000 200000 0  400000 200000 0  450000 200000 0  500000 200000 0  550000 200000 0  600000 200000 0  650000 200000 0  700000 200000 0  750000 200000 0  800000 200000 0  850000 200000 0  900000 200000 0  950000 200000 0  1000000 200000 0  0 250000 0  50000 250000 0  100000 250000 0  150000 250000 0  200000 250000 0  250000 250000 0  300000 250000 0  350000 250000 0  400000 250000 0  450000 250000 0  500000 250000 0  550000 250000 0  600000 250000 0  650000 250000 0  700000 250000 0  750000 250000 0  800000 250000 0  850000 250000 0  900000 250000 0  950000 250000 0  1000000 250000 0  0 300000 0  50000 300000 0  100000 300000 0  150000 300000 0  200000 300000 0  250000 300000 0  300000 300000 0  350000 300000 0  400000 300000 0  450000 300000 0  500000 300000 0  550000 300000 0  600000 300000 0  650000 300000 0  700000 300000 0  750000 300000 0  800000 300000 0  850000 300000 0  900000 300000 0  950000 300000 0  1000000 300000 0  0 350000 0  50000 350000 0  100000 350000 0  150000 350000 0  200000 350000 0  250000 350000 0  300000 350000 0  350000 350000 0  400000 350000 0  450000 350000 0  500000 350000 0  550000 350000 0  600000 350000 0  650000 350000 0  700000 350000 0  750000 350000 0  800000 350000 0  850000 350000 0  900000 350000 0  950000 350000 0  1000000 350000 0  0 400000 0  50000 400000 0  100000 400000 0  150000 400000 0  200000 400000 0  250000 400000 0  300000 400000 0  350000 400000 0  400000 400000 0  450000 400000 0  500000 400000 0  550000 400000 0  600000 400000 0  650000 400000 0  700000 400000 0  750000 400000 0  800000 400000 0  850000 400000 0  900000 400000 0  950000 400000 0  1000000 400000 0  0 450000 0  50000 450000 0  100000 450000 0  150000 450000 0  200000 450000 0  250000 450000 0  300000 450000 0  350000 450000 0  400000 450000 0  450000 450000 0  500000 450000 0  550000 450000 0  600000 450000 0  650000 450000 0  700000 450000 0  750000 450000 0  800000 450000 0  850000 450000 0  900000 450000 0  950000 450000 0  1000000 450000 0  0 500000 0  50000 500000 0  100000 500000 0  150000 500000 0  200000 500000 0  250000 500000 0  300000 500000 0  350000 500000 0  400000 500000 0  450000 500000 0  500000 500000 0  550000 500000 0  600000 500000 0  650000 500000 0  700000 500000 0  750000 500000 0  800000 500000 0  850000 500000 0  900000 500000 0  950000 500000 0  1000000 500000 0  0 550000 0  50000 550000 0  100000 550000 0  150000 550000 0  200000 550000 0  250000 550000 0  300000 550000 0  350000 550000 0  400000 550000 0  450000 550000 0  500000 550000 0  550000 550000 0  600000 550000 0  650000 550000 0  700000 550000 0  750000 550000 0  800000 550000 0  850000 550000 0  900000 550000 0  950000 550000 0  1000000 550000 0  0 600000 0  50000 600000 0  100000 600000 0  150000 600000 0  200000 600000 0  250000 600000 0  300000 600000 0  350000 600000 0  400000 600000 0  450000 600000 0  500000 600000 0  550000 600000 0  600000 600000 0  650000 600000 0  700000 600000 0  750000 600000 0  800000 600000 0  850000 600000 0  900000 600000 0  950000 600000 0  1000000 600000 0  0 650000 0  50000 650000 0  100000 650000 0  150000 650000 0  200000 650000 0  250000 650000 0  300000 650000 0  350000 650000 0  400000 650000 0  450000 650000 0  500000 650000 0  550000 650000 0  600000 650000 0  650000 650000 0  700000 650000 0  750000 650000 0  800000 650000 0  850000 650000 0  900000 650000 0  950000 650000 0  1000000 650000 0  0 700000 0  50000 700000 0  100000 700000 0  150000 700000 0  200000 700000 0  250000 700000 0  300000 700000 0  350000 700000 0  400000 700000 0  450000 700000 0  500000 700000 0  550000 700000 0  600000 700000 0  650000 700000 0  700000 700000 0  750000 700000 0  800000 700000 0  850000 700000 0  900000 700000 0  950000 700000 0  1000000 700000 0  0 750000 0  50000 750000 0  100000 750000 0  150000 750000 0  200000 750000 0  250000 750000 0  300000 750000 0  350000 750000 0  400000 750000 0  450000 750000 0  500000 750000 0  550000 750000 0  600000 750000 0  650000 750000 0  700000 750000 0  750000 750000 0  800000 750000 0  850000 750000 0  900000 750000 0  950000 750000 0  1000000 750000 0  0 800000 0  50000 800000 0  100000 800000 0  150000 800000 0  200000 800000 0  250000 800000 0  300000 800000 0  350000 800000 0  400000 800000 0  450000 800000 0  500000 800000 0  550000 800000 0  600000 800000 0  650000 800000 0  700000 800000 0  750000 800000 0  800000 800000 0  850000 800000 0  900000 800000 0  950000 800000 0  1000000 800000 0  0 850000 0  50000 850000 0  100000 850000 0  150000 850000 0  200000 850000 0  250000 850000 0  300000 850000 0  350000 850000 0  400000 850000 0  450000 850000 0  500000 850000 0  550000 850000 0  600000 850000 0  650000 850000 0  700000 850000 0  750000 850000 0  800000 850000 0  850000 850000 0  900000 850000 0  950000 850000 0  1000000 850000 0  0 900000 0  50000 900000 0  100000 900000 0  150000 900000 0  200000 900000 0  250000 900000 0  300000 900000 0  350000 900000 0  400000 900000 0  450000 900000 0  500000 900000 0  550000 900000 0  600000 900000 0  650000 900000 0  700000 900000 0  750000 900000 0  800000 900000 0  850000 900000 0  900000 900000 0  950000 900000 0  1000000 900000 0  0 950000 0  50000 950000 0  100000 950000 0  150000 950000 0  200000 950000 0  250000 950000 0  300000 950000 0  350000 950000 0  400000 950000 0  450000 950000 0  500000 950000 0  550000 950000 0  600000 950000 0  650000 950000 0  700000 950000 0  750000 950000 0  800000 950000 0  850000 950000 0  900000 950000 0  950000 950000 0  1000000 950000 0  0 1000000 0  50000 1000000 0  100000 1000000 0  150000 1000000 0  200000 1000000 0  250000 1000000 0  300000 1000000 0  350000 1000000 0  400000 1000000 0  450000 1000000 0  500000 1000000 0  550000 1000000 0  600000 1000000 0  650000 1000000 0  700000 1000000 0  750000 1000000 0  800000 1000000 0  850000 1000000 0  900000 1000000 0  950000 1000000 0  1000000 1000000 0  0 1050000 0  50000 1050000 0  100000 1050000 0  150000 1050000 0  200000 1050000 0  250000 1050000 0  300000 1050000 0  350000 1050000 0  400000 1050000 0  450000 1050000 0  500000 1050000 0  550000 1050000 0  600000 1050000 0  650000 1050000 0  700000 1050000 0  750000 1050000 0  800000 1050000 0  850000 1050000 0  900000 1050000 0  950000 1050000 0  1000000 1050000 0  0 1100000 0  50000 1100000 0  100000 1100000 0  150000 1100000 0  200000 1100000 0  250000 1100000 0  300000 1100000 0  350000 1100000 0  400000 1100000 0  450000 1100000 0  500000 1100000 0  550000 1100000 0  600000 1100000 0  650000 1100000 0  700000 1100000 0  750000 1100000 0  800000 1100000 0  850000 1100000 0  900000 1100000 0  950000 1100000 0  1000000 1100000 0  0 1150000 0  50000 1150000 0  100000 1150000 0  150000 1150000 0  200000 1150000 0  250000 1150000 0  300000 1150000 0  350000 1150000 0  400000 1150000 0  450000 1150000 0  500000 1150000 0  550000 1150000 0  600000 1150000 0  650000 1150000 0  700000 1150000 0  750000 1150000 0  800000 1150000 0  850000 1150000 0  900000 1150000 0  950000 1150000 0  1000000 1150000 0  0 1200000 0  50000 1200000 0  100000 1200000 0  150000 1200000 0  200000 1200000 0  250000 1200000 0  300000 1200000 0  350000 1200000 0  400000 1200000 0  450000 1200000 0  500000 1200000 0  550000 1200000 0  600000 1200000 0  650000 1200000 0  700000 1200000 0  750000 1200000 0  800000 1200000 0  850000 1200000 0  900000 1200000 0  950000 1200000 0  1000000 1200000 0  0 1250000 0  50000 1250000 0  100000 1250000 0  150000 1250000 0  200000 1250000 0  250000 1250000 0  300000 1250000 0  350000 1250000 0  400000 1250000 0  450000 1250000 0  500000 1250000 0  550000 1250000 0  600000 1250000 0  650000 1250000 0  700000 1250000 0  750000 1250000 0  800000 1250000 0  850000 1250000 0  900000 1250000 0  950000 1250000 0  1000000 1250000 0  0 1300000 0  50000 1300000 0  100000 1300000 0  150000 1300000 0  200000 1300000 0  250000 1300000 0  300000 1300000 0  350000 1300000 0  400000 1300000 0  450000 1300000 0  500000 1300000 0  550000 1300000 0  600000 1300000 0  650000 1300000 0  700000 1300000 0  750000 1300000 0  800000 1300000 0  850000 1300000 0  900000 1300000 0  950000 1300000 0  1000000 1300000 0  0 1350000 0  50000 1350000 0  100000 1350000 0  150000 1350000 0  200000 1350000 0  250000 1350000 0  300000 1350000 0  350000 1350000 0  400000 1350000 0  450000 1350000 0  500000 1350000 0  550000 1350000 0  600000 1350000 0  650000 1350000 0  700000 135
[...]
<PointData  Scalars="f_10483"> 
<DataArray  type="Float64"  Name="f_10483"  format="ascii">-3.4351261203573974e-01  -1.1832946919796977e-01  -5.6840228300031527e-02  -3.2429568235708549e-02  -2.0931808835795717e-02  -1.4310726959514060e-02  -9.8389956328943755e-03  -6.4415084032059464e-03  -3.6177558594867104e-03  -1.0975423223205855e-03  1.2893822069419778e-03  3.6740431807710345e-03  6.1864443285555145e-03  8.9928805823053480e-03  1.2352263416339984e-02  1.6727799883459221e-02  2.3057694314382697e-02  3.3671659127464594e-02  5.7023721641380323e-02  1.3471301384149836e-01  3.4393360538348527e-01  -1.6866433894745470e-01  -1.0981893331471729e-01  -6.2661892322916968e-02  -3.8127893952190427e-02  -2.4946032527475973e-02  -1.6961631078010776e-02  -1.1569867661869656e-02  -7.5490987364314468e-03  -4.2791847976258630e-03  -1.4111716561223113e-03  1.2796493829398496e-03  3.9684766330458582e-03  6.8303672046845692e-03  1.0089804411751443e-02  1.4096669346366499e-02  1.9480617616247971e-02  2.7529692222407910e-02  4.1225322740342026e-02  6.7820570447363546e-02  1.1957916405095756e-01  1.8086445322637565e-01  -8.0755508984851815e-02  -7.1798663136506416e-02  -5.4198107033594969e-02  -3.8501540399145592e-02  -2.6993769862007425e-02  -1.8929426292442073e-02  -1.3096493662074365e-02  -8.6217852200787485e-03  -4.9530478264738272e-03  -1.7358138193444602e-03  1.2779827563894832e-03  4.2907747377872963e-03  7.5056172031581492e-03  1.1173356761165895e-02  1.5657730262713870e-02  2.1542616871795966e-02  2.9808516679825189e-02  4.2003087663164143e-02  5.9636840864352267e-02  7.9014450920582971e-02  8.0974884574723238e-02  -4.6938073214632822e-02  -4.7636091123013584e-02  -4.1945114592811222e-02  -3.3170788948703359e-02  -2.5054078642228708e-02  -1.8434498998300398e-02  -1.3138003595724056e-02  -8.8086247038028104e-03  -5.1231338695597976e-03  -1.8240088943282300e-03  1.2956911559427737e-03  4.4178355347199395e-03  7.7259363010977484e-03  1.1433045238063056e-02  1.5811583839108388e-02  2.1216975821348443e-02  2.8058686749862862e-02  3.6543632369303622e-02  4.5759574783680014e-02  5.1435948676683982e-02  4.8340025956743818e-02  -3.0496445799643768e-02  -3.2449510840528988e-02  -3.1148785344910453e-02  -2.6723478445761676e-02  -2.1565081558293484e-02  -1.6636215668785728e-02  -1.2240898561394566e-02  -8.3755154428983777e-03  -4.9232553846281918e-03  -1.7419467909486448e-03  1.3082461821483054e-03  4.3624380566982049e-03  7.5572686002868166e-03  1.1037649671197096e-02  1.4955648356029121e-02  1.9443477608747949e-02  2.4518148891390274e-02  2.9837681144038109e-02  3.4270007571964516e-02  3.5378724923982675e-02  3.2714966392371890e-02  -2.0889594431935270e-02  -2.2732735606301051e-02  -2.3003287774365607e-02  -2.0903989058437007e-02  -1.7747666262215262e-02  -1.4247990784690469e-02  -1.0792602801314137e-02  -7.5233025061502354e-03  -4.4513946666551235e-03  -1.5285381197577812e-03  1.3177739065429364e-03  4.1683756476910928e-03  7.1050326353836960e-03  1.0202964586591649e-02  1.3514237694080668e-02  1.7028918592131757e-02  2.0596138744859382e-02  2.3795403636280587e-02  2.5823019609679105e-02  2.5439688095307410e-02  2.3352815372247881e-02  -1.4643672293397383e-02  -1.6205045335030560e-02  -1.7006247292097505e-02  -1.6101149592291746e-02  -1.4205785796771172e-02  -1.1777262758287072e-02  -9.1391083189804410e-03  -6.4648851844280441e-03  -3.8269019945259197e-03  -1.2373247136976439e-03  1.3232290221374401e-03  3.8874243450319054e-03  6.4882302112678099e-03  9.1456447162400530e-03  1.1847279384082293e-02  1.4517024372613358e-02  1.6969628436641983e-02  1.8862842167025145e-02  1.9700986504093691e-02  1.8841681581597332e-02  1.7178359122644184e-02  -1.0338988139767713e-02  -1.1639811165268474e-02  -1.2581429502679049e-02  -1.2287551385003103e-02  -1.1165720756606417e-02  -9.4931287411459814e-03  -7.5058178640183774e-03  -5.3607681526614565e-03  -3.1490218703520007e-03  -9.1494721310193957e-04  1.3251661811880522e-03  3.5679071192914573e-03  5.8097649035439699e-03  8.0338908514786273e-03  1.0194090802941074e-02  1.2194941853851154e-02  1.3871226455005312e-02  1.4978014816948612e-02  1.5221244687223657e-02  1.4248561176702083e-02  1.2900465816939381e-02  -7.2768041658571618e-03  -8.3618576069925902e-03  -9.2943462278861442e-03  -9.3127789260474703e-03  -8.6631408670025736e-03  -7.5108067780743533e-03  -6.0194658716122267e-03  -4.3159154992759583e-03  -2.4890297723823315e-03  -5.9656544741225077e-04  1.3244654570372892e-03  3.2471375554256618e-03  5.1442629342263761e-03  6.9778972718126378e-03  8.6882994287988940e-03  1.0183188195079971e-02  1.1330863349494574e-02  1.1963913423314203e-02  1.1908509073856519e-02  1.0958848755005128e-02  9.8514624674606258e-03  -5.0643293951489320e-03  -5.9750948264156263e-03  -6.8434491121946378e-03  -7.0188178297042525e-03  -6.6585183988392589e-03  -5.8612461823882821e-03  -4.7389054814777959e-03  -3.3893437467765269e-03  -1.8912858397343623e-03  -3.0514488046667101e-04  1.3220576742611482e-03  2.9501330347155661e-03  4.5386174208936949e-03  6.0396125770401455e-03  7.3911196975080329e-03  8.5121410991344810e-03  9.3021016062457169e-03  9.6477445020917152e-03  9.4454375245346736e-03  8.5675312141235225e-03  7.6466303919621829e-03  -3.4601854393185565e-03  -4.2321041529380090e-03  -5.0213770153353836e-03  -5.2720272899637105e-03  -5.0899123207654128e-03  -4.5343141094696324e-03  -3.6821987597844170e-03  -2.6082192309652610e-03  -1.3794385394117782e-03  -5.3693010164817002e-05  1.3186994918486206e-03  2.6914525867903585e-03  4.0180573023684291e-03  5.2475245332550399e-03  6.3209154195932264e-03  7.1697668277794779e-03  7.7179572226384625e-03  7.8881729703164701e-03  7.6179184810914831e-03  6.8234054095979478e-03  6.0474267153848363e-03  -2.3072656538479673e-03  -2.9708691701748938e-03  -3.6843144016489534e-03  -3.9676745736051868e-03  -3.8954179020512731e-03  -3.5034816978010484e-03  -2.8459252151477729e-03  -1.9803128176132550e-03  -9.6330443936242318e-04  1.5176181433350578e-04  1.3149143797998926e-03  2.4781343144582840e-03  3.5932454953608796e-03  4.6098186094317949e-03  5.4738103804297085e-03  6.1277415254129605e-03  6.5132744971850200e-03  6.5763911397476284e-03  6.2789510898265096e-03  5.5627182022294558e-03  4.8979957481695190e-03  -1.5001673518557756e-03  -2.0824843800457114e-03  -2.7320732721907203e-03  -3.0269682092469805e-03  -3.0218499034908187e-03  -2.7388743454604932e-03  -2.2174306461962777e-03  -1.5031957490074569e-03  -6.4464987338112097e-04  3.0944890018740707e-04  1.3110133647796279e-03  2.3125120290925895e-03  3.2663127077382724e-03  4.1240417165530618e-03  4.8365189763359363e-03  5.3548063531046047e-03  5.6328306947592000e-03  5.6313581823996218e-03  5.3267303079683938e-03  4.6757297441781150e-03  4.0935572918674610e-03  -9.6811452028541746e-04  -1.4937925349627662e-03  -2.0958041331364339e-03  -2.3930190711341326e-03  -2.4276047322552710e-03  -2.2138331691521377e-03  -1.7821055712226527e-03  -1.1703902734041568e-03  -4.2141420813536322e-04  4.1976425293240347e-04  1.3071462701407435e-03  2.1944342730227527e-03  3.0352727984835470e-03  3.7835008556182529e-03  4.3938285213168480e-03  4.8232903920995768e-03  5.0337259837731057e-03  4.9948806540883574e-03  4.6915359063258678e-03  4.0888642415939005e-03  3.5636773161881897e-03  -6.6554271853148060e-04  -1.1577049185066142e-03  -1.7305535076865771e-03  -2.0275086024862691e-03  -2.0832532962033281e-03  -1.9080715949919556e-03  -1.5274996734356836e-03  -9.7519815686105391e-04  -2.9051595444291048e-04  4.8383189104959869e-04  1.3033545413781435e-03  2.1228162591538390e-03  2.8969552458145685e-03  3.5812083433110035e-03  4.1327591826886452e-03  4.5121580579164855e-03  4.6856671428763090e-03  4.6278338431913332e-03  4.3279150339250788e-03  3.7548132068541723e-03  3.2630023451027069e-03  -5.6686031185538036e-04  -1.0478016349077140e-03  -1.6109017466027914e-03  -1.9083934953180643e-03  -1.9713977743714109e-03  -1.8091188112823546e-03  -1.4455268944496176e-03  -9.1291872020963149e-04  -2.4955861714404305e-04  5.0260904455416689e-04  1.2996152622237330e-03  2.0966214798945749e-03  2.8487891415966650e-03  3.5121492446677344e-03  4.0447574189136724e-03  4.4083493357517864e-03  4.5706282988444459e-03  4.5076240197927742e-03  4.2101322710774063e-03  3.6470321593817757e-03  3.1660908363295749e-03  -6.6377182062929755e-04  -1.1555826823807581e-03  -1.7286845094509869e-03  -2.0286033187172409e-03  -2.0864366184038213e-03  -1.9129275334478213e-03  -1.5335286582254229e-03  -9.8197781885397397e-04  -2.9772472136323566e-04  4.7641426529359312e-04  1.2958759830678979e-03  2.1153986333977918e-03  2.8897464788941972e-03  3.5744286813178404e-03  4.1267301978986093e-03  4.5073021194603612e-03  4.6824838206756007e-03  4.6267391269601589e-03  4.3297840321604979e-03  3.7569354429799074e-03  3.2647732430048058e-03  -9.6444679171746360e-04  -1.4896337171227973e-03  -2.0923053818537899e-03  -2.3956501296160514e-03  -2.4344954593026654e-03  -2.2240598676334148e-03  -1.7945979968566317e-03  -1.1842703311648077e-03  -4.3604227403615009e-04  4.0479625142046162e-04  1.2920842543008961e-03  2.1794662715106388e-03  3.0206447325825002e-03  3.7696207978572633e-03  4.3813360956824979e-03  4.8130636936179454e-03  5.0268352567252603e-03  4.9922495956059229e-03  4.6950346576083990e-03  4.0930230594338974e-03  3.5673450447561809e-03  -1.4943267674008115e-03  -2.0764992197105175e-03  -2.7274997834992681e-03  -3.0321276579302215e-03  -3.0336001702921918e-03  -2.7555758286427262e-03  -2.2372884518810344e-03  -1.5248111921059725e-03  -6.6708218329804942e-04  2.8671849534282371e-04  1.2882171596540453e-03  2.2897816242478208e-03  3.2438803978209387e-03  4.1024262734539836e-03  4.8166611706504945e-03  5.3381048699216466e-03  5.6210804279571659e-03  5.6261987337157130e-03  5.3313037966593998e-03  4.6817149045129056e-03  4.0993978763221098e-03  -2.2987652237085199e-03  -2.9634876777667549e-03  -3.6797205653614196e-03  -3.9771606152825736e-03  -3.9140439727231675e-03  -3.5285110009577307e-03  -2.8745798559832135e-03  -2.0105880849947285e-03  -9.9401497093202303e-04  1.2109620996490449e-04  1.2843161446212305e-03  2.4474687100894416e-03  3.5625349637907460e-03  4.5795433420494662e-03  5.4451557395932115e-03  6.1027122222551463e-03  6.4946484265121854e-03  6.5669050980693873e-03  6.2835449261132593e-03  5.5700996946370712e-03  4.9064961783085890e-03  -3.4481961909303034e-03  -4.2241748851405128e-03  -5.0186879566309090e-03  -5.2889424458564677e-03  -5.1187266981833372e-03  -4.5705363033333455e-03  -3.7216848951586554e-03  -2.6482940088324212e-03  -1.4188267779559091e-03  -9.2222062384739043e-05  1.2805310325544939e-03  2.6529235345700880e-03  3.9786690638235287e-03  5.2074497553868350e-03  6.2814292842176666e-03  7.1335446339142600e-03  7.6891428452190349e-03  7.8712578144223676e-03  7.6206075397950261e-03  6.8313346773947537e-03  6.0594159637726002e-03  -5.0473998675139402e-03  -5.9683006896712075e-03  -6.8462070000783817e-03  -7.0485139776373237e-03  -6.7028710817992262e-03  -5.9129105747008298e-03  -4.7918891730898694e-03  -3.4403820526373156e-03  -1.9393868965034637e-03  -3.5090251033362399e-04  1.2771728501177393e-03  2.9043754048481462e-03  4.4905163641236938e-03  5.9885742711781979e-03  7.3381360058944276e-03  8.4604767068200675e-03  9.2577489232837928e-03  9.6180483541568693e-03  9.4426796366495497e-03  8.5743253508670427e-03  7.6635599195960438e-03  -7.2522319430177867e-03  -8.3596182305561689e-03  -9.3092785494032770e-03  -9.3646828988653754e-03  -8.7316328250584725e-03  -7.5839576706622641e-03  -6.0890689044019227e-03  -4.3786667474349939e-03  -2.5450324098642580e-03  -6.4790703107363810e-04  1.2747650673111341e-03  3.1957959717638391e-03  5.0882602967434491e-03  6.9151460236522282e-03  8.6186963960074130e-03  1.0110037302489739e-02  1.1262371391436194e-02  1.1912009450493916e-02  1.1893576752337501e-02  1.0961088131440378e-02  9.8760346902993356e-03  -1.0301235292497794e-02  -1.1649330652252149e-02  -1.2622014162770357e-02  -1.2378784292504785e-02  -1.1271995930581044e-02  -9.5957113294525102e-03  -7.5948602785694663e-03  -5.4346603271311208e-03  -3.2105343792149872e-03  -9.6867659497404737e-04  1.2740643431252885e-03  3.5141777374188966e-03  5.7482523946800626e-03  7.9599986770075102e-03  1.0105048388387885e-02  1.2092359265541813e-02  1.3764951281027627e-02  1.4886781909443805e-02  1.5180660027129459e-02  1.4239041689716441e-02  1.2938218664208424e-02  -1.4579128598196135e-02  -1.6242451057139350e-02  -1.7101755979635456e-02  -1.6263611642583962e-02  -1.4370397912229878e-02  -1.1917793848236094e-02  -9.2480488597385235e-03  -6.5464141919246918e-03  -3.8889996869732853e-03  -1.2881938207501341e-03  1.2760015021399313e-03  3.8365552379789696e-03  6.4261325188194928e-03  9.0641157087418388e-03  1.1738338843321868e-02  1.4376493282661117e-02  1.6805016321179492e-02  1.8700380116729386e-02  1.9605477816552586e-02  1.8804275859485992e-02  1.7242902817844349e-02  -2.0753584847779741e-02  -2.2840457570828896e-02  -2.3223789085206548e-02  -2.1196173111837354e-02  -1.7996908220458036e-02  -1.4429688067775111e-02  -1.0915007169763387e-02  -7.6037340623055019e-03  -4.5058021111198301e-03  -1.5691451234403975e-03  1.2814566177033789e-03  4.1277686440082074e-03  7.0506251909182895e-03  1.0122533030434960e-02  1.3391833325629286e-02  1.6847221309044296e-02  2.0346896786612539e-02  2.3503219582875517e-02  2.5602518298833095e-02  2.5331966130776179e-02  2.3488824956402157e-02  -3.0115735867861128e-02  -3.2779494399462913e-02  -3.1670777047463960e-02  -2.7238450619585540e-02  -2.1918918366994371e-02  -1.6844247084405527e-02  -1.2356417831730108e-02  -8.4384191469306698e-03  -4.9580380760427603e-03  -1.7632075324670506e-03  1.2909843420785725e-03  4.3411773151795473e-03  7.5224859088715889e-03  1.0974745967163557e-02  1.4840129085691649e-02  1.9235446193125685e-02  2.4164312082684814e-02  2.9322708970208205e-02  3.3748015869404110e-02  3.5048741365043594e-02  3.3095676324152903e-02  -4.5740795432152995e-02  -4.8836718152090605e-02  -4.3160344259133426e-02  -3.3944401844830004e-02  -2.5459456225461145e-02  -1.8617745297006470e-02  -1.3212353314812051e-02  -8.8338147138000127e-03  -5.1267057768568831e-03  -1.8186050104919383e-03  1.3035393682809485e-03  4.4232394185559753e-03  7.7223643937998406e-03  1.1407855228064659e-02  1.5737234120018661e-02  2.1033729522640203e-02  2.7653309166626696e-02  3.5770019473170898e-02  4.4544345117348547e-02  5.0235321647597642e-02  4.9537303739221626e-02  -7.8375654049976803e-02  -7.6415220395864875e-02  -5.7037610339736304e-02  -3.9403857138652652e-02  -2.7209286155399311e-02  -1.8943386347434806e-02  -1.3058499738401404e-02  -8.5741262368881077e-03  -4.9063866789040723e-03  -1.6915442135466109e-03  1.3212477678467005e-03  4.3350443435848044e-03  7.5522783507272380e-03  1.1221015744354921e-02  1.5695724186385027e-02  2.1528656816800679e-02  2.9593000386429976e-02  4.1100770923650637e-02  5.6797337558195778e-02  7.4397893661199796e-02  8.3354739509587675e-02  -1.7826522270130893e-01  -1.1697993352606600e-01  -6.5221339922658508e-02  -3.8626092215771519e-02  -2.4930461697936987e-02  -1.6881387091850650e-02  -1.1497438822023599e-02  -7.4905738874477025e-03  -4.2311366804071646e-03  -1.3692461087836580e-03  1.3195811413172674e-03  4.0104021803841960e-03  6.8784153219025260e-03  1.0148329260734033e-02  1.4169098186210876e-02  1.9560861602405243e-02  2.7545263051943197e-02  4.0727124476755173e-02  6.5261122847611236e-02  1.1241816383958432e-01  1.7126356947245092e-01  -3.4133437485834356e-01  -1.3211378331648319e-01  -5.4424491116600297e-02  -3.1072428602850376e-02  -2.0458463789882388e-02  -1.4128569359039667e-02  -9.7530328919790514e-03  -6.3936500579865477e-03  -3.5872138042647517e-03  -1.0748126564966037e-03  1.3098483173271617e-03  3.6967728465947336e-03  6.2169863837770196e-03  9.0407389275241178e-03  1.2438226157254414e-02  1.6909957483932092e-02  2.3531039360294027e-02  3.5028798760316594e-02  5.9439458824792339e-02  1.2092869972295553e-01  3.4611184256096766e-01  </DataArray> 
</PointData> 
</Piece>
</UnstructuredGrid>
</VTKFile>