<?xml version="1.0"?>
<VTKFile type="UnstructuredGrid"  version="0.1"  >
<UnstructuredGrid>
<Piece  NumberOfPoints="651" NumberOfCells="1200">
<Points>
<DataArray  type="Float64"  NumberOfComponents="3"  format="ascii">0 0 0  50000 0 0  100000 0 0  150000 0 0  200000 0 0  250000 0 0  300000 0 0  350000 0 0  400000 0 0  450000 0 0  500000 0 0  550000 0 0  600000 0 0  650000 0 0  700000 0 0  750000 0 0  800000 0 0  850000 0 0  900000 0 0  950000 0 0  1000000 0 0  0 50000 0  50000 50000 0  100000 50000 0  150000 50000 0  200000 50000 0  250000 50000 0  300000 50000 0  350000 50000 0  400000 50000 0  450000 50000 0  500000 50000 0  550000 50000 0  600000 50000 0  650000 50000 0  700000 50000 0  750000 50000 0  800000 50000 0  850000 50000 0  900000 50000 0  950000 50000 0  1000000 50000 0  0 100000 0  50000 100000 0  100000 100000 0  150000 100000 0  200000 100000 0  250000 100000 0  300000 100000 0  350000 100000 0  400000 100000 0  450000 100000 0  500000 100000 0  550000 100000 0  600000 100000 0  650000 100000 0  700000 100000 0  750000 100000 0  800000 100000 0  850000 100000 0  900000 100000 0  950000 100000 0  1000000 100000 0  0 150000 0  50000 150000 0  100000 150000 0  150000 150000 0  200000 150000 0  250000 150000 0  300000 150000 0  350000 150000 0  400000 150000 0  450000 150000 0  500000 150000 0  550000 150000 0  600000 150000 0  650000 150000 0  700000 150000 0  750000 150000 0  800000 150000 0  850000 150000 0  900000 150000 0  950000 150000 0  1000000 150000 0  0 200000 0  50000 200000 0  100000 200000 0  150000 200000 0  200000 200000 0  250000 200000 0  300000 200000 0  350000 200000 0  400000 200000 0  450000 200000 0  500000 200000 0  550000 200000 0  600000 200000 0  650000 200000 0  700000 200000 0  750000 200000 0  800000 200000 0  850000 200000 0  900000 200000 0  950000 200000 0  1000000 200000 0  0 250000 0  50000 250000 0  100000 250000 0  150000 250000 0  200000 250000 0  250000 250000 0  300000 250000 0  350000 250000 0  400000 250000 0  450000 250000 0  500000 250000 0  550000 250000 0  600000 250000 0  650000 250000 0  700000 250000 0  750000 250000 0  800000 250000 0  850000 250000 0  900000 250000 0  950000 250000 0  1000000 250000 0  0 300000 0  50000 300000 0  100000 300000 0  150000 300000 0  200000 300000 0  250000 300000 0  300000 300000 0  350000 300000 0  400000 300000 0  450000 300000 0  500000 300000 0  550000 300000 0  600000 300000 0  650000 300000 0  700000 300000 0  750000 300000 0  800000 300000 0  850000 300000 0  900000 300000 0  950000 300000 0  1000000 300000 0  0 350000 0  50000 350000 0  100000 350000 0  150000 350000 0  200000 350000 0  250000 350000 0  300000 350000 0  350000 350000 0  400000 350000 0  450000 350000 0  500000 350000 0  550000 350000 0  600000 350000 0  650000 350000 0  700000 350000 0  750000 350000 0  800000 350000 0  850000 350000 0  900000 350000 0  950000 350000 0  1000000 350000 0  0 400000 0  50000 400000 0  100000 400000 0  150000 400000 0  200000 400000 0  250000 400000 0  300000 400000 0  350000 400000 0  400000 400000 0  450000 400000 0  500000 400000 0  550000 400000 0  600000 400000 0  650000 400000 0  700000 400000 0  750000 400000 0  800000 400000 0  850000 400000 0  900000 400000 0  950000 400000 0  1000000 400000 0  0 450000 0  50000 450000 0  100000 450000 0  150000 450000 0  200000 450000 0  250000 450000 0  300000 450000 0  350000 450000 0  400000 450000 0  450000 450000 0  500000 450000 0  550000 450000 0  600000 450000 0  650000 450000 0  700000 450000 0  750000 450000 0  800000 450000 0  850000 450000 0  900000 450000 0  950000 450000 0  1000000 450000 0  0 500000 0  50000 500000 0  100000 500000 0  150000 500000 0  200000 500000 0  250000 500000 0  300000 500000 0  350000 500000 0  400000 500000 0  450000 500000 0  500000 500000 0  550000 500000 0  600000 500000 0  650000 500000 0  700000 500000 0  750000 500000 0  800000 500000 0  850000 500000 0  900000 500000 0  950000 500000 0  1000000 500000 0  0 550000 0  50000 550000 0  100000 550000 0  150000 550000 0  200000 550000 0  250000 550000 0  300000 550000 0  350000 550000 0  400000 550000 0  450000 550000 0  500000 550000 0  550000 550000 0  600000 550000 0  650000 550000 0  700000 550000 0  750000 550000 0  800000 550000 0  850000 550000 0  900000 550000 0  950000 550000 0  1000000 550000 0  0 600000 0  50000 600000 0  100000 600000 0  150000 600000 0  200000 600000 0  250000 600000 0  300000 600000 0  350000 600000 0  400000 600000 0  450000 600000 0  500000 600000 0  550000 600000 0  600000 600000 0  650000 600000 0  700000 600000 0  750000 600000 0  800000 600000 0  850000 600000 0  900000 600000 0  950000 600000 0  1000000 600000 0  0 650000 0  50000 650000 0  100000 650000 0  150000 650000 0  200000 650000 0  250000 650000 0  300000 650000 0  350000 650000 0  400000 650000 0  450000 650000 0  500000 650000 0  550000 650000 0  600000 650000 0  650000 650000 0  700000 650000 0  750000 650000 0  800000 650000 0  850000 650000 0  900000 650000 0  950000 650000 0  1000000 650000 0  0 700000 0  50000 700000 0  100000 700000 0  150000 700000 0  200000 700000 0  250000 700000 0  300000 700000 0  350000 700000 0  400000 700000 0  450000 700000 0  500000 700000 0  550000 700000 0  600000 700000 0  650000 700000 0  700000 700000 0  750000 700000 0  800000 700000 0  850000 700000 0  900000 700000 0  950000 700000 0  1000000 700000 0  0 750000 0  50000 750000 0  100000 750000 0  150000 750000 0  200000 750000 0  250000 750000 0  300000 750000 0  350000 750000 0  400000 750000 0  450000 750000 0  500000 750000 0  550000 750000 0  600000 750000 0  650000 750000 0  700000 750000 0  750000 750000 0  800000 750000 0  850000 750000 0  900000 750000 0  950000 750000 0  1000000 750000 0  0 800000 0  50000 800000 0  100000 800000 0  150000 800000 0  200000 800000 0  250000 800000 0  300000 800000 0  350000 800000 0  400000 800000 0  450000 800000 0  500000 800000 0  550000 800000 0  600000 800000 0  650000 800000 0  700000 800000 0  750000 800000 0  800000 800000 0  850000 800000 0  900000 800000 0  950000 800000 0  1000000 800000 0  0 850000 0  50000 850000 0  100000 850000 0  150000 850000 0  200000 850000 0  250000 850000 0  300000 850000 0  350000 850000 0  400000 850000 0  450000 850000 0  500000 850000 0  550000 850000 0  600000 850000 0  650000 850000 0  700000 850000 0  750000 850000 0  800000 850000 0  850000 850000 0  900000 850000 0  950000 850000 0  1000000 850000 0  0 900000 0  50000 900000 0  100000 900000 0  150000 900000 0  200000 900000 0  250000 900000 0  300000 900000 0  350000 900000 0  400000 900000 0  450000 900000 0  500000 900000 0  550000 900000 0  600000 900000 0  650000 900000 0  700000 900000 0  750000 900000 0  800000 900000 0  850000 900000 0  900000 900000 0  950000 900000 0  1000000 900000 0  0 950000 0  50000 950000 0  100000 950000 0  150000 950000 0  200000 950000 0  250000 950000 0  300000 950000 0  350000 950000 0  400000 950000 0  450000 950000 0  500000 950000 0  550000 950000 0  600000 950000 0  650000 950000 0  700000 950000 0  750000 950000 0  800000 950000 0  850000 950000 0  900000 950000 0  950000 950000 0  1000000 950000 0  0 1000000 0  50000 1000000 0  100000 1000000 0  150000 1000000 0  200000 1000000 0  250000 1000000 0  300000 1000000 0  350000 1000000 0  400000 1000000 0  450000 1000000 0  500000 1000000 0  550000 1000000 0  600000 1000000 0  650000 1000000 0  700000 1000000 0  750000 1000000 0  800000 1000000 0  850000 1000000 0  900000 1000000 0  950000 1000000 0  1000000 1000000 0  0 1050000 0  50000 1050000 0  100000 1050000 0  150000 1050000 0  200000 1050000 0  250000 1050000 0  300000 1050000 0  350000 1050000 0  400000 1050000 0  450000 1050000 0  500000 1050000 0  550000 1050000 0  600000 1050000 0  650000 1050000 0  700000 1050000 0  750000 1050000 0  800000 1050000 0  850000 1050000 0  900000 1050000 0  950000 1050000 0  1000000 1050000 0  0 1100000 0  50000 1100000 0  100000 1100000 0  150000 1100000 0  200000 1100000 0  250000 1100000 0  300000 1100000 0  350000 1100000 0  400000 1100000 0  450000 1100000 0  500000 1100000 0  550000 1100000 0  600000 1100000 0  650000 1100000 0  700000 1100000 0  750000 1100000 0  800000 1100000 0  850000 1100000 0  900000 1100000 0  950000 1100000 0  1000000 1100000 0  0 1150000 0  50000 1150000 0  100000 1150000 0  150000 1150000 0  200000 1150000 0  250000 1150000 0  300000 1150000 0  350000 1150000 0  400000 1150000 0  450000 1150000 0  500000 1150000 0  550000 1150000 0  600000 1150000 0  650000 1150000 0  700000 1150000 0  750000 1150000 0  800000 1150000 0  850000 1150000 0  900000 1150000 0  950000 1150000 0  1000000 1150000 0  0 1200000 0  50000 1200000 0  100000 1200000 0  150000 1200000 0  200000 1200000 0  250000 1200000 0  300000 1200000 0  350000 1200000 0  400000 1200000 0  450000 1200000 0  500000 1200000 0  550000 1200000 0  600000 1200000 0  650000 1200000 0  700000 1200000 0  750000 1200000 0  800000 1200000 0  850000 1200000 0  900000 1200000 0  950000 1200000 0  1000000 1200000 0  0 1250000 0  50000 1250000 0  100000 1250000 0  150000 1250000 0  200000 1250000 0  250000 1250000 0  300000 1250000 0  350000 1250000 0  400000 1250000 0  450000 1250000 0  500000 1250000 0  550000 1250000 0  600000 1250000 0  650000 1250000 0  700000 1250000 0  750000 1250000 0  800000 1250000 0  850000 1250000 0  900000 1250000 0  950000 1250000 0  1000000 1250000 0  0 1300000 0  50000 1300000 0  100000 1300000 0  150000 1300000 0  200000 1300000 0  250000 1300000 0  300000 1300000 0  350000 1300000 0  400000 1300000 0  450000 1300000 0  500000 1300000 0  550000 1300000 0  600000 1300000 0  650000 1300000 0  700000 1300000 0  750000 1300000 0  800000 1300000 0  850000 1300000 0  900000 1300000 0  950000 1300000 0  1000000 1300000 0  0 1350000 0  50000 1350000 0  100000 1350000 0  150000 1350000 0  200000 1350000 0  250000 1350000 0  300000 1350000 0  350000 1350000 0  400000 1350000 0  450000 1350000 0  500000 1350000 0  550000 1350000 0  600000 1350000 0  650000 1350000 0  700000 135
[...]
<PointData  Scalars="f_10483"> 
<DataArray  type="Float64"  Name="f_10483"  format="ascii">-2.1128680723934579e-01  -7.5249402102909604e-02  -3.7058171618538666e-02  -2.1694901369613936e-02  -1.4298348945489411e-02  -9.8894567371372900e-03  -6.7803069130521598e-03  -4.3125096958099764e-03  -2.1841665866023773e-03  -2.3452009643354835e-04  1.6368432128372257e-03  3.5069312116619285e-03  5.4521224601700785e-03  7.5703668889156488e-03  1.0015256166893739e-02  1.3064810548687527e-02  1.7291531003880856e-02  2.4146958604779001e-02  3.8913507385785619e-02  8.6787285112185253e-02  2.1212477904951227e-01  -1.0551901555132731e-01  -6.9547867360353330e-02  -4.0191625443076244e-02  -2.4888379684055731e-02  -1.6529658321444107e-02  -1.1333375484536900e-02  -7.7011132472075174e-03  -4.8887118626425160e-03  -2.5219395046083906e-03  -3.9240050027901927e-04  1.6328905974399336e-03  3.6570658088104875e-03  5.7831745241593733e-03  8.1440899325941236e-03  1.0948914169612542e-02  1.4578415223543651e-02  1.9820203927818157e-02  2.8507811220063198e-02  4.5080307029885795e-02  7.6962257364789330e-02  1.1439900267583533e-01  -5.1188112995596176e-02  -4.5565432083721158e-02  -3.4584139502438750e-02  -2.4787896189317621e-02  -1.7511459982655648e-02  -1.2313204774158194e-02  -8.4562355649497340e-03  -5.4112052364173654e-03  -2.8451827185160161e-03  -5.4620185209413837e-04  1.6328463020088774e-03  3.8113409197518895e-03  6.1090316812392803e-03  8.6747137076580993e-03  1.1726078547701814e-02  1.5615742693592010e-02  2.0939713151322304e-02  2.8640313385604112e-02  3.9628332078243157e-02  5.1636014946280534e-02  5.3005302560964626e-02  -2.9898142901141442e-02  -3.0291745869581863e-02  -2.6750927442594510e-02  -2.1253084241572004e-02  -1.6097382083604971e-02  -1.1823133659159444e-02  -8.3326380229274220e-03  -5.4141964425989649e-03  -2.8753773718682382e-03  -5.6361581058324446e-04  1.6429664472829282e-03  3.8510553078836764e-03  6.1683381840477603e-03  8.7204286516232767e-03  1.1669015972613784e-02  1.5226186838309737e-02  1.9636112326441107e-02  2.5016451468447422e-02  3.0793016308077792e-02  3.4329907519488688e-02  3.2423240894734383e-02  -1.9501873491158703e-02  -2.0700937421104907e-02  -1.9881993425915626e-02  -1.7074517425840360e-02  -1.3763978587623859e-02  -1.0558380750922653e-02  -7.6524513045110095e-03  -5.0507664680288595e-03  -2.6875181152173138e-03  -4.8077341709551810e-04  1.6503081673580791e-03  3.7838305741328352e-03  5.9988274416321458e-03  8.3792353555825361e-03  1.1013023027805361e-02  1.3975344350655707e-02  1.7269512924300415e-02  2.0676660577284175e-02  2.3488204335748126e-02  2.4193073412372208e-02  2.2535959920099973e-02  -1.3441348721224848e-02  -1.4564074322386308e-02  -1.4700432570452393e-02  -1.3329023301280976e-02  -1.1266001944179017e-02  -8.9598272222627118e-03  -6.6552150652541883e-03  -4.4453784932690027e-03  -2.3426307525759101e-03  -3.2221077632236969e-04  1.6557316342292307e-03  3.6362731480400695e-03  5.6650533820522602e-03  7.7835588171718383e-03  1.0018782418814281e-02  1.2359183058773048e-02  1.4705933514413305e-02  1.6793621874676864e-02  1.8118695991039643e-02  1.7914359505517109e-02  1.6634970007021486e-02  -9.5149103060679138e-03  -1.0446023324328747e-02  -1.0889020202595929e-02  -1.0249747456808976e-02  -8.9698796149481133e-03  -7.3359145334687655e-03  -5.5512843234926303e-03  -3.7273962475611253e-03  -1.9131603920882966e-03  -1.2036435143029611e-04  1.6586997472495067e-03  3.4399542513333181e-03  5.2395001078935242e-03  7.0653978737814337e-03  8.9056754894886042e-03  1.0709017403146639e-02  1.2356810047793085e-02  1.3633871008565291e-02  1.4229844392139035e-02  1.3752104435776982e-02  1.2756812946867967e-02  -6.8137757323032391e-03  -7.5684183697128839e-03  -8.0788270002419785e-03  -7.8098995859848998e-03  -7.0087274608773165e-03  -5.8484213413728713e-03  -4.4768609447161248e-03  -2.9939443459586221e-03  -1.4591827604349572e-03  9.6532185747411650e-05  1.6595503952170519e-03  3.2241326881989100e-03  4.7844727301301531e-03  6.3265590496797020e-03  7.8183485068237732e-03  9.1975922105582576e-03  1.0359306209528418e-02  1.1150033447759904e-02  1.1386296457259528e-02  1.0857682663647587e-02  1.0074095305946908e-02  -4.8895410257326216e-03  -5.5004244222502672e-03  -5.9908804534200893e-03  -5.9085940611075770e-03  -5.3988212170927429e-03  -4.5643161784168643e-03  -3.5072034688201411e-03  -2.3077856827425115e-03  -1.0234360567080863e-03  3.0737805927119561e-04  1.6588292160746010e-03  3.0112410322353810e-03  4.3447720982223064e-03  5.6330114604697537e-03  6.8362570618297706e-03  7.8950212687452954e-03  8.7259871653879960e-03  9.2247007383738974e-03  9.2833425075828854e-03  8.7830544834421355e-03  8.1589520964513336e-03  -3.4917179122000955e-03  -3.9895890913292289e-03  -4.4317585594917507e-03  -4.4422665759748332e-03  -4.1110327959901624e-03  -3.4990896717758380e-03  -2.6759798488727063e-03  -1.7034913779014067e-03  -6.3212860280320181e-04  4.9856340921495103e-04  1.6571053038060184e-03  2.8161419826719029e-03  3.9481477588406361e-03  5.0211002600825871e-03  5.9944757360571952e-03  6.8163708992238252e-03  7.4233409262514536e-03  7.7450081416206486e-03  7.7175047659044484e-03  7.2699768814234005e-03  6.7663620802996139e-03  -2.4688575382237348e-03  -2.8797085149731513e-03  -3.2692548815409601e-03  -3.3243957677065354e-03  -3.1036414281895579e-03  -2.6436472916683954e-03  -1.9921495877844885e-03  -1.1962482917206997e-03  -2.9883612512667966e-04  6.6255666710103177e-04  1.6548377236520291e-03  2.6473068036356085e-03  3.6091268075054634e-03  4.5067933171574698e-03  5.3021019536530099e-03  5.9513087015872004e-03  6.4064416358424678e-03  6.6195624133016358e-03  6.5522641723867684e-03  6.1598140862769903e-03  5.7468006204040049e-03  -1.7248263580980179e-03  -2.0702264141987258e-03  -2.4126819445593191e-03  -2.4879747658607741e-03  -2.3361064582506220e-03  -1.9795550939337024e-03  -1.4519236371393028e-03  -7.8959521704486139e-04  -2.8786741078362981e-05  7.9604585229356688e-04  1.6523405562600844e-03  2.5086513573527864e-03  3.3334364814092523e-03  4.0938557106737642e-03  4.7550271837319604e-03  5.2802446391936823e-03  5.6326824436827580e-03  5.7787776204177837e-03  5.6949142611281379e-03  5.3509103132672719e-03  5.0049936147939346e-03  -1.1970599507042533e-03  -1.4950222157007992e-03  -1.7997754450124472e-03  -1.8832278530803287e-03  -1.7741995023787570e-03  -1.4869943461054665e-03  -1.0462922047232393e-03  -4.8109640096880761e-04  1.7756396084362512e-04  8.9825399443266632e-04  1.6497970383000840e-03  2.4012819849722603e-03  3.1217370062256375e-03  3.7798133347147506e-03  4.3438250315396328e-03  4.7824759148021086e-03  5.0665477497413239e-03  5.1714687565352340e-03  5.0821951097639968e-03  4.7766392141385837e-03  4.4788188978468939e-03  -8.4483668770764405e-04  -1.1107060869252837e-03  -1.3884150916233550e-03  -1.4746662729567478e-03  -1.3915003178490758e-03  -1.1486602970388077e-03  -7.6543969709026282e-04  -2.6610179569145259e-04  3.2194105746545960e-04  9.6965368789577410e-04  1.6472918614485223e-03  2.3248612621877725e-03  2.9723330273361747e-03  3.5598666749134282e-03  4.0582915024310520e-03  4.4400597834526583e-03  4.6808108819438284e-03  4.7613499784591807e-03  4.6714847516345793e-03  4.3933831188079876e-03  4.1278087127072814e-03  -6.4265064739849401e-04  -8.8993046303390867e-04  -1.1514893677910432e-03  -1.2386487325512024e-03  -1.1695108109803401e-03  -9.5155463649754083e-04  -6.0119352259893806e-04  -1.4006060745230022e-04  4.0654305328061553e-04  1.0110892277283750e-03  1.6448439722528080e-03  2.2785560354931303e-03  2.8829587426912953e-03  3.4292756351298956e-03  3.8899199589132790e-03  4.2395347548103502e-03  4.4564502513180842e-03  4.5243087633364187e-03  4.4354182663770064e-03  4.1737007424100091e-03  3.9266195711543895e-03  -5.7646002420347732e-04  -8.1758487217868311e-04  -1.0738235529056759e-03  -1.1616812263477981e-03  -1.0973694811429102e-03  -8.8774718920930527e-04  -5.4830510896942757e-04  -9.9843721941046508e-05  4.3301383503322507e-04  1.0232348776588586e-03  1.6424335661766451e-03  2.2616322546949357e-03  2.8518532973221640e-03  3.3847108542986865e-03  3.8331722413295364e-03  4.1726143215717413e-03  4.3822366135069599e-03  4.4465483587126731e-03  4.3586906852705947e-03  4.1024520045433452e-03  3.8613271565681321e-03  -6.4175243878996952e-04  -8.8883361004552788e-04  -1.1505511340122174e-03  -1.2394416309717271e-03  -1.1715831189541793e-03  -9.5466762244817674e-04  -6.0505282655343509e-04  -1.4440850277264324e-04  4.0190838966357688e-04  1.0063110968601468e-03  1.6400231600999045e-03  2.2737779046248848e-03  2.8783240790742348e-03  3.4249277398093921e-03  3.8860606549586071e-03  4.2364217688595574e-03  4.4543779433441179e-03  4.5235158649157637e-03  4.4363565001557083e-03  4.1747975953982915e-03  3.9275177797628335e-03  -8.4294158034381092e-04  -1.1085159864442961e-03  -1.3866176192704697e-03  -1.4764828460950507e-03  -1.3959437495806161e-03  -1.1551926510913774e-03  -7.7342437007232835e-04  -2.7499954255759363e-04  3.1253410501713144e-04  9.6000587016380743e-04  1.6375752709023974e-03  2.3152134444557092e-03  2.9629260748877005e-03  3.5509689280470913e-03  4.0503068294487589e-03  4.4335274293998807e-03  4.6763674502120264e-03  4.7595334053205504e-03  4.6732822239873555e-03  4.3955732192889410e-03  4.1297038200710807e-03  -1.1939517654848215e-03  -1.4917720817760717e-03  -1.7973279774008248e-03  -1.8866016241720223e-03  -1.7816806173792563e-03  -1.4976087824423590e-03  -1.0589578991829416e-03  -4.9494620236144348e-04  1.6313012612475386e-04  8.8358514737608832e-04  1.6350700940475338e-03  2.3866131379155875e-03  3.1073031715065456e-03  3.7659635333217910e-03  4.3311593370795329e-03  4.7718614784647718e-03  5.0590666347404131e-03  5.1680949854431254e-03  5.0846425773752885e-03  4.7798893480629958e-03  4.4819270830660550e-03  -1.7201264824339198e-03  -2.0660431809065129e-03  -2.4100471287663277e-03  -2.4939104880560563e-03  -2.3478153113225390e-03  -1.9953775068364747e-03  -1.4701600513786211e-03  -8.0898857832458490e-04  -4.8569349063636477e-05  7.7621577499037994e-04  1.6325265760821807e-03  2.4888212800494654e-03  3.3136538734236799e-03  4.0744623493935515e-03  4.7367907694920207e-03  5.2644222262902517e-03  5.6209735906102695e-03  5.7728418982219542e-03  5.6975490769205972e-03  5.3550935465590810e-03  5.0096934904576892e-03  -2.4619334880463979e-03  -2.8749469539181135e-03  -3.2673970400264752e-03  -3.3346952809416570e-03  -3.1215745034847654e-03  -2.6664415692336254e-03  -2.0172348213046620e-03  -1.2219261848144885e-03  -3.2425967516695037e-04  6.3756032869985468e-04  1.6300294086823138e-03  2.6223104652342310e-03  3.5837032574647463e-03  4.4811154240630893e-03  5.2770167201320805e-03  5.9285144240211109e-03  6.3885085605463821e-03  6.6092629000656985e-03  6.5541220139005932e-03  6.1645756473314925e-03  5.7537246705808938e-03  -3.4814949479444629e-03  -3.9851097490663928e-03  -4.4326376335455863e-03  -4.4601410092626826e-03  -4.1384737938972059e-03  -3.5315037668756221e-03  -2.7096086037161396e-03  -1.7362331277485474e-03  -6.6328062651226745e-04  4.6872514965276438e-04  1.6277618285172599e-03  2.7863037231094460e-03  3.9169957351310623e-03  4.9883585102347954e-03  5.9608469812128849e-03  6.7839568041229660e-03  7.3958999283432391e-03  7.7271337083317081e-03  7.7166256918497159e-03  7.2744562236855617e-03  6.7765850445544737e-03  -4.8740849640984112e-03  -5.4981873510863092e-03  -5.9984753752249523e-03  -5.9398336060180910e-03  -5.4411200330383748e-03  -4.6101541364044875e-03  -3.5513899294987794e-03  -2.3481443281477251e-03  -1.0599049659073903e-03  2.7362610007497301e-04  1.6260379162341073e-03  2.9774890730389077e-03  4.3083031890224421e-03  5.5926528150637362e-03  6.7920706011500818e-03  7.8491833107562983e-03  8.6836883494408879e-03  9.1934611934619322e-03  9.2757475857767977e-03  8.7852915546052148e-03  8.1744081580849368e-03  -6.7892281735945073e-03  -7.5728155312909957e-03  -8.1014293249012017e-03  -7.8651663154063068e-03  -7.0744390771846867e-03  -5.9127250782272187e-03  -4.5334813745058081e-03  -3.0416919173730664e-03  -1.4996055978320332e-03  6.0734444093966223e-05  1.6253167370739812e-03  3.1883349465452052e-03  4.7440498927325435e-03  6.2788114782644225e-03  7.7617280770328617e-03  9.1332884737022352e-03  1.0293594593219213e-02  1.1094766718336604e-02  1.1363694132598579e-02  1.0853285502068176e-02  1.0098642864654913e-02  -9.4719458145126438e-03  -1.0467237303416461e-02  -1.0944977259778282e-02  -1.0349003876213516e-02  -9.0719429154565330e-03  -7.4241502708277882e-03  -5.6208083571862586e-03  -3.7805307414925183e-03  -1.9546329756141264e-03  -1.5508711905961537e-04  1.6261673850222567e-03  3.4052314837037492e-03  5.1980275243671617e-03  7.0122633798491369e-03  8.8361514557936151e-03  1.0620781665785716e-02  1.2254746747282386e-02  1.3534614589158491e-02  1.4173887334954673e-02  1.3730890456687626e-02  1.2799777438422411e-02  -1.3350102874656622e-02  -1.4629492373146341e-02  -1.4833828858672113e-02  -1.3508754742325640e-02  -1.1421066382084883e-02  -9.0743159264678273e-03  -6.7339152865285423e-03  -4.4986916849007056e-03  -2.3801862497910423e-03  -3.5140601578454291e-04  1.6291354980244575e-03  3.6070779085777436e-03  5.6274978848367407e-03  7.7302456255393080e-03  9.9400821975386723e-03  1.2244694354566208e-02  1.4550869076504911e-02  1.6613890433629184e-02  1.7985299702816815e-02  1.7848941454754866e-02  1.6726215853588761e-02  -1.9251092787713548e-02  -2.0908206279980298e-02  -2.0203337203367467e-02  -1.7391793444931327e-02  -1.3984645791979182e-02  -1.0690477218362564e-02  -7.7281558955334343e-03  -5.0943682233254980e-03  -2.7139603093846395e-03  -4.9896344189060196e-04  1.6345589648824727e-03  3.7656405493376108e-03  5.9723852474644337e-03  8.3356336002851500e-03  1.0937318436781814e-02  1.3843247883214277e-02  1.7048845719942342e-02  2.0359384558189489e-02  2.3166860558292007e-02  2.3985804553493448e-02  2.2786740623544067e-02  -2.9138373762305131e-02  -3.1045040387057448e-02  -2.7508149175674984e-02  -2.1731584336088058e-02  -1.6351245194122146e-02  -1.1941319706022021e-02  -8.3841488403478513e-03  -5.4355615193720317e-03  -2.8834710518055701e-03  -5.6618817564650366e-04  1.6419006849526237e-03  3.8484829428202536e-03  6.1602445041099461e-03  8.6990635748494544e-03  1.1617505155192359e-02  1.5108000791445770e-02  1.9382249215921608e-02  2.4537951373927565e-02  3.0035794574991413e-02  3.3576613002007226e-02  3.3183010033569514e-02  -4.9720435428446695e-02  -4.8351147813780082e-02  -3.6343464945805058e-02  -2.5355446253228484e-02  -1.7654846018994436e-02  -1.2330875561297572e-02  -8.4412114154303833e-03  -5.3898465754019511e-03  -2.8241645489928860e-03  -5.2647378751079037e-04  1.6520208302304778e-03  3.8310689843350128e-03  6.1300498507619507e-03  8.6960723686725326e-03  1.1741102697220011e-02  1.5598071906450985e-02  2.0796327114981319e-02  2.8072763321689155e-02  3.7869006634867336e-02  4.8850299216207087e-02  5.4472980128107154e-02  -1.1111413554312717e-01  -7.3677390232186987e-02  -4.1795439897397375e-02  -2.5222944087655096e-02  -1.6535336795465802e-02  -1.1293548091230074e-02  -7.6640470373255569e-03  -4.8592228003252278e-03  -2.4983073919019193e-03  -3.7219867655944076e-04  1.6519765348089977e-03  3.6772676325298463e-03  5.8068066368653559e-03  8.1735789949106564e-03  1.0985980379493391e-02  1.4618242616848732e-02  1.9814525453794096e-02  2.8173246816460142e-02  4.3476492575557503e-02  7.2832734492940379e-02  1.0880388268399245e-01  -2.0883991191675944e-01  -8.3502417979508206e-02  -3.5628640253251437e-02  -2.0862091472344142e-02  -1.4006663871511164e-02  -9.7799434163612087e-03  -6.7303890345968929e-03  -4.2854997566387403e-03  -2.1672553279057020e-03  -2.2206407940462270e-04  1.6480239194178454e-03  3.5193872286906598e-03  5.4690337188664740e-03  7.5973768280864756e-03  1.0065174045348419e-02  1.3174323869462693e-02  1.7583216077857840e-02  2.4979768502044909e-02  4.0343038751061079e-02  7.8534269235568374e-02  2.1457167437214994e-01  </DataArray> 
</PointData> 
</Piece>
</UnstructuredGrid>
</VTKFile>