<?xml version="1.0"?>
<VTKFile type="UnstructuredGrid"  version="0.1"  >
<UnstructuredGrid>
<Piece  NumberOfPoints="651" NumberOfCells="1200">
<Points>
<DataArray  type="Float64"  NumberOfComponents="3"  format="ascii">0 0 0  50000 0 0  100000 0 0  150000 0 0  200000 0 0  250000 0 0  300000 0 0  350000 0 0  400000 0 0  450000 0 0  500000 0 0  550000 0 0  600000 0 0  650000 0 0  700000 0 0  750000 0 0  800000 0 0  850000 0 0  900000 0 0  950000 0 0  1000000 0 0  0 50000 0  50000 50000 0  100000 50000 0  150000 50000 0  200000 50000 0  250000 50000 0  300000 50000 0  350000 50000 0  400000 50000 0  450000 50000 0  500000 50000 0  550000 50000 0  600000 50000 0  650000 50000 0  700000 50000 0  750000 50000 0  800000 50000 0  850000 50000 0  900000 50000 0  950000 50000 0  1000000 50000 0  0 100000 0  50000 100000 0  100000 100000 0  150000 100000 0  200000 100000 0  250000 100000 0  300000 100000 0  350000 100000 0  400000 100000 0  450000 100000 0  500000 100000 0  550000 100000 0  600000 100000 0  650000 100000 0  700000 100000 0  750000 100000 0  800000 100000 0  850000 100000 0  900000 100000 0  950000 100000 0  1000000 100000 0  0 150000 0  50000 150000 0  100000 150000 0  150000 150000 0  200000 150000 0  250000 150000 0  300000 150000 0  350000 150000 0  400000 150000 0  450000 150000 0  500000 150000 0  550000 150000 0  600000 150000 0  650000 150000 0  700000 150000 0  750000 150000 0  800000 150000 0  850000 150000 0  900000 150000 0  950000 150000 0  1000000 150000 0  0 200000 0  50000 200000 0  100000 200000 0  150000 200000 0  200000 200000 0  250000 200000 0  300000 200000 0  350000 200000 0  400000 200000 0  450000 200000 0  500000 200000 0  550000 200000 0  600000 200000 0  650000 200000 0  700000 200000 0  750000 200000 0  800000 200000 0  850000 200000 0  900000 200000 0  950000 200000 0  1000000 200000 0  0 250000 0  50000 250000 0  100000 250000 0  150000 250000 0  200000 250000 0  250000 250000 0  300000 250000 0  350000 250000 0  400000 250000 0  450000 250000 0  500000 250000 0  550000 250000 0  600000 250000 0  650000 250000 0  700000 250000 0  750000 250000 0  800000 250000 0  850000 250000 0  900000 250000 0  950000 250000 0  1000000 250000 0  0 300000 0  50000 300000 0  100000 300000 0  150000 300000 0  200000 300000 0  250000 300000 0  300000 300000 0  350000 300000 0  400000 300000 0  450000 300000 0  500000 300000 0  550000 300000 0  600000 300000 0  650000 300000 0  700000 300000 0  750000 300000 0  800000 300000 0  850000 300000 0  900000 300000 0  950000 300000 0  1000000 300000 0  0 350000 0  50000 350000 0  100000 350000 0  150000 350000 0  200000 350000 0  250000 350000 0  300000 350000 0  350000 350000 0  400000 350000 0  450000 350000 0  500000 350000 0  550000 350000 0  600000 350000 0  650000 350000 0  700000 350000 0  750000 350000 0  800000 350000 0  850000 350000 0  900000 350000 0  950000 350000 0  1000000 350000 0  0 400000 0  50000 400000 0  100000 400000 0  150000 400000 0  200000 400000 0  250000 400000 0  300000 400000 0  350000 400000 0  400000 400000 0  450000 400000 0  500000 400000 0  550000 400000 0  600000 400000 0  650000 400000 0  700000 400000 0  750000 400000 0  800000 400000 0  850000 400000 0  900000 400000 0  950000 400000 0  1000000 400000 0  0 450000 0  50000 450000 0  100000 450000 0  150000 450000 0  200000 450000 0  250000 450000 0  300000 450000 0  350000 450000 0  400000 450000 0  450000 450000 0  500000 450000 0  550000 450000 0  600000 450000 0  650000 450000 0  700000 450000 0  750000 450000 0  800000 450000 0  850000 450000 0  900000 450000 0  950000 450000 0  1000000 450000 0  0 500000 0  50000 500000 0  100000 500000 0  150000 500000 0  200000 500000 0  250000 500000 0  300000 500000 0  350000 500000 0  400000 500000 0  450000 500000 0  500000 500000 0  550000 500000 0  600000 500000 0  650000 500000 0  700000 500000 0  750000 500000 0  800000 500000 0  850000 500000 0  900000 500000 0  950000 500000 0  1000000 500000 0  0 550000 0  50000 550000 0  100000 550000 0  150000 550000 0  200000 550000 0  250000 550000 0  300000 550000 0  350000 550000 0  400000 550000 0  450000 550000 0  500000 550000 0  550000 550000 0  600000 550000 0  650000 550000 0  700000 550000 0  750000 550000 0  800000 550000 0  850000 550000 0  900000 550000 0  950000 550000 0  1000000 550000 0  0 600000 0  50000 600000 0  100000 600000 0  150000 600000 0  200000 600000 0  250000 600000 0  300000 600000 0  350000 600000 0  400000 600000 0  450000 600000 0  500000 600000 0  550000 600000 0  600000 600000 0  650000 600000 0  700000 600000 0  750000 600000 0  800000 600000 0  850000 600000 0  900000 600000 0  950000 600000 0  1000000 600000 0  0 650000 0  50000 650000 0  100000 650000 0  150000 650000 0  200000 650000 0  250000 650000 0  300000 650000 0  350000 650000 0  400000 650000 0  450000 650000 0  500000 650000 0  550000 650000 0  600000 650000 0  650000 650000 0  700000 650000 0  750000 650000 0  800000 650000 0  850000 650000 0  900000 650000 0  950000 650000 0  1000000 650000 0  0 700000 0  50000 700000 0  100000 700000 0  150000 700000 0  200000 700000 0  250000 700000 0  300000 700000 0  350000 700000 0  400000 700000 0  450000 700000 0  500000 700000 0  550000 700000 0  600000 700000 0  650000 700000 0  700000 700000 0  750000 700000 0  800000 700000 0  850000 700000 0  900000 700000 0  950000 700000 0  1000000 700000 0  0 750000 0  50000 750000 0  100000 750000 0  150000 750000 0  200000 750000 0  250000 750000 0  300000 750000 0  350000 750000 0  400000 750000 0  450000 750000 0  500000 750000 0  550000 750000 0  600000 750000 0  650000 750000 0  700000 750000 0  750000 750000 0  800000 750000 0  850000 750000 0  900000 750000 0  950000 750000 0  1000000 750000 0  0 800000 0  50000 800000 0  100000 800000 0  150000 800000 0  200000 800000 0  250000 800000 0  300000 800000 0  350000 800000 0  400000 800000 0  450000 800000 0  500000 800000 0  550000 800000 0  600000 800000 0  650000 800000 0  700000 800000 0  750000 800000 0  800000 800000 0  850000 800000 0  900000 800000 0  950000 800000 0  1000000 800000 0  0 850000 0  50000 850000 0  100000 850000 0  150000 850000 0  200000 850000 0  250000 850000 0  300000 850000 0  350000 850000 0  400000 850000 0  450000 850000 0  500000 850000 0  550000 850000 0  600000 850000 0  650000 850000 0  700000 850000 0  750000 850000 0  800000 850000 0  850000 850000 0  900000 850000 0  950000 850000 0  1000000 850000 0  0 900000 0  50000 900000 0  100000 900000 0  150000 900000 0  200000 900000 0  250000 900000 0  300000 900000 0  350000 900000 0  400000 900000 0  450000 900000 0  500000 900000 0  550000 900000 0  600000 900000 0  650000 900000 0  700000 900000 0  750000 900000 0  800000 900000 0  850000 900000 0  900000 900000 0  950000 900000 0  1000000 900000 0  0 950000 0  50000 950000 0  100000 950000 0  150000 950000 0  200000 950000 0  250000 950000 0  300000 950000 0  350000 950000 0  400000 950000 0  450000 950000 0  500000 950000 0  550000 950000 0  600000 950000 0  650000 950000 0  700000 950000 0  750000 950000 0  800000 950000 0  850000 950000 0  900000 950000 0  950000 950000 0  1000000 950000 0  0 1000000 0  50000 1000000 0  100000 1000000 0  150000 1000000 0  200000 1000000 0  250000 1000000 0  300000 1000000 0  350000 1000000 0  400000 1000000 0  450000 1000000 0  500000 1000000 0  550000 1000000 0  600000 1000000 0  650000 1000000 0  700000 1000000 0  750000 1000000 0  800000 1000000 0  850000 1000000 0  900000 1000000 0  950000 1000000 0  1000000 1000000 0  0 1050000 0  50000 1050000 0  100000 1050000 0  150000 1050000 0  200000 1050000 0  250000 1050000 0  300000 1050000 0  350000 1050000 0  400000 1050000 0  450000 1050000 0  500000 1050000 0  550000 1050000 0  600000 1050000 0  650000 1050000 0  700000 1050000 0  750000 1050000 0  800000 1050000 0  850000 1050000 0  900000 1050000 0  950000 1050000 0  1000000 1050000 0  0 1100000 0  50000 1100000 0  100000 1100000 0  150000 1100000 0  200000 1100000 0  250000 1100000 0  300000 1100000 0  350000 1100000 0  400000 1100000 0  450000 1100000 0  500000 1100000 0  550000 1100000 0  600000 1100000 0  650000 1100000 0  700000 1100000 0  750000 1100000 0  800000 1100000 0  850000 1100000 0  900000 1100000 0  950000 1100000 0  1000000 1100000 0  0 1150000 0  50000 1150000 0  100000 1150000 0  150000 1150000 0  200000 1150000 0  250000 1150000 0  300000 1150000 0  350000 1150000 0  400000 1150000 0  450000 1150000 0  500000 1150000 0  550000 1150000 0  600000 1150000 0  650000 1150000 0  700000 1150000 0  750000 1150000 0  800000 1150000 0  850000 1150000 0  900000 1150000 0  950000 1150000 0  1000000 1150000 0  0 1200000 0  50000 1200000 0  100000 1200000 0  150000 1200000 0  200000 1200000 0  250000 1200000 0  300000 1200000 0  350000 1200000 0  400000 1200000 0  450000 1200000 0  500000 1200000 0  550000 1200000 0  600000 1200000 0  650000 1200000 0  700000 1200000 0  750000 1200000 0  800000 1200000 0  850000 1200000 0  900000 1200000 0  950000 1200000 0  1000000 1200000 0  0 1250000 0  50000 1250000 0  100000 1250000 0  150000 1250000 0  200000 1250000 0  250000 1250000 0  300000 1250000 0  350000 1250000 0  400000 1250000 0  450000 1250000 0  500000 1250000 0  550000 1250000 0  600000 1250000 0  650000 1250000 0  700000 1250000 0  750000 1250000 0  800000 1250000 0  850000 1250000 0  900000 1250000 0  950000 1250000 0  1000000 1250000 0  0 1300000 0  50000 1300000 0  100000 1300000 0  150000 1300000 0  200000 1300000 0  250000 1300000 0  300000 1300000 0  350000 1300000 0  400000 1300000 0  450000 1300000 0  500000 1300000 0  550000 1300000 0  600000 1300000 0  650000 1300000 0  700000 1300000 0  750000 1300000 0  800000 1300000 0  850000 1300000 0  900000 1300000 0  950000 1300000 0  1000000 1300000 0  0 1350000 0  50000 1350000 0  100000 1350000 0  150000 1350000 0  200000 1350000 0  250000 1350000 0  300000 1350000 0  350000 1350000 0  400000 1350000 0  450000 1350000 0  500000 1350000 0  550000 1350000 0  600000 1350000 0  650000 1350000 0  700000 135
[...]
<PointData  Scalars="f_10483"> 
<DataArray  type="Float64"  Name="f_10483"  format="ascii">-5.5928674723284200e-01  -1.8246060525415667e-01  -8.4621116025565796e-02  -4.6331321790517473e-02  -2.8566646660379925e-02  -1.8566850211810919e-02  -1.2030000920151249e-02  -7.2496182188459728e-03  -3.4198669825114352e-03  -9.8264959480845964e-05  2.9986857238935554e-03  6.0916905008815579e-03  9.3998070720793352e-03  1.3200264738972867e-02  1.7918257826782809e-02  2.4303538710667996e-02  3.3849918380418176e-02  5.0180694475835452e-02  8.6498045689479844e-02  2.1183891850095515e-01  5.6724513997956627e-01  -2.6625487671469478e-01  -1.7007733967774538e-01  -9.5381485490450515e-02  -5.6302035377943135e-02  -3.5570422355833069e-02  -2.3239179027522018e-02  -1.5125030337416681e-02  -9.2587117281625105e-03  -4.6339837289168734e-03  -6.7873231222491533e-04  2.9798607637258807e-03  6.6349876481475202e-03  1.0579549446353618e-02  1.5185751026709811e-02  2.1026389015079951e-02  2.9119739622554361e-02  4.1529764774213475e-02  6.3028739118976926e-02  1.0539973791449164e-01  1.8900162366237980e-01  2.8933140527195794e-01  -1.2404289811161749e-01  -1.1027083021299186e-01  -8.2505224659319740e-02  -5.7495359327849688e-02  -3.9352530051915226e-02  -2.6811495629623656e-02  -1.7910777184159152e-02  -1.1235190374384757e-02  -5.8871474540081918e-03  -1.2864951164602461e-03  2.9762505034101818e-03  7.2373454436127022e-03  1.1834032817515839e-02  1.7180175772207245e-02  2.3870418015958648e-02  3.2851842753994200e-02  4.5709104179542465e-02  6.4950284245687204e-02  9.3062470363453151e-02  1.2399118941477502e-01  1.2621497434642556e-01  -7.0903509785587918e-02  -7.2334414561199212e-02  -6.3310147363946023e-02  -4.9370469185168048e-02  -3.6621756128327937e-02  -2.6343255700209584e-02  -1.8242385343628136e-02  -1.1736104473571657e-02  -6.2949405173276024e-03  -1.4949362613752926e-03  3.0066130262289053e-03  7.5121369548640307e-03  1.2326694938139253e-02  1.7802769212866373e-02  2.4388205937511436e-02  3.2664592584221136e-02  4.3302512246116219e-02  5.6650653925447970e-02  7.1260471622343363e-02  8.0225585626218121e-02  7.5090031053707790e-02  -4.5217018249388174e-02  -4.8441702713664186e-02  -4.6373176184080142e-02  -3.9402488515480220e-02  -3.1356306115053613e-02  -2.3740065086533389e-02  -1.7032189005901512e-02  -1.1215342920265515e-02  -6.0913608434505764e-03  -1.4218759414390385e-03  3.0274398251601549e-03  7.4832283450159444e-03  1.2174579113871454e-02  1.7343970696466843e-02  2.3245686932589941e-02  3.0102906263291873e-02  3.7955401575918361e-02  4.6267659811518973e-02  5.3242463220641537e-02  5.4979111800461326e-02  5.0695833833418524e-02  -3.0157528009373592e-02  -3.3162691586017985e-02  -3.3614837398111753e-02  -3.0361944218035349e-02  -2.5494799703961631e-02  -2.0135372910912479e-02  -1.4895481689836145e-02  -9.9912968920209747e-03  -5.4310517151044020e-03  -1.1278750091013763e-03  3.0436194415844782e-03  7.2220846974335329e-03  1.1547680725191065e-02  1.6150196333555130e-02  2.1122580486992889e-02  2.6458882168553549e-02  3.1928002203429895e-02  3.6867185954078840e-02  4.0006857280665629e-02  3.9366125928498752e-02  3.5996518340287081e-02  -2.0311518910719386e-02  -2.2877133525582998e-02  -2.4209296677624934e-02  -2.2873484988450793e-02  -2.0014761976214147e-02  -1.6351136252940636e-02  -1.2392976674607543e-02  -8.4094266276751196e-03  -4.5080687309217420e-03  -7.0025769554526280e-04  3.0531257914034747e-03  6.8124545991244956e-03  1.0638601090696937e-02  1.4571712770959522e-02  1.8600158797626193e-02  2.2610382966834746e-02  2.6314257106049455e-02  2.9172161984151321e-02  3.0403677599661318e-02  2.8973996598250770e-02  2.6251758499892860e-02  -1.3486134572029424e-02  -1.5658180717301830e-02  -1.7252941330320567e-02  -1.6910069046855977e-02  -1.5289094950942337e-02  -1.2824964504536695e-02  -9.8903761221196627e-03  -6.7301673090207617e-03  -3.4835381814767915e-03  -2.1477106004302203e-04  3.0568943729851533e-03  6.3328830748803615e-03  9.6144698772693531e-03  1.2881545477361955e-02  1.6066939202667767e-02  1.9024509624420080e-02  2.1496155048929117e-02  2.3095385880206071e-02  2.3359717302311643e-02  2.1711586689696492e-02  1.9464627475505904e-02  -8.6056667226319435e-03  -1.0454625524798878e-02  -1.2070531325430551e-02  -1.2245176285383406e-02  -1.1384662068885207e-02  -9.7485741408255295e-03  -7.5960052957303372e-03  -5.1254031495753518e-03  -2.4740196647894891e-03  2.7109760111795504e-04  3.0563239960970457e-03  5.8442862938235885e-03  8.5971965474994170e-03  1.1259952929694355e-02  1.3742348465807991e-02  1.5901713054714661e-02  1.7531710807743059e-02  1.8367556710245328e-02  1.8135571614665540e-02  1.6489144872141575e-02  1.4603370893575027e-02  -5.0655940719157985e-03  -6.6528516527554456e-03  -8.1956942256069289e-03  -8.6382888071699949e-03  -8.2475252951954691e-03  -7.1785748891840841e-03  -5.6092768526888005e-03  -3.6932655169447269e-03  -1.5528612402453160e-03  7.1944815344496065e-04  3.0529147457256686e-03  5.3878734760199401e-03  7.6642215831038444e-03  9.8098145195068508e-03  1.1729632355023015e-02  1.3297729365513409e-02  1.4356056837286670e-02  1.4724765819155159e-02  1.4240238252938017e-02  1.2679655357322250e-02  1.1074611742105186e-02  -2.4929050072811459e-03  -3.8696208895788514e-03  -5.3082160529518098e-03  -5.8852907701790972e-03  -5.7863902637125307e-03  -5.1048813725475340e-03  -3.9637279647077766e-03  -2.4805525635601890e-03  -7.6005325994888155e-04  1.1084174091782926e-03  3.0478909945693537e-03  4.9880204337729838e-03  6.8581028407140405e-03  8.5800962056443737e-03  1.0062880608966240e-02  1.1199513593460379e-02  1.1869965566397274e-02  1.1950806991047537e-02  1.1343021327381650e-02  9.8941272874778219e-03  8.5093871341224252e-03  -6.4257398308712377e-04  -1.8528266603122815e-03  -3.1856193961827175e-03  -3.8256783698262264e-03  -3.9082824063485970e-03  -3.4900182190591060e-03  -2.6577620473059896e-03  -1.5025334235021007e-03  -1.1315229201973380e-04  1.4274538694684200e-03  3.0421066821231814e-03  4.6569288461174472e-03  6.1977907622703639e-03  7.5867786326833846e-03  8.7398283272583227e-03  9.5667961398586323e-03  9.9753686448460620e-03  9.8787899663475530e-03  9.2164995585832313e-03  7.8778158781165342e-03  6.6645016757125690e-03  6.5195982019256623e-04  -4.3160126251752984e-04  -1.6722194495018172e-03  -2.3381797397518602e-03  -2.5325297039933766e-03  -2.2899806413116367e-03  -1.6741852047463277e-03  -7.5760038640322537e-04  3.8351135879643051e-04  1.6729842917609687e-03  3.0360763399549192e-03  4.3991078596711175e-03  5.6882368191227524e-03  6.8282584284502165e-03  7.7423218767078607e-03  8.3534168716751355e-03  8.5884036910010893e-03  8.3839117217240043e-03  7.7024592671993755e-03  6.4585753989392447e-03  5.3743015744799226e-03  1.5041991912843886e-03  5.1000117105290041e-04  -6.6038307726971565e-04  -1.3348039510498379e-03  -1.5955890655319817e-03  -1.4648328160593736e-03  -9.9187755518889329e-04  -2.3710566689809985e-04  7.3208807049220874e-04  1.8450759160362291e-03  3.0300561006145299e-03  4.2149148326645581e-03  5.3274445042595245e-03  6.2955799638984592e-03  7.0483146449586446e-03  7.5178594952045241e-03  7.6434893288161790e-03  7.3761160136143859e-03  6.6918707802026143e-03  5.5197932989171309e-03  4.5257681775607520e-03  1.9882239980045535e-03  1.0473466403046283e-03  -7.9407428671457618e-05  -7.5600795788736117e-04  -1.0522804144916372e-03  -9.8390799842428076e-04  -5.9244611636585277e-04  6.8485406226184803e-05  9.3671095820067527e-04  1.9451330461356740e-03  3.0241277771462897e-03  4.1030392029633529e-03  5.1111689792708191e-03  5.9787752128770367e-03  6.6385935838492614e-03  7.0282800818336280e-03  7.0940728557425566e-03  6.7945594606678436e-03  6.1131870080698451e-03  4.9857200461232692e-03  4.0451056254864233e-03  2.1460730741973870e-03  1.2230379500917864e-03  1.1086934947865683e-04  -5.6742250217641757e-04  -8.7580527577586613e-04  -8.2826136002916420e-04  -4.6382949467615520e-04  1.6600824064142434e-04  1.0007503622706693e-03  1.9744596959988515e-03  3.0182693069826867e-03  4.0620789179693839e-03  5.0357882517060096e-03  5.8705303733471463e-03  6.5003681086775976e-03  6.8647999740420540e-03  6.9123438897963820e-03  6.6039611162004548e-03  5.9256692645452838e-03  4.8135006639314021e-03  3.8904655398265321e-03  1.9914329885355468e-03  1.0508185678982614e-03  -7.6648394047309541e-05  -7.5802084664535396e-04  -1.0575342417234491e-03  -9.9174146782257319e-04  -6.0205496984984039e-04  5.7763401109057287e-05  9.2536963470299621e-04  1.9334994110019898e-03  3.0124108368160176e-03  4.0914055678295969e-03  5.0998276557730655e-03  5.9680532077595249e-03  6.6289847303647800e-03  7.0204466124349201e-03  7.0888190285103916e-03  6.7925465719095302e-03  6.1159460426937519e-03  4.9891919737167457e-03  4.0483146160173395e-03  1.5107704364549139e-03  5.1674531509889445e-04  -6.5533216618492401e-04  -1.3395773995963686e-03  -1.6069507148020511e-03  -1.4813208811993968e-03  -1.0117760309661127e-03  -2.5904134992031370e-04  7.0909410970566020e-04  1.8216237812916209e-03  3.0064825133382825e-03  4.1914626979196751e-03  5.3044505434725374e-03  6.2736442808756813e-03  7.0284161691808239e-03  7.5013714300639391e-03  7.6321276795453348e-03  7.3713425650670144e-03  6.6969216912873093e-03  5.5265374429633064e-03  4.5323394227314842e-03  6.6223703952612422e-04  -4.2203678493157567e-04  -1.6659206531889428e-03  -2.3473731077131312e-03  -2.5518650769952092e-03  -2.3168782576798823e-03  -1.7057832627271753e-03  -7.9171981448591759e-04  3.4830179482706915e-04  1.6374307542685392e-03  3.0004622739810403e-03  4.3635543221783564e-03  5.6530272551526895e-03  6.7941390003665898e-03  7.7107238187258433e-03  8.3265192553056838e-03  8.5690683179981946e-03  8.3747183537616378e-03  7.7087580635116712e-03  6.4681398765246796e-03  5.3845787938131516e-03  -6.2796306171952396e-04  -1.8412772641202288e-03  -3.1799609445824365e-03  -3.8422513523469837e-03  -3.9388300308520890e-03  -3.5302575258781719e-03  -2.7032897132958154e-03  -1.5502400187402221e-03  -1.6125214834417835e-04  1.3796097677969859e-03  2.9944319317869914e-03  4.6090847444456009e-03  6.1496909059450180e-03  7.5390720374437789e-03  8.6943006612667552e-03  9.5265568330376565e-03  9.9448210203410495e-03  9.8622169838254465e-03  9.2221580101823370e-03  7.8893652743079173e-03  6.6791125970798101e-03  -2.4728485201440148e-03  -3.8575886734936579e-03  -5.3064827133915892e-03  -5.9142683770588202e-03  -5.8334269524183370e-03  -5.1629749794993348e-03  -4.0263419950284018e-03  -2.5435575917305978e-03  -8.2156422682073049e-04  1.0485181801063045e-03  2.9886476193048839e-03  4.9281212047004135e-03  6.7965918738409044e-03  8.5170911774721612e-03  1.0000266578643393e-02  1.1141419986505991e-02  1.1822928877688939e-02  1.1921829384165630e-02  1.1344754666940514e-02  9.9061595035620700e-03  8.5294436212590748e-03  -5.0380731281406766e-03  -6.6431167433497690e-03  -8.2036996389581677e-03  -8.6882272051792067e-03  -8.3195182233260345e-03  -7.2611907515776489e-03  -5.6930937411175490e-03  -3.7732759056317245e-03  -1.6276829692537730e-03  6.4866513781354615e-04  2.9836238681017679e-03  5.3170904603877566e-03  7.5893998540938574e-03  9.7298041308179258e-03  1.1645815466591679e-02  1.3215113503116781e-02  1.4284063909152897e-02  1.4674827421143077e-02  1.4232232839584651e-02  1.2689390266726733e-02  1.1102132685878582e-02  -8.5668322796223443e-03  -1.0452606258177179e-02  -1.2099033000693302e-02  -1.2331018096281357e-02  -1.1495172193803143e-02  -9.8651744408095009e-03  -7.7058098519424151e-03  -5.2234143158662498e-03  -2.5606579337017796e-03  1.9225231995413698e-04  2.9802146176735678e-03  5.7654410126590332e-03  8.5105582785853628e-03  1.1161941763401208e-02  1.3632543909593035e-02  1.5785112754726875e-02  1.7421200682821124e-02  1.8281714899343469e-02  1.8107069939399967e-02  1.6491164138761647e-02  1.4642205336583903e-02  -1.3428088861556157e-02  -1.5675048075730866e-02  -1.7323178688339980e-02  -1.7058847266251776e-02  -1.5459616435010424e-02  -1.2987971010548769e-02  -1.0030400588847282e-02  -6.8450068635874340e-03  -3.5779312635309695e-03  -2.9634446116470731e-04  2.9796442407224698e-03  6.2513096737579193e-03  9.5200767952135813e-03  1.2766705922792826e-02  1.5926914735936631e-02  1.8861503118403247e-02  2.1325633564856113e-02  2.2946607660805078e-02  2.3289479944287397e-02  2.1694719331264305e-02  1.9522673185978088e-02  -2.0215219885930880e-02  -2.2937457984270899e-02  -2.4367138985681044e-02  -2.3135623370200867e-02  -2.0277718492150060e-02  -1.6573844352998236e-02  -1.2563620183851879e-02  -8.5351741572391397e-03  -4.6020624770170401e-03  -7.7591598546987656e-04  2.9834128222423891e-03  6.7367963091991183e-03  1.0544607344599942e-02  1.4445965241392831e-02  1.8429515288377853e-02  2.2387674866771772e-02  2.6051300590107410e-02  2.8910023602395876e-02  3.0245835291600430e-02  2.8913672139558901e-02  2.6348057524679828e-02  -2.9959979726287528e-02  -3.3329587314480935e-02  -3.3970318666657472e-02  -3.0830647340120462e-02  -2.5891463589543643e-02  -2.0422343554747025e-02  -1.5086041873258391e-02  -1.0113657719880176e-02  -5.5111421115599099e-03  -1.1855460838288521e-03  2.9929191720112942e-03  7.1644136227056159e-03  1.1467590328734352e-02  1.6027835505693422e-02  2.0932020303566865e-02  2.6171911524714708e-02  3.1531338317841252e-02  3.6398482831986316e-02  3.9651376012111578e-02  3.9199230200030681e-02  3.6194066623371574e-02  -4.4659295219341297e-02  -4.8942573186369250e-02  -4.7205924606580157e-02  -4.0231121197536586e-02  -3.1918862962031981e-02  -2.4066367649500306e-02  -1.7209148318878164e-02  -1.1307432082818229e-02  -6.1380405002675132e-03  -1.4466897314385668e-03  3.0090987884082996e-03  7.4584145550159395e-03  1.2127899457053422e-02  1.7251881533911960e-02  2.3068727619610031e-02  2.9776603700321133e-02  3.7392844728932458e-02  4.5439027129452907e-02  5.2409714798130350e-02  5.4478241327748207e-02  5.1253556863462557e-02  -6.9053492439490466e-02  -7.4189047011996218e-02  -6.5223933008196483e-02  -5.0614115311419419e-02  -3.7265973632208266e-02  -2.6628053970419591e-02  -1.8351667323794611e-02  -1.1766230599215111e-02  -6.2901563245329447e-03  -1.4755983412846534e-03  3.0299255873414339e-03  7.5314748749542521e-03  1.2331479130932492e-02  1.7772643087220964e-02  2.4278923957341929e-02  3.2379794314007872e-02  4.2658294742229860e-02  5.5407007799186961e-02  6.9346685978078720e-02  7.8370953175406571e-02  7.6940048399801994e-02  -1.2017843573194649e-01  -1.1795465080033886e-01  -8.7025931749180746e-02  -5.8913745631584566e-02  -3.9672565565585079e-02  -2.6815304140152176e-02  -1.7833879402207514e-02  -1.1143637158524121e-02  -5.7974942038804839e-03  -1.2008068300050905e-03  3.0602881101880700e-03  7.3230337300673395e-03  1.1923686067642551e-02  1.7271728988065078e-02  2.3947315797907286e-02  3.2848034243461680e-02  4.5389068665867616e-02  6.3531897941941903e-02  8.8541763273567817e-02  1.1630736882738563e-01  1.3007943672608202e-01  -2.8329486665694309e-01  -1.8296508504765588e-01  -9.9363199300070218e-02  -5.6992200504773542e-02  -3.5493226160178214e-02  -2.3083201008649131e-02  -1.4989850401274292e-02  -9.1492124129791599e-03  -4.5430108326746342e-03  -5.9844903449910315e-04  3.0566778499122559e-03  6.7152709258728582e-03  1.0670522342594649e-02  1.5295250341891383e-02  2.1161568951219581e-02  2.9275717641422432e-02  4.1606960969862571e-02  6.2338573992137492e-02  1.0141802410485617e-01  1.7611387829242869e-01  2.7229141532959078e-01  -5.6120860136442419e-01  -2.0580237988602704e-01  -8.0461507074935434e-02  -4.4144155861561368e-02  -2.7813379766334585e-02  -1.8267000096724672e-02  -1.1881719212946010e-02  -7.1637261252153212e-03  -3.3632684583764223e-03  -5.5151887211053120e-05  3.0378528897662955e-03  6.1348035731508734e-03  9.4564055962135501e-03  1.3286156832602357e-02  1.8066539533986393e-02  2.4603388825751478e-02  3.4603185274460178e-02  5.2367860404781440e-02  9.0657654640078203e-02  1.8849714386903726e-01  5.6532328584812841e-01  </DataArray> 
</PointData> 
</Piece>
</UnstructuredGrid>
</VTKFile>