<?xml version="1.0"?>
<VTKFile type="UnstructuredGrid"  version="0.1"  >
<UnstructuredGrid>
<Piece  NumberOfPoints="651" NumberOfCells="1200">
<Points>
<DataArray  type="Float64"  NumberOfComponents="3"  format="ascii">0 0 0  50000 0 0  100000 0 0  150000 0 0  200000 0 0  250000 0 0  300000 0 0  350000 0 0  400000 0 0  450000 0 0  500000 0 0  550000 0 0  600000 0 0  650000 0 0  700000 0 0  750000 0 0  800000 0 0  850000 0 0  900000 0 0  950000 0 0  1000000 0 0  0 50000 0  50000 50000 0  100000 50000 0  150000 50000 0  200000 50000 0  250000 50000 0  300000 50000 0  350000 50000 0  400000 50000 0  450000 50000 0  500000 50000 0  550000 50000 0  600000 50000 0  650000 50000 0  700000 50000 0  750000 50000 0  800000 50000 0  850000 50000 0  900000 50000 0  950000 50000 0  1000000 50000 0  0 100000 0  50000 100000 0  100000 100000 0  150000 100000 0  200000 100000 0  250000 100000 0  300000 100000 0  350000 100000 0  400000 100000 0  450000 100000 0  500000 100000 0  550000 100000 0  600000 100000 0  650000 100000 0  700000 100000 0  750000 100000 0  800000 100000 0  850000 100000 0  900000 100000 0  950000 100000 0  1000000 100000 0  0 150000 0  50000 150000 0  100000 150000 0  150000 150000 0  200000 150000 0  250000 150000 0  300000 150000 0  350000 150000 0  400000 150000 0  450000 150000 0  500000 150000 0  550000 150000 0  600000 150000 0  650000 150000 0  700000 150000 0  750000 150000 0  800000 150000 0  850000 150000 0  900000 150000 0  950000 150000 0  1000000 150000 0  0 200000 0  50000 200000 0  100000 200000 0  150000 200000 0  200000 200000 0  250000 200000 0  300000 200000 0  350000 200000 0  400000 200000 0  450000 200000 0  500000 200000 0  550000 200000 0  600000 200000 0  650000 200000 0  700000 200000 0  750000 200000 0  800000 200000 0  850000 200000 0  900000 200000 0  950000 200000 0  1000000 200000 0  0 250000 0  50000 250000 0  100000 250000 0  150000 250000 0  200000 250000 0  250000 250000 0  300000 250000 0  350000 250000 0  400000 250000 0  450000 250000 0  500000 250000 0  550000 250000 0  600000 250000 0  650000 250000 0  700000 250000 0  750000 250000 0  800000 250000 0  850000 250000 0  900000 250000 0  950000 250000 0  1000000 250000 0  0 300000 0  50000 300000 0  100000 300000 0  150000 300000 0  200000 300000 0  250000 300000 0  300000 300000 0  350000 300000 0  400000 300000 0  450000 300000 0  500000 300000 0  550000 300000 0  600000 300000 0  650000 300000 0  700000 300000 0  750000 300000 0  800000 300000 0  850000 300000 0  900000 300000 0  950000 300000 0  1000000 300000 0  0 350000 0  50000 350000 0  100000 350000 0  150000 350000 0  200000 350000 0  250000 350000 0  300000 350000 0  350000 350000 0  400000 350000 0  450000 350000 0  500000 350000 0  550000 350000 0  600000 350000 0  650000 350000 0  700000 350000 0  750000 350000 0  800000 350000 0  850000 350000 0  900000 350000 0  950000 350000 0  1000000 350000 0  0 400000 0  50000 400000 0  100000 400000 0  150000 400000 0  200000 400000 0  250000 400000 0  300000 400000 0  350000 400000 0  400000 400000 0  450000 400000 0  500000 400000 0  550000 400000 0  600000 400000 0  650000 400000 0  700000 400000 0  750000 400000 0  800000 400000 0  850000 400000 0  900000 400000 0  950000 400000 0  1000000 400000 0  0 450000 0  50000 450000 0  100000 450000 0  150000 450000 0  200000 450000 0  250000 450000 0  300000 450000 0  350000 450000 0  400000 450000 0  450000 450000 0  500000 450000 0  550000 450000 0  600000 450000 0  650000 450000 0  700000 450000 0  750000 450000 0  800000 450000 0  850000 450000 0  900000 450000 0  950000 450000 0  1000000 450000 0  0 500000 0  50000 500000 0  100000 500000 0  150000 500000 0  200000 500000 0  250000 500000 0  300000 500000 0  350000 500000 0  400000 500000 0  450000 500000 0  500000 500000 0  550000 500000 0  600000 500000 0  650000 500000 0  700000 500000 0  750000 500000 0  800000 500000 0  850000 500000 0  900000 500000 0  950000 500000 0  1000000 500000 0  0 550000 0  50000 550000 0  100000 550000 0  150000 550000 0  200000 550000 0  250000 550000 0  300000 550000 0  350000 550000 0  400000 550000 0  450000 550000 0  500000 550000 0  550000 550000 0  600000 550000 0  650000 550000 0  700000 550000 0  750000 550000 0  800000 550000 0  850000 550000 0  900000 550000 0  950000 550000 0  1000000 550000 0  0 600000 0  50000 600000 0  100000 600000 0  150000 600000 0  200000 600000 0  250000 600000 0  300000 600000 0  350000 600000 0  400000 600000 0  450000 600000 0  500000 600000 0  550000 600000 0  600000 600000 0  650000 600000 0  700000 600000 0  750000 600000 0  800000 600000 0  850000 600000 0  900000 600000 0  950000 600000 0  1000000 600000 0  0 650000 0  50000 650000 0  100000 650000 0  150000 650000 0  200000 650000 0  250000 650000 0  300000 650000 0  350000 650000 0  400000 650000 0  450000 650000 0  500000 650000 0  550000 650000 0  600000 650000 0  650000 650000 0  700000 650000 0  750000 650000 0  800000 650000 0  850000 650000 0  900000 650000 0  950000 650000 0  1000000 650000 0  0 700000 0  50000 700000 0  100000 700000 0  150000 700000 0  200000 700000 0  250000 700000 0  300000 700000 0  350000 700000 0  400000 700000 0  450000 700000 0  500000 700000 0  550000 700000 0  600000 700000 0  650000 700000 0  700000 700000 0  750000 700000 0  800000 700000 0  850000 700000 0  900000 700000 0  950000 700000 0  1000000 700000 0  0 750000 0  50000 750000 0  100000 750000 0  150000 750000 0  200000 750000 0  250000 750000 0  300000 750000 0  350000 750000 0  400000 750000 0  450000 750000 0  500000 750000 0  550000 750000 0  600000 750000 0  650000 750000 0  700000 750000 0  750000 750000 0  800000 750000 0  850000 750000 0  900000 750000 0  950000 750000 0  1000000 750000 0  0 800000 0  50000 800000 0  100000 800000 0  150000 800000 0  200000 800000 0  250000 800000 0  300000 800000 0  350000 800000 0  400000 800000 0  450000 800000 0  500000 800000 0  550000 800000 0  600000 800000 0  650000 800000 0  700000 800000 0  750000 800000 0  800000 800000 0  850000 800000 0  900000 800000 0  950000 800000 0  1000000 800000 0  0 850000 0  50000 850000 0  100000 850000 0  150000 850000 0  200000 850000 0  250000 850000 0  300000 850000 0  350000 850000 0  400000 850000 0  450000 850000 0  500000 850000 0  550000 850000 0  600000 850000 0  650000 850000 0  700000 850000 0  750000 850000 0  800000 850000 0  850000 850000 0  900000 850000 0  950000 850000 0  1000000 850000 0  0 900000 0  50000 900000 0  100000 900000 0  150000 900000 0  200000 900000 0  250000 900000 0  300000 900000 0  350000 900000 0  400000 900000 0  450000 900000 0  500000 900000 0  550000 900000 0  600000 900000 0  650000 900000 0  700000 900000 0  750000 900000 0  800000 900000 0  850000 900000 0  900000 900000 0  950000 900000 0  1000000 900000 0  0 950000 0  50000 950000 0  100000 950000 0  150000 950000 0  200000 950000 0  250000 950000 0  300000 950000 0  350000 950000 0  400000 950000 0  450000 950000 0  500000 950000 0  550000 950000 0  600000 950000 0  650000 950000 0  700000 950000 0  750000 950000 0  800000 950000 0  850000 950000 0  900000 950000 0  950000 950000 0  1000000 950000 0  0 1000000 0  50000 1000000 0  100000 1000000 0  150000 1000000 0  200000 1000000 0  250000 1000000 0  300000 1000000 0  350000 1000000 0  400000 1000000 0  450000 1000000 0  500000 1000000 0  550000 1000000 0  600000 1000000 0  650000 1000000 0  700000 1000000 0  750000 1000000 0  800000 1000000 0  850000 1000000 0  900000 1000000 0  950000 1000000 0  1000000 1000000 0  0 1050000 0  50000 1050000 0  100000 1050000 0  150000 1050000 0  200000 1050000 0  250000 1050000 0  300000 1050000 0  350000 1050000 0  400000 1050000 0  450000 1050000 0  500000 1050000 0  550000 1050000 0  600000 1050000 0  650000 1050000 0  700000 1050000 0  750000 1050000 0  800000 1050000 0  850000 1050000 0  900000 1050000 0  950000 1050000 0  1000000 1050000 0  0 1100000 0  50000 1100000 0  100000 1100000 0  150000 1100000 0  200000 1100000 0  250000 1100000 0  300000 1100000 0  350000 1100000 0  400000 1100000 0  450000 1100000 0  500000 1100000 0  550000 1100000 0  600000 1100000 0  650000 1100000 0  700000 1100000 0  750000 1100000 0  800000 1100000 0  850000 1100000 0  900000 1100000 0  950000 1100000 0  1000000 1100000 0  0 1150000 0  50000 1150000 0  100000 1150000 0  150000 1150000 0  200000 1150000 0  250000 1150000 0  300000 1150000 0  350000 1150000 0  400000 1150000 0  450000 1150000 0  500000 1150000 0  550000 1150000 0  600000 1150000 0  650000 1150000 0  700000 1150000 0  750000 1150000 0  800000 1150000 0  850000 1150000 0  900000 1150000 0  950000 1150000 0  1000000 1150000 0  0 1200000 0  50000 1200000 0  100000 1200000 0  150000 1200000 0  200000 1200000 0  250000 1200000 0  300000 1200000 0  350000 1200000 0  400000 1200000 0  450000 1200000 0  500000 1200000 0  550000 1200000 0  600000 1200000 0  650000 1200000 0  700000 1200000 0  750000 1200000 0  800000 1200000 0  850000 1200000 0  900000 1200000 0  950000 1200000 0  1000000 1200000 0  0 1250000 0  50000 1250000 0  100000 1250000 0  150000 1250000 0  200000 1250000 0  250000 1250000 0  300000 1250000 0  350000 1250000 0  400000 1250000 0  450000 1250000 0  500000 1250000 0  550000 1250000 0  600000 1250000 0  650000 1250000 0  700000 1250000 0  750000 1250000 0  800000 1250000 0  850000 1250000 0  900000 1250000 0  950000 1250000 0  1000000 1250000 0  0 1300000 0  50000 1300000 0  100000 1300000 0  150000 1300000 0  200000 1300000 0  250000 1300000 0  300000 1300000 0  350000 1300000 0  400000 1300000 0  450000 1300000 0  500000 1300000 0  550000 1300000 0  600000 1300000 0  650000 1300000 0  700000 1300000 0  750000 1300000 0  800000 1300000 0  850000 1300000 0  900000 1300000 0  950000 1300000 0  1000000 1300000 0  0 1350000 0  50000 1350000 0  100000 1350000 0  150000 1350000 0  200000 1350000 0  250000 1350000 0  300000 1350000 0  350000 1350000 0  400000 1350000 0  450000 1350000 0  500000 1350000 0  550000 1350000 0  600000 1350000 0  650000 1350000 0  700000 135
[...]
<PointData  Scalars="f_10483"> 
<DataArray  type="Float64"  Name="f_10483"  format="ascii">-5.4841355984214690e-01  -1.8198314974699439e-01  -8.6501647004578935e-02  -4.9102477244824083e-02  -3.1738845712615128e-02  -2.1955454687884176e-02  -1.5550798888905563e-02  -1.0858635418308067e-02  -7.0926863009668911e-03  -3.8215753978493058e-03  -7.6915333589971577e-04  2.2794387637547777e-03  5.5374535219633774e-03  9.2749224981583927e-03  1.3906308981013912e-02  2.0162939857169836e-02  2.9503130406108188e-02  4.5469222116935951e-02  8.0963877099151288e-02  2.0316411736009282e-01  5.4840219488865261e-01  -2.6351206653071951e-01  -1.6982858648653371e-01  -9.6909641101481300e-02  -5.8781255291133552e-02  -3.8540830423087501e-02  -2.6491877761754049e-02  -1.8554162194281989e-02  -1.2807117966890106e-02  -8.2696221052565612e-03  -4.3840973346203479e-03  -7.8740153071856769e-04  2.8059302623312868e-03  6.6810839935409327e-03  1.1200621934130189e-02  1.6922842964651835e-02  2.4840829346395352e-02  3.6968326815986094e-02  5.7961184072172961e-02  9.9302015461678689e-02  1.8080025570303435e-01  2.7851692573105463e-01  -1.2490976122538346e-01  -1.1143258379596753e-01  -8.4320054411931966e-02  -5.9919602929916382e-02  -4.2208860252823825e-02  -2.9958902666448503e-02  -2.1257280924629474e-02  -1.4724245149326912e-02  -9.4847189842427251e-03  -4.9732607203693338e-03  -7.9092169312379120e-04  3.3898094445582679e-03  7.8974082650250695e-03  1.3135102310516893e-02  1.9682494837460353e-02  2.8463022719544057e-02  4.1021910306801482e-02  5.9804110484258974e-02  8.7231384256380662e-02  1.1740810335153630e-01  1.1964419825158897e-01  -7.3017311407713351e-02  -7.4388716912984806e-02  -6.5579403260479577e-02  -5.1976948566539637e-02  -3.9529325123794333e-02  -2.9488555981938863e-02  -2.1569671019298738e-02  -1.5204446822448351e-02  -9.8768529998311035e-03  -5.1737862925697034e-03  -7.6140193041787879e-04  3.6548571130347895e-03  8.3721138307027414e-03  1.3733753051704743e-02  2.0176182278889242e-02  2.8266235086621943e-02  3.8657411985409958e-02  5.1689079868652676e-02  6.5947895578026813e-02  7.4702405903319710e-02  6.9707892814959121e-02  -4.7924761831002520e-02  -5.1061807639385490e-02  -4.9042760055535914e-02  -4.2237625786051787e-02  -3.4378939871335425e-02  -2.6937255516885358e-02  -2.0379446176127230e-02  -1.4689079418347689e-02  -9.6733025498850246e-03  -5.1000316944802013e-03  -7.4111101079904224e-04  3.6241215816708600e-03  8.2187158836072305e-03  1.3278778349495634e-02  1.9051917370511418e-02  2.5755364968254885e-02  3.3427389695641255e-02  4.1545144646772558e-02  4.8354856862877403e-02  5.0051944543421475e-02  4.5876950868118223e-02  -3.3216564558961152e-02  -3.6143609597286235e-02  -3.6583986080801802e-02  -3.3406141523339851e-02  -2.8650085372765404e-02  -2.3411408248623401e-02  -1.8287263960946196e-02  -1.3489013603540467e-02  -9.0251076285468093e-03  -4.8112009413223498e-03  -7.2536821892090386e-04  3.3672605745513236e-03  7.6030247767485170e-03  1.2108141595632121e-02  1.6972879255391551e-02  2.2191009640703984e-02  2.7536646231039182e-02  3.2362834609500221e-02  3.5430233322862444e-02  3.4806447493689704e-02  3.1522181043648408e-02  -2.3603232896816467e-02  -2.6101858309034283e-02  -2.7399744550753183e-02  -2.6092082504713350e-02  -2.3295897466954252e-02  -1.9712401507839986e-02  -1.5839799308841062e-02  -1.1941043412646754e-02  -8.1214366052040163e-03  -4.3924037583329906e-03  -7.1612771036940576e-04  2.9659433744048083e-03  6.7128480055634598e-03  1.0563404387298225e-02  1.4505914432612812e-02  1.8429241882122731e-02  2.2051936626913005e-02  2.4847214499854178e-02  2.6053036837068368e-02  2.4660308089368813e-02  2.2008429160737638e-02  -1.6941293119461562e-02  -1.9055352783154296e-02  -2.0607892213645462e-02  -2.0268355760696730e-02  -1.8679741770112637e-02  -1.6266894125061215e-02  -1.3393631692692389e-02  -1.0299101904154727e-02  -7.1193880361816834e-03  -3.9174930700007398e-03  -7.1248040488917875e-04  2.4967447494583083e-03  5.7111303110626808e-03  8.9107634236776315e-03  1.2029822166296250e-02  1.4925448138968105e-02  1.7345561325625019e-02  1.8912860036039175e-02  1.9175680173645591e-02  1.7571297241203800e-02  1.5384061956486211e-02  -1.2179176027667138e-02  -1.3977259630670298e-02  -1.5548848027051115e-02  -1.5713408670090419e-02  -1.4866472253845664e-02  -1.3261626690003595e-02  -1.1151769964314518e-02  -8.7307108882717852e-03  -6.1325690383838968e-03  -3.4425001376274401e-03  -7.1306088795095989e-04  2.0190426036868921e-03  4.7166993972578815e-03  7.3259110441765488e-03  9.7584390619662523e-03  1.1874876350266222e-02  1.3473722036187777e-02  1.4296505662030308e-02  1.4075932201897305e-02  1.2474749325905787e-02  1.0640775967639874e-02  -8.7259128670709174e-03  -1.0267997869433743e-02  -1.1766905798166354e-02  -1.2192067469697289e-02  -1.1803075230466527e-02  -1.0751526906999638e-02  -9.2109777126207649e-03  -7.3314490584663900e-03  -5.2324362381587931e-03  -3.0043506314382951e-03  -7.1640617909879759e-04  1.5729897067205474e-03  3.8050024939598206e-03  5.9090554054674858e-03  7.7922665662448296e-03  9.3316029907105393e-03  1.0372739726296090e-02  1.0740148341641102e-02  1.0274027229554701e-02  8.7579583156283929e-03  7.1985876155956476e-03  -6.2168899855215391e-03  -7.5530522087766125e-03  -8.9491210781056426e-03  -9.5047576164283224e-03  -9.4001387048297715e-03  -8.7264875293756403e-03  -7.6037719812578550e-03  -6.1468277553468984e-03  -4.4579104908442626e-03  -2.6243284665396311e-03  -7.2132235363534837e-04  1.1823200277291427e-03  3.0174636909432511e-03  4.7078205323609918e-03  6.1643580915946190e-03  7.2826309376892778e-03  7.9454580682846044e-03  8.0324089089307948e-03  7.4467799002669380e-03  6.0407793707026531e-03  4.6968621174504352e-03  -4.4126642745978594e-03  -5.5860726293366723e-03  -6.8780601253110750e-03  -7.4945533072533817e-03  -7.5666757917600119e-03  -7.1497223499020100e-03  -6.3284216370731753e-03  -5.1916174607019557e-03  -3.8260380301533190e-03  -2.3126876131265481e-03  -7.2697701291946505e-04  8.5889597521185250e-04  2.3724874290627627e-03  3.7376691328759076e-03  4.8723281519186040e-03  5.6884450166572523e-03  6.0959163711314275e-03  6.0101252597147235e-03  5.3719261838280829e-03  4.0742803183710982e-03  2.8979509981098580e-03  -3.1505385306833571e-03  -4.2001301290842353e-03  -5.4015805590502727e-03  -6.0428974396976674e-03  -6.2237685370013854e-03  -5.9781221005412661e-03  -5.3680117540474788e-03  -4.4641460768049838e-03  -3.3409755959215625e-03  -2.0728808349074332e-03  -7.3286891381289690e-04  6.0708186987630183e-04  1.8748348280490175e-03  2.9969315335366051e-03  3.8983234209040421e-03  4.5038307383979950e-03  4.7420811254027711e-03  4.5512922267042892e-03  3.8948534486395354e-03  2.6902813520276519e-03  1.6400461400082808e-03  -2.3196968557566912e-03  -3.2819859574795135e-03  -4.4145149394986165e-03  -5.0637800918800361e-03  -5.3092707553306128e-03  -5.1725932135227052e-03  -4.7018310913331200e-03  -3.9558970268453826e-03  -3.0005725434416736e-03  -1.9048166268035088e-03  -7.3874890244196535e-04  4.2719896670293764e-04  1.5225038257221948e-03  2.4767892103263762e-03  3.2207268255311757e-03  3.6881508391379959e-03  3.8198158008952350e-03  3.5678836548540993e-03  2.9090311789081585e-03  1.7748920457823644e-03  8.1280667625101017e-04  -1.8478460904873847e-03  -2.7580564193019621e-03  -3.8477922058636868e-03  -4.4990065653363670e-03  -4.7790034204482339e-03  -4.7031273217406338e-03  -4.3118614704665652e-03  -3.6575122632682582e-03  -2.8007593417781929e-03  -1.8071066595710609e-03  -7.4453786880784379e-04  3.1794897503436680e-04  1.3113144762505024e-03  2.1674599316827232e-03  2.8207187878647815e-03  3.2102473151090737e-03  3.2836013982080279e-03  3.0004361203312562e-03  2.3445657031413718e-03  1.2541549567916953e-03  3.4421874233278566e-04  -1.6939754049426080e-03  -2.5867561338766042e-03  -3.6621827398203481e-03  -4.3149892612679335e-03  -4.6067647595481199e-03  -4.5511900631609583e-03  -4.1862926158125358e-03  -3.5622902284038879e-03  -2.7382259431212347e-03  -1.7784680667329701e-03  -7.5025801938118509e-04  2.7795202797335669e-04  1.2377099043697482e-03  2.0617741896638551e-03  2.6857765770849037e-03  3.0506740244443547e-03  3.1062487208388641e-03  2.8144732225620708e-03  2.1616667011143836e-03  1.0862400951698891e-03  1.9345936623657909e-04  -1.8447347810406868e-03  -2.7546709954999978e-03  -3.8450817418486808e-03  -4.5009521590386025e-03  -4.7841174369186367e-03  -4.7107633538274333e-03  -4.3212348265943556e-03  -3.6679759704251378e-03  -2.8118305150047428e-03  -1.8184650137967682e-03  -7.5597816995747759e-04  3.0659062080859288e-04  1.3002433030238798e-03  2.1569962245254772e-03  2.8113454317365153e-03  3.2026112830218661e-03  3.2784873817372868e-03  2.9984905266287115e-03  2.3472761671561476e-03  1.2575403805935106e-03  3.4733005177940983e-04  -2.3133227149649696e-03  -3.2754080844959554e-03  -4.4095472176201257e-03  -5.0683996935657356e-03  -5.3203318396106199e-03  -5.1886668778620536e-03  -4.7212428642673786e-03  -3.9773052490764422e-03  -3.0230198644847512e-03  -1.9277150054741704e-03  -7.6176713633250670e-04  4.0430058803201042e-04  1.5000565046786973e-03  2.4553809880947740e-03  3.2013150525963380e-03  3.6720771747981041e-03  3.8087547166144819e-03  3.5632640531675893e-03  2.9139989007865631e-03  1.7814699187661035e-03  8.1918081704294337e-04  -3.1405621787314849e-03  -4.1907973907492702e-03  -5.3953694873584658e-03  -6.0518082654227824e-03  -6.2425971641260755e-03  -6.0043467771315560e-03  -5.3988394596516517e-03  -4.4974475723000120e-03  -3.3753508668263850e-03  -2.1075979086634649e-03  -7.6764712497782658e-04  5.7236479611995231e-04  1.8404595571435191e-03  2.9636300380406775e-03  3.8674957152987463e-03  4.4776060618065524e-03  4.7232524982770583e-03  4.5423814009781221e-03  3.9010645203307890e-03  2.6996140903621261e-03  1.6500224919598478e-03  -4.3984670368455592e-03  -5.5747963571036426e-03  -6.8724422225562749e-03  -7.5106412984431142e-03  -7.5964324098661863e-03  -7.1889610554050493e-03  -6.3728441906837283e-03  -5.2381851716597023e-03  -3.8730034678629366e-03  -2.3594120140233692e-03  -7.7353902589615909e-04  8.1217157431463403e-04  2.3255219913522742e-03  3.6911014219167312e-03  4.8279055983063771e-03  5.6492063111523690e-03  6.0661597530237898e-03  5.9940372685236857e-03  5.3775440865817615e-03  4.0855565906034964e-03  2.9121482358618264e-03  -6.1973781562002185e-03  -7.5412954094468835e-03  -8.9472959390054403e-03  -9.5329249476705773e-03  -9.4459741070338291e-03  -8.7831469764558089e-03  -7.6648741303835689e-03  -6.2083365711731791e-03  -4.5179797297752030e-03  -2.6828360665746322e-03  -7.7919368521501913e-04  1.1238124276935762e-03  2.9573944520110661e-03  4.6463117165329738e-03  6.1032559424667662e-03  7.2259714906066225e-03  7.8996226660781078e-03  8.0042415776864391e-03  7.4486050393658496e-03  6.0525361700314957e-03  4.7163739467713092e-03  -8.6991036543588220e-03  -1.0258474354383856e-02  -1.1774543268303002e-02  -1.2240664380393163e-02  -1.1873255765062965e-02  -1.0832119029501503e-02  -9.2927826050650877e-03  -7.4095714443170764e-03  -5.3055185328336283e-03  -3.0735057456103814e-03  -7.8410985979688252e-04  1.5038345925477141e-03  3.7319201992835039e-03  5.8309330196149329e-03  7.7104616737980062e-03  9.2510108682057161e-03  1.0302559191696547e-02  1.0691551430942458e-02  1.0266389759416005e-02  8.7674818306771544e-03  7.2253968283061010e-03  -1.2141292006414438e-02  -1.3975265364669044e-02  -1.5576448240652952e-02  -1.5797021700793938e-02  -1.4974238074974704e-02  -1.3375392389086822e-02  -1.1258955100825170e-02  -8.8264270830717313e-03  -6.2172154361825327e-03  -3.5195586426307922e-03  -7.8745515099981937e-04  1.9419840986828211e-03  4.6320529994575456e-03  7.2301948493744220e-03  9.6512539254528101e-03  1.1761110651179312e-02  1.3365956215054877e-02  1.4212892631323018e-02  1.4048331988292775e-02  1.2476743591905532e-02  1.0678659988891923e-02  -1.6884577995263609e-02  -1.9071813279965832e-02  -2.0676196212401753e-02  -2.0413376074812157e-02  -1.8846077364432570e-02  -1.6425964177821592e-02  -1.3530338205198991e-02  -1.0411279462624873e-02  -7.2116463500448806e-03  -3.9972607884624940e-03  -7.8803563412277607e-04  2.4169770309958199e-03  5.6188719971979328e-03  8.7985858652051083e-03  1.1893115653786264e-02  1.4766378086203133e-02  1.7179225731300346e-02  1.8767839721918731e-02  1.9107376174884668e-02  1.7554836744389270e-02  1.5440777080683169e-02  -2.3508945199503150e-02  -2.6160824128116981e-02  -2.7553552875816179e-02  -2.6347730538630945e-02  -2.3552452665739396e-02  -1.9929757921010160e-02  -1.6006430471560563e-02  -1.2063920426298190e-02  -8.2133640446026071e-03  -4.4664594134683931e-03  -7.8438832870264162e-04  2.8918877192686664e-03  6.6209205661632280e-03  1.0440527373644218e-02  1.4339283269889463e-02  1.8211885468947361e-02  2.1795381428121957e-02  2.4591566465931382e-02  2.5899228512000778e-02  2.4601342270282326e-02  2.2102716858049546e-02  -3.3022697082377546e-02  -3.6306963532401100e-02  -3.6930749361583283e-02  -3.3863350648269487e-02  -2.9037162269878632e-02  -2.3691525679620802e-02  -1.8473395294378272e-02  -1.3608657634676518e-02  -9.1035408158352503e-03  -4.8677766136636458e-03  -7.7514782020001978e-04  3.3106849022096004e-03  7.5245915894589146e-03  1.1988497564493676e-02  1.6786747921955846e-02  2.1910892209702437e-02  2.7149569333919574e-02  3.1905625484563396e-02  3.5083470042072976e-02  3.4643093558569933e-02  3.1716048520230571e-02  -4.7377466906771942e-02  -5.1552460582060838e-02  -4.9855372901546652e-02  -4.3045660685518773e-02  -3.4927905734480978e-02  -2.7255881007186660e-02  -2.0552433409520600e-02  -1.4779294388565973e-02  -9.7192319227207263e-03  -5.1246376208100150e-03  -7.5940502834871237e-04  3.5995156553405997e-03  8.1727865107704811e-03  1.3188563379275294e-02  1.8878930137114912e-02  2.5436739477949867e-02  3.2878423832488450e-02  4.0737109747296149e-02  4.7542244016855889e-02  4.9561291600738355e-02  4.6424245792346143e-02  -7.1208408853476721e-02  -7.6202921941832855e-02  -6.7448411616613232e-02  -5.3189595907354462e-02  -4.0157928024229156e-02  -2.9766751125544506e-02  -2.1676698317893907e-02  -1.5234269090772846e-02  -9.8726298698142683e-03  -5.1553731521723056e-03  -7.3911410872834829e-04  3.6732702534317888e-03  8.3763369607182253e-03  1.3703930783378381e-02  2.0069154980291180e-02  2.7988039943013181e-02  3.8028809084969348e-02  5.0476432527828519e-02  6.4078887221879405e-02  7.2888200874457507e-02  7.1516795369192712e-02  -1.2114471428985166e-01  -1.1890861938984115e-01  -8.8731900294845206e-02  -6.1304626522889066e-02  -4.2522426345572899e-02  -2.9963538758427541e-02  -2.1183010876431912e-02  -1.4635618349554288e-02  -9.3979243041086014e-03  -4.8903254836685861e-03  -7.0959434599555374e-04  3.4727446812585251e-03  7.9842029451582495e-03  1.3223729110286860e-02  1.9756764885655045e-02  2.8458386627561200e-02  4.0708344214047593e-02  5.8419086891276235e-02  8.2819538373443816e-02  1.0993206775762170e-01  1.2340924518710653e-01  -2.8001744176879612e-01  -1.8230077174105888e-01  -1.0080253149999820e-01  -5.9461700110705042e-02  -3.8468842854681780e-02  -2.6341345385217367e-02  -1.8423359003570474e-02  -1.2701137973121454e-02  -8.1816000325821790e-03  -4.3064463014020693e-03  -7.1311450836213618e-04  2.8835812955491204e-03  6.7691060662141709e-03  1.1306601927897158e-02  1.7053646155360726e-02  2.4991361722927409e-02  3.7040314384386284e-02  5.7280739252592791e-02  9.5409125063146583e-02  1.6832807044846967e-01  2.6201155049286257e-01  -5.4990271092627074e-01  -2.0466463339791868e-01  -8.2464393137350961e-02  -4.6969738155398996e-02  -3.1003646444756828e-02  -2.1663455895954836e-02  -1.5406825019902291e-02  -1.0775438537123561e-02  -7.0379695609814018e-03  -3.7799548028041225e-03  -7.3136270315992053e-04  2.3210593587995169e-03  5.5921702619481286e-03  9.3581193793418425e-03  1.4050282850015649e-02  2.0454938649096591e-02  3.0238329673963345e-02  4.7601961206351268e-02  8.5001130966348273e-02  1.8048263370912257e-01  5.4691304380466943e-01  </DataArray> 
</PointData> 
</Piece>
</UnstructuredGrid>
</VTKFile>