<?xml version="1.0"?>
<VTKFile type="UnstructuredGrid"  version="0.1"  >
<UnstructuredGrid>
<Piece  NumberOfPoints="651" NumberOfCells="1200">
<Points>
<DataArray  type="Float64"  NumberOfComponents="3"  format="ascii">0 0 0  50000 0 0  100000 0 0  150000 0 0  200000 0 0  250000 0 0  300000 0 0  350000 0 0  400000 0 0  450000 0 0  500000 0 0  550000 0 0  600000 0 0  650000 0 0  700000 0 0  750000 0 0  800000 0 0  850000 0 0  900000 0 0  950000 0 0  1000000 0 0  0 50000 0  50000 50000 0  100000 50000 0  150000 50000 0  200000 50000 0  250000 50000 0  300000 50000 0  350000 50000 0  400000 50000 0  450000 50000 0  500000 50000 0  550000 50000 0  600000 50000 0  650000 50000 0  700000 50000 0  750000 50000 0  800000 50000 0  850000 50000 0  900000 50000 0  950000 50000 0  1000000 50000 0  0 100000 0  50000 100000 0  100000 100000 0  150000 100000 0  200000 100000 0  250000 100000 0  300000 100000 0  350000 100000 0  400000 100000 0  450000 100000 0  500000 100000 0  550000 100000 0  600000 100000 0  650000 100000 0  700000 100000 0  750000 100000 0  800000 100000 0  850000 100000 0  900000 100000 0  950000 100000 0  1000000 100000 0  0 150000 0  50000 150000 0  100000 150000 0  150000 150000 0  200000 150000 0  250000 150000 0  300000 150000 0  350000 150000 0  400000 150000 0  450000 150000 0  500000 150000 0  550000 150000 0  600000 150000 0  650000 150000 0  700000 150000 0  750000 150000 0  800000 150000 0  850000 150000 0  900000 150000 0  950000 150000 0  1000000 150000 0  0 200000 0  50000 200000 0  100000 200000 0  150000 200000 0  200000 200000 0  250000 200000 0  300000 200000 0  350000 200000 0  400000 200000 0  450000 200000 0  500000 200000 0  550000 200000 0  600000 200000 0  650000 200000 0  700000 200000 0  750000 200000 0  800000 200000 0  850000 200000 0  900000 200000 0  950000 200000 0  1000000 200000 0  0 250000 0  50000 250000 0  100000 250000 0  150000 250000 0  200000 250000 0  250000 250000 0  300000 250000 0  350000 250000 0  400000 250000 0  450000 250000 0  500000 250000 0  550000 250000 0  600000 250000 0  650000 250000 0  700000 250000 0  750000 250000 0  800000 250000 0  850000 250000 0  900000 250000 0  950000 250000 0  1000000 250000 0  0 300000 0  50000 300000 0  100000 300000 0  150000 300000 0  200000 300000 0  250000 300000 0  300000 300000 0  350000 300000 0  400000 300000 0  450000 300000 0  500000 300000 0  550000 300000 0  600000 300000 0  650000 300000 0  700000 300000 0  750000 300000 0  800000 300000 0  850000 300000 0  900000 300000 0  950000 300000 0  1000000 300000 0  0 350000 0  50000 350000 0  100000 350000 0  150000 350000 0  200000 350000 0  250000 350000 0  300000 350000 0  350000 350000 0  400000 350000 0  450000 350000 0  500000 350000 0  550000 350000 0  600000 350000 0  650000 350000 0  700000 350000 0  750000 350000 0  800000 350000 0  850000 350000 0  900000 350000 0  950000 350000 0  1000000 350000 0  0 400000 0  50000 400000 0  100000 400000 0  150000 400000 0  200000 400000 0  250000 400000 0  300000 400000 0  350000 400000 0  400000 400000 0  450000 400000 0  500000 400000 0  550000 400000 0  600000 400000 0  650000 400000 0  700000 400000 0  750000 400000 0  800000 400000 0  850000 400000 0  900000 400000 0  950000 400000 0  1000000 400000 0  0 450000 0  50000 450000 0  100000 450000 0  150000 450000 0  200000 450000 0  250000 450000 0  300000 450000 0  350000 450000 0  400000 450000 0  450000 450000 0  500000 450000 0  550000 450000 0  600000 450000 0  650000 450000 0  700000 450000 0  750000 450000 0  800000 450000 0  850000 450000 0  900000 450000 0  950000 450000 0  1000000 450000 0  0 500000 0  50000 500000 0  100000 500000 0  150000 500000 0  200000 500000 0  250000 500000 0  300000 500000 0  350000 500000 0  400000 500000 0  450000 500000 0  500000 500000 0  550000 500000 0  600000 500000 0  650000 500000 0  700000 500000 0  750000 500000 0  800000 500000 0  850000 500000 0  900000 500000 0  950000 500000 0  1000000 500000 0  0 550000 0  50000 550000 0  100000 550000 0  150000 550000 0  200000 550000 0  250000 550000 0  300000 550000 0  350000 550000 0  400000 550000 0  450000 550000 0  500000 550000 0  550000 550000 0  600000 550000 0  650000 550000 0  700000 550000 0  750000 550000 0  800000 550000 0  850000 550000 0  900000 550000 0  950000 550000 0  1000000 550000 0  0 600000 0  50000 600000 0  100000 600000 0  150000 600000 0  200000 600000 0  250000 600000 0  300000 600000 0  350000 600000 0  400000 600000 0  450000 600000 0  500000 600000 0  550000 600000 0  600000 600000 0  650000 600000 0  700000 600000 0  750000 600000 0  800000 600000 0  850000 600000 0  900000 600000 0  950000 600000 0  1000000 600000 0  0 650000 0  50000 650000 0  100000 650000 0  150000 650000 0  200000 650000 0  250000 650000 0  300000 650000 0  350000 650000 0  400000 650000 0  450000 650000 0  500000 650000 0  550000 650000 0  600000 650000 0  650000 650000 0  700000 650000 0  750000 650000 0  800000 650000 0  850000 650000 0  900000 650000 0  950000 650000 0  1000000 650000 0  0 700000 0  50000 700000 0  100000 700000 0  150000 700000 0  200000 700000 0  250000 700000 0  300000 700000 0  350000 700000 0  400000 700000 0  450000 700000 0  500000 700000 0  550000 700000 0  600000 700000 0  650000 700000 0  700000 700000 0  750000 700000 0  800000 700000 0  850000 700000 0  900000 700000 0  950000 700000 0  1000000 700000 0  0 750000 0  50000 750000 0  100000 750000 0  150000 750000 0  200000 750000 0  250000 750000 0  300000 750000 0  350000 750000 0  400000 750000 0  450000 750000 0  500000 750000 0  550000 750000 0  600000 750000 0  650000 750000 0  700000 750000 0  750000 750000 0  800000 750000 0  850000 750000 0  900000 750000 0  950000 750000 0  1000000 750000 0  0 800000 0  50000 800000 0  100000 800000 0  150000 800000 0  200000 800000 0  250000 800000 0  300000 800000 0  350000 800000 0  400000 800000 0  450000 800000 0  500000 800000 0  550000 800000 0  600000 800000 0  650000 800000 0  700000 800000 0  750000 800000 0  800000 800000 0  850000 800000 0  900000 800000 0  950000 800000 0  1000000 800000 0  0 850000 0  50000 850000 0  100000 850000 0  150000 850000 0  200000 850000 0  250000 850000 0  300000 850000 0  350000 850000 0  400000 850000 0  450000 850000 0  500000 850000 0  550000 850000 0  600000 850000 0  650000 850000 0  700000 850000 0  750000 850000 0  800000 850000 0  850000 850000 0  900000 850000 0  950000 850000 0  1000000 850000 0  0 900000 0  50000 900000 0  100000 900000 0  150000 900000 0  200000 900000 0  250000 900000 0  300000 900000 0  350000 900000 0  400000 900000 0  450000 900000 0  500000 900000 0  550000 900000 0  600000 900000 0  650000 900000 0  700000 900000 0  750000 900000 0  800000 900000 0  850000 900000 0  900000 900000 0  950000 900000 0  1000000 900000 0  0 950000 0  50000 950000 0  100000 950000 0  150000 950000 0  200000 950000 0  250000 950000 0  300000 950000 0  350000 950000 0  400000 950000 0  450000 950000 0  500000 950000 0  550000 950000 0  600000 950000 0  650000 950000 0  700000 950000 0  750000 950000 0  800000 950000 0  850000 950000 0  900000 950000 0  950000 950000 0  1000000 950000 0  0 1000000 0  50000 1000000 0  100000 1000000 0  150000 1000000 0  200000 1000000 0  250000 1000000 0  300000 1000000 0  350000 1000000 0  400000 1000000 0  450000 1000000 0  500000 1000000 0  550000 1000000 0  600000 1000000 0  650000 1000000 0  700000 1000000 0  750000 1000000 0  800000 1000000 0  850000 1000000 0  900000 1000000 0  950000 1000000 0  1000000 1000000 0  0 1050000 0  50000 1050000 0  100000 1050000 0  150000 1050000 0  200000 1050000 0  250000 1050000 0  300000 1050000 0  350000 1050000 0  400000 1050000 0  450000 1050000 0  500000 1050000 0  550000 1050000 0  600000 1050000 0  650000 1050000 0  700000 1050000 0  750000 1050000 0  800000 1050000 0  850000 1050000 0  900000 1050000 0  950000 1050000 0  1000000 1050000 0  0 1100000 0  50000 1100000 0  100000 1100000 0  150000 1100000 0  200000 1100000 0  250000 1100000 0  300000 1100000 0  350000 1100000 0  400000 1100000 0  450000 1100000 0  500000 1100000 0  550000 1100000 0  600000 1100000 0  650000 1100000 0  700000 1100000 0  750000 1100000 0  800000 1100000 0  850000 1100000 0  900000 1100000 0  950000 1100000 0  1000000 1100000 0  0 1150000 0  50000 1150000 0  100000 1150000 0  150000 1150000 0  200000 1150000 0  250000 1150000 0  300000 1150000 0  350000 1150000 0  400000 1150000 0  450000 1150000 0  500000 1150000 0  550000 1150000 0  600000 1150000 0  650000 1150000 0  700000 1150000 0  750000 1150000 0  800000 1150000 0  850000 1150000 0  900000 1150000 0  950000 1150000 0  1000000 1150000 0  0 1200000 0  50000 1200000 0  100000 1200000 0  150000 1200000 0  200000 1200000 0  250000 1200000 0  300000 1200000 0  350000 1200000 0  400000 1200000 0  450000 1200000 0  500000 1200000 0  550000 1200000 0  600000 1200000 0  650000 1200000 0  700000 1200000 0  750000 1200000 0  800000 1200000 0  850000 1200000 0  900000 1200000 0  950000 1200000 0  1000000 1200000 0  0 1250000 0  50000 1250000 0  100000 1250000 0  150000 1250000 0  200000 1250000 0  250000 1250000 0  300000 1250000 0  350000 1250000 0  400000 1250000 0  450000 1250000 0  500000 1250000 0  550000 1250000 0  600000 1250000 0  650000 1250000 0  700000 1250000 0  750000 1250000 0  800000 1250000 0  850000 1250000 0  900000 1250000 0  950000 1250000 0  1000000 1250000 0  0 1300000 0  50000 1300000 0  100000 1300000 0  150000 1300000 0  200000 1300000 0  250000 1300000 0  300000 1300000 0  350000 1300000 0  400000 1300000 0  450000 1300000 0  500000 1300000 0  550000 1300000 0  600000 1300000 0  650000 1300000 0  700000 1300000 0  750000 1300000 0  800000 1300000 0  850000 1300000 0  900000 1300000 0  950000 1300000 0  1000000 1300000 0  0 1350000 0  50000 1350000 0  100000 1350000 0  150000 1350000 0  200000 1350000 0  250000 1350000 0  300000 1350000 0  350000 1350000 0  400000 1350000 0  450000 1350000 0  500000 1350000 0  550000 1350000 0  600000 1350000 0  650000 1350000 0  700000 135
[...]
<PointData  Scalars="f_10483"> 
<DataArray  type="Float64"  Name="f_10483"  format="ascii">-2.4503723020986656e-01  -8.6448648626273827e-02  -4.2232069173187177e-02  -2.4519492862313072e-02  -1.6057270286324653e-02  -1.1072890178068905e-02  -7.6072329345148893e-03  -4.8933014185443676e-03  -2.5778196895350244e-03  -4.7210321699741936e-04  1.5417563534204730e-03  3.5540896696555045e-03  5.6544967471190638e-03  7.9580344184624272e-03  1.0645134082004997e-02  1.4041622902682734e-02  1.8815258671381972e-02  2.6648329917568166e-02  4.3652462805518898e-02  9.9190844718635734e-02  2.4561009633976807e-01  -1.2181957102328203e-01  -7.9999055691210380e-02  -4.6028842455775876e-02  -2.8343650274594932e-02  -1.8738646313318213e-02  -1.2820649594461055e-02  -8.7309097146909733e-03  -5.6018193176010254e-03  -2.9957791369068232e-03  -6.6845090436524676e-04  1.5363460211612933e-03  3.7397997056264503e-03  6.0630031457043669e-03  8.6620053172070718e-03  1.1781935339860647e-02  1.5867795358651817e-02  2.1836902033829333e-02  3.1820046788946149e-02  5.0979168300062203e-02  8.7968947790404262e-02  1.3149884966820821e-01  -5.8876826332611744e-02  -5.2377004160041707e-02  -3.9677126149584130e-02  -2.8359345453731324e-02  -1.9989989981255781e-02  -1.4050115236941364e-02  -9.6801701762476277e-03  -6.2620901003344010e-03  -3.4064448263374666e-03  -8.6472974941903969e-04  1.5358806614181090e-03  3.9358115911514316e-03  6.4759255532158798e-03  9.3310238619922024e-03  1.2756270680515490e-02  1.7163913000114932e-02  2.3249267427593045e-02  3.2110749404528953e-02  4.4812893044974600e-02  5.8724133954382911e-02  6.0272260498247181e-02  -3.4332412776527252e-02  -3.4795806662607752e-02  -3.0699472227811560e-02  -2.4357227620852292e-02  -1.8436389822755417e-02  -1.3555052747973346e-02  -9.5957953902112130e-03  -6.3097162909162337e-03  -3.4707329557815136e-03  -8.9938517573423505e-04  1.5479029782915360e-03  3.9969327552837356e-03  6.5746739517533945e-03  9.4290559238181734e-03  1.2750161559813180e-02  1.6786964003863026e-02  2.1826232230273374e-02  2.8008625043114306e-02  3.4672867874430857e-02  3.8763440939605327e-02  3.6555068201525959e-02  -2.2361568611785110e-02  -2.3753790508204170e-02  -2.2813122395977554e-02  -1.9589199702699199e-02  -1.5801204727728824e-02  -1.2149464150384433e-02  -8.8569107763479104e-03  -5.9261078101966961e-03  -3.2782213339107935e-03  -8.1594743851337321e-04  1.5565728490769932e-03  3.9319317462727429e-03  6.4038060300284812e-03  9.0716651470002987e-03  1.2039850176261786e-02  1.5398104850806622e-02  1.9153160380990287e-02  2.3054287162945504e-02  2.6283401230860853e-02  2.7090550064748455e-02  2.5172929848006960e-02  -1.5379455146472707e-02  -1.6688949846853100e-02  -1.6863382464472942e-02  -1.5305518796618813e-02  -1.2960198745862225e-02  -1.0344888447824810e-02  -7.7413322496071319e-03  -5.2554554207168312e-03  -2.8994630803082185e-03  -6.4266782371589322e-04  1.5630358807245746e-03  3.7717715881299685e-03  6.0383213990596015e-03  8.4127062835522484e-03  1.0928232517621924e-02  1.3573625652792331e-02  1.6236470849002409e-02  1.8611145200140546e-02  2.0116189410557997e-02  1.9862444416219236e-02  1.8373099097453518e-02  -1.0853176278668318e-02  -1.1947997549005150e-02  -1.2486519924745173e-02  -1.1779921808471622e-02  -1.0341088631926303e-02  -8.5010042664366344e-03  -6.4942855471322395e-03  -4.4485564169211489e-03  -2.4189099400077725e-03  -4.1737275117822688e-04  1.5666311129744451e-03  3.5531969935687722e-03  5.5626314016384145e-03  7.6059314594380473e-03  9.6708766101026716e-03  1.1699607864181864e-02  1.3556147200041379e-02  1.4992306515819780e-02  1.5649466417524582e-02  1.5070309022158137e-02  1.3901371516763718e-02  -7.7402811841960784e-03  -8.6362889734150228e-03  -9.2599791765172711e-03  -8.9852980018877808e-03  -8.1009432495683653e-03  -6.8072199571598165e-03  -5.2749197929652233e-03  -3.6188182285319488e-03  -1.9066872574691903e-03  -1.7301477120188464e-04  1.5677502789247151e-03  3.3103511432046083e-03  5.0494556276987675e-03  6.7702025277048879e-03  8.4367784147837879e-03  9.9782482463286193e-03  1.1273938696838390e-02  1.2146611614385634e-02  1.2383921604883392e-02  1.1738830205642987e-02  1.0809133906607571e-02  -5.5264798717707926e-03  -6.2591489244429536e-03  -6.8642254539793227e-03  -6.8077274859619993e-03  -6.2608910589044119e-03  -5.3428373769888928e-03  -4.1716770503799827e-03  -2.8398132080870117e-03  -1.4128401416671694e-03  6.5707146697264863e-05  1.5670253060089331e-03  3.0694771472472245e-03  4.5512352368362397e-03  5.9828224888865654e-03  7.3192752731485351e-03  8.4925496963176670e-03  9.4067400745303266e-03  9.9410364458133952e-03  9.9703778374036663e-03  9.3536911687161339e-03  8.6055074149803523e-03  -3.9235244204837427e-03  -4.5262887898101069e-03  -5.0774341295880777e-03  -5.1292689828740089e-03  -4.7889013942263034e-03  -4.1271789070306663e-03  -3.2246085577184646e-03  -2.1523366998242944e-03  -9.6820526671268859e-04  2.8279686185511471e-04  1.5651184328960039e-03  2.8480298828272208e-03  4.1006040180753154e-03  5.2866600824613462e-03  6.3600732052038660e-03  7.2613755055716562e-03  7.9174865024410988e-03  8.2469237630785393e-03  8.1754605229476928e-03  7.6179809687892033e-03  7.0084261635139306e-03  -2.7559304644232674e-03  -3.2573014766695803e-03  -3.7475324353019881e-03  -3.8509075259625632e-03  -3.6377992251862916e-03  -3.1507123499229270e-03  -2.4449005813624602e-03  -1.5745809186173451e-03  -5.8890225677513206e-04  4.6933692495695195e-04  1.5625653575703808e-03  2.6560241124679008e-03  3.7147951737362657e-03  4.7008279884285381e-03  5.5705387834336269e-03  6.2737846123150963e-03  6.7553220174357415e-03  6.9596534822038720e-03  6.8421444211322893e-03  6.3484999708804659e-03  5.8445717254600443e-03  -1.9112206765227967e-03  -2.3352518365439240e-03  -2.7697256079913511e-03  -2.8956007218154394e-03  -2.7613083495521616e-03  -2.3927512661266089e-03  -1.8287406398514985e-03  -1.1110939046333806e-03  -2.8129056038783418e-04  6.2133999380792262e-04  1.5597339538884634e-03  2.4981553302089602e-03  3.4007564363578375e-03  4.2301486577646522e-03  4.9465041735835113e-03  5.5077682639812402e-03  5.8715955905614056e-03  5.9992129241261821e-03  5.8633052436196011e-03  5.4270401208173762e-03  5.0024258763677679e-03  -1.3153777232159673e-03  -1.6826138628524966e-03  -2.0716589670764793e-03  -2.2058407925670109e-03  -2.1201188722069554e-03  -1.8307383887191573e-03  -1.3660727998725457e-03  -7.5936747691900033e-04  -4.6116810629848759e-05  7.3779548961933397e-04  1.5568401106784637e-03  2.3758231425810238e-03  3.1594795795138390e-03  3.8720783111841598e-03  4.4774402028197489e-03  4.9397541789909568e-03  5.2255134233875284e-03  5.3064635906310718e-03  5.1654245279940409e-03  4.7754781238287507e-03  4.4084580775465097e-03  -9.1970075299600070e-04  -1.2480879744148124e-03  -1.6041025434951625e-03  -1.7404345407677903e-03  -1.6837447380470831e-03  -1.4448398805789507e-03  -1.0457580198760291e-03  -5.1421870675260857e-04  1.1846972543954270e-04  8.1917509902223529e-04  1.5539849261654579e-03  2.2887184327751598e-03  2.9891542385716468e-03  3.6212665026982395e-03  4.1517626145093451e-03  4.5491721217576385e-03  4.7856539974017254e-03  4.8392807825431315e-03  4.6986701914546684e-03  4.3422331917263033e-03  4.0142434091745560e-03  -6.9340526892999255e-04  -9.9910746743596293e-04  -1.3352072023951667e-03  -1.4718308432496992e-03  -1.4307635870321857e-03  -1.2200937467994209e-03  -8.5845661598225669e-04  -3.7049740495076255e-04  2.1492437985118053e-04  8.6640924195835901e-04  1.5511926953687245e-03  2.2359282318947728e-03  2.8872511594405974e-03  3.4723467439724842e-03  3.9597458754659981e-03  4.3205215248461508e-03  4.5299816109344851e-03  4.5695535663605007e-03  4.4308738906906541e-03  4.0946107314311243e-03  3.7891732875920238e-03  -6.1943348354273370e-04  -9.1758608845476149e-04  -1.2470828992588146e-03  -1.3842601916671409e-03  -1.3485666356873852e-03  -1.1473485995896718e-03  -7.9814962354763199e-04  -3.2464142471703349e-04  2.4510286370273750e-04  8.8025359130258925e-04  1.5484423183791994e-03  2.2166310454564812e-03  2.8517817730584409e-03  3.4215260614811845e-03  3.8950342603150346e-03  4.2442332363600887e-03  4.4454512724598598e-03  4.4811448284406263e-03  4.3439675360323051e-03  4.0144707252279073e-03  3.7163181203158885e-03  -6.9228865081921948e-04  -9.9772609465825649e-04  -1.3339892539173774e-03  -1.4726689295872944e-03  -1.4330969741622381e-03  -1.2236368880761119e-03  -8.6286123869898368e-04  -3.7546210720887233e-04  2.0963347731989417e-04  8.6095640486360625e-04  1.5456919413889055e-03  2.2304753947999987e-03  2.8819602569092810e-03  3.4673820417141957e-03  3.9553412527490684e-03  4.3169783835692813e-03  4.5276482238042828e-03  4.5687154800227612e-03  4.4320918391683069e-03  4.0959921042087229e-03  3.7902899057027134e-03  -9.1735877240308795e-04  -1.2453485549545581e-03  -1.6017855546823579e-03  -1.7423961457707384e-03  -1.6887693606304590e-03  -1.4522874849888319e-03  -1.0548779777438573e-03  -5.2438186593652548e-04  1.0773039818674833e-04  8.0816620398095412e-04  1.5428997105897896e-03  2.2777095377337618e-03  2.9784149113186754e-03  3.6111033435140918e-03  4.1426426566412494e-03  4.5417245173475116e-03  4.7806293748180401e-03  4.8373191775398089e-03  4.7009871802673629e-03  4.3449726111865362e-03  4.0165853897674558e-03  -1.3115734407770235e-03  -1.6785934870586904e-03  -2.0685398912230991e-03  -2.2095789538600207e-03  -2.1286287866178972e-03  -1.8428695422242878e-03  -1.3805555660570280e-03  -7.7519367442583341e-04  -6.2594942759328982e-05  7.2106149417081619e-04  1.5400445260724113e-03  2.3590891471323874e-03  3.1430014473840919e-03  3.8562521136769421e-03  4.4629574366347961e-03  4.9276230254853186e-03  5.2170035089761108e-03  5.3027254293375832e-03  5.1685436038470568e-03  4.7794984996222169e-03  4.4122623599851677e-03  -1.9055412396011319e-03  -2.3301554840497595e-03  -2.7664206068506014e-03  -2.9023282873572292e-03  -2.7747109537943500e-03  -2.4108836272180210e-03  -1.8496195368252839e-03  -1.1332640210118085e-03  -3.0387179960962872e-04  5.9872930653605565e-04  1.5371506828553809e-03  2.4755446429369312e-03  3.3781751971356817e-03  4.2079785413856379e-03  4.9256252766089930e-03  5.4896359028890462e-03  5.8581929863185563e-03  5.9924853585837630e-03  5.8666102447597511e-03  5.4321364733110984e-03  5.0081053132890662e-03  -2.7476870886967235e-03  -3.2516153341154799e-03  -3.7452597843654527e-03  -3.8627688454373919e-03  -3.6584373806721445e-03  -3.1768999755567660e-03  -2.4736541466820095e-03  -1.6039433516838325e-03  -6.1791053699734877e-04  4.4086052426706916e-04  1.5343192791631415e-03  2.6275477117777761e-03  3.6857868935135166e-03  4.6714655553613408e-03  5.5417852181131782e-03  6.2475969866802265e-03  6.7346838619488500e-03  6.9477921627280892e-03  6.8444170720680887e-03  6.3541861134339805e-03  5.8528151011861184e-03  -3.9115415267539410e-03  -4.5210963320267998e-03  -5.0785758861829119e-03  -5.1500391263148790e-03  -4.8206018656821500e-03  -4.1644908688203792e-03  -3.2631885684617241e-03  -2.1897754457282010e-03  -1.0037193813494855e-03  2.4885475389382900e-04  1.5317662038232599e-03  2.8140877748656147e-03  4.0650899034379104e-03  5.2492213365566542e-03  6.3214931944595536e-03  7.2240635437806604e-03  7.8857860309838740e-03  8.2261536196363942e-03  8.1743187663518308e-03  7.6231734265717645e-03  7.0204090572428763e-03  -5.5086227782233065e-03  -6.2568065319553801e-03  -6.8734932006402731e-03  -6.8441518090526735e-03  -6.3098554377773930e-03  -5.3956650595758781e-03  -4.2223906364192085e-03  -2.8859378521686892e-03  -1.4543506001274888e-03  2.7407489455645241e-05  1.5298593306918241e-03  3.0311774900053062e-03  4.5097247783752433e-03  5.9366978448039355e-03  7.2685616871080664e-03  8.4397220137290615e-03  9.3577756956556013e-03  9.9046121227210245e-03  9.9611100907413229e-03  9.3560335612027212e-03  8.6233645085271957e-03  -7.7122492698511683e-03  -8.6419455688813845e-03  -9.2870369681196524e-03  -9.0497269776278113e-03  -8.1770540600928174e-03  -6.8813636095989518e-03  -5.3398937780706314e-03  -3.6733178910061432e-03  -1.9525709910109502e-03  -2.1346650652355101e-04  1.5291343577539668e-03  3.2698994078826315e-03  5.0035718941563766e-03  6.7157028652296905e-03  8.3718044296769278e-03  9.9041045938875090e-03  1.1197827886311788e-02  1.2082182638643399e-02  1.2356863813278987e-02  1.1733173610175139e-02  1.0837165820951697e-02  -1.0804486880003562e-02  -1.1973424385391607e-02  -1.2552581780757813e-02  -1.1895421879064040e-02  -1.0459262563304371e-02  -8.6027232274668158e-03  -6.5739919734083430e-03  -4.5090468227607997e-03  -2.4657467649734045e-03  -4.5631235691114989e-04  1.5302535236806545e-03  3.5142573878355512e-03  5.5157945766721415e-03  7.5454410535973192e-03  9.5911701838249583e-03  1.1597888903149457e-02  1.3437973268660631e-02  1.4876806445224744e-02  1.5583404561509620e-02  1.5044882185769794e-02  1.3950060915427573e-02  -1.5276214460681200e-02  -1.6765559779439859e-02  -1.7019304773782579e-02  -1.5514260563384809e-02  -1.3139586212274377e-02  -1.0476741016092920e-02  -7.8313478809468977e-03  -5.3158216468958946e-03  -2.9414367624161133e-03  -6.7488695149396833e-04  1.5338487559089934e-03  3.7395524603517118e-03  5.9963477169512319e-03  8.3523400573722040e-03  1.0838216886280680e-02  1.3441773084522206e-02  1.6057083382587316e-02  1.8402403433371073e-02  1.9960267101244746e-02  1.9785834483629947e-02  1.8476339783244009e-02  -2.2076045211207870e-02  -2.3993665427942998e-02  -2.3186516594068764e-02  -1.9957402526186361e-02  -1.6056275744269249e-02  -1.2301220214120109e-02  -8.9429655396019801e-03  -5.9747805103597031e-03  -3.3069213934004888e-03  -8.3504710965183384e-04  1.5403117875416263e-03  3.9128320751341140e-03  6.3751059705383301e-03  9.0229924468364104e-03  1.1953795413006396e-02  1.5246348787069170e-02  1.8898089364446660e-02  2.2686084339454012e-02  2.5910007032764693e-02  2.6850675145005762e-02  2.5458453248582973e-02  -3.3458183564674567e-02  -3.5666556302751846e-02  -3.1575983237610634e-02  -2.4911740406345230e-02  -1.8729347593552787e-02  -1.3690079367180915e-02  -9.6532769231587844e-03  -6.3321712871829781e-03  -3.4777893151303947e-03  -9.0004811866760826e-04  1.5489816583223450e-03  3.9962698123501743e-03  6.5676175924039492e-03  9.4066009275505652e-03  1.2692680026864437e-02  1.6651937384653856e-02  2.1533274459473332e-02  2.7454112257616913e-02  3.3796356864624982e-02  3.7892691299454495e-02  3.7429297413377242e-02  -5.7175375861290033e-02  -5.5627249317446156e-02  -4.1716008408110461e-02  -2.9013864767738224e-02  -2.0152382790859825e-02  -1.4067028363423051e-02  -9.6593860438530018e-03  -6.2341392253497377e-03  -3.3790409165865279e-03  -8.3892695452930644e-04  1.5610039752016146e-03  3.9616143860409037e-03  6.5033294629662994e-03  9.3589747369757226e-03  1.2777054812908776e-02  1.7146999873631351e-02  2.3086874617986509e-02  3.1456230090517338e-02  4.2774010786437305e-02  5.5473888796961392e-02  6.1973710969560961e-02  -1.2840196503102760e-01  -8.4872063153347152e-02  -4.7882283663137848e-02  -2.8723162152116143e-02  -1.8740017397066329e-02  -1.2770910721936469e-02  -8.6850507031788308e-03  -5.5651206805485591e-03  -2.9661185090609035e-03  -6.4291506899152178e-04  1.5605386154708017e-03  3.7653355409999279e-03  6.0926637735497276e-03  8.6987039542586794e-03  1.1827794351371532e-02  1.5917534231174368e-02  2.1835530950078508e-02  3.1440534911420695e-02  4.9125727092692056e-02  8.3095940328249726e-02  1.2491645566041240e-01  -2.4251321170253515e-01  -9.6093960081491625e-02  -4.0555578168541190e-02  -2.3551445280707087e-02  -1.5718374034598533e-02  -1.0944738265952233e-02  -7.5482494453112505e-03  -4.8611497817941211e-03  -2.5576121104670625e-03  -4.5720503301281917e-04  1.5551282832192389e-03  3.5689878536398836e-03  5.6747043261867009e-03  7.9901860552122096e-03  1.0704117571207981e-02  1.4169774814798341e-02  1.9154154923106622e-02  2.7616377499169672e-02  4.5328953810151194e-02  8.9545533263397023e-02  2.4813411484715947e-01  </DataArray> 
</PointData> 
</Piece>
</UnstructuredGrid>
</VTKFile>