<?xml version="1.0"?>
<VTKFile type="UnstructuredGrid"  version="0.1"  >
<UnstructuredGrid>
<Piece  NumberOfPoints="651" NumberOfCells="1200">
<Points>
<DataArray  type="Float64"  NumberOfComponents="3"  format="ascii">0 0 0  50000 0 0  100000 0 0  150000 0 0  200000 0 0  250000 0 0  300000 0 0  350000 0 0  400000 0 0  450000 0 0  500000 0 0  550000 0 0  600000 0 0  650000 0 0  700000 0 0  750000 0 0  800000 0 0  850000 0 0  900000 0 0  950000 0 0  1000000 0 0  0 50000 0  50000 50000 0  100000 50000 0  150000 50000 0  200000 50000 0  250000 50000 0  300000 50000 0  350000 50000 0  400000 50000 0  450000 50000 0  500000 50000 0  550000 50000 0  600000 50000 0  650000 50000 0  700000 50000 0  750000 50000 0  800000 50000 0  850000 50000 0  900000 50000 0  950000 50000 0  1000000 50000 0  0 100000 0  50000 100000 0  100000 100000 0  150000 100000 0  200000 100000 0  250000 100000 0  300000 100000 0  350000 100000 0  400000 100000 0  450000 100000 0  500000 100000 0  550000 100000 0  600000 100000 0  650000 100000 0  700000 100000 0  750000 100000 0  800000 100000 0  850000 100000 0  900000 100000 0  950000 100000 0  1000000 100000 0  0 150000 0  50000 150000 0  100000 150000 0  150000 150000 0  200000 150000 0  250000 150000 0  300000 150000 0  350000 150000 0  400000 150000 0  450000 150000 0  500000 150000 0  550000 150000 0  600000 150000 0  650000 150000 0  700000 150000 0  750000 150000 0  800000 150000 0  850000 150000 0  900000 150000 0  950000 150000 0  1000000 150000 0  0 200000 0  50000 200000 0  100000 200000 0  150000 200000 0  200000 200000 0  250000 200000 0  300000 200000 0  350000 200000 0  400000 200000 0  450000 200000 0  500000 200000 0  550000 200000 0  600000 200000 0  650000 200000 0  700000 200000 0  750000 200000 0  800000 200000 0  850000 200000 0  900000 200000 0  950000 200000 0  1000000 200000 0  0 250000 0  50000 250000 0  100000 250000 0  150000 250000 0  200000 250000 0  250000 250000 0  300000 250000 0  350000 250000 0  400000 250000 0  450000 250000 0  500000 250000 0  550000 250000 0  600000 250000 0  650000 250000 0  700000 250000 0  750000 250000 0  800000 250000 0  850000 250000 0  900000 250000 0  950000 250000 0  1000000 250000 0  0 300000 0  50000 300000 0  100000 300000 0  150000 300000 0  200000 300000 0  250000 300000 0  300000 300000 0  350000 300000 0  400000 300000 0  450000 300000 0  500000 300000 0  550000 300000 0  600000 300000 0  650000 300000 0  700000 300000 0  750000 300000 0  800000 300000 0  850000 300000 0  900000 300000 0  950000 300000 0  1000000 300000 0  0 350000 0  50000 350000 0  100000 350000 0  150000 350000 0  200000 350000 0  250000 350000 0  300000 350000 0  350000 350000 0  400000 350000 0  450000 350000 0  500000 350000 0  550000 350000 0  600000 350000 0  650000 350000 0  700000 350000 0  750000 350000 0  800000 350000 0  850000 350000 0  900000 350000 0  950000 350000 0  1000000 350000 0  0 400000 0  50000 400000 0  100000 400000 0  150000 400000 0  200000 400000 0  250000 400000 0  300000 400000 0  350000 400000 0  400000 400000 0  450000 400000 0  500000 400000 0  550000 400000 0  600000 400000 0  650000 400000 0  700000 400000 0  750000 400000 0  800000 400000 0  850000 400000 0  900000 400000 0  950000 400000 0  1000000 400000 0  0 450000 0  50000 450000 0  100000 450000 0  150000 450000 0  200000 450000 0  250000 450000 0  300000 450000 0  350000 450000 0  400000 450000 0  450000 450000 0  500000 450000 0  550000 450000 0  600000 450000 0  650000 450000 0  700000 450000 0  750000 450000 0  800000 450000 0  850000 450000 0  900000 450000 0  950000 450000 0  1000000 450000 0  0 500000 0  50000 500000 0  100000 500000 0  150000 500000 0  200000 500000 0  250000 500000 0  300000 500000 0  350000 500000 0  400000 500000 0  450000 500000 0  500000 500000 0  550000 500000 0  600000 500000 0  650000 500000 0  700000 500000 0  750000 500000 0  800000 500000 0  850000 500000 0  900000 500000 0  950000 500000 0  1000000 500000 0  0 550000 0  50000 550000 0  100000 550000 0  150000 550000 0  200000 550000 0  250000 550000 0  300000 550000 0  350000 550000 0  400000 550000 0  450000 550000 0  500000 550000 0  550000 550000 0  600000 550000 0  650000 550000 0  700000 550000 0  750000 550000 0  800000 550000 0  850000 550000 0  900000 550000 0  950000 550000 0  1000000 550000 0  0 600000 0  50000 600000 0  100000 600000 0  150000 600000 0  200000 600000 0  250000 600000 0  300000 600000 0  350000 600000 0  400000 600000 0  450000 600000 0  500000 600000 0  550000 600000 0  600000 600000 0  650000 600000 0  700000 600000 0  750000 600000 0  800000 600000 0  850000 600000 0  900000 600000 0  950000 600000 0  1000000 600000 0  0 650000 0  50000 650000 0  100000 650000 0  150000 650000 0  200000 650000 0  250000 650000 0  300000 650000 0  350000 650000 0  400000 650000 0  450000 650000 0  500000 650000 0  550000 650000 0  600000 650000 0  650000 650000 0  700000 650000 0  750000 650000 0  800000 650000 0  850000 650000 0  900000 650000 0  950000 650000 0  1000000 650000 0  0 700000 0  50000 700000 0  100000 700000 0  150000 700000 0  200000 700000 0  250000 700000 0  300000 700000 0  350000 700000 0  400000 700000 0  450000 700000 0  500000 700000 0  550000 700000 0  600000 700000 0  650000 700000 0  700000 700000 0  750000 700000 0  800000 700000 0  850000 700000 0  900000 700000 0  950000 700000 0  1000000 700000 0  0 750000 0  50000 750000 0  100000 750000 0  150000 750000 0  200000 750000 0  250000 750000 0  300000 750000 0  350000 750000 0  400000 750000 0  450000 750000 0  500000 750000 0  550000 750000 0  600000 750000 0  650000 750000 0  700000 750000 0  750000 750000 0  800000 750000 0  850000 750000 0  900000 750000 0  950000 750000 0  1000000 750000 0  0 800000 0  50000 800000 0  100000 800000 0  150000 800000 0  200000 800000 0  250000 800000 0  300000 800000 0  350000 800000 0  400000 800000 0  450000 800000 0  500000 800000 0  550000 800000 0  600000 800000 0  650000 800000 0  700000 800000 0  750000 800000 0  800000 800000 0  850000 800000 0  900000 800000 0  950000 800000 0  1000000 800000 0  0 850000 0  50000 850000 0  100000 850000 0  150000 850000 0  200000 850000 0  250000 850000 0  300000 850000 0  350000 850000 0  400000 850000 0  450000 850000 0  500000 850000 0  550000 850000 0  600000 850000 0  650000 850000 0  700000 850000 0  750000 850000 0  800000 850000 0  850000 850000 0  900000 850000 0  950000 850000 0  1000000 850000 0  0 900000 0  50000 900000 0  100000 900000 0  150000 900000 0  200000 900000 0  250000 900000 0  300000 900000 0  350000 900000 0  400000 900000 0  450000 900000 0  500000 900000 0  550000 900000 0  600000 900000 0  650000 900000 0  700000 900000 0  750000 900000 0  800000 900000 0  850000 900000 0  900000 900000 0  950000 900000 0  1000000 900000 0  0 950000 0  50000 950000 0  100000 950000 0  150000 950000 0  200000 950000 0  250000 950000 0  300000 950000 0  350000 950000 0  400000 950000 0  450000 950000 0  500000 950000 0  550000 950000 0  600000 950000 0  650000 950000 0  700000 950000 0  750000 950000 0  800000 950000 0  850000 950000 0  900000 950000 0  950000 950000 0  1000000 950000 0  0 1000000 0  50000 1000000 0  100000 1000000 0  150000 1000000 0  200000 1000000 0  250000 1000000 0  300000 1000000 0  350000 1000000 0  400000 1000000 0  450000 1000000 0  500000 1000000 0  550000 1000000 0  600000 1000000 0  650000 1000000 0  700000 1000000 0  750000 1000000 0  800000 1000000 0  850000 1000000 0  900000 1000000 0  950000 1000000 0  1000000 1000000 0  0 1050000 0  50000 1050000 0  100000 1050000 0  150000 1050000 0  200000 1050000 0  250000 1050000 0  300000 1050000 0  350000 1050000 0  400000 1050000 0  450000 1050000 0  500000 1050000 0  550000 1050000 0  600000 1050000 0  650000 1050000 0  700000 1050000 0  750000 1050000 0  800000 1050000 0  850000 1050000 0  900000 1050000 0  950000 1050000 0  1000000 1050000 0  0 1100000 0  50000 1100000 0  100000 1100000 0  150000 1100000 0  200000 1100000 0  250000 1100000 0  300000 1100000 0  350000 1100000 0  400000 1100000 0  450000 1100000 0  500000 1100000 0  550000 1100000 0  600000 1100000 0  650000 1100000 0  700000 1100000 0  750000 1100000 0  800000 1100000 0  850000 1100000 0  900000 1100000 0  950000 1100000 0  1000000 1100000 0  0 1150000 0  50000 1150000 0  100000 1150000 0  150000 1150000 0  200000 1150000 0  250000 1150000 0  300000 1150000 0  350000 1150000 0  400000 1150000 0  450000 1150000 0  500000 1150000 0  550000 1150000 0  600000 1150000 0  650000 1150000 0  700000 1150000 0  750000 1150000 0  800000 1150000 0  850000 1150000 0  900000 1150000 0  950000 1150000 0  1000000 1150000 0  0 1200000 0  50000 1200000 0  100000 1200000 0  150000 1200000 0  200000 1200000 0  250000 1200000 0  300000 1200000 0  350000 1200000 0  400000 1200000 0  450000 1200000 0  500000 1200000 0  550000 1200000 0  600000 1200000 0  650000 1200000 0  700000 1200000 0  750000 1200000 0  800000 1200000 0  850000 1200000 0  900000 1200000 0  950000 1200000 0  1000000 1200000 0  0 1250000 0  50000 1250000 0  100000 1250000 0  150000 1250000 0  200000 1250000 0  250000 1250000 0  300000 1250000 0  350000 1250000 0  400000 1250000 0  450000 1250000 0  500000 1250000 0  550000 1250000 0  600000 1250000 0  650000 1250000 0  700000 1250000 0  750000 1250000 0  800000 1250000 0  850000 1250000 0  900000 1250000 0  950000 1250000 0  1000000 1250000 0  0 1300000 0  50000 1300000 0  100000 1300000 0  150000 1300000 0  200000 1300000 0  250000 1300000 0  300000 1300000 0  350000 1300000 0  400000 1300000 0  450000 1300000 0  500000 1300000 0  550000 1300000 0  600000 1300000 0  650000 1300000 0  700000 1300000 0  750000 1300000 0  800000 1300000 0  850000 1300000 0  900000 1300000 0  950000 1300000 0  1000000 1300000 0  0 1350000 0  50000 1350000 0  100000 1350000 0  150000 1350000 0  200000 1350000 0  250000 1350000 0  300000 1350000 0  350000 1350000 0  400000 1350000 0  450000 1350000 0  500000 1350000 0  550000 1350000 0  600000 1350000 0  650000 1350000 0  700000 135
[...]
<PointData  Scalars="f_10483"> 
<DataArray  type="Float64"  Name="f_10483"  format="ascii">-1.2307804045426621e-01  -4.5025480722347501e-02  -2.2716504926201045e-02  -1.3566424480120503e-02  -8.9892357015926971e-03  -6.1113282147226382e-03  -3.9681863312585218e-03  -2.1893376636387880e-03  -6.0641886128488061e-04  8.7118001685239149e-04  2.3018883567013822e-03  3.7319654047515472e-03  5.2073133706511754e-03  6.7849448934851758e-03  8.5512680651688901e-03  1.0660529061886187e-02  1.3433040380109392e-02  1.7699863935715848e-02  2.6525237523973150e-02  5.4332354691066904e-02  1.2588136150032037e-01  -6.2114786057246622e-02  -4.1370710574843379e-02  -2.4208630843174709e-02  -1.5164663719801828e-02  -1.0085765938084927e-02  -6.7983488794453421e-03  -4.3917616400740902e-03  -2.4466650706226815e-03  -7.5373870045946137e-04  8.0378933382891987e-04  2.3014151724617599e-03  3.7985472223392891e-03  5.3545386002427954e-03  7.0448004217512896e-03  8.9865067558093387e-03  1.1392918155633673e-02  1.4709280178145037e-02  1.9982868186362107e-02  2.9757140823287724e-02  4.8271070003963537e-02  6.9861936984060194e-02  -3.0313342330827088e-02  -2.7039585320799350e-02  -2.0602015616645777e-02  -1.4799378182356533e-02  -1.0399170762514115e-02  -7.1618387562225484e-03  -4.6736085541811733e-03  -2.6380459623672292e-03  -8.6952449776865896e-04  7.4990931963233340e-04  2.3023236802150650e-03  3.8545797424316313e-03  5.4737302846989038e-03  7.2427504749774593e-03  9.2827976948626975e-03  1.1790760017398618e-02  1.5101459708376100e-02  1.9746372563813511e-02  2.6233372613303177e-02  3.3237738597430143e-02  3.4066129612914754e-02  -1.7676039315921818e-02  -1.7899454650968948e-02  -1.5808669588302331e-02  -1.2522046606655252e-02  -9.3808428447103125e-03  -6.7130132291569646e-03  -4.4724897947992998e-03  -2.5448815892748847e-03  -8.2516168398534377e-04  7.7012520313181928e-04  2.3077758509689596e-03  3.8463641894930975e-03  5.4450210039224704e-03  7.1726337657328429e-03  9.1178036901704423e-03  1.1396673909514193e-02  1.4141953944598447e-02  1.7411012651061927e-02  2.0858477293566519e-02  2.2947724925770723e-02  2.1832276729935630e-02  -1.1477512834283773e-02  -1.2159429336189659e-02  -1.1638960434305410e-02  -9.9176419475476927e-03  -7.8641249171675504e-03  -5.8402489403139857e-03  -3.9659922518299898e-03  -2.2503946596991306e-03  -6.6081790043417661e-04  8.4560131894577070e-04  2.3117717702340469e-03  3.7793726883014302e-03  5.2906007835743429e-03  6.8900921987805012e-03  8.6240854018352544e-03  1.0530427875554268e-02  1.2604310272295409e-02  1.4711447623572892e-02  1.6432812719327894e-02  1.6888317449552420e-02  1.5932255074308725e-02  -7.8585937352241460e-03  -8.4772444542692317e-03  -8.4924254097410307e-03  -7.6032515772179940e-03  -6.2837496815242744e-03  -4.7983830101298152e-03  -3.2934939011589922e-03  -1.8278387863570062e-03  -4.1299061064010187e-04  9.6135882891121684e-04  2.3145974207831599e-03  3.6693252057414878e-03  5.0484509740936290e-03  6.4722571310912207e-03  7.9522547926125127e-03  9.4772061508843243e-03  1.0984997155404349e-02  1.2317107064152691e-02  1.3177126361786268e-02  1.3122922566480958e-02  1.2410805385114498e-02  -5.5019602225355154e-03  -5.9941732264842482e-03  -6.1715251834842623e-03  -5.7047016958142764e-03  -4.8456939846892987e-03  -3.7622330917513147e-03  -2.5747903839661878e-03  -1.3512177401485243e-03  -1.2329885552358124e-04  1.0987290386596513e-03  2.3160185233936019e-03  3.5345448526886642e-03  4.7603748435881702e-03  5.9948302757970272e-03  7.2275116046651875e-03  8.4251785422731519e-03  9.5157738347159525e-03  1.0371951871289125e-02  1.0812120889019297e-02  1.0614874669398444e-02  1.0085052422594321e-02  -3.8611994512995590e-03  -4.2431755042829540e-03  -4.4507649015033054e-03  -4.1978034207105584e-03  -3.6213023047856696e-03  -2.8218963170665253e-03  -1.8866128538005192e-03  -8.7558081513030932e-04  1.7406831084736330e-04  1.2416072381238850e-03  2.3162412192475803e-03  3.3917452268582694e-03  4.4618484913027043e-03  5.5155279601985172e-03  6.5313630488787033e-03  7.4706108073388294e-03  8.2701977976270269e-03  8.8398643122481139e-03  9.0731037828088636e-03  8.8550945069003559e-03  8.4564393834740507e-03  -2.6698345431357380e-03  -2.9672090566497528e-03  -3.1612897684787063e-03  -3.0181307315180943e-03  -2.6155503745531028e-03  -2.0130216381797133e-03  -1.2704459628340554e-03  -4.3595863810572751e-04  4.5510970971781830e-04  1.3781113239277835e-03  2.3155871674211425e-03  3.2535865471855878e-03  4.1780601707692260e-03  5.0712034845473890e-03  5.9076462094177435e-03  6.6508323154014651e-03  7.2509049528115717e-03  7.6466417112106434e-03  7.7758734301426272e-03  7.5760664184625496e-03  7.2710490545025977e-03  -1.7830849476339113e-03  -2.0182348821838657e-03  -2.1876164483635536e-03  -2.1021362767179668e-03  -1.8084940456474350e-03  -1.3421697691412575e-03  -7.4403448049272631e-04  -5.1188142253552618e-05  7.0536628568066198e-04  1.5006959359660232e-03  2.3143836576974657e-03  3.1283313694262542e-03  3.9243417116429872e-03  4.6816827732435694e-03  5.3748585456840515e-03  5.9720686589744033e-03  6.4352892266876663e-03  6.7231995023467233e-03  6.7989439934246394e-03  6.6262846247915098e-03  6.3876106600799041e-03  -1.1166685215138349e-03  -1.3070356561318704e-03  -1.4522719541003128e-03  -1.3980116387596489e-03  -1.1741379178606159e-03  -8.0243676956005751e-04  -3.1126144928558054e-04  2.7088218739690682e-04  9.1758136359040160e-04  1.6052907954034505e-03  2.3128910392739553e-03  3.0205806276785659e-03  3.7084797602803983e-03  4.3552339909418043e-03  4.9369166204697784e-03  5.4266398038485507e-03  5.7954291520073732e-03  6.0148412851537218e-03  6.0623242323706115e-03  5.9151431253428172e-03  5.7231501730083028e-03  -6.1912586467446028e-04  -7.7784799991958216e-04  -9.0323843692339037e-04  -8.6647422689387825e-04  -6.8810318727331819e-04  -3.8216423195518731e-04  3.0946165461673596e-05  5.2888956577363730e-04  1.0891883593108504e-03  1.6902054815375314e-03  2.3112847399734925e-03  2.9323600954413802e-03  3.5333115428178726e-03  4.0933268126347481e-03  4.5905324818818994e-03  5.0021851499913849e-03  5.3057210692256480e-03  5.4807834481225594e-03  5.5128801112939215e-03  5.3863033340360786e-03  5.2268269322059187e-03  -2.5799783986175511e-04  -3.9496157718941767e-04  -5.0553403558402778e-04  -4.7888893403212423e-04  -3.3026849776462134e-04  -6.9368742695769391e-05  2.8833906035716450e-04  7.2469978622521187e-04  1.2202455925570228e-03  1.7551531615140556e-03  2.3096648967901937e-03  2.8641347699173187e-03  3.3988830766632887e-03  3.8940573534349461e-03  4.3296979822905635e-03  4.6861967264837587e-03  4.9452969298304367e-03  5.0915976816187369e-03  5.1151281749637848e-03  5.0038286563334642e-03  4.8665105039001630e-03  -1.2556808188170917e-05  -1.3538983901049620e-04  -2.3589865329449514e-04  -2.1515772598340146e-04  -8.5356286755409091e-05  1.4617614752520104e-04  4.6688939217376623e-04  8.6128161798109185e-04  1.3119591877080140e-03  1.8005152240048270e-03  2.3080756983240532e-03  2.8155917706909777e-03  3.3039957355736091e-03  3.7543614213274082e-03  4.1482099884424016e-03  4.4680791079165991e-03  4.6984252322971373e-03  4.8267578152936209e-03  4.8455877021165213e-03  4.7446562020845269e-03  4.6216574560247938e-03  1.3008219409567820e-04  1.5193204017968623e-05  -7.9543570188537926e-05  -6.2047808385820317e-05  5.7205312835590148e-05  2.7204584528840145e-04  5.7146540969363400e-04  9.4142187684788771e-04  1.3657236382341390e-03  1.8268453432959482e-03  2.3065244778564366e-03  2.7861768955124355e-03  3.2472101269163953e-03  3.6713389324561623e-03  4.0410074325045019e-03  4.3399964881161513e-03  4.5542498046811488e-03  4.6727915726439487e-03  4.6893778625398006e-03  4.5944456881372052e-03  4.4794900049389139e-03  1.7700895298761358e-04  6.4665165529099615e-05  -2.8250183790345436e-05  -1.2060819142675411e-05  1.0357895196840446e-04  3.1282507340423958e-04  6.0516041432535049e-04  9.6700470690760433e-04  1.3825521454823402e-03  1.8345671268505971e-03  2.3049971002384495e-03  2.7754270736264656e-03  3.2274420549952944e-03  3.6429894935708510e-03  4.0048337861540153e-03  4.2971691270760597e-03  4.5064152485125861e-03  4.6220550196240861e-03  4.6382443842718692e-03  4.5453290349523577e-03  4.4329852474938270e-03  1.3050419554250516e-04  1.5548512344247259e-05  -7.9383662058274640e-05  -6.2797372162564142e-05  5.5744395799826880e-05  2.6999771236407415e-04  5.6898676797481021e-04  9.3865526802218088e-04  1.3627840735610625e-03  1.8238173049644531e-03  2.3034697226202560e-03  2.7831488571809344e-03  3.2442705622433093e-03  3.6685723236303566e-03  4.0385287907855737e-03  4.3379483551917340e-03  4.5527888876453100e-03  4.6720420088671192e-03  4.6895377706699807e-03  4.5948009964634088e-03  4.4799120063856784e-03  -1.1663255543603449e-05  -1.3466200160324628e-04  -2.3559350163514670e-04  -2.1676361481234228e-04  -8.8431031816335557e-05  1.4191509256336783e-04  4.6178421203655972e-04  8.5563277915045146e-04  1.3059984649033240e-03  1.7944024297853317e-03  2.3019185021520153e-03  2.8094789764714287e-03  3.2980350127688363e-03  3.7487125824966650e-03  4.1431048083050660e-03  4.4638180529546481e-03  4.6953504872360562e-03  4.8251519264644726e-03  4.8458928537757724e-03  4.7453840394917103e-03  4.6225510086693004e-03  -2.5651630341926680e-04  -3.9383445585242837e-04  -5.0513397448258409e-04  -4.8160348113765076e-04  -3.3530272934991520e-04  -7.6202526004224891e-05  2.8029621818776340e-04  7.1593684704207941e-04  1.2111111238126556e-03  1.7458594305578721e-03  2.3003293036847317e-03  2.8548410389610864e-03  3.3897486079188070e-03  3.8852944142516339e-03  4.3216551401209450e-03  4.6793629431750488e-03  4.9402626982448924e-03  5.0888831345129578e-03  5.1155282360649933e-03  5.0049557776702244e-03  4.8679920403424410e-03  -6.1683273172554386e-04  -7.7630913355547927e-04  -9.0288591081302209e-04  -8.7078924764183788e-04  -6.9572686874563091e-04  -3.9219094951262374e-04  1.9461718595346183e-05  5.1666738784088945e-04  1.0766826576564280e-03  1.6776341050320038e-03  2.2987094604995520e-03  2.9197887189357863e-03  3.5208058411632993e-03  4.0811046347017411e-03  4.5790480350152221e-03  4.9921584324335759e-03  5.2980973877530067e-03  5.4764684273742627e-03  5.5132326374039368e-03  5.3878422003998897e-03  5.2291200651545669e-03  -1.1131559725285375e-03  -1.3051489248626534e-03  -1.4523300318900248e-03  -1.4048470846734144e-03  -1.1854349515280479e-03  -8.1664560337092176e-04  -3.2692241999420163e-04  2.5476020953169915e-04  9.0151444019142255e-04  1.5894135727921022e-03  2.2971031611962846e-03  3.0047034050671153e-03  3.6924128368811854e-03  4.3391120130762927e-03  4.9212556497607463e-03  5.4124309700372270e-03  5.7841321183394485e-03  6.0080058392394872e-03  6.0622661545804632e-03  5.9170298566116504e-03  5.7266627219932443e-03  -1.7776164596008095e-03  -2.0162904243118149e-03  -2.1889497929443395e-03  -2.1132053018668956e-03  -1.8252950262093932e-03  -1.3620744584985785e-03  -7.6486434521103649e-04  -7.1688572773268588e-05  6.8565248882516180e-04  1.4816628310405091e-03  2.2956105427687575e-03  3.1092982645005976e-03  3.9046279147872255e-03  4.6611823427235100e-03  5.3540286809652792e-03  5.9521639696165120e-03  6.4184882461250587e-03  6.7121304771971639e-03  6.7976106488432872e-03  6.6282290826630876e-03  6.3930791481124844e-03  -2.6610548540242124e-03  -2.9660722179831157e-03  -3.1658792296624153e-03  -3.0366475107313825e-03  -2.6409107523348717e-03  -2.0408381149283296e-03  -1.2976520089484969e-03  -4.6120928408163053e-04  4.3193402969382626e-04  1.3564076532757438e-03  2.2944070330395490e-03  3.2318828765334172e-03  4.1548844907449457e-03  5.0459528385710644e-03  5.8804401633027401e-03  6.6230158386521073e-03  7.2255445750289910e-03  7.6281249319965433e-03  7.7712839689581693e-03  7.5772032571285973e-03  7.2798287436136328e-03  -3.8464451829958728e-03  -4.2451003064204827e-03  -4.4631095823283000e-03  -4.2298701117695755e-03  -3.6602035971526397e-03  -2.8606166068696880e-03  -1.9213688484148027e-03  -9.0553375973903831e-04  1.4814570915353928e-04  1.2182489735960162e-03  2.2937529812060015e-03  3.3683869623302590e-03  4.4359258896085963e-03  5.4855750155893461e-03  6.4966070542637686e-03  7.4318905175347781e-03  8.2312965052590489e-03  8.8077976211880446e-03  9.0607591019828734e-03  8.8531697047620136e-03  8.4711936517771862e-03  -5.4750582221151575e-03  -6.0048804689169450e-03  -6.2021266885376363e-03  -5.7619576708114635e-03  -4.9057796342449932e-03  -3.8151843418096896e-03  -2.6175174042084256e-03  -1.3848360753454805e-03  -1.5038064314019546e-04  1.0754493477572525e-03  2.2939756770516029e-03  3.5112651617861318e-03  4.7332930559712705e-03  5.9612119405995870e-03  7.1847845844222177e-03  8.3722272922137526e-03  9.4556881851590134e-03  1.0314695896290634e-02  1.0781519383964747e-02  1.0604167426964755e-02  1.0111954423014075e-02  -7.8008111846316905e-03  -8.5129283659952249e-03  -8.5671321613019717e-03  -7.7071128636761067e-03  -6.3750029549382555e-03  -4.8672119504283504e-03  -3.3422605921644695e-03  -1.8622629306486727e-03  -4.3845677365460250e-04  9.4066899469561567e-04  2.2953967796533366e-03  3.6486353715257992e-03  5.0229848110789161e-03  6.4378329867991165e-03  7.9034881016063745e-03  9.4083772105848489e-03  1.0893743881988964e-02  1.2213245777692866e-02  1.3102419610223581e-02  1.3087238654753648e-02  1.2468587935706260e-02  -1.1322260873817004e-02  -1.2278323249057524e-02  -1.1822818518838717e-02  -1.0101453423097746e-02  -7.9943160718353532e-03  -5.9204336751065376e-03  -4.0140912013959234e-03  -2.2800979983464103e-03  -6.8060658314328414e-04  8.3062151212808530e-04  2.2982224301950059e-03  3.7643928814836691e-03  5.2708121008650209e-03  6.8603888601328090e-03  8.5759864522687145e-03  1.0450243140760868e-02  1.2474119117626081e-02  1.4527636148020729e-02  1.6248954634792114e-02  1.6769423536682537e-02  1.6087507034774826e-02  -1.7222282529424229e-02  -1.8337730725257791e-02  -1.6248483093069060e-02  -1.2801018450587447e-02  -9.5319597441435727e-03  -6.7866797090727141e-03  -4.5078094897370719e-03  -2.5626395653041015e-03  -8.3502680349617562e-04  7.6363001093198368e-04  2.3022183494557417e-03  3.8398689972931632e-03  5.4351558844113737e-03  7.1548757897032184e-03  9.0824839952321351e-03  1.1323007429597656e-02  1.3990837045163861e-02  1.7132040807127508e-02  2.0418663788796337e-02  2.2509448851478469e-02  2.2286033516432546e-02  -2.9456135412358395e-02  -2.8627744396883467e-02  -2.1623378412791602e-02  -1.5136378363335297e-02  -1.0491465507920792e-02  -7.1807658169571447e-03  -4.6728034944293955e-03  -2.6327562745487609e-03  -8.6373608427277424e-04  7.5541445799325328e-04  2.3076705202094154e-03  3.8600848807924114e-03  5.4795186981945075e-03  7.2480401627953795e-03  9.2836027546137970e-03  1.1771832956663073e-02  1.5009164962968117e-02  1.9409372382832333e-02  2.5212009817151798e-02  3.1649579521337921e-02  3.4923336531379412e-02  -6.5251942783399464e-02  -4.3661075803362932e-02  -2.5147146622751613e-02  -1.5372873985868930e-02  -1.0099285977678762e-02  -6.7829239551839724e-03  -4.3765125553697579e-03  -2.4348062213177678e-03  -7.4454439981272479e-04  8.1144697808898476e-04  2.3085790279659285e-03  3.8062048665992170e-03  5.3637329008892308e-03  7.0566592710557359e-03  9.0017558405130101e-03  1.1408343079894030e-02  1.4695760138549813e-02  1.9774657920292850e-02  2.8818625043706296e-02  4.5980704775434984e-02  6.6724780257882615e-02  -1.2127136729963431e-01  -4.9722360490423771e-02  -2.1915243323411032e-02  -1.3089869735207718e-02  -8.8230461796337829e-03  -6.0505348614300850e-03  -3.9412738647246004e-03  -2.1749506930480427e-03  -5.9731917021809604e-04  8.7802879567939096e-04  2.3081058437289049e-03  3.7388141835784099e-03  5.2164130617177651e-03  6.7993318640756561e-03  8.5781805317024316e-03  1.0721322415178230e-02  1.3599229902067553e-02  1.8176418680626451e-02  2.7326499126756318e-02  4.9635474922979692e-02  1.2768803465498069e-01  </DataArray> 
</PointData> 
</Piece>
</UnstructuredGrid>
</VTKFile>