<?xml version="1.0"?>
<VTKFile type="UnstructuredGrid"  version="0.1"  >
<UnstructuredGrid>
<Piece  NumberOfPoints="651" NumberOfCells="1200">
<Points>
<DataArray  type="Float64"  NumberOfComponents="3"  format="ascii">0 0 0  50000 0 0  100000 0 0  150000 0 0  200000 0 0  250000 0 0  300000 0 0  350000 0 0  400000 0 0  450000 0 0  500000 0 0  550000 0 0  600000 0 0  650000 0 0  700000 0 0  750000 0 0  800000 0 0  850000 0 0  900000 0 0  950000 0 0  1000000 0 0  0 50000 0  50000 50000 0  100000 50000 0  150000 50000 0  200000 50000 0  250000 50000 0  300000 50000 0  350000 50000 0  400000 50000 0  450000 50000 0  500000 50000 0  550000 50000 0  600000 50000 0  650000 50000 0  700000 50000 0  750000 50000 0  800000 50000 0  850000 50000 0  900000 50000 0  950000 50000 0  1000000 50000 0  0 100000 0  50000 100000 0  100000 100000 0  150000 100000 0  200000 100000 0  250000 100000 0  300000 100000 0  350000 100000 0  400000 100000 0  450000 100000 0  500000 100000 0  550000 100000 0  600000 100000 0  650000 100000 0  700000 100000 0  750000 100000 0  800000 100000 0  850000 100000 0  900000 100000 0  950000 100000 0  1000000 100000 0  0 150000 0  50000 150000 0  100000 150000 0  150000 150000 0  200000 150000 0  250000 150000 0  300000 150000 0  350000 150000 0  400000 150000 0  450000 150000 0  500000 150000 0  550000 150000 0  600000 150000 0  650000 150000 0  700000 150000 0  750000 150000 0  800000 150000 0  850000 150000 0  900000 150000 0  950000 150000 0  1000000 150000 0  0 200000 0  50000 200000 0  100000 200000 0  150000 200000 0  200000 200000 0  250000 200000 0  300000 200000 0  350000 200000 0  400000 200000 0  450000 200000 0  500000 200000 0  550000 200000 0  600000 200000 0  650000 200000 0  700000 200000 0  750000 200000 0  800000 200000 0  850000 200000 0  900000 200000 0  950000 200000 0  1000000 200000 0  0 250000 0  50000 250000 0  100000 250000 0  150000 250000 0  200000 250000 0  250000 250000 0  300000 250000 0  350000 250000 0  400000 250000 0  450000 250000 0  500000 250000 0  550000 250000 0  600000 250000 0  650000 250000 0  700000 250000 0  750000 250000 0  800000 250000 0  850000 250000 0  900000 250000 0  950000 250000 0  1000000 250000 0  0 300000 0  50000 300000 0  100000 300000 0  150000 300000 0  200000 300000 0  250000 300000 0  300000 300000 0  350000 300000 0  400000 300000 0  450000 300000 0  500000 300000 0  550000 300000 0  600000 300000 0  650000 300000 0  700000 300000 0  750000 300000 0  800000 300000 0  850000 300000 0  900000 300000 0  950000 300000 0  1000000 300000 0  0 350000 0  50000 350000 0  100000 350000 0  150000 350000 0  200000 350000 0  250000 350000 0  300000 350000 0  350000 350000 0  400000 350000 0  450000 350000 0  500000 350000 0  550000 350000 0  600000 350000 0  650000 350000 0  700000 350000 0  750000 350000 0  800000 350000 0  850000 350000 0  900000 350000 0  950000 350000 0  1000000 350000 0  0 400000 0  50000 400000 0  100000 400000 0  150000 400000 0  200000 400000 0  250000 400000 0  300000 400000 0  350000 400000 0  400000 400000 0  450000 400000 0  500000 400000 0  550000 400000 0  600000 400000 0  650000 400000 0  700000 400000 0  750000 400000 0  800000 400000 0  850000 400000 0  900000 400000 0  950000 400000 0  1000000 400000 0  0 450000 0  50000 450000 0  100000 450000 0  150000 450000 0  200000 450000 0  250000 450000 0  300000 450000 0  350000 450000 0  400000 450000 0  450000 450000 0  500000 450000 0  550000 450000 0  600000 450000 0  650000 450000 0  700000 450000 0  750000 450000 0  800000 450000 0  850000 450000 0  900000 450000 0  950000 450000 0  1000000 450000 0  0 500000 0  50000 500000 0  100000 500000 0  150000 500000 0  200000 500000 0  250000 500000 0  300000 500000 0  350000 500000 0  400000 500000 0  450000 500000 0  500000 500000 0  550000 500000 0  600000 500000 0  650000 500000 0  700000 500000 0  750000 500000 0  800000 500000 0  850000 500000 0  900000 500000 0  950000 500000 0  1000000 500000 0  0 550000 0  50000 550000 0  100000 550000 0  150000 550000 0  200000 550000 0  250000 550000 0  300000 550000 0  350000 550000 0  400000 550000 0  450000 550000 0  500000 550000 0  550000 550000 0  600000 550000 0  650000 550000 0  700000 550000 0  750000 550000 0  800000 550000 0  850000 550000 0  900000 550000 0  950000 550000 0  1000000 550000 0  0 600000 0  50000 600000 0  100000 600000 0  150000 600000 0  200000 600000 0  250000 600000 0  300000 600000 0  350000 600000 0  400000 600000 0  450000 600000 0  500000 600000 0  550000 600000 0  600000 600000 0  650000 600000 0  700000 600000 0  750000 600000 0  800000 600000 0  850000 600000 0  900000 600000 0  950000 600000 0  1000000 600000 0  0 650000 0  50000 650000 0  100000 650000 0  150000 650000 0  200000 650000 0  250000 650000 0  300000 650000 0  350000 650000 0  400000 650000 0  450000 650000 0  500000 650000 0  550000 650000 0  600000 650000 0  650000 650000 0  700000 650000 0  750000 650000 0  800000 650000 0  850000 650000 0  900000 650000 0  950000 650000 0  1000000 650000 0  0 700000 0  50000 700000 0  100000 700000 0  150000 700000 0  200000 700000 0  250000 700000 0  300000 700000 0  350000 700000 0  400000 700000 0  450000 700000 0  500000 700000 0  550000 700000 0  600000 700000 0  650000 700000 0  700000 700000 0  750000 700000 0  800000 700000 0  850000 700000 0  900000 700000 0  950000 700000 0  1000000 700000 0  0 750000 0  50000 750000 0  100000 750000 0  150000 750000 0  200000 750000 0  250000 750000 0  300000 750000 0  350000 750000 0  400000 750000 0  450000 750000 0  500000 750000 0  550000 750000 0  600000 750000 0  650000 750000 0  700000 750000 0  750000 750000 0  800000 750000 0  850000 750000 0  900000 750000 0  950000 750000 0  1000000 750000 0  0 800000 0  50000 800000 0  100000 800000 0  150000 800000 0  200000 800000 0  250000 800000 0  300000 800000 0  350000 800000 0  400000 800000 0  450000 800000 0  500000 800000 0  550000 800000 0  600000 800000 0  650000 800000 0  700000 800000 0  750000 800000 0  800000 800000 0  850000 800000 0  900000 800000 0  950000 800000 0  1000000 800000 0  0 850000 0  50000 850000 0  100000 850000 0  150000 850000 0  200000 850000 0  250000 850000 0  300000 850000 0  350000 850000 0  400000 850000 0  450000 850000 0  500000 850000 0  550000 850000 0  600000 850000 0  650000 850000 0  700000 850000 0  750000 850000 0  800000 850000 0  850000 850000 0  900000 850000 0  950000 850000 0  1000000 850000 0  0 900000 0  50000 900000 0  100000 900000 0  150000 900000 0  200000 900000 0  250000 900000 0  300000 900000 0  350000 900000 0  400000 900000 0  450000 900000 0  500000 900000 0  550000 900000 0  600000 900000 0  650000 900000 0  700000 900000 0  750000 900000 0  800000 900000 0  850000 900000 0  900000 900000 0  950000 900000 0  1000000 900000 0  0 950000 0  50000 950000 0  100000 950000 0  150000 950000 0  200000 950000 0  250000 950000 0  300000 950000 0  350000 950000 0  400000 950000 0  450000 950000 0  500000 950000 0  550000 950000 0  600000 950000 0  650000 950000 0  700000 950000 0  750000 950000 0  800000 950000 0  850000 950000 0  900000 950000 0  950000 950000 0  1000000 950000 0  0 1000000 0  50000 1000000 0  100000 1000000 0  150000 1000000 0  200000 1000000 0  250000 1000000 0  300000 1000000 0  350000 1000000 0  400000 1000000 0  450000 1000000 0  500000 1000000 0  550000 1000000 0  600000 1000000 0  650000 1000000 0  700000 1000000 0  750000 1000000 0  800000 1000000 0  850000 1000000 0  900000 1000000 0  950000 1000000 0  1000000 1000000 0  0 1050000 0  50000 1050000 0  100000 1050000 0  150000 1050000 0  200000 1050000 0  250000 1050000 0  300000 1050000 0  350000 1050000 0  400000 1050000 0  450000 1050000 0  500000 1050000 0  550000 1050000 0  600000 1050000 0  650000 1050000 0  700000 1050000 0  750000 1050000 0  800000 1050000 0  850000 1050000 0  900000 1050000 0  950000 1050000 0  1000000 1050000 0  0 1100000 0  50000 1100000 0  100000 1100000 0  150000 1100000 0  200000 1100000 0  250000 1100000 0  300000 1100000 0  350000 1100000 0  400000 1100000 0  450000 1100000 0  500000 1100000 0  550000 1100000 0  600000 1100000 0  650000 1100000 0  700000 1100000 0  750000 1100000 0  800000 1100000 0  850000 1100000 0  900000 1100000 0  950000 1100000 0  1000000 1100000 0  0 1150000 0  50000 1150000 0  100000 1150000 0  150000 1150000 0  200000 1150000 0  250000 1150000 0  300000 1150000 0  350000 1150000 0  400000 1150000 0  450000 1150000 0  500000 1150000 0  550000 1150000 0  600000 1150000 0  650000 1150000 0  700000 1150000 0  750000 1150000 0  800000 1150000 0  850000 1150000 0  900000 1150000 0  950000 1150000 0  1000000 1150000 0  0 1200000 0  50000 1200000 0  100000 1200000 0  150000 1200000 0  200000 1200000 0  250000 1200000 0  300000 1200000 0  350000 1200000 0  400000 1200000 0  450000 1200000 0  500000 1200000 0  550000 1200000 0  600000 1200000 0  650000 1200000 0  700000 1200000 0  750000 1200000 0  800000 1200000 0  850000 1200000 0  900000 1200000 0  950000 1200000 0  1000000 1200000 0  0 1250000 0  50000 1250000 0  100000 1250000 0  150000 1250000 0  200000 1250000 0  250000 1250000 0  300000 1250000 0  350000 1250000 0  400000 1250000 0  450000 1250000 0  500000 1250000 0  550000 1250000 0  600000 1250000 0  650000 1250000 0  700000 1250000 0  750000 1250000 0  800000 1250000 0  850000 1250000 0  900000 1250000 0  950000 1250000 0  1000000 1250000 0  0 1300000 0  50000 1300000 0  100000 1300000 0  150000 1300000 0  200000 1300000 0  250000 1300000 0  300000 1300000 0  350000 1300000 0  400000 1300000 0  450000 1300000 0  500000 1300000 0  550000 1300000 0  600000 1300000 0  650000 1300000 0  700000 1300000 0  750000 1300000 0  800000 1300000 0  850000 1300000 0  900000 1300000 0  950000 1300000 0  1000000 1300000 0  0 1350000 0  50000 1350000 0  100000 1350000 0  150000 1350000 0  200000 1350000 0  250000 1350000 0  300000 1350000 0  350000 1350000 0  400000 1350000 0  450000 1350000 0  500000 1350000 0  550000 1350000 0  600000 1350000 0  650000 1350000 0  700000 135
[...]
<PointData  Vectors="f_10477"> 
<DataArray  type="Float64"  Name="f_10477"  NumberOfComponents="3" format="ascii">-5.4602743550398820e-09 -3.0405025760592515e-09 0.0000000000000000e+00  7.5638788577790507e-08 -1.9884986486034187e-09 0.0000000000000000e+00  7.8382419983515728e-08 -3.0439270243947349e-11 0.0000000000000000e+00  7.9151033915691564e-08 2.8462986986665778e-10 0.0000000000000000e+00  7.9534191652575035e-08 2.4467030289118281e-10 0.0000000000000000e+00  7.9718751100333790e-08 1.7574925487570958e-10 0.0000000000000000e+00  7.9814203957831975e-08 1.2049496485879278e-10 0.0000000000000000e+00  7.9866312725221446e-08 7.8852811712073097e-11 0.0000000000000000e+00  7.9894408316764102e-08 4.6065687236102492e-11 0.0000000000000000e+00  7.9907062777290400e-08 1.8217323770151216e-11 0.0000000000000000e+00  7.9907690105123026e-08 -7.6391034044677204e-12 0.0000000000000000e+00  7.9896458964791421e-08 -3.3992207629233712e-11 0.0000000000000000e+00  7.9870407619805024e-08 -6.3346721403751620e-11 0.0000000000000000e+00  7.9821912380318611e-08 -9.8647048075372703e-11 0.0000000000000000e+00  7.9734084688127877e-08 -1.4361417733324233e-10 0.0000000000000000e+00  7.9567955169775125e-08 -2.0245259581605448e-10 0.0000000000000000e+00  7.9230387137296897e-08 -2.7463641317319493e-10 0.0000000000000000e+00  7.8539920304930301e-08 -2.9339447417097497e-10 0.0000000000000000e+00  7.7098092294137693e-08 5.0183154957387387e-10 0.0000000000000000e+00  7.3077299229437600e-08 4.6666121371315265e-09 0.0000000000000000e+00  -7.8448271744550907e-09 4.8719705187459437e-09 0.0000000000000000e+00  -3.8320073336331693e-09 -3.3662037414666714e-09 0.0000000000000000e+00  -1.4431755462162755e-09 -2.3749371141298429e-08 0.0000000000000000e+00  1.7233420647784961e-08 -1.4047953377747529e-08 0.0000000000000000e+00  3.1902462993518155e-08 -7.8078499914902153e-09 0.0000000000000000e+00  4.1368635914571428e-08 -4.6170528181574089e-09 0.0000000000000000e+00  4.7523673643389479e-08 -2.8990292883157602e-09 0.0000000000000000e+00  5.1607001621245572e-08 -1.8801194148632037e-09 0.0000000000000000e+00  5.4313431302893390e-08 -1.2119417759740978e-09 0.0000000000000000e+00  5.6035977325420148e-08 -7.2962754546760201e-10 0.0000000000000000e+00  5.6994916869320265e-08 -3.4512068136449865e-10 0.0000000000000000e+00  5.7302810590600736e-08 -3.3644376801818855e-12 0.0000000000000000e+00  5.6994302136382136e-08 3.3807019051739700e-10 0.0000000000000000e+00  5.6034772427721620e-08 7.2151416766581717e-10 0.0000000000000000e+00  5.4311967100711790e-08 1.2016233031077472e-09 0.0000000000000000e+00  5.1607094012498431e-08 1.8651908113232610e-09 0.0000000000000000e+00  4.7532849933863182e-08 2.8731128327567992e-09 0.0000000000000000e+00  4.1413479840527276e-08 4.5663180681569674e-09 0.0000000000000000e+00  3.2084190380683916e-08 7.7661120449027311e-09 0.0000000000000000e+00  1.7905613400298937e-08 1.4419988360232523e-08 0.0000000000000000e+00  -3.3238123283359719e-10 2.5441939389415669e-08 0.0000000000000000e+00  -6.3924156867015343e-09 5.0723097374726294e-09 0.0000000000000000e+00  -1.0847817355198864e-09 -1.7963416298305502e-09 0.0000000000000000e+00  -6.5424161278516612e-09 -2.9819127243470503e-08 0.0000000000000000e+00  -2.6643937177906587e-09 -2.6249477128591750e-08 0.0000000000000000e+00  6.4539141154533164e-09 -1.8734496566115536e-08 0.0000000000000000e+00  1.5650395616649701e-08 -1.2830642059219009e-08 0.0000000000000000e+00  2.3074959251201765e-08 -8.7770170780247595e-09 0.0000000000000000e+00  2.8618693344535758e-08 -5.9845389595970245e-09 0.0000000000000000e+00  3.2560002900627715e-08 -3.9741518114961596e-09 0.0000000000000000e+00  3.5177143644139109e-08 -2.4328430387004686e-09 0.0000000000000000e+00  3.6670474675858179e-08 -1.1564194094529256e-09 0.0000000000000000e+00  3.7156293577810013e-08 3.0219944677067906e-13 0.0000000000000000e+00  3.6672632227815191e-08 1.1572003666567036e-09 0.0000000000000000e+00  3.5182286527240928e-08 2.4342412710834690e-09 0.0000000000000000e+00  3.2570417835818691e-08 3.9769442178599703e-09 0.0000000000000000e+00  2.8639960735932523e-08 5.9905124278461905e-09 0.0000000000000000e+00  2.3120764874947037e-08 8.7919250825281285e-09 0.0000000000000000e+00  1.5753431284437066e-08 1.2876554714283148e-08 0.0000000000000000e+00  6.6597283906705798e-09 1.8871032722351111e-08 0.0000000000000000e+00  -2.4165646773570400e-09 2.6487917926622124e-08 0.0000000000000000e+00  -6.0733406729724627e-09 2.8974765901507367e-08 0.0000000000000000e+00  -1.8791058685635667e-09 2.3550768626437885e-09 0.0000000000000000e+00  -1.3345572216644417e-10 -9.6254619367962645e-10 0.0000000000000000e+00  -4.3950352755557462e-09 -2.5405068171484351e-08 0.0000000000000000e+00  -6.4240999579009568e-09 -2.9815864005988884e-08 0.0000000000000000e+00  -3.8448941394756628e-09 -2.5698451582498759e-08 0.0000000000000000e+00  1.3168677665107444e-09 -1.9940528670193073e-08 0.0000000000000000e+00  6.8609417642299912e-09 -1.4781990426472374e-08 0.0000000000000000e+00  1.1712222565673208e-08 -1.0613231943756804e-08 0.0000000000000000e+00  1.5503233332423465e-08 -7.2847454523218988e-09 0.0000000000000000e+00  1.8169945050553056e-08 -4.5517241109573950e-09 0.0000000000000000e+00  1.9743496080161216e-08 -2.1883975347684038e-09 0.0000000000000000e+00  2.0263842395972145e-08 -6.6148356920689629e-13 0.0000000000000000e+00  1.9747310035655992e-08 2.1872192119262528e-09 0.0000000000000000e+00  1.8178486880606169e-08 4.5511094188410235e-09 0.0000000000000000e+00  1.5518665021208197e-08 7.2856425119735213e-09 0.0000000000000000e+00  1.1738611208399641e-08 1.0618132285343723e-08 0.0000000000000000e+00  6.9041991657877602e-09 1.4797525462526151e-08 0.0000000000000000e+00  1.3777186705316074e-09 1.9980893764215079e-08 0.0000000000000000e+00  -3.7829722536250530e-09 2.5765238687233931e-08 0.0000000000000000e+00  -6.3770739700760641e-09 2.9764790230641518e-08 0.0000000000000000e+00  -4.1673758819279136e-09 2.5024070564511274e-08 0.0000000000000000e+00  -2.2442118591494080e-10 1.3855686927284461e-09 0.0000000000000000e+00  6.3031986079199723e-11 -5.9569655626866942e-10 0.0000000000000000e+00  -2.9176553536808642e-09 -2.0847967747280317e-08 0.0000000000000000e+00  -6.3118680427811731e-09 -2.8510132262497645e-08 0.0000000000000000e+00  -7.2695999073947339e-09 -2.7966257605096547e-08 0.0000000000000000e+00  -5.7146194114423287e-09 -2.3921652619648986e-08 0.0000000000000000e+00  -2.8444385687222539e-09 -1.9021401773133909e-08 0.0000000000000000e+00  2.9555363276253464e-10 -1.4342462075304384e-08 0.0000000000000000e+00  3.0778264196467175e-09 -1.0176256070905696e-08 0.0000000000000000e+00  5.1881518267880666e-09 -6.4949721295316232e-09 0.0000000000000000e+00  6.4888143497182191e-09 -3.1599469488478262e-09 0.0000000000000000e+00  6.9277869074084545e-09 -1.1071691596362540e-12 0.0000000000000000e+00  6.4924574303614176e-09 3.1579331341750227e-09 0.0000000000000000e+00  5.1958386532393101e-09 6.4937093810523032e-09 0.0000000000000000e+00  3.0902598811978894e-09 1.0176816029269834e-08 0.0000000000000000e+00  3.1325848860094761e-10 1.4346893761440288e-08 0.0000000000000000e+00  -2.8222910594679350e-09 1.9032257580885534e-08 0.0000000000000000e+00  -5.6910619272407303e-09 2.3936065303324696e-08 0.0000000000000000e+00  -7.2485118943555304e-09 2.7958422173722272e-08 0.0000000000000000e+00  -6.2882620486669014e-09 2.8418710659432469e-08 0.0000000000000000e+00  -2.8414843222342866e-09 2.0725768096530709e-08 0.0000000000000000e+00  2.4785566909081353e-11 8.7036853083866998e-10 0.0000000000000000e+00  8.8758425312537335e-11 -3.9252877708151927e-10 0.0000000000000000e+00  -2.1064739964799305e-09 -1.7150848131834127e-08 0.0000000000000000e+00  -5.5215318276865997e-09 -2.5528989014326592e-08 0.0000000000000000e+00  -8.0228971001276228e-09 -2.7259381578314817e-08 0.0000000000000000e+00  -8.7998961055693072e-09 -2.5064457238012280e-08 0.0000000000000000e+00  -8.2010902988846569e-09 -2.1097872057046250e-08 0.0000000000000000e+00  -6.8752259789331661e-09 -1.6599462087762900e-08 0.0000000000000000e+00  -5.3846950505731951e-09 -1.2139954256974426e-08 0.0000000000000000e+00  -4.1088415383268873e-09 -7.9058270136700324e-09 0.0000000000000000e+00  -3.2695287571908701e-09 -3.8908716418173047e-09 0.0000000000000000e+00  -2.9778373685813387e-09 -1.7221025626652707e-12 0.0000000000000000e+00  -3.2670405426312196e-09 3.8876214380174979e-09 0.0000000000000000e+00  -4.1039382849192327e-09 7.9032453537135688e-09 0.0000000000000000e+00  -5.3776822747932862e-09 1.2138729772600107e-08 0.0000000000000000e+00  -6.8669395146019126e-09 1.6600328788928285e-08 0.0000000000000000e+00  -8.1931410170581083e-09 2.1100311901316404e-08 0.0000000000000000e+00  -8.7940590684574954e-09 2.5062681022975833e-08 0.0000000000000000e+00  -8.0176553730761119e-09 2.7237350443462568e-08 0.0000000000000000e+00  -5.5158148237125452e-09 2.5480810630169792e-08 0.0000000000000000e+00  -2.0859576346786213e-09 1.7120108213966735e-08 0.0000000000000000e+00  7.1288527231959373e-11 5.4986100871402806e-10 0.0000000000000000e+00  8.5190532948408560e-11 -2.7262377198410429e-10 0.0000000000000000e+00  -1.6311479320994377e-09 -1.4153990462162359e-08 0.0000000000000000e+00  -4.7583575920909839e-09 -2.2181192850896437e-08 0.0000000000000000e+00  -7.8220272882181713e-09 -2.5042188821037457e-08 0.0000000000000000e+00  -9.9012181467756712e-09 -2.4253737079542623e-08 0.0000000000000000e+00  -1.0884172953931495e-08 -2.1333782960842737e-08 0.0000000000000000e+00  -1.1045364054557155e-08 -1.7380831573326093e-08 0.0000000000000000e+00  -1.0755127387122251e-08 -1.3046139247857647e-08 0.0000000000000000e+00  -1.0330743228956388e-08 -8.6487770121131273e-09 0.0000000000000000e+00  -9.9928446603381279e-09 -4.3009618689275403e-09 0.0000000000000000e+00  -9.8664603534699920e-09 -2.0942231515627414e-12 0.0000000000000000e+00  -9.9917058901606733e-09 4.2969460638605449e-09 0.0000000000000000e+00  -1.0328713614582733e-08 8.6452945609904703e-09 0.0000000000000000e+00  -1.0752736007465144e-08 1.3043513628615061e-08 0.0000000000000000e+00  -1.1043406287064016e-08 1.7378982686267693e-08 0.0000000000000000e+00  -1.0883498749844779e-08 2.1331277226004686e-08 0.0000000000000000e+00  -9.9024237727258362e-09 2.4246683612638695e-08 0.0000000000000000e+00  -7.8238583401405793e-09 2.5025851170504103e-08 0.0000000000000000e+00  -4.7615931199853992e-09 2.2161529255965798e-08 0.0000000000000000e+00  -1.6259968297141062e-09 1.4149872721118733e-08 0.0000000000000000e+00  7.9014730477030455e-11 3.6799071426923837e-10 0.0000000000000000e+00  7.7569993225948481e-11 -1.9605553068876593e-10 0.0000000000000000e+00  -1.3254102711052707e-09 -1.1662456805510752e-08 0.0000000000000000e+00  -4.1270539262432853e-09 -1.8902522415784903e-08 0.0000000000000000e+00  -7.3053998641742907e-09 -2.2159780693472654e-08 0.0000000000000000e+00  -1.0030060326285519e-08 -2.2274277282582894e-08 0.0000000000000000e+00  -1.1991437684192842e-08 -2.0254570446429946e-08 0.0000000000000000e+00  -1.3210718909893326e-08 -1.6963237558862456e-08 0.0000000000000000e+00  -1.3865818920558115e-08 -1.3007273339856113e-08 0.0000000000000000e+00  -1.4162948458563093e-08 -8.7536610073176149e-09 0.0000000000000000e+00  -1.4270788408038167e-08 -4.3921021107906745e-09 0.0000000000000000e+00  -1.4294854317968924e-08 -2.2514578487135558e-12 0.0000000000000000e+00  -1.4270692726345559e-08 4.3877401339787614e-09 0.0000000000000000e+00  -1.4162967767881621e-08 8.7496943416705294e-09 0.0000000000000000e+00  -1.3866333976555750e-08 1.3003817369814935e-08 0.0000000000000000e+00  -1.3212170816932274e-08 1.6960004557238401e-08 0.0000000000000000e+00  -1.1994134352352624e-08 2.0250524700823061e-08 0.0000000000000000e+00  -1.0034094082223251e-08 2.2267848123045249e-08 0.0000000000000000e+00  -7.3099049551925486e-09 2.2150822280449767e-08 0.0000000000000000e+00  -4.1324233197624585e-09 1.8895940886461103e-08 0.0000000000000000e+00  -1.3238818738664699e-09 1.1665248134199338e-08 0.0000000000000000e+00  7.6419669877039120e-11 2.5833357119907001e-10 0.0000000000000000e+00  7.0159563654251313e-11 -1.4349692414046057e-10 0.0000000000000000e+00  -1.1120256352903526e-09 -9.5438338150032887e-09 0.0000000000000000e+00  -3.6134789878421799e-09 -1.5832806354804054e-08 0.0000000000000000e+00  -6.7077976979579479e-09 -1.9055178531164589e-08 0.0000000000000000e+00  -9.6931353926657316e-09 -1.9672510733154724e-08 0.0000000000000000e+00  -1.2196613938675011e-08 -1.8338293186175975e-08 0.0000000000000000e+00  -1.4092707568890302e-08 -1.5689553804910482e-08 0.0000000000000000e+00  -1.5411582613926967e-08 -1.2236668207333117e-08 0.0000000000000000e+00  -1.6248821485900514e-08 -8.3364362390904806e-09 0.0000000000000000e+00  -1.6704262602202047e-08 -4.2136634735911902e-09 0.0000000000000000e+00  -1.6847976256328474e-08 -2.2369977742574408e-12 0.0000000000000000e+00  -1.6704785556709500e-08 4.2093024335340802e-09 0.0000000000000000e+00  -1.6249980400225503e-08 8.3323758922145385e-09 0.0000000000000000e+00  -1.5413554458798025e-08 1.2232962985721246e-08 0.0000000000000000e+00  -1.4095645743413546e-08 1.5686009921383999e-08 0.0000000000000000e+00  -1.2200540003996123e-08 1.8334460024964663e-08 0.0000000000000000e+00  -9.6979180816386755e-09 1.9668110012476742e-08 0.0000000000000000e+00  -6.7126651609256681e-09 1.9051023724351564e-08 0.0000000000000000e+00  -3.6184039505853782e-09 1.5831556801542622e-08 0.0000000000000000e+00  -1.1112571113281751e-09 9.5477818922308489e-09 0.0000000000000000e+00  7.1120489167222820e-11 1.8669080290178914e-10 0.0000000000000000e+00  6.3649223430600066e-11 -1.0541296715317852e-10 0.0000000000000000e+00  -9.5381656150352288e-10 -7.7108902437926143e-09 0.0000000000000000e+00  -3.1923781563300360e-09 -1.3007994137440123e-08 0.0000000000000000e+00  -6.1199328724903126e-09 -1.5952511203716096e-08 0.0000000000000000e+00  -9.1511693736230894e-09 -1.6792117804640695e-08 0.0000000000000000e+00  -1.1909689486742895e-08 -1.5944687811788639e-08 0.0000000000000000e+00  -1.4193854293535227e-08 -1.3865088851747965e-08 0.0000000000000000e+00  -1.5934185795392517e-08 -1.0957520938442933e-08 0.0000000000000000e+00  -1.7136807320679641e-08 -7.5376177971136327e-09 0.0000000000000000e+00  -1.7836661167118830e-08 -3.8324235332414417e-09 0.0000000000000000e+00  -1.8066028604316705e-08 -2.1130379860598835e-12 0.0000000000000000e+00  -1.7837451838052361e-08 3.8282923644218561e-09 0.0000000000000000e+00  -1.7138421252877606e-08 7.5337413680145984e-09 0.0000000000000000e+00  -1.5936655401004943e-08 1.0953972194025552e-08 0.0000000000000000e+00  -1.4197161690768168e-08 1.3861828552435659e-08 0.0000000000000000e+00  -1.1913709533572255e-08 1.5941646086702141e-08 0.0000000000000000e+00  -9.1556612868665083e-09 1.6789469640052217e-08 0.0000000000000000e+00  -6.1241900979748412e-09 1.5950937718634798e-08 0.0000000000000000e+00  -3.1962727789831297e-09 1.3008713098934891e-08 0.0000000000000000e+00  -9.5316658942924149e-10 7.7144895513274960e-09 0.0000000000000000e+00  6.5435513100791644e-11 1.3683507916387978e-10 0.0000000000000000e+00  5.8120757163926931e-11 -7.6685961688145998e-11 0.0000000000000000e+00  -8.3230960034676980e-10 -6.1029836300609551e-09 0.0000000000000000e+00  -2.8463976033900158e-09 -1.0423528987009223e-08 0.0000000000000000e+00  -5.5821111454234361e-09 -1.2958949674738727e-08 0.0000000000000000e+00  -8.5478101883408766e-09 -1.3835636914426181e-08 0.0000000000000000e+00  -1.1386303969460875e-08 -1.3317796131823475e-08 0.0000000000000000e+00  -1.3861109743058468e-08 -1.1722953484477569e-08 0.0000000000000000e+00  -1.5840925352936582e-08 -9.3583764852489339e-09 0.0000000000000000e+00  -1.7267410569850875e-08 -6.4858741577586966e-09 0.0000000000000000e+00  -1.8123435043028108e-08 -3.3128711379508243e-09 0.0000000000000000e+00  -1.8408560588751421e-08 -1.9334703135684839e-12 0.0000000000000000e+00  -1.8124262417288556e-08 3.3090905179982234e-09 0.0000000000000000e+00  -1.7269051144958182e-08 6.4823345446956320e-09 0.0000000000000000e+00  -1.5843333811818666e-08 9.3551876810159836e-09 0.0000000000000000e+00  -1.3864184918472254e-08 1.1720186785046353e-08 0.0000000000000000e+00  -1.1389859022075963e-08 1.3315550152641384e-08 0.0000000000000000e+00  -8.5515738045856222e-09 1.3834155178796358e-08 0.0000000000000000e+00  -5.5854885466146412e-09 1.2958626871669664e-08 0.0000000000000000e+00  -2.8493026318610617e-09 1.0424852556507179e-08 0.0000000000000000e+00  -8.3167226192822307e-10 6.1059836129334089e-09 0.0000000000000000e+00  6.0121288958007578e-11 1.0044175508830368e-10 0.0000000000000000e+00  5.3583072926824566e-11 -5.4283576218434840e-11 0.0000000000000000e+00  -7.3829766248073383e-10 -4.6738311801027098e-09 0.0000000000000000e+00  -2.5663883489738776e-09 -8.0563260579605232e-09 0.0000000000000000e+00  -5.1168249251052840e-09 -1.0116256318676334e-08 0.0000000000000000e+00  -7.9693661433244376e-09 -1.0912401900967425e-08 0.0000000000000000e+00  -1.0791706552350367e-08 -1.0609162578700898e-08 0.0000000000000000e+00  -1.3334676174390527e-08 -9.4230813378727891e-09 0.0000000000000000e+00  -1.5431145848501935e-08 -7.5790445710139690e-09 0.0000000000000000e+00  -1.6979863005611580e-08 -5.2822990799159157e-09 0.0000000000000000e+00  -1.7925972522075059e-08 -2.7075442499464736e-09 0.0000000000000000e+00  -1.8243996058794360e-08 -1.7405393806884256e-12 0.0000000000000000e+00  -1.7926705766044661e-08 2.7041465470662474e-09 0.0000000000000000e+00  -1.6981295723624359e-08 5.2791422230181463e-09 0.0000000000000000e+00  -1.5433203027599624e-08 7.5762652608513528e-09 0.0000000000000000e+00  -1.3337230964823866e-08 9.4208041971785739e-09 0.0000000000000000e+00  -1.0794566483481101e-08 1.0607531115663011e-08 0.0000000000000000e+00  -7.9722837128311707e-09 1.0911609549096210e-08 0.0000000000000000e+00  -5.1193406933494708e-09 1.0116486907133767e-08 0.0000000000000000e+00  -2.5684757937223048e-09 8.0577455430763552e-09 0.0000000000000000e+00  -7.3769861637934164e-10 4.6763179484556807e-09 0.0000000000000000e+00  5.5466092849168459e-11 7.2864423598157948e-11 0.0000000000000000e+00  5.0060877092081198e-11 -3.6207964453589495e-11 0.0000000000000000e+00  -6.6731513150218982e-10 -3.3843094348659231e-09 0.0000000000000000e+00  -2.3486627566857341e-09 -5.8729116380826111e-09 0.0000000000000000e+00  -4.7395077145306120e-09 -7.4273407419693099e-09 0.0000000000000000e+00  -7.4716906122302786e-09 -8.0706934390790576e-09 0.0000000000000000e+00  -1.0235875182536008e-08 -7.9022243794083898e-09 0.0000000000000000e+00  -1.2780906917021645e-08 -7.0640455204842437e-09 0.0000000000000000e+00  -1.4920279264045204e-08 -5.7124001693755936e-09 0.0000000000000000e+00  -1.6526011239751973e-08 -3.9975692675542918e-09 0.0000000000000000e+00  -1.7518018487690526e-08 -2.0543080975092135e-09 0.0000000000000000e+00  -1.7853353151276006e-08 -1.5648891162486916e-12 0.0000000000000000e+00  -1.7518593067844390e-08 2.0512608551374505e-09 0.0000000000000000e+00  -1.6527124405365652e-08 3.9947646682186834e-09 0.0000000000000000e+00  -1.4921856268120246e-08 5.7099870875638618e-09 0.0000000000000000e+00  -1.2782830843257185e-08 7.0621638716827803e-09 0.0000000000000000e+00  -1.0237982592115772e-08 7.9010112686521091e-09 0.0000000000000000e+00  -7.4737867286534532e-09 8.0702794371959400e-09 0.0000000000000000e+00  -4.7412657157213306e-09 7.4277900156082352e-09 0.0000000000000000e+00  -2.3500932977311196e-09 5.8742686603996073e-09 0.0000000000000000e+00  -6.6680693900463145e-10 3.3864300044637212e-09 0.0000000000000000e+00  5.1623023398850897e-11 5.1271035939546078e-11 0.0000000000000000e+00  4.7593122085140912e-11 -2.0991233979895154e-11 0.0000000000000000e+00  -6.1732201592120538e-10 -2.1984842307533172e-09 0.0000000000000000e+00  -2.1925014399558358e-09 -3.8329335694810363e-09 0.0000000000000000e+00  -4.4616994585623813e-09 -4.8708867285908424e-09 0.0000000000000000e+00  -7.0922118651692223e-09 -5.3188396288323775e-09 0.0000000000000000e+00  -9.7924163123710250e-09 -5.2325973756719030e-09 0.0000000000000000e+00  -1.2313259809486093e-