<?xml version="1.0"?>
<VTKFile type="UnstructuredGrid"  version="0.1"  >
<UnstructuredGrid>
<Piece  NumberOfPoints="651" NumberOfCells="1200">
<Points>
<DataArray  type="Float64"  NumberOfComponents="3"  format="ascii">0 0 0  50000 0 0  100000 0 0  150000 0 0  200000 0 0  250000 0 0  300000 0 0  350000 0 0  400000 0 0  450000 0 0  500000 0 0  550000 0 0  600000 0 0  650000 0 0  700000 0 0  750000 0 0  800000 0 0  850000 0 0  900000 0 0  950000 0 0  1000000 0 0  0 50000 0  50000 50000 0  100000 50000 0  150000 50000 0  200000 50000 0  250000 50000 0  300000 50000 0  350000 50000 0  400000 50000 0  450000 50000 0  500000 50000 0  550000 50000 0  600000 50000 0  650000 50000 0  700000 50000 0  750000 50000 0  800000 50000 0  850000 50000 0  900000 50000 0  950000 50000 0  1000000 50000 0  0 100000 0  50000 100000 0  100000 100000 0  150000 100000 0  200000 100000 0  250000 100000 0  300000 100000 0  350000 100000 0  400000 100000 0  450000 100000 0  500000 100000 0  550000 100000 0  600000 100000 0  650000 100000 0  700000 100000 0  750000 100000 0  800000 100000 0  850000 100000 0  900000 100000 0  950000 100000 0  1000000 100000 0  0 150000 0  50000 150000 0  100000 150000 0  150000 150000 0  200000 150000 0  250000 150000 0  300000 150000 0  350000 150000 0  400000 150000 0  450000 150000 0  500000 150000 0  550000 150000 0  600000 150000 0  650000 150000 0  700000 150000 0  750000 150000 0  800000 150000 0  850000 150000 0  900000 150000 0  950000 150000 0  1000000 150000 0  0 200000 0  50000 200000 0  100000 200000 0  150000 200000 0  200000 200000 0  250000 200000 0  300000 200000 0  350000 200000 0  400000 200000 0  450000 200000 0  500000 200000 0  550000 200000 0  600000 200000 0  650000 200000 0  700000 200000 0  750000 200000 0  800000 200000 0  850000 200000 0  900000 200000 0  950000 200000 0  1000000 200000 0  0 250000 0  50000 250000 0  100000 250000 0  150000 250000 0  200000 250000 0  250000 250000 0  300000 250000 0  350000 250000 0  400000 250000 0  450000 250000 0  500000 250000 0  550000 250000 0  600000 250000 0  650000 250000 0  700000 250000 0  750000 250000 0  800000 250000 0  850000 250000 0  900000 250000 0  950000 250000 0  1000000 250000 0  0 300000 0  50000 300000 0  100000 300000 0  150000 300000 0  200000 300000 0  250000 300000 0  300000 300000 0  350000 300000 0  400000 300000 0  450000 300000 0  500000 300000 0  550000 300000 0  600000 300000 0  650000 300000 0  700000 300000 0  750000 300000 0  800000 300000 0  850000 300000 0  900000 300000 0  950000 300000 0  1000000 300000 0  0 350000 0  50000 350000 0  100000 350000 0  150000 350000 0  200000 350000 0  250000 350000 0  300000 350000 0  350000 350000 0  400000 350000 0  450000 350000 0  500000 350000 0  550000 350000 0  600000 350000 0  650000 350000 0  700000 350000 0  750000 350000 0  800000 350000 0  850000 350000 0  900000 350000 0  950000 350000 0  1000000 350000 0  0 400000 0  50000 400000 0  100000 400000 0  150000 400000 0  200000 400000 0  250000 400000 0  300000 400000 0  350000 400000 0  400000 400000 0  450000 400000 0  500000 400000 0  550000 400000 0  600000 400000 0  650000 400000 0  700000 400000 0  750000 400000 0  800000 400000 0  850000 400000 0  900000 400000 0  950000 400000 0  1000000 400000 0  0 450000 0  50000 450000 0  100000 450000 0  150000 450000 0  200000 450000 0  250000 450000 0  300000 450000 0  350000 450000 0  400000 450000 0  450000 450000 0  500000 450000 0  550000 450000 0  600000 450000 0  650000 450000 0  700000 450000 0  750000 450000 0  800000 450000 0  850000 450000 0  900000 450000 0  950000 450000 0  1000000 450000 0  0 500000 0  50000 500000 0  100000 500000 0  150000 500000 0  200000 500000 0  250000 500000 0  300000 500000 0  350000 500000 0  400000 500000 0  450000 500000 0  500000 500000 0  550000 500000 0  600000 500000 0  650000 500000 0  700000 500000 0  750000 500000 0  800000 500000 0  850000 500000 0  900000 500000 0  950000 500000 0  1000000 500000 0  0 550000 0  50000 550000 0  100000 550000 0  150000 550000 0  200000 550000 0  250000 550000 0  300000 550000 0  350000 550000 0  400000 550000 0  450000 550000 0  500000 550000 0  550000 550000 0  600000 550000 0  650000 550000 0  700000 550000 0  750000 550000 0  800000 550000 0  850000 550000 0  900000 550000 0  950000 550000 0  1000000 550000 0  0 600000 0  50000 600000 0  100000 600000 0  150000 600000 0  200000 600000 0  250000 600000 0  300000 600000 0  350000 600000 0  400000 600000 0  450000 600000 0  500000 600000 0  550000 600000 0  600000 600000 0  650000 600000 0  700000 600000 0  750000 600000 0  800000 600000 0  850000 600000 0  900000 600000 0  950000 600000 0  1000000 600000 0  0 650000 0  50000 650000 0  100000 650000 0  150000 650000 0  200000 650000 0  250000 650000 0  300000 650000 0  350000 650000 0  400000 650000 0  450000 650000 0  500000 650000 0  550000 650000 0  600000 650000 0  650000 650000 0  700000 650000 0  750000 650000 0  800000 650000 0  850000 650000 0  900000 650000 0  950000 650000 0  1000000 650000 0  0 700000 0  50000 700000 0  100000 700000 0  150000 700000 0  200000 700000 0  250000 700000 0  300000 700000 0  350000 700000 0  400000 700000 0  450000 700000 0  500000 700000 0  550000 700000 0  600000 700000 0  650000 700000 0  700000 700000 0  750000 700000 0  800000 700000 0  850000 700000 0  900000 700000 0  950000 700000 0  1000000 700000 0  0 750000 0  50000 750000 0  100000 750000 0  150000 750000 0  200000 750000 0  250000 750000 0  300000 750000 0  350000 750000 0  400000 750000 0  450000 750000 0  500000 750000 0  550000 750000 0  600000 750000 0  650000 750000 0  700000 750000 0  750000 750000 0  800000 750000 0  850000 750000 0  900000 750000 0  950000 750000 0  1000000 750000 0  0 800000 0  50000 800000 0  100000 800000 0  150000 800000 0  200000 800000 0  250000 800000 0  300000 800000 0  350000 800000 0  400000 800000 0  450000 800000 0  500000 800000 0  550000 800000 0  600000 800000 0  650000 800000 0  700000 800000 0  750000 800000 0  800000 800000 0  850000 800000 0  900000 800000 0  950000 800000 0  1000000 800000 0  0 850000 0  50000 850000 0  100000 850000 0  150000 850000 0  200000 850000 0  250000 850000 0  300000 850000 0  350000 850000 0  400000 850000 0  450000 850000 0  500000 850000 0  550000 850000 0  600000 850000 0  650000 850000 0  700000 850000 0  750000 850000 0  800000 850000 0  850000 850000 0  900000 850000 0  950000 850000 0  1000000 850000 0  0 900000 0  50000 900000 0  100000 900000 0  150000 900000 0  200000 900000 0  250000 900000 0  300000 900000 0  350000 900000 0  400000 900000 0  450000 900000 0  500000 900000 0  550000 900000 0  600000 900000 0  650000 900000 0  700000 900000 0  750000 900000 0  800000 900000 0  850000 900000 0  900000 900000 0  950000 900000 0  1000000 900000 0  0 950000 0  50000 950000 0  100000 950000 0  150000 950000 0  200000 950000 0  250000 950000 0  300000 950000 0  350000 950000 0  400000 950000 0  450000 950000 0  500000 950000 0  550000 950000 0  600000 950000 0  650000 950000 0  700000 950000 0  750000 950000 0  800000 950000 0  850000 950000 0  900000 950000 0  950000 950000 0  1000000 950000 0  0 1000000 0  50000 1000000 0  100000 1000000 0  150000 1000000 0  200000 1000000 0  250000 1000000 0  300000 1000000 0  350000 1000000 0  400000 1000000 0  450000 1000000 0  500000 1000000 0  550000 1000000 0  600000 1000000 0  650000 1000000 0  700000 1000000 0  750000 1000000 0  800000 1000000 0  850000 1000000 0  900000 1000000 0  950000 1000000 0  1000000 1000000 0  0 1050000 0  50000 1050000 0  100000 1050000 0  150000 1050000 0  200000 1050000 0  250000 1050000 0  300000 1050000 0  350000 1050000 0  400000 1050000 0  450000 1050000 0  500000 1050000 0  550000 1050000 0  600000 1050000 0  650000 1050000 0  700000 1050000 0  750000 1050000 0  800000 1050000 0  850000 1050000 0  900000 1050000 0  950000 1050000 0  1000000 1050000 0  0 1100000 0  50000 1100000 0  100000 1100000 0  150000 1100000 0  200000 1100000 0  250000 1100000 0  300000 1100000 0  350000 1100000 0  400000 1100000 0  450000 1100000 0  500000 1100000 0  550000 1100000 0  600000 1100000 0  650000 1100000 0  700000 1100000 0  750000 1100000 0  800000 1100000 0  850000 1100000 0  900000 1100000 0  950000 1100000 0  1000000 1100000 0  0 1150000 0  50000 1150000 0  100000 1150000 0  150000 1150000 0  200000 1150000 0  250000 1150000 0  300000 1150000 0  350000 1150000 0  400000 1150000 0  450000 1150000 0  500000 1150000 0  550000 1150000 0  600000 1150000 0  650000 1150000 0  700000 1150000 0  750000 1150000 0  800000 1150000 0  850000 1150000 0  900000 1150000 0  950000 1150000 0  1000000 1150000 0  0 1200000 0  50000 1200000 0  100000 1200000 0  150000 1200000 0  200000 1200000 0  250000 1200000 0  300000 1200000 0  350000 1200000 0  400000 1200000 0  450000 1200000 0  500000 1200000 0  550000 1200000 0  600000 1200000 0  650000 1200000 0  700000 1200000 0  750000 1200000 0  800000 1200000 0  850000 1200000 0  900000 1200000 0  950000 1200000 0  1000000 1200000 0  0 1250000 0  50000 1250000 0  100000 1250000 0  150000 1250000 0  200000 1250000 0  250000 1250000 0  300000 1250000 0  350000 1250000 0  400000 1250000 0  450000 1250000 0  500000 1250000 0  550000 1250000 0  600000 1250000 0  650000 1250000 0  700000 1250000 0  750000 1250000 0  800000 1250000 0  850000 1250000 0  900000 1250000 0  950000 1250000 0  1000000 1250000 0  0 1300000 0  50000 1300000 0  100000 1300000 0  150000 1300000 0  200000 1300000 0  250000 1300000 0  300000 1300000 0  350000 1300000 0  400000 1300000 0  450000 1300000 0  500000 1300000 0  550000 1300000 0  600000 1300000 0  650000 1300000 0  700000 1300000 0  750000 1300000 0  800000 1300000 0  850000 1300000 0  900000 1300000 0  950000 1300000 0  1000000 1300000 0  0 1350000 0  50000 1350000 0  100000 1350000 0  150000 1350000 0  200000 1350000 0  250000 1350000 0  300000 1350000 0  350000 1350000 0  400000 1350000 0  450000 1350000 0  500000 1350000 0  550000 1350000 0  600000 1350000 0  650000 1350000 0  700000 135
[...]
<PointData  Vectors="f_10477"> 
<DataArray  type="Float64"  Name="f_10477"  NumberOfComponents="3" format="ascii">-6.3951529732388108e-09 -3.6056956282088552e-09 0.0000000000000000e+00  7.4736614150396727e-08 -2.3270087148584859e-09 0.0000000000000000e+00  7.7809391018404935e-08 -1.4244777980495218e-10 0.0000000000000000e+00  7.8862821704989117e-08 2.5545015974032947e-10 0.0000000000000000e+00  7.9358742790350131e-08 2.3324630079157204e-10 0.0000000000000000e+00  7.9585927501119470e-08 1.6168542490944396e-10 0.0000000000000000e+00  7.9695365873945527e-08 1.0359731434343851e-10 0.0000000000000000e+00  7.9750392324385205e-08 6.3110179355248051e-11 0.0000000000000000e+00  7.9777906739384355e-08 3.4857631327978062e-11 0.0000000000000000e+00  7.9789593596470577e-08 1.3539604756125633e-11 0.0000000000000000e+00  7.9789948546096129e-08 -5.0160047185362434e-12 0.0000000000000000e+00  7.9779155007339033e-08 -2.4366612137425588e-11 0.0000000000000000e+00  7.9753274608894902e-08 -4.8156451097130551e-11 0.0000000000000000e+00  7.9701942806061232e-08 -8.0753248434870296e-11 0.0000000000000000e+00  7.9601706262961067e-08 -1.2759252075596153e-10 0.0000000000000000e+00  7.9398994060463991e-08 -1.9391987782925302e-10 0.0000000000000000e+00  7.8972093847647027e-08 -2.7251240495179919e-10 0.0000000000000000e+00  7.8094957066293724e-08 -2.4706229066713568e-10 0.0000000000000000e+00  7.6361820592520525e-08 7.7666163939817787e-10 0.0000000000000000e+00  7.2296509620702562e-08 5.1206609756130292e-09 0.0000000000000000e+00  -8.5180350311088022e-09 5.2111668688862090e-09 0.0000000000000000e+00  -4.4627004575541546e-09 -4.1017617755128675e-09 0.0000000000000000e+00  -5.8178031977705529e-10 -2.3064926009478455e-08 0.0000000000000000e+00  1.6811015273648878e-08 -1.3767070272411461e-08 0.0000000000000000e+00  3.0481176303513693e-08 -7.4220446707855594e-09 0.0000000000000000e+00  3.8902704868659987e-08 -4.1035668008471760e-09 0.0000000000000000e+00  4.3996754861153537e-08 -2.3568553132549090e-09 0.0000000000000000e+00  4.7093217089474946e-08 -1.3881840873888426e-09 0.0000000000000000e+00  4.8971061506246015e-08 -8.1808015750192408e-10 0.0000000000000000e+00  5.0076555823619838e-08 -4.5840616625976345e-10 0.0000000000000000e+00  5.0657517824243067e-08 -2.0705700610971519e-10 0.0000000000000000e+00  5.0837959143792153e-08 -1.9009251518372967e-12 0.0000000000000000e+00  5.0655384267303629e-08 2.0283656290929068e-10 0.0000000000000000e+00  5.0072240079774659e-08 4.5274583590792892e-10 0.0000000000000000e+00  4.8964962803107575e-08 8.0925329539217622e-10 0.0000000000000000e+00  4.7087979612674880e-08 1.3725402198120369e-09 0.0000000000000000e+00  4.4003110805717091e-08 2.3260306825972712e-09 0.0000000000000000e+00  3.8957358948204995e-08 4.0451363936555458e-09 0.0000000000000000e+00  3.0711282309761789e-08 7.3890854014644504e-09 0.0000000000000000e+00  1.7637308302998869e-08 1.4207534883594541e-08 0.0000000000000000e+00  4.2548333546138819e-10 2.4802886423365084e-08 0.0000000000000000e+00  -7.0714694644823046e-09 5.6158454401728743e-09 0.0000000000000000e+00  -1.3465458689236925e-09 -2.4333945951174546e-09 0.0000000000000000e+00  -6.7828829171192532e-09 -2.9048149007845756e-08 0.0000000000000000e+00  -3.7479281730501497e-09 -2.4849745477652009e-08 0.0000000000000000e+00  4.0009728215267469e-09 -1.6932454073924709e-08 0.0000000000000000e+00  1.1529275140578677e-08 -1.0846409116971163e-08 0.0000000000000000e+00  1.7242345095946781e-08 -6.8318348709898858e-09 0.0000000000000000e+00  2.1199359787967261e-08 -4.2643510996900724e-09 0.0000000000000000e+00  2.3804276161150862e-08 -2.6070136446739118e-09 0.0000000000000000e+00  2.5419941348985406e-08 -1.4928314261994431e-09 0.0000000000000000e+00  2.6296242962967442e-08 -6.7927286550028919e-10 0.0000000000000000e+00  2.6573559500801542e-08 1.4235435727896210e-12 0.0000000000000000e+00  2.6296917754104910e-08 6.8241126635854518e-10 0.0000000000000000e+00  2.5422288660080428e-08 1.4969486208391689e-09 0.0000000000000000e+00  2.3811133639576682e-08 2.6132113708346687e-09 0.0000000000000000e+00  2.1217789336924167e-08 4.2750439415580670e-09 0.0000000000000000e+00  1.7289763524309042e-08 6.8543973581259881e-09 0.0000000000000000e+00  1.1648078162009983e-08 1.0905795499733631e-08 0.0000000000000000e+00  4.2577676419216900e-09 1.7081120178402755e-08 0.0000000000000000e+00  -3.3926747611312887e-09 2.5034548848906515e-08 0.0000000000000000e+00  -6.4191420815659823e-09 2.8112128616132433e-08 0.0000000000000000e+00  -2.3260257081961960e-09 3.0276465896066321e-09 0.0000000000000000e+00  -1.9144445739697558e-10 -1.3412703349560627e-09 0.0000000000000000e+00  -4.9805044123682486e-09 -2.4187743254622411e-08 0.0000000000000000e+00  -7.9329426212544957e-09 -2.7185683629277096e-08 0.0000000000000000e+00  -6.8159736564816445e-09 -2.2205727492953008e-08 0.0000000000000000e+00  -3.4579602320106266e-09 -1.6103071571330061e-08 0.0000000000000000e+00  2.0586580299959171e-10 -1.1030360198908822e-08 0.0000000000000000e+00  3.2921100382378558e-09 -7.2911330372967201e-09 0.0000000000000000e+00  5.5801245217284475e-09 -4.6344909730249352e-09 0.0000000000000000e+00  7.1096221430348538e-09 -2.7218813162060970e-09 0.0000000000000000e+00  7.9774612492310362e-09 -1.2567790896033803e-09 0.0000000000000000e+00  8.2586577377148829e-09 1.3130342685376926e-12 0.0000000000000000e+00  7.9804628026713314e-09 1.2596660943465283e-09 0.0000000000000000e+00  7.1168553529288657e-09 2.7256947734719710e-09 0.0000000000000000e+00  5.5945261269671113e-09 4.6404814311411524e-09 0.0000000000000000e+00  3.3193097356922748e-09 7.3022146476078090e-09 0.0000000000000000e+00  2.5457766013515421e-10 1.1053518229040656e-08 0.0000000000000000e+00  -3.3833938053605194e-09 1.6150606068325126e-08 0.0000000000000000e+00  -6.7345375421301154e-09 2.2267345166378884e-08 0.0000000000000000e+00  -7.8630755930249715e-09 2.7073943682515610e-08 0.0000000000000000e+00  -4.7701360438879850e-09 2.3707856293081205e-08 0.0000000000000000e+00  -3.3892978017761635e-10 1.8789240643860370e-09 0.0000000000000000e+00  7.9986745141190362e-11 -8.1254175830912780e-10 0.0000000000000000e+00  -3.4504467370315496e-09 -1.8869175003046014e-08 0.0000000000000000e+00  -7.7554201004373888e-09 -2.4641194949865994e-08 0.0000000000000000e+00  -1.0034939544022126e-08 -2.2865950170819002e-08 0.0000000000000000e+00  -1.0066798562070649e-08 -1.8291388507191490e-08 0.0000000000000000e+00  -8.8666175567172101e-09 -1.3489378082384908e-08 0.0000000000000000e+00  -7.3177845049402358e-09 -9.4173412391495870e-09 0.0000000000000000e+00  -5.9100327299498229e-09 -6.2257549810349119e-09 0.0000000000000000e+00  -4.8524535009099888e-09 -3.7546313663169254e-09 0.0000000000000000e+00  -4.2108475919548098e-09 -1.7606565384982911e-09 0.0000000000000000e+00  -3.9960948976153238e-09 9.8985556867946271e-13 0.0000000000000000e+00  -4.2074282909994768e-09 1.7628667662438082e-09 0.0000000000000000e+00  -4.8449228885390387e-09 3.7576671557711401e-09 0.0000000000000000e+00  -5.8970577122378601e-09 6.2306552157147489e-09 0.0000000000000000e+00  -7.2978119111115600e-09 9.4258367233666417e-09 0.0000000000000000e+00  -8.8392623181772607e-09 1.3502797155939811e-08 0.0000000000000000e+00  -1.0034962461783225e-08 1.8303411539039824e-08 0.0000000000000000e+00  -1.0008369054957512e-08 2.2844717695620073e-08 0.0000000000000000e+00  -7.7315457560864224e-09 2.4515456817352520e-08 0.0000000000000000e+00  -3.3655334153827316e-09 1.8700814079251731e-08 0.0000000000000000e+00  3.4350568613337559e-11 1.1874744845600870e-09 0.0000000000000000e+00  1.1977545359533502e-10 -5.1692185511635019e-10 0.0000000000000000e+00  -2.4748836196427540e-09 -1.4506833602474197e-08 0.0000000000000000e+00  -6.5634720778176800e-09 -2.0639290507626971e-08 0.0000000000000000e+00  -1.0017705155241574e-08 -2.0871445880359374e-08 0.0000000000000000e+00  -1.1929820634828555e-08 -1.7995136444321125e-08 0.0000000000000000e+00  -1.2542312564752494e-08 -1.4115591493342185e-08 0.0000000000000000e+00  -1.2393881978306347e-08 -1.0346046028708749e-08 0.0000000000000000e+00  -1.1940950946897804e-08 -7.0950821742507424e-09 0.0000000000000000e+00  -1.1473279520583176e-08 -4.3896700397544564e-09 0.0000000000000000e+00  -1.1146009945216352e-08 -2.0899923022469241e-09 0.0000000000000000e+00  -1.1029500356222118e-08 3.5268953922411659e-13 0.0000000000000000e+00  -1.1143324357168199e-08 2.0908321861781720e-09 0.0000000000000000e+00  -1.1467778797489051e-08 4.3909643620128550e-09 0.0000000000000000e+00  -1.1932562965924344e-08 7.0972233002187304e-09 0.0000000000000000e+00  -1.2383003951651196e-08 1.0349107001087253e-08 0.0000000000000000e+00  -1.2530399667312051e-08 1.4117614249389570e-08 0.0000000000000000e+00  -1.1919394380010999e-08 1.7987740118317690e-08 0.0000000000000000e+00  -1.0010327663474216e-08 2.0835956377926108e-08 0.0000000000000000e+00  -6.5585924822114273e-09 2.0569774005323661e-08 0.0000000000000000e+00  -2.4455180129651589e-09 1.4455260821363747e-08 0.0000000000000000e+00  1.0548840823401158e-10 7.4205084246312244e-10 0.0000000000000000e+00  1.0947442033693848e-10 -3.4274150420480267e-10 0.0000000000000000e+00  -1.8136347119879741e-09 -1.1099592222800101e-08 0.0000000000000000e+00  -5.2636893388067924e-09 -1.6657457652502224e-08 0.0000000000000000e+00  -8.7938540996534418e-09 -1.7854644276802885e-08 0.0000000000000000e+00  -1.1445887638591648e-08 -1.6277669498314187e-08 0.0000000000000000e+00  -1.3066002271643645e-08 -1.3414062588783033e-08 0.0000000000000000e+00  -1.3874376391487233e-08 -1.0244803585327087e-08 0.0000000000000000e+00  -1.4177513094849566e-08 -7.2560616743210907e-09 0.0000000000000000e+00  -1.4230143907596901e-08 -4.5943384935719497e-09 0.0000000000000000e+00  -1.4201075693976861e-08 -2.2182496602698722e-09 0.0000000000000000e+00  -1.4181415507896559e-08 -2.5575994644566618e-13 0.0000000000000000e+00  -1.4199477005562039e-08 2.2177796788946427e-09 0.0000000000000000e+00  -1.4227086035809449e-08 4.5939715228785531e-09 0.0000000000000000e+00  -1.4173362185193390e-08 7.2556926271324176e-09 0.0000000000000000e+00  -1.3869853337523183e-08 1.0243671413908036e-08 0.0000000000000000e+00  -1.3062244063108987e-08 1.3409707550683237e-08 0.0000000000000000e+00  -1.1444276162236103e-08 1.6264924891210764e-08 0.0000000000000000e+00  -8.7945278523333950e-09 1.7828186311025812e-08 0.0000000000000000e+00  -5.2674336118910656e-09 1.6625336881056182e-08 0.0000000000000000e+00  -1.8019658442715210e-09 1.1086717607833374e-08 0.0000000000000000e+00  1.0987011621294279e-10 4.8008406813893150e-10 0.0000000000000000e+00  9.0522314659875766e-11 -2.3517779342691388e-10 0.0000000000000000e+00  -1.3423606148110220e-09 -8.4826948787046282e-09 0.0000000000000000e+00  -4.1184071993919337e-09 -1.3186244602708308e-08 0.0000000000000000e+00  -7.2802991061511755e-09 -1.4713826011326430e-08 0.0000000000000000e+00  -1.0021429849065315e-08 -1.3976465143045680e-08 0.0000000000000000e+00  -1.2046026611809118e-08 -1.1968326983383161e-08 0.0000000000000000e+00  -1.3373070801912310e-08 -9.4516675747255220e-09 0.0000000000000000e+00  -1.4160552985199638e-08 -6.8783851723664922e-09 0.0000000000000000e+00  -1.4584677409967522e-08 -4.4427659643139406e-09 0.0000000000000000e+00  -1.4783586032158674e-08 -2.1714119557745125e-09 0.0000000000000000e+00  -1.4840518543301265e-08 -7.3940876018293015e-13 0.0000000000000000e+00  -1.4782898172488921e-08 2.1699055584779046e-09 0.0000000000000000e+00  -1.4583480066477194e-08 4.4411256751084134e-09 0.0000000000000000e+00  -1.4159211752600785e-08 6.8762911413740290e-09 0.0000000000000000e+00  -1.3372132436274002e-08 9.4482832407896017e-09 0.0000000000000000e+00  -1.2046179219209551e-08 1.1962005581702364e-08 0.0000000000000000e+00  -1.0023414642112167e-08 1.3965204561724267e-08 0.0000000000000000e+00  -7.2840370311683626e-09 1.4697870226130368e-08 0.0000000000000000e+00  -4.1242053080934986e-09 1.3172853848450522e-08 0.0000000000000000e+00  -1.3360659026573531e-09 8.4825239138868779e-09 0.0000000000000000e+00  9.6552268697870656e-11 3.2234192756300366e-10 0.0000000000000000e+00  7.2699999145188432e-11 -1.6578874604253390e-10 0.0000000000000000e+00  -1.0047419251985951e-09 -6.4836289947172966e-09 0.0000000000000000e+00  -3.2002398937612827e-09 -1.0319675014004244e-08 0.0000000000000000e+00  -5.8778461354179625e-09 -1.1842156904703650e-08 0.0000000000000000e+00  -8.4093289621500119e-09 -1.1590079839435322e-08 0.0000000000000000e+00  -1.0481295428180485e-08 -1.0218601164090917e-08 0.0000000000000000e+00  -1.2010650402141652e-08 -8.2852610559645933e-09 0.0000000000000000e+00  -1.3048338526402549e-08 -6.1632702437437092e-09 0.0000000000000000e+00  -1.3693213079367267e-08 -4.0467445576921107e-09 0.0000000000000000e+00  -1.4038589696000827e-08 -1.9981191096535831e-09 0.0000000000000000e+00  -1.4146538309180286e-08 -1.0657852357755796e-12 0.0000000000000000e+00  -1.4038483795434074e-08 1.9959248766050461e-09 0.0000000000000000e+00  -1.3693134066088055e-08 4.0443165127149618e-09 0.0000000000000000e+00  -1.3048537319457258e-08 6.1602848893555438e-09 0.0000000000000000e+00  -1.2011469286465788e-08 8.2811411160104432e-09 0.0000000000000000e+00  -1.0483128840108252e-08 1.0212599515827783e-08 0.0000000000000000e+00  -8.4125557128262324e-09 1.1581935889733193e-08 0.0000000000000000e+00  -5.8822029629717011e-09 1.1833414274443792e-08 0.0000000000000000e+00  -3.2055191262460579e-09 1.0315018690194544e-08 0.0000000000000000e+00  -1.0006430306116428e-09 6.4873259253765199e-09 0.0000000000000000e+00  7.9847786870996088e-11 2.2315555183812187e-10 0.0000000000000000e+00  5.8301514430368363e-11 -1.1900055491035815e-10 0.0000000000000000e+00  -7.6694855626785705e-10 -4.9466637415322421e-09 0.0000000000000000e+00  -2.5075341827014630e-09 -7.9980265073800013e-09 0.0000000000000000e+00  -4.7308723430466984e-09 -9.3573519847390458e-09 0.0000000000000000e+00  -6.9581949911138695e-09 -9.3567036762986422e-09 0.0000000000000000e+00  -8.9059646886580377e-09 -8.4300805474224573e-09 0.0000000000000000e+00  -1.0450197298651194e-08 -6.9740425780612458e-09 0.0000000000000000e+00  -1.1576817428916967e-08 -5.2775352348566822e-09 0.0000000000000000e+00  -1.2325735647768649e-08 -3.5106346606644957e-09 0.0000000000000000e+00  -1.2748902397412721e-08 -1.7476664960341563e-09 0.0000000000000000e+00  -1.2885307941366149e-08 -1.2479991277848811e-12 0.0000000000000000e+00  -1.2749094076820504e-08 1.7451037228240882e-09 0.0000000000000000e+00  -1.2326202144727635e-08 3.5078460424446857e-09 0.0000000000000000e+00  -1.1577711429772735e-08 5.2742936815399732e-09 0.0000000000000000e+00  -1.0451719465780769e-08 6.9700651675944069e-09 0.0000000000000000e+00  -8.9083268619247948e-09 8.4252021766278886e-09 0.0000000000000000e+00  -6.9615463735047365e-09 9.3513197166302047e-09 0.0000000000000000e+00  -4.7348323957691856e-09 9.3528961727377031e-09 0.0000000000000000e+00  -2.5117064306491894e-09 7.9972488063767092e-09 0.0000000000000000e+00  -7.6417468272456659e-10 4.9510798698269392e-09 0.0000000000000000e+00  6.4677292034858312e-11 1.5824753363479199e-10 0.0000000000000000e+00  4.7482324446777857e-11 -8.5802233503062226e-11 0.0000000000000000e+00  -6.0280851434737209e-10 -3.7427703561129288e-09 0.0000000000000000e+00  -2.0065857012056898e-09 -6.1136696458668456e-09 0.0000000000000000e+00  -3.8573462177876131e-09 -7.2473586911500299e-09 0.0000000000000000e+00  -5.7870113494991457e-09 -7.3569262548803811e-09 0.0000000000000000e+00  -7.5526862170159480e-09 -6.7330210335146642e-09 0.0000000000000000e+00  -9.0210534492695481e-09 -5.6538027947759017e-09 0.0000000000000000e+00  -1.0143446015362508e-08 -4.3342132583324859e-09 0.0000000000000000e+00  -1.0920912464020048e-08 -2.9120848192463368e-09 0.0000000000000000e+00  -1.1374084691758798e-08 -1.4589428153588752e-09 0.0000000000000000e+00  -1.1522669325562140e-08 -1.3195972073779890e-12 0.0000000000000000e+00  -1.1374385590175604e-08 1.4562531712938532e-09 0.0000000000000000e+00  -1.0921564139785184e-08 2.9092374473967970e-09 0.0000000000000000e+00  -1.0144538965951455e-08 4.3310947979726495e-09 0.0000000000000000e+00  -9.0227011038420503e-09 5.6503429310073941e-09 0.0000000000000000e+00  -7.5549877925345857e-09 6.7293326805162334e-09 0.0000000000000000e+00  -5.7899809558772760e-09 7.3535296124489315e-09 0.0000000000000000e+00  -3.8605867338616612e-09 7.2452847484022373e-09 0.0000000000000000e+00  -2.0097016189757651e-09 6.1144600666211336e-09 0.0000000000000000e+00  -6.0095540241089952e-10 3.7467984585913326e-09 0.0000000000000000e+00  5.2522708504681163e-11 1.1391464874636857e-10 0.0000000000000000e+00  3.9741180110940345e-11 -6.0839628814918615e-11 0.0000000000000000e+00  -4.9146028777456406e-10 -2.7721446550585826e-09 0.0000000000000000e+00  -1.6554271185125991e-09 -4.5577281655826926e-09 0.0000000000000000e+00  -3.2228573547739064e-09 -5.4502439679750425e-09 0.0000000000000000e+00  -4.9025449836636319e-09 -5.5901157241478576e-09 0.0000000000000000e+00  -6.4882885898782360e-09 -5.1727311249435360e-09 0.0000000000000000e+00  -7.8509782676712803e-09 -4.3903789644205101e-09 0.0000000000000000e+00  -8.9259650910318604e-09 -3.3976371530839082e-09 0.0000000000000000e+00  -9.6912042204990041e-09 -2.2997535741113520e-09 0.0000000000000000e+00  -1.0146346209617725e-08 -1.1576872050824790e-09 0.0000000000000000e+00  -1.0297190405987203e-08 -1.3199409504608102e-12 0.0000000000000000e+00  -1.0146649476213755e-08 1.1550217591846619e-09 0.0000000000000000e+00  -9.6918410522082197e-09 2.2970167562836182e-09 0.0000000000000000e+00  -8.9269891353633386e-09 3.3948079585091838e-09 0.0000000000000000e+00  -7.8524505881027302e-09 4.3875080434879533e-09 0.0000000000000000e+00  -6.4902434432215605e-09 5.1700238740664323e-09 0.0000000000000000e+00  -4.9049327310509788e-09 5.5880219729427680e-09 0.0000000000000000e+00  -3.2253317582838129e-09 5.4494278796928678e-09 0.0000000000000000e+00  -1.6576641953495471e-09 4.5590240472908543e-09 0.0000000000000000e+00  -4.9024238904388690e-10 2.7754915611337212e-09 0.0000000000000000e+00  4.3449894132636498e-11 8.2078740578210556e-11 0.0000000000000000e+00  3.4464678110758892e-11 -4.0877467328632831e-11 0.0000000000000000e+00  -4.1750732469695211e-10 -1.9608328768846043e-09 0.0000000000000000e+00  -1.4169305756430280e-09 -3.2369716547181137e-09 0.0000000000000000e+00  -2.7812109738659408e-09 -3.8927410015788858e-09 0.0000000000000000e+00  -4.2701229739103006e-09 -4.0201285754002626e-09 0.0000000000000000e+00  -5.7056874080191268e-09 -3.7478761334591209e-09 0.0000000000000000e+00  -6.9669868028830780e-09 -3.2046358970652518e-09 0.0000000000000000e+00  -7.9833728495259494e-09 -2.4964901662673376e-09 0.0000000000000000e+00  -8.7202410390178220e-09 -1.6986918793495777e-09 0.0000000000000000e+00  -9.1644182773565341e-09 -8.5810679101327621e-10 0.0000000000000000e+00  -9.3126625738026329e-09 -1.2847659832146265e-12 0.0000000000000000e+00  -9.1646699012693801e-09 8.5553613679659604e-10 0.0000000000000000e+00  -8.7207627583378503e-09 1.6961279196397503e-09 0.0000000000000000e+00  -7.9841958938831633e-09 2.4939741604930449e-09 0.0000000000000000e+00  -6.9681414664632578e-09 3.2022748081651174e-09 0.0000000000000000e+00  -5.7071756634357102e-09 3.7458810823153908e-09 0.0000000000000000e+00  -4.2718786472705152e-09 4.0188372436750012e-09 0.0000000000000000e+00  -2.7829690437938132e-09 3.8925546665749516e-09 0.0000000000000000e+00  -1.4184555397381633e-09 3.2383289914869951e-09 0.0000000000000000e+00  -4.1672427841761173e-10 1.9635423382450074e-09 0.0000000000000000e+00  3.7023015515076230e-11 5.7886929196336195e-11 0.0000000000000000e+00  3.1140253825151402e-11 -2.3888473089938655e-11 0.0000000000000000e+00  -3.7064031018608597e-10 -1.2544612536323798e-09 0.0000000000000000e+00  -1.2637057578954243e-09 -2.0761021070951017e-09 0.0000000000000000e+00  -2.4928112505563710e-09 -2.5054443638800325e-09 0.0000000000000000e+00  -3.8496250114939485e-09 -2.5986490241379980e-09 0.0000000000000000e+00  -5.1754576116247028e-09 -2.4342915642051792e-09 0.0000000000000000e+00  -6.35700317266