<?xml version="1.0"?>
<VTKFile type="UnstructuredGrid"  version="0.1"  >
<UnstructuredGrid>
<Piece  NumberOfPoints="651" NumberOfCells="1200">
<Points>
<DataArray  type="Float64"  NumberOfComponents="3"  format="ascii">0 0 0  50000 0 0  100000 0 0  150000 0 0  200000 0 0  250000 0 0  300000 0 0  350000 0 0  400000 0 0  450000 0 0  500000 0 0  550000 0 0  600000 0 0  650000 0 0  700000 0 0  750000 0 0  800000 0 0  850000 0 0  900000 0 0  950000 0 0  1000000 0 0  0 50000 0  50000 50000 0  100000 50000 0  150000 50000 0  200000 50000 0  250000 50000 0  300000 50000 0  350000 50000 0  400000 50000 0  450000 50000 0  500000 50000 0  550000 50000 0  600000 50000 0  650000 50000 0  700000 50000 0  750000 50000 0  800000 50000 0  850000 50000 0  900000 50000 0  950000 50000 0  1000000 50000 0  0 100000 0  50000 100000 0  100000 100000 0  150000 100000 0  200000 100000 0  250000 100000 0  300000 100000 0  350000 100000 0  400000 100000 0  450000 100000 0  500000 100000 0  550000 100000 0  600000 100000 0  650000 100000 0  700000 100000 0  750000 100000 0  800000 100000 0  850000 100000 0  900000 100000 0  950000 100000 0  1000000 100000 0  0 150000 0  50000 150000 0  100000 150000 0  150000 150000 0  200000 150000 0  250000 150000 0  300000 150000 0  350000 150000 0  400000 150000 0  450000 150000 0  500000 150000 0  550000 150000 0  600000 150000 0  650000 150000 0  700000 150000 0  750000 150000 0  800000 150000 0  850000 150000 0  900000 150000 0  950000 150000 0  1000000 150000 0  0 200000 0  50000 200000 0  100000 200000 0  150000 200000 0  200000 200000 0  250000 200000 0  300000 200000 0  350000 200000 0  400000 200000 0  450000 200000 0  500000 200000 0  550000 200000 0  600000 200000 0  650000 200000 0  700000 200000 0  750000 200000 0  800000 200000 0  850000 200000 0  900000 200000 0  950000 200000 0  1000000 200000 0  0 250000 0  50000 250000 0  100000 250000 0  150000 250000 0  200000 250000 0  250000 250000 0  300000 250000 0  350000 250000 0  400000 250000 0  450000 250000 0  500000 250000 0  550000 250000 0  600000 250000 0  650000 250000 0  700000 250000 0  750000 250000 0  800000 250000 0  850000 250000 0  900000 250000 0  950000 250000 0  1000000 250000 0  0 300000 0  50000 300000 0  100000 300000 0  150000 300000 0  200000 300000 0  250000 300000 0  300000 300000 0  350000 300000 0  400000 300000 0  450000 300000 0  500000 300000 0  550000 300000 0  600000 300000 0  650000 300000 0  700000 300000 0  750000 300000 0  800000 300000 0  850000 300000 0  900000 300000 0  950000 300000 0  1000000 300000 0  0 350000 0  50000 350000 0  100000 350000 0  150000 350000 0  200000 350000 0  250000 350000 0  300000 350000 0  350000 350000 0  400000 350000 0  450000 350000 0  500000 350000 0  550000 350000 0  600000 350000 0  650000 350000 0  700000 350000 0  750000 350000 0  800000 350000 0  850000 350000 0  900000 350000 0  950000 350000 0  1000000 350000 0  0 400000 0  50000 400000 0  100000 400000 0  150000 400000 0  200000 400000 0  250000 400000 0  300000 400000 0  350000 400000 0  400000 400000 0  450000 400000 0  500000 400000 0  550000 400000 0  600000 400000 0  650000 400000 0  700000 400000 0  750000 400000 0  800000 400000 0  850000 400000 0  900000 400000 0  950000 400000 0  1000000 400000 0  0 450000 0  50000 450000 0  100000 450000 0  150000 450000 0  200000 450000 0  250000 450000 0  300000 450000 0  350000 450000 0  400000 450000 0  450000 450000 0  500000 450000 0  550000 450000 0  600000 450000 0  650000 450000 0  700000 450000 0  750000 450000 0  800000 450000 0  850000 450000 0  900000 450000 0  950000 450000 0  1000000 450000 0  0 500000 0  50000 500000 0  100000 500000 0  150000 500000 0  200000 500000 0  250000 500000 0  300000 500000 0  350000 500000 0  400000 500000 0  450000 500000 0  500000 500000 0  550000 500000 0  600000 500000 0  650000 500000 0  700000 500000 0  750000 500000 0  800000 500000 0  850000 500000 0  900000 500000 0  950000 500000 0  1000000 500000 0  0 550000 0  50000 550000 0  100000 550000 0  150000 550000 0  200000 550000 0  250000 550000 0  300000 550000 0  350000 550000 0  400000 550000 0  450000 550000 0  500000 550000 0  550000 550000 0  600000 550000 0  650000 550000 0  700000 550000 0  750000 550000 0  800000 550000 0  850000 550000 0  900000 550000 0  950000 550000 0  1000000 550000 0  0 600000 0  50000 600000 0  100000 600000 0  150000 600000 0  200000 600000 0  250000 600000 0  300000 600000 0  350000 600000 0  400000 600000 0  450000 600000 0  500000 600000 0  550000 600000 0  600000 600000 0  650000 600000 0  700000 600000 0  750000 600000 0  800000 600000 0  850000 600000 0  900000 600000 0  950000 600000 0  1000000 600000 0  0 650000 0  50000 650000 0  100000 650000 0  150000 650000 0  200000 650000 0  250000 650000 0  300000 650000 0  350000 650000 0  400000 650000 0  450000 650000 0  500000 650000 0  550000 650000 0  600000 650000 0  650000 650000 0  700000 650000 0  750000 650000 0  800000 650000 0  850000 650000 0  900000 650000 0  950000 650000 0  1000000 650000 0  0 700000 0  50000 700000 0  100000 700000 0  150000 700000 0  200000 700000 0  250000 700000 0  300000 700000 0  350000 700000 0  400000 700000 0  450000 700000 0  500000 700000 0  550000 700000 0  600000 700000 0  650000 700000 0  700000 700000 0  750000 700000 0  800000 700000 0  850000 700000 0  900000 700000 0  950000 700000 0  1000000 700000 0  0 750000 0  50000 750000 0  100000 750000 0  150000 750000 0  200000 750000 0  250000 750000 0  300000 750000 0  350000 750000 0  400000 750000 0  450000 750000 0  500000 750000 0  550000 750000 0  600000 750000 0  650000 750000 0  700000 750000 0  750000 750000 0  800000 750000 0  850000 750000 0  900000 750000 0  950000 750000 0  1000000 750000 0  0 800000 0  50000 800000 0  100000 800000 0  150000 800000 0  200000 800000 0  250000 800000 0  300000 800000 0  350000 800000 0  400000 800000 0  450000 800000 0  500000 800000 0  550000 800000 0  600000 800000 0  650000 800000 0  700000 800000 0  750000 800000 0  800000 800000 0  850000 800000 0  900000 800000 0  950000 800000 0  1000000 800000 0  0 850000 0  50000 850000 0  100000 850000 0  150000 850000 0  200000 850000 0  250000 850000 0  300000 850000 0  350000 850000 0  400000 850000 0  450000 850000 0  500000 850000 0  550000 850000 0  600000 850000 0  650000 850000 0  700000 850000 0  750000 850000 0  800000 850000 0  850000 850000 0  900000 850000 0  950000 850000 0  1000000 850000 0  0 900000 0  50000 900000 0  100000 900000 0  150000 900000 0  200000 900000 0  250000 900000 0  300000 900000 0  350000 900000 0  400000 900000 0  450000 900000 0  500000 900000 0  550000 900000 0  600000 900000 0  650000 900000 0  700000 900000 0  750000 900000 0  800000 900000 0  850000 900000 0  900000 900000 0  950000 900000 0  1000000 900000 0  0 950000 0  50000 950000 0  100000 950000 0  150000 950000 0  200000 950000 0  250000 950000 0  300000 950000 0  350000 950000 0  400000 950000 0  450000 950000 0  500000 950000 0  550000 950000 0  600000 950000 0  650000 950000 0  700000 950000 0  750000 950000 0  800000 950000 0  850000 950000 0  900000 950000 0  950000 950000 0  1000000 950000 0  0 1000000 0  50000 1000000 0  100000 1000000 0  150000 1000000 0  200000 1000000 0  250000 1000000 0  300000 1000000 0  350000 1000000 0  400000 1000000 0  450000 1000000 0  500000 1000000 0  550000 1000000 0  600000 1000000 0  650000 1000000 0  700000 1000000 0  750000 1000000 0  800000 1000000 0  850000 1000000 0  900000 1000000 0  950000 1000000 0  1000000 1000000 0  0 1050000 0  50000 1050000 0  100000 1050000 0  150000 1050000 0  200000 1050000 0  250000 1050000 0  300000 1050000 0  350000 1050000 0  400000 1050000 0  450000 1050000 0  500000 1050000 0  550000 1050000 0  600000 1050000 0  650000 1050000 0  700000 1050000 0  750000 1050000 0  800000 1050000 0  850000 1050000 0  900000 1050000 0  950000 1050000 0  1000000 1050000 0  0 1100000 0  50000 1100000 0  100000 1100000 0  150000 1100000 0  200000 1100000 0  250000 1100000 0  300000 1100000 0  350000 1100000 0  400000 1100000 0  450000 1100000 0  500000 1100000 0  550000 1100000 0  600000 1100000 0  650000 1100000 0  700000 1100000 0  750000 1100000 0  800000 1100000 0  850000 1100000 0  900000 1100000 0  950000 1100000 0  1000000 1100000 0  0 1150000 0  50000 1150000 0  100000 1150000 0  150000 1150000 0  200000 1150000 0  250000 1150000 0  300000 1150000 0  350000 1150000 0  400000 1150000 0  450000 1150000 0  500000 1150000 0  550000 1150000 0  600000 1150000 0  650000 1150000 0  700000 1150000 0  750000 1150000 0  800000 1150000 0  850000 1150000 0  900000 1150000 0  950000 1150000 0  1000000 1150000 0  0 1200000 0  50000 1200000 0  100000 1200000 0  150000 1200000 0  200000 1200000 0  250000 1200000 0  300000 1200000 0  350000 1200000 0  400000 1200000 0  450000 1200000 0  500000 1200000 0  550000 1200000 0  600000 1200000 0  650000 1200000 0  700000 1200000 0  750000 1200000 0  800000 1200000 0  850000 1200000 0  900000 1200000 0  950000 1200000 0  1000000 1200000 0  0 1250000 0  50000 1250000 0  100000 1250000 0  150000 1250000 0  200000 1250000 0  250000 1250000 0  300000 1250000 0  350000 1250000 0  400000 1250000 0  450000 1250000 0  500000 1250000 0  550000 1250000 0  600000 1250000 0  650000 1250000 0  700000 1250000 0  750000 1250000 0  800000 1250000 0  850000 1250000 0  900000 1250000 0  950000 1250000 0  1000000 1250000 0  0 1300000 0  50000 1300000 0  100000 1300000 0  150000 1300000 0  200000 1300000 0  250000 1300000 0  300000 1300000 0  350000 1300000 0  400000 1300000 0  450000 1300000 0  500000 1300000 0  550000 1300000 0  600000 1300000 0  650000 1300000 0  700000 1300000 0  750000 1300000 0  800000 1300000 0  850000 1300000 0  900000 1300000 0  950000 1300000 0  1000000 1300000 0  0 1350000 0  50000 1350000 0  100000 1350000 0  150000 1350000 0  200000 1350000 0  250000 1350000 0  300000 1350000 0  350000 1350000 0  400000 1350000 0  450000 1350000 0  500000 1350000 0  550000 1350000 0  600000 1350000 0  650000 1350000 0  700000 135
[...]
<PointData  Vectors="f_10477"> 
<DataArray  type="Float64"  Name="f_10477"  NumberOfComponents="3" format="ascii">-5.6677022617672696e-09 -3.1560922612174363e-09 0.0000000000000000e+00  7.5439207315281798e-08 -2.0546416892572594e-09 0.0000000000000000e+00  7.8255889497609004e-08 -4.5395711764444248e-11 0.0000000000000000e+00  7.9088061501848303e-08 2.8894528158218376e-10 0.0000000000000000e+00  7.9499044335497326e-08 2.5313491112965180e-10 0.0000000000000000e+00  7.9697006276259767e-08 1.8298824495958067e-10 0.0000000000000000e+00  7.9799333452332153e-08 1.2566729388203693e-10 0.0000000000000000e+00  7.9855086794904082e-08 8.2226222328895981e-11 0.0000000000000000e+00  7.9885079510119226e-08 4.8002626270704342e-11 0.0000000000000000e+00  7.9898561613254542e-08 1.8962526163711621e-11 0.0000000000000000e+00  7.9899221601812132e-08 -7.9820705294296605e-12 0.0000000000000000e+00  7.9887242722431751e-08 -3.5456071106821736e-11 0.0000000000000000e+00  7.9859427031482866e-08 -6.6099496866881912e-11 0.0000000000000000e+00  7.9807546526541849e-08 -1.0299663369970525e-10 0.0000000000000000e+00  7.9713399307308793e-08 -1.5000208105263545e-10 0.0000000000000000e+00  7.9535227665348688e-08 -2.1129752608936721e-10 0.0000000000000000e+00  7.9174481390572466e-08 -2.8485401289760632e-10 0.0000000000000000e+00  7.8441017367987339e-08 -2.9348948723210921e-10 0.0000000000000000e+00  7.6934212098444347e-08 5.5285140608724295e-10 0.0000000000000000e+00  7.2902226355189753e-08 4.7588852584619895e-09 0.0000000000000000e+00  -7.9965101109854281e-09 4.9416673804367529e-09 0.0000000000000000e+00  -3.9738209086392254e-09 -3.5156394141610284e-09 0.0000000000000000e+00  -1.2354334145047496e-09 -2.3624465130812453e-08 0.0000000000000000e+00  1.7256624142047425e-08 -1.4061010789657841e-08 0.0000000000000000e+00  3.1878608343914320e-08 -7.8305383110272051e-09 0.0000000000000000e+00  4.1323566155693729e-08 -4.6260864360054042e-09 0.0000000000000000e+00  4.7462188527235822e-08 -2.8992916828691685e-09 0.0000000000000000e+00  5.1529059462063097e-08 -1.8764427066207377e-09 0.0000000000000000e+00  5.4220298529295378e-08 -1.2072947721711872e-09 0.0000000000000000e+00  5.5930626857068487e-08 -7.2574909994232765e-10 0.0000000000000000e+00  5.6881655046006070e-08 -3.4301180913242049e-10 0.0000000000000000e+00  5.7186763604609922e-08 -3.4962637467458517e-12 0.0000000000000000e+00  5.6880871151082481e-08 3.3568519960373797e-10 0.0000000000000000e+00  5.5929087655524081e-08 7.1731674002513059e-10 0.0000000000000000e+00  5.4218372534150328e-08 1.1965553800649320e-09 0.0000000000000000e+00  5.1528732748492600e-08 1.8608389523035045e-09 0.0000000000000000e+00  4.7471586014034102e-08 2.8721548330469641e-09 0.0000000000000000e+00  4.1371224355486863e-08 4.5739362465103224e-09 0.0000000000000000e+00  3.2071052447617380e-08 7.7910546442809611e-09 0.0000000000000000e+00  1.7964645851953734e-08 1.4448310219100854e-08 0.0000000000000000e+00  -1.4667571439297870e-10 2.5327765563545953e-08 0.0000000000000000e+00  -6.5456207565437938e-09 5.1834329322015199e-09 0.0000000000000000e+00  -1.1468732799731569e-09 -1.9224282540518138e-09 0.0000000000000000e+00  -6.5294178182019250e-09 -2.9772152892806782e-08 0.0000000000000000e+00  -2.6530385070056285e-09 -2.6205673755786593e-08 0.0000000000000000e+00  6.4396199890523346e-09 -1.8700440538287731e-08 0.0000000000000000e+00  1.5595608587179072e-08 -1.2798988483470250e-08 0.0000000000000000e+00  2.2982174333437444e-08 -8.7448263264916444e-09 0.0000000000000000e+00  2.8491729870316593e-08 -5.9536357722486170e-09 0.0000000000000000e+00  3.2403927281623179e-08 -3.9476109433598110e-09 0.0000000000000000e+00  3.4998654601548496e-08 -2.4134384181178703e-09 0.0000000000000000e+00  3.6477811832557234e-08 -1.1461226256242511e-09 0.0000000000000000e+00  3.6958746175681673e-08 4.9158383823016976e-13 0.0000000000000000e+00  3.6479866217129157e-08 1.1473143465607189e-09 0.0000000000000000e+00  3.5003627872305304e-08 2.4153483832033117e-09 0.0000000000000000e+00  3.2414213522140523e-08 3.9511043109125565e-09 0.0000000000000000e+00  2.8513183371730581e-08 5.9606532655979362e-09 0.0000000000000000e+00  2.3029170515208308e-08 8.7614894766118987e-09 0.0000000000000000e+00  1.5702722094542551e-08 1.2848051992393120e-08 0.0000000000000000e+00  6.6564770163506492e-09 1.8840036018803814e-08 0.0000000000000000e+00  -2.3810388017433782e-09 2.6432093059602249e-08 0.0000000000000000e+00  -6.0816781922745676e-09 2.8906100201418757e-08 0.0000000000000000e+00  -1.9806006451914260e-09 2.4896196721949170e-09 0.0000000000000000e+00  -1.5175721511200680e-10 -1.0370089596100965e-09 0.0000000000000000e+00  -4.4317121833599729e-09 -2.5405800856763991e-08 0.0000000000000000e+00  -6.4475976041023568e-09 -2.9758008402930519e-08 0.0000000000000000e+00  -3.8832548287674327e-09 -2.5622890373841778e-08 0.0000000000000000e+00  1.2395672129232148e-09 -1.9863444575413360e-08 0.0000000000000000e+00  6.7401646299134705e-09 -1.4707166765045922e-08 0.0000000000000000e+00  1.1549729732573726e-08 -1.0544906982962519e-08 0.0000000000000000e+00  1.5304592572230646e-08 -7.2278703704710173e-09 0.0000000000000000e+00  1.7943426279637205e-08 -4.5108620440213401e-09 0.0000000000000000e+00  1.9499390605590163e-08 -2.1669243880868976e-09 0.0000000000000000e+00  2.0013726716225337e-08 -3.3941903686726810e-13 0.0000000000000000e+00  1.9503217255150255e-08 2.1664240573721691e-09 0.0000000000000000e+00  1.7952048279173390e-08 4.5110305785217430e-09 0.0000000000000000e+00  1.5320308626424685e-08 7.2297402155326718e-09 0.0000000000000000e+00  1.1576890959216929e-08 1.0551078545842930e-08 0.0000000000000000e+00  6.7852062944984437e-09 1.4724360411434740e-08 0.0000000000000000e+00  1.3039049488900942e-09 1.9905472507283691e-08 0.0000000000000000e+00  -3.8170304458080862e-09 2.5688985152855368e-08 0.0000000000000000e+00  -6.3957847857968712e-09 2.9694771142615859e-08 0.0000000000000000e+00  -4.2068759765676841e-09 2.5004454836378364e-08 0.0000000000000000e+00  -2.5428058075411293e-10 1.4819799820026613e-09 0.0000000000000000e+00  6.1581938728503035e-11 -6.4089660238846073e-10 0.0000000000000000e+00  -2.9491605622912078e-09 -2.0837742226693140e-08 0.0000000000000000e+00  -6.3508874396064076e-09 -2.8438289114559710e-08 0.0000000000000000e+00  -7.3297710241786662e-09 -2.7860654777437236e-08 0.0000000000000000e+00  -5.8108401332362239e-09 -2.3803172709879209e-08 0.0000000000000000e+00  -2.9828250307826213e-09 -1.8902703450372314e-08 0.0000000000000000e+00  1.1494849088708129e-10 -1.4233571922821709e-08 0.0000000000000000e+00  2.8598415536764390e-09 -1.0085864637686448e-08 0.0000000000000000e+00  4.9410757273926232e-09 -6.4302732406947109e-09 0.0000000000000000e+00  6.2233329443828042e-09 -3.1260977531542939e-09 0.0000000000000000e+00  6.6560332109276573e-09 -7.9012424370301943e-13 0.0000000000000000e+00  6.2270649545354165e-09 3.1247359352684080e-09 0.0000000000000000e+00  4.9489890872045549e-09 6.4297129544974842e-09 0.0000000000000000e+00  2.8727469522114023e-09 1.0087194206311175e-08 0.0000000000000000e+00  1.3355102413926993e-10 1.4238797979502661e-08 0.0000000000000000e+00  -2.9591452942728544e-09 1.8914143932696379e-08 0.0000000000000000e+00  -5.7851128441254259e-09 2.3817242613360193e-08 0.0000000000000000e+00  -7.3072621066272492e-09 2.7850379664427890e-08 0.0000000000000000e+00  -6.3272463238787316e-09 2.8340596688795459e-08 0.0000000000000000e+00  -2.8714316748216636e-09 2.0707114665297636e-08 0.0000000000000000e+00  2.0978639247790267e-11 9.3351567787222748e-10 0.0000000000000000e+00  9.2160740140646407e-11 -4.2200492558851296e-10 0.0000000000000000e+00  -2.1297880889088622e-09 -1.7119015874069638e-08 0.0000000000000000e+00  -5.5631137090198038e-09 -2.5435429275467321e-08 0.0000000000000000e+00  -8.0906130696803467e-09 -2.7123456518054993e-08 0.0000000000000000e+00  -8.9016781814088205e-09 -2.4907274668088691e-08 0.0000000000000000e+00  -8.3412075524301615e-09 -2.0937629181553154e-08 0.0000000000000000e+00  -7.0537422971862388e-09 -1.6451426138266822e-08 0.0000000000000000e+00  -5.5974579875697808e-09 -1.2016839194426370e-08 0.0000000000000000e+00  -4.3484028960665706e-09 -7.8177251310347257e-09 0.0000000000000000e+00  -3.5260901707181436e-09 -3.8448533285021171e-09 0.0000000000000000e+00  -3.2401848609177978e-09 -1.4357288152618554e-12 0.0000000000000000e+00  -3.5234767041327520e-09 3.8421770687263350e-09 0.0000000000000000e+00  -4.3432172872064311e-09 7.8157131457491046e-09 0.0000000000000000e+00  -5.5899460479296043e-09 1.2016145054022170e-08 0.0000000000000000e+00  -7.0446730911422551e-09 1.6452675413381017e-08 0.0000000000000000e+00  -8.3321895442649068e-09 2.0940038906653773e-08 0.0000000000000000e+00  -8.8946573862073849e-09 2.4904547929914388e-08 0.0000000000000000e+00  -8.0847561008116686e-09 2.7099049801255438e-08 0.0000000000000000e+00  -5.5575222947046263e-09 2.5383574767623282e-08 0.0000000000000000e+00  -2.1083079312420930e-09 1.7084799872009572e-08 0.0000000000000000e+00  7.3781553884335498e-11 5.9106091540398236e-10 0.0000000000000000e+00  8.9532911560062389e-11 -2.9261271007178916e-10 0.0000000000000000e+00  -1.6487471222849943e-09 -1.4100939072722009e-08 0.0000000000000000e+00  -4.7954124415566615e-09 -2.2062468096433599e-08 0.0000000000000000e+00  -7.8845757749343243e-09 -2.4876219971439092e-08 0.0000000000000000e+00  -9.9936296872246349e-09 -2.4062105464047421e-08 0.0000000000000000e+00  -1.1008520504012991e-08 -2.1137604175134729e-08 0.0000000000000000e+00  -1.1201077544416559e-08 -1.7199006356582808e-08 0.0000000000000000e+00  -1.0938681383364171e-08 -1.2894683169049943e-08 0.0000000000000000e+00  -1.0536078711261633e-08 -8.5403513390716365e-09 0.0000000000000000e+00  -1.0212002327627252e-08 -4.2443712164415082e-09 0.0000000000000000e+00  -1.0090314236227656e-08 -1.8644936857901421e-12 0.0000000000000000e+00  -1.0210732442126777e-08 4.2408025640794880e-09 0.0000000000000000e+00  -1.0533772431392595e-08 8.5372708194939298e-09 0.0000000000000000e+00  -1.0935847900677286e-08 1.2892354089803733e-08 0.0000000000000000e+00  -1.1198512157348121e-08 1.7197238322622738e-08 0.0000000000000000e+00  -1.1007146149523900e-08 2.1134786782221627e-08 0.0000000000000000e+00  -9.9942058330792615e-09 2.4054115984607478e-08 0.0000000000000000e+00  -7.8861420472809565e-09 2.4858202503761203e-08 0.0000000000000000e+00  -4.7987522519482644e-09 2.2040743211028524e-08 0.0000000000000000e+00  -1.6432261847474289e-09 1.4095374402472759e-08 0.0000000000000000e+00  8.2986800254066357e-11 3.9544077413322408e-10 0.0000000000000000e+00  8.1759812120405462e-11 -2.0986871463169081e-10 0.0000000000000000e+00  -1.3383264942587160e-09 -1.1591936455976007e-08 0.0000000000000000e+00  -4.1554575480922346e-09 -1.8761520754685427e-08 0.0000000000000000e+00  -7.3536170169164717e-09 -2.1968517354804673e-08 0.0000000000000000e+00  -1.0100291921000516e-08 -2.2055396411657832e-08 0.0000000000000000e+00  -1.2084178117110378e-08 -2.0030896523511028e-08 0.0000000000000000e+00  -1.3325004858049805e-08 -1.6755901982048258e-08 0.0000000000000000e+00  -1.3999001121600816e-08 -1.2834515205664897e-08 0.0000000000000000e+00  -1.4310837458434107e-08 -8.6299800480684336e-09 0.0000000000000000e+00  -1.4427985678639701e-08 -4.3275853312374428e-09 0.0000000000000000e+00  -1.4455201574620826e-08 -2.0822079296448807e-12 0.0000000000000000e+00  -1.4427772294626152e-08 4.3235426978370362e-09 0.0000000000000000e+00  -1.4310619721973483e-08 8.6262696789744475e-09 0.0000000000000000e+00  -1.3999164538160000e-08 1.2831192204564640e-08 0.0000000000000000e+00  -1.3326018241289847e-08 1.6752594692707645e-08 0.0000000000000000e+00  -1.2086426085540893e-08 2.0026470093105882e-08 0.0000000000000000e+00  -1.0103984106277726e-08 2.2048201188003818e-08 0.0000000000000000e+00  -7.3580398025646808e-09 2.1958444606449540e-08 0.0000000000000000e+00  -4.1609693910843837e-09 1.8753784995992252e-08 0.0000000000000000e+00  -1.3366260273922553e-09 1.1594098148112743e-08 0.0000000000000000e+00  8.0587766240358038e-11 2.7710516506368330e-10 0.0000000000000000e+00  7.3884854901183995e-11 -1.5306848578709251e-10 0.0000000000000000e+00  -1.1204696899851395e-09 -9.4612165507342765e-09 0.0000000000000000e+00  -3.6306301126609103e-09 -1.5676520429903626e-08 0.0000000000000000e+00  -6.7354842355994027e-09 -1.8847371711476933e-08 0.0000000000000000e+00  -9.7317200401626454e-09 -1.9436764026996708e-08 0.0000000000000000e+00  -1.2245560741873082e-08 -1.8098262970707796e-08 0.0000000000000000e+00  -1.4151110120786735e-08 -1.5467382423064080e-08 0.0000000000000000e+00  -1.5478046450433139e-08 -1.2051664151433821e-08 0.0000000000000000e+00  -1.6321459956404206e-08 -8.2040376675002514e-09 0.0000000000000000e+00  -1.6780770180441099e-08 -4.1446379350886687e-09 0.0000000000000000e+00  -1.6925772919239474e-08 -2.1230361371839403e-12 0.0000000000000000e+00  -1.6781197313970152e-08 4.1404843281670606e-09 0.0000000000000000e+00  -1.6322432557312240e-08 8.2001208493632118e-09 0.0000000000000000e+00  -1.5479757331332805e-08 1.2047989170203353e-08 0.0000000000000000e+00  -1.4153747472603480e-08 1.5463701413269009e-08 0.0000000000000000e+00  -1.2249209203036623e-08 1.8094079181575629e-08 0.0000000000000000e+00  -9.7363265314026085e-09 1.9431789368718875e-08 0.0000000000000000e+00  -6.7403641461989063e-09 1.8842495794277082e-08 0.0000000000000000e+00  -3.6357056010770556e-09 1.5674617717361206e-08 0.0000000000000000e+00  -1.1195605048931079e-09 9.4648854270991224e-09 0.0000000000000000e+00  7.5024254897733306e-11 1.9970576638591812e-10 0.0000000000000000e+00  6.6822953357540522e-11 -1.1197639161040822e-10 0.0000000000000000e+00  -9.5782031460903139e-10 -7.6225449904554511e-09 0.0000000000000000e+00  -3.1968250156448463e-09 -1.2845899691983353e-08 0.0000000000000000e+00  -6.1235050566981034e-09 -1.5739760633914842e-08 0.0000000000000000e+00  -9.1523830877522787e-09 -1.6552424257034667e-08 0.0000000000000000e+00  -1.1907287286934448e-08 -1.5701537588302990e-08 0.0000000000000000e+00  -1.4187348915856962e-08 -1.3640466833396886e-08 0.0000000000000000e+00  -1.5923763081250509e-08 -1.0770671499245023e-08 0.0000000000000000e+00  -1.7123194276936085e-08 -7.4039811198200542e-09 0.0000000000000000e+00  -1.7820966964773022e-08 -3.7627922856231968e-09 0.0000000000000000e+00  -1.8049590496593210e-08 -2.0443204951184096e-12 0.0000000000000000e+00  -1.7821684960183457e-08 3.7587801107996595e-09 0.0000000000000000e+00  -1.7124670747915250e-08 7.4001681788327674e-09 0.0000000000000000e+00  -1.5926048816570293e-08 1.0767094316265493e-08 0.0000000000000000e+00  -1.4190458235587292e-08 1.3637054813555526e-08 0.0000000000000000e+00  -1.1911143079151612e-08 1.5698205334008893e-08 0.0000000000000000e+00  -9.1567955701989721e-09 1.6549364181410173e-08 0.0000000000000000e+00  -6.1278172014277882e-09 1.5737726486963894e-08 0.0000000000000000e+00  -3.2008526138923009e-09 1.2846250254477844e-08 0.0000000000000000e+00  -9.5702373789032195e-10 7.6260321625134306e-09 0.0000000000000000e+00  6.8885434808522476e-11 1.4585579541845621e-10 0.0000000000000000e+00  6.0743221619600549e-11 -8.1088882209975161e-11 0.0000000000000000e+00  -8.3201287325555518e-10 -6.0157264973095235e-09 0.0000000000000000e+00  -2.8377873749266625e-09 -1.0266310678130814e-08 0.0000000000000000e+00  -5.5604274679518050e-09 -1.2754351615740075e-08 0.0000000000000000e+00  -8.5096993994086187e-09 -1.3606300303735251e-08 0.0000000000000000e+00  -1.1329945323631634e-08 -1.3085873289220453e-08 0.0000000000000000e+00  -1.3786642179447930e-08 -1.1509102781746598e-08 0.0000000000000000e+00  -1.5750285329700180e-08 -9.1806855495680259e-09 0.0000000000000000e+00  -1.7164056675476180e-08 -6.3588750171345128e-09 0.0000000000000000e+00  -1.8011968974327374e-08 -3.2467343263954410e-09 0.0000000000000000e+00  -1.8294292410294748e-08 -1.8990821195895991e-12 0.0000000000000000e+00  -1.8012744213084199e-08 3.2430074819873654e-09 0.0000000000000000e+00  -1.7165600863354684e-08 6.3553452469371104e-09 0.0000000000000000e+00  -1.5752569862440196e-08 9.1774376550684199e-09 0.0000000000000000e+00  -1.3789592078635505e-08 1.1506191822108955e-08 0.0000000000000000e+00  -1.1333408595503588e-08 1.3083398045422479e-08 0.0000000000000000e+00  -8.5134372609368392e-09 1.3604529721057261e-08 0.0000000000000000e+00  -5.5638721333650571e-09 1.2753739180315774e-08 0.0000000000000000e+00  -2.8407994404873313e-09 1.0267436372951624e-08 0.0000000000000000e+00  -8.3122622722163090e-10 6.0187055573447455e-09 0.0000000000000000e+00  6.3051304290759124e-11 1.0661934446505983e-10 0.0000000000000000e+00  5.5704692898861738e-11 -5.7134957314710266e-11 0.0000000000000000e+00  -7.3405247863193265e-10 -4.5943721500046272e-09 0.0000000000000000e+00  -2.5454250652572062e-09 -7.9147667993625963e-09 0.0000000000000000e+00  -5.0710053044415360e-09 -9.9330763799535391e-09 0.0000000000000000e+00  -7.8935480551023744e-09 -1.0707818793235460e-08 0.0000000000000000e+00  -1.0683601629885265e-08 -1.0402768807638837e-08 0.0000000000000000e+00  -1.3195113509836982e-08 -9.2330678150911004e-09 0.0000000000000000e+00  -1.5263797508100649e-08 -7.4213181747175807e-09 0.0000000000000000e+00  -1.6790813615657965e-08 -5.1696411222000742e-09 0.0000000000000000e+00  -1.7723134068941890e-08 -2.6489042096975279e-09 0.0000000000000000e+00  -1.8036419773993807e-08 -1.7306684270529468e-12 0.0000000000000000e+00  -1.7723831725640509e-08 2.6455147923892363e-09 0.0000000000000000e+00  -1.6792181808692921e-08 5.1664597815762806e-09 0.0000000000000000e+00  -1.5265774631486296e-08 7.4184654094323018e-09 0.0000000000000000e+00  -1.3197592356177307e-08 9.2306614053328794e-09 0.0000000000000000e+00  -1.0686413942111934e-08 1.0400959746438760e-08 0.0000000000000000e+00  -7.8964665205790574e-09 1.0706826256528556e-08 0.0000000000000000e+00  -5.0735846386108963e-09 9.9331300038401947e-09 0.0000000000000000e+00  -2.5475936865101130e-09 7.9160959637667549e-09 0.0000000000000000e+00  -7.3331390246375024e-10 4.5968943882397077e-09 0.0000000000000000e+00  5.7881379251549675e-11 7.7001128535433517e-11 0.0000000000000000e+00  5.1768230478203270e-11 -3.7947522749096456e-11 0.0000000000000000e+00  -6.5970514990529443e-10 -3.3187282528820123e-09 0.0000000000000000e+00  -2.3170064255067653e-09 -5.7569133624194373e-09 0.0000000000000000e+00  -4.6726727807371157e-09 -7.2777998592991212e-09 0.0000000000000000e+00  -7.3629635139593051e-09 -7.9041006609872720e-09 0.0000000000000000e+00  -1.0082583069123405e-08 -7.7344514776165306e-09 0.0000000000000000e+00  -1.2584520912381614e-08 -6.9097730915209925e-09 0.0000000000000000e+00  -1.4686017534696861e-08 -5.5844446698862723e-09 0.0000000000000000e+00  -1.6262260589611889e-08 -3.9062242499847971e-09 0.0000000000000000e+00  -1.7235568000388054e-08 -2.0067814196878064e-09 0.0000000000000000e+00  -1.7564491351444202e-08 -1.5715649304449586e-12 0.0000000000000000e+00  -1.7236119611916544e-08 2.0037123630879604e-09 0.0000000000000000e+00  -1.6263332796255749e-08 3.9033741740645597e-09 0.0000000000000000e+00  -1.4687545330856363e-08 5.5819524706980132e-09 0.0000000000000000e+00  -1.2586401049095945e-08 6.9077774134114828e-09 0.0000000000000000e+00  -1.0084668087358376e-08 7.7331000053491778e-09 0.0000000000000000e+00  -7.3650707320223414e-09 7.9035477454040337e-09 0.0000000000000000e+00  -4.6744825408130998e-09 7.2781460440800620e-09 0.0000000000000000e+00  -2.3184947930362524e-09 5.7582498661511576e-09 0.0000000000000000e+00  -6.5907996394915524e-10 3.3209217205843249e-09 0.0000000000000000e+00  5.3577625065386575e-11 5.3945356306523085e-11 0.0000000000000000e+00  4.8999969188378268e-11 -2.1922197323241551e-11 0.0000000000000000e+00  -6.0713887141284647e-10 -2.1517724195435782e-09 0.0000000000000000e+00  -2.1526092431036371e-09 -3.7506893837410986e-09 0.0000000000000000e+00  -4.3786201776107243e-09 -4.7651208967573028e-09 0.0000000000000000e+00  -6.9580052022014760e-09 -5.2012111654323812e-09 0.0000000000000000e+00  -9.6041177429451799e-09 -5.1142774086898767e-09 0.0000000000000000e+00  -1.2072853134488590e-