<?xml version="1.0"?>
<VTKFile type="UnstructuredGrid"  version="0.1"  >
<UnstructuredGrid>
<Piece  NumberOfPoints="651" NumberOfCells="1200">
<Points>
<DataArray  type="Float64"  NumberOfComponents="3"  format="ascii">0 0 0  50000 0 0  100000 0 0  150000 0 0  200000 0 0  250000 0 0  300000 0 0  350000 0 0  400000 0 0  450000 0 0  500000 0 0  550000 0 0  600000 0 0  650000 0 0  700000 0 0  750000 0 0  800000 0 0  850000 0 0  900000 0 0  950000 0 0  1000000 0 0  0 50000 0  50000 50000 0  100000 50000 0  150000 50000 0  200000 50000 0  250000 50000 0  300000 50000 0  350000 50000 0  400000 50000 0  450000 50000 0  500000 50000 0  550000 50000 0  600000 50000 0  650000 50000 0  700000 50000 0  750000 50000 0  800000 50000 0  850000 50000 0  900000 50000 0  950000 50000 0  1000000 50000 0  0 100000 0  50000 100000 0  100000 100000 0  150000 100000 0  200000 100000 0  250000 100000 0  300000 100000 0  350000 100000 0  400000 100000 0  450000 100000 0  500000 100000 0  550000 100000 0  600000 100000 0  650000 100000 0  700000 100000 0  750000 100000 0  800000 100000 0  850000 100000 0  900000 100000 0  950000 100000 0  1000000 100000 0  0 150000 0  50000 150000 0  100000 150000 0  150000 150000 0  200000 150000 0  250000 150000 0  300000 150000 0  350000 150000 0  400000 150000 0  450000 150000 0  500000 150000 0  550000 150000 0  600000 150000 0  650000 150000 0  700000 150000 0  750000 150000 0  800000 150000 0  850000 150000 0  900000 150000 0  950000 150000 0  1000000 150000 0  0 200000 0  50000 200000 0  100000 200000 0  150000 200000 0  200000 200000 0  250000 200000 0  300000 200000 0  350000 200000 0  400000 200000 0  450000 200000 0  500000 200000 0  550000 200000 0  600000 200000 0  650000 200000 0  700000 200000 0  750000 200000 0  800000 200000 0  850000 200000 0  900000 200000 0  950000 200000 0  1000000 200000 0  0 250000 0  50000 250000 0  100000 250000 0  150000 250000 0  200000 250000 0  250000 250000 0  300000 250000 0  350000 250000 0  400000 250000 0  450000 250000 0  500000 250000 0  550000 250000 0  600000 250000 0  650000 250000 0  700000 250000 0  750000 250000 0  800000 250000 0  850000 250000 0  900000 250000 0  950000 250000 0  1000000 250000 0  0 300000 0  50000 300000 0  100000 300000 0  150000 300000 0  200000 300000 0  250000 300000 0  300000 300000 0  350000 300000 0  400000 300000 0  450000 300000 0  500000 300000 0  550000 300000 0  600000 300000 0  650000 300000 0  700000 300000 0  750000 300000 0  800000 300000 0  850000 300000 0  900000 300000 0  950000 300000 0  1000000 300000 0  0 350000 0  50000 350000 0  100000 350000 0  150000 350000 0  200000 350000 0  250000 350000 0  300000 350000 0  350000 350000 0  400000 350000 0  450000 350000 0  500000 350000 0  550000 350000 0  600000 350000 0  650000 350000 0  700000 350000 0  750000 350000 0  800000 350000 0  850000 350000 0  900000 350000 0  950000 350000 0  1000000 350000 0  0 400000 0  50000 400000 0  100000 400000 0  150000 400000 0  200000 400000 0  250000 400000 0  300000 400000 0  350000 400000 0  400000 400000 0  450000 400000 0  500000 400000 0  550000 400000 0  600000 400000 0  650000 400000 0  700000 400000 0  750000 400000 0  800000 400000 0  850000 400000 0  900000 400000 0  950000 400000 0  1000000 400000 0  0 450000 0  50000 450000 0  100000 450000 0  150000 450000 0  200000 450000 0  250000 450000 0  300000 450000 0  350000 450000 0  400000 450000 0  450000 450000 0  500000 450000 0  550000 450000 0  600000 450000 0  650000 450000 0  700000 450000 0  750000 450000 0  800000 450000 0  850000 450000 0  900000 450000 0  950000 450000 0  1000000 450000 0  0 500000 0  50000 500000 0  100000 500000 0  150000 500000 0  200000 500000 0  250000 500000 0  300000 500000 0  350000 500000 0  400000 500000 0  450000 500000 0  500000 500000 0  550000 500000 0  600000 500000 0  650000 500000 0  700000 500000 0  750000 500000 0  800000 500000 0  850000 500000 0  900000 500000 0  950000 500000 0  1000000 500000 0  0 550000 0  50000 550000 0  100000 550000 0  150000 550000 0  200000 550000 0  250000 550000 0  300000 550000 0  350000 550000 0  400000 550000 0  450000 550000 0  500000 550000 0  550000 550000 0  600000 550000 0  650000 550000 0  700000 550000 0  750000 550000 0  800000 550000 0  850000 550000 0  900000 550000 0  950000 550000 0  1000000 550000 0  0 600000 0  50000 600000 0  100000 600000 0  150000 600000 0  200000 600000 0  250000 600000 0  300000 600000 0  350000 600000 0  400000 600000 0  450000 600000 0  500000 600000 0  550000 600000 0  600000 600000 0  650000 600000 0  700000 600000 0  750000 600000 0  800000 600000 0  850000 600000 0  900000 600000 0  950000 600000 0  1000000 600000 0  0 650000 0  50000 650000 0  100000 650000 0  150000 650000 0  200000 650000 0  250000 650000 0  300000 650000 0  350000 650000 0  400000 650000 0  450000 650000 0  500000 650000 0  550000 650000 0  600000 650000 0  650000 650000 0  700000 650000 0  750000 650000 0  800000 650000 0  850000 650000 0  900000 650000 0  950000 650000 0  1000000 650000 0  0 700000 0  50000 700000 0  100000 700000 0  150000 700000 0  200000 700000 0  250000 700000 0  300000 700000 0  350000 700000 0  400000 700000 0  450000 700000 0  500000 700000 0  550000 700000 0  600000 700000 0  650000 700000 0  700000 700000 0  750000 700000 0  800000 700000 0  850000 700000 0  900000 700000 0  950000 700000 0  1000000 700000 0  0 750000 0  50000 750000 0  100000 750000 0  150000 750000 0  200000 750000 0  250000 750000 0  300000 750000 0  350000 750000 0  400000 750000 0  450000 750000 0  500000 750000 0  550000 750000 0  600000 750000 0  650000 750000 0  700000 750000 0  750000 750000 0  800000 750000 0  850000 750000 0  900000 750000 0  950000 750000 0  1000000 750000 0  0 800000 0  50000 800000 0  100000 800000 0  150000 800000 0  200000 800000 0  250000 800000 0  300000 800000 0  350000 800000 0  400000 800000 0  450000 800000 0  500000 800000 0  550000 800000 0  600000 800000 0  650000 800000 0  700000 800000 0  750000 800000 0  800000 800000 0  850000 800000 0  900000 800000 0  950000 800000 0  1000000 800000 0  0 850000 0  50000 850000 0  100000 850000 0  150000 850000 0  200000 850000 0  250000 850000 0  300000 850000 0  350000 850000 0  400000 850000 0  450000 850000 0  500000 850000 0  550000 850000 0  600000 850000 0  650000 850000 0  700000 850000 0  750000 850000 0  800000 850000 0  850000 850000 0  900000 850000 0  950000 850000 0  1000000 850000 0  0 900000 0  50000 900000 0  100000 900000 0  150000 900000 0  200000 900000 0  250000 900000 0  300000 900000 0  350000 900000 0  400000 900000 0  450000 900000 0  500000 900000 0  550000 900000 0  600000 900000 0  650000 900000 0  700000 900000 0  750000 900000 0  800000 900000 0  850000 900000 0  900000 900000 0  950000 900000 0  1000000 900000 0  0 950000 0  50000 950000 0  100000 950000 0  150000 950000 0  200000 950000 0  250000 950000 0  300000 950000 0  350000 950000 0  400000 950000 0  450000 950000 0  500000 950000 0  550000 950000 0  600000 950000 0  650000 950000 0  700000 950000 0  750000 950000 0  800000 950000 0  850000 950000 0  900000 950000 0  950000 950000 0  1000000 950000 0  0 1000000 0  50000 1000000 0  100000 1000000 0  150000 1000000 0  200000 1000000 0  250000 1000000 0  300000 1000000 0  350000 1000000 0  400000 1000000 0  450000 1000000 0  500000 1000000 0  550000 1000000 0  600000 1000000 0  650000 1000000 0  700000 1000000 0  750000 1000000 0  800000 1000000 0  850000 1000000 0  900000 1000000 0  950000 1000000 0  1000000 1000000 0  0 1050000 0  50000 1050000 0  100000 1050000 0  150000 1050000 0  200000 1050000 0  250000 1050000 0  300000 1050000 0  350000 1050000 0  400000 1050000 0  450000 1050000 0  500000 1050000 0  550000 1050000 0  600000 1050000 0  650000 1050000 0  700000 1050000 0  750000 1050000 0  800000 1050000 0  850000 1050000 0  900000 1050000 0  950000 1050000 0  1000000 1050000 0  0 1100000 0  50000 1100000 0  100000 1100000 0  150000 1100000 0  200000 1100000 0  250000 1100000 0  300000 1100000 0  350000 1100000 0  400000 1100000 0  450000 1100000 0  500000 1100000 0  550000 1100000 0  600000 1100000 0  650000 1100000 0  700000 1100000 0  750000 1100000 0  800000 1100000 0  850000 1100000 0  900000 1100000 0  950000 1100000 0  1000000 1100000 0  0 1150000 0  50000 1150000 0  100000 1150000 0  150000 1150000 0  200000 1150000 0  250000 1150000 0  300000 1150000 0  350000 1150000 0  400000 1150000 0  450000 1150000 0  500000 1150000 0  550000 1150000 0  600000 1150000 0  650000 1150000 0  700000 1150000 0  750000 1150000 0  800000 1150000 0  850000 1150000 0  900000 1150000 0  950000 1150000 0  1000000 1150000 0  0 1200000 0  50000 1200000 0  100000 1200000 0  150000 1200000 0  200000 1200000 0  250000 1200000 0  300000 1200000 0  350000 1200000 0  400000 1200000 0  450000 1200000 0  500000 1200000 0  550000 1200000 0  600000 1200000 0  650000 1200000 0  700000 1200000 0  750000 1200000 0  800000 1200000 0  850000 1200000 0  900000 1200000 0  950000 1200000 0  1000000 1200000 0  0 1250000 0  50000 1250000 0  100000 1250000 0  150000 1250000 0  200000 1250000 0  250000 1250000 0  300000 1250000 0  350000 1250000 0  400000 1250000 0  450000 1250000 0  500000 1250000 0  550000 1250000 0  600000 1250000 0  650000 1250000 0  700000 1250000 0  750000 1250000 0  800000 1250000 0  850000 1250000 0  900000 1250000 0  950000 1250000 0  1000000 1250000 0  0 1300000 0  50000 1300000 0  100000 1300000 0  150000 1300000 0  200000 1300000 0  250000 1300000 0  300000 1300000 0  350000 1300000 0  400000 1300000 0  450000 1300000 0  500000 1300000 0  550000 1300000 0  600000 1300000 0  650000 1300000 0  700000 1300000 0  750000 1300000 0  800000 1300000 0  850000 1300000 0  900000 1300000 0  950000 1300000 0  1000000 1300000 0  0 1350000 0  50000 1350000 0  100000 1350000 0  150000 1350000 0  200000 1350000 0  250000 1350000 0  300000 1350000 0  350000 1350000 0  400000 1350000 0  450000 1350000 0  500000 1350000 0  550000 1350000 0  600000 1350000 0  650000 1350000 0  700000 135
[...]
<PointData  Vectors="f_10477"> 
<DataArray  type="Float64"  Name="f_10477"  NumberOfComponents="3" format="ascii">-6.3541031972033644e-09 -3.5686373189741511e-09 0.0000000000000000e+00  7.4775408365059465e-08 -2.3007690246014609e-09 0.0000000000000000e+00  7.7832871556765372e-08 -1.2586026001379904e-10 0.0000000000000000e+00  7.8876453826597695e-08 2.6912387315993186e-10 0.0000000000000000e+00  7.9372304539590780e-08 2.4597309481407597e-10 0.0000000000000000e+00  7.9602441967318057e-08 1.7321914505878345e-10 0.0000000000000000e+00  7.9714951483990064e-08 1.1313518418206932e-10 0.0000000000000000e+00  7.9772192903804553e-08 7.0130939308277264e-11 0.0000000000000000e+00  7.9800976150222729e-08 3.9205075062195833e-11 0.0000000000000000e+00  7.9813207264699620e-08 1.5247233148427016e-11 0.0000000000000000e+00  7.9813588227200326e-08 -5.9048417225779694e-12 0.0000000000000000e+00  7.9802339733615965e-08 -2.7882794824755266e-11 0.0000000000000000e+00  7.9775377272760268e-08 -5.4362920781229604e-11 0.0000000000000000e+00  7.9722126885324592e-08 -8.9583895623005549e-11 0.0000000000000000e+00  7.9619141822358416e-08 -1.3862003788393875e-10 0.0000000000000000e+00  7.9413547457173841e-08 -2.0618630346430538e-10 0.0000000000000000e+00  7.8985621719826219e-08 -2.8488186893826696e-10 0.0000000000000000e+00  7.8112889244737267e-08 -2.6070469531421367e-10 0.0000000000000000e+00  7.6391688344421126e-08 7.5328316363815108e-10 0.0000000000000000e+00  7.2329145592591524e-08 5.0894854366745672e-09 0.0000000000000000e+00  -8.4893220852435322e-09 5.1879228992978065e-09 0.0000000000000000e+00  -4.4373998212967570e-09 -4.0544383441956879e-09 0.0000000000000000e+00  -5.8905961259595565e-10 -2.3137259166370308e-08 0.0000000000000000e+00  1.7004558371629413e-08 -1.3881652359906084e-08 0.0000000000000000e+00  3.0939812351728516e-08 -7.5772888232500271e-09 0.0000000000000000e+00  3.9660210352271149e-08 -4.2712845314936763e-09 0.0000000000000000e+00  4.5044815523753963e-08 -2.5105213496711541e-09 0.0000000000000000e+00  4.8391439465753484e-08 -1.5124300533894459e-09 0.0000000000000000e+00  5.0462485564515971e-08 -9.0782247149342612e-10 0.0000000000000000e+00  5.1700833291709687e-08 -5.1503012007891029e-10 0.0000000000000000e+00  5.2358087325400362e-08 -2.3422487867453521e-10 0.0000000000000000e+00  5.2563265859997925e-08 -2.3164556538506064e-12 0.0000000000000000e+00  5.2356040673160776e-08 2.2913327993677566e-10 0.0000000000000000e+00  5.1696768255532431e-08 5.0840907193277491e-10 0.0000000000000000e+00  5.0456919101694243e-08 8.9798808716692025e-10 0.0000000000000000e+00  4.8387089318246524e-08 1.4959233881364187e-09 0.0000000000000000e+00  4.5052277482488023e-08 2.4793272288095769e-09 0.0000000000000000e+00  3.9715507969645812e-08 4.2132121905673320e-09 0.0000000000000000e+00  3.1168352525199131e-08 7.5446159973959154e-09 0.0000000000000000e+00  1.7823733111634978e-08 1.4320073922796317e-08 0.0000000000000000e+00  4.2427889275226107e-10 2.4874218991643334e-08 0.0000000000000000e+00  -7.0439092787351180e-09 5.5798181869525685e-09 0.0000000000000000e+00  -1.3402298873952878e-09 -2.3920596236490081e-09 0.0000000000000000e+00  -6.6787887879437998e-09 -2.9256000354216186e-08 0.0000000000000000e+00  -3.3741814786221268e-09 -2.5259424331987888e-08 0.0000000000000000e+00  4.7651934690071567e-09 -1.7459991930259393e-08 0.0000000000000000e+00  1.2738430489375730e-08 -1.1400208829500250e-08 0.0000000000000000e+00  1.8887904157717266e-08 -7.3381329269494297e-09 0.0000000000000000e+00  2.3227154385839151e-08 -4.6780558905785214e-09 0.0000000000000000e+00  2.6134178585173537e-08 -2.9105793578151299e-09 0.0000000000000000e+00  2.7962735442430943e-08 -1.6873291249751136e-09 0.0000000000000000e+00  2.8963876856800938e-08 -7.7320885620560605e-10 0.0000000000000000e+00  2.9282191861246030e-08 1.3047562306258076e-12 0.0000000000000000e+00  2.8964746283922671e-08 7.7610618951827669e-10 0.0000000000000000e+00  2.7965503314109308e-08 1.6911978996881780e-09 0.0000000000000000e+00  2.6141714308166748e-08 2.9165231431719942e-09 0.0000000000000000e+00  2.3246482797744520e-08 4.6884852690863617e-09 0.0000000000000000e+00  1.8936207091690130e-08 7.3603719665971214e-09 0.0000000000000000e+00  1.2857415582207915e-08 1.1459100815311041e-08 0.0000000000000000e+00  5.0200026363881562e-09 1.7608379028784611e-08 0.0000000000000000e+00  -3.0239777513097518e-09 2.5447332976873638e-08 0.0000000000000000e+00  -6.3085948601138665e-09 2.8324862279790857e-08 0.0000000000000000e+00  -2.3099037134843509e-09 2.9831395480792369e-09 0.0000000000000000e+00  -1.9456368184056271e-10 -1.3186506348034081e-09 0.0000000000000000e+00  -4.8472611269949632e-09 -2.4595521793895424e-08 0.0000000000000000e+00  -7.5216250070007346e-09 -2.7948841858767642e-08 0.0000000000000000e+00  -6.0150666427920501e-09 -2.3173951126916615e-08 0.0000000000000000e+00  -2.2138867607430569e-09 -1.7119026447655378e-08 0.0000000000000000e+00  1.8905713860157268e-09 -1.1966587636601114e-08 0.0000000000000000e+00  5.3711535362682169e-09 -8.0659304540490998e-09 0.0000000000000000e+00  7.9787030754837988e-09 -5.2114294676776826e-09 0.0000000000000000e+00  9.7389219678553084e-09 -3.0967028269889173e-09 0.0000000000000000e+00  1.0744743316968175e-08 -1.4396336802205871e-09 0.0000000000000000e+00  1.1071756771776194e-08 1.1173035098881525e-12 0.0000000000000000e+00  1.0747938151029993e-08 1.4421254620183454e-09 0.0000000000000000e+00  9.7465290606177308e-09 3.1001117268926625e-09 0.0000000000000000e+00  7.9936204376614606e-09 5.2170053684295358e-09 0.0000000000000000e+00  5.3989152189937505e-09 8.0765926100920594e-09 0.0000000000000000e+00  1.9396948785463109e-09 1.1989343019533482e-08 0.0000000000000000e+00  -2.1393449362373587e-09 1.7166326955569854e-08 0.0000000000000000e+00  -5.9341655926923219e-09 2.3236233331349610e-08 0.0000000000000000e+00  -7.4526664747820294e-09 2.7841222765019735e-08 0.0000000000000000e+00  -4.6360094180440333e-09 2.4122212504045610e-08 0.0000000000000000e+00  -3.3981413095714271e-10 1.8467465210531246e-09 0.0000000000000000e+00  7.5521529374385059e-11 -8.0329000956258376e-10 0.0000000000000000e+00  -3.3511903600578719e-09 -1.9469504255316233e-08 0.0000000000000000e+00  -7.4516098931346284e-09 -2.5711523882927744e-08 0.0000000000000000e+00  -9.4461186013817577e-09 -2.4211235732287792e-08 0.0000000000000000e+00  -9.1496394351347596e-09 -1.9708690566598194e-08 0.0000000000000000e+00  -7.6137655097101931e-09 -1.4808245372136648e-08 0.0000000000000000e+00  -5.7541849070090454e-09 -1.0522706798634495e-08 0.0000000000000000e+00  -4.0858173152123393e-09 -7.0600800849936234e-09 0.0000000000000000e+00  -2.8341543151282883e-09 -4.3033807751558043e-09 0.0000000000000000e+00  -2.0737190273002204e-09 -2.0306832849254192e-09 0.0000000000000000e+00  -1.8190125526107966e-09 7.7556048479529596e-13 0.0000000000000000e+00  -2.0701692238108682e-09 2.0324675753571069e-09 0.0000000000000000e+00  -2.8263873329597892e-09 4.3059983538005451e-09 0.0000000000000000e+00  -4.0725493540835439e-09 7.0645799539061661e-09 0.0000000000000000e+00  -5.7339381851940920e-09 1.0530856800254458e-08 0.0000000000000000e+00  -7.5862468277856967e-09 1.4821484804327048e-08 0.0000000000000000e+00  -9.1177865840671191e-09 1.9720957497815320e-08 0.0000000000000000e+00  -9.4194510786049765e-09 2.4191115825843960e-08 0.0000000000000000e+00  -7.4274839845974707e-09 2.5588553429722729e-08 0.0000000000000000e+00  -3.2678338497591910e-09 1.9304840497472054e-08 0.0000000000000000e+00  2.8253326481458230e-11 1.1697806825026337e-09 0.0000000000000000e+00  1.1785991362429243e-10 -5.1482580038271483e-10 0.0000000000000000e+00  -2.4346255047962158e-09 -1.5221521780362754e-08 0.0000000000000000e+00  -6.4395860557722753e-09 -2.1892334460462207e-08 0.0000000000000000e+00  -9.7685797812152194e-09 -2.2446635444101811e-08 0.0000000000000000e+00  -1.1524453340842597e-08 -1.9667448799361973e-08 0.0000000000000000e+00  -1.1963133411792162e-08 -1.5689501118085138e-08 0.0000000000000000e+00  -1.1640482498613624e-08 -1.1682529673480239e-08 0.0000000000000000e+00  -1.1030974183904025e-08 -8.1172716351556257e-09 0.0000000000000000e+00  -1.0440070127688171e-08 -5.0698039092018835e-09 0.0000000000000000e+00  -1.0034376324633132e-08 -2.4273473800478423e-09 0.0000000000000000e+00  -9.8909743346137904e-09 1.3663490041491104e-13 0.0000000000000000e+00  -1.0031630291304733e-08 2.4277646956105960e-09 0.0000000000000000e+00  -1.0434474266080352e-08 5.0707021547462049e-09 0.0000000000000000e+00  -1.1022500911948037e-08 8.1190631419817521e-09 0.0000000000000000e+00  -1.1629577555377747e-08 1.1685338138806459e-08 0.0000000000000000e+00  -1.1951277513200437e-08 1.5691495191018718e-08 0.0000000000000000e+00  -1.1514126133999383e-08 1.9660471740131979e-08 0.0000000000000000e+00  -9.7611917611906895e-09 2.2412235572454976e-08 0.0000000000000000e+00  -6.4345522659343463e-09 2.1824556591647474e-08 0.0000000000000000e+00  -2.4071716464495057e-09 1.5171549828457479e-08 0.0000000000000000e+00  1.0097875151039134e-10 7.3490641470368793e-10 0.0000000000000000e+00  1.1085373135835876e-10 -3.4319616888776273e-10 0.0000000000000000e+00  -1.8289902329639131e-09 -1.1830890835002651e-08 0.0000000000000000e+00  -5.3139814161922924e-09 -1.7944213122254906e-08 0.0000000000000000e+00  -8.8764262030362903e-09 -1.9486214223990476e-08 0.0000000000000000e+00  -1.1543689240711399e-08 -1.8030008609533157e-08 0.0000000000000000e+00  -1.3155420481219150e-08 -1.5085241795319359e-08 0.0000000000000000e+00  -1.3934080311842033e-08 -1.1683603839654517e-08 0.0000000000000000e+00  -1.4195325550905454e-08 -8.3711201361254899e-09 0.0000000000000000e+00  -1.4206089628798153e-08 -5.3445774802235105e-09 0.0000000000000000e+00  -1.4146615945663211e-08 -2.5931791868349070e-09 0.0000000000000000e+00  -1.4115890377533383e-08 -4.4580929716377130e-13 0.0000000000000000e+00  -1.4145015931670145e-08 2.5923450139900380e-09 0.0000000000000000e+00  -1.4203050815120153e-08 5.3438903484645447e-09 0.0000000000000000e+00  -1.4191249421515704e-08 8.3705016756811308e-09 0.0000000000000000e+00  -1.3929718469712750e-08 1.1682340359730548e-08 0.0000000000000000e+00  -1.3151906638669098e-08 1.5080968422368037e-08 0.0000000000000000e+00  -1.1542344028718888e-08 1.8017688757256054e-08 0.0000000000000000e+00  -8.8772858673403228e-09 1.9460566596762593e-08 0.0000000000000000e+00  -5.3177705218791055e-09 1.7912932561910908e-08 0.0000000000000000e+00  -1.8188266736152581e-09 1.1818271078722642e-08 0.0000000000000000e+00  1.0891620509058364e-10 4.7855830525327376e-10 0.0000000000000000e+00  9.4387048402739091e-11 -2.3539657786183764e-10 0.0000000000000000e+00  -1.3944005837457319e-09 -9.1508190939574181e-09 0.0000000000000000e+00  -4.2885888656809357e-09 -1.4381265184382565e-08 0.0000000000000000e+00  -7.5983653054043285e-09 -1.6252486691739791e-08 0.0000000000000000e+00  -1.0485473190237247e-08 -1.5654197821439336e-08 0.0000000000000000e+00  -1.2632992718515284e-08 -1.3592536684021818e-08 0.0000000000000000e+00  -1.4049904798876812e-08 -1.0870421654633132e-08 0.0000000000000000e+00  -1.4894381181902451e-08 -7.9924848296112813e-09 0.0000000000000000e+00  -1.5349436786112896e-08 -5.2004681249398046e-09 0.0000000000000000e+00  -1.5562140959971995e-08 -2.5527668497450628e-09 0.0000000000000000e+00  -1.5622802192372184e-08 -8.9310439145837691e-13 0.0000000000000000e+00  -1.5561493416541476e-08 2.5509729924474564e-09 0.0000000000000000e+00  -1.5348333994141586e-08 5.1985955707691065e-09 0.0000000000000000e+00  -1.4893210268097793e-08 7.9902430778651469e-09 0.0000000000000000e+00  -1.4049226955403734e-08 1.0867010768579122e-08 0.0000000000000000e+00  -1.2633480049976931e-08 1.3586364664508566e-08 0.0000000000000000e+00  -1.0487804228392708e-08 1.5643306317743050e-08 0.0000000000000000e+00  -7.6023742890604117e-09 1.6237045888843836e-08 0.0000000000000000e+00  -4.2945193734212149e-09 1.4368097051736171e-08 0.0000000000000000e+00  -1.3889571919950805e-09 9.1502253376252795e-09 0.0000000000000000e+00  9.8898044372971858e-11 3.2250825112931915e-10 0.0000000000000000e+00  7.7815185352305815e-11 -1.6466386946304486e-10 0.0000000000000000e+00  -1.0717421747139797e-09 -7.0431288947899553e-09 0.0000000000000000e+00  -3.4245498622397664e-09 -1.1345623504733394e-08 0.0000000000000000e+00  -6.3111444388195183e-09 -1.3190060475574627e-08 0.0000000000000000e+00  -9.0642211820385807e-09 -1.3086155190929292e-08 0.0000000000000000e+00  -1.1341095660867049e-08 -1.1690644164153952e-08 0.0000000000000000e+00  -1.3040109688733262e-08 -9.5902405443454710e-09 0.0000000000000000e+00  -1.4204618398697657e-08 -7.2013308315993373e-09 0.0000000000000000e+00  -1.4934224730129310e-08 -4.7599945868553035e-09 0.0000000000000000e+00  -1.5327134899338742e-08 -2.3594880005771292e-09 0.0000000000000000e+00  -1.5450293976504041e-08 -1.1856484183985151e-12 0.0000000000000000e+00  -1.5327093385772731e-08 2.3570748646343312e-09 0.0000000000000000e+00  -1.4934278777547638e-08 4.7574053865606992e-09 0.0000000000000000e+00  -1.4205023711641230e-08 7.1982703375419200e-09 0.0000000000000000e+00  -1.3041204837757493e-08 9.5861563327189761e-09 0.0000000000000000e+00  -1.1343249061076238e-08 1.1684810897644253e-08 0.0000000000000000e+00  -9.0677557896222388e-09 1.3078299762876362e-08 0.0000000000000000e+00  -6.3157286668281546e-09 1.3181605846831430e-08 0.0000000000000000e+00  -3.4299462777679943e-09 1.1340886047947971e-08 0.0000000000000000e+00  -1.0678923341726416e-09 7.0462420523859372e-09 0.0000000000000000e+00  8.4327518633755034e-11 2.2277816481215873e-10 0.0000000000000000e+00  6.3620266712992084e-11 -1.1657803634467869e-10 0.0000000000000000e+00  -8.3261936524974271e-10 -5.3846863259815735e-09 0.0000000000000000e+00  -2.7343019647021045e-09 -8.8258416637416313e-09 0.0000000000000000e+00  -5.1815609348116648e-09 -1.0470347782050633e-08 0.0000000000000000e+00  -7.6572624475229337e-09 -1.0615939055256639e-08 0.0000000000000000e+00  -9.8461083336013511e-09 -9.6898243766241866e-09 0.0000000000000000e+00  -1.1600771633207613e-08 -8.1071019651945002e-09 0.0000000000000000e+00  -1.2893771346988169e-08 -6.1899226511547984e-09 0.0000000000000000e+00  -1.3760172746961764e-08 -4.1434941619866724e-09 0.0000000000000000e+00  -1.4252379917073126e-08 -2.0702462782113952e-09 0.0000000000000000e+00  -1.4411481151385357e-08 -1.3419139483846283e-12 0.0000000000000000e+00  -1.4252645340575191e-08 2.0675145411865811e-09 0.0000000000000000e+00  -1.3760782488683461e-08 4.1405888987000908e-09 0.0000000000000000e+00  -1.2894868074771337e-08 6.1866410151121191e-09 0.0000000000000000e+00  -1.1602536726340039e-08 8.1031766002116870e-09 0.0000000000000000e+00  -9.8487207592960184e-09 9.6850928884166394e-09 0.0000000000000000e+00  -7.6608270209387481e-09 1.0610761985348074e-08 0.0000000000000000e+00  -5.1856524404098815e-09 1.0466045502017104e-08 0.0000000000000000e+00  -2.7385355603024404e-09 8.8249251753046955e-09 0.0000000000000000e+00  -8.2970272621124086e-10 5.3886620795641606e-09 0.0000000000000000e+00  7.0020211686438319e-11 1.5658698287441994e-10 0.0000000000000000e+00  5.2369481793608305e-11 -8.2673168095254788e-11 0.0000000000000000e+00  -6.5871859295703483e-10 -4.0680096736523398e-09 0.0000000000000000e+00  -2.2070410976392681e-09 -6.7486005981241188e-09 0.0000000000000000e+00  -4.2678175780170543e-09 -8.1216672803674601e-09 0.0000000000000000e+00  -6.4400360733323315e-09 -8.3651816185367130e-09 0.0000000000000000e+00  -8.4504350993072570e-09 -7.7579005789224740e-09 0.0000000000000000e+00  -1.0140653436828404e-08 -6.5881179258670945e-09 0.0000000000000000e+00  -1.1444926916567588e-08 -5.0949434118179613e-09 0.0000000000000000e+00  -1.2355054553543768e-08 -3.4442052504384990e-09 0.0000000000000000e+00  -1.2888167123053204e-08 -1.7316148698049611e-09 0.0000000000000000e+00  -1.3063393665625954e-08 -1.3947209958126917e-12 0.0000000000000000e+00  -1.2888540176513091e-08 1.7287901922511621e-09 0.0000000000000000e+00  -1.2355841122974727e-08 3.4412649054484721e-09 0.0000000000000000e+00  -1.1446198743731017e-08 5.0917927207292416e-09 0.0000000000000000e+00  -1.0142496398730395e-08 6.5846962887920831e-09 0.0000000000000000e+00  -8.4529145197053337e-09 7.7543177699508857e-09 0.0000000000000000e+00  -6.4431342926599731e-09 8.3619263470253605e-09 0.0000000000000000e+00  -4.2711129012311511e-09 8.1196924788021688e-09 0.0000000000000000e+00  -2.2101750451834162e-09 6.7493297722199355e-09 0.0000000000000000e+00  -6.5655874459976706e-10 4.0718410364011985e-09 0.0000000000000000e+00  5.7788136790224676e-11 1.1117716592393090e-10 0.0000000000000000e+00  4.3951887051258164e-11 -5.7687444450465276e-11 0.0000000000000000e+00  -5.3554538290656158e-10 -3.0027713034599683e-09 0.0000000000000000e+00  -1.8205221899589938e-09 -5.0223764821499258e-09 0.0000000000000000e+00  -3.5718896179916937e-09 -6.1046798797496860e-09 0.0000000000000000e+00  -5.4724545087347000e-09 -6.3581894404085750e-09 0.0000000000000000e+00  -7.2889431884190339e-09 -5.9647107542890345e-09 0.0000000000000000e+00  -8.8675207868664645e-09 -5.1209370075752834e-09 0.0000000000000000e+00  -1.0124566728396047e-08 -3.9981458836648048e-09 0.0000000000000000e+00  -1.1025791910947665e-08 -2.7227961490367657e-09 0.0000000000000000e+00  -1.1564325793259805e-08 -1.3754288461924739e-09 0.0000000000000000e+00  -1.1743220364388471e-08 -1.3807138600365767e-12 0.0000000000000000e+00  -1.1564692204478031e-08 1.3726530788282094e-09 0.0000000000000000e+00  -1.1026544239435045e-08 2.7199798242994759e-09 0.0000000000000000e+00  -1.0125738002163904e-08 3.9952812293829160e-09 0.0000000000000000e+00  -8.8691442753225350e-09 5.1180815728875055e-09 0.0000000000000000e+00  -7.2910237334822403e-09 5.9620692735035319e-09 0.0000000000000000e+00  -5.4749216096410854e-09 6.3561957746831087e-09 0.0000000000000000e+00  -3.5743845116901920e-09 6.1039594876462932e-09 0.0000000000000000e+00  -1.8227624094338668e-09 5.0237256523304344e-09 0.0000000000000000e+00  -5.3401593118328119e-10 3.0061329816932096e-09 0.0000000000000000e+00  4.8141617206096377e-11 7.8864724803935984e-11 0.0000000000000000e+00  3.8020702910470275e-11 -3.8249148212945541e-11 0.0000000000000000e+00  -4.5132524881775399e-10 -2.1158571086222202e-09 0.0000000000000000e+00  -1.5497158212318790e-09 -3.5580517853624289e-09 0.0000000000000000e+00  -3.0712130114132477e-09 -4.3538052215353052e-09 0.0000000000000000e+00  -4.7559433376048266e-09 -4.5693107856148213e-09 0.0000000000000000e+00  -6.4025058396874135e-09 -4.3208774223536694e-09 0.0000000000000000e+00  -7.8665501431018232e-09 -3.7382826763919287e-09 0.0000000000000000e+00  -9.0578361392527308e-09 -2.9384899942454685e-09 0.0000000000000000e+00  -9.9277586027511287e-09 -2.0118255846993006e-09 0.0000000000000000e+00  -1.0454601932948290e-08 -1.0198420669430002e-09 0.0000000000000000e+00  -1.0630839295521657e-08 -1.3338127567839797e-12 0.0000000000000000e+00  -1.0454903170111383e-08 1.0171811838541603e-09 0.0000000000000000e+00  -9.9283701724590415e-09 2.0091927553866496e-09 0.0000000000000000e+00  -9.0587717471465589e-09 2.9359354788597036e-09 0.0000000000000000e+00  -7.8678175132958127e-09 3.7359195440267678e-09 0.0000000000000000e+00  -6.4040850001658104e-09 4.3189216529667059e-09 0.0000000000000000e+00  -4.7577553071008154e-09 4.5681006592865174e-09 0.0000000000000000e+00  -3.0729856758229219e-09 4.3537331104548671e-09 0.0000000000000000e+00  -1.5512463620515499e-09 3.5595570058355718e-09 0.0000000000000000e+00  -4.5030099611745253e-10 2.1187126645635623e-09 0.0000000000000000e+00  4.1008408275880568e-11 5.4819634302189389e-11 0.0000000000000000e+00  3.4203992439327055e-11 -2.2137184893881042e-11 0.0000000000000000e+00  -3.9711918945367593e-10 -1.3492667430980850e-09 0.0000000000000000e+00  -1.3725614812595535e-09 -2.2767017381005879e-09 0.0000000000000000e+00  -2.7376929576793595e-09 -2.7977749513247896e-09 0.0000000000000000e+00  -4.2692606892104186e-09 -2.9507338219607078e-09 0.0000000000000000e+00  -5.7881962278822004e-09 -2.8048751282803398e-09 0.0000000000000000e+00  -7.15920434384