<?xml version="1.0"?>
<VTKFile type="UnstructuredGrid"  version="0.1"  >
<UnstructuredGrid>
<Piece  NumberOfPoints="651" NumberOfCells="1200">
<Points>
<DataArray  type="Float64"  NumberOfComponents="3"  format="ascii">0 0 0  50000 0 0  100000 0 0  150000 0 0  200000 0 0  250000 0 0  300000 0 0  350000 0 0  400000 0 0  450000 0 0  500000 0 0  550000 0 0  600000 0 0  650000 0 0  700000 0 0  750000 0 0  800000 0 0  850000 0 0  900000 0 0  950000 0 0  1000000 0 0  0 50000 0  50000 50000 0  100000 50000 0  150000 50000 0  200000 50000 0  250000 50000 0  300000 50000 0  350000 50000 0  400000 50000 0  450000 50000 0  500000 50000 0  550000 50000 0  600000 50000 0  650000 50000 0  700000 50000 0  750000 50000 0  800000 50000 0  850000 50000 0  900000 50000 0  950000 50000 0  1000000 50000 0  0 100000 0  50000 100000 0  100000 100000 0  150000 100000 0  200000 100000 0  250000 100000 0  300000 100000 0  350000 100000 0  400000 100000 0  450000 100000 0  500000 100000 0  550000 100000 0  600000 100000 0  650000 100000 0  700000 100000 0  750000 100000 0  800000 100000 0  850000 100000 0  900000 100000 0  950000 100000 0  1000000 100000 0  0 150000 0  50000 150000 0  100000 150000 0  150000 150000 0  200000 150000 0  250000 150000 0  300000 150000 0  350000 150000 0  400000 150000 0  450000 150000 0  500000 150000 0  550000 150000 0  600000 150000 0  650000 150000 0  700000 150000 0  750000 150000 0  800000 150000 0  850000 150000 0  900000 150000 0  950000 150000 0  1000000 150000 0  0 200000 0  50000 200000 0  100000 200000 0  150000 200000 0  200000 200000 0  250000 200000 0  300000 200000 0  350000 200000 0  400000 200000 0  450000 200000 0  500000 200000 0  550000 200000 0  600000 200000 0  650000 200000 0  700000 200000 0  750000 200000 0  800000 200000 0  850000 200000 0  900000 200000 0  950000 200000 0  1000000 200000 0  0 250000 0  50000 250000 0  100000 250000 0  150000 250000 0  200000 250000 0  250000 250000 0  300000 250000 0  350000 250000 0  400000 250000 0  450000 250000 0  500000 250000 0  550000 250000 0  600000 250000 0  650000 250000 0  700000 250000 0  750000 250000 0  800000 250000 0  850000 250000 0  900000 250000 0  950000 250000 0  1000000 250000 0  0 300000 0  50000 300000 0  100000 300000 0  150000 300000 0  200000 300000 0  250000 300000 0  300000 300000 0  350000 300000 0  400000 300000 0  450000 300000 0  500000 300000 0  550000 300000 0  600000 300000 0  650000 300000 0  700000 300000 0  750000 300000 0  800000 300000 0  850000 300000 0  900000 300000 0  950000 300000 0  1000000 300000 0  0 350000 0  50000 350000 0  100000 350000 0  150000 350000 0  200000 350000 0  250000 350000 0  300000 350000 0  350000 350000 0  400000 350000 0  450000 350000 0  500000 350000 0  550000 350000 0  600000 350000 0  650000 350000 0  700000 350000 0  750000 350000 0  800000 350000 0  850000 350000 0  900000 350000 0  950000 350000 0  1000000 350000 0  0 400000 0  50000 400000 0  100000 400000 0  150000 400000 0  200000 400000 0  250000 400000 0  300000 400000 0  350000 400000 0  400000 400000 0  450000 400000 0  500000 400000 0  550000 400000 0  600000 400000 0  650000 400000 0  700000 400000 0  750000 400000 0  800000 400000 0  850000 400000 0  900000 400000 0  950000 400000 0  1000000 400000 0  0 450000 0  50000 450000 0  100000 450000 0  150000 450000 0  200000 450000 0  250000 450000 0  300000 450000 0  350000 450000 0  400000 450000 0  450000 450000 0  500000 450000 0  550000 450000 0  600000 450000 0  650000 450000 0  700000 450000 0  750000 450000 0  800000 450000 0  850000 450000 0  900000 450000 0  950000 450000 0  1000000 450000 0  0 500000 0  50000 500000 0  100000 500000 0  150000 500000 0  200000 500000 0  250000 500000 0  300000 500000 0  350000 500000 0  400000 500000 0  450000 500000 0  500000 500000 0  550000 500000 0  600000 500000 0  650000 500000 0  700000 500000 0  750000 500000 0  800000 500000 0  850000 500000 0  900000 500000 0  950000 500000 0  1000000 500000 0  0 550000 0  50000 550000 0  100000 550000 0  150000 550000 0  200000 550000 0  250000 550000 0  300000 550000 0  350000 550000 0  400000 550000 0  450000 550000 0  500000 550000 0  550000 550000 0  600000 550000 0  650000 550000 0  700000 550000 0  750000 550000 0  800000 550000 0  850000 550000 0  900000 550000 0  950000 550000 0  1000000 550000 0  0 600000 0  50000 600000 0  100000 600000 0  150000 600000 0  200000 600000 0  250000 600000 0  300000 600000 0  350000 600000 0  400000 600000 0  450000 600000 0  500000 600000 0  550000 600000 0  600000 600000 0  650000 600000 0  700000 600000 0  750000 600000 0  800000 600000 0  850000 600000 0  900000 600000 0  950000 600000 0  1000000 600000 0  0 650000 0  50000 650000 0  100000 650000 0  150000 650000 0  200000 650000 0  250000 650000 0  300000 650000 0  350000 650000 0  400000 650000 0  450000 650000 0  500000 650000 0  550000 650000 0  600000 650000 0  650000 650000 0  700000 650000 0  750000 650000 0  800000 650000 0  850000 650000 0  900000 650000 0  950000 650000 0  1000000 650000 0  0 700000 0  50000 700000 0  100000 700000 0  150000 700000 0  200000 700000 0  250000 700000 0  300000 700000 0  350000 700000 0  400000 700000 0  450000 700000 0  500000 700000 0  550000 700000 0  600000 700000 0  650000 700000 0  700000 700000 0  750000 700000 0  800000 700000 0  850000 700000 0  900000 700000 0  950000 700000 0  1000000 700000 0  0 750000 0  50000 750000 0  100000 750000 0  150000 750000 0  200000 750000 0  250000 750000 0  300000 750000 0  350000 750000 0  400000 750000 0  450000 750000 0  500000 750000 0  550000 750000 0  600000 750000 0  650000 750000 0  700000 750000 0  750000 750000 0  800000 750000 0  850000 750000 0  900000 750000 0  950000 750000 0  1000000 750000 0  0 800000 0  50000 800000 0  100000 800000 0  150000 800000 0  200000 800000 0  250000 800000 0  300000 800000 0  350000 800000 0  400000 800000 0  450000 800000 0  500000 800000 0  550000 800000 0  600000 800000 0  650000 800000 0  700000 800000 0  750000 800000 0  800000 800000 0  850000 800000 0  900000 800000 0  950000 800000 0  1000000 800000 0  0 850000 0  50000 850000 0  100000 850000 0  150000 850000 0  200000 850000 0  250000 850000 0  300000 850000 0  350000 850000 0  400000 850000 0  450000 850000 0  500000 850000 0  550000 850000 0  600000 850000 0  650000 850000 0  700000 850000 0  750000 850000 0  800000 850000 0  850000 850000 0  900000 850000 0  950000 850000 0  1000000 850000 0  0 900000 0  50000 900000 0  100000 900000 0  150000 900000 0  200000 900000 0  250000 900000 0  300000 900000 0  350000 900000 0  400000 900000 0  450000 900000 0  500000 900000 0  550000 900000 0  600000 900000 0  650000 900000 0  700000 900000 0  750000 900000 0  800000 900000 0  850000 900000 0  900000 900000 0  950000 900000 0  1000000 900000 0  0 950000 0  50000 950000 0  100000 950000 0  150000 950000 0  200000 950000 0  250000 950000 0  300000 950000 0  350000 950000 0  400000 950000 0  450000 950000 0  500000 950000 0  550000 950000 0  600000 950000 0  650000 950000 0  700000 950000 0  750000 950000 0  800000 950000 0  850000 950000 0  900000 950000 0  950000 950000 0  1000000 950000 0  0 1000000 0  50000 1000000 0  100000 1000000 0  150000 1000000 0  200000 1000000 0  250000 1000000 0  300000 1000000 0  350000 1000000 0  400000 1000000 0  450000 1000000 0  500000 1000000 0  550000 1000000 0  600000 1000000 0  650000 1000000 0  700000 1000000 0  750000 1000000 0  800000 1000000 0  850000 1000000 0  900000 1000000 0  950000 1000000 0  1000000 1000000 0  0 1050000 0  50000 1050000 0  100000 1050000 0  150000 1050000 0  200000 1050000 0  250000 1050000 0  300000 1050000 0  350000 1050000 0  400000 1050000 0  450000 1050000 0  500000 1050000 0  550000 1050000 0  600000 1050000 0  650000 1050000 0  700000 1050000 0  750000 1050000 0  800000 1050000 0  850000 1050000 0  900000 1050000 0  950000 1050000 0  1000000 1050000 0  0 1100000 0  50000 1100000 0  100000 1100000 0  150000 1100000 0  200000 1100000 0  250000 1100000 0  300000 1100000 0  350000 1100000 0  400000 1100000 0  450000 1100000 0  500000 1100000 0  550000 1100000 0  600000 1100000 0  650000 1100000 0  700000 1100000 0  750000 1100000 0  800000 1100000 0  850000 1100000 0  900000 1100000 0  950000 1100000 0  1000000 1100000 0  0 1150000 0  50000 1150000 0  100000 1150000 0  150000 1150000 0  200000 1150000 0  250000 1150000 0  300000 1150000 0  350000 1150000 0  400000 1150000 0  450000 1150000 0  500000 1150000 0  550000 1150000 0  600000 1150000 0  650000 1150000 0  700000 1150000 0  750000 1150000 0  800000 1150000 0  850000 1150000 0  900000 1150000 0  950000 1150000 0  1000000 1150000 0  0 1200000 0  50000 1200000 0  100000 1200000 0  150000 1200000 0  200000 1200000 0  250000 1200000 0  300000 1200000 0  350000 1200000 0  400000 1200000 0  450000 1200000 0  500000 1200000 0  550000 1200000 0  600000 1200000 0  650000 1200000 0  700000 1200000 0  750000 1200000 0  800000 1200000 0  850000 1200000 0  900000 1200000 0  950000 1200000 0  1000000 1200000 0  0 1250000 0  50000 1250000 0  100000 1250000 0  150000 1250000 0  200000 1250000 0  250000 1250000 0  300000 1250000 0  350000 1250000 0  400000 1250000 0  450000 1250000 0  500000 1250000 0  550000 1250000 0  600000 1250000 0  650000 1250000 0  700000 1250000 0  750000 1250000 0  800000 1250000 0  850000 1250000 0  900000 1250000 0  950000 1250000 0  1000000 1250000 0  0 1300000 0  50000 1300000 0  100000 1300000 0  150000 1300000 0  200000 1300000 0  250000 1300000 0  300000 1300000 0  350000 1300000 0  400000 1300000 0  450000 1300000 0  500000 1300000 0  550000 1300000 0  600000 1300000 0  650000 1300000 0  700000 1300000 0  750000 1300000 0  800000 1300000 0  850000 1300000 0  900000 1300000 0  950000 1300000 0  1000000 1300000 0  0 1350000 0  50000 1350000 0  100000 1350000 0  150000 1350000 0  200000 1350000 0  250000 1350000 0  300000 1350000 0  350000 1350000 0  400000 1350000 0  450000 1350000 0  500000 1350000 0  550000 1350000 0  600000 1350000 0  650000 1350000 0  700000 135
[...]
<PointData  Vectors="f_10477"> 
<DataArray  type="Float64"  Name="f_10477"  NumberOfComponents="3" format="ascii">-6.3690456339035015e-09 -3.5811495756393073e-09 0.0000000000000000e+00  7.4761237753568211e-08 -2.3094004837323559e-09 0.0000000000000000e+00  7.7824263278161951e-08 -1.3098363445794333e-10 0.0000000000000000e+00  7.8871718295408857e-08 2.6507482360311790e-10 0.0000000000000000e+00  7.9367993495345662e-08 2.4220086230391980e-10 0.0000000000000000e+00  7.9597379223211955e-08 1.6972979597271253e-10 0.0000000000000000e+00  7.9708960627198281e-08 1.1018249516271494e-10 0.0000000000000000e+00  7.9765469799326034e-08 6.7912219838769797e-11 0.0000000000000000e+00  7.9793797635898747e-08 3.7809055781321054e-11 0.0000000000000000e+00  7.9805816898534087e-08 1.4693828506493775e-11 0.0000000000000000e+00  7.9806183340402566e-08 -5.6159209884220191e-12 0.0000000000000000e+00  7.9795107719474456e-08 -2.6748439510674057e-11 0.0000000000000000e+00  7.9768536864084609e-08 -5.2388773150826758e-11 0.0000000000000000e+00  7.9715930956614071e-08 -8.6829208742784222e-11 0.0000000000000000e+00  7.9613792593131566e-08 -1.3525872364794665e-10 0.0000000000000000e+00  7.9408965881047142e-08 -2.0254163899168025e-10 0.0000000000000000e+00  7.8981034084725928e-08 -2.8128438658197385e-10 0.0000000000000000e+00  7.8106341645322974e-08 -2.5662623243052452e-10 0.0000000000000000e+00  7.6380655848101380e-08 7.6091215308970826e-10 0.0000000000000000e+00  7.2317150058708700e-08 5.0999269244159456e-09 0.0000000000000000e+00  -8.4998243425510627e-09 5.1956771548610413e-09 0.0000000000000000e+00  -4.4467909083148108e-09 -4.0705399336967998e-09 0.0000000000000000e+00  -5.8326907659734409e-10 -2.3114983920886511e-08 0.0000000000000000e+00  1.6949812657142410e-08 -1.3848750209270738e-08 0.0000000000000000e+00  3.0806459112715609e-08 -7.5318494597580098e-09 0.0000000000000000e+00  3.9437184132252982e-08 -4.2209056836348511e-09 0.0000000000000000e+00  4.4732918308338635e-08 -2.4631551098119764e-09 0.0000000000000000e+00  4.8001301803730678e-08 -1.4731050143638738e-09 0.0000000000000000e+00  5.0010502075470474e-08 -8.7866731910427546e-10 0.0000000000000000e+00  5.1205380643470869e-08 -4.9620527689187883e-10 0.0000000000000000e+00  5.1837229762807141e-08 -2.2504474095427482e-10 0.0000000000000000e+00  5.2034084862959405e-08 -2.1768039382419128e-12 0.0000000000000000e+00  5.1835141281655147e-08 2.2024070111646656e-10 0.0000000000000000e+00  5.1201211320475274e-08 4.8988732770389877e-10 0.0000000000000000e+00  5.0004739513376581e-08 8.6913179929535454e-10 0.0000000000000000e+00  4.7996652621307102e-08 1.4568309240347837e-09 0.0000000000000000e+00  4.4740037198745744e-08 2.4320235716974309e-09 0.0000000000000000e+00  3.9492331379989188e-08 4.1626751493712613e-09 0.0000000000000000e+00  3.1035628683203118e-08 7.4991130692059413e-09 0.0000000000000000e+00  1.7771526273041213e-08 1.4288010060385780e-08 0.0000000000000000e+00  4.2799793004889977e-10 2.4852414048144786e-08 0.0000000000000000e+00  -7.0541035913924650e-09 5.5919637807929081e-09 0.0000000000000000e+00  -1.3428895705967943e-09 -2.4062263914068697e-09 0.0000000000000000e+00  -6.7088238710995055e-09 -2.9195629774599470e-08 0.0000000000000000e+00  -3.4840437740910690e-09 -2.5138911166283062e-08 0.0000000000000000e+00  4.5379927572802093e-09 -1.7302550307585802e-08 0.0000000000000000e+00  1.2375606296306724e-08 -1.1231955965678422e-08 0.0000000000000000e+00  1.8389977279173351e-08 -7.1811165714243723e-09 0.0000000000000000e+00  2.2608807769032815e-08 -4.5468815173298238e-09 0.0000000000000000e+00  2.5418909275630521e-08 -2.8121930522141645e-09 0.0000000000000000e+00  2.7178000711665522e-08 -1.6230752822799155e-09 0.0000000000000000e+00  2.8137862270134887e-08 -7.4176215051196689e-10 0.0000000000000000e+00  2.8442518280188825e-08 1.3445071411097302e-12 0.0000000000000000e+00  2.8138660936203062e-08 7.4473985237134826e-10 0.0000000000000000e+00  2.7180620209688603e-08 1.6270263845453882e-09 0.0000000000000000e+00  2.5426215320307105e-08 2.8182213261791743e-09 0.0000000000000000e+00  2.2627846606593652e-08 4.5574010034248589e-09 0.0000000000000000e+00  1.8438017764086672e-08 7.2034719731896891e-09 0.0000000000000000e+00  1.2494591761410298e-08 1.1291032585504350e-08 0.0000000000000000e+00  4.7935591972636906e-09 1.7451056233474007e-08 0.0000000000000000e+00  -3.1320278977080489e-09 2.5325769817480855e-08 0.0000000000000000e+00  -6.3408554560751525e-09 2.8262836414614396e-08 0.0000000000000000e+00  -2.3160312905846695e-09 2.9982638594354068e-09 0.0000000000000000e+00  -1.9374885621943565e-10 -1.3265952387342435e-09 0.0000000000000000e+00  -4.8881856218552393e-09 -2.4476007370436528e-08 0.0000000000000000e+00  -7.6477539920629384e-09 -2.7721331349890977e-08 0.0000000000000000e+00  -6.2617584030583655e-09 -2.2881392964639936e-08 0.0000000000000000e+00  -2.5991335182590523e-09 -1.6807302168614954e-08 0.0000000000000000e+00  1.3660559957779704e-09 -1.1674181160466068e-08 0.0000000000000000e+00  4.7204598864160793e-09 -7.8192527450350708e-09 0.0000000000000000e+00  7.2244437809010993e-09 -5.0242398020318670e-09 0.0000000000000000e+00  8.9089857343319437e-09 -2.9730906820643118e-09 0.0000000000000000e+00  9.8691265589708237e-09 -1.3786514838097480e-09 0.0000000000000000e+00  1.0180894413454799e-08 1.1830013881028916e-12 0.0000000000000000e+00  9.8722580365721862e-09 1.3812759575932998e-09 0.0000000000000000e+00  8.9164711862850873e-09 2.9766354353679136e-09 0.0000000000000000e+00  7.2391962328004112e-09 5.0299548530607964e-09 0.0000000000000000e+00  4.7480489221075984e-09 7.8300559700926705e-09 0.0000000000000000e+00  1.4150691255300775e-09 1.1697073964031672e-08 0.0000000000000000e+00  -2.5245417054843478e-09 1.6854687635523189e-08 0.0000000000000000e+00  -6.1806290687789166e-09 2.2943458621762701e-08 0.0000000000000000e+00  -7.5784422553932751e-09 2.7612319476183383e-08 0.0000000000000000e+00  -4.6772921160365190e-09 2.4000482964351485e-08 0.0000000000000000e+00  -3.3989601972804684e-10 1.8578198965436997e-09 0.0000000000000000e+00  7.7045947469612937e-11 -8.0675446714608388e-10 0.0000000000000000e+00  -3.3837202029024027e-09 -1.9289442698689301e-08 0.0000000000000000e+00  -7.5510194981174665e-09 -2.5386978993302025e-08 0.0000000000000000e+00  -9.6386783590818661e-09 -2.3798898893113943e-08 0.0000000000000000e+00  -9.4496020328598697e-09 -1.9268619031716712e-08 0.0000000000000000e+00  -8.0237760820302880e-09 -1.4392463202132182e-08 0.0000000000000000e+00  -6.2664689796666807e-09 -1.0168432377027362e-08 0.0000000000000000e+00  -4.6843210677649987e-09 -6.7883062392458002e-09 0.0000000000000000e+00  -3.4972147721932749e-09 -4.1221323101062309e-09 0.0000000000000000e+00  -2.7764813687942366e-09 -1.9406487529038485e-09 0.0000000000000000e+00  -2.5351563890535002e-09 8.4749597001776442e-13 0.0000000000000000e+00  -2.7729719531057067e-09 1.9425768003095073e-09 0.0000000000000000e+00  -3.4895210898277589e-09 4.1248924645356522e-09 0.0000000000000000e+00  -4.6711435269739474e-09 6.7929426634637210e-09 0.0000000000000000e+00  -6.2463041177316466e-09 1.0176697687480642e-08 0.0000000000000000e+00  -7.9962980691813018e-09 1.4405757959780982e-08 0.0000000000000000e+00  -9.4177350659119071e-09 1.9280796663393276e-08 0.0000000000000000e+00  -9.6120232770007736e-09 2.3778399595062428e-08 0.0000000000000000e+00  -7.5269600786773094e-09 2.5263075055107921e-08 0.0000000000000000e+00  -3.2999233841619461e-09 1.9123531738054015e-08 0.0000000000000000e+00  3.0174678384825621e-11 1.1760803249522678e-09 0.0000000000000000e+00  1.1871571663259417e-10 -5.1576766834863713e-10 0.0000000000000000e+00  -2.4503868125195978e-09 -1.5001795440950634e-08 0.0000000000000000e+00  -6.4879345622114694e-09 -2.1504867196703133e-08 0.0000000000000000e+00  -9.8641102525208274e-09 -2.1955821970286029e-08 0.0000000000000000e+00  -1.1677035157161961e-08 -1.9140995090752557e-08 0.0000000000000000e+00  -1.2177570083829064e-08 -1.5187752210608145e-08 0.0000000000000000e+00  -1.1915772026163669e-08 -1.1250516251572788e-08 0.0000000000000000e+00  -1.1360287378601552e-08 -7.7823049650760353e-09 0.0000000000000000e+00  -1.0811593134246279e-08 -4.8443107182411796e-09 0.0000000000000000e+00  -1.0432657941471992e-08 -2.3146124901831120e-09 0.0000000000000000e+00  -1.0298415823432373e-08 2.0941410050485884e-13 0.0000000000000000e+00  -1.0429928650554526e-08 2.3151736183327331e-09 0.0000000000000000e+00  -1.0806023548454527e-08 4.8453467096965745e-09 0.0000000000000000e+00  -1.1351837232796020e-08 7.7842192755350275e-09 0.0000000000000000e+00  -1.1904872868151095e-08 1.1253410823129431e-08 0.0000000000000000e+00  -1.2165694992368671e-08 1.5189749831868081e-08 0.0000000000000000e+00  -1.1666677167357854e-08 1.9133865543056713e-08 0.0000000000000000e+00  -9.8567309369971853e-09 2.1921043816386354e-08 0.0000000000000000e+00  -6.4829559056673652e-09 2.1436484435826787e-08 0.0000000000000000e+00  -2.4223611154341429e-09 1.4951247215605555e-08 0.0000000000000000e+00  1.0258876577049581e-10 7.3763606872414485e-10 0.0000000000000000e+00  1.1069212491359349e-10 -3.4307908347158656e-10 0.0000000000000000e+00  -1.8276940144681116e-09 -1.1600255713799209e-08 0.0000000000000000e+00  -5.3089885791487035e-09 -1.7537900044351015e-08 0.0000000000000000e+00  -8.8702526157585670e-09 -1.8968792929925146e-08 0.0000000000000000e+00  -1.1541547140106520e-08 -1.7470153429334322e-08 0.0000000000000000e+00  -1.3163498115132533e-08 -1.4546000715205241e-08 0.0000000000000000e+00  -1.3957395115399126e-08 -1.1214061783699169e-08 0.0000000000000000e+00  -1.4236019428249845e-08 -8.0030969547107101e-09 0.0000000000000000e+00  -1.4262692717620609e-08 -5.0945570381697809e-09 0.0000000000000000e+00  -1.4214312458193964e-08 -2.4674128883008570e-09 0.0000000000000000e+00  -1.4187556954098440e-08 -3.8144303879515686e-13 0.0000000000000000e+00  -1.4212710018181752e-08 2.4667039845861885e-09 0.0000000000000000e+00  -1.4259642969369597e-08 5.0939842783573974e-09 0.0000000000000000e+00  -1.4231914316803602e-08 8.0025709611624437e-09 0.0000000000000000e+00  -1.3952978955912778e-08 1.1212847768154991e-08 0.0000000000000000e+00  -1.3159908364948255e-08 1.4541697676865126e-08 0.0000000000000000e+00  -1.1540125449268761e-08 1.7457681260132805e-08 0.0000000000000000e+00  -8.8710674612182843e-09 1.8942857943260205e-08 0.0000000000000000e+00  -5.3127774908089410e-09 1.7506302350655571e-08 0.0000000000000000e+00  -1.8170516778312204e-09 1.1587490984228150e-08 0.0000000000000000e+00  1.0949120818250379e-10 4.7924694935625872e-10 0.0000000000000000e+00  9.3384205743873349e-11 -2.3516755080049599e-10 0.0000000000000000e+00  -1.3807119667811627e-09 -8.9347027568076094e-09 0.0000000000000000e+00  -4.2434399749696354e-09 -1.3995942211281923e-08 0.0000000000000000e+00  -7.5138195068832601e-09 -1.5755889708606899e-08 0.0000000000000000e+00  -1.0361929962136121e-08 -1.5110250942845305e-08 0.0000000000000000e+00  -1.2476502970790734e-08 -1.3062083477161222e-08 0.0000000000000000e+00  -1.3869273623821122e-08 -1.0402923188239746e-08 0.0000000000000000e+00  -1.4698450754239060e-08 -7.6220077467005340e-09 0.0000000000000000e+00  -1.5145256300314684e-08 -4.9465085139867193e-09 0.0000000000000000e+00  -1.5354330404791350e-08 -2.4242617543955276e-09 0.0000000000000000e+00  -1.5414023435713668e-08 -8.4098475340598113e-13 0.0000000000000000e+00  -1.5353667560137603e-08 2.4225673176064126e-09 0.0000000000000000e+00  -1.5144118681200682e-08 4.9447209150401512e-09 0.0000000000000000e+00  -1.4697219473653617e-08 7.6198251886534513e-09 0.0000000000000000e+00  -1.3868507194604713e-08 1.0399528955808505e-08 0.0000000000000000e+00  -1.2476881392477777e-08 1.3055862837511978e-08 0.0000000000000000e+00  -1.0364153979701111e-08 1.5099229237016080e-08 0.0000000000000000e+00  -7.5177508486243795e-09 1.5740260967892469e-08 0.0000000000000000e+00  -4.2493383322282041e-09 1.3982664251216379e-08 0.0000000000000000e+00  -1.3749654474242254e-09 8.9341986679998741e-09 0.0000000000000000e+00  9.8424455420749038e-11 3.2242455219331754e-10 0.0000000000000000e+00  7.6325034634853248e-11 -1.6477080235983525e-10 0.0000000000000000e+00  -1.0518943598860316e-09 -6.8577960568316694e-09 0.0000000000000000e+00  -3.3580283479920155e-09 -1.1008316941492566e-08 0.0000000000000000e+00  -6.1825395629471876e-09 -1.2747920347408615e-08 0.0000000000000000e+00  -8.8693986042978729e-09 -1.2594507201140228e-08 0.0000000000000000e+00  -1.1084446114958150e-08 -1.1204506456103894e-08 0.0000000000000000e+00  -1.2731613963530205e-08 -9.1563468679405548e-09 0.0000000000000000e+00  -1.3856794684027048e-08 -6.8536697230659896e-09 0.0000000000000000e+00  -1.4559729999297503e-08 -4.5195832974400411e-09 0.0000000000000000e+00  -1.4937487208778375e-08 -2.2371498119757069e-09 0.0000000000000000e+00  -1.5055760866977108e-08 -1.1453462524892783e-12 0.0000000000000000e+00  -1.4937423575147573e-08 2.2348117843565578e-09 0.0000000000000000e+00  -1.4559738046322768e-08 4.5170531355442375e-09 0.0000000000000000e+00  -1.3857128326589806e-08 6.8506417928211257e-09 0.0000000000000000e+00  -1.2732613523743634e-08 9.1522571332245719e-09 0.0000000000000000e+00  -1.1086490010729796e-08 1.1198618806717258e-08 0.0000000000000000e+00  -8.8728298042398579e-09 1.2586550816268356e-08 0.0000000000000000e+00  -6.1870492998167425e-09 1.2739357516752787e-08 0.0000000000000000e+00  -3.3633883217958172e-09 1.1003584313246965e-08 0.0000000000000000e+00  -1.0479206097519993e-09 6.8610787208304564e-09 0.0000000000000000e+00  8.3106307122858996e-11 2.2270928124200106e-10 0.0000000000000000e+00  6.1976818838249401e-11 -1.1709323901250653e-10 0.0000000000000000e+00  -8.1185885764573191e-10 -5.2365710082181442e-09 0.0000000000000000e+00  -2.6628931477215209e-09 -8.5491086312518208e-09 0.0000000000000000e+00  -5.0399179224823276e-09 -1.0100202481898479e-08 0.0000000000000000e+00  -7.4375129521596970e-09 -1.0197361578704238e-08 0.0000000000000000e+00  -9.5500567407673378e-09 -9.2698493084660244e-09 0.0000000000000000e+00  -1.1237492885581150e-08 -7.7274587485206620e-09 0.0000000000000000e+00  -1.2476757696670497e-08 -5.8824509520109778e-09 0.0000000000000000e+00  -1.3304806312795707e-08 -3.9291066906774860e-09 0.0000000000000000e+00  -1.3774277696750749e-08 -1.9605748451128038e-09 0.0000000000000000e+00  -1.3925868297490333e-08 -1.3108618578594818e-12 0.0000000000000000e+00  -1.3774518954909731e-08 1.9578998385591173e-09 0.0000000000000000e+00  -1.3305368430075724e-08 3.9262426847494062e-09 0.0000000000000000e+00  -1.2477785656316720e-08 5.8791862883491883e-09 0.0000000000000000e+00  -1.1239173767647054e-08 7.7235187330608563e-09 0.0000000000000000e+00  -9.5525805623131152e-09 9.2650686245419203e-09 0.0000000000000000e+00  -7.4410003362888713e-09 1.0192111782828135e-08 0.0000000000000000e+00  -5.0439595179331697e-09 1.0095842629525444e-08 0.0000000000000000e+00  -2.6671022945860383e-09 8.5482333734759787e-09 0.0000000000000000e+00  -8.0895007731220267e-10 5.2406952193381386e-09 0.0000000000000000e+00  6.8429102040031071e-11 1.5686289839384320e-10 0.0000000000000000e+00  5.0799218133741143e-11 -8.3460957978765471e-11 0.0000000000000000e+00  -6.4020254370878273e-10 -3.9562462821957537e-09 0.0000000000000000e+00  -2.1412206678776717e-09 -6.5336021916651029e-09 0.0000000000000000e+00  -4.1336950679864307e-09 -7.8278036827727107e-09 0.0000000000000000e+00  -6.2271087768402912e-09 -8.0270594364177469e-09 0.0000000000000000e+00  -8.1577522723295841e-09 -7.4137077999354954e-09 0.0000000000000000e+00  -9.7752352497999029e-09 -6.2731664730026118e-09 0.0000000000000000e+00  -1.1019427327005501e-08 -4.8373072802164033e-09 0.0000000000000000e+00  -1.1885399566223155e-08 -3.2632054808853542e-09 0.0000000000000000e+00  -1.2391741403776986e-08 -1.6385832682343501e-09 0.0000000000000000e+00  -1.2558015906865800e-08 -1.3702240018569973e-12 0.0000000000000000e+00  -1.2392091482260856e-08 1.6358029726352552e-09 0.0000000000000000e+00  -1.1886142654799535e-08 3.2602963638694466e-09 0.0000000000000000e+00  -1.1020640314471063e-08 4.8341677502192403e-09 0.0000000000000000e+00  -9.7770121044748215e-09 6.2697313876156426e-09 0.0000000000000000e+00  -8.1601690927793610e-09 7.4100873612910993e-09 0.0000000000000000e+00  -6.2301589731462907e-09 8.0237539501668586e-09 0.0000000000000000e+00  -4.1369660260124521e-09 7.8257949737685403e-09 0.0000000000000000e+00  -2.1443439126031183e-09 6.5343597970702567e-09 0.0000000000000000e+00  -6.3811878916221023e-10 3.9601607592569538e-09 0.0000000000000000e+00  5.6137403227032534e-11 1.1180798160915306e-10 0.0000000000000000e+00  4.2562017495972533e-11 -5.8546678064410463e-11 0.0000000000000000e+00  -5.2044277011063235e-10 -2.9226476082192571e-09 0.0000000000000000e+00  -1.7646869141668269e-09 -4.8636598590373085e-09 0.0000000000000000e+00  -3.4547315531972336e-09 -5.8831145721099105e-09 0.0000000000000000e+00  -5.2819480370876566e-09 -6.0990290382016680e-09 0.0000000000000000e+00  -7.0217784602462859e-09 -5.6973533473081647e-09 0.0000000000000000e+00  -8.5283828922175555e-09 -4.8735981237047113e-09 0.0000000000000000e+00  -9.7244191078183866e-09 -3.7940326688721112e-09 0.0000000000000000e+00  -1.0579824715662034e-08 -2.5784581281545939e-09 0.0000000000000000e+00  -1.1090134375099053e-08 -1.3009386431865630e-09 0.0000000000000000e+00  -1.1259511909312980e-08 -1.3608749565176328e-12 0.0000000000000000e+00  -1.1090480978687542e-08 1.2981990066786220e-09 0.0000000000000000e+00  -1.0580540615633794e-08 2.5756678767533580e-09 0.0000000000000000e+00  -9.7255434780291439e-09 3.7911789286012079e-09 0.0000000000000000e+00  -8.5299574487616078e-09 4.8707353190376853e-09 0.0000000000000000e+00  -7.0238172926562957e-09 5.6946867026391356e-09 0.0000000000000000e+00  -5.2843876345525905e-09 6.0969999518516065e-09 0.0000000000000000e+00  -3.4572175627396425e-09 5.8823651966298511e-09 0.0000000000000000e+00  -1.7669241216627173e-09 4.8650049111868807e-09 0.0000000000000000e+00  -5.1900559026418458e-10 2.9260251357458613e-09 0.0000000000000000e+00  4.6618235786798875e-11 7.9699408765872985e-11 0.0000000000000000e+00  3.6826660307594143e-11 -3.8999032631350176e-11 0.0000000000000000e+00  -4.3948213793542738e-10 -2.0616665918818308e-09 0.0000000000000000e+00  -1.5039657909610075e-09 -3.4478236785746136e-09 0.0000000000000000e+00  -2.9722322937291823e-09 -4.1970316251953230e-09 0.0000000000000000e+00  -4.5910465172312958e-09 -4.3833077601513531e-09 0.0000000000000000e+00  -6.1666690211719031e-09 -4.1268064212315300e-09 0.0000000000000000e+00  -7.5624140711618334e-09 -3.5570972888738186e-09 0.0000000000000000e+00  -8.6945601820005001e-09 -2.7878885830541992e-09 0.0000000000000000e+00  -9.5193030401571915e-09 -1.9047631835562712e-09 0.0000000000000000e+00  -1.0017977858631267e-08 -9.6440792054107023e-10 0.0000000000000000e+00  -1.0184658120540471e-08 -1.3174887867857241e-12 0.0000000000000000e+00  -1.0018263592979381e-08 9.6177717516164649e-10 0.0000000000000000e+00  -9.5198865784308921e-09 1.9021533904582817e-09 0.0000000000000000e+00  -8.6954607793319038e-09 2.7853463414061296e-09 0.0000000000000000e+00  -7.5636465998267691e-09 3.5547330099031944e-09 0.0000000000000000e+00  -6.1682204809400954e-09 4.1248350472952899e-09 0.0000000000000000e+00  -4.5928419848501063e-09 4.3820698292948254e-09 0.0000000000000000e+00  -2.9740016652009318e-09 4.1969259992533411e-09 0.0000000000000000e+00  -1.5054951447201756e-09 3.4492927372912838e-09 0.0000000000000000e+00  -4.3853617231228436e-10 2.0644895007224608e-09 0.0000000000000000e+00  3.9683512765479379e-11 5.5668368873343864e-11 0.0000000000000000e+00  3.3165926064602516e-11 -2.2650560192478648e-11 0.0000000000000000e+00  -3.8774325329946170e-10 -1.3160395965004309e-09 0.0000000000000000e+00  -1.3347145864572779e-09 -2.2076749874827845e-09 0.0000000000000000e+00  -2.6534249268751536e-09 -2.6981596876381857e-09 0.0000000000000000e+00  -4.1257434146458797e-09 -2.8312455081172916e-09 0.0000000000000000e+00  -5.5793315055064914e-09 -2.6791294891255721e-09 0.0000000000000000e+00  -6.88614162411