<?xml version="1.0"?>
<VTKFile type="UnstructuredGrid"  version="0.1"  >
<UnstructuredGrid>
<Piece  NumberOfPoints="651" NumberOfCells="1200">
<Points>
<DataArray  type="Float64"  NumberOfComponents="3"  format="ascii">0 0 0  50000 0 0  100000 0 0  150000 0 0  200000 0 0  250000 0 0  300000 0 0  350000 0 0  400000 0 0  450000 0 0  500000 0 0  550000 0 0  600000 0 0  650000 0 0  700000 0 0  750000 0 0  800000 0 0  850000 0 0  900000 0 0  950000 0 0  1000000 0 0  0 50000 0  50000 50000 0  100000 50000 0  150000 50000 0  200000 50000 0  250000 50000 0  300000 50000 0  350000 50000 0  400000 50000 0  450000 50000 0  500000 50000 0  550000 50000 0  600000 50000 0  650000 50000 0  700000 50000 0  750000 50000 0  800000 50000 0  850000 50000 0  900000 50000 0  950000 50000 0  1000000 50000 0  0 100000 0  50000 100000 0  100000 100000 0  150000 100000 0  200000 100000 0  250000 100000 0  300000 100000 0  350000 100000 0  400000 100000 0  450000 100000 0  500000 100000 0  550000 100000 0  600000 100000 0  650000 100000 0  700000 100000 0  750000 100000 0  800000 100000 0  850000 100000 0  900000 100000 0  950000 100000 0  1000000 100000 0  0 150000 0  50000 150000 0  100000 150000 0  150000 150000 0  200000 150000 0  250000 150000 0  300000 150000 0  350000 150000 0  400000 150000 0  450000 150000 0  500000 150000 0  550000 150000 0  600000 150000 0  650000 150000 0  700000 150000 0  750000 150000 0  800000 150000 0  850000 150000 0  900000 150000 0  950000 150000 0  1000000 150000 0  0 200000 0  50000 200000 0  100000 200000 0  150000 200000 0  200000 200000 0  250000 200000 0  300000 200000 0  350000 200000 0  400000 200000 0  450000 200000 0  500000 200000 0  550000 200000 0  600000 200000 0  650000 200000 0  700000 200000 0  750000 200000 0  800000 200000 0  850000 200000 0  900000 200000 0  950000 200000 0  1000000 200000 0  0 250000 0  50000 250000 0  100000 250000 0  150000 250000 0  200000 250000 0  250000 250000 0  300000 250000 0  350000 250000 0  400000 250000 0  450000 250000 0  500000 250000 0  550000 250000 0  600000 250000 0  650000 250000 0  700000 250000 0  750000 250000 0  800000 250000 0  850000 250000 0  900000 250000 0  950000 250000 0  1000000 250000 0  0 300000 0  50000 300000 0  100000 300000 0  150000 300000 0  200000 300000 0  250000 300000 0  300000 300000 0  350000 300000 0  400000 300000 0  450000 300000 0  500000 300000 0  550000 300000 0  600000 300000 0  650000 300000 0  700000 300000 0  750000 300000 0  800000 300000 0  850000 300000 0  900000 300000 0  950000 300000 0  1000000 300000 0  0 350000 0  50000 350000 0  100000 350000 0  150000 350000 0  200000 350000 0  250000 350000 0  300000 350000 0  350000 350000 0  400000 350000 0  450000 350000 0  500000 350000 0  550000 350000 0  600000 350000 0  650000 350000 0  700000 350000 0  750000 350000 0  800000 350000 0  850000 350000 0  900000 350000 0  950000 350000 0  1000000 350000 0  0 400000 0  50000 400000 0  100000 400000 0  150000 400000 0  200000 400000 0  250000 400000 0  300000 400000 0  350000 400000 0  400000 400000 0  450000 400000 0  500000 400000 0  550000 400000 0  600000 400000 0  650000 400000 0  700000 400000 0  750000 400000 0  800000 400000 0  850000 400000 0  900000 400000 0  950000 400000 0  1000000 400000 0  0 450000 0  50000 450000 0  100000 450000 0  150000 450000 0  200000 450000 0  250000 450000 0  300000 450000 0  350000 450000 0  400000 450000 0  450000 450000 0  500000 450000 0  550000 450000 0  600000 450000 0  650000 450000 0  700000 450000 0  750000 450000 0  800000 450000 0  850000 450000 0  900000 450000 0  950000 450000 0  1000000 450000 0  0 500000 0  50000 500000 0  100000 500000 0  150000 500000 0  200000 500000 0  250000 500000 0  300000 500000 0  350000 500000 0  400000 500000 0  450000 500000 0  500000 500000 0  550000 500000 0  600000 500000 0  650000 500000 0  700000 500000 0  750000 500000 0  800000 500000 0  850000 500000 0  900000 500000 0  950000 500000 0  1000000 500000 0  0 550000 0  50000 550000 0  100000 550000 0  150000 550000 0  200000 550000 0  250000 550000 0  300000 550000 0  350000 550000 0  400000 550000 0  450000 550000 0  500000 550000 0  550000 550000 0  600000 550000 0  650000 550000 0  700000 550000 0  750000 550000 0  800000 550000 0  850000 550000 0  900000 550000 0  950000 550000 0  1000000 550000 0  0 600000 0  50000 600000 0  100000 600000 0  150000 600000 0  200000 600000 0  250000 600000 0  300000 600000 0  350000 600000 0  400000 600000 0  450000 600000 0  500000 600000 0  550000 600000 0  600000 600000 0  650000 600000 0  700000 600000 0  750000 600000 0  800000 600000 0  850000 600000 0  900000 600000 0  950000 600000 0  1000000 600000 0  0 650000 0  50000 650000 0  100000 650000 0  150000 650000 0  200000 650000 0  250000 650000 0  300000 650000 0  350000 650000 0  400000 650000 0  450000 650000 0  500000 650000 0  550000 650000 0  600000 650000 0  650000 650000 0  700000 650000 0  750000 650000 0  800000 650000 0  850000 650000 0  900000 650000 0  950000 650000 0  1000000 650000 0  0 700000 0  50000 700000 0  100000 700000 0  150000 700000 0  200000 700000 0  250000 700000 0  300000 700000 0  350000 700000 0  400000 700000 0  450000 700000 0  500000 700000 0  550000 700000 0  600000 700000 0  650000 700000 0  700000 700000 0  750000 700000 0  800000 700000 0  850000 700000 0  900000 700000 0  950000 700000 0  1000000 700000 0  0 750000 0  50000 750000 0  100000 750000 0  150000 750000 0  200000 750000 0  250000 750000 0  300000 750000 0  350000 750000 0  400000 750000 0  450000 750000 0  500000 750000 0  550000 750000 0  600000 750000 0  650000 750000 0  700000 750000 0  750000 750000 0  800000 750000 0  850000 750000 0  900000 750000 0  950000 750000 0  1000000 750000 0  0 800000 0  50000 800000 0  100000 800000 0  150000 800000 0  200000 800000 0  250000 800000 0  300000 800000 0  350000 800000 0  400000 800000 0  450000 800000 0  500000 800000 0  550000 800000 0  600000 800000 0  650000 800000 0  700000 800000 0  750000 800000 0  800000 800000 0  850000 800000 0  900000 800000 0  950000 800000 0  1000000 800000 0  0 850000 0  50000 850000 0  100000 850000 0  150000 850000 0  200000 850000 0  250000 850000 0  300000 850000 0  350000 850000 0  400000 850000 0  450000 850000 0  500000 850000 0  550000 850000 0  600000 850000 0  650000 850000 0  700000 850000 0  750000 850000 0  800000 850000 0  850000 850000 0  900000 850000 0  950000 850000 0  1000000 850000 0  0 900000 0  50000 900000 0  100000 900000 0  150000 900000 0  200000 900000 0  250000 900000 0  300000 900000 0  350000 900000 0  400000 900000 0  450000 900000 0  500000 900000 0  550000 900000 0  600000 900000 0  650000 900000 0  700000 900000 0  750000 900000 0  800000 900000 0  850000 900000 0  900000 900000 0  950000 900000 0  1000000 900000 0  0 950000 0  50000 950000 0  100000 950000 0  150000 950000 0  200000 950000 0  250000 950000 0  300000 950000 0  350000 950000 0  400000 950000 0  450000 950000 0  500000 950000 0  550000 950000 0  600000 950000 0  650000 950000 0  700000 950000 0  750000 950000 0  800000 950000 0  850000 950000 0  900000 950000 0  950000 950000 0  1000000 950000 0  0 1000000 0  50000 1000000 0  100000 1000000 0  150000 1000000 0  200000 1000000 0  250000 1000000 0  300000 1000000 0  350000 1000000 0  400000 1000000 0  450000 1000000 0  500000 1000000 0  550000 1000000 0  600000 1000000 0  650000 1000000 0  700000 1000000 0  750000 1000000 0  800000 1000000 0  850000 1000000 0  900000 1000000 0  950000 1000000 0  1000000 1000000 0  0 1050000 0  50000 1050000 0  100000 1050000 0  150000 1050000 0  200000 1050000 0  250000 1050000 0  300000 1050000 0  350000 1050000 0  400000 1050000 0  450000 1050000 0  500000 1050000 0  550000 1050000 0  600000 1050000 0  650000 1050000 0  700000 1050000 0  750000 1050000 0  800000 1050000 0  850000 1050000 0  900000 1050000 0  950000 1050000 0  1000000 1050000 0  0 1100000 0  50000 1100000 0  100000 1100000 0  150000 1100000 0  200000 1100000 0  250000 1100000 0  300000 1100000 0  350000 1100000 0  400000 1100000 0  450000 1100000 0  500000 1100000 0  550000 1100000 0  600000 1100000 0  650000 1100000 0  700000 1100000 0  750000 1100000 0  800000 1100000 0  850000 1100000 0  900000 1100000 0  950000 1100000 0  1000000 1100000 0  0 1150000 0  50000 1150000 0  100000 1150000 0  150000 1150000 0  200000 1150000 0  250000 1150000 0  300000 1150000 0  350000 1150000 0  400000 1150000 0  450000 1150000 0  500000 1150000 0  550000 1150000 0  600000 1150000 0  650000 1150000 0  700000 1150000 0  750000 1150000 0  800000 1150000 0  850000 1150000 0  900000 1150000 0  950000 1150000 0  1000000 1150000 0  0 1200000 0  50000 1200000 0  100000 1200000 0  150000 1200000 0  200000 1200000 0  250000 1200000 0  300000 1200000 0  350000 1200000 0  400000 1200000 0  450000 1200000 0  500000 1200000 0  550000 1200000 0  600000 1200000 0  650000 1200000 0  700000 1200000 0  750000 1200000 0  800000 1200000 0  850000 1200000 0  900000 1200000 0  950000 1200000 0  1000000 1200000 0  0 1250000 0  50000 1250000 0  100000 1250000 0  150000 1250000 0  200000 1250000 0  250000 1250000 0  300000 1250000 0  350000 1250000 0  400000 1250000 0  450000 1250000 0  500000 1250000 0  550000 1250000 0  600000 1250000 0  650000 1250000 0  700000 1250000 0  750000 1250000 0  800000 1250000 0  850000 1250000 0  900000 1250000 0  950000 1250000 0  1000000 1250000 0  0 1300000 0  50000 1300000 0  100000 1300000 0  150000 1300000 0  200000 1300000 0  250000 1300000 0  300000 1300000 0  350000 1300000 0  400000 1300000 0  450000 1300000 0  500000 1300000 0  550000 1300000 0  600000 1300000 0  650000 1300000 0  700000 1300000 0  750000 1300000 0  800000 1300000 0  850000 1300000 0  900000 1300000 0  950000 1300000 0  1000000 1300000 0  0 1350000 0  50000 1350000 0  100000 1350000 0  150000 1350000 0  200000 1350000 0  250000 1350000 0  300000 1350000 0  350000 1350000 0  400000 1350000 0  450000 1350000 0  500000 1350000 0  550000 1350000 0  600000 1350000 0  650000 1350000 0  700000 135
[...]
<PointData  Vectors="f_10477"> 
<DataArray  type="Float64"  Name="f_10477"  NumberOfComponents="3" format="ascii">-5.6219911624160260e-09 -3.1305600715523815e-09 0.0000000000000000e+00  7.5483290353341880e-08 -2.0400134949940818e-09 0.0000000000000000e+00  7.8283962917984579e-08 -4.2009921320507431e-11 0.0000000000000000e+00  7.9102063198133758e-08 2.8808493130491349e-10 0.0000000000000000e+00  7.9506868999035494e-08 2.5135037524527335e-10 0.0000000000000000e+00  7.9701873445715193e-08 1.8146541101074581e-10 0.0000000000000000e+00  7.9802699427221644e-08 1.2459142515536791e-10 0.0000000000000000e+00  7.9857667887818493e-08 8.1534399309364077e-11 0.0000000000000000e+00  7.9887258256550096e-08 4.7610425569092627e-11 0.0000000000000000e+00  7.9900567278193214e-08 1.8812683705801253e-11 0.0000000000000000e+00  7.9901221180999853e-08 -7.9137696268858013e-12 0.0000000000000000e+00  7.9889399858393088e-08 -3.5161652937785157e-11 0.0000000000000000e+00  7.9861958881479577e-08 -6.5539061221613701e-11 0.0000000000000000e+00  7.9810806822253617e-08 -1.0209760868537419e-10 0.0000000000000000e+00  7.9718037345780847e-08 -1.4866135785167949e-10 0.0000000000000000e+00  7.9542517123086627e-08 -2.0941864168057745e-10 0.0000000000000000e+00  7.9186902054726873e-08 -2.8268225723849473e-10 0.0000000000000000e+00  7.8462962672901979e-08 -2.9358275568230003e-10 0.0000000000000000e+00  7.6970448342323394e-08 5.4149864581587068e-10 0.0000000000000000e+00  7.2940770080449737e-08 4.7385297088370874e-09 0.0000000000000000e+00  -7.9632010600752752e-09 4.9263260713509166e-09 0.0000000000000000e+00  -3.9425736271111067e-09 -3.4825568726540143e-09 0.0000000000000000e+00  -1.2811832392419143e-09 -2.3652131936669495e-08 0.0000000000000000e+00  1.7251826679305990e-08 -1.4058605617138298e-08 0.0000000000000000e+00  3.1885341135684980e-08 -7.8261353166290073e-09 0.0000000000000000e+00  4.1336278812779897e-08 -4.6248286550875099e-09 0.0000000000000000e+00  4.7479972725127102e-08 -2.9000388794647635e-09 0.0000000000000000e+00  5.1551928244140446e-08 -1.8780318108265391e-09 0.0000000000000000e+00  5.4247827306018741e-08 -1.2089838660252393e-09 0.0000000000000000e+00  5.5961884768205041e-08 -7.2708698856567280e-10 0.0000000000000000e+00  5.6915319309680529e-08 -3.4373163988293407e-10 0.0000000000000000e+00  5.7221270139983027e-08 -3.4706066127774488e-12 0.0000000000000000e+00  5.6914574706240746e-08 3.3645954570042385e-10 0.0000000000000000e+00  5.5960422954426999e-08 7.1871999231157187e-10 0.0000000000000000e+00  5.4246007720737490e-08 1.1983348021969884e-09 0.0000000000000000e+00  5.1551697810934153e-08 1.8625781420183393e-09 0.0000000000000000e+00  4.7489321323009333e-08 2.8731760625524403e-09 0.0000000000000000e+00  4.1383307253794016e-08 4.5729936749214649e-09 0.0000000000000000e+00  3.2075402234904666e-08 7.7861355476620191e-09 0.0000000000000000e+00  1.7952082424746571e-08 1.4442507894722463e-08 0.0000000000000000e+00  -1.8757083332116524e-10 2.5353080552928230e-08 0.0000000000000000e+00  -6.5119147542781111e-09 5.1589070947939612e-09 0.0000000000000000e+00  -1.1331731675555839e-09 -1.8943698376640668e-09 0.0000000000000000e+00  -6.5321159573749528e-09 -2.9783221190441210e-08 0.0000000000000000e+00  -2.6542725975492700e-09 -2.6216842888752399e-08 0.0000000000000000e+00  6.4458642391529978e-09 -1.8710128341744238e-08 0.0000000000000000e+00  1.5613002446354553e-08 -1.2808611668133022e-08 0.0000000000000000e+00  2.3010409876358085e-08 -8.7547319881718204e-09 0.0000000000000000e+00  2.8529938730432716e-08 -5.9631168830947645e-09 0.0000000000000000e+00  3.2450730631501328e-08 -3.9557195196426030e-09 0.0000000000000000e+00  3.5052111075158948e-08 -2.4193468549311505e-09 0.0000000000000000e+00  3.6535485393967552e-08 -1.1492462605187186e-09 0.0000000000000000e+00  3.7017872367871299e-08 4.4988483105566649e-13 0.0000000000000000e+00  3.6537564437924424e-08 1.1503475932123951e-09 0.0000000000000000e+00  3.5057125233129260e-08 2.4211443785002019e-09 0.0000000000000000e+00  3.2461049600904331e-08 3.9590591015633853e-09 0.0000000000000000e+00  2.8551355223115002e-08 5.9699054636495764e-09 0.0000000000000000e+00  2.3057145234745364e-08 8.7710102131583635e-09 0.0000000000000000e+00  1.5719213535898213e-08 1.2856986475695590e-08 0.0000000000000000e+00  6.6602640540779669e-09 1.8849063960837494e-08 0.0000000000000000e+00  -2.3875558586798555e-09 2.6445878138366665e-08 0.0000000000000000e+00  -6.0796350232628276e-09 2.8921835967627334e-08 0.0000000000000000e+00  -1.9582039599840292e-09 2.4597769428221405e-09 0.0000000000000000e+00  -1.4773020537514636e-10 -1.0203658502424400e-09 0.0000000000000000e+00  -4.4230595917589734e-09 -2.5407118082105549e-08 0.0000000000000000e+00  -6.4403018140444105e-09 -2.9773941314651895e-08 0.0000000000000000e+00  -3.8703904189517696e-09 -2.5644093732046690e-08 0.0000000000000000e+00  1.2638280873174615e-09 -1.9885824004297286e-08 0.0000000000000000e+00  6.7770696105765157e-09 -1.4729296689906877e-08 0.0000000000000000e+00  1.1598825881784941e-08 -1.0565280557756827e-08 0.0000000000000000e+00  1.5364313491540252e-08 -7.2448845713969399e-09 0.0000000000000000e+00  1.8011373878853879e-08 -4.5230971817632017e-09 0.0000000000000000e+00  1.9572540106547955e-08 -2.1733465416424507e-09 0.0000000000000000e+00  2.0088656168670225e-08 -4.1115374655254760e-13 0.0000000000000000e+00  1.9576365151398315e-08 2.1726953159189419e-09 0.0000000000000000e+00  1.8019980345101812e-08 4.5230917237736626e-09 0.0000000000000000e+00  1.5379969469913292e-08 7.2465387233417594e-09 0.0000000000000000e+00  1.1625819266388391e-08 1.0571170525939935e-08 0.0000000000000000e+00  6.8217196379262681e-09 1.4746122751739126e-08 0.0000000000000000e+00  1.3273986802233951e-09 1.9927483030032240e-08 0.0000000000000000e+00  -3.8051267072785606e-09 2.5710347497650853e-08 0.0000000000000000e+00  -6.3895606062435727e-09 2.9713401279504784e-08 0.0000000000000000e+00  -4.1975628571505308e-09 2.5010260730741634e-08 0.0000000000000000e+00  -2.4766453043993515e-10 1.4604830593257542e-09 0.0000000000000000e+00  6.1863126283437562e-11 -6.3079640121854853e-10 0.0000000000000000e+00  -2.9414385021052674e-09 -2.0842643519012969e-08 0.0000000000000000e+00  -6.3397244577146659e-09 -2.8459415856967403e-08 0.0000000000000000e+00  -7.3113905015048157e-09 -2.7891253319965219e-08 0.0000000000000000e+00  -5.7814524065488030e-09 -2.3837811968539328e-08 0.0000000000000000e+00  -2.9408816807884002e-09 -1.8937703724178655e-08 0.0000000000000000e+00  1.6935715039093990e-10 -1.4265859464613366e-08 0.0000000000000000e+00  2.9252735028346777e-09 -1.0112750887254423e-08 0.0000000000000000e+00  5.0150925411855356e-09 -6.4495454099285171e-09 0.0000000000000000e+00  6.3027865650793446e-09 -3.1361784785074573e-09 0.0000000000000000e+00  6.7373425717515151e-09 -8.6101820900783023e-13 0.0000000000000000e+00  6.3064996938426396e-09 3.1346710071397646e-09 0.0000000000000000e+00  5.0229572401692779e-09 6.4488285742607337e-09 0.0000000000000000e+00  2.9380763751576684e-09 1.0113909433883834e-08 0.0000000000000000e+00  1.8776309834198350e-10 1.4270909423185921e-08 0.0000000000000000e+00  -2.9175391864587361e-09 1.8949014709854143e-08 0.0000000000000000e+00  -5.7562024849224483e-09 2.3851956631048708e-08 0.0000000000000000e+00  -7.2891968704225631e-09 2.7881518883690356e-08 0.0000000000000000e+00  -6.3161021292428046e-09 2.8363124262442158e-08 0.0000000000000000e+00  -2.8640441707992212e-09 2.0713902272436148e-08 0.0000000000000000e+00  2.1794255996465407e-11 9.1940829540034124e-10 0.0000000000000000e+00  9.1357104581452346e-11 -4.1544817828358302e-10 0.0000000000000000e+00  -2.1238495191777074e-09 -1.7130037666415368e-08 0.0000000000000000e+00  -5.5513495553885169e-09 -2.5463599302188338e-08 0.0000000000000000e+00  -8.0705667631769590e-09 -2.7163592810575216e-08 0.0000000000000000e+00  -8.8711754597857859e-09 -2.4953611551075501e-08 0.0000000000000000e+00  -8.2991665781156140e-09 -2.0984979488764724e-08 0.0000000000000000e+00  -7.0002751152928654e-09 -1.6495284806432786e-08 0.0000000000000000e+00  -5.5338493800559534e-09 -1.2053385014496450e-08 0.0000000000000000e+00  -4.2768729034039723e-09 -7.8439060382926262e-09 0.0000000000000000e+00  -3.4495369142654124e-09 -3.8585283948304969e-09 0.0000000000000000e+00  -3.1619192470097247e-09 -1.5001297458456349e-12 0.0000000000000000e+00  -3.4469506313695345e-09 3.8557232026936212e-09 0.0000000000000000e+00  -4.2717487932929171e-09 7.8417664444399144e-09 0.0000000000000000e+00  -5.5264466226314922e-09 1.2052572531005355e-08 0.0000000000000000e+00  -6.9913777713274434e-09 1.6496449128622636e-08 0.0000000000000000e+00  -8.2903841378919628e-09 2.0987396489786262e-08 0.0000000000000000e+00  -8.8644160002010903e-09 2.4951096728243714e-08 0.0000000000000000e+00  -8.0648458874880233e-09 2.7139715221948472e-08 0.0000000000000000e+00  -5.5457342541723893e-09 2.5412569171774972e-08 0.0000000000000000e+00  -2.1025850638207996e-09 1.7096607685149957e-08 0.0000000000000000e+00  7.3178008457364627e-11 5.8186735197939054e-10 0.0000000000000000e+00  8.8525017056307557e-11 -2.8820671708821609e-10 0.0000000000000000e+00  -1.6441667946665937e-09 -1.4117935591701175e-08 0.0000000000000000e+00  -4.7849698541643629e-09 -2.2098290937434607e-08 0.0000000000000000e+00  -7.8663406343153662e-09 -2.4925585943753943e-08 0.0000000000000000e+00  -9.9663184620449569e-09 -2.4118880391893571e-08 0.0000000000000000e+00  -1.0971593739408175e-08 -2.1195708057431193e-08 0.0000000000000000e+00  -1.1154791286844984e-08 -1.7252901430518346e-08 0.0000000000000000e+00  -1.0884133498822506e-08 -1.2939616090565038e-08 0.0000000000000000e+00  -1.0475086856449790e-08 -8.5725375606805551e-09 0.0000000000000000e+00  -1.0146926231264644e-08 -4.2611699738798056e-09 0.0000000000000000e+00  -1.0023848254989113e-08 -1.9165889668436860e-12 0.0000000000000000e+00  -1.0145685031334254e-08 4.2575000214532479e-09 0.0000000000000000e+00  -1.0472841202237780e-08 8.5693662262454133e-09 0.0000000000000000e+00  -1.0881397096858025e-08 1.2937220247998026e-08 0.0000000000000000e+00  -1.1152359598560932e-08 1.7251115289558591e-08 0.0000000000000000e+00  -1.0970373841728165e-08 2.1192960652225706e-08 0.0000000000000000e+00  -9.9670338678121227e-09 2.4111100867178341e-08 0.0000000000000000e+00  -7.8679657124039310e-09 2.4907945592591251e-08 0.0000000000000000e+00  -4.7882882059316101e-09 2.2077032101612885e-08 0.0000000000000000e+00  -1.6387336324230147e-09 1.4112702752836196e-08 0.0000000000000000e+00  8.2052949286807616e-11 3.8934613081668491e-10 0.0000000000000000e+00  8.0800406241339156e-11 -2.0686829598441752e-10 0.0000000000000000e+00  -1.3349612273277283e-09 -1.1613837022697171e-08 0.0000000000000000e+00  -4.1475322639909494e-09 -1.8803941667062046e-08 0.0000000000000000e+00  -7.3397676742087975e-09 -2.2025512087298185e-08 0.0000000000000000e+00  -1.0079837505674159e-08 -2.2120381289074780e-08 0.0000000000000000e+00  -1.2056981414439390e-08 -2.0097226586354770e-08 0.0000000000000000e+00  -1.3291390743434280e-08 -1.6817380279760420e-08 0.0000000000000000e+00  -1.3959786783345271e-08 -1.2885753275497077e-08 0.0000000000000000e+00  -1.4267279643712152e-08 -8.6666711830197590e-09 0.0000000000000000e+00  -1.4381683353835881e-08 -4.3467237027836228e-09 0.0000000000000000e+00  -1.4407968593365220e-08 -2.1210450946515420e-12 0.0000000000000000e+00  -1.4381495862105203e-08 4.3426078299442321e-09 0.0000000000000000e+00  -1.4267114094695676e-08 8.6629020904995029e-09 0.0000000000000000e+00  -1.3960027705443098e-08 1.2882399717741956e-08 0.0000000000000000e+00  -1.3292500896763616e-08 1.6814089420990012e-08 0.0000000000000000e+00  -1.2059328534831862e-08 2.0092885770161243e-08 0.0000000000000000e+00  -1.0083605279405697e-08 2.2113358732610723e-08 0.0000000000000000e+00  -7.3442087825678236e-09 2.2015691251995641e-08 0.0000000000000000e+00  -4.1530133269815059e-09 1.8796469272176355e-08 0.0000000000000000e+00  -1.3333062271128026e-09 1.1616145759809061e-08 0.0000000000000000e+00  7.9620644482976441e-11 2.7297837371729498e-10 0.0000000000000000e+00  7.3049343931722307e-11 -1.5103298183235246e-10 0.0000000000000000e+00  -1.1183297825727017e-09 -9.4864617259770426e-09 0.0000000000000000e+00  -3.6259936472677680e-09 -1.5723369512804321e-08 0.0000000000000000e+00  -6.7277769577609013e-09 -1.8909266759061822e-08 0.0000000000000000e+00  -9.7208070106179744e-09 -1.9506778030899424e-08 0.0000000000000000e+00  -1.2231582208836811e-08 -1.8169459849604165e-08 0.0000000000000000e+00  -1.4134341889633315e-08 -1.5533253684714371e-08 0.0000000000000000e+00  -1.5458911827826946e-08 -1.2106512258412178e-08 0.0000000000000000e+00  -1.6300521106835310e-08 -8.2432913021156352e-09 0.0000000000000000e+00  -1.6758703573566216e-08 -4.1651009879682282e-09 0.0000000000000000e+00  -1.6903329031343361e-08 -2.1496766873205514e-12 0.0000000000000000e+00  -1.6759151909135924e-08 4.1608988488461840e-09 0.0000000000000000e+00  -1.6301534949535812e-08 8.2393407108800452e-09 0.0000000000000000e+00  -1.5460680511115982e-08 1.2102829525961788e-08 0.0000000000000000e+00  -1.4137045914947739e-08 1.5529603158889170e-08 0.0000000000000000e+00  -1.2235292226902374e-08 1.8165355158425795e-08 0.0000000000000000e+00  -9.7254525185446876e-09 1.9501933377411369e-08 0.0000000000000000e+00  -6.7326540730192738e-09 1.8904554879135592e-08 0.0000000000000000e+00  -3.6310361056211016e-09 1.5721617004741512e-08 0.0000000000000000e+00  -1.1174600648197534e-09 9.4901970777198448e-09 0.0000000000000000e+00  7.4133609182019067e-11 1.9688865566391693e-10 0.0000000000000000e+00  6.6133523525893923e-11 -1.1062020853778052e-10 0.0000000000000000e+00  -9.5692819786182349e-10 -7.6492752449234573e-09 0.0000000000000000e+00  -3.1959019736071493e-09 -1.2894325933935967e-08 0.0000000000000000e+00  -6.1229388662821496e-09 -1.5803040913516833e-08 0.0000000000000000e+00  -9.1525964316997726e-09 -1.6623565294207598e-08 0.0000000000000000e+00  -1.1908626524077819e-08 -1.5773627557979969e-08 0.0000000000000000e+00  -1.4189948952490994e-08 -1.3707031720099754e-08 0.0000000000000000e+00  -1.5927564102864338e-08 -1.0826033241080166e-08 0.0000000000000000e+00  -1.7127974311240441e-08 -7.4435744438340091e-09 0.0000000000000000e+00  -1.7826385759911669e-08 -3.7834207858189959e-09 0.0000000000000000e+00  -1.8055235817614580e-08 -2.0609122852958622e-12 0.0000000000000000e+00  -1.7827119960007796e-08 3.7793797303700310e-09 0.0000000000000000e+00  -1.7129481440960308e-08 7.4397455399436509e-09 0.0000000000000000e+00  -1.5929890866581186e-08 1.0822461397729001e-08 0.0000000000000000e+00  -1.4193102491781722e-08 1.3703653480407526e-08 0.0000000000000000e+00  -1.1912518993330202e-08 1.5770361013180806e-08 0.0000000000000000e+00  -9.1570265783398860e-09 1.6620598891046614e-08 0.0000000000000000e+00  -6.1272387672199871e-09 1.5801111985435023e-08 0.0000000000000000e+00  -3.1999002310383690e-09 1.2894761428497329e-08 0.0000000000000000e+00  -9.5617280306348271e-10 7.6527894328221559e-09 0.0000000000000000e+00  6.8117806370962064e-11 1.4394588174978993e-10 0.0000000000000000e+00  6.0200014796700873e-11 -8.0212476483918179e-11 0.0000000000000000e+00  -8.3234103664513330e-10 -6.0419526145976238e-09 0.0000000000000000e+00  -2.8406703933068631e-09 -1.0313142380985226e-08 0.0000000000000000e+00  -5.5672864655958401e-09 -1.2815107212842378e-08 0.0000000000000000e+00  -8.5215201488085375e-09 -1.3674295687585164e-08 0.0000000000000000e+00  -1.1347242180132288e-08 -1.3154578614011413e-08 0.0000000000000000e+00  -1.3809358833881736e-08 -1.1572428334689950e-08 0.0000000000000000e+00  -1.5777836972474859e-08 -9.2332940188166369e-09 0.0000000000000000e+00  -1.7195408100848316e-08 -6.3964727404799626e-09 0.0000000000000000e+00  -1.8045744328790357e-08 -3.2663130021857927e-09 0.0000000000000000e+00  -1.8328903803250278e-08 -1.9079859002746202e-12 0.0000000000000000e+00  -1.8046531315148970e-08 3.2625718882912560e-09 0.0000000000000000e+00  -1.7196974017858704e-08 6.3929390410756213e-09 0.0000000000000000e+00  -1.5780149467210077e-08 9.2300583617361446e-09 0.0000000000000000e+00  -1.3812337037577510e-08 1.1569549505830612e-08 0.0000000000000000e+00  -1.1350726240491135e-08 1.3152155293282957e-08 0.0000000000000000e+00  -8.5252638806553259e-09 1.3672590903200183e-08 0.0000000000000000e+00  -5.5707161909489339e-09 1.2814560888221161e-08 0.0000000000000000e+00  -2.8436588189004935e-09 1.0314313188830748e-08 0.0000000000000000e+00  -8.3159590228468747e-10 6.0449364056232277e-09 0.0000000000000000e+00  6.2423165960080310e-11 1.0534944220852950e-10 0.0000000000000000e+00  5.5294535643654733e-11 -5.6592925274017514e-11 0.0000000000000000e+00  -7.3550366597461458e-10 -4.6181420646236427e-09 0.0000000000000000e+00  -2.5518945919898722e-09 -7.9568308146265140e-09 0.0000000000000000e+00  -5.0849171432324613e-09 -9.9873852759967745e-09 0.0000000000000000e+00  -7.9164231281188804e-09 -1.0768404990452533e-08 0.0000000000000000e+00  -1.0716097003771319e-08 -1.0463854130380168e-08 0.0000000000000000e+00  -1.3236969373997743e-08 -9.2892875794473679e-09 0.0000000000000000e+00  -1.5313915385072874e-08 -7.4679784148833458e-09 0.0000000000000000e+00  -1.6847382168943604e-08 -5.2029670187025501e-09 0.0000000000000000e+00  -1.7783800593536760e-08 -2.6662506564104721e-09 0.0000000000000000e+00  -1.8098493456944559e-08 -1.7340239854464092e-12 0.0000000000000000e+00  -1.7784506379587470e-08 2.6628572699246824e-09 0.0000000000000000e+00  -1.6848765118061029e-08 5.1997895387706577e-09 0.0000000000000000e+00  -1.5315910857056359e-08 7.4651411765061132e-09 0.0000000000000000e+00  -1.3239465701060828e-08 9.2869099426139713e-09 0.0000000000000000e+00  -1.0718920410580658e-08 1.0462085266390891e-08 0.0000000000000000e+00  -7.9193416389189315e-09 1.0767457954444831e-08 0.0000000000000000e+00  -5.0874824231979728e-09 9.9874788856852069e-09 0.0000000000000000e+00  -2.5540453166032950e-09 7.9581794732653276e-09 0.0000000000000000e+00  -7.3480352882597635e-10 4.6206548193104864e-09 0.0000000000000000e+00  5.7391013566628256e-11 7.6182035687622649e-11 0.0000000000000000e+00  5.1468183422615883e-11 -3.7633772796992110e-11 0.0000000000000000e+00  -6.6211250742553984e-10 -3.3382804824383157e-09 0.0000000000000000e+00  -2.3265675739648619e-09 -5.7913150469667633e-09 0.0000000000000000e+00  -4.6926937473992633e-09 -7.3220747876308043e-09 0.0000000000000000e+00  -7.3954327072612785e-09 -7.9533840843452994e-09 0.0000000000000000e+00  -1.0128276077497809e-08 -7.7840626370873695e-09 0.0000000000000000e+00  -1.2642991924870618e-08 -6.9553821632697384e-09 0.0000000000000000e+00  -1.4755714673343010e-08 -5.6222698667257399e-09 0.0000000000000000e+00  -1.6340696246015706e-08 -3.9332263529498730e-09 0.0000000000000000e+00  -1.7319544299612430e-08 -2.0208311114090746e-09 0.0000000000000000e+00  -1.7650366715860260e-08 -1.5711291934951831e-12 0.0000000000000000e+00  -1.7320101242978734e-08 2.0177649900951547e-09 0.0000000000000000e+00  -1.6341777981981820e-08 3.9303849765419434e-09 0.0000000000000000e+00  -1.4757253972242376e-08 5.6197945455143740e-09 0.0000000000000000e+00  -1.2644882403836863e-08 6.9534118277859762e-09 0.0000000000000000e+00  -1.0130366595063161e-08 7.7827423865828111e-09 0.0000000000000000e+00  -7.3975377385167489e-09 7.9528624910269641e-09 0.0000000000000000e+00  -4.6944921190634205e-09 7.3224435847581716e-09 0.0000000000000000e+00  -2.3280432337146380e-09 5.7926541155130220e-09 0.0000000000000000e+00  -6.6151933404755244e-10 3.3404548256475640e-09 0.0000000000000000e+00  5.3210455579778828e-11 5.3438817136046480e-11 0.0000000000000000e+00  4.8779769266003114e-11 -2.1763069029214616e-11 0.0000000000000000e+00  -6.1027597125097525e-10 -2.1656665872343443e-09 0.0000000000000000e+00  -2.1645429100221126e-09 -3.7750460783054122e-09 0.0000000000000000e+00  -4.4033437753565866e-09 -4.7964027714402789e-09 0.0000000000000000e+00  -6.9978704414691715e-09 -5.2359807692612316e-09 0.0000000000000000e+00  -9.6599904720601190e-09 -5.1492408425129982e-09 0.0000000000000000e+00  -1.2144140545159364e-