<?xml version="1.0"?>
<VTKFile type="UnstructuredGrid"  version="0.1"  >
<UnstructuredGrid>
<Piece  NumberOfPoints="651" NumberOfCells="1200">
<Points>
<DataArray  type="Float64"  NumberOfComponents="3"  format="ascii">0 0 0  50000 0 0  100000 0 0  150000 0 0  200000 0 0  250000 0 0  300000 0 0  350000 0 0  400000 0 0  450000 0 0  500000 0 0  550000 0 0  600000 0 0  650000 0 0  700000 0 0  750000 0 0  800000 0 0  850000 0 0  900000 0 0  950000 0 0  1000000 0 0  0 50000 0  50000 50000 0  100000 50000 0  150000 50000 0  200000 50000 0  250000 50000 0  300000 50000 0  350000 50000 0  400000 50000 0  450000 50000 0  500000 50000 0  550000 50000 0  600000 50000 0  650000 50000 0  700000 50000 0  750000 50000 0  800000 50000 0  850000 50000 0  900000 50000 0  950000 50000 0  1000000 50000 0  0 100000 0  50000 100000 0  100000 100000 0  150000 100000 0  200000 100000 0  250000 100000 0  300000 100000 0  350000 100000 0  400000 100000 0  450000 100000 0  500000 100000 0  550000 100000 0  600000 100000 0  650000 100000 0  700000 100000 0  750000 100000 0  800000 100000 0  850000 100000 0  900000 100000 0  950000 100000 0  1000000 100000 0  0 150000 0  50000 150000 0  100000 150000 0  150000 150000 0  200000 150000 0  250000 150000 0  300000 150000 0  350000 150000 0  400000 150000 0  450000 150000 0  500000 150000 0  550000 150000 0  600000 150000 0  650000 150000 0  700000 150000 0  750000 150000 0  800000 150000 0  850000 150000 0  900000 150000 0  950000 150000 0  1000000 150000 0  0 200000 0  50000 200000 0  100000 200000 0  150000 200000 0  200000 200000 0  250000 200000 0  300000 200000 0  350000 200000 0  400000 200000 0  450000 200000 0  500000 200000 0  550000 200000 0  600000 200000 0  650000 200000 0  700000 200000 0  750000 200000 0  800000 200000 0  850000 200000 0  900000 200000 0  950000 200000 0  1000000 200000 0  0 250000 0  50000 250000 0  100000 250000 0  150000 250000 0  200000 250000 0  250000 250000 0  300000 250000 0  350000 250000 0  400000 250000 0  450000 250000 0  500000 250000 0  550000 250000 0  600000 250000 0  650000 250000 0  700000 250000 0  750000 250000 0  800000 250000 0  850000 250000 0  900000 250000 0  950000 250000 0  1000000 250000 0  0 300000 0  50000 300000 0  100000 300000 0  150000 300000 0  200000 300000 0  250000 300000 0  300000 300000 0  350000 300000 0  400000 300000 0  450000 300000 0  500000 300000 0  550000 300000 0  600000 300000 0  650000 300000 0  700000 300000 0  750000 300000 0  800000 300000 0  850000 300000 0  900000 300000 0  950000 300000 0  1000000 300000 0  0 350000 0  50000 350000 0  100000 350000 0  150000 350000 0  200000 350000 0  250000 350000 0  300000 350000 0  350000 350000 0  400000 350000 0  450000 350000 0  500000 350000 0  550000 350000 0  600000 350000 0  650000 350000 0  700000 350000 0  750000 350000 0  800000 350000 0  850000 350000 0  900000 350000 0  950000 350000 0  1000000 350000 0  0 400000 0  50000 400000 0  100000 400000 0  150000 400000 0  200000 400000 0  250000 400000 0  300000 400000 0  350000 400000 0  400000 400000 0  450000 400000 0  500000 400000 0  550000 400000 0  600000 400000 0  650000 400000 0  700000 400000 0  750000 400000 0  800000 400000 0  850000 400000 0  900000 400000 0  950000 400000 0  1000000 400000 0  0 450000 0  50000 450000 0  100000 450000 0  150000 450000 0  200000 450000 0  250000 450000 0  300000 450000 0  350000 450000 0  400000 450000 0  450000 450000 0  500000 450000 0  550000 450000 0  600000 450000 0  650000 450000 0  700000 450000 0  750000 450000 0  800000 450000 0  850000 450000 0  900000 450000 0  950000 450000 0  1000000 450000 0  0 500000 0  50000 500000 0  100000 500000 0  150000 500000 0  200000 500000 0  250000 500000 0  300000 500000 0  350000 500000 0  400000 500000 0  450000 500000 0  500000 500000 0  550000 500000 0  600000 500000 0  650000 500000 0  700000 500000 0  750000 500000 0  800000 500000 0  850000 500000 0  900000 500000 0  950000 500000 0  1000000 500000 0  0 550000 0  50000 550000 0  100000 550000 0  150000 550000 0  200000 550000 0  250000 550000 0  300000 550000 0  350000 550000 0  400000 550000 0  450000 550000 0  500000 550000 0  550000 550000 0  600000 550000 0  650000 550000 0  700000 550000 0  750000 550000 0  800000 550000 0  850000 550000 0  900000 550000 0  950000 550000 0  1000000 550000 0  0 600000 0  50000 600000 0  100000 600000 0  150000 600000 0  200000 600000 0  250000 600000 0  300000 600000 0  350000 600000 0  400000 600000 0  450000 600000 0  500000 600000 0  550000 600000 0  600000 600000 0  650000 600000 0  700000 600000 0  750000 600000 0  800000 600000 0  850000 600000 0  900000 600000 0  950000 600000 0  1000000 600000 0  0 650000 0  50000 650000 0  100000 650000 0  150000 650000 0  200000 650000 0  250000 650000 0  300000 650000 0  350000 650000 0  400000 650000 0  450000 650000 0  500000 650000 0  550000 650000 0  600000 650000 0  650000 650000 0  700000 650000 0  750000 650000 0  800000 650000 0  850000 650000 0  900000 650000 0  950000 650000 0  1000000 650000 0  0 700000 0  50000 700000 0  100000 700000 0  150000 700000 0  200000 700000 0  250000 700000 0  300000 700000 0  350000 700000 0  400000 700000 0  450000 700000 0  500000 700000 0  550000 700000 0  600000 700000 0  650000 700000 0  700000 700000 0  750000 700000 0  800000 700000 0  850000 700000 0  900000 700000 0  950000 700000 0  1000000 700000 0  0 750000 0  50000 750000 0  100000 750000 0  150000 750000 0  200000 750000 0  250000 750000 0  300000 750000 0  350000 750000 0  400000 750000 0  450000 750000 0  500000 750000 0  550000 750000 0  600000 750000 0  650000 750000 0  700000 750000 0  750000 750000 0  800000 750000 0  850000 750000 0  900000 750000 0  950000 750000 0  1000000 750000 0  0 800000 0  50000 800000 0  100000 800000 0  150000 800000 0  200000 800000 0  250000 800000 0  300000 800000 0  350000 800000 0  400000 800000 0  450000 800000 0  500000 800000 0  550000 800000 0  600000 800000 0  650000 800000 0  700000 800000 0  750000 800000 0  800000 800000 0  850000 800000 0  900000 800000 0  950000 800000 0  1000000 800000 0  0 850000 0  50000 850000 0  100000 850000 0  150000 850000 0  200000 850000 0  250000 850000 0  300000 850000 0  350000 850000 0  400000 850000 0  450000 850000 0  500000 850000 0  550000 850000 0  600000 850000 0  650000 850000 0  700000 850000 0  750000 850000 0  800000 850000 0  850000 850000 0  900000 850000 0  950000 850000 0  1000000 850000 0  0 900000 0  50000 900000 0  100000 900000 0  150000 900000 0  200000 900000 0  250000 900000 0  300000 900000 0  350000 900000 0  400000 900000 0  450000 900000 0  500000 900000 0  550000 900000 0  600000 900000 0  650000 900000 0  700000 900000 0  750000 900000 0  800000 900000 0  850000 900000 0  900000 900000 0  950000 900000 0  1000000 900000 0  0 950000 0  50000 950000 0  100000 950000 0  150000 950000 0  200000 950000 0  250000 950000 0  300000 950000 0  350000 950000 0  400000 950000 0  450000 950000 0  500000 950000 0  550000 950000 0  600000 950000 0  650000 950000 0  700000 950000 0  750000 950000 0  800000 950000 0  850000 950000 0  900000 950000 0  950000 950000 0  1000000 950000 0  0 1000000 0  50000 1000000 0  100000 1000000 0  150000 1000000 0  200000 1000000 0  250000 1000000 0  300000 1000000 0  350000 1000000 0  400000 1000000 0  450000 1000000 0  500000 1000000 0  550000 1000000 0  600000 1000000 0  650000 1000000 0  700000 1000000 0  750000 1000000 0  800000 1000000 0  850000 1000000 0  900000 1000000 0  950000 1000000 0  1000000 1000000 0  0 1050000 0  50000 1050000 0  100000 1050000 0  150000 1050000 0  200000 1050000 0  250000 1050000 0  300000 1050000 0  350000 1050000 0  400000 1050000 0  450000 1050000 0  500000 1050000 0  550000 1050000 0  600000 1050000 0  650000 1050000 0  700000 1050000 0  750000 1050000 0  800000 1050000 0  850000 1050000 0  900000 1050000 0  950000 1050000 0  1000000 1050000 0  0 1100000 0  50000 1100000 0  100000 1100000 0  150000 1100000 0  200000 1100000 0  250000 1100000 0  300000 1100000 0  350000 1100000 0  400000 1100000 0  450000 1100000 0  500000 1100000 0  550000 1100000 0  600000 1100000 0  650000 1100000 0  700000 1100000 0  750000 1100000 0  800000 1100000 0  850000 1100000 0  900000 1100000 0  950000 1100000 0  1000000 1100000 0  0 1150000 0  50000 1150000 0  100000 1150000 0  150000 1150000 0  200000 1150000 0  250000 1150000 0  300000 1150000 0  350000 1150000 0  400000 1150000 0  450000 1150000 0  500000 1150000 0  550000 1150000 0  600000 1150000 0  650000 1150000 0  700000 1150000 0  750000 1150000 0  800000 1150000 0  850000 1150000 0  900000 1150000 0  950000 1150000 0  1000000 1150000 0  0 1200000 0  50000 1200000 0  100000 1200000 0  150000 1200000 0  200000 1200000 0  250000 1200000 0  300000 1200000 0  350000 1200000 0  400000 1200000 0  450000 1200000 0  500000 1200000 0  550000 1200000 0  600000 1200000 0  650000 1200000 0  700000 1200000 0  750000 1200000 0  800000 1200000 0  850000 1200000 0  900000 1200000 0  950000 1200000 0  1000000 1200000 0  0 1250000 0  50000 1250000 0  100000 1250000 0  150000 1250000 0  200000 1250000 0  250000 1250000 0  300000 1250000 0  350000 1250000 0  400000 1250000 0  450000 1250000 0  500000 1250000 0  550000 1250000 0  600000 1250000 0  650000 1250000 0  700000 1250000 0  750000 1250000 0  800000 1250000 0  850000 1250000 0  900000 1250000 0  950000 1250000 0  1000000 1250000 0  0 1300000 0  50000 1300000 0  100000 1300000 0  150000 1300000 0  200000 1300000 0  250000 1300000 0  300000 1300000 0  350000 1300000 0  400000 1300000 0  450000 1300000 0  500000 1300000 0  550000 1300000 0  600000 1300000 0  650000 1300000 0  700000 1300000 0  750000 1300000 0  800000 1300000 0  850000 1300000 0  900000 1300000 0  950000 1300000 0  1000000 1300000 0  0 1350000 0  50000 1350000 0  100000 1350000 0  150000 1350000 0  200000 1350000 0  250000 1350000 0  300000 1350000 0  350000 1350000 0  400000 1350000 0  450000 1350000 0  500000 1350000 0  550000 1350000 0  600000 1350000 0  650000 1350000 0  700000 135
[...]
<PointData  Vectors="f_10477"> 
<DataArray  type="Float64"  Name="f_10477"  NumberOfComponents="3" format="ascii">-6.1642247197898771e-09 -3.4408748361516001e-09 0.0000000000000000e+00  7.4958097761614793e-08 -2.2201925859137291e-09 0.0000000000000000e+00  7.7947336943126537e-08 -9.0325078566524630e-11 0.0000000000000000e+00  7.8934067287370197e-08 2.8929225967257108e-10 0.0000000000000000e+00  7.9411488282994018e-08 2.6322695587351778e-10 0.0000000000000000e+00  7.9638849111801875e-08 1.9046364145578782e-10 0.0000000000000000e+00  7.9754144034718789e-08 1.2916709779365935e-10 0.0000000000000000e+00  7.9815333578292892e-08 8.3147179310585755e-11 0.0000000000000000e+00  7.9847357370783946e-08 4.7861884754680964e-11 0.0000000000000000e+00  7.9861413680705288e-08 1.8779892970838567e-11 0.0000000000000000e+00  7.9862000349408096e-08 -7.7823223625731962e-12 0.0000000000000000e+00  7.9849347436068381e-08 -3.5045674962676204e-11 0.0000000000000000e+00  7.9819566062633663e-08 -6.6240476071639010e-11 0.0000000000000000e+00  7.9762693887188115e-08 -1.0503381443222241e-10 0.0000000000000000e+00  7.9656876495951684e-08 -1.5579732307496263e-10 0.0000000000000000e+00  7.9452865706646742e-08 -2.2269196537603083e-10 0.0000000000000000e+00  7.9038000994502796e-08 -2.9961901153807590e-10 0.0000000000000000e+00  7.8200587857073342e-08 -2.8335992469049261e-10 0.0000000000000000e+00  7.6538774017209574e-08 6.8482394790710250e-10 0.0000000000000000e+00  7.2485563795665674e-08 4.9857299743810575e-09 0.0000000000000000e+00  -8.3544054766429028e-09 5.1111999754845036e-09 0.0000000000000000e+00  -4.3119169546412302e-09 -3.8873816371387836e-09 0.0000000000000000e+00  -7.4431645028639275e-10 -2.3309137278177013e-08 0.0000000000000000e+00  1.7242150486351414e-08 -1.4035250777883240e-08 0.0000000000000000e+00  3.1608888692770651e-08 -7.7995343901097927e-09 0.0000000000000000e+00  4.0824793884296276e-08 -4.5428042710482586e-09 0.0000000000000000e+00  4.6725493562048485e-08 -2.7879684729479392e-09 0.0000000000000000e+00  5.0555759672843526e-08 -1.7615651024152795e-09 0.0000000000000000e+00  5.3034909624264333e-08 -1.1068282083874872e-09 0.0000000000000000e+00  5.4578278748202529e-08 -6.5211049008384297e-10 0.0000000000000000e+00  5.5422779750140992e-08 -3.0413260557153929e-10 0.0000000000000000e+00  5.5691110737216390e-08 -3.2982803316507843e-12 0.0000000000000000e+00  5.5421318981721991e-08 2.9712120736769748e-10 0.0000000000000000e+00  5.4575420714508401e-08 6.4373609800937702e-10 0.0000000000000000e+00  5.3031173140982419e-08 1.0956377977852649e-09 0.0000000000000000e+00  5.0553657769085955e-08 1.7445219236293002e-09 0.0000000000000000e+00  4.6734811210367419e-08 2.7576527417041965e-09 0.0000000000000000e+00  4.0879123612858984e-08 4.4868115173386447e-09 0.0000000000000000e+00  3.1827773394021929e-08 7.7658262512233305e-09 0.0000000000000000e+00  1.8030775419758783e-08 1.4460236071099037e-08 0.0000000000000000e+00  2.9129453350362554e-10 2.5037514690634524e-08 0.0000000000000000e+00  -6.9089103120219084e-09 5.4566378202908223e-09 0.0000000000000000e+00  -1.2931270560050144e-09 -2.2439838188107910e-09 0.0000000000000000e+00  -6.5409353711093470e-09 -2.9570805617185648e-08 0.0000000000000000e+00  -2.8185160531276546e-09 -2.5894091504392678e-08 0.0000000000000000e+00  5.9723604200086151e-09 -1.8315944677273243e-08 0.0000000000000000e+00  1.4733123227959017e-08 -1.2360249194520489e-08 0.0000000000000000e+00  2.1701501866160484e-08 -8.2873467891897996e-09 0.0000000000000000e+00  2.6807365492305383e-08 -5.5222326576831541e-09 0.0000000000000000e+00  3.0364219148014587e-08 -3.5842722832139990e-09 0.0000000000000000e+00  3.2681722950468619e-08 -2.1517770375584799e-09 0.0000000000000000e+00  3.3984801242811936e-08 -1.0092147511862609e-09 0.0000000000000000e+00  3.4405222517890490e-08 9.7850671061434946e-13 0.0000000000000000e+00  3.3986323153962841e-08 1.0114481998656854e-09 0.0000000000000000e+00  3.2685753496883347e-08 2.1549446140907221e-09 0.0000000000000000e+00  3.0373482038140370e-08 3.5894354120652433e-09 0.0000000000000000e+00  2.6828491121224061e-08 5.5316926903163620e-09 0.0000000000000000e+00  2.1750711796097721e-08 8.3081029027954358e-09 0.0000000000000000e+00  1.4849786783901580e-08 1.2416578313410317e-08 0.0000000000000000e+00  6.2166753267867248e-09 1.8462223320160026e-08 0.0000000000000000e+00  -2.4902281699159298e-09 2.6093069375462918e-08 0.0000000000000000e+00  -6.1469053070431592e-09 2.8657581886837252e-08 0.0000000000000000e+00  -2.2228733773752508e-09 2.8279348385753495e-09 0.0000000000000000e+00  -1.9089431001983837e-10 -1.2305326485368634e-09 0.0000000000000000e+00  -4.6005384617883745e-09 -2.5200095713182883e-08 0.0000000000000000e+00  -6.7885937979046357e-09 -2.9184747300515287e-08 0.0000000000000000e+00  -4.5595670146542201e-09 -2.4828244485729754e-08 0.0000000000000000e+00  1.0662929369306837e-10 -1.8958843842567354e-08 0.0000000000000000e+00  5.1118170258431085e-09 -1.3780857110719622e-08 0.0000000000000000e+00  9.4401092560659435e-09 -9.6823112263457391e-09 0.0000000000000000e+00  1.2771446202012326e-08 -6.5063247822980253e-09 0.0000000000000000e+00  1.5080320706283894e-08 -3.9930176689051480e-09 0.0000000000000000e+00  1.6426971183316498e-08 -1.8964196055982205e-09 0.0000000000000000e+00  1.6869546989537071e-08 5.3878399836646272e-13 0.0000000000000000e+00  1.6430621339358392e-08 1.8977447324255449e-09 0.0000000000000000e+00  1.5088751764740990e-08 3.9952298552405614e-09 0.0000000000000000e+00  1.2787345248797801e-08 6.5106446531386297e-09 0.0000000000000000e+00  9.4685949134698209e-09 9.6916018189198032e-09 0.0000000000000000e+00  5.1606851917219276e-09 1.3802072843934820e-08 0.0000000000000000e+00  1.7902081250210134e-10 1.9004860250542230e-08 0.0000000000000000e+00  -4.4825395619297013e-09 2.4892180437875776e-08 0.0000000000000000e+00  -6.7245278795094283e-09 2.9091103290233615e-08 0.0000000000000000e+00  -4.3846424420666061e-09 2.4749055419724317e-08 0.0000000000000000e+00  -3.2355097426410609e-10 1.7306154832344208e-09 0.0000000000000000e+00  6.4425440204522366e-11 -7.5669987397265093e-10 0.0000000000000000e+00  -3.1204169307605446e-09 -2.0449237717298078e-08 0.0000000000000000e+00  -6.7614136512035408e-09 -2.7561489218344098e-08 0.0000000000000000e+00  -8.1056719849054705e-09 -2.6645341265050894e-08 0.0000000000000000e+00  -7.0455849449777455e-09 -2.2407881558797230e-08 0.0000000000000000e+00  -4.7131302023456947e-09 -1.7473508754692542e-08 0.0000000000000000e+00  -2.0977733093440081e-09 -1.2905393978235558e-08 0.0000000000000000e+00  2.2221638612926163e-10 -8.9769029988503087e-09 0.0000000000000000e+00  1.9724165912488947e-09 -5.6353503776176520e-09 0.0000000000000000e+00  3.0447477215826836e-09 -2.7112648581152559e-09 0.0000000000000000e+00  3.4055649142562638e-09 1.2397793244738058e-13 0.0000000000000000e+00  3.0485463859900786e-09 2.7117553589233853e-09 0.0000000000000000e+00  1.9806036064487624e-09 5.6367095295896157e-09 0.0000000000000000e+00  2.3590658917652927e-10 8.9802313777526905e-09 0.0000000000000000e+00  -2.0773789470336114e-09 1.2912578642119460e-08 0.0000000000000000e+00  -4.6860767814031967e-09 1.7486296434191319e-08 0.0000000000000000e+00  -7.0149035329260427e-09 2.2420973734688394e-08 0.0000000000000000e+00  -8.0797819446593293e-09 2.6628730910302606e-08 0.0000000000000000e+00  -6.7372551189223865e-09 2.7447255397000391e-08 0.0000000000000000e+00  -3.0393423020600150e-09 2.0296288994788314e-08 0.0000000000000000e+00  1.7628251515042402e-11 1.0970751727665685e-09 0.0000000000000000e+00  1.0654787090750430e-10 -4.9348140379682722e-10 0.0000000000000000e+00  -2.2747552901333349e-09 -1.6516954746847406e-08 0.0000000000000000e+00  -5.9541602143620207e-09 -2.4240087987413923e-08 0.0000000000000000e+00  -8.8271872740863624e-09 -2.5500900195275213e-08 0.0000000000000000e+00  -1.0048852139933125e-08 -2.3049693507536887e-08 0.0000000000000000e+00  -9.9244781161829055e-09 -1.9037148119209585e-08 0.0000000000000000e+00  -9.0593050274895162e-09 -1.4687137590435983e-08 0.0000000000000000e+00  -7.9743713608692931e-09 -1.0544974411498050e-08 0.0000000000000000e+00  -7.0144660002210951e-09 -6.7632687972652230e-09 0.0000000000000000e+00  -6.3754609787282115e-09 -3.2948606283312169e-09 0.0000000000000000e+00  -6.1522712030043993e-09 -5.4661834342741340e-13 0.0000000000000000e+00  -6.3726436782988223e-09 3.2939395900699161e-09 0.0000000000000000e+00  -7.0087803911542757e-09 6.7629269653607719e-09 0.0000000000000000e+00  -7.9658900544075001e-09 1.0545739785202571e-08 0.0000000000000000e+00  -9.0485970289608500e-09 1.4689342435886271e-08 0.0000000000000000e+00  -9.9130963815484577e-09 1.9039339688968862e-08 0.0000000000000000e+00  -1.0039144580602313e-08 2.3044321958254929e-08 0.0000000000000000e+00  -8.8199595528750863e-09 2.5470124510965276e-08 0.0000000000000000e+00  -5.9487810512455054e-09 2.4178114316954517e-08 0.0000000000000000e+00  -2.2504589882797939e-09 1.6472795982355992e-08 0.0000000000000000e+00  8.6702735364340351e-11 6.9529521059136613e-10 0.0000000000000000e+00  1.0461223725161656e-10 -3.3632311556412064e-10 0.0000000000000000e+00  -1.7588532643114331e-09 -1.3311114009557949e-08 0.0000000000000000e+00  -5.1052674229925035e-09 -2.0584720222968389e-08 0.0000000000000000e+00  -8.4675945675939736e-09 -2.2907138776247726e-08 0.0000000000000000e+00  -1.0891776778042498e-08 -2.1822466800986769e-08 0.0000000000000000e+00  -1.2235672779083930e-08 -1.8852283141877089e-08 0.0000000000000000e+00  -1.2744123472805469e-08 -1.5080085881850108e-08 0.0000000000000000e+00  -1.2758504260494398e-08 -1.1128114571524255e-08 0.0000000000000000e+00  -1.2571103081587683e-08 -7.2752370594307971e-09 0.0000000000000000e+00  -1.2383369364393231e-08 -3.5847216955592570e-09 0.0000000000000000e+00  -1.2308283869737822e-08 -1.0814264169234092e-12 0.0000000000000000e+00  -1.2381836161545757e-08 3.5826586733297967e-09 0.0000000000000000e+00  -1.2568226532310947e-08 7.2734636219517478e-09 0.0000000000000000e+00  -1.2754729535200561e-08 1.1126698678419911e-08 0.0000000000000000e+00  -1.2740226305079585e-08 1.5078532356149960e-08 0.0000000000000000e+00  -1.2232729703585268e-08 1.8848522385242197e-08 0.0000000000000000e+00  -1.0890932552742819e-08 2.1811783249732862e-08 0.0000000000000000e+00  -8.4686007549523127e-09 2.2884357978306083e-08 0.0000000000000000e+00  -5.1088600339238413e-09 2.0556964449863442e-08 0.0000000000000000e+00  -1.7515928769307372e-09 1.3300999290665225e-08 0.0000000000000000e+00  9.8597641575250442e-11 4.6072304134893733e-10 0.0000000000000000e+00  9.4073389841139094e-11 -2.3546693329823813e-10 0.0000000000000000e+00  -1.4079591051308939e-09 -1.0668047767207322e-08 0.0000000000000000e+00  -4.3473805046475412e-09 -1.7082295510200550e-08 0.0000000000000000e+00  -7.7094888078076669e-09 -1.9758119571187121e-08 0.0000000000000000e+00  -1.0640625156994232e-08 -1.9555571316637789e-08 0.0000000000000000e+00  -1.2813298268632528e-08 -1.7486903392763042e-08 0.0000000000000000e+00  -1.4233269221292457e-08 -1.4400131483336454e-08 0.0000000000000000e+00  -1.5063295657670290e-08 -1.0871673055509414e-08 0.0000000000000000e+00  -1.5496125553231478e-08 -7.2247303306776509e-09 0.0000000000000000e+00  -1.5689834500139653e-08 -3.5950434164924551e-09 0.0000000000000000e+00  -1.5743169649783645e-08 -1.4351123484953046e-12 0.0000000000000000e+00  -1.5689347688152751e-08 3.5922152336890806e-09 0.0000000000000000e+00  -1.5495354200217219e-08 7.2219848685147061e-09 0.0000000000000000e+00  -1.5062632229630697e-08 1.0868865226390916e-08 0.0000000000000000e+00  -1.4233246282462601e-08 1.4396646765387800e-08 0.0000000000000000e+00  -1.2814485858411120e-08 1.7481343679708325e-08 0.0000000000000000e+00  -1.0643524537773858e-08 1.9546088353433914e-08 0.0000000000000000e+00  -7.7137501068972373e-09 1.9744715039816287e-08 0.0000000000000000e+00  -4.3532494591488900e-09 1.7070992207277507e-08 0.0000000000000000e+00  -1.4048608453310592e-09 1.0668071058649730e-08 0.0000000000000000e+00  9.4642316272566056e-11 3.1704615585879369e-10 0.0000000000000000e+00  8.2405660406054295e-11 -1.6683120416278799e-10 0.0000000000000000e+00  -1.1477519122093017e-09 -8.4703889619093244e-09 0.0000000000000000e+00  -3.6895641517916123e-09 -1.3901975312793499e-08 0.0000000000000000e+00  -6.8314790610511294e-09 -1.6528310273708996e-08 0.0000000000000000e+00  -9.8639260501610623e-09 -1.6824326202716726e-08 0.0000000000000000e+00  -1.2410422380067975e-08 -1.5445159955118128e-08 0.0000000000000000e+00  -1.4344528425148344e-08 -1.3013121668649863e-08 0.0000000000000000e+00  -1.5695227349160489e-08 -1.0007765482951750e-08 0.0000000000000000e+00  -1.6556669945496928e-08 -6.7410916792493762e-09 0.0000000000000000e+00  -1.7027264094131594e-08 -3.3821495351041322e-09 0.0000000000000000e+00  -1.7176036462652595e-08 -1.6172547182167628e-12 0.0000000000000000e+00  -1.7027433206034650e-08 3.3789241780499740e-09 0.0000000000000000e+00  -1.6557141746068313e-08 6.7378507456104868e-09 0.0000000000000000e+00  -1.5696238368659371e-08 1.0004340906221142e-08 0.0000000000000000e+00  -1.4346361256515085e-08 1.3009098470008482e-08 0.0000000000000000e+00  -1.2413330685933428e-08 1.5439917536691432e-08 0.0000000000000000e+00  -9.8680689012190871e-09 1.6817571467326858e-08 0.0000000000000000e+00  -6.8363805617862464e-09 1.6521180705388363e-08 0.0000000000000000e+00  -3.6950016667974991e-09 1.3898002208665109e-08 0.0000000000000000e+00  -1.1455204210733897e-09 8.4731243362377924e-09 0.0000000000000000e+00  8.5858924184250721e-11 2.2296797699827041e-10 0.0000000000000000e+00  7.1463549311409711e-11 -1.1825846979817467e-10 0.0000000000000000e+00  -9.4498236329625265e-10 -6.6347751639859390e-09 0.0000000000000000e+00  -3.1253300200840263e-09 -1.1089789845850859e-08 0.0000000000000000e+00  -5.9616264569291612e-09 -1.3453664774716397e-08 0.0000000000000000e+00  -8.8782769581656076e-09 -1.3983073596029904e-08 0.0000000000000000e+00  -1.1510398576250490e-08 -1.3095611057716028e-08 0.0000000000000000e+00  -1.3669797042342417e-08 -1.1231483537680635e-08 0.0000000000000000e+00  -1.5299264241297464e-08 -8.7651090165831741e-09 0.0000000000000000e+00  -1.6415109168856749e-08 -5.9686652871699502e-09 0.0000000000000000e+00  -1.7059781976826987e-08 -3.0147817220883325e-09 0.0000000000000000e+00  -1.7270140053229797e-08 -1.6691952392008401e-12 0.0000000000000000e+00  -1.7060269060929609e-08 3.0114431603358739e-09 0.0000000000000000e+00  -1.6416149235341613e-08 5.9652994088805592e-09 0.0000000000000000e+00  -1.5300965584809610e-08 8.7616155812653923e-09 0.0000000000000000e+00  -1.3672272398251033e-08 1.1227687296062838e-08 0.0000000000000000e+00  -1.1513714696240800e-08 1.3091388976612244e-08 0.0000000000000000e+00  -8.8823995173251951e-09 1.3978698767837352e-08 0.0000000000000000e+00  -5.9660198636378831e-09 1.3450155749823965e-08 0.0000000000000000e+00  -3.1296524609071682e-09 1.1089013106075268e-08 0.0000000000000000e+00  -9.4295135120085465e-10 6.6379996279116715e-09 0.0000000000000000e+00  7.5940392548632393e-11 1.5823289536651132e-10 0.0000000000000000e+00  6.1874582846133231e-11 -8.2976555730733837e-11 0.0000000000000000e+00  -7.8444769298910355e-10 -5.0959214627755245e-09 0.0000000000000000e+00  -2.6508584299375813e-09 -8.6363561952962389e-09 0.0000000000000000e+00  -5.1677905975872364e-09 -1.0636160435652545e-08 0.0000000000000000e+00  -7.8698708789222408e-09 -1.1228288120004035e-08 0.0000000000000000e+00  -1.0425859298754579e-08 -1.0675574201593931e-08 0.0000000000000000e+00  -1.2626114675453980e-08 -9.2816888821923334e-09 0.0000000000000000e+00  -1.4363914824496356e-08 -7.3265219828701887e-09 0.0000000000000000e+00  -1.5601679879680562e-08 -5.0319550453745431e-09 0.0000000000000000e+00  -1.6337934192398213e-08 -2.5552421358771771e-09 0.0000000000000000e+00  -1.6581952930486025e-08 -1.6364099537446029e-12 0.0000000000000000e+00  -1.6338510959686739e-08 2.5519755992639130e-09 0.0000000000000000e+00  -1.5602855029711376e-08 5.0286971446621540e-09 0.0000000000000000e+00  -1.4365717929395912e-08 7.3232560736907466e-09 0.0000000000000000e+00  -1.2628560653164672e-08 9.2784110292110139e-09 0.0000000000000000e+00  -1.0428913970677125e-08 1.0672394261413915e-08 0.0000000000000000e+00  -7.8734096268977086e-09 1.1225586882107868e-08 0.0000000000000000e+00  -5.1713156927628464e-09 1.0634630995058655e-08 0.0000000000000000e+00  -2.6540804127391531e-09 8.6369663416808509e-09 0.0000000000000000e+00  -7.8258588617811525e-10 5.0990303704202492e-09 0.0000000000000000e+00  6.6392102887463947e-11 1.1217427742728736e-10 0.0000000000000000e+00  5.3933298550677177e-11 -5.6780031585608068e-11 0.0000000000000000e+00  -6.5885201239226404e-10 -3.7973037770866868e-09 0.0000000000000000e+00  -2.2649518862187391e-09 -6.5036982905699885e-09 0.0000000000000000e+00  -4.4892284347643958e-09 -8.1001507124632012e-09 0.0000000000000000e+00  -6.9517393095712337e-09 -8.6506923079114171e-09 0.0000000000000000e+00  -9.3586900773471032e-09 -8.3180669473713750e-09 0.0000000000000000e+00  -1.1499407134930777e-08 -7.3066464092355438e-09 0.0000000000000000e+00  -1.3241961156229408e-08 -5.8176722850936405e-09 0.0000000000000000e+00  -1.4514940392034473e-08 -4.0219484548119715e-09 0.0000000000000000e+00  -1.5286132689913826e-08 -2.0508070884726941e-09 0.0000000000000000e+00  -1.5544182259174574e-08 -1.5593405350722847e-12 0.0000000000000000e+00  -1.5286667485557746e-08 2.0477079938752333e-09 0.0000000000000000e+00  -1.4516008642400560e-08 4.0189085526901734e-09 0.0000000000000000e+00  -1.3243552894594461e-08 5.8147406955657581e-09 0.0000000000000000e+00  -1.1501490653062309e-08 7.3039135824643229e-09 0.0000000000000000e+00  -9.3611897091110714e-09 8.3157207057554798e-09 0.0000000000000000e+00  -6.9545105404140375e-09 8.6490690405829672e-09 0.0000000000000000e+00  -4.4918665635714186e-09 8.0996837470625946e-09 0.0000000000000000e+00  -2.2672561185933111e-09 6.5049098067524610e-09 0.0000000000000000e+00  -6.5724908638776819e-10 3.8001789134975139e-09 0.0000000000000000e+00  5.7942617999645664e-11 7.8611846837051481e-11 0.0000000000000000e+00  4.7799051687625964e-11 -3.6785065888585730e-11 0.0000000000000000e+00  -5.6429359532432564e-10 -2.6867998741639920e-09 0.0000000000000000e+00  -1.9669745342615580e-09 -4.6380085639306183e-09 0.0000000000000000e+00  -3.9485742568654926e-09 -5.8240515935688673e-09 0.0000000000000000e+00  -6.1920379168721996e-09 -6.2723050233925737e-09 0.0000000000000000e+00  -8.4365293228732415e-09 -6.0805984071670346e-09 0.0000000000000000e+00  -1.0478752649875052e-08 -5.3813147372555999e-09 0.0000000000000000e+00  -1.2175927438963442e-08 -4.3119369538991778e-09 0.0000000000000000e+00  -1.3437189865272469e-08 -2.9954331144815337e-09 0.0000000000000000e+00  -1.4210692778157712e-08 -1.5321225712865175e-09 0.0000000000000000e+00  -1.4471139792076530e-08 -1.4700014183366351e-12 0.0000000000000000e+00  -1.4211119693586822e-08 1.5292157564075157e-09 0.0000000000000000e+00  -1.3438033663895701e-08 2.9926310851245002e-09 0.0000000000000000e+00  -1.2177164236998300e-08 4.3093306731292515e-09 0.0000000000000000e+00  -1.0480337407073784e-08 5.3790366428343418e-09 0.0000000000000000e+00  -8.4383830298979425e-09 6.0788456976526441e-09 0.0000000000000000e+00  -6.1940357013228501e-09 6.2713439827897422e-09 0.0000000000000000e+00  -3.9504201028064325e-09 5.8241519359356129e-09 0.0000000000000000e+00  -1.9685432483337726e-09 4.6394789493765646e-09 0.0000000000000000e+00  -5.6303354094732851e-10 2.6894599424312828e-09 0.0000000000000000e+00  5.0988066982915255e-11 5.3605355535770728e-11 0.0000000000000000e+00  4.3552955024095966e-11 -2.0841238697704503e-11 0.0000000000000000e+00  -4.9834509939976128e-10 -1.7149576660853603e-09 0.0000000000000000e+00  -1.7558453573884846e-09 -2.9768358978884322e-09 0.0000000000000000e+00  -3.5577857869903514e-09 -3.7592466113337524e-09 0.0000000000000000e+00  -5.6300491768171563e-09 -4.0718139639254345e-09 0.0000000000000000e+00  -7.7366487031992142e-09 -3.9693718174882559e-09 0.0000000000000000e+00  -9.6831642431145039e-0