<?xml version="1.0"?>
<VTKFile type="UnstructuredGrid"  version="0.1"  >
<UnstructuredGrid>
<Piece  NumberOfPoints="651" NumberOfCells="1200">
<Points>
<DataArray  type="Float64"  NumberOfComponents="3"  format="ascii">0 0 0  50000 0 0  100000 0 0  150000 0 0  200000 0 0  250000 0 0  300000 0 0  350000 0 0  400000 0 0  450000 0 0  500000 0 0  550000 0 0  600000 0 0  650000 0 0  700000 0 0  750000 0 0  800000 0 0  850000 0 0  900000 0 0  950000 0 0  1000000 0 0  0 50000 0  50000 50000 0  100000 50000 0  150000 50000 0  200000 50000 0  250000 50000 0  300000 50000 0  350000 50000 0  400000 50000 0  450000 50000 0  500000 50000 0  550000 50000 0  600000 50000 0  650000 50000 0  700000 50000 0  750000 50000 0  800000 50000 0  850000 50000 0  900000 50000 0  950000 50000 0  1000000 50000 0  0 100000 0  50000 100000 0  100000 100000 0  150000 100000 0  200000 100000 0  250000 100000 0  300000 100000 0  350000 100000 0  400000 100000 0  450000 100000 0  500000 100000 0  550000 100000 0  600000 100000 0  650000 100000 0  700000 100000 0  750000 100000 0  800000 100000 0  850000 100000 0  900000 100000 0  950000 100000 0  1000000 100000 0  0 150000 0  50000 150000 0  100000 150000 0  150000 150000 0  200000 150000 0  250000 150000 0  300000 150000 0  350000 150000 0  400000 150000 0  450000 150000 0  500000 150000 0  550000 150000 0  600000 150000 0  650000 150000 0  700000 150000 0  750000 150000 0  800000 150000 0  850000 150000 0  900000 150000 0  950000 150000 0  1000000 150000 0  0 200000 0  50000 200000 0  100000 200000 0  150000 200000 0  200000 200000 0  250000 200000 0  300000 200000 0  350000 200000 0  400000 200000 0  450000 200000 0  500000 200000 0  550000 200000 0  600000 200000 0  650000 200000 0  700000 200000 0  750000 200000 0  800000 200000 0  850000 200000 0  900000 200000 0  950000 200000 0  1000000 200000 0  0 250000 0  50000 250000 0  100000 250000 0  150000 250000 0  200000 250000 0  250000 250000 0  300000 250000 0  350000 250000 0  400000 250000 0  450000 250000 0  500000 250000 0  550000 250000 0  600000 250000 0  650000 250000 0  700000 250000 0  750000 250000 0  800000 250000 0  850000 250000 0  900000 250000 0  950000 250000 0  1000000 250000 0  0 300000 0  50000 300000 0  100000 300000 0  150000 300000 0  200000 300000 0  250000 300000 0  300000 300000 0  350000 300000 0  400000 300000 0  450000 300000 0  500000 300000 0  550000 300000 0  600000 300000 0  650000 300000 0  700000 300000 0  750000 300000 0  800000 300000 0  850000 300000 0  900000 300000 0  950000 300000 0  1000000 300000 0  0 350000 0  50000 350000 0  100000 350000 0  150000 350000 0  200000 350000 0  250000 350000 0  300000 350000 0  350000 350000 0  400000 350000 0  450000 350000 0  500000 350000 0  550000 350000 0  600000 350000 0  650000 350000 0  700000 350000 0  750000 350000 0  800000 350000 0  850000 350000 0  900000 350000 0  950000 350000 0  1000000 350000 0  0 400000 0  50000 400000 0  100000 400000 0  150000 400000 0  200000 400000 0  250000 400000 0  300000 400000 0  350000 400000 0  400000 400000 0  450000 400000 0  500000 400000 0  550000 400000 0  600000 400000 0  650000 400000 0  700000 400000 0  750000 400000 0  800000 400000 0  850000 400000 0  900000 400000 0  950000 400000 0  1000000 400000 0  0 450000 0  50000 450000 0  100000 450000 0  150000 450000 0  200000 450000 0  250000 450000 0  300000 450000 0  350000 450000 0  400000 450000 0  450000 450000 0  500000 450000 0  550000 450000 0  600000 450000 0  650000 450000 0  700000 450000 0  750000 450000 0  800000 450000 0  850000 450000 0  900000 450000 0  950000 450000 0  1000000 450000 0  0 500000 0  50000 500000 0  100000 500000 0  150000 500000 0  200000 500000 0  250000 500000 0  300000 500000 0  350000 500000 0  400000 500000 0  450000 500000 0  500000 500000 0  550000 500000 0  600000 500000 0  650000 500000 0  700000 500000 0  750000 500000 0  800000 500000 0  850000 500000 0  900000 500000 0  950000 500000 0  1000000 500000 0  0 550000 0  50000 550000 0  100000 550000 0  150000 550000 0  200000 550000 0  250000 550000 0  300000 550000 0  350000 550000 0  400000 550000 0  450000 550000 0  500000 550000 0  550000 550000 0  600000 550000 0  650000 550000 0  700000 550000 0  750000 550000 0  800000 550000 0  850000 550000 0  900000 550000 0  950000 550000 0  1000000 550000 0  0 600000 0  50000 600000 0  100000 600000 0  150000 600000 0  200000 600000 0  250000 600000 0  300000 600000 0  350000 600000 0  400000 600000 0  450000 600000 0  500000 600000 0  550000 600000 0  600000 600000 0  650000 600000 0  700000 600000 0  750000 600000 0  800000 600000 0  850000 600000 0  900000 600000 0  950000 600000 0  1000000 600000 0  0 650000 0  50000 650000 0  100000 650000 0  150000 650000 0  200000 650000 0  250000 650000 0  300000 650000 0  350000 650000 0  400000 650000 0  450000 650000 0  500000 650000 0  550000 650000 0  600000 650000 0  650000 650000 0  700000 650000 0  750000 650000 0  800000 650000 0  850000 650000 0  900000 650000 0  950000 650000 0  1000000 650000 0  0 700000 0  50000 700000 0  100000 700000 0  150000 700000 0  200000 700000 0  250000 700000 0  300000 700000 0  350000 700000 0  400000 700000 0  450000 700000 0  500000 700000 0  550000 700000 0  600000 700000 0  650000 700000 0  700000 700000 0  750000 700000 0  800000 700000 0  850000 700000 0  900000 700000 0  950000 700000 0  1000000 700000 0  0 750000 0  50000 750000 0  100000 750000 0  150000 750000 0  200000 750000 0  250000 750000 0  300000 750000 0  350000 750000 0  400000 750000 0  450000 750000 0  500000 750000 0  550000 750000 0  600000 750000 0  650000 750000 0  700000 750000 0  750000 750000 0  800000 750000 0  850000 750000 0  900000 750000 0  950000 750000 0  1000000 750000 0  0 800000 0  50000 800000 0  100000 800000 0  150000 800000 0  200000 800000 0  250000 800000 0  300000 800000 0  350000 800000 0  400000 800000 0  450000 800000 0  500000 800000 0  550000 800000 0  600000 800000 0  650000 800000 0  700000 800000 0  750000 800000 0  800000 800000 0  850000 800000 0  900000 800000 0  950000 800000 0  1000000 800000 0  0 850000 0  50000 850000 0  100000 850000 0  150000 850000 0  200000 850000 0  250000 850000 0  300000 850000 0  350000 850000 0  400000 850000 0  450000 850000 0  500000 850000 0  550000 850000 0  600000 850000 0  650000 850000 0  700000 850000 0  750000 850000 0  800000 850000 0  850000 850000 0  900000 850000 0  950000 850000 0  1000000 850000 0  0 900000 0  50000 900000 0  100000 900000 0  150000 900000 0  200000 900000 0  250000 900000 0  300000 900000 0  350000 900000 0  400000 900000 0  450000 900000 0  500000 900000 0  550000 900000 0  600000 900000 0  650000 900000 0  700000 900000 0  750000 900000 0  800000 900000 0  850000 900000 0  900000 900000 0  950000 900000 0  1000000 900000 0  0 950000 0  50000 950000 0  100000 950000 0  150000 950000 0  200000 950000 0  250000 950000 0  300000 950000 0  350000 950000 0  400000 950000 0  450000 950000 0  500000 950000 0  550000 950000 0  600000 950000 0  650000 950000 0  700000 950000 0  750000 950000 0  800000 950000 0  850000 950000 0  900000 950000 0  950000 950000 0  1000000 950000 0  0 1000000 0  50000 1000000 0  100000 1000000 0  150000 1000000 0  200000 1000000 0  250000 1000000 0  300000 1000000 0  350000 1000000 0  400000 1000000 0  450000 1000000 0  500000 1000000 0  550000 1000000 0  600000 1000000 0  650000 1000000 0  700000 1000000 0  750000 1000000 0  800000 1000000 0  850000 1000000 0  900000 1000000 0  950000 1000000 0  1000000 1000000 0  0 1050000 0  50000 1050000 0  100000 1050000 0  150000 1050000 0  200000 1050000 0  250000 1050000 0  300000 1050000 0  350000 1050000 0  400000 1050000 0  450000 1050000 0  500000 1050000 0  550000 1050000 0  600000 1050000 0  650000 1050000 0  700000 1050000 0  750000 1050000 0  800000 1050000 0  850000 1050000 0  900000 1050000 0  950000 1050000 0  1000000 1050000 0  0 1100000 0  50000 1100000 0  100000 1100000 0  150000 1100000 0  200000 1100000 0  250000 1100000 0  300000 1100000 0  350000 1100000 0  400000 1100000 0  450000 1100000 0  500000 1100000 0  550000 1100000 0  600000 1100000 0  650000 1100000 0  700000 1100000 0  750000 1100000 0  800000 1100000 0  850000 1100000 0  900000 1100000 0  950000 1100000 0  1000000 1100000 0  0 1150000 0  50000 1150000 0  100000 1150000 0  150000 1150000 0  200000 1150000 0  250000 1150000 0  300000 1150000 0  350000 1150000 0  400000 1150000 0  450000 1150000 0  500000 1150000 0  550000 1150000 0  600000 1150000 0  650000 1150000 0  700000 1150000 0  750000 1150000 0  800000 1150000 0  850000 1150000 0  900000 1150000 0  950000 1150000 0  1000000 1150000 0  0 1200000 0  50000 1200000 0  100000 1200000 0  150000 1200000 0  200000 1200000 0  250000 1200000 0  300000 1200000 0  350000 1200000 0  400000 1200000 0  450000 1200000 0  500000 1200000 0  550000 1200000 0  600000 1200000 0  650000 1200000 0  700000 1200000 0  750000 1200000 0  800000 1200000 0  850000 1200000 0  900000 1200000 0  950000 1200000 0  1000000 1200000 0  0 1250000 0  50000 1250000 0  100000 1250000 0  150000 1250000 0  200000 1250000 0  250000 1250000 0  300000 1250000 0  350000 1250000 0  400000 1250000 0  450000 1250000 0  500000 1250000 0  550000 1250000 0  600000 1250000 0  650000 1250000 0  700000 1250000 0  750000 1250000 0  800000 1250000 0  850000 1250000 0  900000 1250000 0  950000 1250000 0  1000000 1250000 0  0 1300000 0  50000 1300000 0  100000 1300000 0  150000 1300000 0  200000 1300000 0  250000 1300000 0  300000 1300000 0  350000 1300000 0  400000 1300000 0  450000 1300000 0  500000 1300000 0  550000 1300000 0  600000 1300000 0  650000 1300000 0  700000 1300000 0  750000 1300000 0  800000 1300000 0  850000 1300000 0  900000 1300000 0  950000 1300000 0  1000000 1300000 0  0 1350000 0  50000 1350000 0  100000 1350000 0  150000 1350000 0  200000 1350000 0  250000 1350000 0  300000 1350000 0  350000 1350000 0  400000 1350000 0  450000 1350000 0  500000 1350000 0  550000 1350000 0  600000 1350000 0  650000 1350000 0  700000 135
[...]
<PointData  Vectors="f_10477"> 
<DataArray  type="Float64"  Name="f_10477"  NumberOfComponents="3" format="ascii">-5.6804710465999269e-09 -3.1632323767105752e-09 0.0000000000000000e+00  7.5426883797647687e-08 -2.0587349609086262e-09 0.0000000000000000e+00  7.8248030011597883e-08 -4.6352369756260633e-11 0.0000000000000000e+00  7.9084139100673489e-08 2.8917430316873017e-10 0.0000000000000000e+00  7.9496851067297644e-08 2.5362278822829278e-10 0.0000000000000000e+00  7.9695638412328649e-08 1.8340379980733092e-10 0.0000000000000000e+00  7.9798382399018144e-08 1.2595904913785979e-10 0.0000000000000000e+00  7.9854352148025454e-08 8.2412385985192870e-11 0.0000000000000000e+00  7.9884454930407388e-08 4.8107425252170788e-11 0.0000000000000000e+00  7.9897984035383901e-08 1.9002413194040318e-11 0.0000000000000000e+00  7.9898645569323430e-08 -8.0001420467165092e-12 0.0000000000000000e+00  7.9886623732839977e-08 -3.5534430935209823e-11 0.0000000000000000e+00  7.9858705457357997e-08 -6.6249678937840614e-11 0.0000000000000000e+00  7.9806624184495231e-08 -1.0323955149191299e-10 0.0000000000000000e+00  7.9712094731165791e-08 -1.5036734407224178e-10 0.0000000000000000e+00  7.9533183827887439e-08 -2.1181276070773460e-10 0.0000000000000000e+00  7.9171002817688796e-08 -2.8545032609533569e-10 0.0000000000000000e+00  7.8434873730135111e-08 -2.9345005720587029e-10 0.0000000000000000e+00  7.6924078909295440e-08 5.5603542200525821e-10 0.0000000000000000e+00  7.2891463654574964e-08 4.7645753939910113e-09 0.0000000000000000e+00  -8.0058029869609592e-09 4.9459523606566445e-09 0.0000000000000000e+00  -3.9825485264803386e-09 -3.5248985025166028e-09 0.0000000000000000e+00  -1.2226579056629568e-09 -2.3616719707689594e-08 0.0000000000000000e+00  1.7257913224039255e-08 -1.4061622726642428e-08 0.0000000000000000e+00  3.1876527292922892e-08 -7.8316866925351777e-09 0.0000000000000000e+00  4.1319638693036315e-08 -4.6263369275215342e-09 0.0000000000000000e+00  4.7456647310961296e-08 -2.8989729272786585e-09 0.0000000000000000e+00  5.1521900309792359e-08 -1.8758928101503944e-09 0.0000000000000000e+00  5.4211659904130343e-08 -1.2067326379652924e-09 0.0000000000000000e+00  5.5920806205601961e-08 -7.2530983083753890e-10 0.0000000000000000e+00  5.6871072498942352e-08 -3.4277613646244020e-10 0.0000000000000000e+00  5.7175914860823756e-08 -3.5029479198073149e-12 0.0000000000000000e+00  5.6870277353954109e-08 3.3543520545223047e-10 0.0000000000000000e+00  5.5919244874572428e-08 7.1685993875415152e-10 0.0000000000000000e+00  5.4209703524602942e-08 1.1959684253524311e-09 0.0000000000000000e+00  5.1521546078130356e-08 1.8602470838766455e-09 0.0000000000000000e+00  4.7466058232608676e-08 2.8717590027281290e-09 0.0000000000000000e+00  4.1367473573141857e-08 4.5740982426687528e-09 0.0000000000000000e+00  3.2069639092148717e-08 7.7923489305726202e-09 0.0000000000000000e+00  1.7968091730380548e-08 1.4449874285257459e-08 0.0000000000000000e+00  -1.3525631409386945e-10 2.5320675818289842e-08 0.0000000000000000e+00  -6.5550301815137255e-09 5.1902898073737239e-09 0.0000000000000000e+00  -1.1507005907001016e-09 -1.9302962020072401e-09 0.0000000000000000e+00  -6.5286935599827705e-09 -2.9768969947182182e-08 0.0000000000000000e+00  -2.6528711512227352e-09 -2.6202351069643772e-08 0.0000000000000000e+00  6.4374548805889904e-09 -1.8697438258814367e-08 0.0000000000000000e+00  1.5590028730253919e-08 -1.2795941109558564e-08 0.0000000000000000e+00  2.2973233357068206e-08 -8.7416782003048853e-09 0.0000000000000000e+00  2.8479673668063726e-08 -5.9506256584949212e-09 0.0000000000000000e+00  3.2389176305210829e-08 -3.9450401031149226e-09 0.0000000000000000e+00  3.4981813886871784e-08 -2.4115671614164318e-09 0.0000000000000000e+00  3.6459645550608539e-08 -1.1451344950857373e-09 0.0000000000000000e+00  3.6940123347620457e-08 5.0323474253324850e-13 0.0000000000000000e+00  3.6461692777797791e-08 1.1463514628361291e-09 0.0000000000000000e+00  3.4986775240135963e-08 2.4135085095423591e-09 0.0000000000000000e+00  3.2399452769361505e-08 3.9485763610528396e-09 0.0000000000000000e+00  2.8501136884403606e-08 5.9577069749270931e-09 0.0000000000000000e+00  2.3020302034248904e-08 8.7584486813130194e-09 0.0000000000000000e+00  1.5697394566039374e-08 1.2845196437745666e-08 0.0000000000000000e+00  6.6550006367090630e-09 1.8837216678213095e-08 0.0000000000000000e+00  -2.3793998852115015e-09 2.6428042927596399e-08 0.0000000000000000e+00  -6.0822826173171496e-09 2.8901624501991779e-08 0.0000000000000000e+00  -1.9868590083872785e-09 2.4979781081881607e-09 0.0000000000000000e+00  -1.5287957387776728e-10 -1.0416834089241116e-09 0.0000000000000000e+00  -4.4342077077845291e-09 -2.5405233123571290e-08 0.0000000000000000e+00  -6.4499224412381828e-09 -2.9753128351399251e-08 0.0000000000000000e+00  -3.8874442769699894e-09 -2.5616353266892395e-08 0.0000000000000000e+00  1.2318156622397417e-09 -1.9856465357275544e-08 0.0000000000000000e+00  6.7284698509683423e-09 -1.4700223545930900e-08 0.0000000000000000e+00  1.1534226802276956e-08 -1.0538498184856925e-08 0.0000000000000000e+00  1.5285764512203969e-08 -7.2225129059685323e-09 0.0000000000000000e+00  1.7922020238794665e-08 -4.5070083404443190e-09 0.0000000000000000e+00  1.9476353206887554e-08 -2.1649023554689122e-09 0.0000000000000000e+00  1.9990130879808660e-08 -3.1928675523020050e-13 0.0000000000000000e+00  1.9480180129732649e-08 2.1644443568288447e-09 0.0000000000000000e+00  1.7930646260209838e-08 4.5072256411251306e-09 0.0000000000000000e+00  1.5301496952083272e-08 7.2244431460392529e-09 0.0000000000000000e+00  1.1561434525010897e-08 1.0544748551006438e-08 0.0000000000000000e+00  6.7736206296907446e-09 1.4717520063172840e-08 0.0000000000000000e+00  1.2963674982098384e-09 1.9898596546364308e-08 0.0000000000000000e+00  -3.8209502999044447e-09 2.5682402924676504e-08 0.0000000000000000e+00  -6.3978086138648530e-09 2.9689135829617356e-08 0.0000000000000000e+00  -4.2095600506055670e-09 2.5002632571575279e-08 0.0000000000000000e+00  -2.5613063966392539e-10 1.4880125965915240e-09 0.0000000000000000e+00  6.1509365661846276e-11 -6.4373267398632235e-10 0.0000000000000000e+00  -2.9514211984196277e-09 -2.0836013739407723e-08 0.0000000000000000e+00  -6.3543486646862961e-09 -2.8431674038916546e-08 0.0000000000000000e+00  -7.3355912132555832e-09 -2.7851121286335648e-08 0.0000000000000000e+00  -5.8201445187978199e-09 -2.3792348614912906e-08 0.0000000000000000e+00  -2.9960724980826590e-09 -1.8891736243246584e-08 0.0000000000000000e+00  9.7796748078598480e-11 -1.4223436613949163e-08 0.0000000000000000e+00  2.8392384387456769e-09 -1.0077416403993779e-08 0.0000000000000000e+00  4.9177840484845327e-09 -6.4242147025980576e-09 0.0000000000000000e+00  6.1983380199620864e-09 -3.1229289070200066e-09 0.0000000000000000e+00  6.6304566138665394e-09 -7.7018717231028285e-13 0.0000000000000000e+00  6.2020751922449252e-09 3.1216080301183692e-09 0.0000000000000000e+00  4.9257108002407544e-09 6.4236983646006328e-09 0.0000000000000000e+00  2.8521722321545241e-09 1.0078793910083736e-08 0.0000000000000000e+00  1.1645396854065030e-10 1.4228711962629957e-08 0.0000000000000000e+00  -2.9722986901794716e-09 1.8903212932728907e-08 0.0000000000000000e+00  -5.7942840226836201e-09 2.3806397643310538e-08 0.0000000000000000e+00  -7.3129940326431390e-09 2.7840694703883670e-08 0.0000000000000000e+00  -6.3307012179274892e-09 2.8333588175999631e-08 0.0000000000000000e+00  -2.8735998000502583e-09 2.0704856078590032e-08 0.0000000000000000e+00  2.0755209722209746e-11 9.3747726420419918e-10 0.0000000000000000e+00  9.2392606969418308e-11 -4.2384199666614317e-10 0.0000000000000000e+00  -2.1315522781052476e-09 -1.7115396415648744e-08 0.0000000000000000e+00  -5.5667439558448679e-09 -2.5426545616087118e-08 0.0000000000000000e+00  -8.0968916546165552e-09 -2.7110878366348722e-08 0.0000000000000000e+00  -8.9112684356911418e-09 -2.4892761279124851e-08 0.0000000000000000e+00  -8.3544301954093177e-09 -2.0922787106314377e-08 0.0000000000000000e+00  -7.0705493509990319e-09 -1.6437666784823004e-08 0.0000000000000000e+00  -5.6174416713176662e-09 -1.2005366830774770e-08 0.0000000000000000e+00  -4.3708664782333621e-09 -7.8095035581856419e-09 0.0000000000000000e+00  -3.5501262183847914e-09 -3.8405589266031619e-09 0.0000000000000000e+00  -3.2647572142852704e-09 -1.4175640242889274e-12 0.0000000000000000e+00  -3.5475052288719100e-09 3.8379190125497849e-09 0.0000000000000000e+00  -4.3656638156265415e-09 7.8075274904934840e-09 0.0000000000000000e+00  -5.6098993832068146e-09 1.2004705929352072e-08 0.0000000000000000e+00  -7.0614322734523455e-09 1.6438939851140392e-08 0.0000000000000000e+00  -8.3453464465567698e-09 2.0925194688317680e-08 0.0000000000000000e+00  -8.9041746476078451e-09 2.4889975003558030e-08 0.0000000000000000e+00  -8.0909966543697165e-09 2.7086323118498919e-08 0.0000000000000000e+00  -5.5611588567974207e-09 2.5374459135887372e-08 0.0000000000000000e+00  -2.1100114704678521e-09 1.7080958566298375e-08 0.0000000000000000e+00  7.3957711805072814e-11 5.9364087359107598e-10 0.0000000000000000e+00  8.9821108952910850e-11 -2.9384180536654437e-10 0.0000000000000000e+00  -1.6501178009295887e-09 -1.4095479836624311e-08 0.0000000000000000e+00  -4.7986264594392282e-09 -2.2051169026329044e-08 0.0000000000000000e+00  -7.8902510420624787e-09 -2.4860719864927120e-08 0.0000000000000000e+00  -1.0002166578639178e-08 -2.4044301417330420e-08 0.0000000000000000e+00  -1.1020080543094803e-08 -2.1119384905503753e-08 0.0000000000000000e+00  -1.1215572233506494e-08 -1.7182102201907423e-08 0.0000000000000000e+00  -1.0955762157911470e-08 -1.2880585727444412e-08 0.0000000000000000e+00  -1.0555174775490849e-08 -8.5302510018370175e-09 0.0000000000000000e+00  -1.0232375254352356e-08 -4.2390995659841787e-09 0.0000000000000000e+00  -1.0111121913706688e-08 -1.8497376910753267e-12 0.0000000000000000e+00  -1.0231097395255370e-08 4.2355595916588282e-09 0.0000000000000000e+00  -1.0552851629037657e-08 8.5271961545429004e-09 0.0000000000000000e+00  -1.0952901636017312e-08 1.2878275481442563e-08 0.0000000000000000e+00  -1.1212969568213692e-08 1.7180339250293684e-08 0.0000000000000000e+00  -1.1018663073946467e-08 2.1116547775134992e-08 0.0000000000000000e+00  -1.0002703813541395e-08 2.4036252809342931e-08 0.0000000000000000e+00  -7.8918008763810354e-09 2.4842596188595244e-08 0.0000000000000000e+00  -4.8019721341872473e-09 2.2029312527848253e-08 0.0000000000000000e+00  -1.6445715466674493e-09 1.4089820936851876e-08 0.0000000000000000e+00  8.3255413742405353e-11 3.9714689680984403e-10 0.0000000000000000e+00  8.2032331166009367e-11 -2.1069983388306073e-10 0.0000000000000000e+00  -1.3393325502240553e-09 -1.1584971048986759e-08 0.0000000000000000e+00  -4.1578838702536977e-09 -1.8748159880420635e-08 0.0000000000000000e+00  -7.3578974008460254e-09 -2.1950620041416881e-08 0.0000000000000000e+00  -1.0106641677070375e-08 -2.2035013259994996e-08 0.0000000000000000e+00  -1.2092639250249418e-08 -2.0010098443747018e-08 0.0000000000000000e+00  -1.3335472292700546e-08 -1.6736625158467909e-08 0.0000000000000000e+00  -1.4011216798069648e-08 -1.2818447494591019e-08 0.0000000000000000e+00  -1.4324407675589984e-08 -8.6184729399626836e-09 0.0000000000000000e+00  -1.4442411383195498e-08 -4.3215831511795836e-09 0.0000000000000000e+00  -1.4469917562466849e-08 -2.0711421465003257e-12 0.0000000000000000e+00  -1.4442190779938295e-08 4.3175613794157620e-09 0.0000000000000000e+00  -1.4324175382604927e-08 8.6147792874762776e-09 0.0000000000000000e+00  -1.4011358584528628e-08 1.2815133200843387e-08 0.0000000000000000e+00  -1.3336458655669937e-08 1.6733313268398806e-08 0.0000000000000000e+00  -1.2094859520788538e-08 2.0005647865876496e-08 0.0000000000000000e+00  -1.0110312744338389e-08 2.2027769305416155e-08 0.0000000000000000e+00  -7.3623150749614178e-09 2.1940476127495293e-08 0.0000000000000000e+00  -4.1634042688384003e-09 1.8740349449432608e-08 0.0000000000000000e+00  -1.3376183897861619e-09 1.1587090663106018e-08 0.0000000000000000e+00  8.0864164498761868e-11 2.7825494481912833e-10 0.0000000000000000e+00  7.4119851479064388e-11 -1.5362652819419034e-10 0.0000000000000000e+00  -1.1211011171229753e-09 -9.4532318988461540e-09 0.0000000000000000e+00  -3.6320285076567877e-09 -1.5661789765358371e-08 0.0000000000000000e+00  -6.7378305388796918e-09 -1.8827948325577490e-08 0.0000000000000000e+00  -9.7350581823437350e-09 -1.9414811618394890e-08 0.0000000000000000e+00  -1.2249848567791490e-08 -1.8075947258369201e-08 0.0000000000000000e+00  -1.4156261265730298e-08 -1.5446737705648850e-08 0.0000000000000000e+00  -1.5483928710323446e-08 -1.2034473806098114e-08 0.0000000000000000e+00  -1.6327898831339402e-08 -8.1917343556976154e-09 0.0000000000000000e+00  -1.6787556700159312e-08 -4.1382242095892723e-09 0.0000000000000000e+00  -1.6932675875166173e-08 -2.1153769171267661e-12 0.0000000000000000e+00  -1.6787977902107288e-08 4.1340845610140270e-09 0.0000000000000000e+00  -1.6328859892589309e-08 8.1878272764081718e-09 0.0000000000000000e+00  -1.5485623414492138e-08 1.2030801145515605e-08 0.0000000000000000e+00  -1.4158879955086124e-08 1.5443048148816420e-08 0.0000000000000000e+00  -1.2253479799207953e-08 1.8071741133194285e-08 0.0000000000000000e+00  -9.7396537663638009e-09 1.9409800187873237e-08 0.0000000000000000e+00  -6.7427112482836616e-09 1.8823025937102941e-08 0.0000000000000000e+00  -3.6371132200985924e-09 1.5659844321586199e-08 0.0000000000000000e+00  -1.1201797905682094e-09 9.4568816100053784e-09 0.0000000000000000e+00  7.5276772348561627e-11 2.0048479894131260e-10 0.0000000000000000e+00  6.7013906568308432e-11 -1.1234287765405714e-10 0.0000000000000000e+00  -9.5806758833731072e-10 -7.6141214751804972e-09 0.0000000000000000e+00  -3.1970652176645716e-09 -1.2830697579147436e-08 0.0000000000000000e+00  -6.1236147887446382e-09 -1.5719921141809143e-08 0.0000000000000000e+00  -9.1522305682815085e-09 -1.6530133451226517e-08 0.0000000000000000e+00  -1.1906766537852235e-08 -1.5678955296340955e-08 0.0000000000000000e+00  -1.4186419335171462e-08 -1.3619617025280650e-08 0.0000000000000000e+00  -1.5922445252558221e-08 -1.0753330805283831e-08 0.0000000000000000e+00  -1.7121560289025312e-08 -7.3915791922054465e-09 0.0000000000000000e+00  -1.7819126847258416e-08 -3.7563307527811973e-09 0.0000000000000000e+00  -1.8047677503438724e-08 -2.0394785848965037e-12 0.0000000000000000e+00  -1.7819840288379903e-08 3.7523270258814038e-09 0.0000000000000000e+00  -1.7123028142856748e-08 7.3877709937569498e-09 0.0000000000000000e+00  -1.5924719454803894e-08 1.0749752267673602e-08 0.0000000000000000e+00  -1.4189516223338777e-08 1.3616195530235339e-08 0.0000000000000000e+00  -1.1910612018731358e-08 1.5675604466832584e-08 0.0000000000000000e+00  -9.1566380927763766e-09 1.6527046831962932e-08 0.0000000000000000e+00  -6.1279303671947817e-09 1.5717857130162629e-08 0.0000000000000000e+00  -3.2011010186394058e-09 1.2831023956838780e-08 0.0000000000000000e+00  -9.5725835108517323e-10 7.6176008365047585e-09 0.0000000000000000e+00  6.9100509397381743e-11 1.4637828397683957e-10 0.0000000000000000e+00  6.0890123750674131e-11 -8.1321153983450550e-11 0.0000000000000000e+00  -8.3188394684735065e-10 -6.0074836142683502e-09 0.0000000000000000e+00  -2.8368438614248382e-09 -1.0251630264426928e-08 0.0000000000000000e+00  -5.5582214413237202e-09 -1.2735322582407021e-08 0.0000000000000000e+00  -8.5059219950703643e-09 -1.3585011768885806e-08 0.0000000000000000e+00  -1.1324437789337668e-08 -1.3064365971015596e-08 0.0000000000000000e+00  -1.3779424152016048e-08 -1.1489280477199391e-08 0.0000000000000000e+00  -1.5741542120501206e-08 -9.1642177951113114e-09 0.0000000000000000e+00  -1.7154115066073569e-08 -6.3471056975340376e-09 0.0000000000000000e+00  -1.8001262985168061e-08 -3.2406054709095541e-09 0.0000000000000000e+00  -1.8283322908115821e-08 -1.8964058250121880e-12 0.0000000000000000e+00  -1.8002034901417378e-08 3.2368829582514871e-09 0.0000000000000000e+00  -1.7155653107224372e-08 6.3435772786027249e-09 0.0000000000000000e+00  -1.5743818740130603e-08 9.1609666001459637e-09 0.0000000000000000e+00  -1.3782366035066959e-08 1.1486360504852692e-08 0.0000000000000000e+00  -1.1327895162768621e-08 1.3061876041415165e-08 0.0000000000000000e+00  -8.5096581745506784e-09 1.3583222526074041e-08 0.0000000000000000e+00  -5.5616702796238271e-09 1.2734691385967533e-08 0.0000000000000000e+00  -2.8398625307849626e-09 1.0252743178974050e-08 0.0000000000000000e+00  -8.3108459973288178e-10 6.0104613630043409e-09 0.0000000000000000e+00  6.3224146470073809e-11 1.0696163154770888e-10 0.0000000000000000e+00  5.5811536116915770e-11 -5.7275015465049341e-11 0.0000000000000000e+00  -7.3357769848735648e-10 -4.5869160491946649e-09 0.0000000000000000e+00  -2.5433695510112386e-09 -7.9015971680872504e-09 0.0000000000000000e+00  -5.0666077205390863e-09 -9.9160823075505235e-09 0.0000000000000000e+00  -7.8863317401566377e-09 -1.0688864548159448e-08 0.0000000000000000e+00  -1.0673362654342913e-08 -1.0383659839402771e-08 0.0000000000000000e+00  -1.3181934783441640e-08 -9.2154809675950353e-09 0.0000000000000000e+00  -1.5248024579990110e-08 -7.4067213390880173e-09 0.0000000000000000e+00  -1.6773015417259907e-08 -5.1592153154973024e-09 0.0000000000000000e+00  -1.7704049333519567e-08 -2.6434773135334598e-09 0.0000000000000000e+00  -1.8016893350459449e-08 -1.7295643113310949e-12 0.0000000000000000e+00  -1.7704744672246504e-08 2.6400893085851582e-09 0.0000000000000000e+00  -1.6774379400341368e-08 5.1560331162609785e-09 0.0000000000000000e+00  -1.5249996461904126e-08 7.4038643361304752e-09 0.0000000000000000e+00  -1.3184408622946450e-08 9.2130664901823232e-09 0.0000000000000000e+00  -1.0676171762531760e-08 1.0381839413342107e-08 0.0000000000000000e+00  -7.8892501366311680e-09 1.0687859120442284e-08 0.0000000000000000e+00  -5.0691909654370525e-09 9.9161246341782585e-09 0.0000000000000000e+00  -2.5455431616602035e-09 7.9029209489660343e-09 0.0000000000000000e+00  -7.3282741247239051e-10 4.5894411669729080e-09 0.0000000000000000e+00  5.8012598302296873e-11 7.7217617092313195e-11 0.0000000000000000e+00  5.1841946447342756e-11 -3.8026113767355908e-11 0.0000000000000000e+00  -6.5893647233888874e-10 -3.3126042401935183e-09 0.0000000000000000e+00  -2.3139951543929335e-09 -5.7461534436993751e-09 0.0000000000000000e+00  -4.6663829053600194e-09 -7.2639565118914285e-09 0.0000000000000000e+00  -7.3527721790159622e-09 -7.8886928085393958e-09 0.0000000000000000e+00  -1.0068248691129224e-08 -7.7189412243202736e-09 0.0000000000000000e+00  -1.2566183795367341e-08 -6.8955134970932375e-09 0.0000000000000000e+00  -1.4664164051939576e-08 -5.5726180654297692e-09 0.0000000000000000e+00  -1.6237669986928968e-08 -3.8977812073405837e-09 0.0000000000000000e+00  -1.7209241945698769e-08 -2.0023881386177367e-09 0.0000000000000000e+00  -1.7537570510378921e-08 -1.5715426994951102e-12 0.0000000000000000e+00  -1.7209792022598098e-08 1.9993185230728024e-09 0.0000000000000000e+00  -1.6238739447393383e-08 3.8949288879506329e-09 0.0000000000000000e+00  -1.4665688524170891e-08 5.5701212347276247e-09 0.0000000000000000e+00  -1.2568060924781517e-08 6.8935107185029276e-09 0.0000000000000000e+00  -1.0070332071423976e-08 7.7175809385983869e-09 0.0000000000000000e+00  -7.3548799481388380e-09 7.8881310519953437e-09 0.0000000000000000e+00  -4.6681958228896265e-09 7.2642963935846294e-09 0.0000000000000000e+00  -2.3154870554010247e-09 5.7474894852935334e-09 0.0000000000000000e+00  -6.5830156711175533e-10 3.3148034471208854e-09 0.0000000000000000e+00  5.3671677573627621e-11 5.4075988550991940e-11 0.0000000000000000e+00  4.9049683093289351e-11 -2.1960706487259236e-11 0.0000000000000000e+00  -6.0614634593558860e-10 -2.1474251604138069e-09 0.0000000000000000e+00  -2.1488663296316567e-09 -3.7430768847770193e-09 0.0000000000000000e+00  -4.3708773955678005e-09 -4.7553459017740812e-09 0.0000000000000000e+00  -6.9455263172391919e-09 -5.1903464700682173e-09 0.0000000000000000e+00  -9.5866324508142811e-09 -5.1033516218852831e-09 0.0000000000000000e+00  -1.2050546874612796e-