<?xml version="1.0"?>
<VTKFile type="UnstructuredGrid"  version="0.1"  >
<UnstructuredGrid>
<Piece  NumberOfPoints="651" NumberOfCells="1200">
<Points>
<DataArray  type="Float64"  NumberOfComponents="3"  format="ascii">0 0 0  50000 0 0  100000 0 0  150000 0 0  200000 0 0  250000 0 0  300000 0 0  350000 0 0  400000 0 0  450000 0 0  500000 0 0  550000 0 0  600000 0 0  650000 0 0  700000 0 0  750000 0 0  800000 0 0  850000 0 0  900000 0 0  950000 0 0  1000000 0 0  0 50000 0  50000 50000 0  100000 50000 0  150000 50000 0  200000 50000 0  250000 50000 0  300000 50000 0  350000 50000 0  400000 50000 0  450000 50000 0  500000 50000 0  550000 50000 0  600000 50000 0  650000 50000 0  700000 50000 0  750000 50000 0  800000 50000 0  850000 50000 0  900000 50000 0  950000 50000 0  1000000 50000 0  0 100000 0  50000 100000 0  100000 100000 0  150000 100000 0  200000 100000 0  250000 100000 0  300000 100000 0  350000 100000 0  400000 100000 0  450000 100000 0  500000 100000 0  550000 100000 0  600000 100000 0  650000 100000 0  700000 100000 0  750000 100000 0  800000 100000 0  850000 100000 0  900000 100000 0  950000 100000 0  1000000 100000 0  0 150000 0  50000 150000 0  100000 150000 0  150000 150000 0  200000 150000 0  250000 150000 0  300000 150000 0  350000 150000 0  400000 150000 0  450000 150000 0  500000 150000 0  550000 150000 0  600000 150000 0  650000 150000 0  700000 150000 0  750000 150000 0  800000 150000 0  850000 150000 0  900000 150000 0  950000 150000 0  1000000 150000 0  0 200000 0  50000 200000 0  100000 200000 0  150000 200000 0  200000 200000 0  250000 200000 0  300000 200000 0  350000 200000 0  400000 200000 0  450000 200000 0  500000 200000 0  550000 200000 0  600000 200000 0  650000 200000 0  700000 200000 0  750000 200000 0  800000 200000 0  850000 200000 0  900000 200000 0  950000 200000 0  1000000 200000 0  0 250000 0  50000 250000 0  100000 250000 0  150000 250000 0  200000 250000 0  250000 250000 0  300000 250000 0  350000 250000 0  400000 250000 0  450000 250000 0  500000 250000 0  550000 250000 0  600000 250000 0  650000 250000 0  700000 250000 0  750000 250000 0  800000 250000 0  850000 250000 0  900000 250000 0  950000 250000 0  1000000 250000 0  0 300000 0  50000 300000 0  100000 300000 0  150000 300000 0  200000 300000 0  250000 300000 0  300000 300000 0  350000 300000 0  400000 300000 0  450000 300000 0  500000 300000 0  550000 300000 0  600000 300000 0  650000 300000 0  700000 300000 0  750000 300000 0  800000 300000 0  850000 300000 0  900000 300000 0  950000 300000 0  1000000 300000 0  0 350000 0  50000 350000 0  100000 350000 0  150000 350000 0  200000 350000 0  250000 350000 0  300000 350000 0  350000 350000 0  400000 350000 0  450000 350000 0  500000 350000 0  550000 350000 0  600000 350000 0  650000 350000 0  700000 350000 0  750000 350000 0  800000 350000 0  850000 350000 0  900000 350000 0  950000 350000 0  1000000 350000 0  0 400000 0  50000 400000 0  100000 400000 0  150000 400000 0  200000 400000 0  250000 400000 0  300000 400000 0  350000 400000 0  400000 400000 0  450000 400000 0  500000 400000 0  550000 400000 0  600000 400000 0  650000 400000 0  700000 400000 0  750000 400000 0  800000 400000 0  850000 400000 0  900000 400000 0  950000 400000 0  1000000 400000 0  0 450000 0  50000 450000 0  100000 450000 0  150000 450000 0  200000 450000 0  250000 450000 0  300000 450000 0  350000 450000 0  400000 450000 0  450000 450000 0  500000 450000 0  550000 450000 0  600000 450000 0  650000 450000 0  700000 450000 0  750000 450000 0  800000 450000 0  850000 450000 0  900000 450000 0  950000 450000 0  1000000 450000 0  0 500000 0  50000 500000 0  100000 500000 0  150000 500000 0  200000 500000 0  250000 500000 0  300000 500000 0  350000 500000 0  400000 500000 0  450000 500000 0  500000 500000 0  550000 500000 0  600000 500000 0  650000 500000 0  700000 500000 0  750000 500000 0  800000 500000 0  850000 500000 0  900000 500000 0  950000 500000 0  1000000 500000 0  0 550000 0  50000 550000 0  100000 550000 0  150000 550000 0  200000 550000 0  250000 550000 0  300000 550000 0  350000 550000 0  400000 550000 0  450000 550000 0  500000 550000 0  550000 550000 0  600000 550000 0  650000 550000 0  700000 550000 0  750000 550000 0  800000 550000 0  850000 550000 0  900000 550000 0  950000 550000 0  1000000 550000 0  0 600000 0  50000 600000 0  100000 600000 0  150000 600000 0  200000 600000 0  250000 600000 0  300000 600000 0  350000 600000 0  400000 600000 0  450000 600000 0  500000 600000 0  550000 600000 0  600000 600000 0  650000 600000 0  700000 600000 0  750000 600000 0  800000 600000 0  850000 600000 0  900000 600000 0  950000 600000 0  1000000 600000 0  0 650000 0  50000 650000 0  100000 650000 0  150000 650000 0  200000 650000 0  250000 650000 0  300000 650000 0  350000 650000 0  400000 650000 0  450000 650000 0  500000 650000 0  550000 650000 0  600000 650000 0  650000 650000 0  700000 650000 0  750000 650000 0  800000 650000 0  850000 650000 0  900000 650000 0  950000 650000 0  1000000 650000 0  0 700000 0  50000 700000 0  100000 700000 0  150000 700000 0  200000 700000 0  250000 700000 0  300000 700000 0  350000 700000 0  400000 700000 0  450000 700000 0  500000 700000 0  550000 700000 0  600000 700000 0  650000 700000 0  700000 700000 0  750000 700000 0  800000 700000 0  850000 700000 0  900000 700000 0  950000 700000 0  1000000 700000 0  0 750000 0  50000 750000 0  100000 750000 0  150000 750000 0  200000 750000 0  250000 750000 0  300000 750000 0  350000 750000 0  400000 750000 0  450000 750000 0  500000 750000 0  550000 750000 0  600000 750000 0  650000 750000 0  700000 750000 0  750000 750000 0  800000 750000 0  850000 750000 0  900000 750000 0  950000 750000 0  1000000 750000 0  0 800000 0  50000 800000 0  100000 800000 0  150000 800000 0  200000 800000 0  250000 800000 0  300000 800000 0  350000 800000 0  400000 800000 0  450000 800000 0  500000 800000 0  550000 800000 0  600000 800000 0  650000 800000 0  700000 800000 0  750000 800000 0  800000 800000 0  850000 800000 0  900000 800000 0  950000 800000 0  1000000 800000 0  0 850000 0  50000 850000 0  100000 850000 0  150000 850000 0  200000 850000 0  250000 850000 0  300000 850000 0  350000 850000 0  400000 850000 0  450000 850000 0  500000 850000 0  550000 850000 0  600000 850000 0  650000 850000 0  700000 850000 0  750000 850000 0  800000 850000 0  850000 850000 0  900000 850000 0  950000 850000 0  1000000 850000 0  0 900000 0  50000 900000 0  100000 900000 0  150000 900000 0  200000 900000 0  250000 900000 0  300000 900000 0  350000 900000 0  400000 900000 0  450000 900000 0  500000 900000 0  550000 900000 0  600000 900000 0  650000 900000 0  700000 900000 0  750000 900000 0  800000 900000 0  850000 900000 0  900000 900000 0  950000 900000 0  1000000 900000 0  0 950000 0  50000 950000 0  100000 950000 0  150000 950000 0  200000 950000 0  250000 950000 0  300000 950000 0  350000 950000 0  400000 950000 0  450000 950000 0  500000 950000 0  550000 950000 0  600000 950000 0  650000 950000 0  700000 950000 0  750000 950000 0  800000 950000 0  850000 950000 0  900000 950000 0  950000 950000 0  1000000 950000 0  0 1000000 0  50000 1000000 0  100000 1000000 0  150000 1000000 0  200000 1000000 0  250000 1000000 0  300000 1000000 0  350000 1000000 0  400000 1000000 0  450000 1000000 0  500000 1000000 0  550000 1000000 0  600000 1000000 0  650000 1000000 0  700000 1000000 0  750000 1000000 0  800000 1000000 0  850000 1000000 0  900000 1000000 0  950000 1000000 0  1000000 1000000 0  0 1050000 0  50000 1050000 0  100000 1050000 0  150000 1050000 0  200000 1050000 0  250000 1050000 0  300000 1050000 0  350000 1050000 0  400000 1050000 0  450000 1050000 0  500000 1050000 0  550000 1050000 0  600000 1050000 0  650000 1050000 0  700000 1050000 0  750000 1050000 0  800000 1050000 0  850000 1050000 0  900000 1050000 0  950000 1050000 0  1000000 1050000 0  0 1100000 0  50000 1100000 0  100000 1100000 0  150000 1100000 0  200000 1100000 0  250000 1100000 0  300000 1100000 0  350000 1100000 0  400000 1100000 0  450000 1100000 0  500000 1100000 0  550000 1100000 0  600000 1100000 0  650000 1100000 0  700000 1100000 0  750000 1100000 0  800000 1100000 0  850000 1100000 0  900000 1100000 0  950000 1100000 0  1000000 1100000 0  0 1150000 0  50000 1150000 0  100000 1150000 0  150000 1150000 0  200000 1150000 0  250000 1150000 0  300000 1150000 0  350000 1150000 0  400000 1150000 0  450000 1150000 0  500000 1150000 0  550000 1150000 0  600000 1150000 0  650000 1150000 0  700000 1150000 0  750000 1150000 0  800000 1150000 0  850000 1150000 0  900000 1150000 0  950000 1150000 0  1000000 1150000 0  0 1200000 0  50000 1200000 0  100000 1200000 0  150000 1200000 0  200000 1200000 0  250000 1200000 0  300000 1200000 0  350000 1200000 0  400000 1200000 0  450000 1200000 0  500000 1200000 0  550000 1200000 0  600000 1200000 0  650000 1200000 0  700000 1200000 0  750000 1200000 0  800000 1200000 0  850000 1200000 0  900000 1200000 0  950000 1200000 0  1000000 1200000 0  0 1250000 0  50000 1250000 0  100000 1250000 0  150000 1250000 0  200000 1250000 0  250000 1250000 0  300000 1250000 0  350000 1250000 0  400000 1250000 0  450000 1250000 0  500000 1250000 0  550000 1250000 0  600000 1250000 0  650000 1250000 0  700000 1250000 0  750000 1250000 0  800000 1250000 0  850000 1250000 0  900000 1250000 0  950000 1250000 0  1000000 1250000 0  0 1300000 0  50000 1300000 0  100000 1300000 0  150000 1300000 0  200000 1300000 0  250000 1300000 0  300000 1300000 0  350000 1300000 0  400000 1300000 0  450000 1300000 0  500000 1300000 0  550000 1300000 0  600000 1300000 0  650000 1300000 0  700000 1300000 0  750000 1300000 0  800000 1300000 0  850000 1300000 0  900000 1300000 0  950000 1300000 0  1000000 1300000 0  0 1350000 0  50000 1350000 0  100000 1350000 0  150000 1350000 0  200000 1350000 0  250000 1350000 0  300000 1350000 0  350000 1350000 0  400000 1350000 0  450000 1350000 0  500000 1350000 0  550000 1350000 0  600000 1350000 0  650000 1350000 0  700000 135
[...]
<PointData  Vectors="f_10477"> 
<DataArray  type="Float64"  Name="f_10477"  NumberOfComponents="3" format="ascii">-6.2512682942044314e-09 -3.4954456332347449e-09 0.0000000000000000e+00  7.4873946422519769e-08 -2.2534326504066703e-09 0.0000000000000000e+00  7.7893982080855737e-08 -1.0280108888619946e-10 0.0000000000000000e+00  7.8907585626727735e-08 2.8418572383644940e-10 0.0000000000000000e+00  7.9395110856115105e-08 2.5951647886523996e-10 0.0000000000000000e+00  7.9625473441712920e-08 1.8642143650821684e-10 0.0000000000000000e+00  7.9740902622261083e-08 1.2502391920960218e-10 0.0000000000000000e+00  7.9801257079386807e-08 7.9550892025368825e-11 0.0000000000000000e+00  7.9832367162968468e-08 4.5369026144638250e-11 0.0000000000000000e+00  7.9845844427800147e-08 1.7742875989528780e-11 0.0000000000000000e+00  7.9846351696833679e-08 -7.2225539559887299e-12 0.0000000000000000e+00  7.9834126663375630e-08 -3.2953287725814608e-11 0.0000000000000000e+00  7.9805138058636905e-08 -6.2887646094546705e-11 0.0000000000000000e+00  7.9749058290919918e-08 -1.0091135698366592e-10 0.0000000000000000e+00  7.9643251175907069e-08 -1.5161184142051247e-10 0.0000000000000000e+00  7.9436875749135495e-08 -2.1925009174871462e-10 0.0000000000000000e+00  7.9014320883572961e-08 -2.9700060207564591e-10 0.0000000000000000e+00  7.8159503585767134e-08 -2.7678416176408128e-10 0.0000000000000000e+00  7.6470342077271632e-08 7.1252453166323372e-10 0.0000000000000000e+00  7.2413319878262953e-08 5.0296055131148959e-09 0.0000000000000000e+00  -8.4164493945186000e-09 5.1436587079557958e-09 0.0000000000000000e+00  -4.3702488976002253e-09 -3.9589994999160659e-09 0.0000000000000000e+00  -6.6433008925807897e-10 -2.3242980563150476e-08 0.0000000000000000e+00  1.7187821808374023e-08 -1.3997122186413180e-08 0.0000000000000000e+00  3.1428680452130120e-08 -7.7429579826306416e-09 0.0000000000000000e+00  4.0502248886085223e-08 -4.4675977539260075e-09 0.0000000000000000e+00  4.6250893356214337e-08 -2.7065672733586975e-09 0.0000000000000000e+00  4.9933738422522221e-08 -1.6850594425842857e-09 0.0000000000000000e+00  5.2284253088178854e-08 -1.0433184227792190e-09 0.0000000000000000e+00  5.3728593254233191e-08 -6.0700542368573527e-10 0.0000000000000000e+00  5.4510925466847003e-08 -2.8067294547900552e-10 0.0000000000000000e+00  5.4758019134254242e-08 -2.9933150578668224e-12 0.0000000000000000e+00  5.4509223202919319e-08 2.7424130652523089e-10 0.0000000000000000e+00  5.3725258589047830e-08 5.9911386135064092e-10 0.0000000000000000e+00  5.2279838059946709e-08 1.0324237638624099e-09 0.0000000000000000e+00  4.9930874983476030e-08 1.6679826009472627e-09 0.0000000000000000e+00  4.6259725455057883e-08 2.6756983977051864e-09 0.0000000000000000e+00  4.0557394881124743e-08 4.4107138031335450e-09 0.0000000000000000e+00  3.1652170602804079e-08 7.7099955949483612e-09 0.0000000000000000e+00  1.7990251493006208e-08 1.4428588876982653e-08 0.0000000000000000e+00  3.6154749381560611e-10 2.4975559436207082e-08 0.0000000000000000e+00  -6.9715230805210973e-09 5.5091078356665824e-09 0.0000000000000000e+00  -1.3165535547858111e-09 -2.3073791488721294e-09 0.0000000000000000e+00  -6.5738905393983790e-09 -2.9480997806530578e-08 0.0000000000000000e+00  -2.9663048179449338e-09 -2.5715803643649593e-08 0.0000000000000000e+00  5.6367955763693736e-09 -1.8072645680491075e-08 0.0000000000000000e+00  1.4164021959741799e-08 -1.2079970959032170e-08 0.0000000000000000e+00  2.0884022960392476e-08 -8.0011961283618143e-09 0.0000000000000000e+00  2.5751437480235633e-08 -5.2592344851022576e-09 0.0000000000000000e+00  2.9100896720431449e-08 -3.3678483701967512e-09 0.0000000000000000e+00  3.1258688912191409e-08 -1.9987507009956419e-09 0.0000000000000000e+00  3.2461385277307677e-08 -9.3013679243053574e-10 0.0000000000000000e+00  3.2847527838666514e-08 1.0994569532077756e-12 0.0000000000000000e+00  3.2462668928790577e-08 9.3261897287026543e-10 0.0000000000000000e+00  3.1262273234110593e-08 2.0021899046286091e-09 0.0000000000000000e+00  2.9109585437802522e-08 3.3733317185431809e-09 0.0000000000000000e+00  2.5772041362266030e-08 5.2691212186792276e-09 0.0000000000000000e+00  2.0933167976188749e-08 8.0226399028133847e-09 0.0000000000000000e+00  1.4282053165503303e-08 1.2137509551236793e-08 0.0000000000000000e+00  5.8860033709474573e-09 1.8219970175488647e-08 0.0000000000000000e+00  -2.6281268664117716e-09 2.5909956891576369e-08 0.0000000000000000e+00  -6.1901772203636578e-09 2.8559862331533210e-08 0.0000000000000000e+00  -2.2640007864359261e-09 2.8940988542317805e-09 0.0000000000000000e+00  -1.9468874816892453e-10 -1.2688667989823416e-09 0.0000000000000000e+00  -4.6764922642488541e-09 -2.5038130955598352e-08 0.0000000000000000e+00  -7.0045531363133558e-09 -2.8832865436226267e-08 0.0000000000000000e+00  -4.9922150441012982e-09 -2.4345652027802923e-08 0.0000000000000000e+00  -5.9305352108709079e-10 -1.8409352864162299e-08 0.0000000000000000e+00  4.1284851416179346e-09 -1.3224343502488834e-08 0.0000000000000000e+00  8.1845068004810602e-09 -9.1724527809712656e-09 0.0000000000000000e+00  1.1278792744548543e-08 -6.0869257863156084e-09 0.0000000000000000e+00  1.3404800294753686e-08 -3.6962699110880621e-09 0.0000000000000000e+00  1.4636332232840175e-08 -1.7429581331661489e-09 0.0000000000000000e+00  1.5039595505023643e-08 7.6090327789874267e-13 0.0000000000000000e+00  1.4639835394007152e-08 1.7447325239820405e-09 0.0000000000000000e+00  1.3412977709330804e-08 3.6989486352735008e-09 0.0000000000000000e+00  1.1294425308887179e-08 6.0917499888924415e-09 0.0000000000000000e+00  8.2128897546578566e-09 9.1823230737447873e-09 0.0000000000000000e+00  4.1777123985858111e-09 1.3246252895397742e-08 0.0000000000000000e+00  -5.1947260520611861e-10 1.8456002623330517e-08 0.0000000000000000e+00  -4.9133048245645281e-09 2.4408990257655627e-08 0.0000000000000000e+00  -6.9382248711812545e-09 2.8733305430904435e-08 0.0000000000000000e+00  -4.4626371854925658e-09 2.4577627451860933e-08 0.0000000000000000e+00  -3.3313028818701734e-10 1.7802716819420763e-09 0.0000000000000000e+00  6.7977887812317168e-11 -7.7821000532496717e-10 0.0000000000000000e+00  -3.1971784630150875e-09 -2.0172940085327626e-08 0.0000000000000000e+00  -6.9857873334650092e-09 -2.7019864892978105e-08 0.0000000000000000e+00  -8.5419572453758884e-09 -2.5916813288903397e-08 0.0000000000000000e+00  -7.7343240438629070e-09 -2.1582537739914633e-08 0.0000000000000000e+00  -5.6683339390237008e-09 -1.6639329019406028e-08 0.0000000000000000e+00  -3.3087991701454711e-09 -1.2141379209022821e-08 0.0000000000000000e+00  -1.2119964229659265e-09 -8.3479978111549580e-09 0.0000000000000000e+00  3.6560137265799979e-10 -5.1899174293998467e-09 0.0000000000000000e+00  1.3290510079518944e-09 -2.4807526354711741e-09 0.0000000000000000e+00  1.6526619050102811e-09 3.7532703919393461e-13 0.0000000000000000e+00  1.3327783823069989e-09 2.4817409880364372e-09 0.0000000000000000e+00  3.7367985300017648e-10 5.1917587519403030e-09 0.0000000000000000e+00  -1.1983790961285791e-09 8.3517763960431360e-09 0.0000000000000000e+00  -3.2883251461270408e-09 1.2148943961320272e-08 0.0000000000000000e+00  -5.6409101488068070e-09 1.6652311592478476e-08 0.0000000000000000e+00  -7.7029566047788513e-09 2.1595323432044937e-08 0.0000000000000000e+00  -8.5155848221453786e-09 2.5898799295482270e-08 0.0000000000000000e+00  -6.9615506014060147e-09 2.6902081176542241e-08 0.0000000000000000e+00  -3.1154016789662689e-09 2.0015220401866237e-08 0.0000000000000000e+00  2.0361441675946961e-11 1.1291002810333394e-09 0.0000000000000000e+00  1.1128726258208150e-10 -5.0467601861631575e-10 0.0000000000000000e+00  -2.3355236673044341e-09 -1.6131537965195565e-08 0.0000000000000000e+00  -6.1370572216630925e-09 -2.3526731447093229e-08 0.0000000000000000e+00  -9.1804193460247774e-09 -2.4557354002108033e-08 0.0000000000000000e+00  -1.0600987411147251e-08 -2.1986210596434451e-08 0.0000000000000000e+00  -1.0685519005393756e-08 -1.7963708411037280e-08 0.0000000000000000e+00  -1.0021175082084248e-08 -1.3703671453635322e-08 0.0000000000000000e+00  -9.1120994908953746e-09 -9.7345913141123741e-09 0.0000000000000000e+00  -8.2887464847101231e-09 -6.1886492841730942e-09 0.0000000000000000e+00  -7.7361588935019900e-09 -2.9972630568057850e-09 0.0000000000000000e+00  -7.5425382822591532e-09 -2.8035280127560617e-13 0.0000000000000000e+00  -7.7333544327867008e-09 2.9968599431697417e-09 0.0000000000000000e+00  -8.2830647848447984e-09 6.1887778614535087e-09 0.0000000000000000e+00  -9.1035715929870279e-09 9.7357337892164002e-09 0.0000000000000000e+00  -1.0010318839267527e-08 1.3706084103636639e-08 0.0000000000000000e+00  -1.0673858914320511e-08 1.7965797254824560e-08 0.0000000000000000e+00  -1.0590931776048387e-08 2.1980185050519535e-08 0.0000000000000000e+00  -9.1730529455297125e-09 2.4525119821445294e-08 0.0000000000000000e+00  -6.1317732222860899e-09 2.3462419571785855e-08 0.0000000000000000e+00  -2.3102905954683548e-09 1.6085017780415887e-08 0.0000000000000000e+00  9.1951397157482744e-11 7.1401896703542133e-10 0.0000000000000000e+00  1.0816401000789155e-10 -3.4111598643521607e-10 0.0000000000000000e+00  -1.7958492471213423e-09 -1.2846917981267540e-08 0.0000000000000000e+00  -5.2164691552594013e-09 -1.9747947923218534e-08 0.0000000000000000e+00  -8.6817870592730540e-09 -2.1811428515405993e-08 0.0000000000000000e+00  -1.1225654593671724e-08 -2.0591712171668440e-08 0.0000000000000000e+00  -1.2695589848099565e-08 -1.7610616856316330e-08 0.0000000000000000e+00  -1.3326144347460342e-08 -1.3941536610575702e-08 0.0000000000000000e+00  -1.3448474214884369e-08 -1.0188698825948759e-08 0.0000000000000000e+00  -1.3345651463739993e-08 -6.6082737658759128e-09 0.0000000000000000e+00  -1.3211803838161921e-08 -3.2390080853167204e-09 0.0000000000000000e+00  -1.3155210943536619e-08 -8.2862694202094657e-13 0.0000000000000000e+00  -1.3210239918058502e-08 3.2374290530765409e-09 0.0000000000000000e+00  -1.3342703691226230e-08 6.6069151077604185e-09 0.0000000000000000e+00  -1.3444572645883181e-08 1.0187567938056235e-08 0.0000000000000000e+00  -1.3322056874323978e-08 1.3940057264017067e-08 0.0000000000000000e+00  -1.2692416765655229e-08 1.7606614522876981e-08 0.0000000000000000e+00  -1.1224610211721963e-08 2.0580353037290288e-08 0.0000000000000000e+00  -8.6827446389662241e-09 2.1787488459601555e-08 0.0000000000000000e+00  -5.2201481582536187e-09 1.9718724952111988e-08 0.0000000000000000e+00  -1.7877248166294093e-09 1.2835674225224175e-08 0.0000000000000000e+00  1.0322723626090587e-10 4.7039078120289000e-10 0.0000000000000000e+00  9.5754332031166639e-11 -2.3656582251362361e-10 0.0000000000000000e+00  -1.4193190910505393e-09 -1.0166470785147986e-08 0.0000000000000000e+00  -4.3772883251690639e-09 -1.6187452213964331e-08 0.0000000000000000e+00  -7.7654894423469962e-09 -1.8591074788864794e-08 0.0000000000000000e+00  -1.0727747272233619e-08 -1.8245900254587787e-08 0.0000000000000000e+00  -1.2934703164431319e-08 -1.6164666366568552e-08 0.0000000000000000e+00  -1.4389789196160508e-08 -1.3185900763025150e-08 0.0000000000000000e+00  -1.5252579955065070e-08 -9.8681377440180444e-09 0.0000000000000000e+00  -1.5712250471572751e-08 -6.5112061271151971e-09 0.0000000000000000e+00  -1.5923596316168578e-08 -3.2248500400611864e-09 0.0000000000000000e+00  -1.5983065532915010e-08 -1.2136041371772372e-12 0.0000000000000000e+00  -1.5923048575056450e-08 3.2224402967434375e-09 0.0000000000000000e+00  -1.5711356491320689e-08 6.5088019762856454e-09 0.0000000000000000e+00  -1.5251734974599442e-08 9.8655330191838045e-09 0.0000000000000000e+00  -1.4389541134917674e-08 1.3182411691360060e-08 0.0000000000000000e+00  -1.2935662927922497e-08 1.6158828785340296e-08 0.0000000000000000e+00  -1.0730480362641680e-08 1.8235829901240174e-08 0.0000000000000000e+00  -7.7697127053408873e-09 1.8576827119462396e-08 0.0000000000000000e+00  -4.3832274342778757e-09 1.6175293424370748e-08 0.0000000000000000e+00  -1.4154461988066521e-09 1.0166043730189846e-08 0.0000000000000000e+00  9.7592983196280517e-11 3.2103316117838965e-10 0.0000000000000000e+00  8.2254752738338290e-11 -1.6613406423618490e-10 0.0000000000000000e+00  -1.1363780050020312e-09 -7.9731873863969171e-09 0.0000000000000000e+00  -3.6453129267703541e-09 -1.3016177770615910e-08 0.0000000000000000e+00  -6.7414992993178863e-09 -1.5372549556307655e-08 0.0000000000000000e+00  -9.7221626557876925e-09 -1.5525490148291741e-08 0.0000000000000000e+00  -1.2216865029919451e-08 -1.4131274333979422e-08 0.0000000000000000e+00  -1.4104191322354288e-08 -1.1803943080618517e-08 0.0000000000000000e+00  -1.5416544602160240e-08 -9.0063632268243999e-09 0.0000000000000000e+00  -1.6249968236011003e-08 -6.0279079534432054e-09 0.0000000000000000e+00  -1.6703634288891536e-08 -3.0117504524188575e-09 0.0000000000000000e+00  -1.6846737024503069e-08 -1.4361517454104248e-12 0.0000000000000000e+00  -1.6703724953041132e-08 3.0088630413861659e-09 0.0000000000000000e+00  -1.6250287956758835e-08 6.0249303458969868e-09 0.0000000000000000e+00  -1.5417342812595736e-08 9.0030737007984774e-09 0.0000000000000000e+00  -1.4105777063932493e-08 1.1799874750522870e-08 0.0000000000000000e+00  -1.2219537287345732e-08 1.4125771979258135e-08 0.0000000000000000e+00  -9.7261380571698170e-09 1.5518270909729665e-08 0.0000000000000000e+00  -6.7463478496190946e-09 1.5364847069409863e-08 0.0000000000000000e+00  -3.6507887786910987e-09 1.3011768428352123e-08 0.0000000000000000e+00  -1.1335084257119544e-09 7.9758642874162481e-09 0.0000000000000000e+00  8.6886753222781546e-11 2.2374443336343197e-10 0.0000000000000000e+00  6.9839936257195529e-11 -1.1699705892556750e-10 0.0000000000000000e+00  -9.1668941478990858e-10 -6.1767168645475845e-09 0.0000000000000000e+00  -3.0243235166044700e-09 -1.0270444467314937e-08 0.0000000000000000e+00  -5.7578034929218540e-09 -1.2380787956610461e-08 0.0000000000000000e+00  -8.5556747992633737e-09 -1.2773462900551925e-08 0.0000000000000000e+00  -1.1065577582609139e-08 -1.1868269467136084e-08 0.0000000000000000e+00  -1.3110498289329175e-08 -1.0098825731989864e-08 0.0000000000000000e+00  -1.4642313392040078e-08 -7.8248564620688583e-09 0.0000000000000000e+00  -1.5684055593916309e-08 -5.2978133520698910e-09 0.0000000000000000e+00  -1.6282617126191420e-08 -2.6659791828013299e-09 0.0000000000000000e+00  -1.6477316349139031e-08 -1.5297194864500273e-12 0.0000000000000000e+00  -1.6283020375555384e-08 2.6628977197188717e-09 0.0000000000000000e+00  -1.5684935652573873e-08 5.2946386022296631e-09 0.0000000000000000e+00  -1.4643796029986821e-08 7.8214449370079685e-09 0.0000000000000000e+00  -1.3112726447214275e-08 1.0094966854947952e-08 0.0000000000000000e+00  -1.1068662183079504e-08 1.1863827921991440e-08 0.0000000000000000e+00  -8.5596313703186571e-09 1.2768745117714678e-08 0.0000000000000000e+00  -5.7621304878623438e-09 1.2376917164485698e-08 0.0000000000000000e+00  -3.0286521617273156e-09 1.0269501859943476e-08 0.0000000000000000e+00  -9.1419916488783907e-10 6.1800890683786438e-09 0.0000000000000000e+00  7.5239307040621519e-11 1.5751745718719194e-10 0.0000000000000000e+00  5.9240329844501590e-11 -8.1829374189964229e-11 0.0000000000000000e+00  -7.4588412481748889e-10 -4.7011900277215417e-09 0.0000000000000000e+00  -2.5138997428158513e-09 -7.9251028722382333e-09 0.0000000000000000e+00  -4.8894498970907870e-09 -9.6996034727917733e-09 0.0000000000000000e+00  -7.4259578793425187e-09 -1.0167617231966660e-08 0.0000000000000000e+00  -9.8092895922169352e-09 -9.5952957674243231e-09 0.0000000000000000e+00  -1.1845628356422724e-08 -8.2815859627626711e-09 0.0000000000000000e+00  -1.3441801734617582e-08 -6.4941714895328906e-09 0.0000000000000000e+00  -1.4570901992643346e-08 -4.4369551266990758e-09 0.0000000000000000e+00  -1.5238990813854480e-08 -2.2455204030008876e-09 0.0000000000000000e+00  -1.5459775416930116e-08 -1.5341078828584394e-12 0.0000000000000000e+00  -1.5239488737807475e-08 2.2424400056721139e-09 0.0000000000000000e+00  -1.4571928063304713e-08 4.4338286178482946e-09 0.0000000000000000e+00  -1.3443403944578852e-08 6.4909495495690352e-09 0.0000000000000000e+00  -1.1847851003957970e-08 8.2782429020161016e-09 0.0000000000000000e+00  -9.8121377999520960e-09 9.5919432646145643e-09 0.0000000000000000e+00  -7.4293475244026567e-09 1.0164677574829457e-08 0.0000000000000000e+00  -4.8929081069471434e-09 9.6978645210259535e-09 0.0000000000000000e+00  -2.5171077891123191e-09 7.9256999375600792e-09 0.0000000000000000e+00  -7.4374604212280299e-10 4.7045201220331160e-09 0.0000000000000000e+00  6.4373262173271037e-11 1.1105069532041623e-10 0.0000000000000000e+00  5.0716437408127029e-11 -5.6008459635736411e-11 0.0000000000000000e+00  -6.1582455421768336e-10 -3.4793104489439499e-09 0.0000000000000000e+00  -2.1107233935612470e-09 -5.9255285478392188e-09 0.0000000000000000e+00  -4.1723867357999915e-09 -7.3337852416911096e-09 0.0000000000000000e+00  -6.4417863895344898e-09 -7.7783331835568924e-09 0.0000000000000000e+00  -8.6449504107221977e-09 -7.4259480948617002e-09 0.0000000000000000e+00  -1.0590154368346437e-08 -6.4780126691463866e-09 0.0000000000000000e+00  -1.2162246885825270e-08 -5.1262427125921112e-09 0.0000000000000000e+00  -1.3303481134636115e-08 -3.5267549082041299e-09 0.0000000000000000e+00  -1.3991606611880538e-08 -1.7927472805517236e-09 0.0000000000000000e+00  -1.4221276754517576e-08 -1.4865728784922986e-12 0.0000000000000000e+00  -1.3992074909133101e-08 1.7897788137296586e-09 0.0000000000000000e+00  -1.3304424630746690e-08 3.5238022103606233e-09 0.0000000000000000e+00  -1.2163672584556725e-08 5.1233314431889431e-09 0.0000000000000000e+00  -1.0592056206356558e-08 6.4752214763080256e-09 0.0000000000000000e+00  -8.6472847843578784e-09 7.4234741355498457e-09 0.0000000000000000e+00  -6.4444390443853650e-09 7.7765531619658870e-09 0.0000000000000000e+00  -4.1749699480616674e-09 7.3332083435570559e-09 0.0000000000000000e+00  -2.1130071150180892e-09 5.9267918201267383e-09 0.0000000000000000e+00  -6.1409584032323815e-10 3.4823915234838458e-09 0.0000000000000000e+00  5.5066912458129166e-11 7.7646530384583252e-11 0.0000000000000000e+00  4.4318146594419256e-11 -3.6385934055105721e-11 0.0000000000000000e+00  -5.2080502948678889e-10 -2.4503688623941415e-09 0.0000000000000000e+00  -1.8087670384964590e-09 -4.2041383734141068e-09 0.0000000000000000e+00  -3.6195243513586451e-09 -5.2451227159041638e-09 0.0000000000000000e+00  -5.6572120263838789e-09 -5.6099942219246861e-09 0.0000000000000000e+00  -7.6820594352801412e-09 -5.4006255935996615e-09 0.0000000000000000e+00  -9.5115644861377412e-09 -4.7477751788231258e-09 0.0000000000000000e+00  -1.1021852972851246e-08 -3.7820385361472959e-09 0.0000000000000000e+00  -1.2137822044189598e-08 -2.6152785733113799e-09 0.0000000000000000e+00  -1.2819347607657132e-08 -1.3338100371340600e-09 0.0000000000000000e+00  -1.3048313740125433e-08 -1.4182626788120556e-12 0.0000000000000000e+00  -1.2819724257989809e-08 1.3309949819331213e-09 0.0000000000000000e+00  -1.2138572259548959e-08 2.6125347599585417e-09 0.0000000000000000e+00  -1.1022966779291123e-08 3.7794406381221572e-09 0.0000000000000000e+00  -9.5130169963861250e-09 4.7454503625867740e-09 0.0000000000000000e+00  -7.6837954125489822e-09 5.3987832174788719e-09 0.0000000000000000e+00  -5.6591270863859856e-09 5.6089347883535508e-09 0.0000000000000000e+00  -3.6213329289055896e-09 5.2451705703541585e-09 0.0000000000000000e+00  -1.8103177006451952e-09 4.2056683296803073e-09 0.0000000000000000e+00  -5.1951753205902940e-10 2.4531730086498308e-09 0.0000000000000000e+00  4.7651890270954122e-11 5.2988958743711680e-11 0.0000000000000000e+00  3.9994845467464897e-11 -2.0690889780075983e-11 0.0000000000000000e+00  -4.5634568729187924e-10 -1.5596202460513408e-09 0.0000000000000000e+00  -1.6005697417217895e-09 -2.6894744418706737e-09 0.0000000000000000e+00  -3.2309611359398467e-09 -3.3736215562030331e-09 0.0000000000000000e+00  -5.0939265097671813e-09 -3.6287756156812800e-09 0.0000000000000000e+00  -6.9748719700375116e-09 -3.5130311696720232e-09 0.0000000000000000e+00  -8.701101559806874