<?xml version="1.0"?>
<VTKFile type="UnstructuredGrid"  version="0.1"  >
<UnstructuredGrid>
<Piece  NumberOfPoints="651" NumberOfCells="1200">
<Points>
<DataArray  type="Float64"  NumberOfComponents="3"  format="ascii">0 0 0  50000 0 0  100000 0 0  150000 0 0  200000 0 0  250000 0 0  300000 0 0  350000 0 0  400000 0 0  450000 0 0  500000 0 0  550000 0 0  600000 0 0  650000 0 0  700000 0 0  750000 0 0  800000 0 0  850000 0 0  900000 0 0  950000 0 0  1000000 0 0  0 50000 0  50000 50000 0  100000 50000 0  150000 50000 0  200000 50000 0  250000 50000 0  300000 50000 0  350000 50000 0  400000 50000 0  450000 50000 0  500000 50000 0  550000 50000 0  600000 50000 0  650000 50000 0  700000 50000 0  750000 50000 0  800000 50000 0  850000 50000 0  900000 50000 0  950000 50000 0  1000000 50000 0  0 100000 0  50000 100000 0  100000 100000 0  150000 100000 0  200000 100000 0  250000 100000 0  300000 100000 0  350000 100000 0  400000 100000 0  450000 100000 0  500000 100000 0  550000 100000 0  600000 100000 0  650000 100000 0  700000 100000 0  750000 100000 0  800000 100000 0  850000 100000 0  900000 100000 0  950000 100000 0  1000000 100000 0  0 150000 0  50000 150000 0  100000 150000 0  150000 150000 0  200000 150000 0  250000 150000 0  300000 150000 0  350000 150000 0  400000 150000 0  450000 150000 0  500000 150000 0  550000 150000 0  600000 150000 0  650000 150000 0  700000 150000 0  750000 150000 0  800000 150000 0  850000 150000 0  900000 150000 0  950000 150000 0  1000000 150000 0  0 200000 0  50000 200000 0  100000 200000 0  150000 200000 0  200000 200000 0  250000 200000 0  300000 200000 0  350000 200000 0  400000 200000 0  450000 200000 0  500000 200000 0  550000 200000 0  600000 200000 0  650000 200000 0  700000 200000 0  750000 200000 0  800000 200000 0  850000 200000 0  900000 200000 0  950000 200000 0  1000000 200000 0  0 250000 0  50000 250000 0  100000 250000 0  150000 250000 0  200000 250000 0  250000 250000 0  300000 250000 0  350000 250000 0  400000 250000 0  450000 250000 0  500000 250000 0  550000 250000 0  600000 250000 0  650000 250000 0  700000 250000 0  750000 250000 0  800000 250000 0  850000 250000 0  900000 250000 0  950000 250000 0  1000000 250000 0  0 300000 0  50000 300000 0  100000 300000 0  150000 300000 0  200000 300000 0  250000 300000 0  300000 300000 0  350000 300000 0  400000 300000 0  450000 300000 0  500000 300000 0  550000 300000 0  600000 300000 0  650000 300000 0  700000 300000 0  750000 300000 0  800000 300000 0  850000 300000 0  900000 300000 0  950000 300000 0  1000000 300000 0  0 350000 0  50000 350000 0  100000 350000 0  150000 350000 0  200000 350000 0  250000 350000 0  300000 350000 0  350000 350000 0  400000 350000 0  450000 350000 0  500000 350000 0  550000 350000 0  600000 350000 0  650000 350000 0  700000 350000 0  750000 350000 0  800000 350000 0  850000 350000 0  900000 350000 0  950000 350000 0  1000000 350000 0  0 400000 0  50000 400000 0  100000 400000 0  150000 400000 0  200000 400000 0  250000 400000 0  300000 400000 0  350000 400000 0  400000 400000 0  450000 400000 0  500000 400000 0  550000 400000 0  600000 400000 0  650000 400000 0  700000 400000 0  750000 400000 0  800000 400000 0  850000 400000 0  900000 400000 0  950000 400000 0  1000000 400000 0  0 450000 0  50000 450000 0  100000 450000 0  150000 450000 0  200000 450000 0  250000 450000 0  300000 450000 0  350000 450000 0  400000 450000 0  450000 450000 0  500000 450000 0  550000 450000 0  600000 450000 0  650000 450000 0  700000 450000 0  750000 450000 0  800000 450000 0  850000 450000 0  900000 450000 0  950000 450000 0  1000000 450000 0  0 500000 0  50000 500000 0  100000 500000 0  150000 500000 0  200000 500000 0  250000 500000 0  300000 500000 0  350000 500000 0  400000 500000 0  450000 500000 0  500000 500000 0  550000 500000 0  600000 500000 0  650000 500000 0  700000 500000 0  750000 500000 0  800000 500000 0  850000 500000 0  900000 500000 0  950000 500000 0  1000000 500000 0  0 550000 0  50000 550000 0  100000 550000 0  150000 550000 0  200000 550000 0  250000 550000 0  300000 550000 0  350000 550000 0  400000 550000 0  450000 550000 0  500000 550000 0  550000 550000 0  600000 550000 0  650000 550000 0  700000 550000 0  750000 550000 0  800000 550000 0  850000 550000 0  900000 550000 0  950000 550000 0  1000000 550000 0  0 600000 0  50000 600000 0  100000 600000 0  150000 600000 0  200000 600000 0  250000 600000 0  300000 600000 0  350000 600000 0  400000 600000 0  450000 600000 0  500000 600000 0  550000 600000 0  600000 600000 0  650000 600000 0  700000 600000 0  750000 600000 0  800000 600000 0  850000 600000 0  900000 600000 0  950000 600000 0  1000000 600000 0  0 650000 0  50000 650000 0  100000 650000 0  150000 650000 0  200000 650000 0  250000 650000 0  300000 650000 0  350000 650000 0  400000 650000 0  450000 650000 0  500000 650000 0  550000 650000 0  600000 650000 0  650000 650000 0  700000 650000 0  750000 650000 0  800000 650000 0  850000 650000 0  900000 650000 0  950000 650000 0  1000000 650000 0  0 700000 0  50000 700000 0  100000 700000 0  150000 700000 0  200000 700000 0  250000 700000 0  300000 700000 0  350000 700000 0  400000 700000 0  450000 700000 0  500000 700000 0  550000 700000 0  600000 700000 0  650000 700000 0  700000 700000 0  750000 700000 0  800000 700000 0  850000 700000 0  900000 700000 0  950000 700000 0  1000000 700000 0  0 750000 0  50000 750000 0  100000 750000 0  150000 750000 0  200000 750000 0  250000 750000 0  300000 750000 0  350000 750000 0  400000 750000 0  450000 750000 0  500000 750000 0  550000 750000 0  600000 750000 0  650000 750000 0  700000 750000 0  750000 750000 0  800000 750000 0  850000 750000 0  900000 750000 0  950000 750000 0  1000000 750000 0  0 800000 0  50000 800000 0  100000 800000 0  150000 800000 0  200000 800000 0  250000 800000 0  300000 800000 0  350000 800000 0  400000 800000 0  450000 800000 0  500000 800000 0  550000 800000 0  600000 800000 0  650000 800000 0  700000 800000 0  750000 800000 0  800000 800000 0  850000 800000 0  900000 800000 0  950000 800000 0  1000000 800000 0  0 850000 0  50000 850000 0  100000 850000 0  150000 850000 0  200000 850000 0  250000 850000 0  300000 850000 0  350000 850000 0  400000 850000 0  450000 850000 0  500000 850000 0  550000 850000 0  600000 850000 0  650000 850000 0  700000 850000 0  750000 850000 0  800000 850000 0  850000 850000 0  900000 850000 0  950000 850000 0  1000000 850000 0  0 900000 0  50000 900000 0  100000 900000 0  150000 900000 0  200000 900000 0  250000 900000 0  300000 900000 0  350000 900000 0  400000 900000 0  450000 900000 0  500000 900000 0  550000 900000 0  600000 900000 0  650000 900000 0  700000 900000 0  750000 900000 0  800000 900000 0  850000 900000 0  900000 900000 0  950000 900000 0  1000000 900000 0  0 950000 0  50000 950000 0  100000 950000 0  150000 950000 0  200000 950000 0  250000 950000 0  300000 950000 0  350000 950000 0  400000 950000 0  450000 950000 0  500000 950000 0  550000 950000 0  600000 950000 0  650000 950000 0  700000 950000 0  750000 950000 0  800000 950000 0  850000 950000 0  900000 950000 0  950000 950000 0  1000000 950000 0  0 1000000 0  50000 1000000 0  100000 1000000 0  150000 1000000 0  200000 1000000 0  250000 1000000 0  300000 1000000 0  350000 1000000 0  400000 1000000 0  450000 1000000 0  500000 1000000 0  550000 1000000 0  600000 1000000 0  650000 1000000 0  700000 1000000 0  750000 1000000 0  800000 1000000 0  850000 1000000 0  900000 1000000 0  950000 1000000 0  1000000 1000000 0  0 1050000 0  50000 1050000 0  100000 1050000 0  150000 1050000 0  200000 1050000 0  250000 1050000 0  300000 1050000 0  350000 1050000 0  400000 1050000 0  450000 1050000 0  500000 1050000 0  550000 1050000 0  600000 1050000 0  650000 1050000 0  700000 1050000 0  750000 1050000 0  800000 1050000 0  850000 1050000 0  900000 1050000 0  950000 1050000 0  1000000 1050000 0  0 1100000 0  50000 1100000 0  100000 1100000 0  150000 1100000 0  200000 1100000 0  250000 1100000 0  300000 1100000 0  350000 1100000 0  400000 1100000 0  450000 1100000 0  500000 1100000 0  550000 1100000 0  600000 1100000 0  650000 1100000 0  700000 1100000 0  750000 1100000 0  800000 1100000 0  850000 1100000 0  900000 1100000 0  950000 1100000 0  1000000 1100000 0  0 1150000 0  50000 1150000 0  100000 1150000 0  150000 1150000 0  200000 1150000 0  250000 1150000 0  300000 1150000 0  350000 1150000 0  400000 1150000 0  450000 1150000 0  500000 1150000 0  550000 1150000 0  600000 1150000 0  650000 1150000 0  700000 1150000 0  750000 1150000 0  800000 1150000 0  850000 1150000 0  900000 1150000 0  950000 1150000 0  1000000 1150000 0  0 1200000 0  50000 1200000 0  100000 1200000 0  150000 1200000 0  200000 1200000 0  250000 1200000 0  300000 1200000 0  350000 1200000 0  400000 1200000 0  450000 1200000 0  500000 1200000 0  550000 1200000 0  600000 1200000 0  650000 1200000 0  700000 1200000 0  750000 1200000 0  800000 1200000 0  850000 1200000 0  900000 1200000 0  950000 1200000 0  1000000 1200000 0  0 1250000 0  50000 1250000 0  100000 1250000 0  150000 1250000 0  200000 1250000 0  250000 1250000 0  300000 1250000 0  350000 1250000 0  400000 1250000 0  450000 1250000 0  500000 1250000 0  550000 1250000 0  600000 1250000 0  650000 1250000 0  700000 1250000 0  750000 1250000 0  800000 1250000 0  850000 1250000 0  900000 1250000 0  950000 1250000 0  1000000 1250000 0  0 1300000 0  50000 1300000 0  100000 1300000 0  150000 1300000 0  200000 1300000 0  250000 1300000 0  300000 1300000 0  350000 1300000 0  400000 1300000 0  450000 1300000 0  500000 1300000 0  550000 1300000 0  600000 1300000 0  650000 1300000 0  700000 1300000 0  750000 1300000 0  800000 1300000 0  850000 1300000 0  900000 1300000 0  950000 1300000 0  1000000 1300000 0  0 1350000 0  50000 1350000 0  100000 1350000 0  150000 1350000 0  200000 1350000 0  250000 1350000 0  300000 1350000 0  350000 1350000 0  400000 1350000 0  450000 1350000 0  500000 1350000 0  550000 1350000 0  600000 1350000 0  650000 1350000 0  700000 135
[...]
<PointData  Vectors="f_10477"> 
<DataArray  type="Float64"  Name="f_10477"  NumberOfComponents="3" format="ascii">-6.3310640775712958e-09 -3.5506957375131231e-09 0.0000000000000000e+00  7.4797349577371988e-08 -2.2887261346124358e-09 0.0000000000000000e+00  7.7846297193132141e-08 -1.1923181667076143e-10 0.0000000000000000e+00  7.8883537883539321e-08 2.7405011158928173e-10 0.0000000000000000e+00  7.9378171507926426e-08 2.5053480417421294e-10 0.0000000000000000e+00  7.9608977261459342e-08 1.7753086269284677e-10 0.0000000000000000e+00  7.9722596293528067e-08 1.1687593834430848e-10 0.0000000000000000e+00  7.9780808629387669e-08 7.3004172200984311e-11 0.0000000000000000e+00  7.9810244685671116e-08 4.1043324057439099e-11 0.0000000000000000e+00  7.9822800409653140e-08 1.5982735304436452e-11 0.0000000000000000e+00  7.9823208786109785e-08 -6.2904274165682504e-12 0.0000000000000000e+00  7.9811700292366164e-08 -2.9384023884895132e-11 0.0000000000000000e+00  7.9784172499448210e-08 -5.6937153995322182e-11 0.0000000000000000e+00  7.9730054646393683e-08 -9.3102949398669748e-11 0.0000000000000000e+00  7.9626035691100543e-08 -1.4280808206830089e-10 0.0000000000000000e+00  7.9419696677194968e-08 -2.1059880266252775e-10 0.0000000000000000e+00  7.8992327092179067e-08 -2.8913515184207906e-10 0.0000000000000000e+00  7.8123094387100609e-08 -2.6575073756280412e-10 0.0000000000000000e+00  7.6408960341971467e-08 7.4274363148658377e-10 0.0000000000000000e+00  7.2347806452586689e-08 5.0746394743259872e-09 0.0000000000000000e+00  -8.4730650783116106e-09 5.1769292522145085e-09 0.0000000000000000e+00  -4.4226609310602808e-09 -4.0311967087253547e-09 0.0000000000000000e+00  -6.0194747731993328e-10 -2.3166378516772798e-08 0.0000000000000000e+00  1.7068128233435976e-08 -1.3920543813760445e-08 0.0000000000000000e+00  3.1099898713246384e-08 -7.6319808068955767e-09 0.0000000000000000e+00  3.9931391607712805e-08 -4.3336010254892946e-09 0.0000000000000000e+00  4.5428134348690673e-08 -2.5706611946850323e-09 0.0000000000000000e+00  4.8875657001259353e-08 -1.5636903672662558e-09 0.0000000000000000e+00  5.1028307208890594e-08 -9.4682269253562625e-10 0.0000000000000000e+00  5.2325272718962387e-08 -5.4079582455423821e-10 0.0000000000000000e+00  5.3017391751630150e-08 -2.4699463638531898e-10 0.0000000000000000e+00  5.3234112584727538e-08 -2.5083595771149592e-12 0.0000000000000000e+00  5.3015419902846893e-08 2.4151487845249847e-10 0.0000000000000000e+00  5.2321378154401153e-08 5.3378424996909933e-10 0.0000000000000000e+00  5.1023033372006772e-08 9.3662852881919509e-10 0.0000000000000000e+00  4.8871719310843928e-08 1.5469362623363041e-09 0.0000000000000000e+00  4.5436029654439271e-08 2.5394588639427230e-09 0.0000000000000000e+00  3.9986799139515271e-08 4.2757944221631385e-09 0.0000000000000000e+00  3.1327389473055740e-08 7.5993370367547273e-09 0.0000000000000000e+00  1.7883464101559195e-08 1.4357545146051511e-08 0.0000000000000000e+00  4.1439948711735920e-10 2.4902482794039511e-08 0.0000000000000000e+00  -7.0279618200936452e-09 5.5624350409609063e-09 0.0000000000000000e+00  -1.3355909346903613e-09 -2.3715018865105451e-09 0.0000000000000000e+00  -6.6432380525358215e-09 -2.9328659653564330e-08 0.0000000000000000e+00  -3.2411910541749232e-09 -2.5405969844867279e-08 0.0000000000000000e+00  5.0437713307462383e-09 -1.7654013430247750e-08 0.0000000000000000e+00  1.3187728531340882e-08 -1.1611152876106729e-08 0.0000000000000000e+00  1.9509868729992871e-08 -7.5389831590443044e-09 0.0000000000000000e+00  2.4005698323403247e-08 -4.8495511366153868e-09 0.0000000000000000e+00  2.7041057459101561e-08 -3.0420430507528474e-09 0.0000000000000000e+00  2.8963176189762812e-08 -1.7748469176826223e-09 0.0000000000000000e+00  3.0020674039526008e-08 -8.1661823917531596e-10 0.0000000000000000e+00  3.0357780628587950e-08 1.2496318156407162e-12 0.0000000000000000e+00  3.0021648836882550e-08 8.1940434439427487e-10 0.0000000000000000e+00  2.8966158735174736e-08 1.7786019136290786e-09 0.0000000000000000e+00  2.7048912147889403e-08 3.0478688273024264e-09 0.0000000000000000e+00  2.4025407884721684e-08 4.8598500720164397e-09 0.0000000000000000e+00  1.9558482586281686e-08 7.5610442987323638e-09 0.0000000000000000e+00  1.3306615728484492e-08 1.1669752600186574e-08 0.0000000000000000e+00  5.2973686270388024e-09 1.7802192277933468e-08 0.0000000000000000e+00  -2.8937384998894129e-09 2.5595390237987235e-08 0.0000000000000000e+00  -6.2697940111398545e-09 2.8399917022911265e-08 0.0000000000000000e+00  -2.3000771898291060e-09 2.9613570431721461e-09 0.0000000000000000e+00  -1.9529850528873905e-10 -1.3068593210084714e-09 0.0000000000000000e+00  -4.7953525409805177e-09 -2.4739893199233611e-08 0.0000000000000000e+00  -7.3623194189169416e-09 -2.8228951833725740e-08 0.0000000000000000e+00  -5.7019664656387730e-09 -2.3539024677556902e-08 0.0000000000000000e+00  -1.7219991897004481e-09 -1.7513890304277563e-08 0.0000000000000000e+00  2.5642329341412528e-09 -1.2343496517399335e-08 0.0000000000000000e+00  6.2116175383378677e-09 -8.3900068849268435e-09 0.0000000000000000e+00  8.9579185810489849e-09 -5.4620609875907671e-09 0.0000000000000000e+00  1.0820799361785968e-08 -3.2649694757369406e-09 0.0000000000000000e+00  1.1889200135898612e-08 -1.5236012115824786e-09 0.0000000000000000e+00  1.2237212410083769e-08 1.0246721144351841e-12 0.0000000000000000e+00  1.1892481381095840e-08 1.5259062089883784e-09 0.0000000000000000e+00  1.0828570255911957e-08 3.2681878864085571e-09 0.0000000000000000e+00  8.9730521893930221e-09 5.4674422275430048e-09 0.0000000000000000e+00  6.2395926435915704e-09 8.4004701310663876e-09 0.0000000000000000e+00  2.6134633816575483e-09 1.2366052205013528e-08 0.0000000000000000e+00  -1.6475965205964508e-09 1.7561056035438312e-08 0.0000000000000000e+00  -5.6214630516731497e-09 2.3601599096874116e-08 0.0000000000000000e+00  -7.2939308687606789e-09 2.8123324052913805e-08 0.0000000000000000e+00  -4.5835191419127574e-09 2.4269745415241736e-08 0.0000000000000000e+00  -3.3907907769785913e-10 1.8306311415931261e-09 0.0000000000000000e+00  7.3407897955864030e-11 -7.9780658610720342e-10 0.0000000000000000e+00  -3.3074169397140277e-09 -1.9692136014542473e-08 0.0000000000000000e+00  -7.3181889791143046e-09 -2.6117799895511367e-08 0.0000000000000000e+00  -9.1875371578433380e-09 -2.4733183282324270e-08 0.0000000000000000e+00  -8.7462486969993337e-09 -2.0272999484343569e-08 0.0000000000000000e+00  -7.0613653354559299e-09 -1.5349549458657310e-08 0.0000000000000000e+00  -5.0625136743086959e-09 -1.0991645171994746e-08 0.0000000000000000e+00  -3.2759562471807095e-09 -7.4257883060484945e-09 0.0000000000000000e+00  -1.9352153640698054e-09 -4.5507800530216890e-09 0.0000000000000000e+00  -1.1197061504599115e-09 -2.1547894945430841e-09 0.0000000000000000e+00  -8.4638284310539304e-10 6.7316178972294546e-13 0.0000000000000000e+00  -1.1161038447599143e-09 2.1563691953229076e-09 0.0000000000000000e+00  -1.9273536753554456e-09 4.5531954824903398e-09 0.0000000000000000e+00  -3.2625739837693882e-09 7.4300970309133149e-09 0.0000000000000000e+00  -5.0421710103653602e-09 1.0999637764016271e-08 0.0000000000000000e+00  -7.0338177560576985e-09 1.5362718501752188e-08 0.0000000000000000e+00  -8.7144537166557070e-09 2.0285399067078773e-08 0.0000000000000000e+00  -9.1608880150480490e-09 2.4713602160885267e-08 0.0000000000000000e+00  -7.2939972737422952e-09 2.5996149212923590e-08 0.0000000000000000e+00  -3.2245768280540073e-09 1.9529236580039389e-08 0.0000000000000000e+00  2.5789314138440050e-11 1.1603034581123891e-09 0.0000000000000000e+00  1.1640070408969012e-10 -5.1303679179458404e-10 0.0000000000000000e+00  -2.4102172764617881e-09 -1.5500132296391796e-08 0.0000000000000000e+00  -6.3648404014144944e-09 -2.2387099584245567e-08 0.0000000000000000e+00  -9.6223305869749390e-09 -2.3078504196060402e-08 0.0000000000000000e+00  -1.1293323161356834e-08 -2.0352356736708375e-08 0.0000000000000000e+00  -1.1641438692058021e-08 -1.6350650149479232e-08 0.0000000000000000e+00  -1.1230754081481945e-08 -1.2259902384249074e-08 0.0000000000000000e+00  -1.0543712667561696e-08 -8.5712997029283640e-09 0.0000000000000000e+00  -9.8925141399574180e-09 -5.3791942767897161e-09 0.0000000000000000e+00  -9.4486890763338342e-09 -2.5833225027366378e-09 0.0000000000000000e+00  -9.2922481361302461e-09 3.1917103402975219e-14 0.0000000000000000e+00  -9.4459235425576479e-09 2.5835324877745729e-09 0.0000000000000000e+00  -9.8868878979220910e-09 5.3798940012210718e-09 0.0000000000000000e+00  -1.0535213845536074e-08 8.5729171204875367e-09 0.0000000000000000e+00  -1.1219846901635802e-08 1.2262595403029424e-08 0.0000000000000000e+00  -1.1629614553408832e-08 1.6352652172017147e-08 0.0000000000000000e+00  -1.1283043827210333e-08 2.0345609948022816e-08 0.0000000000000000e+00  -9.6149318615461652e-09 2.3044650202801078e-08 0.0000000000000000e+00  -6.3597310544110422e-09 2.2320194958868987e-08 0.0000000000000000e+00  -2.3834664643633672e-09 1.5451013028324757e-08 0.0000000000000000e+00  9.8637178050322031e-11 7.3048372554955470e-10 0.0000000000000000e+00  1.1066389534604388e-10 -3.4316966764087427e-10 0.0000000000000000e+00  -1.8258053948934868e-09 -1.2131176395165933e-08 0.0000000000000000e+00  -5.3055034560557158e-09 -1.8474525673938908e-08 0.0000000000000000e+00  -8.8568335063057891e-09 -2.0164901829881239e-08 0.0000000000000000e+00  -1.1506050139661534e-08 -1.8770103250271377e-08 0.0000000000000000e+00  -1.3093055501335822e-08 -1.5805416967354578e-08 0.0000000000000000e+00  -1.3842609854028490e-08 -1.2318085509826690e-08 0.0000000000000000e+00  -1.4074317744077491e-08 -8.8743333709990388e-09 0.0000000000000000e+00  -1.4059686767002330e-08 -5.6899615173585507e-09 0.0000000000000000e+00  -1.3983085397728527e-08 -2.7681378831940119e-09 0.0000000000000000e+00  -1.3946319903098495e-08 -5.3958932685066480e-13 0.0000000000000000e+00  -1.3981492215352265e-08 2.7671201669405798e-09 0.0000000000000000e+00  -1.4056668236169220e-08 5.6891053070836366e-09 0.0000000000000000e+00  -1.4070285456833675e-08 8.8735791649647739e-09 0.0000000000000000e+00  -1.3838322099616080e-08 1.2316753962756123e-08 0.0000000000000000e+00  -1.3089638446404102e-08 1.5801195529034623e-08 0.0000000000000000e+00  -1.1504795622801426e-08 1.8758013231204385e-08 0.0000000000000000e+00  -8.8577351065906829e-09 2.0139677061536719e-08 0.0000000000000000e+00  -5.3092763846927268e-09 1.8443733519385059e-08 0.0000000000000000e+00  -1.8162611262325000e-09 1.2118834593149134e-08 0.0000000000000000e+00  1.0778479641115740e-10 4.7720197142414420e-10 0.0000000000000000e+00  9.5351917409178798e-11 -2.3581835344665762e-10 0.0000000000000000e+00  -1.4080667888711378e-09 -9.4399637412053956e-09 0.0000000000000000e+00  -4.3344130331126324e-09 -1.4895751629881245e-08 0.0000000000000000e+00  -7.6843878807847192e-09 -1.6916604829639173e-08 0.0000000000000000e+00  -1.0611206289806037e-08 -1.6385247431979445e-08 0.0000000000000000e+00  -1.2792088901416242e-08 -1.4310929600898638e-08 0.0000000000000000e+00  -1.4233142266362753e-08 -1.1509489990199202e-08 0.0000000000000000e+00  -1.5092540562770414e-08 -8.5038404106102010e-09 0.0000000000000000e+00  -1.5555279227688027e-08 -5.5539777236469025e-09 0.0000000000000000e+00  -1.5771120494128205e-08 -2.7326868727899333e-09 0.0000000000000000e+00  -1.5832558650435622e-08 -9.6966575386577429e-13 0.0000000000000000e+00  -1.5770497158151313e-08 2.7307454539901482e-09 0.0000000000000000e+00  -1.5554229321117140e-08 5.5519759975944534e-09 0.0000000000000000e+00  -1.5091456829566200e-08 8.5015065271468803e-09 0.0000000000000000e+00  -1.4232586061934013e-08 1.1506052215140556e-08 0.0000000000000000e+00  -1.2792718337155842e-08 1.4304830579816204e-08 0.0000000000000000e+00  -1.0613668736641342e-08 1.6374551175565199e-08 0.0000000000000000e+00  -7.6884826195002807e-09 1.6901449112688788e-08 0.0000000000000000e+00  -4.3403692314921520e-09 1.4882786612003795e-08 0.0000000000000000e+00  -1.4030548908700491e-09 9.4393193436434506e-09 0.0000000000000000e+00  9.9119290149424471e-11 3.2252563198215796e-10 0.0000000000000000e+00  7.9537054474549611e-11 -1.6482381445159680e-10 0.0000000000000000e+00  -1.0952037743178348e-09 -7.2978338901808783e-09 0.0000000000000000e+00  -3.5035337403533959e-09 -1.1806148669815256e-08 0.0000000000000000e+00  -6.4641895109125339e-09 -1.3792606075333813e-08 0.0000000000000000e+00  -9.2968230882188937e-09 -1.3757577363232714e-08 0.0000000000000000e+00  -1.1648771422127630e-08 -1.2357969627040375e-08 0.0000000000000000e+00  -1.3411597121455980e-08 -1.0190083864193154e-08 0.0000000000000000e+00  -1.4625267804293072e-08 -7.6856695083007449e-09 0.0000000000000000e+00  -1.5388747025123962e-08 -5.0972298876450159e-09 0.0000000000000000e+00  -1.5801164200547593e-08 -2.5319153543127181e-09 0.0000000000000000e+00  -1.5930663980865001e-08 -1.2446068190894378e-12 0.0000000000000000e+00  -1.5801155514017898e-08 2.5293907807477463e-09 0.0000000000000000e+00  -1.5388868680174449e-08 5.0945495111231339e-09 0.0000000000000000e+00  -1.4625776724567790e-08 7.6825546342242805e-09 0.0000000000000000e+00  -1.3412827327338186e-08 1.0186002178055259e-08 0.0000000000000000e+00  -1.1651075131214172e-08 1.2352213899246302e-08 0.0000000000000000e+00  -9.3004944516151928e-09 1.3749872457768370e-08 0.0000000000000000e+00  -6.4688669590540349e-09 1.3784321796474233e-08 0.0000000000000000e+00  -3.5089707685057926e-09 1.1801441987305353e-08 0.0000000000000000e+00  -1.0915738087103413e-09 7.3007576557722648e-09 0.0000000000000000e+00  8.5607594793405351e-11 2.2304379262226014e-10 0.0000000000000000e+00  6.5674751872008568e-11 -1.1625527618944078e-10 0.0000000000000000e+00  -8.5920153133530689e-10 -5.5933849048081770e-09 0.0000000000000000e+00  -2.8256156408915609e-09 -9.2114650789318685e-09 0.0000000000000000e+00  -5.3625859652541197e-09 -1.0983491174917838e-08 0.0000000000000000e+00  -7.9384635799679274e-09 -1.1195892966865185e-08 0.0000000000000000e+00  -1.0225939832812118e-08 -1.0273387141448601e-08 0.0000000000000000e+00  -1.2068431775705870e-08 -8.6373163707354267e-09 0.0000000000000000e+00  -1.3432494145233693e-08 -6.6219191756899513e-09 0.0000000000000000e+00  -1.4350229890340547e-08 -4.4463778467164588e-09 0.0000000000000000e+00  -1.4873168396504078e-08 -2.2257907759733363e-09 0.0000000000000000e+00  -1.5042478517905445e-08 -1.3864421928834974e-12 0.0000000000000000e+00  -1.4873468329029107e-08 2.2229765649274815e-09 0.0000000000000000e+00  -1.4350907992799806e-08 4.4434099708226660e-09 0.0000000000000000e+00  -1.3433690090817419e-08 6.6186084264667973e-09 0.0000000000000000e+00  -1.2070318661189990e-08 8.6334083500007798e-09 0.0000000000000000e+00  -1.0228680216392760e-08 1.0268725736092262e-08 0.0000000000000000e+00  -7.9421390139692117e-09 1.1190824139130183e-08 0.0000000000000000e+00  -5.3667490343887837e-09 1.0979281421797934e-08 0.0000000000000000e+00  -2.8298833804983117e-09 9.2105071664261838e-09 0.0000000000000000e+00  -8.5633064431088571e-10 5.5971650714660062e-09 0.0000000000000000e+00  7.1914871619204453e-11 1.5654075781728022e-10 0.0000000000000000e+00  5.4435401794883381e-11 -8.1955269418217538e-11 0.0000000000000000e+00  -6.8382275792452951e-10 -4.2289020053299221e-09 0.0000000000000000e+00  -2.2957061952324798e-09 -7.0534270971448488e-09 0.0000000000000000e+00  -4.4478148353238084e-09 -8.5349591062414551e-09 0.0000000000000000e+00  -6.7254314371046745e-09 -8.8393579274503846e-09 0.0000000000000000e+00  -8.8429439542429647e-09 -8.2410547487109458e-09 0.0000000000000000e+00  -1.0631535071101183e-08 -7.0317593861559346e-09 0.0000000000000000e+00  -1.2017766373369887e-08 -5.4595297677233765e-09 0.0000000000000000e+00  -1.2988646133903512e-08 -3.7014879325566994e-09 0.0000000000000000e+00  -1.3558849074877776e-08 -1.8642774512236269e-09 0.0000000000000000e+00  -1.3746526925435457e-08 -1.4289008545002317e-12 0.0000000000000000e+00  -1.3559253824650469e-08 1.8613903356912431e-09 0.0000000000000000e+00  -1.2989493368601446e-08 3.6985026288057865e-09 0.0000000000000000e+00  -1.2019121698743985e-08 5.4563622179885825e-09 0.0000000000000000e+00  -1.0633473859036074e-08 7.0283569360808811e-09 0.0000000000000000e+00  -8.8455164855638008e-09 8.2375273637783754e-09 0.0000000000000000e+00  -6.7286035699464865e-09 8.8361773126817714e-09 0.0000000000000000e+00  -4.4511512413423669e-09 8.5330354995474238e-09 0.0000000000000000e+00  -2.2988598334761111e-09 7.0541125496884103e-09 0.0000000000000000e+00  -6.8160195846428444e-10 4.2326019502247783e-09 0.0000000000000000e+00  5.9890224697634344e-11 1.1069008287634008e-10 0.0000000000000000e+00  4.5849588424376279e-11 -5.6795809973560592e-11 0.0000000000000000e+00  -5.5695912334317816e-10 -3.1200595174210974e-09 0.0000000000000000e+00  -1.8987776144994087e-09 -5.2504247156679841e-09 0.0000000000000000e+00  -3.7349500841664692e-09 -6.4197474367512039e-09 0.0000000000000000e+00  -5.7365986703801973e-09 -6.7250186437174913e-09 0.0000000000000000e+00  -7.6588209485727984e-09 -6.3429639972633840e-09 0.0000000000000000e+00  -9.3370607403433527e-09 -5.4716586685643124e-09 0.0000000000000000e+00  -1.0679069315803171e-08 -4.2886213741863736e-09 0.0000000000000000e+00  -1.1644488770498240e-08 -2.9289635496088859e-09 0.0000000000000000e+00  -1.2222762833288160e-08 -1.4821145443301213e-09 0.0000000000000000e+00  -1.2415094782498765e-08 -1.4079225582743317e-12 0.0000000000000000e+00  -1.2223155742525196e-08 1.4792891386445614e-09 0.0000000000000000e+00  -1.1645290325185075e-08 2.9261115309731643e-09 0.0000000000000000e+00  -1.0680305055498876e-08 4.2857429049464865e-09 0.0000000000000000e+00  -9.3387531774385405e-09 5.4688164503342788e-09 0.0000000000000000e+00  -7.6609624464230001e-09 6.3403615808686520e-09 0.0000000000000000e+00  -5.7391084050810553e-09 6.7230769371722598e-09 0.0000000000000000e+00  -3.7374624075768991e-09 6.4190645337432144e-09 0.0000000000000000e+00  -1.9010258803664909e-09 5.2517633319244016e-09 0.0000000000000000e+00  -5.5532715713619065e-10 3.1233721068962019e-09 0.0000000000000000e+00  5.0173471980220923e-11 7.8060180768746610e-11 0.0000000000000000e+00  3.9694685405649835e-11 -3.7416373835863662e-11 0.0000000000000000e+00  -4.6869120294449004e-10 -2.1961018716993753e-09 0.0000000000000000e+00  -1.6157099068095286e-09 -3.7178879153188692e-09 0.0000000000000000e+00  -3.2125954189135182e-09 -4.5784449506712390e-09 0.0000000000000000e+00  -4.9900811434083389e-09 -4.8342971033449869e-09 0.0000000000000000e+00  -6.7362980543292588e-09 -4.5969666631132776e-09 0.0000000000000000e+00  -8.2964454807190221e-09 -3.9964170316359291e-09 0.0000000000000000e+00  -9.5712499299304555e-09 -3.1536842424103870e-09 0.0000000000000000e+00  -1.0505249214376993e-08 -2.1652925725470150e-09 0.0000000000000000e+00  -1.1072189854488557e-08 -1.0994907717065749e-09 0.0000000000000000e+00  -1.1262059579152250e-08 -1.3563196953678938e-12 0.0000000000000000e+00  -1.1072511345517599e-08 1.0967883991635514e-09 0.0000000000000000e+00  -1.0505897569095004e-08 2.1626285182073313e-09 0.0000000000000000e+00  -9.5722318297471311e-09 3.1511146112539156e-09 0.0000000000000000e+00  -8.2977594232259895e-09 3.9940589270609273e-09 0.0000000000000000e+00  -6.7379147796600091e-09 4.5950362500956485e-09 0.0000000000000000e+00  -4.9919159040908389e-09 4.8331262385849488e-09 0.0000000000000000e+00  -3.2143732429099266e-09 4.5784125907810379e-09 0.0000000000000000e+00  -1.6172429415336664e-09 3.7194238175735033e-09 0.0000000000000000e+00  -4.6756802733271505e-10 2.1989774209767103e-09 0.0000000000000000e+00  4.2836058262275666e-11 5.3916846881599146e-11 0.0000000000000000e+00  3.5684023140754794e-11 -2.1544393124530439e-11 0.0000000000000000e+00  -4.1117374730205633e-10 -1.3988062952129283e-09 0.0000000000000000e+00  -1.4281618409813076e-09 -2.3773462826538020e-09 0.0000000000000000e+00  -2.8600301242532699e-09 -2.9411798186532850e-09 0.0000000000000000e+00  -4.4760697066099984e-09 -3.1216467516534990e-09 0.0000000000000000e+00  -6.0878638277150802e-09 -2.9843889364148877e-09 0.0000000000000000e+00  -7.55011907431