<?xml version="1.0"?>
<VTKFile type="UnstructuredGrid"  version="0.1"  >
<UnstructuredGrid>
<Piece  NumberOfPoints="651" NumberOfCells="1200">
<Points>
<DataArray  type="Float64"  NumberOfComponents="3"  format="ascii">0 0 0  50000 0 0  100000 0 0  150000 0 0  200000 0 0  250000 0 0  300000 0 0  350000 0 0  400000 0 0  450000 0 0  500000 0 0  550000 0 0  600000 0 0  650000 0 0  700000 0 0  750000 0 0  800000 0 0  850000 0 0  900000 0 0  950000 0 0  1000000 0 0  0 50000 0  50000 50000 0  100000 50000 0  150000 50000 0  200000 50000 0  250000 50000 0  300000 50000 0  350000 50000 0  400000 50000 0  450000 50000 0  500000 50000 0  550000 50000 0  600000 50000 0  650000 50000 0  700000 50000 0  750000 50000 0  800000 50000 0  850000 50000 0  900000 50000 0  950000 50000 0  1000000 50000 0  0 100000 0  50000 100000 0  100000 100000 0  150000 100000 0  200000 100000 0  250000 100000 0  300000 100000 0  350000 100000 0  400000 100000 0  450000 100000 0  500000 100000 0  550000 100000 0  600000 100000 0  650000 100000 0  700000 100000 0  750000 100000 0  800000 100000 0  850000 100000 0  900000 100000 0  950000 100000 0  1000000 100000 0  0 150000 0  50000 150000 0  100000 150000 0  150000 150000 0  200000 150000 0  250000 150000 0  300000 150000 0  350000 150000 0  400000 150000 0  450000 150000 0  500000 150000 0  550000 150000 0  600000 150000 0  650000 150000 0  700000 150000 0  750000 150000 0  800000 150000 0  850000 150000 0  900000 150000 0  950000 150000 0  1000000 150000 0  0 200000 0  50000 200000 0  100000 200000 0  150000 200000 0  200000 200000 0  250000 200000 0  300000 200000 0  350000 200000 0  400000 200000 0  450000 200000 0  500000 200000 0  550000 200000 0  600000 200000 0  650000 200000 0  700000 200000 0  750000 200000 0  800000 200000 0  850000 200000 0  900000 200000 0  950000 200000 0  1000000 200000 0  0 250000 0  50000 250000 0  100000 250000 0  150000 250000 0  200000 250000 0  250000 250000 0  300000 250000 0  350000 250000 0  400000 250000 0  450000 250000 0  500000 250000 0  550000 250000 0  600000 250000 0  650000 250000 0  700000 250000 0  750000 250000 0  800000 250000 0  850000 250000 0  900000 250000 0  950000 250000 0  1000000 250000 0  0 300000 0  50000 300000 0  100000 300000 0  150000 300000 0  200000 300000 0  250000 300000 0  300000 300000 0  350000 300000 0  400000 300000 0  450000 300000 0  500000 300000 0  550000 300000 0  600000 300000 0  650000 300000 0  700000 300000 0  750000 300000 0  800000 300000 0  850000 300000 0  900000 300000 0  950000 300000 0  1000000 300000 0  0 350000 0  50000 350000 0  100000 350000 0  150000 350000 0  200000 350000 0  250000 350000 0  300000 350000 0  350000 350000 0  400000 350000 0  450000 350000 0  500000 350000 0  550000 350000 0  600000 350000 0  650000 350000 0  700000 350000 0  750000 350000 0  800000 350000 0  850000 350000 0  900000 350000 0  950000 350000 0  1000000 350000 0  0 400000 0  50000 400000 0  100000 400000 0  150000 400000 0  200000 400000 0  250000 400000 0  300000 400000 0  350000 400000 0  400000 400000 0  450000 400000 0  500000 400000 0  550000 400000 0  600000 400000 0  650000 400000 0  700000 400000 0  750000 400000 0  800000 400000 0  850000 400000 0  900000 400000 0  950000 400000 0  1000000 400000 0  0 450000 0  50000 450000 0  100000 450000 0  150000 450000 0  200000 450000 0  250000 450000 0  300000 450000 0  350000 450000 0  400000 450000 0  450000 450000 0  500000 450000 0  550000 450000 0  600000 450000 0  650000 450000 0  700000 450000 0  750000 450000 0  800000 450000 0  850000 450000 0  900000 450000 0  950000 450000 0  1000000 450000 0  0 500000 0  50000 500000 0  100000 500000 0  150000 500000 0  200000 500000 0  250000 500000 0  300000 500000 0  350000 500000 0  400000 500000 0  450000 500000 0  500000 500000 0  550000 500000 0  600000 500000 0  650000 500000 0  700000 500000 0  750000 500000 0  800000 500000 0  850000 500000 0  900000 500000 0  950000 500000 0  1000000 500000 0  0 550000 0  50000 550000 0  100000 550000 0  150000 550000 0  200000 550000 0  250000 550000 0  300000 550000 0  350000 550000 0  400000 550000 0  450000 550000 0  500000 550000 0  550000 550000 0  600000 550000 0  650000 550000 0  700000 550000 0  750000 550000 0  800000 550000 0  850000 550000 0  900000 550000 0  950000 550000 0  1000000 550000 0  0 600000 0  50000 600000 0  100000 600000 0  150000 600000 0  200000 600000 0  250000 600000 0  300000 600000 0  350000 600000 0  400000 600000 0  450000 600000 0  500000 600000 0  550000 600000 0  600000 600000 0  650000 600000 0  700000 600000 0  750000 600000 0  800000 600000 0  850000 600000 0  900000 600000 0  950000 600000 0  1000000 600000 0  0 650000 0  50000 650000 0  100000 650000 0  150000 650000 0  200000 650000 0  250000 650000 0  300000 650000 0  350000 650000 0  400000 650000 0  450000 650000 0  500000 650000 0  550000 650000 0  600000 650000 0  650000 650000 0  700000 650000 0  750000 650000 0  800000 650000 0  850000 650000 0  900000 650000 0  950000 650000 0  1000000 650000 0  0 700000 0  50000 700000 0  100000 700000 0  150000 700000 0  200000 700000 0  250000 700000 0  300000 700000 0  350000 700000 0  400000 700000 0  450000 700000 0  500000 700000 0  550000 700000 0  600000 700000 0  650000 700000 0  700000 700000 0  750000 700000 0  800000 700000 0  850000 700000 0  900000 700000 0  950000 700000 0  1000000 700000 0  0 750000 0  50000 750000 0  100000 750000 0  150000 750000 0  200000 750000 0  250000 750000 0  300000 750000 0  350000 750000 0  400000 750000 0  450000 750000 0  500000 750000 0  550000 750000 0  600000 750000 0  650000 750000 0  700000 750000 0  750000 750000 0  800000 750000 0  850000 750000 0  900000 750000 0  950000 750000 0  1000000 750000 0  0 800000 0  50000 800000 0  100000 800000 0  150000 800000 0  200000 800000 0  250000 800000 0  300000 800000 0  350000 800000 0  400000 800000 0  450000 800000 0  500000 800000 0  550000 800000 0  600000 800000 0  650000 800000 0  700000 800000 0  750000 800000 0  800000 800000 0  850000 800000 0  900000 800000 0  950000 800000 0  1000000 800000 0  0 850000 0  50000 850000 0  100000 850000 0  150000 850000 0  200000 850000 0  250000 850000 0  300000 850000 0  350000 850000 0  400000 850000 0  450000 850000 0  500000 850000 0  550000 850000 0  600000 850000 0  650000 850000 0  700000 850000 0  750000 850000 0  800000 850000 0  850000 850000 0  900000 850000 0  950000 850000 0  1000000 850000 0  0 900000 0  50000 900000 0  100000 900000 0  150000 900000 0  200000 900000 0  250000 900000 0  300000 900000 0  350000 900000 0  400000 900000 0  450000 900000 0  500000 900000 0  550000 900000 0  600000 900000 0  650000 900000 0  700000 900000 0  750000 900000 0  800000 900000 0  850000 900000 0  900000 900000 0  950000 900000 0  1000000 900000 0  0 950000 0  50000 950000 0  100000 950000 0  150000 950000 0  200000 950000 0  250000 950000 0  300000 950000 0  350000 950000 0  400000 950000 0  450000 950000 0  500000 950000 0  550000 950000 0  600000 950000 0  650000 950000 0  700000 950000 0  750000 950000 0  800000 950000 0  850000 950000 0  900000 950000 0  950000 950000 0  1000000 950000 0  0 1000000 0  50000 1000000 0  100000 1000000 0  150000 1000000 0  200000 1000000 0  250000 1000000 0  300000 1000000 0  350000 1000000 0  400000 1000000 0  450000 1000000 0  500000 1000000 0  550000 1000000 0  600000 1000000 0  650000 1000000 0  700000 1000000 0  750000 1000000 0  800000 1000000 0  850000 1000000 0  900000 1000000 0  950000 1000000 0  1000000 1000000 0  0 1050000 0  50000 1050000 0  100000 1050000 0  150000 1050000 0  200000 1050000 0  250000 1050000 0  300000 1050000 0  350000 1050000 0  400000 1050000 0  450000 1050000 0  500000 1050000 0  550000 1050000 0  600000 1050000 0  650000 1050000 0  700000 1050000 0  750000 1050000 0  800000 1050000 0  850000 1050000 0  900000 1050000 0  950000 1050000 0  1000000 1050000 0  0 1100000 0  50000 1100000 0  100000 1100000 0  150000 1100000 0  200000 1100000 0  250000 1100000 0  300000 1100000 0  350000 1100000 0  400000 1100000 0  450000 1100000 0  500000 1100000 0  550000 1100000 0  600000 1100000 0  650000 1100000 0  700000 1100000 0  750000 1100000 0  800000 1100000 0  850000 1100000 0  900000 1100000 0  950000 1100000 0  1000000 1100000 0  0 1150000 0  50000 1150000 0  100000 1150000 0  150000 1150000 0  200000 1150000 0  250000 1150000 0  300000 1150000 0  350000 1150000 0  400000 1150000 0  450000 1150000 0  500000 1150000 0  550000 1150000 0  600000 1150000 0  650000 1150000 0  700000 1150000 0  750000 1150000 0  800000 1150000 0  850000 1150000 0  900000 1150000 0  950000 1150000 0  1000000 1150000 0  0 1200000 0  50000 1200000 0  100000 1200000 0  150000 1200000 0  200000 1200000 0  250000 1200000 0  300000 1200000 0  350000 1200000 0  400000 1200000 0  450000 1200000 0  500000 1200000 0  550000 1200000 0  600000 1200000 0  650000 1200000 0  700000 1200000 0  750000 1200000 0  800000 1200000 0  850000 1200000 0  900000 1200000 0  950000 1200000 0  1000000 1200000 0  0 1250000 0  50000 1250000 0  100000 1250000 0  150000 1250000 0  200000 1250000 0  250000 1250000 0  300000 1250000 0  350000 1250000 0  400000 1250000 0  450000 1250000 0  500000 1250000 0  550000 1250000 0  600000 1250000 0  650000 1250000 0  700000 1250000 0  750000 1250000 0  800000 1250000 0  850000 1250000 0  900000 1250000 0  950000 1250000 0  1000000 1250000 0  0 1300000 0  50000 1300000 0  100000 1300000 0  150000 1300000 0  200000 1300000 0  250000 1300000 0  300000 1300000 0  350000 1300000 0  400000 1300000 0  450000 1300000 0  500000 1300000 0  550000 1300000 0  600000 1300000 0  650000 1300000 0  700000 1300000 0  750000 1300000 0  800000 1300000 0  850000 1300000 0  900000 1300000 0  950000 1300000 0  1000000 1300000 0  0 1350000 0  50000 1350000 0  100000 1350000 0  150000 1350000 0  200000 1350000 0  250000 1350000 0  300000 1350000 0  350000 1350000 0  400000 1350000 0  450000 1350000 0  500000 1350000 0  550000 1350000 0  600000 1350000 0  650000 1350000 0  700000 135
[...]
<PointData  Vectors="f_10477"> 
<DataArray  type="Float64"  Name="f_10477"  NumberOfComponents="3" format="ascii">-6.0093282176548424e-09 -3.3494229487363405e-09 0.0000000000000000e+00  7.5108370757859680e-08 -2.1661994159894038e-09 0.0000000000000000e+00  7.8043691313791837e-08 -7.3630468809004256e-11 0.0000000000000000e+00  7.8982026012514674e-08 2.9219545679708954e-10 0.0000000000000000e+00  7.9439349166019499e-08 2.6327214146743871e-10 0.0000000000000000e+00  7.9658684811359153e-08 1.9128291008076110e-10 0.0000000000000000e+00  7.9771182568083298e-08 1.3092082782789583e-10 0.0000000000000000e+00  7.9831780218818209e-08 8.5143886433944078e-11 0.0000000000000000e+00  7.9863987177436646e-08 4.9424919450907201e-11 0.0000000000000000e+00  7.9878314394130184e-08 1.9459966968502407e-11 0.0000000000000000e+00  7.9878970730415232e-08 -8.1701161347999069e-12 0.0000000000000000e+00  7.9866169025219784e-08 -3.6420275128360006e-11 0.0000000000000000e+00  7.9836266284435927e-08 -6.8256979103788871e-11 0.0000000000000000e+00  7.9779911522058538e-08 -1.0708832308519214e-10 0.0000000000000000e+00  7.9676516142143323e-08 -1.5705651080390622e-10 0.0000000000000000e+00  7.9479376199412845e-08 -2.2229221747719775e-10 0.0000000000000000e+00  7.9080542723503593e-08 -2.9802798899096770e-10 0.0000000000000000e+00  7.8275360169354841e-08 -2.8940196029342438e-10 0.0000000000000000e+00  7.6661994715372548e-08 6.4092091063878228e-10 0.0000000000000000e+00  7.2615004019760769e-08 4.9127632809781643e-09 0.0000000000000000e+00  -8.2434848083266288e-09 5.0569775393739325e-09 0.0000000000000000e+00  -4.2069509622924913e-09 -3.7674916869164076e-09 0.0000000000000000e+00  -8.9505772202851454e-10 -2.3412832127589253e-08 0.0000000000000000e+00  1.7272484220465484e-08 -1.4061400674989168e-08 0.0000000000000000e+00  3.1763941847697375e-08 -7.8373193395634401e-09 0.0000000000000000e+00  4.1108973148759171e-08 -4.6030874050677573e-09 0.0000000000000000e+00  4.7147743986696187e-08 -2.8587874441743334e-09 0.0000000000000000e+00  5.1114691104131348e-08 -1.8312106245773958e-09 0.0000000000000000e+00  5.3715593498758452e-08 -1.1663985682643204e-09 0.0000000000000000e+00  5.5354339335439850e-08 -6.9529003848020861e-10 0.0000000000000000e+00  5.6259486061042386e-08 -3.2684615343979819e-10 0.0000000000000000e+00  5.6548692357178144e-08 -3.5274539591126467e-12 0.0000000000000000e+00  5.6258321409614797e-08 3.1941604704949096e-10 0.0000000000000000e+00  5.5352056917170071e-08 6.8662114073151217e-10 0.0000000000000000e+00  5.3712651459675321e-08 1.1551477007168574e-09 0.0000000000000000e+00  5.1113410577770644e-08 1.8145234502816514e-09 0.0000000000000000e+00  4.7157339386923011e-08 2.8295022103406672e-09 0.0000000000000000e+00  4.1161367510473460e-08 4.5484378325882495e-09 0.0000000000000000e+00  3.1974511636867853e-08 7.8018892409858038e-09 0.0000000000000000e+00  1.8036538213257316e-08 1.4474566521055500e-08 0.0000000000000000e+00  1.5732278294794913e-10 2.5133494588238587e-08 0.0000000000000000e+00  -6.7963196090053675e-09 5.3689001175749596e-09 0.0000000000000000e+00  -1.2486568629509815e-09 -2.1389222329782436e-09 0.0000000000000000e+00  -6.5214901211273509e-09 -2.9662327779354846e-08 0.0000000000000000e+00  -2.7023332296029506e-09 -2.6058788733306122e-08 0.0000000000000000e+00  6.2594337980162399e-09 -1.8534433938246357e-08 0.0000000000000000e+00  1.5238668176782140e-08 -1.2614009680440101e-08 0.0000000000000000e+00  2.2441098566475495e-08 -8.5514416908758787e-09 0.0000000000000000e+00  2.7774179375561067e-08 -5.7699364014014285e-09 0.0000000000000000e+00  3.1531266217605575e-08 -3.7918677114526929e-09 0.0000000000000000e+00  3.4004876250959278e-08 -2.3007138665470053e-09 0.0000000000000000e+00  3.5407000595773363e-08 -1.0869237129664794e-09 0.0000000000000000e+00  3.5861424965101679e-08 8.1024125931655776e-13 0.0000000000000000e+00  3.5408781446056572e-08 1.0888024765197510e-09 0.0000000000000000e+00  3.4009377183139437e-08 2.3034681758109186e-09 0.0000000000000000e+00  3.1541088105913012e-08 3.7965024063883947e-09 0.0000000000000000e+00  2.7795676912655891e-08 5.7786424384644785e-09 0.0000000000000000e+00  2.2489863436681583e-08 8.5709434459869205e-09 0.0000000000000000e+00  1.5352491438145112e-08 1.2668120547703443e-08 0.0000000000000000e+00  6.4950510323659877e-09 1.8678727113535728e-08 0.0000000000000000e+00  -2.3914833242375177e-09 2.6266195002644454e-08 0.0000000000000000e+00  -6.1100988612471565e-09 2.8763230934957553e-08 0.0000000000000000e+00  -2.1479223778007009e-09 2.7180824129054131e-09 0.0000000000000000e+00  -1.8046401326199312e-10 -1.1668201157100989e-09 0.0000000000000000e+00  -4.5215098875116986e-09 -2.5332595160335948e-08 0.0000000000000000e+00  -6.5914981142864647e-09 -2.9504332274762960e-08 0.0000000000000000e+00  -4.1638382397050596e-09 -2.5272845021978577e-08 0.0000000000000000e+00  7.5794979364280555e-10 -1.9469948870166987e-08 0.0000000000000000e+00  6.0387181823145152e-09 -1.4305663465665395e-08 0.0000000000000000e+00  1.0634568186408923e-08 -1.0170607807560895e-08 0.0000000000000000e+00  1.4201345012384123e-08 -6.9139541539508588e-09 0.0000000000000000e+00  1.6693572974551554e-08 -4.2849642611279079e-09 0.0000000000000000e+00  1.8156478492694810e-08 -2.0486400051110866e-09 0.0000000000000000e+00  1.8638903477581324e-08 2.2733580960014714e-13 0.0000000000000000e+00  1.8160254394720695e-08 2.0493253395054005e-09 0.0000000000000000e+00  1.6702195625131642e-08 4.2864818356126086e-09 0.0000000000000000e+00  1.4217361560648347e-08 6.9174722350942095e-09 0.0000000000000000e+00  1.0662829889812549e-08 1.0178909722003736e-08 0.0000000000000000e+00  6.0865605420288268e-09 1.4325628084833325e-08 0.0000000000000000e+00  8.2794078256361294e-10 1.9514748600917915e-08 0.0000000000000000e+00  -4.0902299482987486e-09 2.5337586467952668e-08 0.0000000000000000e+00  -6.5313788658645018e-09 2.9420515358522498e-08 0.0000000000000000e+00  -4.3024086753022462e-09 2.4897429402539000e-08 0.0000000000000000e+00  -3.0324483360349885e-10 1.6488323204071800e-09 0.0000000000000000e+00  6.1530827461814922e-11 -7.1924679818523686e-10 0.0000000000000000e+00  -3.0378349446112475e-09 -2.0688066457595866e-08 0.0000000000000000e+00  -6.5371730394735376e-09 -2.8059236722105986e-08 0.0000000000000000e+00  -7.6726607650147547e-09 -2.7327995498796351e-08 0.0000000000000000e+00  -6.3579536240459798e-09 -2.3191385574717859e-08 0.0000000000000000e+00  -3.7533013672875767e-09 -1.8275921289351341e-08 0.0000000000000000e+00  -8.7412689719510685e-10 -1.3650340347288075e-08 0.0000000000000000e+00  1.6778394227898275e-09 -9.5979740826955397e-09 0.0000000000000000e+00  3.6086266261947900e-09 -6.0798800026092415e-09 0.0000000000000000e+00  4.7954323418350364e-09 -2.9429379872146291e-09 0.0000000000000000e+00  5.1954578838267024e-09 -2.1486402803622135e-13 0.0000000000000000e+00  4.7992616580172325e-09 2.9427500369965338e-09 0.0000000000000000e+00  3.6168237413177298e-09 6.0805592903512799e-09 0.0000000000000000e+00  1.6914097858044820e-09 9.6006279453518975e-09 0.0000000000000000e+00  -8.5415752355383312e-10 1.3656900530728381e-08 0.0000000000000000e+00  -3.7271811938934706e-09 1.8288317255003183e-08 0.0000000000000000e+00  -6.3287238296141177e-09 2.3204857401606685e-08 0.0000000000000000e+00  -7.6477847402362728e-09 2.7313529077995728e-08 0.0000000000000000e+00  -6.5132163450707534e-09 2.7950566864930092e-08 0.0000000000000000e+00  -2.9577781024638062e-09 2.0542620804105561e-08 0.0000000000000000e+00  1.6668460147910313e-11 1.0433921021476534e-09 0.0000000000000000e+00  1.0032660479571184e-10 -4.7160158827001591e-10 0.0000000000000000e+00  -2.2042818945765865e-09 -1.6870133635607304e-08 0.0000000000000000e+00  -5.7497725578983453e-09 -2.4915267823094219e-08 0.0000000000000000e+00  -8.4353167409252331e-09 -2.6408118217259589e-08 0.0000000000000000e+00  -9.4364872489066772e-09 -2.4084791626797452e-08 0.0000000000000000e+00  -9.0794709591962236e-09 -2.0094371363685683e-08 0.0000000000000000e+00  -7.9899031031840031e-09 -1.5667232655885181e-08 0.0000000000000000e+00  -6.7079779617653621e-09 -1.1361506443975412e-08 0.0000000000000000e+00  -5.5947854920761955e-09 -7.3475179180337277e-09 0.0000000000000000e+00  -4.8586172789888170e-09 -3.5992871811964499e-09 0.0000000000000000e+00  -4.6021640906459536e-09 -8.9340149516000636e-13 0.0000000000000000e+00  -4.8558300619019753e-09 3.5976885544187473e-09 0.0000000000000000e+00  -5.5891937364100026e-09 7.3465507156154058e-09 0.0000000000000000e+00  -6.6997176008894571e-09 1.1361752578931880e-08 0.0000000000000000e+00  -7.9796180356847271e-09 1.5669127623832431e-08 0.0000000000000000e+00  -9.0687455410990113e-09 2.0096681128442606e-08 0.0000000000000000e+00  -9.4275500803461016e-09 2.4080366282674266e-08 0.0000000000000000e+00  -8.4284654719069320e-09 2.6379540172718976e-08 0.0000000000000000e+00  -5.7443140198169603e-09 2.4856815464263019e-08 0.0000000000000000e+00  -2.1810579495039527e-09 1.6829494944357688e-08 0.0000000000000000e+00  8.0610743678995809e-11 6.6195896151331843e-10 0.0000000000000000e+00  9.8818855389832224e-11 -3.2435275747729286e-10 0.0000000000000000e+00  -1.7075193465746016e-09 -1.3759683331843301e-08 0.0000000000000000e+00  -4.9535064025331354e-09 -2.1407535838943342e-08 0.0000000000000000e+00  -8.1777404466986441e-09 -2.3995947019807890e-08 0.0000000000000000e+00  -1.0442767869764319e-08 -2.3056961478927248e-08 0.0000000000000000e+00  -1.1620710257441891e-08 -2.0109683069990979e-08 0.0000000000000000e+00  -1.1969972262243816e-08 -1.6244341089071767e-08 0.0000000000000000e+00  -1.1844869453070701e-08 -1.2097609605554083e-08 0.0000000000000000e+00  -1.1548956091179810e-08 -7.9688306117701952e-09 0.0000000000000000e+00  -1.1292424887018693e-08 -3.9460856004877994e-09 0.0000000000000000e+00  -1.1193795077495868e-08 -1.4035804657253075e-12 0.0000000000000000e+00  -1.1290957663601978e-08 3.9434072384745584e-09 0.0000000000000000e+00  -1.1546227522280076e-08 7.9665333668004655e-09 0.0000000000000000e+00  -1.1841349082400974e-08 1.2095839726199146e-08 0.0000000000000000e+00  -1.1966447247940599e-08 1.6242712223502150e-08 0.0000000000000000e+00  -1.1618214372571666e-08 2.0106278623313412e-08 0.0000000000000000e+00  -1.0442327195304496e-08 2.3047256803195849e-08 0.0000000000000000e+00  -8.1788864087954447e-09 2.3974867765970430e-08 0.0000000000000000e+00  -4.9569993498831458e-09 2.1381955515112173e-08 0.0000000000000000e+00  -1.7010928044810980e-09 1.3751258292862650e-08 0.0000000000000000e+00  9.2123869276876807e-11 4.4111700344659035e-10 0.0000000000000000e+00  8.9952991102287111e-11 -2.2984182849217215e-10 0.0000000000000000e+00  -1.3794217802523867e-09 -1.1178889215954661e-08 0.0000000000000000e+00  -4.2659873936015504e-09 -1.8000821872301339e-08 0.0000000000000000e+00  -7.5566300090981833e-09 -2.0962453784141599e-08 0.0000000000000000e+00  -1.0406998678165032e-08 -2.0914945290018431e-08 0.0000000000000000e+00  -1.2496614564704105e-08 -1.8868624635752292e-08 0.0000000000000000e+00  -1.3837414943000446e-08 -1.5678401345475370e-08 0.0000000000000000e+00  -1.4598163773748754e-08 -1.1935827680554246e-08 0.0000000000000000e+00  -1.4977043373680022e-08 -7.9860295490054789e-09 0.0000000000000000e+00  -1.5136499820366806e-08 -3.9916767942487851e-09 0.0000000000000000e+00  -1.5178117662803198e-08 -1.7157053359018674e-12 0.0000000000000000e+00  -1.5136098457144392e-08 3.9883228482717767e-09 0.0000000000000000e+00  -1.4976445263233651e-08 7.9828671418063882e-09 0.0000000000000000e+00  -1.4597759402877783e-08 1.1932792355790072e-08 0.0000000000000000e+00  -1.3837716413023486e-08 1.5674968176808330e-08 0.0000000000000000e+00  -1.2498131997028112e-08 1.8863484814920354e-08 0.0000000000000000e+00  -1.0410138068372942e-08 2.0906310602930504e-08 0.0000000000000000e+00  -7.5609294212348361e-09 2.0950275611079453e-08 0.0000000000000000e+00  -4.2717326458116712e-09 1.7990832513567016e-08 0.0000000000000000e+00  -1.3770754260595104e-09 1.1179710631756943e-08 0.0000000000000000e+00  8.9395891345179519e-11 3.0643815422563940e-10 0.0000000000000000e+00  8.0270671512903385e-11 -1.6508915341540229e-10 0.0000000000000000e+00  -1.1423425324183966e-09 -9.0046963942437107e-09 0.0000000000000000e+00  -3.6827063995430254e-09 -1.4853934188225826e-08 0.0000000000000000e+00  -6.8250941643931728e-09 -1.7770706856466343e-08 0.0000000000000000e+00  -9.8603859741119725e-09 -1.8223241738233899e-08 0.0000000000000000e+00  -1.2411354155324675e-08 -1.6865470488089944e-08 0.0000000000000000e+00  -1.4350270616481840e-08 -1.4326592345821267e-08 0.0000000000000000e+00  -1.5705178504377476e-08 -1.1101217938646091e-08 0.0000000000000000e+00  -1.6569732816550739e-08 -7.5234485243888757e-09 0.0000000000000000e+00  -1.7042196549511510e-08 -3.7897843068438180e-09 0.0000000000000000e+00  -1.7191615300201234e-08 -1.8483345840797922e-12 0.0000000000000000e+00  -1.7042460138250096e-08 3.7861329990768037e-09 0.0000000000000000e+00  -1.6570387306708062e-08 7.5198903187161395e-09 0.0000000000000000e+00  -1.5706443604838935e-08 1.1097656060089267e-08 0.0000000000000000e+00  -1.4352394260131339e-08 1.4322676205202885e-08 0.0000000000000000e+00  -1.2414529851841293e-08 1.6860621819538228e-08 0.0000000000000000e+00  -9.8646975829441799e-09 1.8217159733751709e-08 0.0000000000000000e+00  -6.8299998647703510e-09 1.7764423584615558e-08 0.0000000000000000e+00  -3.6880323500412247e-09 1.4850716034711310e-08 0.0000000000000000e+00  -1.1408115731548078e-09 9.0077416499603680e-09 0.0000000000000000e+00  8.2450604903702480e-11 2.1812013641051254e-10 0.0000000000000000e+00  7.1215197650626705e-11 -1.1865845739262814e-10 0.0000000000000000e+00  -9.6020667903874978e-10 -7.1545898837657411e-09 0.0000000000000000e+00  -3.1866729072996582e-09 -1.2012977815710890e-08 0.0000000000000000e+00  -6.0907932586120537e-09 -1.4656652542523673e-08 0.0000000000000000e+00  -9.0887827550482127e-09 -1.5336582097151985e-08 0.0000000000000000e+00  -1.1807533820270072e-08 -1.4469515262841347e-08 0.0000000000000000e+00  -1.4050539161199369e-08 -1.2502180276283623e-08 0.0000000000000000e+00  -1.5753179412464278e-08 -9.8232317830925333e-09 0.0000000000000000e+00  -1.6925717654402403e-08 -6.7259508880036992e-09 0.0000000000000000e+00  -1.7606198818249377e-08 -3.4094162188125182e-09 0.0000000000000000e+00  -1.7828821465582445e-08 -1.8498261962145620e-12 0.0000000000000000e+00  -1.7606781704111923e-08 3.4057495764207832e-09 0.0000000000000000e+00  -1.6926938665050043e-08 6.7223546561947385e-09 0.0000000000000000e+00  -1.5755123366067060e-08 9.8196634975486716e-09 0.0000000000000000e+00  -1.4053279695853186e-08 1.2498506945457385e-08 0.0000000000000000e+00  -1.1811081946334425e-08 1.4465625755271846e-08 0.0000000000000000e+00  -9.0930438632671654e-09 1.5332710107540616e-08 0.0000000000000000e+00  -6.0951908343252150e-09 1.4653700182945866e-08 0.0000000000000000e+00  -3.1909179604023026e-09 1.2012587175454809e-08 0.0000000000000000e+00  -9.5878678932110819e-10 7.1578400835016112e-09 0.0000000000000000e+00  7.4487673940298958e-11 1.5686730765571804e-10 0.0000000000000000e+00  6.3213873600547045e-11 -8.4326323361559119e-11 0.0000000000000000e+00  -8.1606791398545964e-10 -5.5686525132581503e-09 0.0000000000000000e+00  -2.7676313074721883e-09 -9.4761316775348306e-09 0.0000000000000000e+00  -5.4087077664454674e-09 -1.1730939091454092e-08 0.0000000000000000e+00  -8.2584794559610788e-09 -1.2460587617357182e-08 0.0000000000000000e+00  -1.0970994056291779e-08 -1.1927049794434220e-08 0.0000000000000000e+00  -1.3322172665190665e-08 -1.0439751310234767e-08 0.0000000000000000e+00  -1.5192241052230201e-08 -8.2913255400659115e-09 0.0000000000000000e+00  -1.6532717328511087e-08 -5.7227266908999081e-09 0.0000000000000000e+00  -1.7333972301386382e-08 -2.9152967393803958e-09 0.0000000000000000e+00  -1.7600254655941130e-08 -1.7703167255477206e-12 0.0000000000000000e+00  -1.7334639570992715e-08 2.9117906108110729e-09 0.0000000000000000e+00  -1.6534061397714173e-08 5.7193109537526286e-09 0.0000000000000000e+00  -1.5194266586872739e-08 8.2880274209106643e-09 0.0000000000000000e+00  -1.3324856588477274e-08 1.0436591882151441e-08 0.0000000000000000e+00  -1.0974253141364562e-08 1.1924132739888139e-08 0.0000000000000000e+00  -8.2621409856787194e-09 1.2458242493559652e-08 0.0000000000000000e+00  -5.4122477824213370e-09 1.1729750804329921e-08 0.0000000000000000e+00  -2.7708113309209417e-09 9.4768875282827576e-09 0.0000000000000000e+00  -8.1469226177470168e-10 5.5716296373286175e-09 0.0000000000000000e+00  6.6721963514722267e-11 1.1268385214428610e-10 0.0000000000000000e+00  5.6484770019288116e-11 -5.8322525191726174e-11 0.0000000000000000e+00  -7.0209695518785547e-10 -4.1979978186382684e-09 0.0000000000000000e+00  -2.4220687379368716e-09 -7.2170143815948151e-09 0.0000000000000000e+00  -4.8130257684009311e-09 -9.0315421132776160e-09 0.0000000000000000e+00  -7.4742162423953530e-09 -9.7003038290653897e-09 0.0000000000000000e+00  -1.0092034637604592e-08 -9.3850042712954669e-09 0.0000000000000000e+00  -1.2436431782877510e-08 -8.2947090509476213e-09 0.0000000000000000e+00  -1.4357830879442142e-08 -6.6413646242527430e-09 0.0000000000000000e+00  -1.5769934607066006e-08 -4.6119646051032243e-09 0.0000000000000000e+00  -1.6629284839793675e-08 -2.3584263399809686e-09 0.0000000000000000e+00  -1.6917537493326290e-08 -1.6532496090718631e-12 0.0000000000000000e+00  -1.6629898956019308e-08 2.3551621961904923e-09 0.0000000000000000e+00  -1.5771149988149222e-08 4.6088245636680202e-09 0.0000000000000000e+00  -1.4359614582381480e-08 6.6384292530937845e-09 0.0000000000000000e+00  -1.2438718628397110e-08 8.2920811254216161e-09 0.0000000000000000e+00  -1.0094708211437205e-08 9.3828555319903456e-09 0.0000000000000000e+00  -7.4770947698459680e-09 9.6989181502939296e-09 0.0000000000000000e+00  -4.8156872492781107e-09 9.0312607070043871e-09 0.0000000000000000e+00  -2.4243572946488884e-09 7.2182231881016113e-09 0.0000000000000000e+00  -7.0084487174326847e-10 4.2006704146321532e-09 0.0000000000000000e+00  5.9729030126299990e-11 7.9910586392309729e-11 0.0000000000000000e+00  5.1192101714805940e-11 -3.8091651399271400e-11 0.0000000000000000e+00  -6.1484295186561140e-10 -2.9983868308637418e-09 0.0000000000000000e+00  -2.1503324984435045e-09 -5.1942856842679116e-09 0.0000000000000000e+00  -4.3276596334411360e-09 -6.5518690583861582e-09 0.0000000000000000e+00  -6.8054521554204167e-09 -7.0936967887102410e-09 0.0000000000000000e+00  -9.2994248842314502e-09 -6.9164669287221664e-09 0.0000000000000000e+00  -1.1583241495890919e-08 -6.1560541583856946e-09 0.0000000000000000e+00  -1.3492999188747235e-08 -4.9582206160049147e-09 0.0000000000000000e+00  -1.4919905018242019e-08 -3.4585896184042144e-09 0.0000000000000000e+00  -1.5798487275947836e-08 -1.7736658579739376e-09 0.0000000000000000e+00  -1.6094945851716985e-08 -1.5323267481887446e-12 0.0000000000000000e+00  -1.5798977516594847e-08 1.7706521829528849e-09 0.0000000000000000e+00  -1.4920865862595528e-08 3.4557305876558553e-09 0.0000000000000000e+00  -1.3494387915810372e-08 4.9556285854451042e-09 0.0000000000000000e+00  -1.1584986358481550e-08 6.1538650383455852e-09 0.0000000000000000e+00  -9.3014155590430389e-09 6.9148569817885436e-09 0.0000000000000000e+00  -6.8075365643438702e-09 7.0928834598231547e-09 0.0000000000000000e+00  -4.3295303610688997e-09 6.5520478333762067e-09 0.0000000000000000e+00  -2.1519004723554979e-09 5.1956702639142919e-09 0.0000000000000000e+00  -6.1381117475580288e-10 3.0008297086480763e-09 0.0000000000000000e+00  5.3856074473609327e-11 5.5016649601500104e-11 0.0000000000000000e+00  4.7465987255200285e-11 -2.1705594059273809e-11 0.0000000000000000e+00  -5.5289890190565444e-10 -1.9270814458395979e-09 0.0000000000000000e+00  -1.9542706445671736e-09 -3.3565671620804439e-09 0.0000000000000000e+00  -3.9696767792847924e-09 -4.2570148336018229e-09 0.0000000000000000e+00  -6.2986744983955131e-09 -4.6343366140851265e-09 0.0000000000000000e+00  -8.6794979165056556e-09 -4.5423832834430925e-09 0.0000000000000000e+00  -1.0892226585373588e-