<?xml version="1.0"?>
<VTKFile type="UnstructuredGrid"  version="0.1"  >
<UnstructuredGrid>
<Piece  NumberOfPoints="651" NumberOfCells="1200">
<Points>
<DataArray  type="Float64"  NumberOfComponents="3"  format="ascii">0 0 0  50000 0 0  100000 0 0  150000 0 0  200000 0 0  250000 0 0  300000 0 0  350000 0 0  400000 0 0  450000 0 0  500000 0 0  550000 0 0  600000 0 0  650000 0 0  700000 0 0  750000 0 0  800000 0 0  850000 0 0  900000 0 0  950000 0 0  1000000 0 0  0 50000 0  50000 50000 0  100000 50000 0  150000 50000 0  200000 50000 0  250000 50000 0  300000 50000 0  350000 50000 0  400000 50000 0  450000 50000 0  500000 50000 0  550000 50000 0  600000 50000 0  650000 50000 0  700000 50000 0  750000 50000 0  800000 50000 0  850000 50000 0  900000 50000 0  950000 50000 0  1000000 50000 0  0 100000 0  50000 100000 0  100000 100000 0  150000 100000 0  200000 100000 0  250000 100000 0  300000 100000 0  350000 100000 0  400000 100000 0  450000 100000 0  500000 100000 0  550000 100000 0  600000 100000 0  650000 100000 0  700000 100000 0  750000 100000 0  800000 100000 0  850000 100000 0  900000 100000 0  950000 100000 0  1000000 100000 0  0 150000 0  50000 150000 0  100000 150000 0  150000 150000 0  200000 150000 0  250000 150000 0  300000 150000 0  350000 150000 0  400000 150000 0  450000 150000 0  500000 150000 0  550000 150000 0  600000 150000 0  650000 150000 0  700000 150000 0  750000 150000 0  800000 150000 0  850000 150000 0  900000 150000 0  950000 150000 0  1000000 150000 0  0 200000 0  50000 200000 0  100000 200000 0  150000 200000 0  200000 200000 0  250000 200000 0  300000 200000 0  350000 200000 0  400000 200000 0  450000 200000 0  500000 200000 0  550000 200000 0  600000 200000 0  650000 200000 0  700000 200000 0  750000 200000 0  800000 200000 0  850000 200000 0  900000 200000 0  950000 200000 0  1000000 200000 0  0 250000 0  50000 250000 0  100000 250000 0  150000 250000 0  200000 250000 0  250000 250000 0  300000 250000 0  350000 250000 0  400000 250000 0  450000 250000 0  500000 250000 0  550000 250000 0  600000 250000 0  650000 250000 0  700000 250000 0  750000 250000 0  800000 250000 0  850000 250000 0  900000 250000 0  950000 250000 0  1000000 250000 0  0 300000 0  50000 300000 0  100000 300000 0  150000 300000 0  200000 300000 0  250000 300000 0  300000 300000 0  350000 300000 0  400000 300000 0  450000 300000 0  500000 300000 0  550000 300000 0  600000 300000 0  650000 300000 0  700000 300000 0  750000 300000 0  800000 300000 0  850000 300000 0  900000 300000 0  950000 300000 0  1000000 300000 0  0 350000 0  50000 350000 0  100000 350000 0  150000 350000 0  200000 350000 0  250000 350000 0  300000 350000 0  350000 350000 0  400000 350000 0  450000 350000 0  500000 350000 0  550000 350000 0  600000 350000 0  650000 350000 0  700000 350000 0  750000 350000 0  800000 350000 0  850000 350000 0  900000 350000 0  950000 350000 0  1000000 350000 0  0 400000 0  50000 400000 0  100000 400000 0  150000 400000 0  200000 400000 0  250000 400000 0  300000 400000 0  350000 400000 0  400000 400000 0  450000 400000 0  500000 400000 0  550000 400000 0  600000 400000 0  650000 400000 0  700000 400000 0  750000 400000 0  800000 400000 0  850000 400000 0  900000 400000 0  950000 400000 0  1000000 400000 0  0 450000 0  50000 450000 0  100000 450000 0  150000 450000 0  200000 450000 0  250000 450000 0  300000 450000 0  350000 450000 0  400000 450000 0  450000 450000 0  500000 450000 0  550000 450000 0  600000 450000 0  650000 450000 0  700000 450000 0  750000 450000 0  800000 450000 0  850000 450000 0  900000 450000 0  950000 450000 0  1000000 450000 0  0 500000 0  50000 500000 0  100000 500000 0  150000 500000 0  200000 500000 0  250000 500000 0  300000 500000 0  350000 500000 0  400000 500000 0  450000 500000 0  500000 500000 0  550000 500000 0  600000 500000 0  650000 500000 0  700000 500000 0  750000 500000 0  800000 500000 0  850000 500000 0  900000 500000 0  950000 500000 0  1000000 500000 0  0 550000 0  50000 550000 0  100000 550000 0  150000 550000 0  200000 550000 0  250000 550000 0  300000 550000 0  350000 550000 0  400000 550000 0  450000 550000 0  500000 550000 0  550000 550000 0  600000 550000 0  650000 550000 0  700000 550000 0  750000 550000 0  800000 550000 0  850000 550000 0  900000 550000 0  950000 550000 0  1000000 550000 0  0 600000 0  50000 600000 0  100000 600000 0  150000 600000 0  200000 600000 0  250000 600000 0  300000 600000 0  350000 600000 0  400000 600000 0  450000 600000 0  500000 600000 0  550000 600000 0  600000 600000 0  650000 600000 0  700000 600000 0  750000 600000 0  800000 600000 0  850000 600000 0  900000 600000 0  950000 600000 0  1000000 600000 0  0 650000 0  50000 650000 0  100000 650000 0  150000 650000 0  200000 650000 0  250000 650000 0  300000 650000 0  350000 650000 0  400000 650000 0  450000 650000 0  500000 650000 0  550000 650000 0  600000 650000 0  650000 650000 0  700000 650000 0  750000 650000 0  800000 650000 0  850000 650000 0  900000 650000 0  950000 650000 0  1000000 650000 0  0 700000 0  50000 700000 0  100000 700000 0  150000 700000 0  200000 700000 0  250000 700000 0  300000 700000 0  350000 700000 0  400000 700000 0  450000 700000 0  500000 700000 0  550000 700000 0  600000 700000 0  650000 700000 0  700000 700000 0  750000 700000 0  800000 700000 0  850000 700000 0  900000 700000 0  950000 700000 0  1000000 700000 0  0 750000 0  50000 750000 0  100000 750000 0  150000 750000 0  200000 750000 0  250000 750000 0  300000 750000 0  350000 750000 0  400000 750000 0  450000 750000 0  500000 750000 0  550000 750000 0  600000 750000 0  650000 750000 0  700000 750000 0  750000 750000 0  800000 750000 0  850000 750000 0  900000 750000 0  950000 750000 0  1000000 750000 0  0 800000 0  50000 800000 0  100000 800000 0  150000 800000 0  200000 800000 0  250000 800000 0  300000 800000 0  350000 800000 0  400000 800000 0  450000 800000 0  500000 800000 0  550000 800000 0  600000 800000 0  650000 800000 0  700000 800000 0  750000 800000 0  800000 800000 0  850000 800000 0  900000 800000 0  950000 800000 0  1000000 800000 0  0 850000 0  50000 850000 0  100000 850000 0  150000 850000 0  200000 850000 0  250000 850000 0  300000 850000 0  350000 850000 0  400000 850000 0  450000 850000 0  500000 850000 0  550000 850000 0  600000 850000 0  650000 850000 0  700000 850000 0  750000 850000 0  800000 850000 0  850000 850000 0  900000 850000 0  950000 850000 0  1000000 850000 0  0 900000 0  50000 900000 0  100000 900000 0  150000 900000 0  200000 900000 0  250000 900000 0  300000 900000 0  350000 900000 0  400000 900000 0  450000 900000 0  500000 900000 0  550000 900000 0  600000 900000 0  650000 900000 0  700000 900000 0  750000 900000 0  800000 900000 0  850000 900000 0  900000 900000 0  950000 900000 0  1000000 900000 0  0 950000 0  50000 950000 0  100000 950000 0  150000 950000 0  200000 950000 0  250000 950000 0  300000 950000 0  350000 950000 0  400000 950000 0  450000 950000 0  500000 950000 0  550000 950000 0  600000 950000 0  650000 950000 0  700000 950000 0  750000 950000 0  800000 950000 0  850000 950000 0  900000 950000 0  950000 950000 0  1000000 950000 0  0 1000000 0  50000 1000000 0  100000 1000000 0  150000 1000000 0  200000 1000000 0  250000 1000000 0  300000 1000000 0  350000 1000000 0  400000 1000000 0  450000 1000000 0  500000 1000000 0  550000 1000000 0  600000 1000000 0  650000 1000000 0  700000 1000000 0  750000 1000000 0  800000 1000000 0  850000 1000000 0  900000 1000000 0  950000 1000000 0  1000000 1000000 0  0 1050000 0  50000 1050000 0  100000 1050000 0  150000 1050000 0  200000 1050000 0  250000 1050000 0  300000 1050000 0  350000 1050000 0  400000 1050000 0  450000 1050000 0  500000 1050000 0  550000 1050000 0  600000 1050000 0  650000 1050000 0  700000 1050000 0  750000 1050000 0  800000 1050000 0  850000 1050000 0  900000 1050000 0  950000 1050000 0  1000000 1050000 0  0 1100000 0  50000 1100000 0  100000 1100000 0  150000 1100000 0  200000 1100000 0  250000 1100000 0  300000 1100000 0  350000 1100000 0  400000 1100000 0  450000 1100000 0  500000 1100000 0  550000 1100000 0  600000 1100000 0  650000 1100000 0  700000 1100000 0  750000 1100000 0  800000 1100000 0  850000 1100000 0  900000 1100000 0  950000 1100000 0  1000000 1100000 0  0 1150000 0  50000 1150000 0  100000 1150000 0  150000 1150000 0  200000 1150000 0  250000 1150000 0  300000 1150000 0  350000 1150000 0  400000 1150000 0  450000 1150000 0  500000 1150000 0  550000 1150000 0  600000 1150000 0  650000 1150000 0  700000 1150000 0  750000 1150000 0  800000 1150000 0  850000 1150000 0  900000 1150000 0  950000 1150000 0  1000000 1150000 0  0 1200000 0  50000 1200000 0  100000 1200000 0  150000 1200000 0  200000 1200000 0  250000 1200000 0  300000 1200000 0  350000 1200000 0  400000 1200000 0  450000 1200000 0  500000 1200000 0  550000 1200000 0  600000 1200000 0  650000 1200000 0  700000 1200000 0  750000 1200000 0  800000 1200000 0  850000 1200000 0  900000 1200000 0  950000 1200000 0  1000000 1200000 0  0 1250000 0  50000 1250000 0  100000 1250000 0  150000 1250000 0  200000 1250000 0  250000 1250000 0  300000 1250000 0  350000 1250000 0  400000 1250000 0  450000 1250000 0  500000 1250000 0  550000 1250000 0  600000 1250000 0  650000 1250000 0  700000 1250000 0  750000 1250000 0  800000 1250000 0  850000 1250000 0  900000 1250000 0  950000 1250000 0  1000000 1250000 0  0 1300000 0  50000 1300000 0  100000 1300000 0  150000 1300000 0  200000 1300000 0  250000 1300000 0  300000 1300000 0  350000 1300000 0  400000 1300000 0  450000 1300000 0  500000 1300000 0  550000 1300000 0  600000 1300000 0  650000 1300000 0  700000 1300000 0  750000 1300000 0  800000 1300000 0  850000 1300000 0  900000 1300000 0  950000 1300000 0  1000000 1300000 0  0 1350000 0  50000 1350000 0  100000 1350000 0  150000 1350000 0  200000 1350000 0  250000 1350000 0  300000 1350000 0  350000 1350000 0  400000 1350000 0  450000 1350000 0  500000 1350000 0  550000 1350000 0  600000 1350000 0  650000 1350000 0  700000 135
[...]
<PointData  Vectors="f_10477"> 
<DataArray  type="Float64"  Name="f_10477"  NumberOfComponents="3" format="ascii">-6.3811557882099137e-09 -3.5920084754508356e-09 0.0000000000000000e+00  7.4749793103930712e-08 -2.3170712346053463e-09 0.0000000000000000e+00  7.7817342198956589e-08 -1.3580928753862652e-10 0.0000000000000000e+00  7.8867728127797229e-08 2.6110568193308230e-10 0.0000000000000000e+00  7.9364051988606267e-08 2.3850127387067512e-10 0.0000000000000000e+00  7.9592584053329634e-08 1.6636756600103803e-10 0.0000000000000000e+00  7.9703264955755834e-08 1.0739423478466329e-10 0.0000000000000000e+00  7.9759118426224025e-08 6.5854871460819926e-11 0.0000000000000000e+00  7.9787067095599080e-08 3.6532811080796808e-11 0.0000000000000000e+00  7.9798922164170609e-08 1.4192005930258282e-11 0.0000000000000000e+00  7.9799280345852389e-08 -5.3547045184970319e-12 0.0000000000000000e+00  7.9788341550288737e-08 -2.5715744361976690e-11 0.0000000000000000e+00  7.9762094323874542e-08 -5.0568721688802826e-11 0.0000000000000000e+00  7.9710057479394151e-08 -8.4245403188318713e-11 0.0000000000000000e+00  7.9608726978125054e-08 -1.3204108727860511e-10 0.0000000000000000e+00  7.9404737015069088e-08 -1.9897373301422693e-10 0.0000000000000000e+00  7.8977082995250795e-08 -2.7769697009357029e-10 0.0000000000000000e+00  7.8101062435977896e-08 -2.5266609311091903e-10 0.0000000000000000e+00  7.6371838652688634e-08 7.6774347403942064e-10 0.0000000000000000e+00  7.2307514154772347e-08 5.1090558173631903e-09 0.0000000000000000e+00  -8.5082998108176997e-09 5.2024789688469865e-09 0.0000000000000000e+00  -4.4542671848298646e-09 -4.0844205905850787e-09 0.0000000000000000e+00  -5.8082685948997286e-10 -2.3094008214416968e-08 0.0000000000000000e+00  1.6894028640222373e-08 -1.3815660328646931e-08 0.0000000000000000e+00  3.0673819285909618e-08 -7.4868710440392130e-09 0.0000000000000000e+00  3.9217696022622255e-08 -4.1721345415769066e-09 0.0000000000000000e+00  4.4428749972531463e-08 -2.4183083923591073e-09 0.0000000000000000e+00  4.7623999786406028e-08 -1.4367178595291549e-09 0.0000000000000000e+00  4.9576552054493286e-08 -8.5230300532989089e-10 0.0000000000000000e+00  5.0732379779210694e-08 -4.7952945523287704e-10 0.0000000000000000e+00  5.1341763166983464e-08 -2.1703119849183751e-10 0.0000000000000000e+00  5.1531326682603382e-08 -2.0541202769912829e-12 0.0000000000000000e+00  5.1339647884565459e-08 2.1248388905257272e-10 0.0000000000000000e+00  5.0728134522216722e-08 4.7349324601675114e-10 0.0000000000000000e+00  4.9570630564316804e-08 8.4306082846750963e-10 0.0000000000000000e+00  4.7619088380672256e-08 1.4206921651647527e-09 0.0000000000000000e+00  4.4435544964358288e-08 2.3872789271113890e-09 0.0000000000000000e+00  3.9272658657216252e-08 4.1137937685451595e-09 0.0000000000000000e+00  3.0903455590528565e-08 7.4540511632534855e-09 0.0000000000000000e+00  1.7717838919304622e-08 1.4255530354417413e-08 0.0000000000000000e+00  4.2865962434344672e-10 2.4831743988886277e-08 0.0000000000000000e+00  -7.0622456107722130e-09 5.6025199959841082e-09 0.0000000000000000e+00  -1.3447737730879677e-09 -2.4183643856202762e-09 0.0000000000000000e+00  -6.7389301148323187e-09 -2.9135568227374710e-08 0.0000000000000000e+00  -3.5923743832646889e-09 -2.5020242757578485e-08 0.0000000000000000e+00  4.3161675974749882e-09 -1.7149375427043910e-08 0.0000000000000000e+00  1.2024198053621408e-08 -1.1070717957362234e-08 0.0000000000000000e+00  1.7911192498171326e-08 -7.0332768060503693e-09 0.0000000000000000e+00  2.2018199568703244e-08 -4.4257282712833717e-09 0.0000000000000000e+00  2.4739724497129338e-08 -2.7230630024494266e-09 0.0000000000000000e+00  2.6436281026671323e-08 -1.5658528815693173e-09 0.0000000000000000e+00  2.7359423282708376e-08 -7.1409039912220512e-10 0.0000000000000000e+00  2.7652011898139086e-08 1.3794667585418783e-12 0.0000000000000000e+00  2.7360164124133788e-08 7.1713899568570981e-10 0.0000000000000000e+00  2.6438775877110155e-08 1.5698769342295599e-09 0.0000000000000000e+00  2.4746830225523874e-08 2.7291657959021691e-09 0.0000000000000000e+00  2.2036974138983607e-08 4.4363251634583967e-09 0.0000000000000000e+00  1.7958974744600999e-08 7.0557275234606823e-09 0.0000000000000000e+00  1.2143133908856490e-08 1.1129940640272599e-08 0.0000000000000000e+00  4.5723228163185726e-09 1.7297964764243691e-08 0.0000000000000000e+00  -3.2388696465267343e-09 2.5206191805449415e-08 0.0000000000000000e+00  -6.3728578371773725e-09 2.8201345224013519e-08 0.0000000000000000e+00  -2.3208036837644973e-09 3.0113200000911424e-09 0.0000000000000000e+00  -1.9284089138803751e-10 -1.3332542158286631e-09 0.0000000000000000e+00  -4.9270392134091182e-09 -2.4357885975598065e-08 0.0000000000000000e+00  -7.7677239697164680e-09 -2.7499785178041388e-08 0.0000000000000000e+00  -6.4954772424375008e-09 -2.2599761479177305e-08 0.0000000000000000e+00  -2.9623825248191959e-09 -1.6511127718532585e-08 0.0000000000000000e+00  8.7385837413878154e-10 -1.1400583386568839e-08 0.0000000000000000e+00  4.1127035237779370e-09 -7.5922794512253407e-09 0.0000000000000000e+00  6.5229234383672651e-09 -4.8548614118599518e-09 0.0000000000000000e+00  8.1396849463055650e-09 -2.8628648051183972e-09 0.0000000000000000e+00  9.0592564138152688e-09 -1.3248220251187250e-09 0.0000000000000000e+00  9.3575475468886319e-09 1.2404018041948488e-12 0.0000000000000000e+00  9.0623312369263104e-09 1.3275624769660998e-09 0.0000000000000000e+00  8.1470607595088916e-09 2.8665284581995134e-09 0.0000000000000000e+00  6.5375246312570247e-09 4.8606984569594406e-09 0.0000000000000000e+00  4.1401279531112616e-09 7.6032060627709513e-09 0.0000000000000000e+00  9.2275170829960060e-10 1.1423594374865563e-08 0.0000000000000000e+00  -2.8877812958699651e-09 1.6558581651812068e-08 0.0000000000000000e+00  -6.4141875819284931e-09 2.2661631947595378e-08 0.0000000000000000e+00  -7.6981417484876129e-09 2.7389564306731067e-08 0.0000000000000000e+00  -4.7164122516947787e-09 2.3880433362951459e-08 0.0000000000000000e+00  -3.3965766598692380e-10 1.8672749270451423e-09 0.0000000000000000e+00  7.8369763498229516e-11 -8.0948844613562992e-10 0.0000000000000000e+00  -3.4129450330320259e-09 -1.9114940750184044e-08 0.0000000000000000e+00  -7.6404673256167804e-09 -2.5075469373836167e-08 0.0000000000000000e+00  -9.8119701748355189e-09 -2.3406804302140748e-08 0.0000000000000000e+00  -9.7194255633820205e-09 -1.8854811466863165e-08 0.0000000000000000e+00  -8.3922608026800623e-09 -1.4006637309922089e-08 0.0000000000000000e+00  -6.7262792451314372e-09 -9.8444237538504949e-09 0.0000000000000000e+00  -5.2207357470321002e-09 -6.5433133250337354e-09 0.0000000000000000e+00  -4.0906915401463757e-09 -3.9607765793735870e-09 0.0000000000000000e+00  -3.4049025604808094e-09 -1.8611824166503815e-09 0.0000000000000000e+00  -3.1753282203403318e-09 9.1016430269860757e-13 0.0000000000000000e+00  -3.4014310591687216e-09 1.8632352824153380e-09 0.0000000000000000e+00  -4.0830666446138232e-09 3.9636599083792535e-09 0.0000000000000000e+00  -5.2076436795795899e-09 6.5480682184335309e-09 0.0000000000000000e+00  -6.7061946060512875e-09 9.8527913128650096e-09 0.0000000000000000e+00  -8.3648307180812994e-09 1.4019984740369586e-08 0.0000000000000000e+00  -9.6875633241228914e-09 1.8866916404015816e-08 0.0000000000000000e+00  -9.7853430646763535e-09 2.3385977054865310e-08 0.0000000000000000e+00  -7.6164807338697303e-09 2.4950751735734849e-08 0.0000000000000000e+00  -3.3287000556720191e-09 1.8947942901333526e-08 0.0000000000000000e+00  3.1963942452529807e-11 1.1812944052008970e-09 0.0000000000000000e+00  1.1930345937223480e-10 -5.1638497973896277e-10 0.0000000000000000e+00  -2.4625489482191778e-09 -1.4793342552270003e-08 0.0000000000000000e+00  -6.5253315063195800e-09 -2.1139210038976174e-08 0.0000000000000000e+00  -9.9390474353609148e-09 -2.1495748651330701e-08 0.0000000000000000e+00  -1.1798523146019080e-08 -1.8651936058498435e-08 0.0000000000000000e+00  -1.2350595296577538e-08 -1.4726775817611836e-08 0.0000000000000000e+00  -1.2140279780732321e-08 -1.0858470099946453e-08 0.0000000000000000e+00  -1.1630962229874410e-08 -7.4820359547895688e-09 0.0000000000000000e+00  -1.1118556071129435e-08 -4.6443062131966791e-09 0.0000000000000000e+00  -1.0762698427083490e-08 -2.2153421819211879e-09 0.0000000000000000e+00  -1.0636367398263561e-08 2.7250281259864185e-13 0.0000000000000000e+00  -1.0759986449879582e-08 2.2160270770167529e-09 0.0000000000000000e+00  -1.1113013709537255e-08 4.6454591424733491e-09 0.0000000000000000e+00  -1.1622536449827031e-08 7.4840544326029783e-09 0.0000000000000000e+00  -1.2129388277618122e-08 1.0861440347172964e-08 0.0000000000000000e+00  -1.2338703974100717e-08 1.4728782318705896e-08 0.0000000000000000e+00  -1.1788137369905730e-08 1.8644682400708183e-08 0.0000000000000000e+00  -9.9316730136956484e-09 2.1460648690802137e-08 0.0000000000000000e+00  -6.5203995789669930e-09 2.1070313314654840e-08 0.0000000000000000e+00  -2.4339671384137076e-09 1.4742318486707174e-08 0.0000000000000000e+00  1.0393072701244125e-10 7.3974661393146842e-10 0.0000000000000000e+00  1.1031398801732316e-10 -3.4292775970825797e-10 0.0000000000000000e+00  -1.8235754127271589e-09 -1.1386288402996438e-08 0.0000000000000000e+00  -5.2954124517319164e-09 -1.7161463433685285e-08 0.0000000000000000e+00  -8.8481345753722085e-09 -1.8491297923065720e-08 0.0000000000000000e+00  -1.1515797771058905e-08 -1.6956897599524465e-08 0.0000000000000000e+00  -1.3140837073108770e-08 -1.4055984583912345e-08 0.0000000000000000e+00  -1.3943854167710009e-08 -1.0791689311207163e-08 0.0000000000000000e+00  -1.4234989789951077e-08 -7.6754122912411979e-09 0.0000000000000000e+00  -1.4274050710692799e-08 -4.8739007490702127e-09 0.0000000000000000e+00  -1.4234632919949046e-08 -2.3570847621547178e-09 0.0000000000000000e+00  -1.4211134479972818e-08 -3.2599877759542657e-13 0.0000000000000000e+00  -1.4233030594536666e-08 2.3564824899839075e-09 0.0000000000000000e+00  -1.4270994831610089e-08 4.8734227205860778e-09 0.0000000000000000e+00  -1.4230862037734463e-08 7.6749612805916116e-09 0.0000000000000000e+00  -1.3939390138734792e-08 1.0790515845460857e-08 0.0000000000000000e+00  -1.3137175635421709e-08 1.4051658682552289e-08 0.0000000000000000e+00  -1.1514298899927710e-08 1.6944300310917041e-08 0.0000000000000000e+00  -8.8488966745336224e-09 1.8465123171781921e-08 0.0000000000000000e+00  -5.2991900646161815e-09 1.7129614761018384e-08 0.0000000000000000e+00  -1.8124904223569108e-09 1.1373442187772982e-08 0.0000000000000000e+00  1.0979892040619105e-10 4.7968977273192376e-10 0.0000000000000000e+00  9.2269731890826721e-11 -2.3507275863621625e-10 0.0000000000000000e+00  -1.3657037465251231e-09 -8.7387062976978178e-09 0.0000000000000000e+00  -4.1943393969552169e-09 -1.3645605558750341e-08 0.0000000000000000e+00  -7.4220295445647125e-09 -1.5304829297327565e-08 0.0000000000000000e+00  -1.0227951523058427e-08 -1.4618211354679603e-08 0.0000000000000000e+00  -1.2306933706570699e-08 -1.2585391996748966e-08 0.0000000000000000e+00  -1.3673621690944499e-08 -9.9861758198355486e-09 0.0000000000000000e+00  -1.4486209166825692e-08 -7.2944872455967154e-09 0.0000000000000000e+00  -1.4923981008675294e-08 -4.7236210206925101e-09 0.0000000000000000e+00  -1.5129011254169934e-08 -2.3120380917133291e-09 0.0000000000000000e+00  -1.5187608163794769e-08 -7.9618224644007549e-13 0.0000000000000000e+00  -1.5128336538808146e-08 2.3104277412764300e-09 0.0000000000000000e+00  -1.4922815435983582e-08 4.7219021486512269e-09 0.0000000000000000e+00  -1.4484927387243156e-08 7.2923494912149281e-09 0.0000000000000000e+00  -1.3672777990548315e-08 9.9827911587781014e-09 0.0000000000000000e+00  -1.2307213043514216e-08 1.2579128724643885e-08 0.0000000000000000e+00  -1.0230073433749085e-08 1.4607081307811787e-08 0.0000000000000000e+00  -7.4258814001778141e-09 1.5289047999176797e-08 0.0000000000000000e+00  -4.2001993438324729e-09 1.3632259156780939e-08 0.0000000000000000e+00  -1.3597026746064421e-09 8.7383223712475067e-09 0.0000000000000000e+00  9.7761965853908767e-11 3.2235287845561759e-10 0.0000000000000000e+00  7.4834275018853392e-11 -1.6506841549232213e-10 0.0000000000000000e+00  -1.0323286655601750e-09 -6.6933553649233845e-09 0.0000000000000000e+00  -3.2925574609996923e-09 -1.0707089852362181e-08 0.0000000000000000e+00  -6.0560932977973087e-09 -1.2352304106878723e-08 0.0000000000000000e+00  -8.6782600964353894e-09 -1.2155338030347022e-08 0.0000000000000000e+00  -1.0833415684526254e-08 -1.0772187189314131e-08 0.0000000000000000e+00  -1.2430916125084013e-08 -8.7728528672738941e-09 0.0000000000000000e+00  -1.3518905769461987e-08 -6.5484279464689282e-09 0.0000000000000000e+00  -1.4196952067253232e-08 -4.3097496019054989e-09 0.0000000000000000e+00  -1.4560728885819706e-08 -2.1308051267787358e-09 0.0000000000000000e+00  -1.4674525809105924e-08 -1.1104274794644171e-12 0.0000000000000000e+00  -1.4560646521866417e-08 2.1285310299532946e-09 0.0000000000000000e+00  -1.4196921217376124e-08 4.3072669465816447e-09 0.0000000000000000e+00  -1.3519178666298452e-08 6.5454228443065696e-09 0.0000000000000000e+00  -1.2431833955358583e-08 8.7687536539571666e-09 0.0000000000000000e+00  -1.0835364491150141e-08 1.0766250817272343e-08 0.0000000000000000e+00  -8.6815994916143036e-09 1.2147296961098349e-08 0.0000000000000000e+00  -6.0605348987866463e-09 1.2343656034356005e-08 0.0000000000000000e+00  -3.2978821088964710e-09 1.0702380167693554e-08 0.0000000000000000e+00  -1.0282767709229034e-09 6.6968092054353632e-09 0.0000000000000000e+00  8.1808896489827429e-11 2.2278828371305526e-10 0.0000000000000000e+00  6.0418988819149032e-11 -1.1777743481319189e-10 0.0000000000000000e+00  -7.9256463416413923e-10 -5.1077011366930462e-09 0.0000000000000000e+00  -2.5963386123493162e-09 -8.3058500770529447e-09 0.0000000000000000e+00  -4.9077185539062558e-09 -9.7733110878207341e-09 0.0000000000000000e+00  -7.2324991169080053e-09 -9.8275239940493396e-09 0.0000000000000000e+00  -9.2743331436855252e-09 -8.8997432052339319e-09 0.0000000000000000e+00  -1.0899996287125558e-08 -7.3944101304638062e-09 0.0000000000000000e+00  -1.2090372718243406e-08 -5.6141324260126125e-09 0.0000000000000000e+00  -1.2883870049752220e-08 -3.7429176811130176e-09 0.0000000000000000e+00  -1.3333023642295466e-08 -1.8656470175410080e-09 0.0000000000000000e+00  -1.3477932971174437e-08 -1.2834899329039383e-12 0.0000000000000000e+00  -1.3333243518764032e-08 1.8630213142063725e-09 0.0000000000000000e+00  -1.2884390510952876e-08 3.7400878613555609e-09 0.0000000000000000e+00  -1.2091341439261044e-08 5.6108797062223581e-09 0.0000000000000000e+00  -1.0901605732287156e-08 7.3904550553050978e-09 0.0000000000000000e+00  -9.2767828137591217e-09 8.8949194303176273e-09 0.0000000000000000e+00  -7.2359227320379099e-09 9.8222132728527003e-09 0.0000000000000000e+00  -4.9117201300960382e-09 9.7689060684112722e-09 0.0000000000000000e+00  -2.6005285951403870e-09 8.3050165239371288e-09 0.0000000000000000e+00  -7.8969466375448963e-10 5.1119569104220862e-09 0.0000000000000000e+00  6.6868877024596877e-11 1.5731938049028699e-10 0.0000000000000000e+00  4.9364228770344169e-11 -8.4360844127499864e-11 0.0000000000000000e+00  -6.2372665491815902e-10 -3.8605377571793748e-09 0.0000000000000000e+00  -2.0822303330433184e-09 -6.3469818975709772e-09 0.0000000000000000e+00  -4.0129953226365364e-09 -7.5709627598939811e-09 0.0000000000000000e+00  -6.0351651698112251e-09 -7.7308856363059793e-09 0.0000000000000000e+00  -7.8939183711360767e-09 -7.1125697091676798e-09 0.0000000000000000e+00  -9.4462018665802841e-09 -5.9985210244648055e-09 0.0000000000000000e+00  -1.0636911067834889e-08 -4.6135879934156475e-09 0.0000000000000000e+00  -1.1463852817905319e-08 -3.1066599464915834e-09 0.0000000000000000e+00  -1.1946665919545799e-08 -1.5583470290379442e-09 0.0000000000000000e+00  -1.2105097414777533e-08 -1.3482777893046239e-12 0.0000000000000000e+00  -1.1946995059609257e-08 1.5556061985076082e-09 0.0000000000000000e+00  -1.1464556732982275e-08 3.1037780258820086e-09 0.0000000000000000e+00  -1.0638072022571964e-08 4.6104578479758700e-09 0.0000000000000000e+00  -9.4479217368550019e-09 5.9950745232042168e-09 0.0000000000000000e+00  -7.8962830436652706e-09 7.1089179200961797e-09 0.0000000000000000e+00  -6.0381773336779674e-09 7.7275383321656111e-09 0.0000000000000000e+00  -4.0162496497631653e-09 7.5689252076894701e-09 0.0000000000000000e+00  -2.0853477507714445e-09 6.3477591881656628e-09 0.0000000000000000e+00  -6.2173207943363020e-10 3.8645127664368939e-09 0.0000000000000000e+00  5.4593440709256650e-11 1.1258720203421091e-10 0.0000000000000000e+00  4.1324586005959543e-11 -5.9460650004743048e-11 0.0000000000000000e+00  -5.0744128626425633e-10 -2.8548067590130305e-09 0.0000000000000000e+00  -1.7160670922475518e-09 -4.7271193139402721e-09 0.0000000000000000e+00  -3.3520272153625898e-09 -5.6908887794494087e-09 0.0000000000000000e+00  -5.1143276535245220e-09 -5.8734261184762255e-09 0.0000000000000000e+00  -6.7863426735393554e-09 -5.4646618540239344e-09 0.0000000000000000e+00  -8.2294803979743138e-09 -4.6588608516929468e-09 0.0000000000000000e+00  -9.3719730977293305e-09 -3.6174442924702013e-09 0.0000000000000000e+00  -1.0187369370181127e-08 -2.4540122363329569e-09 0.0000000000000000e+00  -1.0673136475371638e-08 -1.2368716520612077e-09 0.0000000000000000e+00  -1.0834257456760286e-08 -1.3430534208887831e-12 0.0000000000000000e+00  -1.0673464694868836e-08 1.2341643894746699e-09 0.0000000000000000e+00  -1.0188051671026608e-08 2.4512453506808039e-09 0.0000000000000000e+00  -9.3730546878399237e-09 3.6146009442106814e-09 0.0000000000000000e+00  -8.2310110968339129e-09 4.6559933091835188e-09 0.0000000000000000e+00  -6.7883451219374561e-09 5.4619755257657190e-09 0.0000000000000000e+00  -5.1167443847529346e-09 5.8713673756565582e-09 0.0000000000000000e+00  -3.3545074841403191e-09 5.6901116631753634e-09 0.0000000000000000e+00  -1.7183034807489741e-09 4.7284502106876423e-09 0.0000000000000000e+00  -5.0609600843373573e-10 2.8581819018272154e-09 0.0000000000000000e+00  4.5239887876308533e-11 8.0626380232431769e-11 0.0000000000000000e+00  3.5781864118392915e-11 -3.9764304480069820e-11 0.0000000000000000e+00  -4.2951629451257816e-10 -2.0160949972863308e-09 0.0000000000000000e+00  -1.4648838279457457e-09 -3.3535124055842829e-09 0.0000000000000000e+00  -2.8869362783819184e-09 -4.0616431843074324e-09 0.0000000000000000e+00  -4.4482100589676903e-09 -4.2220304738011298e-09 0.0000000000000000e+00  -5.9618291340224481e-09 -3.9584767833324078e-09 0.0000000000000000e+00  -7.2979787242464265e-09 -3.4002568740882921e-09 0.0000000000000000e+00  -8.3786940748406947e-09 -2.6579247504406434e-09 0.0000000000000000e+00  -9.1642966760041163e-09 -1.8126574671127504e-09 0.0000000000000000e+00  -9.6386471172179525e-09 -9.1682413198637285e-10 0.0000000000000000e+00  -9.7970893095828530e-09 -1.3030479136076603e-12 0.0000000000000000e+00  -9.6389183462260405e-09 9.1421999641748157e-10 0.0000000000000000e+00  -9.1648539829823449e-09 1.8100680785567064e-09 0.0000000000000000e+00  -8.3795618951832865e-09 2.6553939884902366e-09 0.0000000000000000e+00  -7.2991785759393744e-09 3.3978932160102858e-09 0.0000000000000000e+00  -5.9633544423341887e-09 3.9564937042445088e-09 0.0000000000000000e+00  -4.4499895948877229e-09 4.2207685522367684e-09 0.0000000000000000e+00  -2.8887019062917822e-09 4.0615042858164277e-09 0.0000000000000000e+00  -1.4664118793950191e-09 3.3549389049966607e-09 0.0000000000000000e+00  -4.2864188441748742e-10 2.0188758559439634e-09 0.0000000000000000e+00  3.8512234539574219e-11 5.6558721988260784e-11 0.0000000000000000e+00  3.2266440255931693e-11 -2.3161572401173372e-11 0.0000000000000000e+00  -3.7995185859168988e-10 -1.2881881616634678e-09 0.0000000000000000e+00  -1.3027128342002703e-09 -2.1487781759226645e-09 0.0000000000000000e+00  -2.5814671384660530e-09 -2.6123441708857308e-09 0.0000000000000000e+00  -4.0024611386062883e-09 -2.7278706466908179e-09 0.0000000000000000e+00  -5.3993254297125861e-09 -2.5702797196623791e-09 0.0000000000000000e+00  -6.65046012013