<?xml version="1.0"?>
<VTKFile type="UnstructuredGrid"  version="0.1"  >
<UnstructuredGrid>
<Piece  NumberOfPoints="651" NumberOfCells="1200">
<Points>
<DataArray  type="Float64"  NumberOfComponents="3"  format="ascii">0 0 0  50000 0 0  100000 0 0  150000 0 0  200000 0 0  250000 0 0  300000 0 0  350000 0 0  400000 0 0  450000 0 0  500000 0 0  550000 0 0  600000 0 0  650000 0 0  700000 0 0  750000 0 0  800000 0 0  850000 0 0  900000 0 0  950000 0 0  1000000 0 0  0 50000 0  50000 50000 0  100000 50000 0  150000 50000 0  200000 50000 0  250000 50000 0  300000 50000 0  350000 50000 0  400000 50000 0  450000 50000 0  500000 50000 0  550000 50000 0  600000 50000 0  650000 50000 0  700000 50000 0  750000 50000 0  800000 50000 0  850000 50000 0  900000 50000 0  950000 50000 0  1000000 50000 0  0 100000 0  50000 100000 0  100000 100000 0  150000 100000 0  200000 100000 0  250000 100000 0  300000 100000 0  350000 100000 0  400000 100000 0  450000 100000 0  500000 100000 0  550000 100000 0  600000 100000 0  650000 100000 0  700000 100000 0  750000 100000 0  800000 100000 0  850000 100000 0  900000 100000 0  950000 100000 0  1000000 100000 0  0 150000 0  50000 150000 0  100000 150000 0  150000 150000 0  200000 150000 0  250000 150000 0  300000 150000 0  350000 150000 0  400000 150000 0  450000 150000 0  500000 150000 0  550000 150000 0  600000 150000 0  650000 150000 0  700000 150000 0  750000 150000 0  800000 150000 0  850000 150000 0  900000 150000 0  950000 150000 0  1000000 150000 0  0 200000 0  50000 200000 0  100000 200000 0  150000 200000 0  200000 200000 0  250000 200000 0  300000 200000 0  350000 200000 0  400000 200000 0  450000 200000 0  500000 200000 0  550000 200000 0  600000 200000 0  650000 200000 0  700000 200000 0  750000 200000 0  800000 200000 0  850000 200000 0  900000 200000 0  950000 200000 0  1000000 200000 0  0 250000 0  50000 250000 0  100000 250000 0  150000 250000 0  200000 250000 0  250000 250000 0  300000 250000 0  350000 250000 0  400000 250000 0  450000 250000 0  500000 250000 0  550000 250000 0  600000 250000 0  650000 250000 0  700000 250000 0  750000 250000 0  800000 250000 0  850000 250000 0  900000 250000 0  950000 250000 0  1000000 250000 0  0 300000 0  50000 300000 0  100000 300000 0  150000 300000 0  200000 300000 0  250000 300000 0  300000 300000 0  350000 300000 0  400000 300000 0  450000 300000 0  500000 300000 0  550000 300000 0  600000 300000 0  650000 300000 0  700000 300000 0  750000 300000 0  800000 300000 0  850000 300000 0  900000 300000 0  950000 300000 0  1000000 300000 0  0 350000 0  50000 350000 0  100000 350000 0  150000 350000 0  200000 350000 0  250000 350000 0  300000 350000 0  350000 350000 0  400000 350000 0  450000 350000 0  500000 350000 0  550000 350000 0  600000 350000 0  650000 350000 0  700000 350000 0  750000 350000 0  800000 350000 0  850000 350000 0  900000 350000 0  950000 350000 0  1000000 350000 0  0 400000 0  50000 400000 0  100000 400000 0  150000 400000 0  200000 400000 0  250000 400000 0  300000 400000 0  350000 400000 0  400000 400000 0  450000 400000 0  500000 400000 0  550000 400000 0  600000 400000 0  650000 400000 0  700000 400000 0  750000 400000 0  800000 400000 0  850000 400000 0  900000 400000 0  950000 400000 0  1000000 400000 0  0 450000 0  50000 450000 0  100000 450000 0  150000 450000 0  200000 450000 0  250000 450000 0  300000 450000 0  350000 450000 0  400000 450000 0  450000 450000 0  500000 450000 0  550000 450000 0  600000 450000 0  650000 450000 0  700000 450000 0  750000 450000 0  800000 450000 0  850000 450000 0  900000 450000 0  950000 450000 0  1000000 450000 0  0 500000 0  50000 500000 0  100000 500000 0  150000 500000 0  200000 500000 0  250000 500000 0  300000 500000 0  350000 500000 0  400000 500000 0  450000 500000 0  500000 500000 0  550000 500000 0  600000 500000 0  650000 500000 0  700000 500000 0  750000 500000 0  800000 500000 0  850000 500000 0  900000 500000 0  950000 500000 0  1000000 500000 0  0 550000 0  50000 550000 0  100000 550000 0  150000 550000 0  200000 550000 0  250000 550000 0  300000 550000 0  350000 550000 0  400000 550000 0  450000 550000 0  500000 550000 0  550000 550000 0  600000 550000 0  650000 550000 0  700000 550000 0  750000 550000 0  800000 550000 0  850000 550000 0  900000 550000 0  950000 550000 0  1000000 550000 0  0 600000 0  50000 600000 0  100000 600000 0  150000 600000 0  200000 600000 0  250000 600000 0  300000 600000 0  350000 600000 0  400000 600000 0  450000 600000 0  500000 600000 0  550000 600000 0  600000 600000 0  650000 600000 0  700000 600000 0  750000 600000 0  800000 600000 0  850000 600000 0  900000 600000 0  950000 600000 0  1000000 600000 0  0 650000 0  50000 650000 0  100000 650000 0  150000 650000 0  200000 650000 0  250000 650000 0  300000 650000 0  350000 650000 0  400000 650000 0  450000 650000 0  500000 650000 0  550000 650000 0  600000 650000 0  650000 650000 0  700000 650000 0  750000 650000 0  800000 650000 0  850000 650000 0  900000 650000 0  950000 650000 0  1000000 650000 0  0 700000 0  50000 700000 0  100000 700000 0  150000 700000 0  200000 700000 0  250000 700000 0  300000 700000 0  350000 700000 0  400000 700000 0  450000 700000 0  500000 700000 0  550000 700000 0  600000 700000 0  650000 700000 0  700000 700000 0  750000 700000 0  800000 700000 0  850000 700000 0  900000 700000 0  950000 700000 0  1000000 700000 0  0 750000 0  50000 750000 0  100000 750000 0  150000 750000 0  200000 750000 0  250000 750000 0  300000 750000 0  350000 750000 0  400000 750000 0  450000 750000 0  500000 750000 0  550000 750000 0  600000 750000 0  650000 750000 0  700000 750000 0  750000 750000 0  800000 750000 0  850000 750000 0  900000 750000 0  950000 750000 0  1000000 750000 0  0 800000 0  50000 800000 0  100000 800000 0  150000 800000 0  200000 800000 0  250000 800000 0  300000 800000 0  350000 800000 0  400000 800000 0  450000 800000 0  500000 800000 0  550000 800000 0  600000 800000 0  650000 800000 0  700000 800000 0  750000 800000 0  800000 800000 0  850000 800000 0  900000 800000 0  950000 800000 0  1000000 800000 0  0 850000 0  50000 850000 0  100000 850000 0  150000 850000 0  200000 850000 0  250000 850000 0  300000 850000 0  350000 850000 0  400000 850000 0  450000 850000 0  500000 850000 0  550000 850000 0  600000 850000 0  650000 850000 0  700000 850000 0  750000 850000 0  800000 850000 0  850000 850000 0  900000 850000 0  950000 850000 0  1000000 850000 0  0 900000 0  50000 900000 0  100000 900000 0  150000 900000 0  200000 900000 0  250000 900000 0  300000 900000 0  350000 900000 0  400000 900000 0  450000 900000 0  500000 900000 0  550000 900000 0  600000 900000 0  650000 900000 0  700000 900000 0  750000 900000 0  800000 900000 0  850000 900000 0  900000 900000 0  950000 900000 0  1000000 900000 0  0 950000 0  50000 950000 0  100000 950000 0  150000 950000 0  200000 950000 0  250000 950000 0  300000 950000 0  350000 950000 0  400000 950000 0  450000 950000 0  500000 950000 0  550000 950000 0  600000 950000 0  650000 950000 0  700000 950000 0  750000 950000 0  800000 950000 0  850000 950000 0  900000 950000 0  950000 950000 0  1000000 950000 0  0 1000000 0  50000 1000000 0  100000 1000000 0  150000 1000000 0  200000 1000000 0  250000 1000000 0  300000 1000000 0  350000 1000000 0  400000 1000000 0  450000 1000000 0  500000 1000000 0  550000 1000000 0  600000 1000000 0  650000 1000000 0  700000 1000000 0  750000 1000000 0  800000 1000000 0  850000 1000000 0  900000 1000000 0  950000 1000000 0  1000000 1000000 0  0 1050000 0  50000 1050000 0  100000 1050000 0  150000 1050000 0  200000 1050000 0  250000 1050000 0  300000 1050000 0  350000 1050000 0  400000 1050000 0  450000 1050000 0  500000 1050000 0  550000 1050000 0  600000 1050000 0  650000 1050000 0  700000 1050000 0  750000 1050000 0  800000 1050000 0  850000 1050000 0  900000 1050000 0  950000 1050000 0  1000000 1050000 0  0 1100000 0  50000 1100000 0  100000 1100000 0  150000 1100000 0  200000 1100000 0  250000 1100000 0  300000 1100000 0  350000 1100000 0  400000 1100000 0  450000 1100000 0  500000 1100000 0  550000 1100000 0  600000 1100000 0  650000 1100000 0  700000 1100000 0  750000 1100000 0  800000 1100000 0  850000 1100000 0  900000 1100000 0  950000 1100000 0  1000000 1100000 0  0 1150000 0  50000 1150000 0  100000 1150000 0  150000 1150000 0  200000 1150000 0  250000 1150000 0  300000 1150000 0  350000 1150000 0  400000 1150000 0  450000 1150000 0  500000 1150000 0  550000 1150000 0  600000 1150000 0  650000 1150000 0  700000 1150000 0  750000 1150000 0  800000 1150000 0  850000 1150000 0  900000 1150000 0  950000 1150000 0  1000000 1150000 0  0 1200000 0  50000 1200000 0  100000 1200000 0  150000 1200000 0  200000 1200000 0  250000 1200000 0  300000 1200000 0  350000 1200000 0  400000 1200000 0  450000 1200000 0  500000 1200000 0  550000 1200000 0  600000 1200000 0  650000 1200000 0  700000 1200000 0  750000 1200000 0  800000 1200000 0  850000 1200000 0  900000 1200000 0  950000 1200000 0  1000000 1200000 0  0 1250000 0  50000 1250000 0  100000 1250000 0  150000 1250000 0  200000 1250000 0  250000 1250000 0  300000 1250000 0  350000 1250000 0  400000 1250000 0  450000 1250000 0  500000 1250000 0  550000 1250000 0  600000 1250000 0  650000 1250000 0  700000 1250000 0  750000 1250000 0  800000 1250000 0  850000 1250000 0  900000 1250000 0  950000 1250000 0  1000000 1250000 0  0 1300000 0  50000 1300000 0  100000 1300000 0  150000 1300000 0  200000 1300000 0  250000 1300000 0  300000 1300000 0  350000 1300000 0  400000 1300000 0  450000 1300000 0  500000 1300000 0  550000 1300000 0  600000 1300000 0  650000 1300000 0  700000 1300000 0  750000 1300000 0  800000 1300000 0  850000 1300000 0  900000 1300000 0  950000 1300000 0  1000000 1300000 0  0 1350000 0  50000 1350000 0  100000 1350000 0  150000 1350000 0  200000 1350000 0  250000 1350000 0  300000 1350000 0  350000 1350000 0  400000 1350000 0  450000 1350000 0  500000 1350000 0  550000 1350000 0  600000 1350000 0  650000 1350000 0  700000 135
[...]
<PointData  Vectors="f_10477"> 
<DataArray  type="Float64"  Name="f_10477"  NumberOfComponents="3" format="ascii">-6.1096899473720118e-09 -3.4081233945392835e-09 0.0000000000000000e+00  7.5010968719875857e-08 -2.2006812383510841e-09 0.0000000000000000e+00  7.7981143515353855e-08 -8.3901756133529667e-11 0.0000000000000000e+00  7.8950862209395219e-08 2.9093170685268578e-10 0.0000000000000000e+00  7.9421396552646224e-08 2.6390357443324401e-10 0.0000000000000000e+00  7.9646196102657488e-08 1.9140305232585349e-10 0.0000000000000000e+00  7.9760771386929929e-08 1.3036740176418120e-10 0.0000000000000000e+00  7.9821976930521693e-08 8.4313570096511786e-11 0.0000000000000000e+00  7.9854226459819559e-08 4.8718025327360616e-11 0.0000000000000000e+00  7.9868465292179386e-08 1.9144171985567265e-11 0.0000000000000000e+00  7.9869085195570394e-08 -7.9841551685409342e-12 0.0000000000000000e+00  7.9856310019475508e-08 -3.5780361293838723e-11 0.0000000000000000e+00  7.9826341208987244e-08 -6.7367734777058824e-11 0.0000000000000000e+00  7.9769441207450786e-08 -1.0630732379490360e-10 0.0000000000000000e+00  7.9664220643006184e-08 -1.5687504686613927e-10 0.0000000000000000e+00  7.9462362377651337e-08 -2.2320961500016804e-10 0.0000000000000000e+00  7.9052922406467429e-08 -2.9968340224947579e-10 0.0000000000000000e+00  7.8226757930883963e-08 -2.8605597405401247e-10 0.0000000000000000e+00  7.6582032126721503e-08 6.6882711828168608e-10 0.0000000000000000e+00  7.2531042737806126e-08 4.9595482293527755e-09 0.0000000000000000e+00  -8.3154252916933996e-09 5.0917805911985813e-09 0.0000000000000000e+00  -4.2750743615754339e-09 -3.8444047786682465e-09 0.0000000000000000e+00  -7.9671221432225264e-10 -2.3346886500119229e-08 0.0000000000000000e+00  1.7258891092970453e-08 -1.4048399342257859e-08 0.0000000000000000e+00  3.1679153980581106e-08 -7.8189206945701746e-09 0.0000000000000000e+00  4.0952756515321429e-08 -4.5713113503100918e-09 0.0000000000000000e+00  4.6915400267002528e-08 -2.8204112770878611e-09 0.0000000000000000e+00  5.0806706314386871e-08 -1.7929926256201417e-09 0.0000000000000000e+00  5.3339973413316200e-08 -1.1334782415022286e-09 0.0000000000000000e+00  5.4925572891296951e-08 -6.7132627618393870e-10 0.0000000000000000e+00  5.5796851953552756e-08 -3.1421512941452735e-10 0.0000000000000000e+00  5.6074384107429916e-08 -3.4128593966691025e-12 0.0000000000000000e+00  5.5795511562070416e-08 3.0699087026581799e-10 0.0000000000000000e+00  5.4922949303049107e-08 6.6279008324542658e-10 0.0000000000000000e+00  5.3336562565865994e-08 1.1222215816335827e-09 0.0000000000000000e+00  5.0804949814057635e-08 1.7760497521919753e-09 0.0000000000000000e+00  4.6924873715641151e-08 2.7904596868134500e-09 0.0000000000000000e+00  4.1006448123411066e-08 4.5158196487513147e-09 0.0000000000000000e+00  3.1895115559868048e-08 7.7846413313944388e-09 0.0000000000000000e+00  1.8038891423803471e-08 1.4469240455730330e-08 0.0000000000000000e+00  2.4485157042246394e-10 2.5072567519214441e-08 0.0000000000000000e+00  -6.8693945722581525e-09 5.4252001018261367e-09 0.0000000000000000e+00  -1.2777424559437455e-09 -2.2061617051504048e-09 0.0000000000000000e+00  -6.5304269813873336e-09 -2.9609391863846868e-08 0.0000000000000000e+00  -2.7634989542951249e-09 -2.5966718778003166e-08 0.0000000000000000e+00  6.1036862694940022e-09 -1.8413884259693983e-08 0.0000000000000000e+00  1.4961163012102929e-08 -1.2474092607314882e-08 0.0000000000000000e+00  2.2033193141594066e-08 -8.4053555431819190e-09 0.0000000000000000e+00  2.7239557915444965e-08 -5.6324128883314558e-09 0.0000000000000000e+00  3.0884782286616969e-08 -3.6762396755151536e-09 0.0000000000000000e+00  3.3271023878506969e-08 -2.2175502391089167e-09 0.0000000000000000e+00  3.4617635518437043e-08 -1.0434602569075085e-09 0.0000000000000000e+00  3.5052985891810558e-08 9.1486553606555408e-13 0.0000000000000000e+00  3.4619267138167719e-08 1.0455606963803330e-09 0.0000000000000000e+00  3.3275255707601269e-08 2.2205661150339128e-09 0.0000000000000000e+00  3.0894291547212899e-08 3.6812135424466456e-09 0.0000000000000000e+00  2.7260872034616977e-08 5.6416077888528785e-09 0.0000000000000000e+00  2.2082301877179540e-08 8.4256736664385420e-09 0.0000000000000000e+00  1.5076863819437080e-08 1.2529647958123271e-08 0.0000000000000000e+00  6.3449306881087718e-09 1.8559477329162205e-08 0.0000000000000000e+00  -2.4413582911971280e-09 2.6168667405197858e-08 0.0000000000000000e+00  -6.1301791394505481e-09 2.8701106737019243e-08 0.0000000000000000e+00  -2.1966519126997764e-09 2.7884441432029932e-09 0.0000000000000000e+00  -1.8760151591583228e-10 -1.2075763690384547e-09 0.0000000000000000e+00  -4.5671449368304049e-09 -2.5261648723691049e-08 0.0000000000000000e+00  -6.7003816883942884e-09 -2.9327248758023477e-08 0.0000000000000000e+00  -4.3822929067840025e-09 -2.5025997503422456e-08 0.0000000000000000e+00  3.9664284646544800e-10 -1.9186062200583795e-08 0.0000000000000000e+00  5.5229242697541450e-09 -1.4013651224596646e-08 0.0000000000000000e+00  9.9685273255284593e-09 -9.8982684115119039e-09 0.0000000000000000e+00  1.3402894346883891e-08 -6.6860739384508537e-09 0.0000000000000000e+00  1.5791866078529335e-08 -4.1214386494318106e-09 0.0000000000000000e+00  1.7189234516324905e-08 -1.9632635758540152e-09 0.0000000000000000e+00  1.7649183486870363e-08 4.2060328166331159e-13 0.0000000000000000e+00  1.7192943654244638e-08 1.9643473843161826e-09 0.0000000000000000e+00  1.5800392348818744e-08 4.1233931061170357e-09 0.0000000000000000e+00  1.3418872096741805e-08 6.6901028181592965e-09 0.0000000000000000e+00  9.9969755860212256e-09 9.9072076211144889e-09 0.0000000000000000e+00  5.5714694042334812e-09 1.4034428678805988e-08 0.0000000000000000e+00  4.6821587055423941e-10 1.9231658886965637e-08 0.0000000000000000e+00  -4.3064673976018073e-09 2.5090243045387082e-08 0.0000000000000000e+00  -6.6377184547252056e-09 2.9237133130168488e-08 0.0000000000000000e+00  -4.3500641814952623e-09 2.4816286280990125e-08 0.0000000000000000e+00  -3.1671992606408725e-10 1.7010999865444542e-09 0.0000000000000000e+00  6.3024247304014267e-11 -7.4337004266126612e-10 0.0000000000000000e+00  -3.0856196777944620e-09 -2.0558225709191997e-08 0.0000000000000000e+00  -6.6637613772061757e-09 -2.7783351364362552e-08 0.0000000000000000e+00  -7.9163198214360437e-09 -2.6947950388704050e-08 0.0000000000000000e+00  -6.7453711693563260e-09 -2.2754292380933371e-08 0.0000000000000000e+00  -4.2948681441630131e-09 -1.7827392241491516e-08 0.0000000000000000e+00  -1.5653717413294526e-09 -1.3233072993757344e-08 0.0000000000000000e+00  8.5481465203515858e-10 -9.2494110061801949e-09 0.0000000000000000e+00  2.6829148017453536e-09 -5.8299925624729812e-09 0.0000000000000000e+00  3.8045818599373532e-09 -2.8125606970917280e-09 0.0000000000000000e+00  4.1822909307091885e-09 -6.9627875057820548e-15 0.0000000000000000e+00  3.8084019685840824e-09 2.8127903675461823e-09 0.0000000000000000e+00  2.6911253680474636e-09 5.8310942961047077e-09 0.0000000000000000e+00  8.6848934786820736e-10 9.2524901357600566e-09 0.0000000000000000e+00  -1.5450975615083538e-09 1.3240034255904572e-08 0.0000000000000000e+00  -4.2681158393045417e-09 1.7840048152847530e-08 0.0000000000000000e+00  -6.7151786588933794e-09 2.2767535615063717e-08 0.0000000000000000e+00  -7.8907735619221533e-09 2.6932130702927286e-08 0.0000000000000000e+00  -6.6396719914116276e-09 2.7671153899107076e-08 0.0000000000000000e+00  -3.0049148207324619e-09 2.0408020173595399e-08 0.0000000000000000e+00  1.6879651773109428e-11 1.0777735430927687e-09 0.0000000000000000e+00  1.0407329346224687e-10 -4.8594572455451490e-10 0.0000000000000000e+00  -2.2454897271706925e-09 -1.6675102655003582e-08 0.0000000000000000e+00  -5.8677825686716677e-09 -2.4538822544872011e-08 0.0000000000000000e+00  -8.6609699883143030e-09 -2.5900436643326004e-08 0.0000000000000000e+00  -9.7890246285228390e-09 -2.3504246904605825e-08 0.0000000000000000e+00  -9.5660738234652708e-09 -1.9500284464836022e-08 0.0000000000000000e+00  -8.6059373035256896e-09 -1.5115485062764836e-08 0.0000000000000000e+00  -7.4376990164219375e-09 -1.0901069579097939e-08 0.0000000000000000e+00  -6.4130028613968053e-09 -7.0176127221947540e-09 0.0000000000000000e+00  -5.7329421566016546e-09 -3.4272283283517233e-09 0.0000000000000000e+00  -5.4956970900479074e-09 -6.8307885950128540e-13 0.0000000000000000e+00  -5.7301290020142158e-09 3.4260415799085902e-09 0.0000000000000000e+00  -6.4073381803927384e-09 7.0170283243244801e-09 0.0000000000000000e+00  -7.4292792519471571e-09 1.0901637616089539e-08 0.0000000000000000e+00  -8.5953599985133207e-09 1.5117576966891812e-08 0.0000000000000000e+00  -9.5549054527678628e-09 1.9502526886576850e-08 0.0000000000000000e+00  -9.7795725230618930e-09 2.3499232800594980e-08 0.0000000000000000e+00  -8.6538620398944841e-09 2.5870476870709611e-08 0.0000000000000000e+00  -5.8623680828598190e-09 2.4478157465031126e-08 0.0000000000000000e+00  -2.2216219312919740e-09 1.6632258764508985e-08 0.0000000000000000e+00  8.4184018073803516e-11 6.8350653638981410e-10 0.0000000000000000e+00  1.0244653240313532e-10 -3.3247092505290593e-10 0.0000000000000000e+00  -1.7384120558199686e-09 -1.3508755506750720e-08 0.0000000000000000e+00  -5.0442316726627484e-09 -2.0944933556559937e-08 0.0000000000000000e+00  -8.3506335294285720e-09 -2.3382320742131335e-08 0.0000000000000000e+00  -1.0710308490871351e-08 -2.2360028980068099e-08 0.0000000000000000e+00  -1.1986863640212940e-08 -1.9398724943873032e-08 0.0000000000000000e+00  -1.2430635098765833e-08 -1.5585074403459022e-08 0.0000000000000000e+00  -1.2388266970110792e-08 -1.1547877639813878e-08 0.0000000000000000e+00  -1.2156666512705531e-08 -7.5751008070131523e-09 0.0000000000000000e+00  -1.1940886334043023e-08 -3.7407954807021869e-09 0.0000000000000000e+00  -1.1856196706614090e-08 -1.2101545477705564e-12 0.0000000000000000e+00  -1.1939374073535495e-08 3.7384868826438034e-09 0.0000000000000000e+00  -1.2153837756390918e-08 7.5731191234930603e-09 0.0000000000000000e+00  -1.2384575975593004e-08 1.1546321865028901e-08 0.0000000000000000e+00  -1.2426862242948472e-08 1.5583490890568021e-08 0.0000000000000000e+00  -1.1984070928710863e-08 1.9395100417230296e-08 0.0000000000000000e+00  -1.0709598866999754e-08 2.2349716198506112e-08 0.0000000000000000e+00  -8.3516816941614039e-09 2.3360179457507925e-08 0.0000000000000000e+00  -5.0477832642930477e-09 2.0917994985713999e-08 0.0000000000000000e+00  -1.7315122124642739e-09 1.3499278318312217e-08 0.0000000000000000e+00  9.6073215730739882e-11 4.5404386824210129e-10 0.0000000000000000e+00  9.2668609342267543e-11 -2.3392060042047849e-10 0.0000000000000000e+00  -1.3978188409701661e-09 -1.0889664531124481e-08 0.0000000000000000e+00  -4.3185639369655729e-09 -1.7479516520210399e-08 0.0000000000000000e+00  -7.6553081147860176e-09 -2.0278109484140550e-08 0.0000000000000000e+00  -1.0557631817497968e-08 -2.0141728825671139e-08 0.0000000000000000e+00  -1.2700463758216925e-08 -1.8081896798783743e-08 0.0000000000000000e+00  -1.4091761218322145e-08 -1.4949805518141888e-08 0.0000000000000000e+00  -1.4896502387212370e-08 -1.1328653425163185e-08 0.0000000000000000e+00  -1.5309512917994928e-08 -7.5512792729759504e-09 0.0000000000000000e+00  -1.5490580373722485e-08 -3.7650398708223070e-09 0.0000000000000000e+00  -1.5539580657344522e-08 -1.5484632989377003e-12 0.0000000000000000e+00  -1.5490125085252366e-08 3.7619990833272257e-09 0.0000000000000000e+00  -1.5308805302956205e-08 7.5483644888153365e-09 0.0000000000000000e+00  -1.4895933906791742e-08 1.1325751400262597e-08 0.0000000000000000e+00  -1.4091856650003318e-08 1.4946336430385651e-08 0.0000000000000000e+00  -1.2701771071579768e-08 1.8076495964049237e-08 0.0000000000000000e+00  -1.0560617334796668e-08 2.0132568709276250e-08 0.0000000000000000e+00  -7.6595824963549109e-09 2.0265169595228509e-08 0.0000000000000000e+00  -4.3243873123792035e-09 1.7468705709009022e-08 0.0000000000000000e+00  -1.3950510082337680e-09 1.0889980678518974e-08 0.0000000000000000e+00  9.2720936326460621e-11 3.1369434700770507e-10 0.0000000000000000e+00  8.1848459724393989e-11 -1.6662285185922196e-10 0.0000000000000000e+00  -1.1477047658403288e-09 -8.6985741880055343e-09 0.0000000000000000e+00  -3.6934505351250469e-09 -1.4308227870845988e-08 0.0000000000000000e+00  -6.8416033914255362e-09 -1.7058430071407843e-08 0.0000000000000000e+00  -9.8818697473281399e-09 -1.7421053956668423e-08 0.0000000000000000e+00  -1.2436762271952472e-08 -1.6050669139891226e-08 0.0000000000000000e+00  -1.4378784224968356e-08 -1.3572638792892883e-08 0.0000000000000000e+00  -1.5736143861160135e-08 -1.0473147481285157e-08 0.0000000000000000e+00  -1.6602530153965975e-08 -7.0738015532268413e-09 0.0000000000000000e+00  -1.7076140120997788e-08 -3.5554041550225125e-09 0.0000000000000000e+00  -1.7225934050842018e-08 -1.7112257862321043e-12 0.0000000000000000e+00  -1.7076346742141183e-08 3.5520050638344846e-09 0.0000000000000000e+00  -1.6603074359219768e-08 7.0704296239659645e-09 0.0000000000000000e+00  -1.5737255389370996e-08 1.0469662862526801e-08 0.0000000000000000e+00  -1.4380732052164837e-08 1.3568651902602458e-08 0.0000000000000000e+00  -1.2439776891636050e-08 1.6045575543803401e-08 0.0000000000000000e+00  -9.8860813802907422e-09 1.7414556049621749e-08 0.0000000000000000e+00  -6.8465121184224926e-09 1.7051621509905650e-08 0.0000000000000000e+00  -3.6988508946022145e-09 1.4304531044646608e-08 0.0000000000000000e+00  -1.1457721896076028e-09 8.7014075207215118e-09 0.0000000000000000e+00  8.4754318650112731e-11 2.2168683913838262e-10 0.0000000000000000e+00  7.1674357210499279e-11 -1.1871208059762751e-10 0.0000000000000000e+00  -9.5351651392910915e-10 -6.8532512564632850e-09 0.0000000000000000e+00  -3.1577046775746946e-09 -1.1478353859591505e-08 0.0000000000000000e+00  -6.0284834734101077e-09 -1.3960648141440002e-08 0.0000000000000000e+00  -8.9858979310710370e-09 -1.4553936895542993e-08 0.0000000000000000e+00  -1.1660908979661907e-08 -1.3675232398759768e-08 0.0000000000000000e+00  -1.3861304800598633e-08 -1.1767492156385566e-08 0.0000000000000000e+00  -1.5526381255161451e-08 -9.2112818810370808e-09 0.0000000000000000e+00  -1.6669656468114455e-08 -6.2878460046244512e-09 0.0000000000000000e+00  -1.7331585539714127e-08 -3.1810550447860526e-09 0.0000000000000000e+00  -1.7547839961846444e-08 -1.7428860659123959e-12 0.0000000000000000e+00  -1.7332112150327879e-08 3.1775820160482919e-09 0.0000000000000000e+00  -1.6670771277421552e-08 6.2843838376466491e-09 0.0000000000000000e+00  -1.5528183116824300e-08 9.2077532511985156e-09 0.0000000000000000e+00  -1.3863890824120391e-08 1.1763738783312650e-08 0.0000000000000000e+00  -1.1664323796302390e-08 1.3671135947488666e-08 0.0000000000000000e+00  -8.9900832162050255e-09 1.4549753934337292e-08 0.0000000000000000e+00  -6.0328878617621071e-09 1.3957348793316765e-08 0.0000000000000000e+00  -3.1620050295614242e-09 1.1477709878435751e-08 0.0000000000000000e+00  -9.5173332414428021e-10 6.8564612149997227e-09 0.0000000000000000e+00  7.5661182047570780e-11 1.5813001506621588e-10 0.0000000000000000e+00  6.2697995559502226e-11 -8.3650495710727048e-11 0.0000000000000000e+00  -7.9935563395177658e-10 -5.2914766121328054e-09 0.0000000000000000e+00  -2.7049484298264402e-09 -8.9849592014368666e-09 0.0000000000000000e+00  -5.2786735048449795e-09 -1.1091862188077510e-08 0.0000000000000000e+00  -8.0479532814967939e-09 -1.1742197996710239e-08 0.0000000000000000e+00  -1.0674803091303053e-08 -1.1198071820154808e-08 0.0000000000000000e+00  -1.2943086372125350e-08 -9.7654486505434676e-09 0.0000000000000000e+00  -1.4740284774804373e-08 -7.7296088043149874e-09 0.0000000000000000e+00  -1.6024037578284981e-08 -5.3205337587477158e-09 0.0000000000000000e+00  -1.6789333695050556e-08 -2.7056415954952450e-09 0.0000000000000000e+00  -1.7043287960705194e-08 -1.6911663884101665e-12 0.0000000000000000e+00  -1.6789948393138421e-08 2.7022764704696501e-09 0.0000000000000000e+00  -1.6025283736518498e-08 5.3172090574633580e-09 0.0000000000000000e+00  -1.4742181943343752e-08 7.7263252979642360e-09 0.0000000000000000e+00  -1.2945634145316023e-08 9.7622126366746191e-09 0.0000000000000000e+00  -1.0677947504358092e-08 1.1194990899979468e-08 0.0000000000000000e+00  -8.0515501420895672e-09 1.1739632037387131e-08 0.0000000000000000e+00  -5.2822143314877064e-09 1.1090459420516746e-08 0.0000000000000000e+00  -2.7081620924852173e-09 8.9856109642874203e-09 0.0000000000000000e+00  -7.9767785218927103e-10 5.2945135932568287e-09 0.0000000000000000e+00  6.6828741465627173e-11 1.1263263970512560e-10 0.0000000000000000e+00  5.5194716259172456e-11 -5.7419726350053126e-11 0.0000000000000000e+00  -6.7784602923643204e-10 -3.9605739552480496e-09 0.0000000000000000e+00  -2.3334803065611716e-09 -6.7959477115721931e-09 0.0000000000000000e+00  -4.6301868275403837e-09 -8.4833312000099049e-09 0.0000000000000000e+00  -7.1789128337539962e-09 -9.0837874486091849e-09 0.0000000000000000e+00  -9.6772165843209759e-09 -8.7591800970461698e-09 0.0000000000000000e+00  -1.1906025185950414e-08 -7.7156400024971462e-09 0.0000000000000000e+00  -1.3725804437021399e-08 -6.1588459659801662e-09 0.0000000000000000e+00  -1.5058772399484789e-08 -4.2664028877175749e-09 0.0000000000000000e+00  -1.5867936885764505e-08 -2.1782713703327788e-09 0.0000000000000000e+00  -1.6138988102838872e-08 -1.5979941614607119e-12 0.0000000000000000e+00  -1.5868504946018837e-08 2.1751037475074509e-09 0.0000000000000000e+00  -1.5059902571367215e-08 4.2633196021312358e-09 0.0000000000000000e+00  -1.3727477514050172e-08 6.1559086239773939e-09 0.0000000000000000e+00  -1.1908195926554142e-08 7.7129442661873213e-09 0.0000000000000000e+00  -9.6797928004026564e-09 8.7569077156226664e-09 0.0000000000000000e+00  -7.1817347611472613e-09 9.0822537611623016e-09 0.0000000000000000e+00  -4.6328423474239787e-09 8.4829319206812693e-09 0.0000000000000000e+00  -2.3357851591854415e-09 6.7971485488690015e-09 0.0000000000000000e+00  -6.7636414262141970e-10 3.9633583046508359e-09 0.0000000000000000e+00  5.8931098582018985e-11 7.9237286194044086e-11 0.0000000000000000e+00  4.9341200062351054e-11 -3.7271866821658454e-11 0.0000000000000000e+00  -5.8546818876162640e-10 -2.8120709013120996e-09 0.0000000000000000e+00  -2.0437013936001167e-09 -4.8632963427005766e-09 0.0000000000000000e+00  -4.1073829494354844e-09 -6.1204205313729047e-09 0.0000000000000000e+00  -6.4492761380874543e-09 -6.6080972135484226e-09 0.0000000000000000e+00  -8.7986491594956196e-09 -6.4232442212525926e-09 0.0000000000000000e+00  -1.0942469158265416e-08 -5.6994710868898001e-09 0.0000000000000000e+00  -1.2729034761408430e-08 -4.5776300391230812e-09 0.0000000000000000e+00  -1.4059931531723397e-08 -3.1859550282791686e-09 0.0000000000000000e+00  -1.4877595539875953e-08 -1.6315109871931300e-09 0.0000000000000000e+00  -1.5153174059834241e-08 -1.4961583686553507e-12 0.0000000000000000e+00  -1.4878048799475735e-08 1.6285586998551923e-09 0.0000000000000000e+00  -1.4060824183861104e-08 3.1831267911737096e-09 0.0000000000000000e+00  -1.2730335363307153e-08 4.5750253241150795e-09 0.0000000000000000e+00  -1.0944121892128362e-08 5.6972240419241289e-09 0.0000000000000000e+00  -8.8005623543833748e-09 6.4215441836830872e-09 0.0000000000000000e+00  -6.4513138670470568e-09 6.6071913835442590e-09 0.0000000000000000e+00  -4.1092442275043119e-09 6.1205492771761191e-09 0.0000000000000000e+00  -2.0452746573406784e-09 4.8647310686979309e-09 0.0000000000000000e+00  -5.8427760496728362e-10 2.8146453601226730e-09 0.0000000000000000e+00  5.2358140611298014e-11 5.4177984044460396e-11 0.0000000000000000e+00  4.5253657818429542e-11 -2.1139952414679066e-11 0.0000000000000000e+00  -5.2041299586148231e-10 -1.7993351009695169e-09 0.0000000000000000e+00  -1.8363792702915227e-09 -3.1292249101717932e-09 0.0000000000000000e+00  -3.7255543522029490e-09 -3.9603107057647228e-09 0.0000000000000000e+00  -5.9031613456108020e-09 -4.3001137203117139e-09 0.0000000000000000e+00  -8.1225950134966272e-09 -4.2027088030963086e-09 0.0000000000000000e+00  -1.0178851012809898e-