<?xml version="1.0"?>
<VTKFile type="UnstructuredGrid"  version="0.1"  >
<UnstructuredGrid>
<Piece  NumberOfPoints="651" NumberOfCells="1200">
<Points>
<DataArray  type="Float64"  NumberOfComponents="3"  format="ascii">0 0 0  50000 0 0  100000 0 0  150000 0 0  200000 0 0  250000 0 0  300000 0 0  350000 0 0  400000 0 0  450000 0 0  500000 0 0  550000 0 0  600000 0 0  650000 0 0  700000 0 0  750000 0 0  800000 0 0  850000 0 0  900000 0 0  950000 0 0  1000000 0 0  0 50000 0  50000 50000 0  100000 50000 0  150000 50000 0  200000 50000 0  250000 50000 0  300000 50000 0  350000 50000 0  400000 50000 0  450000 50000 0  500000 50000 0  550000 50000 0  600000 50000 0  650000 50000 0  700000 50000 0  750000 50000 0  800000 50000 0  850000 50000 0  900000 50000 0  950000 50000 0  1000000 50000 0  0 100000 0  50000 100000 0  100000 100000 0  150000 100000 0  200000 100000 0  250000 100000 0  300000 100000 0  350000 100000 0  400000 100000 0  450000 100000 0  500000 100000 0  550000 100000 0  600000 100000 0  650000 100000 0  700000 100000 0  750000 100000 0  800000 100000 0  850000 100000 0  900000 100000 0  950000 100000 0  1000000 100000 0  0 150000 0  50000 150000 0  100000 150000 0  150000 150000 0  200000 150000 0  250000 150000 0  300000 150000 0  350000 150000 0  400000 150000 0  450000 150000 0  500000 150000 0  550000 150000 0  600000 150000 0  650000 150000 0  700000 150000 0  750000 150000 0  800000 150000 0  850000 150000 0  900000 150000 0  950000 150000 0  1000000 150000 0  0 200000 0  50000 200000 0  100000 200000 0  150000 200000 0  200000 200000 0  250000 200000 0  300000 200000 0  350000 200000 0  400000 200000 0  450000 200000 0  500000 200000 0  550000 200000 0  600000 200000 0  650000 200000 0  700000 200000 0  750000 200000 0  800000 200000 0  850000 200000 0  900000 200000 0  950000 200000 0  1000000 200000 0  0 250000 0  50000 250000 0  100000 250000 0  150000 250000 0  200000 250000 0  250000 250000 0  300000 250000 0  350000 250000 0  400000 250000 0  450000 250000 0  500000 250000 0  550000 250000 0  600000 250000 0  650000 250000 0  700000 250000 0  750000 250000 0  800000 250000 0  850000 250000 0  900000 250000 0  950000 250000 0  1000000 250000 0  0 300000 0  50000 300000 0  100000 300000 0  150000 300000 0  200000 300000 0  250000 300000 0  300000 300000 0  350000 300000 0  400000 300000 0  450000 300000 0  500000 300000 0  550000 300000 0  600000 300000 0  650000 300000 0  700000 300000 0  750000 300000 0  800000 300000 0  850000 300000 0  900000 300000 0  950000 300000 0  1000000 300000 0  0 350000 0  50000 350000 0  100000 350000 0  150000 350000 0  200000 350000 0  250000 350000 0  300000 350000 0  350000 350000 0  400000 350000 0  450000 350000 0  500000 350000 0  550000 350000 0  600000 350000 0  650000 350000 0  700000 350000 0  750000 350000 0  800000 350000 0  850000 350000 0  900000 350000 0  950000 350000 0  1000000 350000 0  0 400000 0  50000 400000 0  100000 400000 0  150000 400000 0  200000 400000 0  250000 400000 0  300000 400000 0  350000 400000 0  400000 400000 0  450000 400000 0  500000 400000 0  550000 400000 0  600000 400000 0  650000 400000 0  700000 400000 0  750000 400000 0  800000 400000 0  850000 400000 0  900000 400000 0  950000 400000 0  1000000 400000 0  0 450000 0  50000 450000 0  100000 450000 0  150000 450000 0  200000 450000 0  250000 450000 0  300000 450000 0  350000 450000 0  400000 450000 0  450000 450000 0  500000 450000 0  550000 450000 0  600000 450000 0  650000 450000 0  700000 450000 0  750000 450000 0  800000 450000 0  850000 450000 0  900000 450000 0  950000 450000 0  1000000 450000 0  0 500000 0  50000 500000 0  100000 500000 0  150000 500000 0  200000 500000 0  250000 500000 0  300000 500000 0  350000 500000 0  400000 500000 0  450000 500000 0  500000 500000 0  550000 500000 0  600000 500000 0  650000 500000 0  700000 500000 0  750000 500000 0  800000 500000 0  850000 500000 0  900000 500000 0  950000 500000 0  1000000 500000 0  0 550000 0  50000 550000 0  100000 550000 0  150000 550000 0  200000 550000 0  250000 550000 0  300000 550000 0  350000 550000 0  400000 550000 0  450000 550000 0  500000 550000 0  550000 550000 0  600000 550000 0  650000 550000 0  700000 550000 0  750000 550000 0  800000 550000 0  850000 550000 0  900000 550000 0  950000 550000 0  1000000 550000 0  0 600000 0  50000 600000 0  100000 600000 0  150000 600000 0  200000 600000 0  250000 600000 0  300000 600000 0  350000 600000 0  400000 600000 0  450000 600000 0  500000 600000 0  550000 600000 0  600000 600000 0  650000 600000 0  700000 600000 0  750000 600000 0  800000 600000 0  850000 600000 0  900000 600000 0  950000 600000 0  1000000 600000 0  0 650000 0  50000 650000 0  100000 650000 0  150000 650000 0  200000 650000 0  250000 650000 0  300000 650000 0  350000 650000 0  400000 650000 0  450000 650000 0  500000 650000 0  550000 650000 0  600000 650000 0  650000 650000 0  700000 650000 0  750000 650000 0  800000 650000 0  850000 650000 0  900000 650000 0  950000 650000 0  1000000 650000 0  0 700000 0  50000 700000 0  100000 700000 0  150000 700000 0  200000 700000 0  250000 700000 0  300000 700000 0  350000 700000 0  400000 700000 0  450000 700000 0  500000 700000 0  550000 700000 0  600000 700000 0  650000 700000 0  700000 700000 0  750000 700000 0  800000 700000 0  850000 700000 0  900000 700000 0  950000 700000 0  1000000 700000 0  0 750000 0  50000 750000 0  100000 750000 0  150000 750000 0  200000 750000 0  250000 750000 0  300000 750000 0  350000 750000 0  400000 750000 0  450000 750000 0  500000 750000 0  550000 750000 0  600000 750000 0  650000 750000 0  700000 750000 0  750000 750000 0  800000 750000 0  850000 750000 0  900000 750000 0  950000 750000 0  1000000 750000 0  0 800000 0  50000 800000 0  100000 800000 0  150000 800000 0  200000 800000 0  250000 800000 0  300000 800000 0  350000 800000 0  400000 800000 0  450000 800000 0  500000 800000 0  550000 800000 0  600000 800000 0  650000 800000 0  700000 800000 0  750000 800000 0  800000 800000 0  850000 800000 0  900000 800000 0  950000 800000 0  1000000 800000 0  0 850000 0  50000 850000 0  100000 850000 0  150000 850000 0  200000 850000 0  250000 850000 0  300000 850000 0  350000 850000 0  400000 850000 0  450000 850000 0  500000 850000 0  550000 850000 0  600000 850000 0  650000 850000 0  700000 850000 0  750000 850000 0  800000 850000 0  850000 850000 0  900000 850000 0  950000 850000 0  1000000 850000 0  0 900000 0  50000 900000 0  100000 900000 0  150000 900000 0  200000 900000 0  250000 900000 0  300000 900000 0  350000 900000 0  400000 900000 0  450000 900000 0  500000 900000 0  550000 900000 0  600000 900000 0  650000 900000 0  700000 900000 0  750000 900000 0  800000 900000 0  850000 900000 0  900000 900000 0  950000 900000 0  1000000 900000 0  0 950000 0  50000 950000 0  100000 950000 0  150000 950000 0  200000 950000 0  250000 950000 0  300000 950000 0  350000 950000 0  400000 950000 0  450000 950000 0  500000 950000 0  550000 950000 0  600000 950000 0  650000 950000 0  700000 950000 0  750000 950000 0  800000 950000 0  850000 950000 0  900000 950000 0  950000 950000 0  1000000 950000 0  0 1000000 0  50000 1000000 0  100000 1000000 0  150000 1000000 0  200000 1000000 0  250000 1000000 0  300000 1000000 0  350000 1000000 0  400000 1000000 0  450000 1000000 0  500000 1000000 0  550000 1000000 0  600000 1000000 0  650000 1000000 0  700000 1000000 0  750000 1000000 0  800000 1000000 0  850000 1000000 0  900000 1000000 0  950000 1000000 0  1000000 1000000 0  0 1050000 0  50000 1050000 0  100000 1050000 0  150000 1050000 0  200000 1050000 0  250000 1050000 0  300000 1050000 0  350000 1050000 0  400000 1050000 0  450000 1050000 0  500000 1050000 0  550000 1050000 0  600000 1050000 0  650000 1050000 0  700000 1050000 0  750000 1050000 0  800000 1050000 0  850000 1050000 0  900000 1050000 0  950000 1050000 0  1000000 1050000 0  0 1100000 0  50000 1100000 0  100000 1100000 0  150000 1100000 0  200000 1100000 0  250000 1100000 0  300000 1100000 0  350000 1100000 0  400000 1100000 0  450000 1100000 0  500000 1100000 0  550000 1100000 0  600000 1100000 0  650000 1100000 0  700000 1100000 0  750000 1100000 0  800000 1100000 0  850000 1100000 0  900000 1100000 0  950000 1100000 0  1000000 1100000 0  0 1150000 0  50000 1150000 0  100000 1150000 0  150000 1150000 0  200000 1150000 0  250000 1150000 0  300000 1150000 0  350000 1150000 0  400000 1150000 0  450000 1150000 0  500000 1150000 0  550000 1150000 0  600000 1150000 0  650000 1150000 0  700000 1150000 0  750000 1150000 0  800000 1150000 0  850000 1150000 0  900000 1150000 0  950000 1150000 0  1000000 1150000 0  0 1200000 0  50000 1200000 0  100000 1200000 0  150000 1200000 0  200000 1200000 0  250000 1200000 0  300000 1200000 0  350000 1200000 0  400000 1200000 0  450000 1200000 0  500000 1200000 0  550000 1200000 0  600000 1200000 0  650000 1200000 0  700000 1200000 0  750000 1200000 0  800000 1200000 0  850000 1200000 0  900000 1200000 0  950000 1200000 0  1000000 1200000 0  0 1250000 0  50000 1250000 0  100000 1250000 0  150000 1250000 0  200000 1250000 0  250000 1250000 0  300000 1250000 0  350000 1250000 0  400000 1250000 0  450000 1250000 0  500000 1250000 0  550000 1250000 0  600000 1250000 0  650000 1250000 0  700000 1250000 0  750000 1250000 0  800000 1250000 0  850000 1250000 0  900000 1250000 0  950000 1250000 0  1000000 1250000 0  0 1300000 0  50000 1300000 0  100000 1300000 0  150000 1300000 0  200000 1300000 0  250000 1300000 0  300000 1300000 0  350000 1300000 0  400000 1300000 0  450000 1300000 0  500000 1300000 0  550000 1300000 0  600000 1300000 0  650000 1300000 0  700000 1300000 0  750000 1300000 0  800000 1300000 0  850000 1300000 0  900000 1300000 0  950000 1300000 0  1000000 1300000 0  0 1350000 0  50000 1350000 0  100000 1350000 0  150000 1350000 0  200000 1350000 0  250000 1350000 0  300000 1350000 0  350000 1350000 0  400000 1350000 0  450000 1350000 0  500000 1350000 0  550000 1350000 0  600000 1350000 0  650000 1350000 0  700000 135
[...]
<PointData  Vectors="f_10477"> 
<DataArray  type="Float64"  Name="f_10477"  NumberOfComponents="3" format="ascii">-5.2848610133293962e-09 -2.9431077201148139e-09 0.0000000000000000e+00  7.5806572803746104e-08 -1.9328707110468416e-09 0.0000000000000000e+00  7.8487529275235157e-08 -1.8443828469026516e-11 0.0000000000000000e+00  7.9203019706819733e-08 2.8035312204089571e-10 0.0000000000000000e+00  7.9563144387169273e-08 2.3700305892793731e-10 0.0000000000000000e+00  7.9736511986019322e-08 1.6920162269048769e-10 0.0000000000000000e+00  7.9826133502129425e-08 1.1575375058808277e-10 0.0000000000000000e+00  7.9875086652004643e-08 7.5705153169049018e-11 0.0000000000000000e+00  7.9901503439551423e-08 4.4229291346572278e-11 0.0000000000000000e+00  7.9913411237347715e-08 1.7504346851783477e-11 0.0000000000000000e+00  7.9914004777763756e-08 -7.3081190221172925e-12 0.0000000000000000e+00  7.9903441365581917e-08 -3.2594150097543334e-11 0.0000000000000000e+00  7.9878948406666216e-08 -6.0756530882843993e-11 0.0000000000000000e+00  7.9833388122552594e-08 -9.4631963194456477e-11 0.0000000000000000e+00  7.9750936032029482e-08 -1.3783327797436143e-10 0.0000000000000000e+00  7.9594904227754800e-08 -1.9456610585909676e-10 0.0000000000000000e+00  7.9276633589483561e-08 -2.6547873860404521e-10 0.0000000000000000e+00  7.8622029627856634e-08 -2.9244239177867848e-10 0.0000000000000000e+00  7.7235446095340129e-08 4.5952787621523659e-10 0.0000000000000000e+00  7.3225674272923802e-08 4.5885903462196852e-09 0.0000000000000000e+00  -7.7154469278600553e-09 4.8127343662731212e-09 0.0000000000000000e+00  -3.7120845930958672e-09 -3.2409662203254968e-09 0.0000000000000000e+00  -1.6190507106713069e-09 -2.3853952714336194e-08 0.0000000000000000e+00  1.7212671561973417e-08 -1.4033720033600596e-08 0.0000000000000000e+00  3.1913885481598572e-08 -7.7851915267481967e-09 0.0000000000000000e+00  4.1390214335956796e-08 -4.6052245549898638e-09 0.0000000000000000e+00  4.7550551975000242e-08 -2.8941428147244714e-09 0.0000000000000000e+00  5.1639200510289924e-08 -1.8786758427232254e-09 0.0000000000000000e+00  5.4350728874958777e-08 -1.2119672086046103e-09 0.0000000000000000e+00  5.6077481729520835e-08 -7.3006502655698843e-10 0.0000000000000000e+00  5.7039192934853357e-08 -3.4540292341816692e-10 0.0000000000000000e+00  5.7348090923665792e-08 -3.2350059156802781e-12 0.0000000000000000e+00  5.7038709400733526e-08 3.3861892270608184e-10 0.0000000000000000e+00  5.6076538149657895e-08 7.2224520293663426e-10 0.0000000000000000e+00  5.4349630323383827e-08 1.2020114763426785e-09 0.0000000000000000e+00  5.1639632376355479e-08 1.8642985031652991e-09 0.0000000000000000e+00  4.7559564266077782e-08 2.8692128453995125e-09 0.0000000000000000e+00  4.1432784765094026e-08 4.5556664596561325e-09 0.0000000000000000e+00  3.2086759914822748e-08 7.7417431264870130e-09 0.0000000000000000e+00  1.7853316211914080e-08 1.4393169624047622e-08 0.0000000000000000e+00  -4.8959170602666650e-10 2.5537315608106800e-08 0.0000000000000000e+00  -6.2623654158667113e-09 4.9784791242216231e-09 0.0000000000000000e+00  -1.0325575007557815e-09 -1.6919547639120550e-09 0.0000000000000000e+00  -6.5537543870491630e-09 -2.9854018026733044e-08 0.0000000000000000e+00  -2.6809961090562787e-09 -2.6277277711296854e-08 0.0000000000000000e+00  6.4478541025707920e-09 -1.8750422753935131e-08 0.0000000000000000e+00  1.5665328855095249e-08 -1.2841825961869830e-08 0.0000000000000000e+00  2.3107322758443621e-08 -8.7876650733229519e-09 0.0000000000000000e+00  2.8665450035000351e-08 -5.9949060212976772e-09 0.0000000000000000e+00  3.2618440386394126e-08 -3.9832442314603853e-09 0.0000000000000000e+00  3.5244363268635964e-08 -2.4396030046407027e-09 0.0000000000000000e+00  3.6743190987987172e-08 -1.1600737579199149e-09 0.0000000000000000e+00  3.7230908344543762e-08 1.4136558510430280e-13 0.0000000000000000e+00  3.6745424979802813e-08 1.1605055508086865e-09 0.0000000000000000e+00  3.5249630375375173e-08 2.4405651903901222e-09 0.0000000000000000e+00  3.2628941738728328e-08 3.9854377127522327e-09 0.0000000000000000e+00  2.8686543269406483e-08 5.9999864551932572e-09 0.0000000000000000e+00  2.3152126108354398e-08 8.8010723373938779e-09 0.0000000000000000e+00  1.5764961704404424e-08 1.2885020980100198e-08 0.0000000000000000e+00  6.6445532406736684e-09 1.8884232670250319e-08 0.0000000000000000e+00  -2.4540271273286825e-09 2.6526193959638964e-08 0.0000000000000000e+00  -6.0669723841631980e-09 2.9029068778221033e-08 0.0000000000000000e+00  -1.7936390948413429e-09 2.2428109861409213e-09 0.0000000000000000e+00  -1.1810788033117668e-10 -9.0153469581801185e-10 0.0000000000000000e+00  -4.3672598875401524e-09 -2.5395625927840973e-08 0.0000000000000000e+00  -6.4166913424393795e-09 -2.9845803387233528e-08 0.0000000000000000e+00  -3.8385211244068764e-09 -2.5735269020347798e-08 0.0000000000000000e+00  1.3394032175942693e-09 -1.9973686097282693e-08 0.0000000000000000e+00  6.9019374027720678e-09 -1.4811795566017852e-08 0.0000000000000000e+00  1.1770596354398582e-08 -1.0639474750023605e-08 0.0000000000000000e+00  1.5576316016848850e-08 -7.3062659921465634e-09 0.0000000000000000e+00  1.8254183772188078e-08 -4.5671182122517287e-09 0.0000000000000000e+00  1.9834702799452456e-08 -2.1965306302856033e-09 0.0000000000000000e+00  2.0357417901247654e-08 -9.2810451051152368e-13 0.0000000000000000e+00  1.9838499930118626e-08 2.1947903216794143e-09 0.0000000000000000e+00  1.8262647277029503e-08 4.5658523341032995e-09 0.0000000000000000e+00  1.5591495396296901e-08 7.3063518327244593e-09 0.0000000000000000e+00  1.1796322342634582e-08 1.0643313790263711e-08 0.0000000000000000e+00  6.9436827282526092e-09 1.4825948614360181e-08 0.0000000000000000e+00  1.3972986996559077e-09 2.0012671483681240e-08 0.0000000000000000e+00  -3.7801219971549518e-09 2.5802588703979194e-08 0.0000000000000000e+00  -6.3735563687396069e-09 2.9804873124373901e-08 0.0000000000000000e+00  -4.1375473366042617e-09 2.5031813514411346e-08 0.0000000000000000e+00  -1.9965916603011016e-10 1.3060982224317888e-09 0.0000000000000000e+00  6.4404251521440580e-11 -5.5867941272191374e-10 0.0000000000000000e+00  -2.8957542058713315e-09 -2.0841055836818179e-08 0.0000000000000000e+00  -6.2942378953657394e-09 -2.8539377699244554e-08 0.0000000000000000e+00  -7.2492868401504591e-09 -2.8011891206628881e-08 0.0000000000000000e+00  -5.6821581365126977e-09 -2.3971039213169046e-08 0.0000000000000000e+00  -2.7959012300483844e-09 -1.9069146095956852e-08 0.0000000000000000e+00  3.6082582088624258e-10 -1.4385212728381319e-08 0.0000000000000000e+00  3.1579998737088426e-09 -1.0211254520090511e-08 0.0000000000000000e+00  5.2798923417367531e-09 -6.5198602133758653e-09 0.0000000000000000e+00  6.5878434293205969e-09 -3.1729811356187412e-09 0.0000000000000000e+00  7.0292829816439801e-09 -1.3681978504780649e-12 0.0000000000000000e+00  6.5914081714612021e-09 3.1704297588401306e-09 0.0000000000000000e+00  5.2873823676426548e-09 6.5180162393739810e-09 0.0000000000000000e+00  3.1700289102124820e-09 1.0211175118362395e-08 0.0000000000000000e+00  3.7776884918196043e-10 1.4388982618427266e-08 0.0000000000000000e+00  -2.7750455790569037e-09 1.9079516113891273e-08 0.0000000000000000e+00  -5.6604381615987867e-09 2.3985755158308921e-08 0.0000000000000000e+00  -7.2293793265796307e-09 2.8006103425253638e-08 0.0000000000000000e+00  -6.2705574280253067e-09 2.8453106487746996e-08 0.0000000000000000e+00  -2.8209726524692430e-09 2.0725739277715031e-08 0.0000000000000000e+00  2.8021332870870109e-11 8.1856749867820532e-10 0.0000000000000000e+00  8.6180080180812597e-11 -3.6821473090673506e-10 0.0000000000000000e+00  -2.0916813513635249e-09 -1.7154058932856739e-08 0.0000000000000000e+00  -5.5021358482127511e-09 -2.5563079986947845e-08 0.0000000000000000e+00  -7.9965794443569436e-09 -2.7313518338946349e-08 0.0000000000000000e+00  -8.7625711180174738e-09 -2.5127515358519608e-08 0.0000000000000000e+00  -8.1500205562855016e-09 -2.1161515423694508e-08 0.0000000000000000e+00  -6.8095999566079432e-09 -1.6657590084638455e-08 0.0000000000000000e+00  -5.3057885164162613e-09 -1.2187891571768349e-08 0.0000000000000000e+00  -4.0194522870126528e-09 -7.9399691683413946e-09 0.0000000000000000e+00  -3.1734765566685384e-09 -3.9087075931309614e-09 0.0000000000000000e+00  -2.8795327098447235e-09 -1.9560160118497497e-12 0.0000000000000000e+00  -3.1710957184726874e-09 3.9049878831572316e-09 0.0000000000000000e+00  -4.0147900817018392e-09 7.9369196925741691e-09 0.0000000000000000e+00  -5.2991997311864346e-09 1.2186229494871112e-08 0.0000000000000000e+00  -6.8019752411191183e-09 1.6658139677183062e-08 0.0000000000000000e+00  -8.1429690472511644e-09 2.1163978948408282e-08 0.0000000000000000e+00  -8.7577263059241387e-09 2.5126528884633913e-08 0.0000000000000000e+00  -7.9918506036617698e-09 2.7293459202239938e-08 0.0000000000000000e+00  -5.4962760477755438e-09 2.5517903545055811e-08 0.0000000000000000e+00  -2.0719536861816414e-09 1.7126100440683293e-08 0.0000000000000000e+00  6.9470168066908171e-11 5.1602745382048818e-10 0.0000000000000000e+00  8.1828287595425779e-11 -2.5589603969647316e-10 0.0000000000000000e+00  -1.6206188767858745e-09 -1.4167230550651039e-08 0.0000000000000000e+00  -4.7410139652848299e-09 -2.2223786577526809e-08 0.0000000000000000e+00  -7.7963983453843301e-09 -2.5105908636516342e-08 0.0000000000000000e+00  -9.8655815384186412e-09 -2.4328643213702817e-08 0.0000000000000000e+00  -1.0837286590711339e-08 -2.1410596084715943e-08 0.0000000000000000e+00  -1.0986914422937571e-08 -1.7451797266917222e-08 0.0000000000000000e+00  -1.0686131910124202e-08 -1.3105035917517856e-08 0.0000000000000000e+00  -1.0253374119712504e-08 -8.6908369587542559e-09 0.0000000000000000e+00  -9.9101295118172088e-09 -4.3229192965903640e-09 0.0000000000000000e+00  -9.7819418297224912e-09 -2.2795522665645668e-12 0.0000000000000000e+00  -9.9091019864144061e-09 4.3185422989506918e-09 0.0000000000000000e+00  -1.0251578777848248e-08 8.6870287905117681e-09 0.0000000000000000e+00  -1.0684113873690194e-08 1.3102169196163657e-08 0.0000000000000000e+00  -1.0985468337272989e-08 1.7449883199509942e-08 0.0000000000000000e+00  -1.0837199061542311e-08 2.1408346825515018e-08 0.0000000000000000e+00  -9.8673108663171490e-09 2.4322357217538203e-08 0.0000000000000000e+00  -7.7984462913577805e-09 2.5090943264451605e-08 0.0000000000000000e+00  -4.7441455102804705e-09 2.2205780648550797e-08 0.0000000000000000e+00  -1.6157373607603935e-09 1.4164239893012474e-08 0.0000000000000000e+00  7.6005189208397182e-11 3.4527585943883942e-10 0.0000000000000000e+00  7.4259118776465993e-11 -1.8423035640676787e-10 0.0000000000000000e+00  -1.3177657719869615e-09 -1.1683935103835061e-08 0.0000000000000000e+00  -4.1134879271488661e-09 -1.8953535256812624e-08 0.0000000000000000e+00  -7.2847906772945008e-09 -2.2232227566490500e-08 0.0000000000000000e+00  -1.0001770824589099e-08 -2.2358635766506539e-08 0.0000000000000000e+00  -1.1955225892358576e-08 -2.0341277189215069e-08 0.0000000000000000e+00  -1.3166696795838139e-08 -1.7043687188665250e-08 0.0000000000000000e+00  -1.3814770134094313e-08 -1.3074259141707176e-08 0.0000000000000000e+00  -1.4106334761133331e-08 -8.8015804859238231e-09 0.0000000000000000e+00  -1.4210622940324125e-08 -4.4171109578388016e-09 0.0000000000000000e+00  -1.4233498294275653e-08 -2.3855762304244710e-12 0.0000000000000000e+00  -1.4210626410136897e-08 4.4124957805211871e-09 0.0000000000000000e+00  -1.4106553511092082e-08 8.7974105014220917e-09 0.0000000000000000e+00  -1.3815580471905973e-08 1.3070698532574311e-08 0.0000000000000000e+00  -1.3168516119872344e-08 1.7040517003847388e-08 0.0000000000000000e+00  -1.1958297159818118e-08 2.0337542743362394e-08 0.0000000000000000e+00  -1.0006087972500702e-08 2.2352829011996002e-08 0.0000000000000000e+00  -7.2893614285416803e-09 2.2224167793159976e-08 0.0000000000000000e+00  -4.1187296230606492e-09 1.8947866420513873e-08 0.0000000000000000e+00  -1.3163351814647010e-09 1.1687199982186449e-08 0.0000000000000000e+00  7.3198542997063181e-11 2.4255807779591389e-10 0.0000000000000000e+00  6.7115981820948178e-11 -1.3503868703717102e-10 0.0000000000000000e+00  -1.1067321075607817e-09 -9.5712115959090507e-09 0.0000000000000000e+00  -3.6046244138086976e-09 -1.5890007512936002e-08 0.0000000000000000e+00  -6.6949536506470991e-09 -1.9133648529991246e-08 0.0000000000000000e+00  -9.6763730225211005e-09 -1.9762797339816236e-08 0.0000000000000000e+00  -1.2176254819626183e-08 -1.8430812500760198e-08 0.0000000000000000e+00  -1.4069027165149181e-08 -1.5775410466248689e-08 0.0000000000000000e+00  -1.5384999426917455e-08 -1.2308219015048020e-08 0.0000000000000000e+00  -1.6219963392520226e-08 -8.3876529415230115e-09 0.0000000000000000e+00  -1.6673961829151071e-08 -4.2403820769728986e-09 0.0000000000000000e+00  -1.6817205186188880e-08 -2.3246928072400149e-12 0.0000000000000000e+00  -1.6674564909532777e-08 4.2358616740854071e-09 0.0000000000000000e+00  -1.6221277964442850e-08 8.3834834677695741e-09 0.0000000000000000e+00  -1.5387188966821142e-08 1.2304494388822288e-08 0.0000000000000000e+00  -1.4072215803724513e-08 1.5771980623133586e-08 0.0000000000000000e+00  -1.2180411408632716e-08 1.8427264045013956e-08 0.0000000000000000e+00  -9.6813016793019767e-09 1.9758858704324915e-08 0.0000000000000000e+00  -6.6998096706912077e-09 1.9130068809748878e-08 0.0000000000000000e+00  -3.6094196302715377e-09 1.5889266990513552e-08 0.0000000000000000e+00  -1.1060303137635861e-09 9.5753612493375374e-09 0.0000000000000000e+00  6.8019684196146159e-11 1.7548809833729758e-10 0.0000000000000000e+00  6.0923928680050993e-11 -9.9370195721749223e-11 0.0000000000000000e+00  -9.5064351310324899e-10 -7.7415160859092963e-09 0.0000000000000000e+00  -3.1887343581040714e-09 -1.3067938784435555e-08 0.0000000000000000e+00  -6.1164300386442203e-09 -1.6032939096746527e-08 0.0000000000000000e+00  -9.1485287458066137e-09 -1.6883732972346146e-08 0.0000000000000000e+00  -1.1908557600207247e-08 -1.6038165583880868e-08 0.0000000000000000e+00  -1.4194445485061397e-08 -1.3951699101149371e-08 0.0000000000000000e+00  -1.5936397844531783e-08 -1.1029668524969112e-08 0.0000000000000000e+00  -1.7140316524519294e-08 -7.5892541386415017e-09 0.0000000000000000e+00  -1.7841009089130091e-08 -3.8593459289414253e-09 0.0000000000000000e+00  -1.8070684348128237e-08 -2.1630846202457959e-12 0.0000000000000000e+00  -1.7841859972901788e-08 3.8551289091952062e-09 0.0000000000000000e+00  -1.7142044253341274e-08 7.5853348907157966e-09 0.0000000000000000e+00  -1.5939019458504825e-08 1.1026148654447359e-08 0.0000000000000000e+00  -1.4197916360533127e-08 1.3948564360049742e-08 0.0000000000000000e+00  -1.1912712949902787e-08 1.6035358498823648e-08 0.0000000000000000e+00  -9.1530863190043310e-09 1.6881414124250535e-08 0.0000000000000000e+00  -6.1206416403748922e-09 1.6031730430026541e-08 0.0000000000000000e+00  -3.1925162940524189e-09 1.3068943419028343e-08 0.0000000000000000e+00  -9.5006262441294385e-10 7.7451936475947397e-09 0.0000000000000000e+00  6.2581955062579654e-11 1.2881123090102886e-10 0.0000000000000000e+00  5.5709193240667850e-11 -7.2425812577867925e-11 0.0000000000000000e+00  -8.3108927726414290e-10 -6.1340697312820124e-09 0.0000000000000000e+00  -2.8480718694867931e-09 -1.0482165529865752e-08 0.0000000000000000e+00  -5.5885209601639428e-09 -1.3036500556670014e-08 0.0000000000000000e+00  -8.5603363833638361e-09 -1.3923310323847134e-08 0.0000000000000000e+00  -1.1405805912478207e-08 -1.3406894741515338e-08 0.0000000000000000e+00  -1.3887603240126221e-08 -1.1805340024760664e-08 0.0000000000000000e+00  -1.5873684496676429e-08 -9.4269386305495858e-09 0.0000000000000000e+00  -1.7305098237306838e-08 -6.5349182827965291e-09 0.0000000000000000e+00  -1.8164269077046414e-08 -3.3384258438564323e-09 0.0000000000000000e+00  -1.8450488451348434e-08 -1.9552526642099004e-12 0.0000000000000000e+00  -1.8165139122123763e-08 3.3346130136071373e-09 0.0000000000000000e+00  -1.7306817619435104e-08 6.5313798198770635e-09 0.0000000000000000e+00  -1.5876194098961644e-08 9.4238035996197972e-09 0.0000000000000000e+00  -1.3890780425624328e-08 1.1802692479775460e-08 0.0000000000000000e+00  -1.1409435467404347e-08 1.3404833371116932e-08 0.0000000000000000e+00  -8.5641210376906586e-09 1.3922058841571984e-08 0.0000000000000000e+00  -5.5918429051721189e-09 1.3036407501643182e-08 0.0000000000000000e+00  -2.8508868517359705e-09 1.0483645553116009e-08 0.0000000000000000e+00  -8.3052433296771817e-10 6.1370852400252404e-09 0.0000000000000000e+00  5.7555779175452704e-11 9.4712984765375182e-11 0.0000000000000000e+00  5.1453156188623049e-11 -5.1365256567509465e-11 0.0000000000000000e+00  -7.3882697708182830e-10 -4.7026460984381421e-09 0.0000000000000000e+00  -2.5730937109411810e-09 -8.1094770696009685e-09 0.0000000000000000e+00  -5.1328024895000260e-09 -1.0185893084447342e-08 0.0000000000000000e+00  -7.9966410454437297e-09 -1.0990701946685076e-08 0.0000000000000000e+00  -1.0831296723555673e-08 -1.0688478452742498e-08 0.0000000000000000e+00  -1.3386341194929556e-08 -9.4962841885659675e-09 0.0000000000000000e+00  -1.5493512162159074e-08 -7.6398986296512503e-09 0.0000000000000000e+00  -1.7050600904557711e-08 -5.3258011081993611e-09 0.0000000000000000e+00  -1.8002035643538859e-08 -2.7301969670994836e-09 0.0000000000000000e+00  -1.8321894374908035e-08 -1.7423993829277446e-12 0.0000000000000000e+00  -1.8002797558347126e-08 2.7268039702871721e-09 0.0000000000000000e+00  -1.7052085517253831e-08 5.3226731268970630e-09 0.0000000000000000e+00  -1.5495633523112792e-08 7.6371844941901531e-09 0.0000000000000000e+00  -1.3388956563197099e-08 9.4941138468212107e-09 0.0000000000000000e+00  -1.0834194203312247e-08 1.0686990050474263e-08 0.0000000000000000e+00  -7.9995573918126937e-09 1.0990069779887120e-08 0.0000000000000000e+00  -5.1352658656012795e-09 1.0186266633749068e-08 0.0000000000000000e+00  -2.5751129997316266e-09 8.1109746743698195e-09 0.0000000000000000e+00  -7.3829717477362802e-10 4.7051124924135793e-09 0.0000000000000000e+00  5.3185103423046774e-11 6.8834223967358876e-11 0.0000000000000000e+00  4.8162099957078014e-11 -3.4321221821961747e-11 0.0000000000000000e+00  -6.6931958903436233e-10 -3.4083753486846053e-09 0.0000000000000000e+00  -2.3597359924117593e-09 -5.9166871219396204e-09 0.0000000000000000e+00  -4.7638846882013283e-09 -7.4843394172245259e-09 0.0000000000000000e+00  -7.5119737016779272e-09 -8.1345414159572164e-09 0.0000000000000000e+00  -1.0293206581812326e-08 -7.9667446185094872e-09 0.0000000000000000e+00  -1.2854792517915734e-08 -7.1235022884476667e-09 0.0000000000000000e+00  -1.5008752055432979e-08 -5.7617800871892503e-09 0.0000000000000000e+00  -1.6625858111713207e-08 -4.0328470525987464e-09 0.0000000000000000e+00  -1.7625085057525049e-08 -2.0726671865530752e-09 0.0000000000000000e+00  -1.7962899031983965e-08 -1.5535112858788042e-12 0.0000000000000000e+00  -1.7625677798650046e-08 2.0696486829383566e-09 0.0000000000000000e+00  -1.6627003565618458e-08 4.0300879564668305e-09 0.0000000000000000e+00  -1.5010367620019413e-08 5.7594364340673291e-09 0.0000000000000000e+00  -1.2856750363596754e-08 7.1217150314574580e-09 0.0000000000000000e+00  -1.0295330646165895e-08 7.9656434441262795e-09 0.0000000000000000e+00  -7.5140600298429572e-09 8.1342400617348406e-09 0.0000000000000000e+00  -4.7655999369371681e-09 7.4848762025881447e-09 0.0000000000000000e+00  -2.3611179368323289e-09 5.9180733819813443e-09 0.0000000000000000e+00  -6.6887037068168531e-10 3.4104532192053890e-09 0.0000000000000000e+00  4.9595438897670804e-11 4.8521799633032064e-11 0.0000000000000000e+00  4.5861378181235645e-11 -1.9926114492258054e-11 0.0000000000000000e+00  -6.2045035592025404e-10 -2.2157598346897986e-09 0.0000000000000000e+00  -2.2069508657589020e-09 -3.8640823864880391e-09 0.0000000000000000e+00  -4.4926111351078913e-09 -4.9112811150052751e-09 0.0000000000000000e+00  -7.1426455080695457e-09 -5.3639739395762869e-09 0.0000000000000000e+00  -9.8636068668838493e-09 -5.2781304034197272e-09 0.0000000000000000e+00  -1.2404504317862094e-