<?xml version="1.0"?>
<VTKFile type="UnstructuredGrid"  version="0.1"  >
<UnstructuredGrid>
<Piece  NumberOfPoints="651" NumberOfCells="1200">
<Points>
<DataArray  type="Float64"  NumberOfComponents="3"  format="ascii">0 0 0  50000 0 0  100000 0 0  150000 0 0  200000 0 0  250000 0 0  300000 0 0  350000 0 0  400000 0 0  450000 0 0  500000 0 0  550000 0 0  600000 0 0  650000 0 0  700000 0 0  750000 0 0  800000 0 0  850000 0 0  900000 0 0  950000 0 0  1000000 0 0  0 50000 0  50000 50000 0  100000 50000 0  150000 50000 0  200000 50000 0  250000 50000 0  300000 50000 0  350000 50000 0  400000 50000 0  450000 50000 0  500000 50000 0  550000 50000 0  600000 50000 0  650000 50000 0  700000 50000 0  750000 50000 0  800000 50000 0  850000 50000 0  900000 50000 0  950000 50000 0  1000000 50000 0  0 100000 0  50000 100000 0  100000 100000 0  150000 100000 0  200000 100000 0  250000 100000 0  300000 100000 0  350000 100000 0  400000 100000 0  450000 100000 0  500000 100000 0  550000 100000 0  600000 100000 0  650000 100000 0  700000 100000 0  750000 100000 0  800000 100000 0  850000 100000 0  900000 100000 0  950000 100000 0  1000000 100000 0  0 150000 0  50000 150000 0  100000 150000 0  150000 150000 0  200000 150000 0  250000 150000 0  300000 150000 0  350000 150000 0  400000 150000 0  450000 150000 0  500000 150000 0  550000 150000 0  600000 150000 0  650000 150000 0  700000 150000 0  750000 150000 0  800000 150000 0  850000 150000 0  900000 150000 0  950000 150000 0  1000000 150000 0  0 200000 0  50000 200000 0  100000 200000 0  150000 200000 0  200000 200000 0  250000 200000 0  300000 200000 0  350000 200000 0  400000 200000 0  450000 200000 0  500000 200000 0  550000 200000 0  600000 200000 0  650000 200000 0  700000 200000 0  750000 200000 0  800000 200000 0  850000 200000 0  900000 200000 0  950000 200000 0  1000000 200000 0  0 250000 0  50000 250000 0  100000 250000 0  150000 250000 0  200000 250000 0  250000 250000 0  300000 250000 0  350000 250000 0  400000 250000 0  450000 250000 0  500000 250000 0  550000 250000 0  600000 250000 0  650000 250000 0  700000 250000 0  750000 250000 0  800000 250000 0  850000 250000 0  900000 250000 0  950000 250000 0  1000000 250000 0  0 300000 0  50000 300000 0  100000 300000 0  150000 300000 0  200000 300000 0  250000 300000 0  300000 300000 0  350000 300000 0  400000 300000 0  450000 300000 0  500000 300000 0  550000 300000 0  600000 300000 0  650000 300000 0  700000 300000 0  750000 300000 0  800000 300000 0  850000 300000 0  900000 300000 0  950000 300000 0  1000000 300000 0  0 350000 0  50000 350000 0  100000 350000 0  150000 350000 0  200000 350000 0  250000 350000 0  300000 350000 0  350000 350000 0  400000 350000 0  450000 350000 0  500000 350000 0  550000 350000 0  600000 350000 0  650000 350000 0  700000 350000 0  750000 350000 0  800000 350000 0  850000 350000 0  900000 350000 0  950000 350000 0  1000000 350000 0  0 400000 0  50000 400000 0  100000 400000 0  150000 400000 0  200000 400000 0  250000 400000 0  300000 400000 0  350000 400000 0  400000 400000 0  450000 400000 0  500000 400000 0  550000 400000 0  600000 400000 0  650000 400000 0  700000 400000 0  750000 400000 0  800000 400000 0  850000 400000 0  900000 400000 0  950000 400000 0  1000000 400000 0  0 450000 0  50000 450000 0  100000 450000 0  150000 450000 0  200000 450000 0  250000 450000 0  300000 450000 0  350000 450000 0  400000 450000 0  450000 450000 0  500000 450000 0  550000 450000 0  600000 450000 0  650000 450000 0  700000 450000 0  750000 450000 0  800000 450000 0  850000 450000 0  900000 450000 0  950000 450000 0  1000000 450000 0  0 500000 0  50000 500000 0  100000 500000 0  150000 500000 0  200000 500000 0  250000 500000 0  300000 500000 0  350000 500000 0  400000 500000 0  450000 500000 0  500000 500000 0  550000 500000 0  600000 500000 0  650000 500000 0  700000 500000 0  750000 500000 0  800000 500000 0  850000 500000 0  900000 500000 0  950000 500000 0  1000000 500000 0  0 550000 0  50000 550000 0  100000 550000 0  150000 550000 0  200000 550000 0  250000 550000 0  300000 550000 0  350000 550000 0  400000 550000 0  450000 550000 0  500000 550000 0  550000 550000 0  600000 550000 0  650000 550000 0  700000 550000 0  750000 550000 0  800000 550000 0  850000 550000 0  900000 550000 0  950000 550000 0  1000000 550000 0  0 600000 0  50000 600000 0  100000 600000 0  150000 600000 0  200000 600000 0  250000 600000 0  300000 600000 0  350000 600000 0  400000 600000 0  450000 600000 0  500000 600000 0  550000 600000 0  600000 600000 0  650000 600000 0  700000 600000 0  750000 600000 0  800000 600000 0  850000 600000 0  900000 600000 0  950000 600000 0  1000000 600000 0  0 650000 0  50000 650000 0  100000 650000 0  150000 650000 0  200000 650000 0  250000 650000 0  300000 650000 0  350000 650000 0  400000 650000 0  450000 650000 0  500000 650000 0  550000 650000 0  600000 650000 0  650000 650000 0  700000 650000 0  750000 650000 0  800000 650000 0  850000 650000 0  900000 650000 0  950000 650000 0  1000000 650000 0  0 700000 0  50000 700000 0  100000 700000 0  150000 700000 0  200000 700000 0  250000 700000 0  300000 700000 0  350000 700000 0  400000 700000 0  450000 700000 0  500000 700000 0  550000 700000 0  600000 700000 0  650000 700000 0  700000 700000 0  750000 700000 0  800000 700000 0  850000 700000 0  900000 700000 0  950000 700000 0  1000000 700000 0  0 750000 0  50000 750000 0  100000 750000 0  150000 750000 0  200000 750000 0  250000 750000 0  300000 750000 0  350000 750000 0  400000 750000 0  450000 750000 0  500000 750000 0  550000 750000 0  600000 750000 0  650000 750000 0  700000 750000 0  750000 750000 0  800000 750000 0  850000 750000 0  900000 750000 0  950000 750000 0  1000000 750000 0  0 800000 0  50000 800000 0  100000 800000 0  150000 800000 0  200000 800000 0  250000 800000 0  300000 800000 0  350000 800000 0  400000 800000 0  450000 800000 0  500000 800000 0  550000 800000 0  600000 800000 0  650000 800000 0  700000 800000 0  750000 800000 0  800000 800000 0  850000 800000 0  900000 800000 0  950000 800000 0  1000000 800000 0  0 850000 0  50000 850000 0  100000 850000 0  150000 850000 0  200000 850000 0  250000 850000 0  300000 850000 0  350000 850000 0  400000 850000 0  450000 850000 0  500000 850000 0  550000 850000 0  600000 850000 0  650000 850000 0  700000 850000 0  750000 850000 0  800000 850000 0  850000 850000 0  900000 850000 0  950000 850000 0  1000000 850000 0  0 900000 0  50000 900000 0  100000 900000 0  150000 900000 0  200000 900000 0  250000 900000 0  300000 900000 0  350000 900000 0  400000 900000 0  450000 900000 0  500000 900000 0  550000 900000 0  600000 900000 0  650000 900000 0  700000 900000 0  750000 900000 0  800000 900000 0  850000 900000 0  900000 900000 0  950000 900000 0  1000000 900000 0  0 950000 0  50000 950000 0  100000 950000 0  150000 950000 0  200000 950000 0  250000 950000 0  300000 950000 0  350000 950000 0  400000 950000 0  450000 950000 0  500000 950000 0  550000 950000 0  600000 950000 0  650000 950000 0  700000 950000 0  750000 950000 0  800000 950000 0  850000 950000 0  900000 950000 0  950000 950000 0  1000000 950000 0  0 1000000 0  50000 1000000 0  100000 1000000 0  150000 1000000 0  200000 1000000 0  250000 1000000 0  300000 1000000 0  350000 1000000 0  400000 1000000 0  450000 1000000 0  500000 1000000 0  550000 1000000 0  600000 1000000 0  650000 1000000 0  700000 1000000 0  750000 1000000 0  800000 1000000 0  850000 1000000 0  900000 1000000 0  950000 1000000 0  1000000 1000000 0  0 1050000 0  50000 1050000 0  100000 1050000 0  150000 1050000 0  200000 1050000 0  250000 1050000 0  300000 1050000 0  350000 1050000 0  400000 1050000 0  450000 1050000 0  500000 1050000 0  550000 1050000 0  600000 1050000 0  650000 1050000 0  700000 1050000 0  750000 1050000 0  800000 1050000 0  850000 1050000 0  900000 1050000 0  950000 1050000 0  1000000 1050000 0  0 1100000 0  50000 1100000 0  100000 1100000 0  150000 1100000 0  200000 1100000 0  250000 1100000 0  300000 1100000 0  350000 1100000 0  400000 1100000 0  450000 1100000 0  500000 1100000 0  550000 1100000 0  600000 1100000 0  650000 1100000 0  700000 1100000 0  750000 1100000 0  800000 1100000 0  850000 1100000 0  900000 1100000 0  950000 1100000 0  1000000 1100000 0  0 1150000 0  50000 1150000 0  100000 1150000 0  150000 1150000 0  200000 1150000 0  250000 1150000 0  300000 1150000 0  350000 1150000 0  400000 1150000 0  450000 1150000 0  500000 1150000 0  550000 1150000 0  600000 1150000 0  650000 1150000 0  700000 1150000 0  750000 1150000 0  800000 1150000 0  850000 1150000 0  900000 1150000 0  950000 1150000 0  1000000 1150000 0  0 1200000 0  50000 1200000 0  100000 1200000 0  150000 1200000 0  200000 1200000 0  250000 1200000 0  300000 1200000 0  350000 1200000 0  400000 1200000 0  450000 1200000 0  500000 1200000 0  550000 1200000 0  600000 1200000 0  650000 1200000 0  700000 1200000 0  750000 1200000 0  800000 1200000 0  850000 1200000 0  900000 1200000 0  950000 1200000 0  1000000 1200000 0  0 1250000 0  50000 1250000 0  100000 1250000 0  150000 1250000 0  200000 1250000 0  250000 1250000 0  300000 1250000 0  350000 1250000 0  400000 1250000 0  450000 1250000 0  500000 1250000 0  550000 1250000 0  600000 1250000 0  650000 1250000 0  700000 1250000 0  750000 1250000 0  800000 1250000 0  850000 1250000 0  900000 1250000 0  950000 1250000 0  1000000 1250000 0  0 1300000 0  50000 1300000 0  100000 1300000 0  150000 1300000 0  200000 1300000 0  250000 1300000 0  300000 1300000 0  350000 1300000 0  400000 1300000 0  450000 1300000 0  500000 1300000 0  550000 1300000 0  600000 1300000 0  650000 1300000 0  700000 1300000 0  750000 1300000 0  800000 1300000 0  850000 1300000 0  900000 1300000 0  950000 1300000 0  1000000 1300000 0  0 1350000 0  50000 1350000 0  100000 1350000 0  150000 1350000 0  200000 1350000 0  250000 1350000 0  300000 1350000 0  350000 1350000 0  400000 1350000 0  450000 1350000 0  500000 1350000 0  550000 1350000 0  600000 1350000 0  650000 1350000 0  700000 135
[...]
<PointData  Vectors="f_10477"> 
<DataArray  type="Float64"  Name="f_10477"  NumberOfComponents="3" format="ascii">-5.3489828148921329e-09 -2.9786864957616973e-09 0.0000000000000000e+00  7.5745351776787351e-08 -1.9531854579573188e-09 0.0000000000000000e+00  7.8449322080660890e-08 -2.2771452496367524e-11 0.0000000000000000e+00  7.9184162313832108e-08 2.8196850522754484e-10 0.0000000000000000e+00  7.9552646924098557e-08 2.3984292988721045e-10 0.0000000000000000e+00  7.9730082463020283e-08 1.7162281098152991e-10 0.0000000000000000e+00  7.9821829422201654e-08 1.1750973622694521e-10 0.0000000000000000e+00  7.9871936890485706e-08 7.6873979166608733e-11 0.0000000000000000e+00  7.9898970085795640e-08 4.4912870511683890e-11 0.0000000000000000e+00  7.9911152925390710e-08 1.7770155276233508e-11 0.0000000000000000e+00  7.9911759174196475e-08 -7.4315579276177155e-12 0.0000000000000000e+00  7.9900950208820461e-08 -3.3114978052148329e-11 0.0000000000000000e+00  7.9875885220717278e-08 -6.1719340989430695e-11 0.0000000000000000e+00  7.9829251044177338e-08 -9.6120059160641863e-11 0.0000000000000000e+00  7.9744838483420654e-08 -1.3996937036844141e-10 0.0000000000000000e+00  7.9585132774989033e-08 -1.9747467122006603e-10 0.0000000000000000e+00  7.9259847339808043e-08 -2.6886548348296867e-10 0.0000000000000000e+00  7.8592190914089324e-08 -2.9287083941336202e-10 0.0000000000000000e+00  7.7185378407096456e-08 4.7491348508141503e-10 0.0000000000000000e+00  7.3171402766812657e-08 4.6171240490569619e-09 0.0000000000000000e+00  -7.7628633203287535e-09 4.8344300119832963e-09 0.0000000000000000e+00  -3.7559184087724285e-09 -3.2866436255963154e-09 0.0000000000000000e+00  -1.5547449618584433e-09 -2.3815818019929555e-08 0.0000000000000000e+00  1.7220244755291202e-08 -1.4039180620773316e-08 0.0000000000000000e+00  3.1910291793351555e-08 -7.7936963335957017e-09 0.0000000000000000e+00  4.1383429028635876e-08 -4.6098071799195820e-09 0.0000000000000000e+00  4.7542392267495191e-08 -2.8962248945746680e-09 0.0000000000000000e+00  5.1629658615514275e-08 -1.8794969321548689e-09 0.0000000000000000e+00  5.4339831222101122e-08 -1.2122114623720556e-09 0.0000000000000000e+00  5.6065448514697205e-08 -7.3009032236849777e-10 0.0000000000000000e+00  5.7026404085412533e-08 -3.4539762896573519e-10 0.0000000000000000e+00  5.7335023793970351e-08 -3.2832573007502653e-12 0.0000000000000000e+00  5.7025873374686831e-08 3.3851455677614556e-10 0.0000000000000000e+00  5.6064410765410023e-08 7.2216224291934865e-10 0.0000000000000000e+00  5.4338600363338680e-08 1.2021235652586789e-09 0.0000000000000000e+00  5.1629966432137829e-08 1.8649207766568594e-09 0.0000000000000000e+00  4.7551460412900836e-08 2.8709391437405044e-09 0.0000000000000000e+00  4.1426817678251020e-08 4.5598204792304170e-09 0.0000000000000000e+00  3.2086378547251690e-08 7.7508507798826513e-09 0.0000000000000000e+00  1.7872561125477445e-08 1.4403194585793784e-08 0.0000000000000000e+00  -4.3211306217268599e-10 2.5502560586002220e-08 0.0000000000000000e+00  -6.3099561565927809e-09 5.0127788109768478e-09 0.0000000000000000e+00  -1.0516074597128016e-09 -1.7298920779766507e-09 0.0000000000000000e+00  -6.5496613156449702e-09 -2.9841654231507180e-08 0.0000000000000000e+00  -2.6745237941177511e-09 -2.6267757579540604e-08 0.0000000000000000e+00  6.4512474239646280e-09 -1.8745444909829316e-08 0.0000000000000000e+00  1.5661929087634315e-08 -1.2838754876974862e-08 0.0000000000000000e+00  2.3098530209626036e-08 -8.7848567809264505e-09 0.0000000000000000e+00  2.8652357801500481e-08 -5.9921498376473295e-09 0.0000000000000000e+00  3.2601934135805674e-08 -3.9807970832397128e-09 0.0000000000000000e+00  3.5225319063042993e-08 -2.4377659931704117e-09 0.0000000000000000e+00  3.6722566272521672e-08 -1.1590701019126710e-09 0.0000000000000000e+00  3.7209737114706882e-08 2.0024387104125579e-13 0.0000000000000000e+00  3.6724772979165110e-08 1.1596297425631024e-09 0.0000000000000000e+00  3.5230541868734959e-08 2.4388879273411604e-09 0.0000000000000000e+00  3.2612405006826008e-08 3.9832101342917227e-09 0.0000000000000000e+00  2.8673515031584790e-08 5.9975577613375366e-09 0.0000000000000000e+00  2.3143698084605941e-08 8.7988143604916242e-09 0.0000000000000000e+00  1.5762800178614929e-08 1.2882949134423276e-08 0.0000000000000000e+00  6.6512540248237036e-09 1.8880267088681732e-08 0.0000000000000000e+00  -2.4398828297347708e-09 2.6512811072564892e-08 0.0000000000000000e+00  -6.0693176699690474e-09 2.9009490911844265e-08 0.0000000000000000e+00  -1.8248354397604028e-09 2.2837067264503933e-09 0.0000000000000000e+00  -1.2369013833349700e-10 -9.2364106885131097e-10 0.0000000000000000e+00  -4.3772151598609558e-09 -2.5399668948866579e-08 0.0000000000000000e+00  -6.4185884808596782e-09 -2.9836128264834801e-08 0.0000000000000000e+00  -3.8391433835298123e-09 -2.5723610641061680e-08 0.0000000000000000e+00  1.3339850023395792e-09 -1.9963686857085430e-08 0.0000000000000000e+00  6.8909924655279895e-09 -1.4803112026272090e-08 0.0000000000000000e+00  1.1754490665188426e-08 -1.0631964069325081e-08 0.0000000000000000e+00  1.5555888024200490e-08 -7.3001537118644304e-09 0.0000000000000000e+00  1.8230502656993264e-08 -4.5627559313422374e-09 0.0000000000000000e+00  1.9808999298326207e-08 -2.1942195697263648e-09 0.0000000000000000e+00  2.0331028585363871e-08 -8.3118567852998432e-13 0.0000000000000000e+00  1.9812802884002650e-08 2.1926836028763401e-09 0.0000000000000000e+00  1.8238995272626931e-08 4.5617269832006992e-09 0.0000000000000000e+00  1.5571160045788122e-08 7.3005348944038007e-09 0.0000000000000000e+00  1.1780458961347722e-08 1.0636189556296952e-08 0.0000000000000000e+00  6.9332900699974840e-09 1.4817767920411075e-08 0.0000000000000000e+00  1.3929612823668973e-09 2.0003173432288270e-08 0.0000000000000000e+00  -3.7794689633134207e-09 2.5790740863500329e-08 0.0000000000000000e+00  -6.3740484753118403e-09 2.9791504734979399e-08 0.0000000000000000e+00  -4.1482186176200194e-09 2.5029575824337705e-08 0.0000000000000000e+00  -2.0864605386508256e-10 1.3349451310357474e-09 0.0000000000000000e+00  6.3902834460267942e-11 -5.7208712909818120e-10 0.0000000000000000e+00  -2.9034344696431502e-09 -2.0844593865107782e-08 0.0000000000000000e+00  -6.2996560385732432e-09 -2.8530779245638253e-08 0.0000000000000000e+00  -7.2546849254343380e-09 -2.7998115057322793e-08 0.0000000000000000e+00  -5.6907758350647412e-09 -2.3956360449646410e-08 0.0000000000000000e+00  -2.8090864139887772e-09 -1.9055183903388428e-08 0.0000000000000000e+00  3.4279117008977619e-10 -1.4372854478314986e-08 0.0000000000000000e+00  3.1356346604468880e-09 -1.0201205940356798e-08 0.0000000000000000e+00  5.2541693305767393e-09 -6.5127375301021588e-09 0.0000000000000000e+00  6.5600085903370307e-09 -3.1692489078667822e-09 0.0000000000000000e+00  7.0007356687629240e-09 -1.2733927525484111e-12 0.0000000000000000e+00  6.5636020640495384e-09 3.1668928233854089e-09 0.0000000000000000e+00  5.2617314130451344e-09 6.5111048456122377e-09 0.0000000000000000e+00  3.1478115297375924e-09 1.0201359118126198e-08 0.0000000000000000e+00  3.6001236769905779e-10 1.4376865179872398e-08 0.0000000000000000e+00  -2.7877594858951939e-09 1.9065730387721715e-08 0.0000000000000000e+00  -5.6683841941831393e-09 2.3970963650451273e-08 0.0000000000000000e+00  -7.2343481795295527e-09 2.7991579479365771e-08 0.0000000000000000e+00  -6.2760142248861438e-09 2.8442640154566324e-08 0.0000000000000000e+00  -2.8281380148630057e-09 2.0726785871796067e-08 0.0000000000000000e+00  2.6851862483013580e-11 8.3734356127217345e-10 0.0000000000000000e+00  8.7105727220589778e-11 -3.7703310680625776e-10 0.0000000000000000e+00  -2.0967474817017357e-09 -1.7154439736378952e-08 0.0000000000000000e+00  -5.5081593673388090e-09 -2.5553608118419298e-08 0.0000000000000000e+00  -8.0041209602524402e-09 -2.7297776320365885e-08 0.0000000000000000e+00  -8.7729424482967980e-09 -2.5109114074481562e-08 0.0000000000000000e+00  -8.1641610632826218e-09 -2.1143030639869609e-08 0.0000000000000000e+00  -6.8278562977344703e-09 -1.6640799217452845e-08 0.0000000000000000e+00  -5.3278445468810848e-09 -1.2174100787613703e-08 0.0000000000000000e+00  -4.0445210025621402e-09 -7.9301696375885032e-09 0.0000000000000000e+00  -3.2004622195221389e-09 -3.9035877382174332e-09 0.0000000000000000e+00  -2.9071642495038767e-09 -1.8711609033505282e-12 0.0000000000000000e+00  -3.1980421379206601e-09 3.9000383873621336e-09 0.0000000000000000e+00  -4.0397707397423208e-09 7.9272900036855233e-09 0.0000000000000000e+00  -5.3211009600115126e-09 1.2172597667139246e-08 0.0000000000000000e+00  -6.8199901088343603e-09 1.6641463994622723e-08 0.0000000000000000e+00  -8.1567823977392624e-09 2.1145485410429468e-08 0.0000000000000000e+00  -8.7677361906799606e-09 2.5107839827620541e-08 0.0000000000000000e+00  -7.9992055983032428e-09 2.7276999218312094e-08 0.0000000000000000e+00  -5.5023558132287252e-09 2.5507343990579414e-08 0.0000000000000000e+00  -2.0767341410387225e-09 1.7125479604071264e-08 0.0000000000000000e+00  7.0119707468700987e-11 5.2829042197370066e-10 0.0000000000000000e+00  8.3036590278370989e-11 -2.6197924232993476e-10 0.0000000000000000e+00  -1.6241645533333694e-09 -1.4164482931636221e-08 0.0000000000000000e+00  -4.7463951375606968e-09 -2.2212066654408184e-08 0.0000000000000000e+00  -7.8039095416360129e-09 -2.5087728916153786e-08 0.0000000000000000e+00  -9.8757167860280337e-09 -2.4307077163558236e-08 0.0000000000000000e+00  -1.0850464174804979e-08 -2.1388460550498479e-08 0.0000000000000000e+00  -1.1003302316744437e-08 -1.7431377218350962e-08 0.0000000000000000e+00  -1.0705491447856529e-08 -1.3088118065270541e-08 0.0000000000000000e+00  -1.0275111927293003e-08 -8.6787694054441078e-09 0.0000000000000000e+00  -9.9333906015061213e-09 -4.3166183881752305e-09 0.0000000000000000e+00  -9.8057148829521620e-09 -2.2124637950179386e-12 0.0000000000000000e+00  -9.9323224780186507e-09 4.3123721618383752e-09 0.0000000000000000e+00  -1.0273231110037181e-08 8.6750792035249065e-09 0.0000000000000000e+00  -1.0703337246919339e-08 1.3085338657010492e-08 0.0000000000000000e+00  -1.1001669693163952e-08 1.7429486588934394e-08 0.0000000000000000e+00  -1.0850163035562108e-08 2.1386117946214879e-08 0.0000000000000000e+00  -9.8772558554917937e-09 2.4300512507530347e-08 0.0000000000000000e+00  -7.8058791501237670e-09 2.5072265972607540e-08 0.0000000000000000e+00  -4.7495665093990766e-09 2.2193462233946424e-08 0.0000000000000000e+00  -1.6191881005852585e-09 1.4161088916589448e-08 0.0000000000000000e+00  7.7082475906238911e-11 3.5351966091977678e-10 0.0000000000000000e+00  7.5452598701450383e-11 -1.8854867627624138e-10 0.0000000000000000e+00  -1.3203284935841523e-09 -1.1678627125376558e-08 0.0000000000000000e+00  -4.1177168670370866e-09 -1.8939451274123837e-08 0.0000000000000000e+00  -7.2909234543551036e-09 -2.2211723491795130e-08 0.0000000000000000e+00  -1.0009955425217507e-08 -2.2334544054087522e-08 0.0000000000000000e+00  -1.1965538354343731e-08 -2.0316439232807686e-08 0.0000000000000000e+00  -1.3179144496811187e-08 -1.7020627882555435e-08 0.0000000000000000e+00  -1.3829167220364708e-08 -1.3055063774963052e-08 0.0000000000000000e+00  -1.4122290821867311e-08 -8.7878529530038494e-09 0.0000000000000000e+00  -1.4227578616345620e-08 -4.4099444903087908e-09 0.0000000000000000e+00  -1.4250787326685152e-08 -2.3371728219149579e-12 0.0000000000000000e+00  -1.4227545941321990e-08 4.4054206947388961e-09 0.0000000000000000e+00  -1.4122436883709432e-08 8.7837563312763784e-09 0.0000000000000000e+00  -1.3829869983848250e-08 1.3051540824586839e-08 0.0000000000000000e+00  -1.3180830039988847e-08 1.7017434691824634e-08 0.0000000000000000e+00  -1.1968473378444757e-08 2.0312591765766360e-08 0.0000000000000000e+00  -1.0014169752122535e-08 2.2328511801212102e-08 0.0000000000000000e+00  -7.2954707885580230e-09 2.2203338850938724e-08 0.0000000000000000e+00  -4.1230061319224427e-09 1.8933454148208396e-08 0.0000000000000000e+00  -1.3188656663066394e-09 1.1681723875303930e-08 0.0000000000000000e+00  7.4354801152803336e-11 2.4829964726441916e-10 0.0000000000000000e+00  6.8219730062464864e-11 -1.3814513290862674e-10 0.0000000000000000e+00  -1.1085311445425386e-09 -9.5640538588298605e-09 0.0000000000000000e+00  -3.6074492244234325e-09 -1.5874135382572374e-08 0.0000000000000000e+00  -6.6988817101406764e-09 -1.9111502111772535e-08 0.0000000000000000e+00  -9.6813500897988198e-09 -1.9737123778903877e-08 0.0000000000000000e+00  -1.2182172054314661e-08 -1.8404413093047830e-08 0.0000000000000000e+00  -1.4075818728828000e-08 -1.5750876387712510e-08 0.0000000000000000e+00  -1.5392567080779857e-08 -1.2287762056951859e-08 0.0000000000000000e+00  -1.6228147780819573e-08 -8.3730066407896627e-09 0.0000000000000000e+00  -1.6682540104174442e-08 -4.2327384824806868e-09 0.0000000000000000e+00  -1.6825910145690824e-08 -2.2932052875435516e-12 0.0000000000000000e+00  -1.6683114007833213e-08 4.2282752781934527e-09 0.0000000000000000e+00  -1.6229405685401762e-08 8.3688762468409275e-09 0.0000000000000000e+00  -1.5394677403164707e-08 1.2284044118740607e-08 0.0000000000000000e+00  -1.4078916283747112e-08 1.5747405023540404e-08 0.0000000000000000e+00  -1.2186244903622902e-08 1.8400761478928546e-08 0.0000000000000000e+00  -9.6862258276686859e-09 1.9733018078525488e-08 0.0000000000000000e+00  -6.7037421250010556e-09 1.9107714996339299e-08 0.0000000000000000e+00  -3.6122922211598835e-09 1.5873212343541781e-08 0.0000000000000000e+00  -1.1078086136156434e-09 9.5681326472141716e-09 0.0000000000000000e+00  6.9138228242082799e-11 1.7958324656287292e-10 0.0000000000000000e+00  6.1921218679102885e-11 -1.0160539925836711e-10 0.0000000000000000e+00  -9.5177817438207895e-10 -7.7332950488211264e-09 0.0000000000000000e+00  -3.1900274645180025e-09 -1.3051233432348445e-08 0.0000000000000000e+00  -6.1176872830647559e-09 -1.6010253710650353e-08 0.0000000000000000e+00  -9.1495195723907873e-09 -1.6857737109515593e-08 0.0000000000000000e+00  -1.1909073671143402e-08 -1.6011556011252603e-08 0.0000000000000000e+00  -1.4194423697712102e-08 -1.3927002601965722e-08 0.0000000000000000e+00  -1.5935875503679117e-08 -1.1009078091018575e-08 0.0000000000000000e+00  -1.7139397479124282e-08 -7.5745106507121168e-09 0.0000000000000000e+00  -1.7839834893849765e-08 -3.8516558205894881e-09 0.0000000000000000e+00  -1.8069415659266331e-08 -2.1452957421252076e-12 0.0000000000000000e+00  -1.7840663879583989e-08 3.8474692594218820e-09 0.0000000000000000e+00  -1.7141083833228760e-08 7.5706063856931411e-09 0.0000000000000000e+00  -1.5938441874601592e-08 1.1005547400722047e-08 0.0000000000000000e+00  -1.4197835199285719e-08 1.3923822226217588e-08 0.0000000000000000e+00  -1.1913179928674292e-08 1.6008664028927217e-08 0.0000000000000000e+00  -9.1540533454286476e-09 1.6855299382889809e-08 0.0000000000000000e+00  -6.1219155353005147e-09 1.6008913668852880e-08 0.0000000000000000e+00  -3.1938506741925446e-09 1.3052135752296342e-08 0.0000000000000000e+00  -9.5117584720223729e-10 7.7369453758082452e-09 0.0000000000000000e+00  6.3619042354060300e-11 1.3176161568871960e-10 0.0000000000000000e+00  5.6602217699532004e-11 -7.4014718019911861e-11 0.0000000000000000e+00  -8.3162595221003118e-10 -6.1256021097644199e-09 0.0000000000000000e+00  -2.8478132297998203e-09 -1.0465770039534365e-08 0.0000000000000000e+00  -5.5869375588053986e-09 -1.3014620897193223e-08 0.0000000000000000e+00  -8.5570190633569589e-09 -1.3898456539999877e-08 0.0000000000000000e+00  -1.1400486174400410e-08 -1.3381566139870188e-08 0.0000000000000000e+00  -1.3880267752659880e-08 -1.1781880633454656e-08 0.0000000000000000e+00  -1.5864540019149664e-08 -9.4073968208617352e-09 0.0000000000000000e+00  -1.7294530671699112e-08 -6.5209317511258771e-09 0.0000000000000000e+00  -1.8152792861932360e-08 -3.3311354261991947e-09 0.0000000000000000e+00  -1.8438695368285395e-08 -1.9477318769652867e-12 0.0000000000000000e+00  -1.8153647411629579e-08 3.3273335735312786e-09 0.0000000000000000e+00  -1.7296221444303230e-08 6.5173923195529291e-09 0.0000000000000000e+00  -1.5867012920961231e-08 9.4042419631682467e-09 0.0000000000000000e+00  -1.3883407946240569e-08 1.1779189817124086e-08 0.0000000000000000e+00  -1.1404088735226061e-08 1.3379438030267749e-08 0.0000000000000000e+00  -8.5607960812303530e-09 1.3897121993358520e-08 0.0000000000000000e+00  -5.5902796342200869e-09 1.3014445074046685e-08 0.0000000000000000e+00  -2.8506611007969506e-09 1.0467193807104111e-08 0.0000000000000000e+00  -8.3103831433836418e-10 6.1286122139879024e-09 0.0000000000000000e+00  5.8497790156721344e-11 9.6834697019919007e-11 0.0000000000000000e+00  5.2253072420109772e-11 -5.2463393788127658e-11 0.0000000000000000e+00  -7.3883500673637999e-10 -4.6947271367439938e-09 0.0000000000000000e+00  -2.5713725499570511e-09 -8.0945782988313396e-09 0.0000000000000000e+00  -5.1284739777245003e-09 -1.0166235696513039e-08 0.0000000000000000e+00  -7.9891198499922846e-09 -1.0968512980764873e-08 0.0000000000000000e+00  -1.0820272121201773e-08 -1.0665947328460055e-08 0.0000000000000000e+00  -1.3371870459772886e-08 -9.4754577984853388e-09 0.0000000000000000e+00  -1.5475981958023592e-08 -7.6225690096412762e-09 0.0000000000000000e+00  -1.7030675194464644e-08 -5.3134058458455463e-09 0.0000000000000000e+00  -1.7980585231121450e-08 -2.7237404815553324e-09 0.0000000000000000e+00  -1.8299917702473241e-08 -1.7421030869662445e-12 0.0000000000000000e+00  -1.7981336752756594e-08 2.7203450799669124e-09 0.0000000000000000e+00  -1.7032141001960804e-08 5.3102668579924018e-09 0.0000000000000000e+00  -1.5478080074972819e-08 7.6198309386456156e-09 0.0000000000000000e+00  -1.3374463905590729e-08 9.4732486818029361e-09 0.0000000000000000e+00  -1.0823156026449756e-08 1.0664407213730930e-08 0.0000000000000000e+00  -7.9920366222957234e-09 1.0967822984931151e-08 0.0000000000000000e+00  -5.1309563337509334e-09 1.0166557548112175e-08 0.0000000000000000e+00  -2.5734166963251262e-09 8.0960473235826748e-09 0.0000000000000000e+00  -7.3828333902921054e-10 4.6972003674807409e-09 0.0000000000000000e+00  5.4033466873671501e-11 7.0339087085842538e-11 0.0000000000000000e+00  4.8885889905646278e-11 -3.5037340480087871e-11 0.0000000000000000e+00  -6.6888529058897820e-10 -3.4017242960352665e-09 0.0000000000000000e+00  -2.3567474024763109e-09 -5.9043942814493641e-09 0.0000000000000000e+00  -4.7571441140451219e-09 -7.4682407666703802e-09 0.0000000000000000e+00  -7.5007365409896060e-09 -8.1164491404470646e-09 0.0000000000000000e+00  -1.0277129963677591e-08 -7.9484233578451774e-09 0.0000000000000000e+00  -1.2834005719003238e-08 -7.1065954502242706e-09 0.0000000000000000e+00  -1.4983808582504758e-08 -5.7477260718920363e-09 0.0000000000000000e+00  -1.6597670666264709e-08 -4.0228012620252376e-09 0.0000000000000000e+00  -1.7594837287265246e-08 -2.0674381144463718e-09 0.0000000000000000e+00  -1.7931943100003707e-08 -1.5580057146342561e-12 0.0000000000000000e+00  -1.7595423458103998e-08 2.0644085125172327e-09 0.0000000000000000e+00  -1.6598804444301728e-08 4.0200251546071341e-09 0.0000000000000000e+00  -1.4985410214424945e-08 5.7453569626199331e-09 0.0000000000000000e+00  -1.2835951323247637e-08 7.1047739165558765e-09 0.0000000000000000e+00  -1.0279248033025314e-08 7.9472816953770997e-09 0.0000000000000000e+00  -7.5028264003538120e-09 8.1161070146980026e-09 0.0000000000000000e+00  -4.7588748367167231e-09 7.4687455981339142e-09 0.0000000000000000e+00  -2.3581470587854010e-09 5.9057690713870071e-09 0.0000000000000000e+00  -6.6841736674744965e-10 3.4038164659689203e-09 0.0000000000000000e+00  5.0360658539178075e-11 4.9557051815783969e-11 0.0000000000000000e+00  4.6530273342124521e-11 -2.0333422000253182e-11 0.0000000000000000e+00  -6.1968043692756807e-10 -2.2109684467500473e-09 0.0000000000000000e+00  -2.2029834478503003e-09 -3.8553245859101964e-09 0.0000000000000000e+00  -4.4839926952572102e-09 -4.8998673236088124e-09 0.0000000000000000e+00  -7.1285044124503103e-09 -5.3511842830257925e-09 0.0000000000000000e+00  -9.8435764731751558e-09 -5.2652035034271531e-09 0.0000000000000000e+00  -1.2378773919277133e-