<?xml version="1.0"?>
<VTKFile type="UnstructuredGrid"  version="0.1"  >
<UnstructuredGrid>
<Piece  NumberOfPoints="651" NumberOfCells="1200">
<Points>
<DataArray  type="Float64"  NumberOfComponents="3"  format="ascii">0 0 0  50000 0 0  100000 0 0  150000 0 0  200000 0 0  250000 0 0  300000 0 0  350000 0 0  400000 0 0  450000 0 0  500000 0 0  550000 0 0  600000 0 0  650000 0 0  700000 0 0  750000 0 0  800000 0 0  850000 0 0  900000 0 0  950000 0 0  1000000 0 0  0 50000 0  50000 50000 0  100000 50000 0  150000 50000 0  200000 50000 0  250000 50000 0  300000 50000 0  350000 50000 0  400000 50000 0  450000 50000 0  500000 50000 0  550000 50000 0  600000 50000 0  650000 50000 0  700000 50000 0  750000 50000 0  800000 50000 0  850000 50000 0  900000 50000 0  950000 50000 0  1000000 50000 0  0 100000 0  50000 100000 0  100000 100000 0  150000 100000 0  200000 100000 0  250000 100000 0  300000 100000 0  350000 100000 0  400000 100000 0  450000 100000 0  500000 100000 0  550000 100000 0  600000 100000 0  650000 100000 0  700000 100000 0  750000 100000 0  800000 100000 0  850000 100000 0  900000 100000 0  950000 100000 0  1000000 100000 0  0 150000 0  50000 150000 0  100000 150000 0  150000 150000 0  200000 150000 0  250000 150000 0  300000 150000 0  350000 150000 0  400000 150000 0  450000 150000 0  500000 150000 0  550000 150000 0  600000 150000 0  650000 150000 0  700000 150000 0  750000 150000 0  800000 150000 0  850000 150000 0  900000 150000 0  950000 150000 0  1000000 150000 0  0 200000 0  50000 200000 0  100000 200000 0  150000 200000 0  200000 200000 0  250000 200000 0  300000 200000 0  350000 200000 0  400000 200000 0  450000 200000 0  500000 200000 0  550000 200000 0  600000 200000 0  650000 200000 0  700000 200000 0  750000 200000 0  800000 200000 0  850000 200000 0  900000 200000 0  950000 200000 0  1000000 200000 0  0 250000 0  50000 250000 0  100000 250000 0  150000 250000 0  200000 250000 0  250000 250000 0  300000 250000 0  350000 250000 0  400000 250000 0  450000 250000 0  500000 250000 0  550000 250000 0  600000 250000 0  650000 250000 0  700000 250000 0  750000 250000 0  800000 250000 0  850000 250000 0  900000 250000 0  950000 250000 0  1000000 250000 0  0 300000 0  50000 300000 0  100000 300000 0  150000 300000 0  200000 300000 0  250000 300000 0  300000 300000 0  350000 300000 0  400000 300000 0  450000 300000 0  500000 300000 0  550000 300000 0  600000 300000 0  650000 300000 0  700000 300000 0  750000 300000 0  800000 300000 0  850000 300000 0  900000 300000 0  950000 300000 0  1000000 300000 0  0 350000 0  50000 350000 0  100000 350000 0  150000 350000 0  200000 350000 0  250000 350000 0  300000 350000 0  350000 350000 0  400000 350000 0  450000 350000 0  500000 350000 0  550000 350000 0  600000 350000 0  650000 350000 0  700000 350000 0  750000 350000 0  800000 350000 0  850000 350000 0  900000 350000 0  950000 350000 0  1000000 350000 0  0 400000 0  50000 400000 0  100000 400000 0  150000 400000 0  200000 400000 0  250000 400000 0  300000 400000 0  350000 400000 0  400000 400000 0  450000 400000 0  500000 400000 0  550000 400000 0  600000 400000 0  650000 400000 0  700000 400000 0  750000 400000 0  800000 400000 0  850000 400000 0  900000 400000 0  950000 400000 0  1000000 400000 0  0 450000 0  50000 450000 0  100000 450000 0  150000 450000 0  200000 450000 0  250000 450000 0  300000 450000 0  350000 450000 0  400000 450000 0  450000 450000 0  500000 450000 0  550000 450000 0  600000 450000 0  650000 450000 0  700000 450000 0  750000 450000 0  800000 450000 0  850000 450000 0  900000 450000 0  950000 450000 0  1000000 450000 0  0 500000 0  50000 500000 0  100000 500000 0  150000 500000 0  200000 500000 0  250000 500000 0  300000 500000 0  350000 500000 0  400000 500000 0  450000 500000 0  500000 500000 0  550000 500000 0  600000 500000 0  650000 500000 0  700000 500000 0  750000 500000 0  800000 500000 0  850000 500000 0  900000 500000 0  950000 500000 0  1000000 500000 0  0 550000 0  50000 550000 0  100000 550000 0  150000 550000 0  200000 550000 0  250000 550000 0  300000 550000 0  350000 550000 0  400000 550000 0  450000 550000 0  500000 550000 0  550000 550000 0  600000 550000 0  650000 550000 0  700000 550000 0  750000 550000 0  800000 550000 0  850000 550000 0  900000 550000 0  950000 550000 0  1000000 550000 0  0 600000 0  50000 600000 0  100000 600000 0  150000 600000 0  200000 600000 0  250000 600000 0  300000 600000 0  350000 600000 0  400000 600000 0  450000 600000 0  500000 600000 0  550000 600000 0  600000 600000 0  650000 600000 0  700000 600000 0  750000 600000 0  800000 600000 0  850000 600000 0  900000 600000 0  950000 600000 0  1000000 600000 0  0 650000 0  50000 650000 0  100000 650000 0  150000 650000 0  200000 650000 0  250000 650000 0  300000 650000 0  350000 650000 0  400000 650000 0  450000 650000 0  500000 650000 0  550000 650000 0  600000 650000 0  650000 650000 0  700000 650000 0  750000 650000 0  800000 650000 0  850000 650000 0  900000 650000 0  950000 650000 0  1000000 650000 0  0 700000 0  50000 700000 0  100000 700000 0  150000 700000 0  200000 700000 0  250000 700000 0  300000 700000 0  350000 700000 0  400000 700000 0  450000 700000 0  500000 700000 0  550000 700000 0  600000 700000 0  650000 700000 0  700000 700000 0  750000 700000 0  800000 700000 0  850000 700000 0  900000 700000 0  950000 700000 0  1000000 700000 0  0 750000 0  50000 750000 0  100000 750000 0  150000 750000 0  200000 750000 0  250000 750000 0  300000 750000 0  350000 750000 0  400000 750000 0  450000 750000 0  500000 750000 0  550000 750000 0  600000 750000 0  650000 750000 0  700000 750000 0  750000 750000 0  800000 750000 0  850000 750000 0  900000 750000 0  950000 750000 0  1000000 750000 0  0 800000 0  50000 800000 0  100000 800000 0  150000 800000 0  200000 800000 0  250000 800000 0  300000 800000 0  350000 800000 0  400000 800000 0  450000 800000 0  500000 800000 0  550000 800000 0  600000 800000 0  650000 800000 0  700000 800000 0  750000 800000 0  800000 800000 0  850000 800000 0  900000 800000 0  950000 800000 0  1000000 800000 0  0 850000 0  50000 850000 0  100000 850000 0  150000 850000 0  200000 850000 0  250000 850000 0  300000 850000 0  350000 850000 0  400000 850000 0  450000 850000 0  500000 850000 0  550000 850000 0  600000 850000 0  650000 850000 0  700000 850000 0  750000 850000 0  800000 850000 0  850000 850000 0  900000 850000 0  950000 850000 0  1000000 850000 0  0 900000 0  50000 900000 0  100000 900000 0  150000 900000 0  200000 900000 0  250000 900000 0  300000 900000 0  350000 900000 0  400000 900000 0  450000 900000 0  500000 900000 0  550000 900000 0  600000 900000 0  650000 900000 0  700000 900000 0  750000 900000 0  800000 900000 0  850000 900000 0  900000 900000 0  950000 900000 0  1000000 900000 0  0 950000 0  50000 950000 0  100000 950000 0  150000 950000 0  200000 950000 0  250000 950000 0  300000 950000 0  350000 950000 0  400000 950000 0  450000 950000 0  500000 950000 0  550000 950000 0  600000 950000 0  650000 950000 0  700000 950000 0  750000 950000 0  800000 950000 0  850000 950000 0  900000 950000 0  950000 950000 0  1000000 950000 0  0 1000000 0  50000 1000000 0  100000 1000000 0  150000 1000000 0  200000 1000000 0  250000 1000000 0  300000 1000000 0  350000 1000000 0  400000 1000000 0  450000 1000000 0  500000 1000000 0  550000 1000000 0  600000 1000000 0  650000 1000000 0  700000 1000000 0  750000 1000000 0  800000 1000000 0  850000 1000000 0  900000 1000000 0  950000 1000000 0  1000000 1000000 0  0 1050000 0  50000 1050000 0  100000 1050000 0  150000 1050000 0  200000 1050000 0  250000 1050000 0  300000 1050000 0  350000 1050000 0  400000 1050000 0  450000 1050000 0  500000 1050000 0  550000 1050000 0  600000 1050000 0  650000 1050000 0  700000 1050000 0  750000 1050000 0  800000 1050000 0  850000 1050000 0  900000 1050000 0  950000 1050000 0  1000000 1050000 0  0 1100000 0  50000 1100000 0  100000 1100000 0  150000 1100000 0  200000 1100000 0  250000 1100000 0  300000 1100000 0  350000 1100000 0  400000 1100000 0  450000 1100000 0  500000 1100000 0  550000 1100000 0  600000 1100000 0  650000 1100000 0  700000 1100000 0  750000 1100000 0  800000 1100000 0  850000 1100000 0  900000 1100000 0  950000 1100000 0  1000000 1100000 0  0 1150000 0  50000 1150000 0  100000 1150000 0  150000 1150000 0  200000 1150000 0  250000 1150000 0  300000 1150000 0  350000 1150000 0  400000 1150000 0  450000 1150000 0  500000 1150000 0  550000 1150000 0  600000 1150000 0  650000 1150000 0  700000 1150000 0  750000 1150000 0  800000 1150000 0  850000 1150000 0  900000 1150000 0  950000 1150000 0  1000000 1150000 0  0 1200000 0  50000 1200000 0  100000 1200000 0  150000 1200000 0  200000 1200000 0  250000 1200000 0  300000 1200000 0  350000 1200000 0  400000 1200000 0  450000 1200000 0  500000 1200000 0  550000 1200000 0  600000 1200000 0  650000 1200000 0  700000 1200000 0  750000 1200000 0  800000 1200000 0  850000 1200000 0  900000 1200000 0  950000 1200000 0  1000000 1200000 0  0 1250000 0  50000 1250000 0  100000 1250000 0  150000 1250000 0  200000 1250000 0  250000 1250000 0  300000 1250000 0  350000 1250000 0  400000 1250000 0  450000 1250000 0  500000 1250000 0  550000 1250000 0  600000 1250000 0  650000 1250000 0  700000 1250000 0  750000 1250000 0  800000 1250000 0  850000 1250000 0  900000 1250000 0  950000 1250000 0  1000000 1250000 0  0 1300000 0  50000 1300000 0  100000 1300000 0  150000 1300000 0  200000 1300000 0  250000 1300000 0  300000 1300000 0  350000 1300000 0  400000 1300000 0  450000 1300000 0  500000 1300000 0  550000 1300000 0  600000 1300000 0  650000 1300000 0  700000 1300000 0  750000 1300000 0  800000 1300000 0  850000 1300000 0  900000 1300000 0  950000 1300000 0  1000000 1300000 0  0 1350000 0  50000 1350000 0  100000 1350000 0  150000 1350000 0  200000 1350000 0  250000 1350000 0  300000 1350000 0  350000 1350000 0  400000 1350000 0  450000 1350000 0  500000 1350000 0  550000 1350000 0  600000 1350000 0  650000 1350000 0  700000 135
[...]
<PointData  Vectors="f_10477"> 
<DataArray  type="Float64"  Name="f_10477"  NumberOfComponents="3" format="ascii">-6.2132837656223955e-09 -3.4711734411692237e-09 0.0000000000000000e+00  7.4910618680474287e-08 -2.2385069788923726e-09 0.0000000000000000e+00  7.7917143733933414e-08 -9.6915189796612988e-11 0.0000000000000000e+00  7.8919087931277539e-08 2.8690525957365899e-10 0.0000000000000000e+00  7.9402386886838251e-08 2.6165014112351613e-10 0.0000000000000000e+00  7.9631653320925597e-08 1.8867725957571509e-10 0.0000000000000000e+00  7.9747216977583060e-08 1.2725756564237594e-10 0.0000000000000000e+00  7.9808085128134684e-08 8.1447892394853333e-11 0.0000000000000000e+00  7.9839692949707780e-08 4.6667651443420009e-11 0.0000000000000000e+00  7.9853473085800271e-08 1.8280220578028434e-11 0.0000000000000000e+00  7.9854019317489215e-08 -7.5109704086238536e-12 0.0000000000000000e+00  7.9841566733532380e-08 -3.4038071020322397e-11 0.0000000000000000e+00  7.9812144223775245e-08 -6.4643283676437503e-11 0.0000000000000000e+00  7.9755581791027557e-08 -1.0310827148054658e-10 0.0000000000000000e+00  7.9649588538901025e-08 -1.5391365797587305e-10 0.0000000000000000e+00  7.9444036364921029e-08 -2.2126247692607554e-10 0.0000000000000000e+00  7.9024641456407877e-08 -2.9863850399977690e-10 0.0000000000000000e+00  7.8177299492356362e-08 -2.8010173464245477e-10 0.0000000000000000e+00  7.6500080151719393e-08 7.0000777492992122e-10 0.0000000000000000e+00  7.2444779662269389e-08 5.0100396979141517e-09 0.0000000000000000e+00  -8.3894025329080282e-09 5.1291956189558524e-09 0.0000000000000000e+00  -4.3448880681211516e-09 -3.9271543051661017e-09 0.0000000000000000e+00  -6.9843282658542297e-10 -2.3273098924351317e-08 0.0000000000000000e+00  1.7217249742119778e-08 -1.4017256708253616e-08 0.0000000000000000e+00  3.1521166603030874e-08 -7.7727936366091709e-09 0.0000000000000000e+00  4.0666818392471046e-08 -4.5062881315883897e-09 0.0000000000000000e+00  4.6492218437892483e-08 -2.7478458974897142e-09 0.0000000000000000e+00  5.0249019250461262e-08 -1.7234745667352337e-09 0.0000000000000000e+00  5.2663670335831016e-08 -1.0749662548160537e-09 0.0000000000000000e+00  5.4157121759947474e-08 -6.2935311004302528e-10 0.0000000000000000e+00  5.4970161426444624e-08 -2.9225534134746968e-10 0.0000000000000000e+00  5.5227720582726686e-08 -3.1488591944189089e-12 0.0000000000000000e+00  5.4968572643292642e-08 2.8552607012922667e-10 0.0000000000000000e+00  5.4154012559740951e-08 6.2120783579447383e-10 0.0000000000000000e+00  5.2659579832629044e-08 1.0639044808752792e-09 0.0000000000000000e+00  5.0246527554609392e-08 1.7063852093263488e-09 0.0000000000000000e+00  4.6501308804200489e-08 2.7172097398055882e-09 0.0000000000000000e+00  4.0721649831003957e-08 4.4498087294852810e-09 0.0000000000000000e+00  3.1742661923765804e-08 7.7395394448438389e-09 0.0000000000000000e+00  1.8013639909891854e-08 1.4445925494428707e-08 0.0000000000000000e+00  3.3174102246859003e-10 2.5003867091708410e-08 0.0000000000000000e+00  -6.9442881154384593e-09 5.4857522739198704e-09 0.0000000000000000e+00  -1.3065537492064438e-09 -2.2791397570487344e-09 0.0000000000000000e+00  -6.5562027750840215e-09 -2.9525987703993450e-08 0.0000000000000000e+00  -2.8897316493957555e-09 -2.5806194882595886e-08 0.0000000000000000e+00  5.8083840973173844e-09 -1.8196141105655440e-08 0.0000000000000000e+00  1.4453041648811384e-08 -1.2221645117680029e-08 0.0000000000000000e+00  2.1297490700259365e-08 -8.1449961841511813e-09 0.0000000000000000e+00  2.6283870887047542e-08 -5.3906026968889729e-09 0.0000000000000000e+00  2.9736335896178391e-08 -3.4753502380446483e-09 0.0000000000000000e+00  3.1973124835122570e-08 -2.0744152138595184e-09 0.0000000000000000e+00  3.3225316031278084e-08 -9.6911863888269675e-10 0.0000000000000000e+00  3.3628330670727037e-08 1.0428396855188263e-12 0.0000000000000000e+00  3.3226714832413382e-08 9.7148500402281939e-10 0.0000000000000000e+00  3.1976926405352102e-08 2.0777298428586474e-09 0.0000000000000000e+00  2.9745308623594872e-08 3.4806899062448892e-09 0.0000000000000000e+00  2.6304744451705790e-08 5.4003021174257440e-09 0.0000000000000000e+00  2.1346708401593969e-08 8.1661418129897671e-09 0.0000000000000000e+00  1.4570510533205131e-08 1.2278660719017621e-08 0.0000000000000000e+00  6.0554610693396043e-09 1.8343018590968730e-08 0.0000000000000000e+00  -2.5558872306386531e-09 2.6002474545632134e-08 0.0000000000000000e+00  -6.1679118350987981e-09 2.8608321408270321e-08 0.0000000000000000e+00  -2.2461988426105487e-09 2.8646178218329166e-09 0.0000000000000000e+00  -1.9331286294900143e-10 -1.2518344038017198e-09 0.0000000000000000e+00  -4.6388754266602555e-09 -2.5121686381152654e-08 0.0000000000000000e+00  -6.8955881418883290e-09 -2.9011245551102032e-08 0.0000000000000000e+00  -4.7742507083971744e-09 -2.4589181215268302e-08 0.0000000000000000e+00  -2.4183334399270644e-10 -1.8685551860013507e-08 0.0000000000000000e+00  4.6206702162729956e-09 -1.3502761141068854e-08 0.0000000000000000e+00  8.8114998548196174e-09 -9.4262536378571525e-09 0.0000000000000000e+00  1.2022733212159499e-08 -6.2947044657706529e-09 0.0000000000000000e+00  1.4238666178084492e-08 -3.8427041674984434e-09 0.0000000000000000e+00  1.5526669549371201e-08 -1.8184852133226197e-09 0.0000000000000000e+00  1.5949192458503362e-08 6.5763400814301382e-13 0.0000000000000000e+00  1.5530246517631373e-08 1.8200513061713345e-09 0.0000000000000000e+00  1.4246973073018799e-08 3.8451684674062191e-09 0.0000000000000000e+00  1.2038508539031005e-08 6.2993003690241148e-09 0.0000000000000000e+00  8.8399587652421554e-09 9.4358666441954426e-09 0.0000000000000000e+00  4.6697714806148186e-09 1.3524368466197080e-08 0.0000000000000000e+00  -1.6874779232921510e-10 1.8731932263330328e-08 0.0000000000000000e+00  -4.6961531221285210e-09 2.4652800542581246e-08 0.0000000000000000e+00  -6.8302496267209538e-09 2.8914324045902529e-08 0.0000000000000000e+00  -4.4241058352420964e-09 2.4665394714350473e-08 0.0000000000000000e+00  -3.2921128456260026e-10 1.7581259555063928e-09 0.0000000000000000e+00  6.6188610509008697e-11 -7.6880098220634991e-10 0.0000000000000000e+00  -3.1596724622896954e-09 -2.0313832192671440e-08 0.0000000000000000e+00  -6.8750060584656176e-09 -2.7293105371739664e-08 0.0000000000000000e+00  -8.3264819833403949e-09 -2.6282580102323926e-08 0.0000000000000000e+00  -7.3946873654765764e-09 -2.1995237660237882e-08 0.0000000000000000e+00  -5.1980467120040314e-09 -1.7054666622215327e-08 0.0000000000000000e+00  -2.7134193590641340e-09 -1.2520103636527444e-08 0.0000000000000000e+00  -5.0775587299953084e-10 -8.6584458324971870e-09 0.0000000000000000e+00  1.1538434934176115e-09 -5.4090341413135141e-09 0.0000000000000000e+00  2.1701945101997893e-09 -2.5938821068643260e-09 0.0000000000000000e+00  2.5118669475999286e-09 2.5793342705460194e-13 0.0000000000000000e+00  2.1739596596729389e-09 2.5946381801242547e-09 0.0000000000000000e+00  1.1619822318716092e-09 5.4106514353732648e-09 0.0000000000000000e+00  -4.9408870862845362e-10 8.6620173128537818e-09 0.0000000000000000e+00  -2.6929589481474209e-09 1.2527496974413598e-08 0.0000000000000000e+00  -5.1707632307746833e-09 1.7067566083503802e-08 0.0000000000000000e+00  -7.3636005424767897e-09 2.2008169174810860e-08 0.0000000000000000e+00  -8.3003061063848763e-09 2.6265206007946668e-08 0.0000000000000000e+00  -6.8507954169490976e-09 2.7176928801614593e-08 0.0000000000000000e+00  -3.0782295830020852e-09 2.0158270572215481e-08 0.0000000000000000e+00  1.8877332489808681e-11 1.1149136867390759e-09 0.0000000000000000e+00  1.0909329240182764e-10 -4.9996289647934260e-10 0.0000000000000000e+00  -2.3065780695792087e-09 -1.6325620774915015e-08 0.0000000000000000e+00  -6.0495080855007406e-09 -2.3883784164097597e-08 0.0000000000000000e+00  -9.0111784672020731e-09 -2.5027824808899472e-08 0.0000000000000000e+00  -1.0336448518308875e-08 -2.2514603665146505e-08 0.0000000000000000e+00  -1.0320952722403079e-08 -1.8495059353477602e-08 0.0000000000000000e+00  -9.5605040791597696e-09 -1.4188616004149493e-08 0.0000000000000000e+00  -8.5673238450810048e-09 -1.0132733931998802e-08 0.0000000000000000e+00  -7.6787043318204856e-09 -6.4701044803234706e-09 0.0000000000000000e+00  -7.0848339471475572e-09 -3.1427334453659202e-09 0.0000000000000000e+00  -6.8770912079293867e-09 -4.0501556822886984e-13 0.0000000000000000e+00  -7.0820206358923479e-09 3.1420876673232142e-09 0.0000000000000000e+00  -7.6730146389236322e-09 6.4700123475717476e-09 0.0000000000000000e+00  -8.5588074485933609e-09 1.0133699462371559e-08 0.0000000000000000e+00  -9.5497020009162254e-09 1.4190931432487059e-08 0.0000000000000000e+00  -1.0309402961123758e-08 1.8497195654945538e-08 0.0000000000000000e+00  -1.0326533709837754e-08 2.2508878372172652e-08 0.0000000000000000e+00  -9.0038624522789280e-09 2.4996256419692738e-08 0.0000000000000000e+00  -6.0441744639245041e-09 2.3820539268787897e-08 0.0000000000000000e+00  -2.2818073569975245e-09 1.6280179090188483e-08 0.0000000000000000e+00  8.9443055781750564e-11 7.0588649973175913e-10 0.0000000000000000e+00  1.0662785015944754e-10 -3.3927760987297400e-10 0.0000000000000000e+00  -1.7792727393458927e-09 -1.3077796274526200e-08 0.0000000000000000e+00  -5.1666103231857409e-09 -2.0162755438807643e-08 0.0000000000000000e+00  -8.5855445256614904e-09 -2.2353196618952407e-08 0.0000000000000000e+00  -1.1075266997996723e-08 -2.1198589828487983e-08 0.0000000000000000e+00  -1.2487895137291370e-08 -1.8221013850827548e-08 0.0000000000000000e+00  -1.3062664274311036e-08 -1.4499442001032978e-08 0.0000000000000000e+00  -1.3135472211276774e-08 -1.0647601856187928e-08 0.0000000000000000e+00  -1.2993726116051029e-08 -6.9332377573533094e-09 0.0000000000000000e+00  -1.2835027458852082e-08 -3.4071555015415820e-09 0.0000000000000000e+00  -1.2769897001513959e-08 -9.4681358696821509e-13 0.0000000000000000e+00  -1.2833476858791044e-08 3.4053496743868511e-09 0.0000000000000000e+00  -1.2990809319855300e-08 6.9316833942514360e-09 0.0000000000000000e+00  -1.3131625955182117e-08 1.0646334625777414e-08 0.0000000000000000e+00  -1.3058659859557119e-08 1.4497924048186320e-08 0.0000000000000000e+00  -1.2484822190409814e-08 1.8217119857999806e-08 0.0000000000000000e+00  -1.1074308675423985e-08 2.1187539922412186e-08 0.0000000000000000e+00  -8.5865209411872870e-09 2.2329787470909572e-08 0.0000000000000000e+00  -5.1702480890574037e-09 2.0134200990556044e-08 0.0000000000000000e+00  -1.7715831072503526e-09 1.3067061882777493e-08 0.0000000000000000e+00  1.0112048606014292e-10 4.6636965694852198e-10 0.0000000000000000e+00  9.5158617893576740e-11 -2.3632074123881717e-10 0.0000000000000000e+00  -1.4157094499660667e-09 -1.0412760744516103e-08 0.0000000000000000e+00  -4.3686726462058764e-09 -1.6626282675712649e-08 0.0000000000000000e+00  -7.7494527026338564e-09 -1.9162639871024793e-08 0.0000000000000000e+00  -1.0702250915822004e-08 -1.8886177643740131e-08 0.0000000000000000e+00  -1.2897992299617189e-08 -1.6809636051015692e-08 0.0000000000000000e+00  -1.4340804191036416e-08 -1.3776687643434929e-08 0.0000000000000000e+00  -1.5191533666353750e-08 -1.0355181264959634e-08 0.0000000000000000e+00  -1.5640953696915319e-08 -6.8567538532710104e-09 0.0000000000000000e+00  -1.5845406351226163e-08 -3.4038664131884670e-09 0.0000000000000000e+00  -1.5902452633318624e-08 -1.3165975526430180e-12 0.0000000000000000e+00  -1.5844887470340287e-08 3.4012614480263607e-09 0.0000000000000000e+00  -1.5640117796049611e-08 6.8541887117483919e-09 0.0000000000000000e+00  -1.5190774669100896e-08 1.0352478086948562e-08 0.0000000000000000e+00  -1.4340662815753237e-08 1.3773195630758367e-08 0.0000000000000000e+00  -1.2899060451338556e-08 1.6803922747421248e-08 0.0000000000000000e+00  -1.0705064175038872e-08 1.8876375544819046e-08 0.0000000000000000e+00  -7.7536976849583715e-09 1.9148777457787946e-08 0.0000000000000000e+00  -4.3745827980159118e-09 1.6614506717386364e-08 0.0000000000000000e+00  -1.4122209294281135e-09 1.0412521604921882e-08 0.0000000000000000e+00  9.6360266144603387e-11 3.1954159162116819e-10 0.0000000000000000e+00  8.2541295251829668e-11 -1.6659089847510008e-10 0.0000000000000000e+00  -1.1438584404228360e-09 -8.2140648817940401e-09 0.0000000000000000e+00  -3.6729485020020515e-09 -1.3445559739210911e-08 0.0000000000000000e+00  -6.7968639474540912e-09 -1.5932792879460781e-08 0.0000000000000000e+00  -9.8086019851185965e-09 -1.6154626616523553e-08 0.0000000000000000e+00  -1.2334109697943593e-08 -1.4766825830088225e-08 0.0000000000000000e+00  -1.4249066301461154e-08 -1.2387795207729942e-08 0.0000000000000000e+00  -1.5583941834590493e-08 -9.4889649682392310e-09 0.0000000000000000e+00  -1.6433749297394865e-08 -6.3710268196080119e-09 0.0000000000000000e+00  -1.6897281338425353e-08 -3.1897435693335325e-09 0.0000000000000000e+00  -1.7043680267170379e-08 -1.5196633114181878e-12 0.0000000000000000e+00  -1.6897409730512938e-08 3.1866997136259879e-09 0.0000000000000000e+00  -1.6434142394402954e-08 6.3679257045112576e-09 0.0000000000000000e+00  -1.5584843266619105e-08 9.4856096278630373e-09 0.0000000000000000e+00  -1.4250772853317313e-08 1.2383743601390144e-08 0.0000000000000000e+00  -1.2336899017706060e-08 1.4761439837917428e-08 0.0000000000000000e+00  -9.8126632091795608e-09 1.6147618687671541e-08 0.0000000000000000e+00  -6.8017451861733685e-09 1.5925349733702818e-08 0.0000000000000000e+00  -3.6784128250020349e-09 1.3441336369797686e-08 0.0000000000000000e+00  -1.1412941825352824e-09 8.2167443421171479e-09 0.0000000000000000e+00  8.6607667893560166e-11 2.2361535453815540e-10 0.0000000000000000e+00  7.0803467017909593e-11 -1.1759781956391668e-10 0.0000000000000000e+00  -9.3199913831591609e-10 -6.3955650519097567e-09 0.0000000000000000e+00  -3.0783456073995761e-09 -1.0662862203525452e-08 0.0000000000000000e+00  -5.8662848068172835e-09 -1.2895343733134947e-08 0.0000000000000000e+00  -8.7267049110601968e-09 -1.3353816680892963e-08 0.0000000000000000e+00  -1.1300574595467553e-08 -1.2456863006704078e-08 0.0000000000000000e+00  -1.3405050026233035e-08 -1.0641451771295019e-08 0.0000000000000000e+00  -1.4987378185193634e-08 -8.2747219107702443e-09 0.0000000000000000e+00  -1.6067263157580867e-08 -5.6183868525025534e-09 0.0000000000000000e+00  -1.6689471850895966e-08 -2.8325103296800004e-09 0.0000000000000000e+00  -1.6892184599307709e-08 -1.5934680804888014e-12 0.0000000000000000e+00  -1.6689915292549409e-08 2.8293109027253338e-09 0.0000000000000000e+00  -1.6068220263610973e-08 5.6151232246390880e-09 0.0000000000000000e+00  -1.4988966892564014e-08 8.2712704758527718e-09 0.0000000000000000e+00  -1.3407399339242048e-08 1.0637618908026992e-08 0.0000000000000000e+00  -1.1303774612285473e-08 1.2452519849997025e-08 0.0000000000000000e+00  -8.7307471749041684e-09 1.3349254038988992e-08 0.0000000000000000e+00  -5.8706509282021742e-09 1.2891634085177860e-08 0.0000000000000000e+00  -3.0826777733014872e-09 1.0661980891157549e-08 0.0000000000000000e+00  -9.2971608488613477e-10 6.3988469311367400e-09 0.0000000000000000e+00  7.5782918023926018e-11 1.5795056093428411e-10 0.0000000000000000e+00  6.0637864136342104e-11 -8.2292453345409009e-11 0.0000000000000000e+00  -7.6551316698245560e-10 -4.8871721737368258e-09 0.0000000000000000e+00  -2.5832778775625451e-09 -8.2616918728440683e-09 0.0000000000000000e+00  -5.0301591266915075e-09 -1.0144069060581259e-08 0.0000000000000000e+00  -7.6499521675746973e-09 -1.0671753816003035e-08 0.0000000000000000e+00  -1.0119822878211673e-08 -1.0109001395714860e-08 0.0000000000000000e+00  -1.2238006842821998e-08 -8.7570408120011715e-09 0.0000000000000000e+00  -1.3904629627031303e-08 -6.8896040330402228e-09 0.0000000000000000e+00  -1.5087602324055309e-08 -4.7194048364241744e-09 0.0000000000000000e+00  -1.5789399946888240e-08 -2.3924575488194175e-09 0.0000000000000000e+00  -1.6021657997650549e-08 -1.5806190277382272e-12 0.0000000000000000e+00  -1.5789935222826681e-08 2.3892922153188547e-09 0.0000000000000000e+00  -1.5088699305638274e-08 4.7162175787253354e-09 0.0000000000000000e+00  -1.3906328024352473e-08 6.8863605227192082e-09 0.0000000000000000e+00  -1.2240337441097546e-08 8.7537258412062657e-09 0.0000000000000000e+00  -1.0122772384363362e-08 1.0105726296076279e-08 0.0000000000000000e+00  -7.6534171417664615e-09 1.0668921430494898e-08 0.0000000000000000e+00  -5.0336542777656329e-09 1.0142421754729986e-08 0.0000000000000000e+00  -2.5864971796147633e-09 8.2622837643867753e-09 0.0000000000000000e+00  -7.6348712512338374e-10 4.8903856902330211e-09 0.0000000000000000e+00  6.5511875476677593e-11 1.1156329626454742e-10 0.0000000000000000e+00  5.2335058012962961e-11 -5.6254643210388081e-11 0.0000000000000000e+00  -6.3686464436122913e-10 -3.6271539132952424e-09 0.0000000000000000e+00  -2.1860631427901941e-09 -6.1960540348415922e-09 0.0000000000000000e+00  -4.3271707944689968e-09 -7.6939053175097895e-09 0.0000000000000000e+00  -6.6908579233522446e-09 -8.1893534835996206e-09 0.0000000000000000e+00  -8.9933816640676869e-09 -7.8468669583693610e-09 0.0000000000000000e+00  -1.1033727555890386e-08 -6.8691630890154907e-09 0.0000000000000000e+00  -1.2688592150113728e-08 -5.4525907101335187e-09 0.0000000000000000e+00  -1.3893667480722074e-08 -3.7603953739447567e-09 0.0000000000000000e+00  -1.4621980835995291e-08 -1.9144614553390043e-09 0.0000000000000000e+00  -1.4865368518370000e-08 -1.5198139203683561e-12 0.0000000000000000e+00  -1.4622480122332187e-08 1.9114330706932432e-09 0.0000000000000000e+00  -1.3894669269680830e-08 3.7574020239125161e-09 0.0000000000000000e+00  -1.2690095766225549e-08 5.4496688394251323e-09 0.0000000000000000e+00  -1.1035715171568734e-08 6.8663971456944291e-09 0.0000000000000000e+00  -8.9957948167462408e-09 7.8444502020901367e-09 0.0000000000000000e+00  -6.6935682328910561e-09 8.1876439631246350e-09 0.0000000000000000e+00  -4.3297822045866369e-09 7.6933764483011247e-09 0.0000000000000000e+00  -2.1883589840325043e-09 6.1972888442964874e-09 0.0000000000000000e+00  -6.3517409576040577e-10 3.6301353457266123e-09 0.0000000000000000e+00  5.6561912633512636e-11 7.8012261822783350e-11 0.0000000000000000e+00  4.6009561254714931e-11 -3.6457010365666139e-11 0.0000000000000000e+00  -5.4138405879400772e-10 -2.5589936243051654e-09 0.0000000000000000e+00  -1.8838087577058706e-09 -4.4051305209410134e-09 0.0000000000000000e+00  -3.7759364959506761e-09 -5.5148309949420668e-09 0.0000000000000000e+00  -5.9118059371265241e-09 -5.9196940371481927e-09 0.0000000000000000e+00  -8.0415167960438499e-09 -5.7192925891646863e-09 0.0000000000000000e+00  -9.9725569369460208e-09 -5.0450166724166634e-09 0.0000000000000000e+00  -1.1571984085338524e-08 -4.0307525166655729e-09 0.0000000000000000e+00  -1.2757187915633570e-08 -2.7937079689978869e-09 0.0000000000000000e+00  -1.3482505460862846e-08 -1.4268782761659531e-09 0.0000000000000000e+00  -1.3726452589500592e-08 -1.4424181514229483e-12 0.0000000000000000e+00  -1.3482905117896832e-08 1.4240200981919286e-09 0.0000000000000000e+00  -1.2757980993014648e-08 2.7909359951950632e-09 0.0000000000000000e+00  -1.1573154268382250e-08 4.0281489837701168e-09 0.0000000000000000e+00  -9.9740701131999659e-09 5.0427115731009004e-09 0.0000000000000000e+00  -8.0433068597474838e-09 5.7174902019361551e-09 0.0000000000000000e+00  -5.9137592430378311e-09 5.9186794680222955e-09 0.0000000000000000e+00  -3.7777625735333401e-09 5.5149036145364444e-09 0.0000000000000000e+00  -1.8853686003090653e-09 4.4066356721497857e-09 0.0000000000000000e+00  -5.4009041387819712e-10 2.5617359695106287e-09 0.0000000000000000e+00  4.9309495101405268e-11 5.3161278842110306e-11 0.0000000000000000e+00  4.1682424651501101e-11 -2.0675787202413853e-11 0.0000000000000000e+00  -4.7568387475239936e-10 -1.6303124874945608e-09 0.0000000000000000e+00  -1.6724773553021456e-09 -2.8215515096220127e-09 0.0000000000000000e+00  -3.3829579675745802e-09 -3.5520686530267611e-09 0.0000000000000000e+00  -5.3440274725788595e-09 -3.8347286065889506e-09 0.0000000000000000e+00  -7.3310028584132338e-09 -3.7257825208532959e-09 0.0000000000000000e+00  -9.160872172848396