<?xml version="1.0"?>
<VTKFile type="UnstructuredGrid"  version="0.1"  >
<UnstructuredGrid>
<Piece  NumberOfPoints="651" NumberOfCells="1200">
<Points>
<DataArray  type="Float64"  NumberOfComponents="3"  format="ascii">0 0 0  50000 0 0  100000 0 0  150000 0 0  200000 0 0  250000 0 0  300000 0 0  350000 0 0  400000 0 0  450000 0 0  500000 0 0  550000 0 0  600000 0 0  650000 0 0  700000 0 0  750000 0 0  800000 0 0  850000 0 0  900000 0 0  950000 0 0  1000000 0 0  0 50000 0  50000 50000 0  100000 50000 0  150000 50000 0  200000 50000 0  250000 50000 0  300000 50000 0  350000 50000 0  400000 50000 0  450000 50000 0  500000 50000 0  550000 50000 0  600000 50000 0  650000 50000 0  700000 50000 0  750000 50000 0  800000 50000 0  850000 50000 0  900000 50000 0  950000 50000 0  1000000 50000 0  0 100000 0  50000 100000 0  100000 100000 0  150000 100000 0  200000 100000 0  250000 100000 0  300000 100000 0  350000 100000 0  400000 100000 0  450000 100000 0  500000 100000 0  550000 100000 0  600000 100000 0  650000 100000 0  700000 100000 0  750000 100000 0  800000 100000 0  850000 100000 0  900000 100000 0  950000 100000 0  1000000 100000 0  0 150000 0  50000 150000 0  100000 150000 0  150000 150000 0  200000 150000 0  250000 150000 0  300000 150000 0  350000 150000 0  400000 150000 0  450000 150000 0  500000 150000 0  550000 150000 0  600000 150000 0  650000 150000 0  700000 150000 0  750000 150000 0  800000 150000 0  850000 150000 0  900000 150000 0  950000 150000 0  1000000 150000 0  0 200000 0  50000 200000 0  100000 200000 0  150000 200000 0  200000 200000 0  250000 200000 0  300000 200000 0  350000 200000 0  400000 200000 0  450000 200000 0  500000 200000 0  550000 200000 0  600000 200000 0  650000 200000 0  700000 200000 0  750000 200000 0  800000 200000 0  850000 200000 0  900000 200000 0  950000 200000 0  1000000 200000 0  0 250000 0  50000 250000 0  100000 250000 0  150000 250000 0  200000 250000 0  250000 250000 0  300000 250000 0  350000 250000 0  400000 250000 0  450000 250000 0  500000 250000 0  550000 250000 0  600000 250000 0  650000 250000 0  700000 250000 0  750000 250000 0  800000 250000 0  850000 250000 0  900000 250000 0  950000 250000 0  1000000 250000 0  0 300000 0  50000 300000 0  100000 300000 0  150000 300000 0  200000 300000 0  250000 300000 0  300000 300000 0  350000 300000 0  400000 300000 0  450000 300000 0  500000 300000 0  550000 300000 0  600000 300000 0  650000 300000 0  700000 300000 0  750000 300000 0  800000 300000 0  850000 300000 0  900000 300000 0  950000 300000 0  1000000 300000 0  0 350000 0  50000 350000 0  100000 350000 0  150000 350000 0  200000 350000 0  250000 350000 0  300000 350000 0  350000 350000 0  400000 350000 0  450000 350000 0  500000 350000 0  550000 350000 0  600000 350000 0  650000 350000 0  700000 350000 0  750000 350000 0  800000 350000 0  850000 350000 0  900000 350000 0  950000 350000 0  1000000 350000 0  0 400000 0  50000 400000 0  100000 400000 0  150000 400000 0  200000 400000 0  250000 400000 0  300000 400000 0  350000 400000 0  400000 400000 0  450000 400000 0  500000 400000 0  550000 400000 0  600000 400000 0  650000 400000 0  700000 400000 0  750000 400000 0  800000 400000 0  850000 400000 0  900000 400000 0  950000 400000 0  1000000 400000 0  0 450000 0  50000 450000 0  100000 450000 0  150000 450000 0  200000 450000 0  250000 450000 0  300000 450000 0  350000 450000 0  400000 450000 0  450000 450000 0  500000 450000 0  550000 450000 0  600000 450000 0  650000 450000 0  700000 450000 0  750000 450000 0  800000 450000 0  850000 450000 0  900000 450000 0  950000 450000 0  1000000 450000 0  0 500000 0  50000 500000 0  100000 500000 0  150000 500000 0  200000 500000 0  250000 500000 0  300000 500000 0  350000 500000 0  400000 500000 0  450000 500000 0  500000 500000 0  550000 500000 0  600000 500000 0  650000 500000 0  700000 500000 0  750000 500000 0  800000 500000 0  850000 500000 0  900000 500000 0  950000 500000 0  1000000 500000 0  0 550000 0  50000 550000 0  100000 550000 0  150000 550000 0  200000 550000 0  250000 550000 0  300000 550000 0  350000 550000 0  400000 550000 0  450000 550000 0  500000 550000 0  550000 550000 0  600000 550000 0  650000 550000 0  700000 550000 0  750000 550000 0  800000 550000 0  850000 550000 0  900000 550000 0  950000 550000 0  1000000 550000 0  0 600000 0  50000 600000 0  100000 600000 0  150000 600000 0  200000 600000 0  250000 600000 0  300000 600000 0  350000 600000 0  400000 600000 0  450000 600000 0  500000 600000 0  550000 600000 0  600000 600000 0  650000 600000 0  700000 600000 0  750000 600000 0  800000 600000 0  850000 600000 0  900000 600000 0  950000 600000 0  1000000 600000 0  0 650000 0  50000 650000 0  100000 650000 0  150000 650000 0  200000 650000 0  250000 650000 0  300000 650000 0  350000 650000 0  400000 650000 0  450000 650000 0  500000 650000 0  550000 650000 0  600000 650000 0  650000 650000 0  700000 650000 0  750000 650000 0  800000 650000 0  850000 650000 0  900000 650000 0  950000 650000 0  1000000 650000 0  0 700000 0  50000 700000 0  100000 700000 0  150000 700000 0  200000 700000 0  250000 700000 0  300000 700000 0  350000 700000 0  400000 700000 0  450000 700000 0  500000 700000 0  550000 700000 0  600000 700000 0  650000 700000 0  700000 700000 0  750000 700000 0  800000 700000 0  850000 700000 0  900000 700000 0  950000 700000 0  1000000 700000 0  0 750000 0  50000 750000 0  100000 750000 0  150000 750000 0  200000 750000 0  250000 750000 0  300000 750000 0  350000 750000 0  400000 750000 0  450000 750000 0  500000 750000 0  550000 750000 0  600000 750000 0  650000 750000 0  700000 750000 0  750000 750000 0  800000 750000 0  850000 750000 0  900000 750000 0  950000 750000 0  1000000 750000 0  0 800000 0  50000 800000 0  100000 800000 0  150000 800000 0  200000 800000 0  250000 800000 0  300000 800000 0  350000 800000 0  400000 800000 0  450000 800000 0  500000 800000 0  550000 800000 0  600000 800000 0  650000 800000 0  700000 800000 0  750000 800000 0  800000 800000 0  850000 800000 0  900000 800000 0  950000 800000 0  1000000 800000 0  0 850000 0  50000 850000 0  100000 850000 0  150000 850000 0  200000 850000 0  250000 850000 0  300000 850000 0  350000 850000 0  400000 850000 0  450000 850000 0  500000 850000 0  550000 850000 0  600000 850000 0  650000 850000 0  700000 850000 0  750000 850000 0  800000 850000 0  850000 850000 0  900000 850000 0  950000 850000 0  1000000 850000 0  0 900000 0  50000 900000 0  100000 900000 0  150000 900000 0  200000 900000 0  250000 900000 0  300000 900000 0  350000 900000 0  400000 900000 0  450000 900000 0  500000 900000 0  550000 900000 0  600000 900000 0  650000 900000 0  700000 900000 0  750000 900000 0  800000 900000 0  850000 900000 0  900000 900000 0  950000 900000 0  1000000 900000 0  0 950000 0  50000 950000 0  100000 950000 0  150000 950000 0  200000 950000 0  250000 950000 0  300000 950000 0  350000 950000 0  400000 950000 0  450000 950000 0  500000 950000 0  550000 950000 0  600000 950000 0  650000 950000 0  700000 950000 0  750000 950000 0  800000 950000 0  850000 950000 0  900000 950000 0  950000 950000 0  1000000 950000 0  0 1000000 0  50000 1000000 0  100000 1000000 0  150000 1000000 0  200000 1000000 0  250000 1000000 0  300000 1000000 0  350000 1000000 0  400000 1000000 0  450000 1000000 0  500000 1000000 0  550000 1000000 0  600000 1000000 0  650000 1000000 0  700000 1000000 0  750000 1000000 0  800000 1000000 0  850000 1000000 0  900000 1000000 0  950000 1000000 0  1000000 1000000 0  0 1050000 0  50000 1050000 0  100000 1050000 0  150000 1050000 0  200000 1050000 0  250000 1050000 0  300000 1050000 0  350000 1050000 0  400000 1050000 0  450000 1050000 0  500000 1050000 0  550000 1050000 0  600000 1050000 0  650000 1050000 0  700000 1050000 0  750000 1050000 0  800000 1050000 0  850000 1050000 0  900000 1050000 0  950000 1050000 0  1000000 1050000 0  0 1100000 0  50000 1100000 0  100000 1100000 0  150000 1100000 0  200000 1100000 0  250000 1100000 0  300000 1100000 0  350000 1100000 0  400000 1100000 0  450000 1100000 0  500000 1100000 0  550000 1100000 0  600000 1100000 0  650000 1100000 0  700000 1100000 0  750000 1100000 0  800000 1100000 0  850000 1100000 0  900000 1100000 0  950000 1100000 0  1000000 1100000 0  0 1150000 0  50000 1150000 0  100000 1150000 0  150000 1150000 0  200000 1150000 0  250000 1150000 0  300000 1150000 0  350000 1150000 0  400000 1150000 0  450000 1150000 0  500000 1150000 0  550000 1150000 0  600000 1150000 0  650000 1150000 0  700000 1150000 0  750000 1150000 0  800000 1150000 0  850000 1150000 0  900000 1150000 0  950000 1150000 0  1000000 1150000 0  0 1200000 0  50000 1200000 0  100000 1200000 0  150000 1200000 0  200000 1200000 0  250000 1200000 0  300000 1200000 0  350000 1200000 0  400000 1200000 0  450000 1200000 0  500000 1200000 0  550000 1200000 0  600000 1200000 0  650000 1200000 0  700000 1200000 0  750000 1200000 0  800000 1200000 0  850000 1200000 0  900000 1200000 0  950000 1200000 0  1000000 1200000 0  0 1250000 0  50000 1250000 0  100000 1250000 0  150000 1250000 0  200000 1250000 0  250000 1250000 0  300000 1250000 0  350000 1250000 0  400000 1250000 0  450000 1250000 0  500000 1250000 0  550000 1250000 0  600000 1250000 0  650000 1250000 0  700000 1250000 0  750000 1250000 0  800000 1250000 0  850000 1250000 0  900000 1250000 0  950000 1250000 0  1000000 1250000 0  0 1300000 0  50000 1300000 0  100000 1300000 0  150000 1300000 0  200000 1300000 0  250000 1300000 0  300000 1300000 0  350000 1300000 0  400000 1300000 0  450000 1300000 0  500000 1300000 0  550000 1300000 0  600000 1300000 0  650000 1300000 0  700000 1300000 0  750000 1300000 0  800000 1300000 0  850000 1300000 0  900000 1300000 0  950000 1300000 0  1000000 1300000 0  0 1350000 0  50000 1350000 0  100000 1350000 0  150000 1350000 0  200000 1350000 0  250000 1350000 0  300000 1350000 0  350000 1350000 0  400000 1350000 0  450000 1350000 0  500000 1350000 0  550000 1350000 0  600000 1350000 0  650000 1350000 0  700000 135
[...]
<PointData  Vectors="f_10477"> 
<DataArray  type="Float64"  Name="f_10477"  NumberOfComponents="3" format="ascii">-5.7396043367689293e-09 -3.1963529603844735e-09 0.0000000000000000e+00  7.5369761074279389e-08 -2.0777390268197605e-09 0.0000000000000000e+00  7.8211538316900057e-08 -5.0852263279532781e-11 0.0000000000000000e+00  7.9065915467007735e-08 2.9016160404693312e-10 0.0000000000000000e+00  7.9486652380262178e-08 2.5581166432952254e-10 0.0000000000000000e+00  7.9689253425822770e-08 1.8526194209807083e-10 0.0000000000000000e+00  7.9793908614980546e-08 1.2725069880032519e-10 0.0000000000000000e+00  7.9850860320689175e-08 8.3226434483067354e-11 0.0000000000000000e+00  7.9881456600566528e-08 4.8560495197494172e-11 0.0000000000000000e+00  7.9895194049250086e-08 1.9173791476691884e-11 0.0000000000000000e+00  7.9895861686803723e-08 -8.0769764878781324e-12 0.0000000000000000e+00  7.9883648243092165e-08 -3.5870954140000457e-11 0.0000000000000000e+00  7.9855269484455762e-08 -6.6901917626397678e-11 0.0000000000000000e+00  7.9802277734229058e-08 -1.0430868508459980e-10 0.0000000000000000e+00  7.9705997609039415e-08 -1.5199599842739990e-10 0.0000000000000000e+00  7.9523675652138108e-08 -2.1413381052346828e-10 0.0000000000000000e+00  7.9154846211801482e-08 -2.8814366720994824e-10 0.0000000000000000e+00  7.8406351437948880e-08 -2.9318358284018144e-10 0.0000000000000000e+00  7.6877092902932804e-08 5.7086082148853588e-10 0.0000000000000000e+00  7.2841644286218869e-08 4.7909580611462327e-09 0.0000000000000000e+00  -8.0487741715611060e-09 4.9657997699918456e-09 0.0000000000000000e+00  -4.0229598875269521e-09 -3.5678911318614956e-09 0.0000000000000000e+00  -1.1635215834227790e-09 -2.3580740334597838e-08 0.0000000000000000e+00  1.7263512211824218e-08 -1.4064064062637501e-08 0.0000000000000000e+00  3.1865534372888275e-08 -7.8364524029663525e-09 0.0000000000000000e+00  4.1298909426841924e-08 -4.6268117584137456e-09 0.0000000000000000e+00  4.7427114960208283e-08 -2.8967515999947859e-09 0.0000000000000000e+00  5.1483542188890835e-08 -1.8726299447526089e-09 0.0000000000000000e+00  5.4165251843500766e-08 -1.2035198510181135e-09 0.0000000000000000e+00  5.5867978349031130e-08 -7.2283340958097250e-10 0.0000000000000000e+00  5.6814111820140142e-08 -3.4145138832786859e-10 0.0000000000000000e+00  5.7117513110101057e-08 -3.5305745366590834e-12 0.0000000000000000e+00  5.6813262714882571e-08 3.3405040036076637e-10 0.0000000000000000e+00  5.5866311046680782e-08 7.1430740533973208e-10 0.0000000000000000e+00  5.4163150194804047e-08 1.1926437238922981e-09 0.0000000000000000e+00  5.1483056021633483e-08 1.8567899188191666e-09 0.0000000000000000e+00  4.7436585859142137e-08 2.8691776732136058e-09 0.0000000000000000e+00  4.1347566070154374e-08 4.5741602161923971e-09 0.0000000000000000e+00  3.2061749505737084e-08 7.7977993693222338e-09 0.0000000000000000e+00  1.7983609710886531e-08 1.4456742423836633e-08 0.0000000000000000e+00  -8.2400994522919181e-11 2.5287725902218973e-08 0.0000000000000000e+00  -6.5985712993090129e-09 5.2220868954585600e-09 0.0000000000000000e+00  -1.1684219026600116e-09 -1.9669164572092411e-09 0.0000000000000000e+00  -6.5255595781569760e-09 -2.9753630611700954e-08 0.0000000000000000e+00  -2.6533107019548268e-09 -2.6185602382670298e-08 0.0000000000000000e+00  6.4245830774785205e-09 -1.8681535079309917e-08 0.0000000000000000e+00  1.5559322871218931e-08 -1.2779403608191738e-08 0.0000000000000000e+00  2.2924725207346787e-08 -8.7245287318769640e-09 0.0000000000000000e+00  2.8414523959959443e-08 -5.9342478395135964e-09 0.0000000000000000e+00  3.2309569531805230e-08 -3.9310740556724111e-09 0.0000000000000000e+00  3.4890974037246907e-08 -2.4014139937681146e-09 0.0000000000000000e+00  3.6361674462043946e-08 -1.1397799897709158e-09 0.0000000000000000e+00  3.6839696521571251e-08 5.5724297481281339e-13 0.0000000000000000e+00  3.6363686695241969e-08 1.1411139307481838e-09 0.0000000000000000e+00  3.4895876776953224e-08 2.4035005752646626e-09 0.0000000000000000e+00  3.2319796298856738e-08 3.9348085736233770e-09 0.0000000000000000e+00  2.8436027699609651e-08 5.9416240272829590e-09 0.0000000000000000e+00  2.2972126684098605e-08 8.7417951484700863e-09 0.0000000000000000e+00  1.5667858114104781e-08 1.2829544101546801e-08 0.0000000000000000e+00  6.6453315390377525e-09 1.8822152996449854e-08 0.0000000000000000e+00  -2.3730473425356973e-09 2.6407943767894082e-08 0.0000000000000000e+00  -6.0853273179219082e-09 2.8880360070150819e-08 0.0000000000000000e+00  -2.0158506728930416e-09 2.5368248996301405e-09 0.0000000000000000e+00  -1.5805524432005892e-10 -1.0634833422473001e-09 0.0000000000000000e+00  -4.4462982100142808e-09 -2.5401256256029409e-08 0.0000000000000000e+00  -6.4626215975667348e-09 -2.9727637095391788e-08 0.0000000000000000e+00  -3.9108547530557155e-09 -2.5581945280833591e-08 0.0000000000000000e+00  1.1893683981870173e-09 -1.9819246590836393e-08 0.0000000000000000e+00  6.6650045625690684e-09 -1.4662945548962421e-08 0.0000000000000000e+00  1.1450426173109584e-08 -1.0503990766803028e-08 0.0000000000000000e+00  1.5184170025473060e-08 -7.1936346310429642e-09 0.0000000000000000e+00  1.7806609904272237e-08 -4.4862296553707712e-09 0.0000000000000000e+00  1.9352192632985086e-08 -2.1540044097418711e-09 0.0000000000000000e+00  1.9862973566536199e-08 -2.2543028294400659e-13 0.0000000000000000e+00  1.9356019590739327e-08 2.1537436463379109e-09 0.0000000000000000e+00  1.7815252308557627e-08 4.4866738463629863e-09 0.0000000000000000e+00  1.5199975519125085e-08 7.1958454447684473e-09 0.0000000000000000e+00  1.1477846389087849e-08 1.0510606887208267e-08 0.0000000000000000e+00  6.7106584895267751e-09 1.4680719480548781e-08 0.0000000000000000e+00  1.2549103544912595e-09 1.9861856992529216e-08 0.0000000000000000e+00  -3.8431052839333746e-09 2.5647781660601749e-08 0.0000000000000000e+00  -6.4091042942458924e-09 2.9660135842417086e-08 0.0000000000000000e+00  -4.2225474190731112e-09 2.4992840937492661e-08 0.0000000000000000e+00  -2.6470286980043114e-10 1.5161180755923353e-09 0.0000000000000000e+00  6.1215581274392312e-11 -6.5695298382203882e-10 0.0000000000000000e+00  -2.9625809106880849e-09 -2.0825583727363014e-08 0.0000000000000000e+00  -6.3726696517171169e-09 -2.8396241758899840e-08 0.0000000000000000e+00  -7.3671290039396847e-09 -2.7800347552598139e-08 0.0000000000000000e+00  -5.8705514852896245e-09 -2.3734512777001521e-08 0.0000000000000000e+00  -3.0676481896179078e-09 -1.8832954651997489e-08 0.0000000000000000e+00  5.3225248130550089e-12 -1.4169005876813857e-08 0.0000000000000000e+00  2.7282970929630944e-09 -1.0031995910468871e-08 0.0000000000000000e+00  4.7924529285697757e-09 -6.3916253805714555e-09 0.0000000000000000e+00  6.0638872106898802e-09 -3.1058847040171856e-09 0.0000000000000000e+00  6.4928894925585494e-09 -6.7695219326380249e-13 0.0000000000000000e+00  6.0676474762978404e-09 3.1047551416514981e-09 0.0000000000000000e+00  4.8004402338596661e-09 6.3913140127539198e-09 0.0000000000000000e+00  2.7413605741100317e-09 1.0033596461558039e-08 0.0000000000000000e+00  2.4231271048477560e-11 1.4174510067258681e-08 0.0000000000000000e+00  -3.0434398857217897e-09 1.8844599075953741e-08 0.0000000000000000e+00  -5.8440751618372135e-09 2.3748464873466362e-08 0.0000000000000000e+00  -7.3441221150636607e-09 2.7789216457172214e-08 0.0000000000000000e+00  -6.3489868433252772e-09 2.8296320753943835e-08 0.0000000000000000e+00  -2.8843366266779327e-09 2.0691951903281565e-08 0.0000000000000000e+00  1.9753743685702780e-11 9.5594873433183891e-10 0.0000000000000000e+00  9.3515949552580959e-11 -4.3237840254721994e-10 0.0000000000000000e+00  -2.1404186835580697e-09 -1.7095001159450113e-08 0.0000000000000000e+00  -5.5858357489517547e-09 -2.5378601702761568e-08 0.0000000000000000e+00  -8.1304689138822624e-09 -2.7043472780019645e-08 0.0000000000000000e+00  -8.9627725612795226e-09 -2.4815034646753316e-08 0.0000000000000000e+00  -8.4254688734776447e-09 -2.0843233478263295e-08 0.0000000000000000e+00  -7.1607901783525267e-09 -1.6363846423563445e-08 0.0000000000000000e+00  -5.7246725752629155e-09 -1.1943773266800246e-08 0.0000000000000000e+00  -4.4913534729058269e-09 -7.7653454012887470e-09 0.0000000000000000e+00  -3.6790180853973904e-09 -3.8174933979779426e-09 0.0000000000000000e+00  -3.3965173317702377e-09 -1.3322372472574914e-12 0.0000000000000000e+00  -3.6763627827872358e-09 3.8150240652614508e-09 0.0000000000000000e+00  -4.4860727756136696e-09 7.7635375104078734e-09 0.0000000000000000e+00  -5.7169908951489186e-09 1.1943267486201899e-08 0.0000000000000000e+00  -7.1514524996105544e-09 1.6365230002464990e-08 0.0000000000000000e+00  -8.4160813290069809e-09 2.0845630307386058e-08 0.0000000000000000e+00  -8.9553410295227652e-09 2.4811970297014930e-08 0.0000000000000000e+00  -8.1243978686231054e-09 2.7018224868345457e-08 0.0000000000000000e+00  -5.5802779786960579e-09 2.5325430243560471e-08 0.0000000000000000e+00  -2.1185944109230275e-09 1.7059521814324725e-08 0.0000000000000000e+00  7.4824856986669143e-11 6.0565751976814186e-10 0.0000000000000000e+00  9.1199282578781200e-11 -2.9951727064105030e-10 0.0000000000000000e+00  -1.6570622779036039e-09 -1.4065438077327020e-08 0.0000000000000000e+00  -4.8154565674147827e-09 -2.1990206966860614e-08 0.0000000000000000e+00  -7.9203452476393944e-09 -2.4777514675432356e-08 0.0000000000000000e+00  -1.0047653248170511e-08 -2.3948862352735668e-08 0.0000000000000000e+00  -1.1081779160828770e-08 -2.1021728343790501e-08 0.0000000000000000e+00  -1.1292962267823181e-08 -1.7091466048165186e-08 0.0000000000000000e+00  -1.1046955177325393e-08 -1.2804972119509714e-08 0.0000000000000000e+00  -1.0657113982687082e-08 -8.4760633274391488e-09 0.0000000000000000e+00  -1.0341120730183723e-08 -4.2108170092597931e-09 0.0000000000000000e+00  -1.0222186210672036e-08 -1.7799887766477568e-12 0.0000000000000000e+00  -1.0339806248461865e-08 4.2074124812881034e-09 0.0000000000000000e+00  -1.0654713262404912e-08 8.4731294593094710e-09 0.0000000000000000e+00  -1.1043970077537260e-08 1.2802750327291192e-08 0.0000000000000000e+00  -1.1290187567825669e-08 1.7089726757077785e-08 0.0000000000000000e+00  -1.1080162408606485e-08 2.1018798504284307e-08 0.0000000000000000e+00  -1.0048010417264159e-08 2.3940536716184522e-08 0.0000000000000000e+00  -7.9218190454810734e-09 2.4758893508716595e-08 0.0000000000000000e+00  -4.8188287700042894e-09 2.1967731858493037e-08 0.0000000000000000e+00  -1.6513935057638267e-09 1.4059333133521071e-08 0.0000000000000000e+00  8.4550613953267075e-11 4.0506510053393502e-10 0.0000000000000000e+00  8.3323102634475186e-11 -2.1449867000234441e-10 0.0000000000000000e+00  -1.3444157317308419e-09 -1.1547068108642829e-08 0.0000000000000000e+00  -4.1704865187853361e-09 -1.8676226590733874e-08 0.0000000000000000e+00  -7.3803688056336557e-09 -2.1854580950170817e-08 0.0000000000000000e+00  -1.0140140502990683e-08 -2.1925770238397727e-08 0.0000000000000000e+00  -1.2137384115037872e-08 -1.9898670059359046e-08 0.0000000000000000e+00  -1.3390884893031339e-08 -1.6633343926493754e-08 0.0000000000000000e+00  -1.4075910686896441e-08 -1.2732347409372556e-08 0.0000000000000000e+00  -1.4396285157381584e-08 -8.5568031280906667e-09 0.0000000000000000e+00  -1.4518823650806547e-08 -4.2894154604485605e-09 0.0000000000000000e+00  -1.4547869707303388e-08 -2.0183826821609285e-12 0.0000000000000000e+00  -1.4518569725944628e-08 4.2854931067742097e-09 0.0000000000000000e+00  -1.4395985638075760e-08 8.5531890624605334e-09 0.0000000000000000e+00  -1.4075952502533611e-08 1.2729074622560410e-08 0.0000000000000000e+00  -1.3391746284939301e-08 1.6630010649432559e-08 0.0000000000000000e+00  -1.2139476214704151e-08 1.9894106079547250e-08 0.0000000000000000e+00  -1.0143713868725652e-08 2.1918297298846737e-08 0.0000000000000000e+00  -7.3847629517019574e-09 2.1844102274124515e-08 0.0000000000000000e+00  -4.1760463815811895e-09 1.8668063275824453e-08 0.0000000000000000e+00  -1.3426315308207552e-09 1.1548986520517279e-08 0.0000000000000000e+00  8.2184633329494653e-11 2.8355472763257005e-10 0.0000000000000000e+00  7.5217286594624493e-11 -1.5613892386287710e-10 0.0000000000000000e+00  -1.1242316882336853e-09 -9.4100713187499254e-09 0.0000000000000000e+00  -3.6391355735281166e-09 -1.5582672622822263e-08 0.0000000000000000e+00  -6.7498760756012841e-09 -1.8723847624084618e-08 0.0000000000000000e+00  -9.7522813832886891e-09 -1.9297261703297370e-08 0.0000000000000000e+00  -1.2272034240004281e-08 -1.7956490821323892e-08 0.0000000000000000e+00  -1.4182951739270522e-08 -1.5336231556804920e-08 0.0000000000000000e+00  -1.5514426786303732e-08 -1.1942452341486766e-08 0.0000000000000000e+00  -1.6361290911051323e-08 -8.1258686016256570e-09 0.0000000000000000e+00  -1.6822754656037992e-08 -4.1038879342522221e-09 0.0000000000000000e+00  -1.6968479382699042e-08 -2.0783876142403822e-12 0.0000000000000000e+00  -1.6823148327441241e-08 4.0998157306273658e-09 0.0000000000000000e+00  -1.6362198404087733e-08 8.1220087504192716e-09 0.0000000000000000e+00  -1.5516046380076206e-08 1.1938791516596795e-08 0.0000000000000000e+00  -1.4185483765574859e-08 1.5332502218352636e-08 0.0000000000000000e+00  -1.2275585478179009e-08 1.7952179641425839e-08 0.0000000000000000e+00  -9.7568264340955777e-09 1.9292076944410898e-08 0.0000000000000000e+00  -6.7547606282727072e-09 1.8718705778460372e-08 0.0000000000000000e+00  -3.6442630336092008e-09 1.5580524342376143e-08 0.0000000000000000e+00  -1.1232467239286276e-09 9.4136285549744084e-09 0.0000000000000000e+00  7.6469507723757059e-11 2.0403694330079162e-10 0.0000000000000000e+00  6.7886008909901602e-11 -1.1395770237585672e-10 0.0000000000000000e+00  -9.5918337209732483e-10 -7.5687979642307713e-09 0.0000000000000000e+00  -3.1980079367621613e-09 -1.2749237251599879e-08 0.0000000000000000e+00  -6.1237010709798693e-09 -1.5613753463884255e-08 0.0000000000000000e+00  -9.1507537601341822e-09 -1.6410916090887135e-08 0.0000000000000000e+00  -1.1903174408229117e-08 -1.5558204807006268e-08 0.0000000000000000e+00  -1.4180508436160388e-08 -1.3508133851330387e-08 0.0000000000000000e+00  -1.5914343971035483e-08 -1.0660606270897077e-08 0.0000000000000000e+00  -1.7111679449849657e-08 -7.3252592231387127e-09 0.0000000000000000e+00  -1.7808087488709520e-08 -3.7217765355774886e-09 0.0000000000000000e+00  -1.8036230112279747e-08 -2.0156105454411763e-12 0.0000000000000000e+00  -1.7808779631988768e-08 3.7178145857175805e-09 0.0000000000000000e+00  -1.7113107004447376e-08 7.3214749693301388e-09 0.0000000000000000e+00  -1.5916564232123463e-08 1.0657022428361384e-08 0.0000000000000000e+00  -1.4183547174200221e-08 1.3504668235259518e-08 0.0000000000000000e+00  -1.1906971652337282e-08 1.5554766486248469e-08 0.0000000000000000e+00  -9.1551381270298960e-09 1.6407704036749019e-08 0.0000000000000000e+00  -6.1280326038015707e-09 1.5611548043477635e-08 0.0000000000000000e+00  -3.2020817640444770e-09 1.2749448709830361e-08 0.0000000000000000e+00  -9.5830791513107844e-10 7.5722395892211453e-09 0.0000000000000000e+00  7.0099305795450767e-11 1.4872324553894680e-10 0.0000000000000000e+00  6.1537363560523237e-11 -8.2314257589685510e-11 0.0000000000000000e+00  -8.3102735438284207e-10 -5.9632855700219773e-09 0.0000000000000000e+00  -2.8315187412707251e-09 -1.0173130754035466e-08 0.0000000000000000e+00  -5.5460066014171441e-09 -1.2633652181152275e-08 0.0000000000000000e+00  -8.4851606857519491e-09 -1.3471304037153336e-08 0.0000000000000000e+00  -1.1294294447413534e-08 -1.2949499549563851e-08 0.0000000000000000e+00  -1.3740018344700510e-08 -1.1383410861210947e-08 0.0000000000000000e+00  -1.5693882978505719e-08 -9.0762585599934438e-09 0.0000000000000000e+00  -1.7099972905072897e-08 -6.2842377499912111e-09 0.0000000000000000e+00  -1.7942986534059573e-08 -3.2078656932656979e-09 0.0000000000000000e+00  -1.8223622005446922e-08 -1.8826998864935890e-12 0.0000000000000000e+00  -1.7943742752079898e-08 3.2041656413031926e-09 0.0000000000000000e+00  -1.7101481896416420e-08 6.2807173563388217e-09 0.0000000000000000e+00  -1.5696122177600055e-08 9.0729929160115852e-09 0.0000000000000000e+00  -1.3742922271791114e-08 1.1380448923630251e-08 0.0000000000000000e+00  -1.1297723795214705e-08 1.2946940400796324e-08 0.0000000000000000e+00  -8.4888887007960836e-09 1.3469426511908319e-08 0.0000000000000000e+00  -5.5494746817101083e-09 1.2632932167337426e-08 0.0000000000000000e+00  -2.8345679560788732e-09 1.0174183382994787e-08 0.0000000000000000e+00  -8.3016203417878214e-10 5.9662574450501070e-09 0.0000000000000000e+00  6.4005897029221199e-11 1.0846403186899068e-10 0.0000000000000000e+00  5.6254670207575896e-11 -5.7849637398760111e-11 0.0000000000000000e+00  -7.3091338919653622e-10 -4.5470443227401035e-09 0.0000000000000000e+00  -2.5321873534129126e-09 -7.8313045841172805e-09 0.0000000000000000e+00  -5.0428195413539149e-09 -9.8254167286189495e-09 0.0000000000000000e+00  -7.8473843821199476e-09 -1.0587751643074832e-08 0.0000000000000000e+00  -1.0618175829943004e-08 -1.0281718543566840e-08 0.0000000000000000e+00  -1.3110961664176462e-08 -9.1216516257318571e-09 0.0000000000000000e+00  -1.5163124075853244e-08 -7.3288363453035387e-09 0.0000000000000000e+00  -1.6677242991426851e-08 -5.1035808331459710e-09 0.0000000000000000e+00  -1.7601370995799437e-08 -2.6145163119890398e-09 0.0000000000000000e+00  -1.7911844571851439e-08 -1.7233053784103952e-12 0.0000000000000000e+00  -1.7602055238444181e-08 2.6111369357255249e-09 0.0000000000000000e+00  -1.6678586803455763e-08 5.1003961762510754e-09 0.0000000000000000e+00  -1.5165070794516745e-08 7.3259604190889292e-09 0.0000000000000000e+00  -1.3113411361068367e-08 9.1191996058685118e-09 0.0000000000000000e+00  -1.0620969270466768e-08 1.0279844585456995e-08 0.0000000000000000e+00  -7.8503019622642548e-09 1.0586685311191025e-08 0.0000000000000000e+00  -5.0454206960351578e-09 9.8254058897894453e-09 0.0000000000000000e+00  -2.5343839496569241e-09 7.8326038741441497e-09 0.0000000000000000e+00  -7.3010266446216621e-10 4.5495843567381811e-09 0.0000000000000000e+00  5.8581251248763284e-11 7.8139321147649184e-11 0.0000000000000000e+00  5.2116610510879385e-11 -3.8331506519723578e-11 0.0000000000000000e+00  -6.5474201162648991e-10 -3.2799234820892301e-09 0.0000000000000000e+00  -2.2978035557099570e-09 -5.6888082888570456e-09 0.0000000000000000e+00  -4.6326527196657461e-09 -7.1901915407184438e-09 0.0000000000000000e+00  -7.2981721000967153e-09 -7.8065872472609849e-09 0.0000000000000000e+00  -9.9914935693880507e-09 -7.6362797902105304e-09 0.0000000000000000e+00  -1.2468026223423925e-08 -6.8195064726036208e-09 0.0000000000000000e+00  -1.4547205057705427e-08 -5.5095708508412235e-09 0.0000000000000000e+00  -1.6106075753605633e-08 -3.8527665775557394e-09 0.0000000000000000e+00  -1.7068368154702093e-08 -1.9789630554885168e-09 0.0000000000000000e+00  -1.7393516555277092e-08 -1.5704646252271800e-12 0.0000000000000000e+00  -1.7068910776390657e-08 1.9758926214661590e-09 0.0000000000000000e+00  -1.6107131847534816e-08 3.8499051404307761e-09 0.0000000000000000e+00  -1.4548713282224582e-08 5.5070531496019835e-09 0.0000000000000000e+00  -1.2469888506421025e-08 6.8174706882785747e-09 0.0000000000000000e+00  -9.9935685545685903e-09 7.6348780882598514e-09 0.0000000000000000e+00  -7.3002819008996273e-09 7.8059839416734606e-09 0.0000000000000000e+00  -4.6344800026639983e-09 7.1905023096013640e-09 0.0000000000000000e+00  -2.2993116551160824e-09 5.6901438478916204e-09 0.0000000000000000e+00  -6.5405719437601530e-10 3.2821518621366612e-09 0.0000000000000000e+00  5.4050582919597525e-11 5.4610265807983337e-11 0.0000000000000000e+00  4.9202500529879070e-11 -2.2100799784889949e-11 0.0000000000000000e+00  -6.0079076430652894e-10 -2.1242604977584766e-09 0.0000000000000000e+00  -2.1288557520531259e-09 -3.7025509613711709e-09 0.0000000000000000e+00  -4.3295452999990797e-09 -4.7033079308846548e-09 0.0000000000000000e+00  -6.8789397156985510e-09 -5.1324983061547317e-09 0.0000000000000000e+00  -9.4933496033486455e-09 -5.0451669698724361e-09 0.0000000000000000e+00  -1.1931554125184714e-