<?xml version="1.0"?>
<VTKFile type="UnstructuredGrid"  version="0.1"  >
<UnstructuredGrid>
<Piece  NumberOfPoints="651" NumberOfCells="1200">
<Points>
<DataArray  type="Float64"  NumberOfComponents="3"  format="ascii">0 0 0  50000 0 0  100000 0 0  150000 0 0  200000 0 0  250000 0 0  300000 0 0  350000 0 0  400000 0 0  450000 0 0  500000 0 0  550000 0 0  600000 0 0  650000 0 0  700000 0 0  750000 0 0  800000 0 0  850000 0 0  900000 0 0  950000 0 0  1000000 0 0  0 50000 0  50000 50000 0  100000 50000 0  150000 50000 0  200000 50000 0  250000 50000 0  300000 50000 0  350000 50000 0  400000 50000 0  450000 50000 0  500000 50000 0  550000 50000 0  600000 50000 0  650000 50000 0  700000 50000 0  750000 50000 0  800000 50000 0  850000 50000 0  900000 50000 0  950000 50000 0  1000000 50000 0  0 100000 0  50000 100000 0  100000 100000 0  150000 100000 0  200000 100000 0  250000 100000 0  300000 100000 0  350000 100000 0  400000 100000 0  450000 100000 0  500000 100000 0  550000 100000 0  600000 100000 0  650000 100000 0  700000 100000 0  750000 100000 0  800000 100000 0  850000 100000 0  900000 100000 0  950000 100000 0  1000000 100000 0  0 150000 0  50000 150000 0  100000 150000 0  150000 150000 0  200000 150000 0  250000 150000 0  300000 150000 0  350000 150000 0  400000 150000 0  450000 150000 0  500000 150000 0  550000 150000 0  600000 150000 0  650000 150000 0  700000 150000 0  750000 150000 0  800000 150000 0  850000 150000 0  900000 150000 0  950000 150000 0  1000000 150000 0  0 200000 0  50000 200000 0  100000 200000 0  150000 200000 0  200000 200000 0  250000 200000 0  300000 200000 0  350000 200000 0  400000 200000 0  450000 200000 0  500000 200000 0  550000 200000 0  600000 200000 0  650000 200000 0  700000 200000 0  750000 200000 0  800000 200000 0  850000 200000 0  900000 200000 0  950000 200000 0  1000000 200000 0  0 250000 0  50000 250000 0  100000 250000 0  150000 250000 0  200000 250000 0  250000 250000 0  300000 250000 0  350000 250000 0  400000 250000 0  450000 250000 0  500000 250000 0  550000 250000 0  600000 250000 0  650000 250000 0  700000 250000 0  750000 250000 0  800000 250000 0  850000 250000 0  900000 250000 0  950000 250000 0  1000000 250000 0  0 300000 0  50000 300000 0  100000 300000 0  150000 300000 0  200000 300000 0  250000 300000 0  300000 300000 0  350000 300000 0  400000 300000 0  450000 300000 0  500000 300000 0  550000 300000 0  600000 300000 0  650000 300000 0  700000 300000 0  750000 300000 0  800000 300000 0  850000 300000 0  900000 300000 0  950000 300000 0  1000000 300000 0  0 350000 0  50000 350000 0  100000 350000 0  150000 350000 0  200000 350000 0  250000 350000 0  300000 350000 0  350000 350000 0  400000 350000 0  450000 350000 0  500000 350000 0  550000 350000 0  600000 350000 0  650000 350000 0  700000 350000 0  750000 350000 0  800000 350000 0  850000 350000 0  900000 350000 0  950000 350000 0  1000000 350000 0  0 400000 0  50000 400000 0  100000 400000 0  150000 400000 0  200000 400000 0  250000 400000 0  300000 400000 0  350000 400000 0  400000 400000 0  450000 400000 0  500000 400000 0  550000 400000 0  600000 400000 0  650000 400000 0  700000 400000 0  750000 400000 0  800000 400000 0  850000 400000 0  900000 400000 0  950000 400000 0  1000000 400000 0  0 450000 0  50000 450000 0  100000 450000 0  150000 450000 0  200000 450000 0  250000 450000 0  300000 450000 0  350000 450000 0  400000 450000 0  450000 450000 0  500000 450000 0  550000 450000 0  600000 450000 0  650000 450000 0  700000 450000 0  750000 450000 0  800000 450000 0  850000 450000 0  900000 450000 0  950000 450000 0  1000000 450000 0  0 500000 0  50000 500000 0  100000 500000 0  150000 500000 0  200000 500000 0  250000 500000 0  300000 500000 0  350000 500000 0  400000 500000 0  450000 500000 0  500000 500000 0  550000 500000 0  600000 500000 0  650000 500000 0  700000 500000 0  750000 500000 0  800000 500000 0  850000 500000 0  900000 500000 0  950000 500000 0  1000000 500000 0  0 550000 0  50000 550000 0  100000 550000 0  150000 550000 0  200000 550000 0  250000 550000 0  300000 550000 0  350000 550000 0  400000 550000 0  450000 550000 0  500000 550000 0  550000 550000 0  600000 550000 0  650000 550000 0  700000 550000 0  750000 550000 0  800000 550000 0  850000 550000 0  900000 550000 0  950000 550000 0  1000000 550000 0  0 600000 0  50000 600000 0  100000 600000 0  150000 600000 0  200000 600000 0  250000 600000 0  300000 600000 0  350000 600000 0  400000 600000 0  450000 600000 0  500000 600000 0  550000 600000 0  600000 600000 0  650000 600000 0  700000 600000 0  750000 600000 0  800000 600000 0  850000 600000 0  900000 600000 0  950000 600000 0  1000000 600000 0  0 650000 0  50000 650000 0  100000 650000 0  150000 650000 0  200000 650000 0  250000 650000 0  300000 650000 0  350000 650000 0  400000 650000 0  450000 650000 0  500000 650000 0  550000 650000 0  600000 650000 0  650000 650000 0  700000 650000 0  750000 650000 0  800000 650000 0  850000 650000 0  900000 650000 0  950000 650000 0  1000000 650000 0  0 700000 0  50000 700000 0  100000 700000 0  150000 700000 0  200000 700000 0  250000 700000 0  300000 700000 0  350000 700000 0  400000 700000 0  450000 700000 0  500000 700000 0  550000 700000 0  600000 700000 0  650000 700000 0  700000 700000 0  750000 700000 0  800000 700000 0  850000 700000 0  900000 700000 0  950000 700000 0  1000000 700000 0  0 750000 0  50000 750000 0  100000 750000 0  150000 750000 0  200000 750000 0  250000 750000 0  300000 750000 0  350000 750000 0  400000 750000 0  450000 750000 0  500000 750000 0  550000 750000 0  600000 750000 0  650000 750000 0  700000 750000 0  750000 750000 0  800000 750000 0  850000 750000 0  900000 750000 0  950000 750000 0  1000000 750000 0  0 800000 0  50000 800000 0  100000 800000 0  150000 800000 0  200000 800000 0  250000 800000 0  300000 800000 0  350000 800000 0  400000 800000 0  450000 800000 0  500000 800000 0  550000 800000 0  600000 800000 0  650000 800000 0  700000 800000 0  750000 800000 0  800000 800000 0  850000 800000 0  900000 800000 0  950000 800000 0  1000000 800000 0  0 850000 0  50000 850000 0  100000 850000 0  150000 850000 0  200000 850000 0  250000 850000 0  300000 850000 0  350000 850000 0  400000 850000 0  450000 850000 0  500000 850000 0  550000 850000 0  600000 850000 0  650000 850000 0  700000 850000 0  750000 850000 0  800000 850000 0  850000 850000 0  900000 850000 0  950000 850000 0  1000000 850000 0  0 900000 0  50000 900000 0  100000 900000 0  150000 900000 0  200000 900000 0  250000 900000 0  300000 900000 0  350000 900000 0  400000 900000 0  450000 900000 0  500000 900000 0  550000 900000 0  600000 900000 0  650000 900000 0  700000 900000 0  750000 900000 0  800000 900000 0  850000 900000 0  900000 900000 0  950000 900000 0  1000000 900000 0  0 950000 0  50000 950000 0  100000 950000 0  150000 950000 0  200000 950000 0  250000 950000 0  300000 950000 0  350000 950000 0  400000 950000 0  450000 950000 0  500000 950000 0  550000 950000 0  600000 950000 0  650000 950000 0  700000 950000 0  750000 950000 0  800000 950000 0  850000 950000 0  900000 950000 0  950000 950000 0  1000000 950000 0  0 1000000 0  50000 1000000 0  100000 1000000 0  150000 1000000 0  200000 1000000 0  250000 1000000 0  300000 1000000 0  350000 1000000 0  400000 1000000 0  450000 1000000 0  500000 1000000 0  550000 1000000 0  600000 1000000 0  650000 1000000 0  700000 1000000 0  750000 1000000 0  800000 1000000 0  850000 1000000 0  900000 1000000 0  950000 1000000 0  1000000 1000000 0  0 1050000 0  50000 1050000 0  100000 1050000 0  150000 1050000 0  200000 1050000 0  250000 1050000 0  300000 1050000 0  350000 1050000 0  400000 1050000 0  450000 1050000 0  500000 1050000 0  550000 1050000 0  600000 1050000 0  650000 1050000 0  700000 1050000 0  750000 1050000 0  800000 1050000 0  850000 1050000 0  900000 1050000 0  950000 1050000 0  1000000 1050000 0  0 1100000 0  50000 1100000 0  100000 1100000 0  150000 1100000 0  200000 1100000 0  250000 1100000 0  300000 1100000 0  350000 1100000 0  400000 1100000 0  450000 1100000 0  500000 1100000 0  550000 1100000 0  600000 1100000 0  650000 1100000 0  700000 1100000 0  750000 1100000 0  800000 1100000 0  850000 1100000 0  900000 1100000 0  950000 1100000 0  1000000 1100000 0  0 1150000 0  50000 1150000 0  100000 1150000 0  150000 1150000 0  200000 1150000 0  250000 1150000 0  300000 1150000 0  350000 1150000 0  400000 1150000 0  450000 1150000 0  500000 1150000 0  550000 1150000 0  600000 1150000 0  650000 1150000 0  700000 1150000 0  750000 1150000 0  800000 1150000 0  850000 1150000 0  900000 1150000 0  950000 1150000 0  1000000 1150000 0  0 1200000 0  50000 1200000 0  100000 1200000 0  150000 1200000 0  200000 1200000 0  250000 1200000 0  300000 1200000 0  350000 1200000 0  400000 1200000 0  450000 1200000 0  500000 1200000 0  550000 1200000 0  600000 1200000 0  650000 1200000 0  700000 1200000 0  750000 1200000 0  800000 1200000 0  850000 1200000 0  900000 1200000 0  950000 1200000 0  1000000 1200000 0  0 1250000 0  50000 1250000 0  100000 1250000 0  150000 1250000 0  200000 1250000 0  250000 1250000 0  300000 1250000 0  350000 1250000 0  400000 1250000 0  450000 1250000 0  500000 1250000 0  550000 1250000 0  600000 1250000 0  650000 1250000 0  700000 1250000 0  750000 1250000 0  800000 1250000 0  850000 1250000 0  900000 1250000 0  950000 1250000 0  1000000 1250000 0  0 1300000 0  50000 1300000 0  100000 1300000 0  150000 1300000 0  200000 1300000 0  250000 1300000 0  300000 1300000 0  350000 1300000 0  400000 1300000 0  450000 1300000 0  500000 1300000 0  550000 1300000 0  600000 1300000 0  650000 1300000 0  700000 1300000 0  750000 1300000 0  800000 1300000 0  850000 1300000 0  900000 1300000 0  950000 1300000 0  1000000 1300000 0  0 1350000 0  50000 1350000 0  100000 1350000 0  150000 1350000 0  200000 1350000 0  250000 1350000 0  300000 1350000 0  350000 1350000 0  400000 1350000 0  450000 1350000 0  500000 1350000 0  550000 1350000 0  600000 1350000 0  650000 1350000 0  700000 135
[...]
<PointData  Vectors="f_10477"> 
<DataArray  type="Float64"  Name="f_10477"  NumberOfComponents="3" format="ascii">-5.9609096567883583e-09 -3.3215753144963797e-09 0.0000000000000000e+00  7.5155362534570728e-08 -2.1499891275356801e-09 0.0000000000000000e+00  7.8073915323059515e-08 -6.9149443634559364e-11 0.0000000000000000e+00  7.8997117974757009e-08 2.9226835039865645e-10 0.0000000000000000e+00  7.9447931301222862e-08 2.6239300978645968e-10 0.0000000000000000e+00  7.9664412532065033e-08 1.9065566229427334e-10 0.0000000000000000e+00  7.9775677273510703e-08 1.3067348351690829e-10 0.0000000000000000e+00  7.9835780109603281e-08 8.5131865747801393e-11 0.0000000000000000e+00  7.9867818352449006e-08 4.9491727664379464e-11 0.0000000000000000e+00  7.9882106843899495e-08 1.9499920362541539e-11 0.0000000000000000e+00  7.9882772356518293e-08 -8.2010313342671643e-12 0.0000000000000000e+00  7.9870022850202717e-08 -3.6503885965057058e-11 0.0000000000000000e+00  7.9840285255191751e-08 -6.8313675621386002e-11 0.0000000000000000e+00  7.9784383191265871e-08 -1.0697857741226838e-10 0.0000000000000000e+00  7.9682092965497349e-08 -1.5658877778084923e-10 0.0000000000000000e+00  7.9487453554762685e-08 -2.2127870488617328e-10 0.0000000000000000e+00  7.9093907364343679e-08 -2.9668821743703828e-10 0.0000000000000000e+00  7.8298903892577747e-08 -2.9051267503432747e-10 0.0000000000000000e+00  7.6700641662470068e-08 6.2793489504737254e-10 0.0000000000000000e+00  7.2655599532838649e-08 4.8906004879488294e-09 0.0000000000000000e+00  -8.2086820498847949e-09 5.0404463861576461e-09 0.0000000000000000e+00  -4.1739911967855029e-09 -3.7310704145549135e-09 0.0000000000000000e+00  -9.4297353016658622e-10 -2.3443677165584427e-08 0.0000000000000000e+00  1.7274235296678801e-08 -1.4064402548994643e-08 0.0000000000000000e+00  3.1791912111947133e-08 -7.8410839604920217e-09 0.0000000000000000e+00  4.1160961216140042e-08 -4.6121917165576322e-09 0.0000000000000000e+00  4.7224913801277164e-08 -2.8707706982389654e-09 0.0000000000000000e+00  5.1217004101877989e-08 -1.8435444757412314e-09 0.0000000000000000e+00  5.3840516497282757e-08 -1.1771923817210003e-09 0.0000000000000000e+00  5.5497107835166626e-08 -7.0321287621360711e-10 0.0000000000000000e+00  5.6413661991038269e-08 -3.3103529484716789e-10 0.0000000000000000e+00  5.6706809580985498e-08 -3.5523047932138951e-12 0.0000000000000000e+00  5.6412566776953078e-08 3.2356419307372299e-10 0.0000000000000000e+00  5.5494960282862248e-08 6.9453050143318237e-10 0.0000000000000000e+00  5.3837758832724725e-08 1.1659815743037689e-09 0.0000000000000000e+00  5.1215903919349344e-08 1.8269988707549379e-09 0.0000000000000000e+00  4.7234519987157099e-08 2.8418015657419017e-09 0.0000000000000000e+00  4.1212698424003461e-08 4.5579222205659370e-09 0.0000000000000000e+00  3.1999885597570503e-08 7.8050762430180527e-09 0.0000000000000000e+00  1.8030533862745039e-08 1.4473864900670229e-08 0.0000000000000000e+00  1.1458861841556625e-10 2.5161902044259678e-08 0.0000000000000000e+00  -6.7609451707614807e-09 5.3421990266176511e-09 0.0000000000000000e+00  -1.2344014302684618e-09 -2.1072774327602993e-09 0.0000000000000000e+00  -6.5201320758328949e-09 -2.9682660568539409e-08 0.0000000000000000e+00  -2.6846035102019894e-09 -2.6090957669726341e-08 0.0000000000000000e+00  6.3089451713700617e-09 -1.8574731320361032e-08 0.0000000000000000e+00  1.5329752369121109e-08 -1.2660372250120883e-08 0.0000000000000000e+00  2.2576438719999211e-08 -8.6000114082164772e-09 0.0000000000000000e+00  2.7952436988427563e-08 -5.8158978853138238e-09 0.0000000000000000e+00  3.1747433108354766e-08 -3.8306888194841679e-09 0.0000000000000000e+00  3.4250695873834471e-08 -2.3287325794729007e-09 0.0000000000000000e+00  3.5671687858689927e-08 -1.1016025572788935e-09 0.0000000000000000e+00  3.6132601781508509e-08 7.6303365156142631e-13 0.0000000000000000e+00  3.5673523784618189e-08 1.1033803411175254e-09 0.0000000000000000e+00  3.4255294444897173e-08 2.3313650225677623e-09 0.0000000000000000e+00  3.1757361889140712e-08 3.8351617178417758e-09 0.0000000000000000e+00  2.7973973245042732e-08 5.8243670445722287e-09 0.0000000000000000e+00  2.2624991516356499e-08 8.6191156887092590e-09 0.0000000000000000e+00  1.5442641726273498e-08 1.2713778965921306e-08 0.0000000000000000e+00  6.5418637678471947e-09 1.8718383222385012e-08 0.0000000000000000e+00  -2.3792078805040150e-09 2.6301008926862253e-08 0.0000000000000000e+00  -6.1034648161691759e-09 2.8788066596183062e-08 0.0000000000000000e+00  -2.1242840032139735e-09 2.6848795410555846e-09 0.0000000000000000e+00  -1.7668991533976376e-10 -1.1476973182473444e-09 0.0000000000000000e+00  -4.5042687927506030e-09 -2.5354398602288631e-08 0.0000000000000000e+00  -6.5553155519186962e-09 -2.9564287043255552e-08 0.0000000000000000e+00  -4.0916672358224694e-09 -2.5356418687030465e-08 0.0000000000000000e+00  8.7877335495465624e-10 -1.9565654342226593e-08 0.0000000000000000e+00  6.2124269080612805e-09 -1.4404104294114835e-08 0.0000000000000000e+00  1.0859783094596272e-08 -1.0262601555928958e-08 0.0000000000000000e+00  1.4471995611711841e-08 -6.9911231465040617e-09 0.0000000000000000e+00  1.6999691591195699e-08 -4.3404644712717819e-09 0.0000000000000000e+00  1.8485128231830738e-08 -2.0776670150567818e-09 0.0000000000000000e+00  1.8975283266533522e-08 1.4113267607536259e-13 0.0000000000000000e+00  1.8488923301800433e-08 2.0781732885909785e-09 0.0000000000000000e+00  1.7008336342829621e-08 4.3417818992115861e-09 0.0000000000000000e+00  1.4487998520715833e-08 6.9944016150585297e-09 0.0000000000000000e+00  1.0887919554589136e-08 1.0270598507641722e-08 0.0000000000000000e+00  6.2598986725006844e-09 1.4423675253164578e-08 0.0000000000000000e+00  9.4797993490354732e-10 1.9610063334410178e-08 0.0000000000000000e+00  -4.0191243387753206e-09 2.5421376510762337e-08 0.0000000000000000e+00  -6.4964062040031773e-09 2.9483449643798394e-08 0.0000000000000000e+00  -4.2842565996672405e-09 2.4924082236251037e-08 0.0000000000000000e+00  -2.9648610460490814e-10 1.6243172481074866e-09 0.0000000000000000e+00  6.1169302266739696e-11 -7.0780188115753740e-10 0.0000000000000000e+00  -3.0199707206956301e-09 -2.0729431506842372e-08 0.0000000000000000e+00  -6.4931917635123276e-09 -2.8151944935938152e-08 0.0000000000000000e+00  -7.5890023067873975e-09 -2.7456790658901118e-08 0.0000000000000000e+00  -6.2246670734679826e-09 -2.3339765551160574e-08 0.0000000000000000e+00  -3.5664359181039316e-09 -1.8428404224668760e-08 0.0000000000000000e+00  -6.3507015677667356e-10 -1.3792457387505102e-08 0.0000000000000000e+00  1.9629172091985975e-09 -9.7169244899168050e-09 0.0000000000000000e+00  3.9295987667101078e-09 -6.1653042373557903e-09 0.0000000000000000e+00  5.1391868614388025e-09 -2.9875663182319097e-09 0.0000000000000000e+00  5.5470177581066006e-09 -3.0513106067374403e-13 0.0000000000000000e+00  5.1430110552893001e-09 2.9871956743942032e-09 0.0000000000000000e+00  3.9377716109291489e-09 6.1657947956376276e-09 0.0000000000000000e+00  1.9764138760357676e-09 9.7193825416801640e-09 0.0000000000000000e+00  -6.1527304099018181e-10 1.3798826311671997e-08 0.0000000000000000e+00  -3.5406434422178589e-09 1.8440669058803403e-08 0.0000000000000000e+00  -6.1959195633661010e-09 2.3353333093748903e-08 0.0000000000000000e+00  -7.5644585341608087e-09 2.7442946389098093e-08 0.0000000000000000e+00  -6.4692957063944294e-09 2.8044907237608234e-08 0.0000000000000000e+00  -2.9402268189910843e-09 2.0586190158443234e-08 0.0000000000000000e+00  1.6932926854472751e-11 1.0272307677998868e-09 0.0000000000000000e+00  9.8816954870641936e-11 -4.6457585732889626e-10 0.0000000000000000e+00  -2.1887944229296538e-09 -1.6934541403607697e-08 0.0000000000000000e+00  -5.7071543386284518e-09 -2.5042774561165338e-08 0.0000000000000000e+00  -8.3545853234556058e-09 -2.6581383200749910e-08 0.0000000000000000e+00  -9.3105478824288239e-09 -2.4283559312429965e-08 0.0000000000000000e+00  -8.9055798056144989e-09 -2.0298196317893057e-08 0.0000000000000000e+00  -7.7696125449791584e-09 -1.5856875229254061e-08 0.0000000000000000e+00  -6.4468907764623975e-09 -1.1520030449876438e-08 0.0000000000000000e+00  -5.3019275137259399e-09 -7.4612622298825587e-09 0.0000000000000000e+00  -4.5456133758002172e-09 -3.6586712346165004e-09 0.0000000000000000e+00  -4.2822655699412278e-09 -9.8196374985092769e-13 0.0000000000000000e+00  -4.5428448879693469e-09 3.6568980650224241e-09 0.0000000000000000e+00  -5.2963824954459772e-09 7.4601297028559605e-09 0.0000000000000000e+00  -6.4387225401065434e-09 1.1520133078501456e-08 0.0000000000000000e+00  -7.7594850998028871e-09 1.5858677262875943e-08 0.0000000000000000e+00  -8.8950836434050798e-09 2.0300529272857085e-08 0.0000000000000000e+00  -9.3018723645249634e-09 2.4279395885752341e-08 0.0000000000000000e+00  -8.3478680153244728e-09 2.6553433917517138e-08 0.0000000000000000e+00  -5.7016786802984617e-09 2.4985326140311093e-08 0.0000000000000000e+00  -2.1658442242376155e-09 1.6894894954560990e-08 0.0000000000000000e+00  7.9249083755609810e-11 6.5167010777408236e-10 0.0000000000000000e+00  9.7243196082058218e-11 -3.2012227059408485e-10 0.0000000000000000e+00  -1.6954341076630734e-09 -1.3844776090251808e-08 0.0000000000000000e+00  -4.9188601057215936e-09 -2.1566467722392538e-08 0.0000000000000000e+00  -8.1121999101644129e-09 -2.4207817731965876e-08 0.0000000000000000e+00  -1.0341634339437740e-08 -2.3298229611867727e-08 0.0000000000000000e+00  -1.1482491717617100e-08 -2.0356250937475374e-08 0.0000000000000000e+00  -1.1796219957650812e-08 -1.6473330226963538e-08 0.0000000000000000e+00  -1.1640031718371581e-08 -1.2288812664435403e-08 0.0000000000000000e+00  -1.1319973956029004e-08 -8.1059286420995115e-09 0.0000000000000000e+00  -1.1048155005044011e-08 -4.0176260149210858e-09 0.0000000000000000e+00  -1.0944299819257251e-08 -1.4825120792292399e-12 0.0000000000000000e+00  -1.1046712423685919e-08 4.0147961686989615e-09 0.0000000000000000e+00  -1.1317299143096930e-08 8.1035005917560986e-09 0.0000000000000000e+00  -1.1636600843238268e-08 1.2286952248840337e-08 0.0000000000000000e+00  -1.1792822534438765e-08 1.6471681052122928e-08 0.0000000000000000e+00  -1.1480147034542496e-08 2.0352941405801952e-08 0.0000000000000000e+00  -1.0341331123877294e-08 2.3288793467949894e-08 0.0000000000000000e+00  -8.1133999217457078e-09 2.4187212779329460e-08 0.0000000000000000e+00  -4.9223294133980447e-09 2.1541492025266211e-08 0.0000000000000000e+00  -1.6891820259773571e-09 1.3836813196435591e-08 0.0000000000000000e+00  9.0489294561530637e-11 4.3471723135993036e-10 0.0000000000000000e+00  8.8668622286430993e-11 -2.2745274568771698e-10 0.0000000000000000e+00  -1.3714775812675446e-09 -1.1279248677157830e-08 0.0000000000000000e+00  -4.2435277471127251e-09 -1.8182923468472115e-08 0.0000000000000000e+00  -7.5146722336313831e-09 -2.1202126933897067e-08 0.0000000000000000e+00  -1.0343128843468134e-08 -2.1186139330386220e-08 0.0000000000000000e+00  -1.2410383186711950e-08 -1.9144859781775658e-08 0.0000000000000000e+00  -1.3730049194046649e-08 -1.5934480101660950e-08 0.0000000000000000e+00  -1.4472461046459546e-08 -1.2149429961698535e-08 0.0000000000000000e+00  -1.4837165504404140e-08 -8.1390956959683945e-09 0.0000000000000000e+00  -1.4987670979726653e-08 -4.0715166679048353e-09 0.0000000000000000e+00  -1.5026236549214834e-08 -1.7819690937190159e-12 0.0000000000000000e+00  -1.4987295417686245e-08 4.0680385624107031e-09 0.0000000000000000e+00  -1.4836619799953342e-08 8.1358351000844646e-09 0.0000000000000000e+00  -1.4472135265402993e-08 1.2146342630224445e-08 0.0000000000000000e+00  -1.3730449518788339e-08 1.5931065077973485e-08 0.0000000000000000e+00  -1.2412001940397906e-08 1.9139834005264791e-08 0.0000000000000000e+00  -1.0346343735416591e-08 2.1177734188241972e-08 0.0000000000000000e+00  -7.5189859940072252e-09 2.1190283586140332e-08 0.0000000000000000e+00  -4.2492378788380443e-09 1.8173296792858935e-08 0.0000000000000000e+00  -1.3692771741572924e-09 1.1280293646568440e-08 0.0000000000000000e+00  8.7923559747478760e-11 3.0259404256037095e-10 0.0000000000000000e+00  7.9392962422053269e-11 -1.6391146479136121e-10 0.0000000000000000e+00  -1.1388973231323999e-09 -9.1132662478029752e-09 0.0000000000000000e+00  -3.6744785529678933e-09 -1.5047973078706081e-08 0.0000000000000000e+00  -6.8110224252528756e-09 -1.8024099292366757e-08 0.0000000000000000e+00  -9.8403774320853784e-09 -1.8508661842920888e-08 0.0000000000000000e+00  -1.2385825420397003e-08 -1.7155432856299649e-08 0.0000000000000000e+00  -1.4319866425513414e-08 -1.4594987980271414e-08 0.0000000000000000e+00  -1.5670732809593538e-08 -1.1324896547494614e-08 0.0000000000000000e+00  -1.6532251084335857e-08 -7.6836530887262080e-09 0.0000000000000000e+00  -1.7002831103244706e-08 -3.8733195572722645e-09 0.0000000000000000e+00  -1.7151618420118473e-08 -1.9012129943422194e-12 0.0000000000000000e+00  -1.7003119320477769e-08 3.8695712775617960e-09 0.0000000000000000e+00  -1.6532953401722076e-08 7.6800243489012364e-09 0.0000000000000000e+00  -1.5672064776367318e-08 1.1321308224299683e-08 0.0000000000000000e+00  -1.4322066886227404e-08 1.4591106071600349e-08 0.0000000000000000e+00  -1.2389071495294216e-08 1.7150691105216093e-08 0.0000000000000000e+00  -9.8447323113238202e-09 1.8502759780587815e-08 0.0000000000000000e+00  -6.8159242659933348e-09 1.8018044766196107e-08 0.0000000000000000e+00  -3.6797682657535715e-09 1.5044968889869081e-08 0.0000000000000000e+00  -1.1375092835688092e-09 9.1164139042970213e-09 0.0000000000000000e+00  8.1319789774918215e-11 2.1597385595141018e-10 0.0000000000000000e+00  7.0762526755270087e-11 -1.1824473138116593e-10 0.0000000000000000e+00  -9.6117292225275741e-10 -7.2637617040359224e-09 0.0000000000000000e+00  -3.1928543093490868e-09 -1.2206550367330813e-08 0.0000000000000000e+00  -6.1052362555359980e-09 -1.4908303022849770e-08 0.0000000000000000e+00  -9.1137115902589545e-09 -1.5619224101657252e-08 0.0000000000000000e+00  -1.1844130716255006e-08 -1.4756132927648260e-08 0.0000000000000000e+00  -1.4098753848073491e-08 -1.2767183517119530e-08 0.0000000000000000e+00  -1.5811796280212869e-08 -1.0043935409270863e-08 0.0000000000000000e+00  -1.6992526339080778e-08 -6.8839624569491082e-09 0.0000000000000000e+00  -1.7678238015355150e-08 -3.4917868591637234e-09 0.0000000000000000e+00  -1.7902664378755666e-08 -1.8900854085681458e-12 0.0000000000000000e+00  -1.7678843365523058e-08 3.4880478483343960e-09 0.0000000000000000e+00  -1.6993789765776447e-08 6.8803178207057285e-09 0.0000000000000000e+00  -1.5813796934035384e-08 1.0040356797961331e-08 0.0000000000000000e+00  -1.4101555686393992e-08 1.2763548393769870e-08 0.0000000000000000e+00  -1.1847730611149076e-08 1.4752333617085742e-08 0.0000000000000000e+00  -9.1179996357700087e-09 1.5615485953103896e-08 0.0000000000000000e+00  -6.1096244698300836e-09 1.4905501750584913e-08 0.0000000000000000e+00  -3.1970696616945305e-09 1.2206278155833060e-08 0.0000000000000000e+00  -9.5989037134459685e-10 7.2670446063085988e-09 0.0000000000000000e+00  7.3766082144986558e-11 1.5583467007660283e-10 0.0000000000000000e+00  6.3153988265743131e-11 -8.4350436717628623e-11 0.0000000000000000e+00  -8.2098439750542422e-10 -5.6711412626428786e-09 0.0000000000000000e+00  -2.7869725908799172e-09 -9.6571479635610968e-09 0.0000000000000000e+00  -5.4494331218582622e-09 -1.1965718564058775e-08 0.0000000000000000e+00  -8.3250110244033305e-09 -1.2723851305385240e-08 0.0000000000000000e+00  -1.1065219135669905e-08 -1.2193720541196994e-08 0.0000000000000000e+00  -1.3443367736724612e-08 -1.0686134717045617e-08 0.0000000000000000e+00  -1.5337262519165080e-08 -8.4964306790700496e-09 0.0000000000000000e+00  -1.6696354900080450e-08 -5.8695314201024197e-09 0.0000000000000000e+00  -1.7509441192932731e-08 -2.9918116194108547e-09 0.0000000000000000e+00  -1.7779785765110103e-08 -1.7994295626918293e-12 0.0000000000000000e+00  -1.7510128292944962e-08 2.9882542497268029e-09 0.0000000000000000e+00  -1.6697735797778385e-08 5.8660845905500388e-09 0.0000000000000000e+00  -1.5339336005129744e-08 8.4931322253990285e-09 0.0000000000000000e+00  -1.3446101700580751e-08 1.0683011635764460e-08 0.0000000000000000e+00  -1.1068518557843759e-08 1.2190875079477546e-08 0.0000000000000000e+00  -8.3286917525277348e-09 1.2721601364494563e-08 0.0000000000000000e+00  -5.4529646747120923e-09 1.1964624678460277e-08 0.0000000000000000e+00  -2.7901316161056791e-09 9.6579584479774015e-09 0.0000000000000000e+00  -8.1973157829705787e-10 5.6741081280154706e-09 0.0000000000000000e+00  6.6411169328679586e-11 1.1234505630739799e-10 0.0000000000000000e+00  5.6756552082370768e-11 -5.8550092648250197e-11 0.0000000000000000e+00  -7.1026609839741704e-10 -4.2874550851270602e-09 0.0000000000000000e+00  -2.4524157983715804e-09 -7.3747630027043094e-09 0.0000000000000000e+00  -4.8759367511241912e-09 -9.2359419709470401e-09 0.0000000000000000e+00  -7.5760679657595117e-09 -9.9293254320111042e-09 0.0000000000000000e+00  -1.0235359229421920e-08 -9.6168570826263585e-09 0.0000000000000000e+00  -1.2619941458924440e-08 -8.5088393644531378e-09 0.0000000000000000e+00  -1.4576726242108427e-08 -6.8195755795568495e-09 0.0000000000000000e+00  -1.6016422657730799e-08 -4.7395001100154979e-09 0.0000000000000000e+00  -1.6893288111235004e-08 -2.4248906794276022e-09 0.0000000000000000e+00  -1.7187547440736934e-08 -1.6730124698466078e-12 0.0000000000000000e+00  -1.6893919015122135e-08 2.4215926837943416e-09 0.0000000000000000e+00  -1.6017668940240603e-08 4.7363423015880885e-09 0.0000000000000000e+00  -1.4578549629862540e-08 6.8166460875300029e-09 0.0000000000000000e+00  -1.2622269018001014e-08 8.5062436921299573e-09 0.0000000000000000e+00  -1.0238065071707408e-08 9.6147628885355837e-09 0.0000000000000000e+00  -7.5789618085118132e-09 9.9280041931474945e-09 0.0000000000000000e+00  -4.8785928195118956e-09 9.2357137061294105e-09 0.0000000000000000e+00  -2.4546911719843843e-09 7.3759833522123018e-09 0.0000000000000000e+00  -7.0911525259477807e-10 4.2900911066380383e-09 0.0000000000000000e+00  5.9788720099125259e-11 7.9959755918283450e-11 0.0000000000000000e+00  5.1719701746755424e-11 -3.8361474523372355e-11 0.0000000000000000e+00  -6.2547263736229338e-10 -3.0697370802531479e-09 0.0000000000000000e+00  -2.1891199258951376e-09 -5.3200589979194468e-09 0.0000000000000000e+00  -4.4077472065636105e-09 -6.7148004892306272e-09 0.0000000000000000e+00  -6.9348257617522492e-09 -7.2762093903467789e-09 0.0000000000000000e+00  -9.4811756655854505e-09 -7.1011950859539748e-09 0.0000000000000000e+00  -1.1815662972449855e-08 -6.3266338839028735e-09 0.0000000000000000e+00  -1.3769991763235967e-08 -5.1001709490901940e-09 0.0000000000000000e+00  -1.5231629195556255e-08 -3.5601685107924009e-09 0.0000000000000000e+00  -1.6132248785134094e-08 -1.8265999835429517e-09 0.0000000000000000e+00  -1.6436260955989365e-08 -1.5446918503249713e-12 0.0000000000000000e+00  -1.6132752283272775e-08 1.8235660458836669e-09 0.0000000000000000e+00  -1.5232614337883889e-08 3.5573016603453583e-09 0.0000000000000000e+00  -1.3771411501197428e-08 5.0975886727700662e-09 0.0000000000000000e+00  -1.1817439455428488e-08 6.3244726377753593e-09 0.0000000000000000e+00  -9.4831914060990519e-09 7.0996256880327592e-09 0.0000000000000000e+00  -6.9369225630370766e-09 7.2754372356251827e-09 0.0000000000000000e+00  -4.4096154059948634e-09 6.7150030209023290e-09 0.0000000000000000e+00  -2.1906805448844656e-09 5.3214266376710298e-09 0.0000000000000000e+00  -6.2451691280546723e-10 3.0721283566882525e-09 0.0000000000000000e+00  5.4221265782954000e-11 5.5235507130755424e-11 0.0000000000000000e+00  4.8168223609041455e-11 -2.1914831937558022e-11 0.0000000000000000e+00  -5.6520974269861723e-10 -1.9766243432326649e-09 0.0000000000000000e+00  -1.9988913472524831e-09 -3.4439110777818339e-09 0.0000000000000000e+00  -4.0617437985463910e-09 -4.3701733085457264e-09 0.0000000000000000e+00  -6.4473652435453091e-09 -4.7610944102769911e-09 0.0000000000000000e+00  -8.8883400509622261e-09 -4.6706751376612677e-09 0.0000000000000000e+00  -1.1159239107402905e-