<?xml version="1.0"?>
<VTKFile type="UnstructuredGrid"  version="0.1"  >
<UnstructuredGrid>
<Piece  NumberOfPoints="651" NumberOfCells="1200">
<Points>
<DataArray  type="Float64"  NumberOfComponents="3"  format="ascii">0 0 0  50000 0 0  100000 0 0  150000 0 0  200000 0 0  250000 0 0  300000 0 0  350000 0 0  400000 0 0  450000 0 0  500000 0 0  550000 0 0  600000 0 0  650000 0 0  700000 0 0  750000 0 0  800000 0 0  850000 0 0  900000 0 0  950000 0 0  1000000 0 0  0 50000 0  50000 50000 0  100000 50000 0  150000 50000 0  200000 50000 0  250000 50000 0  300000 50000 0  350000 50000 0  400000 50000 0  450000 50000 0  500000 50000 0  550000 50000 0  600000 50000 0  650000 50000 0  700000 50000 0  750000 50000 0  800000 50000 0  850000 50000 0  900000 50000 0  950000 50000 0  1000000 50000 0  0 100000 0  50000 100000 0  100000 100000 0  150000 100000 0  200000 100000 0  250000 100000 0  300000 100000 0  350000 100000 0  400000 100000 0  450000 100000 0  500000 100000 0  550000 100000 0  600000 100000 0  650000 100000 0  700000 100000 0  750000 100000 0  800000 100000 0  850000 100000 0  900000 100000 0  950000 100000 0  1000000 100000 0  0 150000 0  50000 150000 0  100000 150000 0  150000 150000 0  200000 150000 0  250000 150000 0  300000 150000 0  350000 150000 0  400000 150000 0  450000 150000 0  500000 150000 0  550000 150000 0  600000 150000 0  650000 150000 0  700000 150000 0  750000 150000 0  800000 150000 0  850000 150000 0  900000 150000 0  950000 150000 0  1000000 150000 0  0 200000 0  50000 200000 0  100000 200000 0  150000 200000 0  200000 200000 0  250000 200000 0  300000 200000 0  350000 200000 0  400000 200000 0  450000 200000 0  500000 200000 0  550000 200000 0  600000 200000 0  650000 200000 0  700000 200000 0  750000 200000 0  800000 200000 0  850000 200000 0  900000 200000 0  950000 200000 0  1000000 200000 0  0 250000 0  50000 250000 0  100000 250000 0  150000 250000 0  200000 250000 0  250000 250000 0  300000 250000 0  350000 250000 0  400000 250000 0  450000 250000 0  500000 250000 0  550000 250000 0  600000 250000 0  650000 250000 0  700000 250000 0  750000 250000 0  800000 250000 0  850000 250000 0  900000 250000 0  950000 250000 0  1000000 250000 0  0 300000 0  50000 300000 0  100000 300000 0  150000 300000 0  200000 300000 0  250000 300000 0  300000 300000 0  350000 300000 0  400000 300000 0  450000 300000 0  500000 300000 0  550000 300000 0  600000 300000 0  650000 300000 0  700000 300000 0  750000 300000 0  800000 300000 0  850000 300000 0  900000 300000 0  950000 300000 0  1000000 300000 0  0 350000 0  50000 350000 0  100000 350000 0  150000 350000 0  200000 350000 0  250000 350000 0  300000 350000 0  350000 350000 0  400000 350000 0  450000 350000 0  500000 350000 0  550000 350000 0  600000 350000 0  650000 350000 0  700000 350000 0  750000 350000 0  800000 350000 0  850000 350000 0  900000 350000 0  950000 350000 0  1000000 350000 0  0 400000 0  50000 400000 0  100000 400000 0  150000 400000 0  200000 400000 0  250000 400000 0  300000 400000 0  350000 400000 0  400000 400000 0  450000 400000 0  500000 400000 0  550000 400000 0  600000 400000 0  650000 400000 0  700000 400000 0  750000 400000 0  800000 400000 0  850000 400000 0  900000 400000 0  950000 400000 0  1000000 400000 0  0 450000 0  50000 450000 0  100000 450000 0  150000 450000 0  200000 450000 0  250000 450000 0  300000 450000 0  350000 450000 0  400000 450000 0  450000 450000 0  500000 450000 0  550000 450000 0  600000 450000 0  650000 450000 0  700000 450000 0  750000 450000 0  800000 450000 0  850000 450000 0  900000 450000 0  950000 450000 0  1000000 450000 0  0 500000 0  50000 500000 0  100000 500000 0  150000 500000 0  200000 500000 0  250000 500000 0  300000 500000 0  350000 500000 0  400000 500000 0  450000 500000 0  500000 500000 0  550000 500000 0  600000 500000 0  650000 500000 0  700000 500000 0  750000 500000 0  800000 500000 0  850000 500000 0  900000 500000 0  950000 500000 0  1000000 500000 0  0 550000 0  50000 550000 0  100000 550000 0  150000 550000 0  200000 550000 0  250000 550000 0  300000 550000 0  350000 550000 0  400000 550000 0  450000 550000 0  500000 550000 0  550000 550000 0  600000 550000 0  650000 550000 0  700000 550000 0  750000 550000 0  800000 550000 0  850000 550000 0  900000 550000 0  950000 550000 0  1000000 550000 0  0 600000 0  50000 600000 0  100000 600000 0  150000 600000 0  200000 600000 0  250000 600000 0  300000 600000 0  350000 600000 0  400000 600000 0  450000 600000 0  500000 600000 0  550000 600000 0  600000 600000 0  650000 600000 0  700000 600000 0  750000 600000 0  800000 600000 0  850000 600000 0  900000 600000 0  950000 600000 0  1000000 600000 0  0 650000 0  50000 650000 0  100000 650000 0  150000 650000 0  200000 650000 0  250000 650000 0  300000 650000 0  350000 650000 0  400000 650000 0  450000 650000 0  500000 650000 0  550000 650000 0  600000 650000 0  650000 650000 0  700000 650000 0  750000 650000 0  800000 650000 0  850000 650000 0  900000 650000 0  950000 650000 0  1000000 650000 0  0 700000 0  50000 700000 0  100000 700000 0  150000 700000 0  200000 700000 0  250000 700000 0  300000 700000 0  350000 700000 0  400000 700000 0  450000 700000 0  500000 700000 0  550000 700000 0  600000 700000 0  650000 700000 0  700000 700000 0  750000 700000 0  800000 700000 0  850000 700000 0  900000 700000 0  950000 700000 0  1000000 700000 0  0 750000 0  50000 750000 0  100000 750000 0  150000 750000 0  200000 750000 0  250000 750000 0  300000 750000 0  350000 750000 0  400000 750000 0  450000 750000 0  500000 750000 0  550000 750000 0  600000 750000 0  650000 750000 0  700000 750000 0  750000 750000 0  800000 750000 0  850000 750000 0  900000 750000 0  950000 750000 0  1000000 750000 0  0 800000 0  50000 800000 0  100000 800000 0  150000 800000 0  200000 800000 0  250000 800000 0  300000 800000 0  350000 800000 0  400000 800000 0  450000 800000 0  500000 800000 0  550000 800000 0  600000 800000 0  650000 800000 0  700000 800000 0  750000 800000 0  800000 800000 0  850000 800000 0  900000 800000 0  950000 800000 0  1000000 800000 0  0 850000 0  50000 850000 0  100000 850000 0  150000 850000 0  200000 850000 0  250000 850000 0  300000 850000 0  350000 850000 0  400000 850000 0  450000 850000 0  500000 850000 0  550000 850000 0  600000 850000 0  650000 850000 0  700000 850000 0  750000 850000 0  800000 850000 0  850000 850000 0  900000 850000 0  950000 850000 0  1000000 850000 0  0 900000 0  50000 900000 0  100000 900000 0  150000 900000 0  200000 900000 0  250000 900000 0  300000 900000 0  350000 900000 0  400000 900000 0  450000 900000 0  500000 900000 0  550000 900000 0  600000 900000 0  650000 900000 0  700000 900000 0  750000 900000 0  800000 900000 0  850000 900000 0  900000 900000 0  950000 900000 0  1000000 900000 0  0 950000 0  50000 950000 0  100000 950000 0  150000 950000 0  200000 950000 0  250000 950000 0  300000 950000 0  350000 950000 0  400000 950000 0  450000 950000 0  500000 950000 0  550000 950000 0  600000 950000 0  650000 950000 0  700000 950000 0  750000 950000 0  800000 950000 0  850000 950000 0  900000 950000 0  950000 950000 0  1000000 950000 0  0 1000000 0  50000 1000000 0  100000 1000000 0  150000 1000000 0  200000 1000000 0  250000 1000000 0  300000 1000000 0  350000 1000000 0  400000 1000000 0  450000 1000000 0  500000 1000000 0  550000 1000000 0  600000 1000000 0  650000 1000000 0  700000 1000000 0  750000 1000000 0  800000 1000000 0  850000 1000000 0  900000 1000000 0  950000 1000000 0  1000000 1000000 0  0 1050000 0  50000 1050000 0  100000 1050000 0  150000 1050000 0  200000 1050000 0  250000 1050000 0  300000 1050000 0  350000 1050000 0  400000 1050000 0  450000 1050000 0  500000 1050000 0  550000 1050000 0  600000 1050000 0  650000 1050000 0  700000 1050000 0  750000 1050000 0  800000 1050000 0  850000 1050000 0  900000 1050000 0  950000 1050000 0  1000000 1050000 0  0 1100000 0  50000 1100000 0  100000 1100000 0  150000 1100000 0  200000 1100000 0  250000 1100000 0  300000 1100000 0  350000 1100000 0  400000 1100000 0  450000 1100000 0  500000 1100000 0  550000 1100000 0  600000 1100000 0  650000 1100000 0  700000 1100000 0  750000 1100000 0  800000 1100000 0  850000 1100000 0  900000 1100000 0  950000 1100000 0  1000000 1100000 0  0 1150000 0  50000 1150000 0  100000 1150000 0  150000 1150000 0  200000 1150000 0  250000 1150000 0  300000 1150000 0  350000 1150000 0  400000 1150000 0  450000 1150000 0  500000 1150000 0  550000 1150000 0  600000 1150000 0  650000 1150000 0  700000 1150000 0  750000 1150000 0  800000 1150000 0  850000 1150000 0  900000 1150000 0  950000 1150000 0  1000000 1150000 0  0 1200000 0  50000 1200000 0  100000 1200000 0  150000 1200000 0  200000 1200000 0  250000 1200000 0  300000 1200000 0  350000 1200000 0  400000 1200000 0  450000 1200000 0  500000 1200000 0  550000 1200000 0  600000 1200000 0  650000 1200000 0  700000 1200000 0  750000 1200000 0  800000 1200000 0  850000 1200000 0  900000 1200000 0  950000 1200000 0  1000000 1200000 0  0 1250000 0  50000 1250000 0  100000 1250000 0  150000 1250000 0  200000 1250000 0  250000 1250000 0  300000 1250000 0  350000 1250000 0  400000 1250000 0  450000 1250000 0  500000 1250000 0  550000 1250000 0  600000 1250000 0  650000 1250000 0  700000 1250000 0  750000 1250000 0  800000 1250000 0  850000 1250000 0  900000 1250000 0  950000 1250000 0  1000000 1250000 0  0 1300000 0  50000 1300000 0  100000 1300000 0  150000 1300000 0  200000 1300000 0  250000 1300000 0  300000 1300000 0  350000 1300000 0  400000 1300000 0  450000 1300000 0  500000 1300000 0  550000 1300000 0  600000 1300000 0  650000 1300000 0  700000 1300000 0  750000 1300000 0  800000 1300000 0  850000 1300000 0  900000 1300000 0  950000 1300000 0  1000000 1300000 0  0 1350000 0  50000 1350000 0  100000 1350000 0  150000 1350000 0  200000 1350000 0  250000 1350000 0  300000 1350000 0  350000 1350000 0  400000 1350000 0  450000 1350000 0  500000 1350000 0  550000 1350000 0  600000 1350000 0  650000 1350000 0  700000 135
[...]
<PointData  Vectors="f_10477"> 
<DataArray  type="Float64"  Name="f_10477"  NumberOfComponents="3" format="ascii">-5.6524205743662436e-09 -3.1475517790552477e-09 0.0000000000000000e+00  7.5453950711595197e-08 -2.0497471003327245e-09 0.0000000000000000e+00  7.8265285807500644e-08 -4.4257207377435147e-11 0.0000000000000000e+00  7.9092749520725570e-08 2.8866448867776850e-10 0.0000000000000000e+00  7.9501664942710737e-08 2.5254469179763185e-10 0.0000000000000000e+00  7.9698638509536311e-08 1.8248502301231999e-10 0.0000000000000000e+00  7.9800465284795300e-08 1.2531285992362337e-10 0.0000000000000000e+00  7.9855957905869087e-08 8.1999170825485655e-11 0.0000000000000000e+00  7.9885817488247991e-08 4.7874350183962612e-11 0.0000000000000000e+00  7.9899242527604512e-08 1.8913608691241568e-11 0.0000000000000000e+00  7.9899900573822922e-08 -7.9598378513107187e-12 0.0000000000000000e+00  7.9887973742060725e-08 -3.5359961228473203e-11 0.0000000000000000e+00  7.9860282086254999e-08 -6.5915938365761907e-11 0.0000000000000000e+00  7.9808643508886964e-08 -1.0270098148184608e-10 0.0000000000000000e+00  7.9714955359245577e-08 -1.4955938326878188e-10 0.0000000000000000e+00  7.9537669366529802e-08 -2.1067513517504525e-10 0.0000000000000000e+00  7.9178639471777312e-08 -2.8413419047432830e-10 0.0000000000000000e+00  7.8448362473050436e-08 -2.9352881786436104e-10 0.0000000000000000e+00  7.6946333257242367e-08 5.4904827623122169e-10 0.0000000000000000e+00  7.2915109463221805e-08 4.7520778333988451e-09 0.0000000000000000e+00  -7.9853817799388826e-09 4.9365390125356212e-09 0.0000000000000000e+00  -3.9633751351530594e-09 -3.5045686792990330e-09 0.0000000000000000e+00  -1.2507256058095971e-09 -2.3633724771443690e-08 0.0000000000000000e+00  1.7255050203525008e-08 -1.4060242828641714e-08 0.0000000000000000e+00  3.1880978926077717e-08 -7.8291150521090802e-09 0.0000000000000000e+00  4.1328041180823218e-08 -4.6257261472925005e-09 0.0000000000000000e+00  4.7468476880709804e-08 -2.8996072156519819e-09 0.0000000000000000e+00  5.1537165830455013e-08 -1.8770373224427227e-09 0.0000000000000000e+00  5.4230069104014986e-08 -1.2079134508103108e-09 0.0000000000000000e+00  5.5941728066213642e-08 -7.2623556768979475e-10 0.0000000000000000e+00  5.6893614388522124e-08 -3.4327314615171184e-10 0.0000000000000000e+00  5.7199023023054614e-08 -3.4879733624345062e-12 0.0000000000000000e+00  5.6892843793132116e-08 3.3596422298845345e-10 0.0000000000000000e+00  5.5940215041809251e-08 7.1782462940254260e-10 0.0000000000000000e+00  5.4228179075234977e-08 1.1972040162612068e-09 0.0000000000000000e+00  5.1536871670455637e-08 1.8614837810041480e-09 0.0000000000000000e+00  4.7477858138490871e-08 2.8725623048181626e-09 0.0000000000000000e+00  4.1375488349753868e-08 4.5736816017673685e-09 0.0000000000000000e+00  3.2072625089520889e-08 7.7894577439804733e-09 0.0000000000000000e+00  1.7960483519826835e-08 1.4446404558342753e-08 0.0000000000000000e+00  -1.6034493699722544e-10 2.5336239764417548e-08 0.0000000000000000e+00  -6.5343561420206297e-09 5.1752302183328748e-09 0.0000000000000000e+00  -1.1422928360961997e-09 -1.9130294910537648e-09 0.0000000000000000e+00  -6.5303027359757244e-09 -2.9775908054998010e-08 0.0000000000000000e+00  -2.6533454161756425e-09 -2.6209529126097401e-08 0.0000000000000000e+00  6.4419590651798653e-09 -1.8703856325372632e-08 0.0000000000000000e+00  1.5601854770113961e-08 -1.2802420432325219e-08 0.0000000000000000e+00  2.2992244085764680e-08 -8.7483658139399396e-09 0.0000000000000000e+00  2.8505330883359658e-08 -5.9570217448537127e-09 0.0000000000000000e+00  3.2420577473789921e-08 -3.9505046608147117e-09 0.0000000000000000e+00  3.5017667407288096e-08 -2.4155457653488449e-09 0.0000000000000000e+00  3.6498322772603756e-08 -1.1472360362873353e-09 0.0000000000000000e+00  3.6979773129872771e-08 4.7764242501123505e-13 0.0000000000000000e+00  3.6500385561291024e-08 1.1483975420763303e-09 0.0000000000000000e+00  3.5022654642118245e-08 2.4174181571881424e-09 0.0000000000000000e+00  3.2430875031765632e-08 3.9539466586395886e-09 0.0000000000000000e+00  2.8526772378848639e-08 5.9639627851535111e-09 0.0000000000000000e+00  2.3039153276811027e-08 8.7649003991758013e-09 0.0000000000000000e+00  1.5708666421067716e-08 1.2851254050991996e-08 0.0000000000000000e+00  6.6579931599901922e-09 1.8843232074478250e-08 0.0000000000000000e+00  -2.3831092450972933e-09 2.6436820915269686e-08 0.0000000000000000e+00  -6.0809754152423318e-09 2.8911408842013868e-08 0.0000000000000000e+00  -1.9731117817853933e-09 2.4796293426938746e-09 0.0000000000000000e+00  -1.5041233988881073e-10 -1.0314293443719485e-09 0.0000000000000000e+00  -4.4287726545581587e-09 -2.5406360714027216e-08 0.0000000000000000e+00  -6.4449869601554717e-09 -2.9763591868868305e-08 0.0000000000000000e+00  -3.8785975166083890e-09 -2.5630346411531252e-08 0.0000000000000000e+00  1.2482612052702245e-09 -1.9871361766731487e-08 0.0000000000000000e+00  6.7533319872578634e-09 -1.4715020714668226e-08 0.0000000000000000e+00  1.1567213901750958e-08 -1.0552147565254880e-08 0.0000000000000000e+00  1.5325842652239517e-08 -7.2339203069338629e-09 0.0000000000000000e+00  1.7967594282861860e-08 -4.5152132851044926e-09 0.0000000000000000e+00  1.9525404417504076e-08 -2.1692078798685547e-09 0.0000000000000000e+00  2.0040372251973577e-08 -3.6345741441881463e-13 0.0000000000000000e+00  1.9529230634121296e-08 2.1686569938191974e-09 0.0000000000000000e+00  1.7976211276828257e-08 4.5153235527746888e-09 0.0000000000000000e+00  1.5341538855525784e-08 7.2357179551648691e-09 0.0000000000000000e+00  1.1594319244500363e-08 1.0558224898525057e-08 0.0000000000000000e+00  6.7982428880078568e-09 1.4732091353032629e-08 0.0000000000000000e+00  1.3123425896470327e-09 1.9913266235952846e-08 0.0000000000000000e+00  -3.8126950724586521e-09 2.5696494777554702e-08 0.0000000000000000e+00  -6.3935334325380281e-09 2.9701257442098247e-08 0.0000000000000000e+00  -4.2037131265986373e-09 2.5006515702370484e-08 0.0000000000000000e+00  -2.5206739231032894e-10 1.4747763039977695e-09 0.0000000000000000e+00  6.1672421283660654e-11 -6.3751089722883471e-10 0.0000000000000000e+00  -2.9465168790331252e-09 -2.0839595668970813e-08 0.0000000000000000e+00  -6.3469499766574432e-09 -2.8445779104008176e-08 0.0000000000000000e+00  -7.3232152398453302e-09 -2.7871474568550270e-08 0.0000000000000000e+00  -5.8003590771646594e-09 -2.3815440293902135e-08 0.0000000000000000e+00  -2.9678852181881121e-09 -1.8915117035554786e-08 0.0000000000000000e+00  1.3430872374259061e-10 -1.4245034236663074e-08 0.0000000000000000e+00  2.8831100870785773e-09 -1.0095414503932000e-08 0.0000000000000000e+00  4.9673884078268885e-09 -6.4371203062064555e-09 0.0000000000000000e+00  6.2515738284897192e-09 -3.1296791374452074e-09 0.0000000000000000e+00  6.6849324290871833e-09 -8.1390493230330840e-13 0.0000000000000000e+00  6.2552995922134767e-09 3.1282684734482827e-09 0.0000000000000000e+00  4.9752856174578734e-09 6.4365075525102923e-09 0.0000000000000000e+00  2.8959813526356909e-09 1.0096686797865889e-08 0.0000000000000000e+00  1.5284566716000900e-10 1.4250201358537413e-08 0.0000000000000000e+00  -2.9443181517380697e-09 1.8926514201470438e-08 0.0000000000000000e+00  -5.7747912963384652e-09 2.3829535178173665e-08 0.0000000000000000e+00  -7.3008118483535118e-09 2.7861380469624625e-08 0.0000000000000000e+00  -6.3233158191537860e-09 2.8348556297049057e-08 0.0000000000000000e+00  -2.8688992545824272e-09 2.0709600678415091e-08 0.0000000000000000e+00  2.1248761628282556e-11 9.2878658087776945e-10 0.0000000000000000e+00  9.1887660677542695e-11 -4.1980943052339555e-10 0.0000000000000000e+00  -2.1277394804649343e-09 -1.7123024175090903e-08 0.0000000000000000e+00  -5.5589742297218679e-09 -2.5445454500335413e-08 0.0000000000000000e+00  -8.0835038014459320e-09 -2.7137693056298583e-08 0.0000000000000000e+00  -8.8908386010973525e-09 -2.4923705870043677e-08 0.0000000000000000e+00  -8.3262648608526481e-09 -2.0954426499322637e-08 0.0000000000000000e+00  -7.0347439719735948e-09 -1.6466991837235219e-08 0.0000000000000000e+00  -5.5748629080763669e-09 -1.2029813823731346e-08 0.0000000000000000e+00  -4.3229992343211602e-09 -7.8270217232627522e-09 0.0000000000000000e+00  -3.4989055617014153e-09 -3.8497092307665359e-09 0.0000000000000000e+00  -3.2123929889100193e-09 -1.4573631704512807e-12 0.0000000000000000e+00  -3.4963011418852651e-09 3.8469896705907709e-09 0.0000000000000000e+00  -4.3178341124997068e-09 7.8249669144302617e-09 0.0000000000000000e+00  -5.5673873825491052e-09 1.2029080010533221e-08 0.0000000000000000e+00  -7.0257321439375058e-09 1.6468212673554042e-08 0.0000000000000000e+00  -8.3173255736954701e-09 2.0956838721157030e-08 0.0000000000000000e+00  -8.8839051739102420e-09 2.4921050180685394e-08 0.0000000000000000e+00  -8.0776923434329221e-09 2.7113463669038603e-08 0.0000000000000000e+00  -5.5533750548591184e-09 2.5393876620242628e-08 0.0000000000000000e+00  -2.1063316740025151e-09 1.7089072343616962e-08 0.0000000000000000e+00  7.3575268848865025e-11 5.8798005625386592e-10 0.0000000000000000e+00  8.9191954963479254e-11 -2.9114060664481711e-10 0.0000000000000000e+00  -1.6471609393638253e-09 -1.4107047457776000e-08 0.0000000000000000e+00  -4.7917425958648445e-09 -2.2075218618778692e-08 0.0000000000000000e+00  -7.8781296057866721e-09 -2.4893748678398114e-08 0.0000000000000000e+00  -9.9839529162650775e-09 -2.4082251538331023e-08 0.0000000000000000e+00  -1.0995426273559285e-08 -2.1158220882505665e-08 0.0000000000000000e+00  -1.1184661679247989e-08 -1.7218132408466572e-08 0.0000000000000000e+00  -1.0919336128505807e-08 -1.2910631298331025e-08 0.0000000000000000e+00  -1.0514449675339723e-08 -8.5517764998775005e-09 0.0000000000000000e+00  -1.0188926084508484e-08 -4.2503343012048811e-09 0.0000000000000000e+00  -1.0066745365691352e-08 -1.8820308955415372e-12 0.0000000000000000e+00  -1.0187665766238123e-08 4.2467315563929460e-09 0.0000000000000000e+00  -1.0512163624068765e-08 8.5486654385127718e-09 0.0000000000000000e+00  -1.0916535056162430e-08 1.2908279789239889e-08 0.0000000000000000e+00  -1.1182140951135802e-08 1.7216358305558383e-08 0.0000000000000000e+00  -1.0994103541201783e-08 2.1155426998350030e-08 0.0000000000000000e+00  -9.9845756291722367e-09 2.4074332537353355e-08 0.0000000000000000e+00  -7.8797155481484120e-09 2.4875857807727189e-08 0.0000000000000000e+00  -4.7950753157359152e-09 2.2053650405175346e-08 0.0000000000000000e+00  -1.6416698261765186e-09 1.4101594657581235e-08 0.0000000000000000e+00  8.2669946324767489e-11 3.9340089972870651e-10 0.0000000000000000e+00  8.1436332683901500e-11 -2.0886976268980510e-10 0.0000000000000000e+00  -1.3371615468645155e-09 -1.1599766485060742e-08 0.0000000000000000e+00  -4.1526796242116713e-09 -1.8776608921653626e-08 0.0000000000000000e+00  -7.3487382408921701e-09 -2.1988756894455835e-08 0.0000000000000000e+00  -1.0093069474244152e-08 -2.2078459391822193e-08 0.0000000000000000e+00  -1.2074563914630897e-08 -2.0054432640373181e-08 0.0000000000000000e+00  -1.3313116173632943e-08 -1.6777716487977374e-08 0.0000000000000000e+00  -1.3985129153806692e-08 -1.2852697153492578e-08 0.0000000000000000e+00  -1.4295428115827687e-08 -8.6430006518997173e-09 0.0000000000000000e+00  -1.4411605164359823e-08 -4.3343769585333825e-09 0.0000000000000000e+00  -1.4438491624773450e-08 -2.0953204832464578e-12 0.0000000000000000e+00  -1.4411400428884007e-08 4.3303096010462941e-09 0.0000000000000000e+00  -1.4295227814427466e-08 8.6392704649310169e-09 0.0000000000000000e+00  -1.3985318470843718e-08 1.2849363834688831e-08 0.0000000000000000e+00  -1.3314161903510817e-08 1.6774414697993137e-08 0.0000000000000000e+00  -1.2076845033813441e-08 2.0050034970505018e-08 0.0000000000000000e+00  -1.0096786934393186e-08 2.2071322192190432e-08 0.0000000000000000e+00  -7.3531671503433297e-09 2.1978768844274422e-08 0.0000000000000000e+00  -4.1581812054761430e-09 1.8768961877795217e-08 0.0000000000000000e+00  -1.3354768757565703e-09 1.1601977945183935e-08 0.0000000000000000e+00  8.0260678689371256e-11 2.7572720613700803e-10 0.0000000000000000e+00  7.3604538893074459e-11 -1.5239427759486669e-10 0.0000000000000000e+00  -1.1197337451245507e-09 -9.4702162438812276e-09 0.0000000000000000e+00  -3.6290170390998554e-09 -1.5693169527432343e-08 0.0000000000000000e+00  -6.7327894932646170e-09 -1.8869344820736769e-08 0.0000000000000000e+00  -9.7278946623547099e-09 -1.9461608012095151e-08 0.0000000000000000e+00  -1.2240653398670832e-08 -1.8123522020115948e-08 0.0000000000000000e+00  -1.4145218693632607e-08 -1.5490750909254220e-08 0.0000000000000000e+00  -1.5471320984746869e-08 -1.2071122229757368e-08 0.0000000000000000e+00  -1.6314099079218702e-08 -8.2179636922997785e-09 0.0000000000000000e+00  -1.6773012296284046e-08 -4.1518975865985716e-09 0.0000000000000000e+00  -1.6917882136980430e-08 -2.1320713674823223e-12 0.0000000000000000e+00  -1.6773446523377572e-08 4.1477275167037785e-09 0.0000000000000000e+00  -1.6315085479437206e-08 8.2140354026663634e-09 0.0000000000000000e+00  -1.5473051208179521e-08 1.2067444565079145e-08 0.0000000000000000e+00  -1.4147878358566151e-08 1.5487080109874282e-08 0.0000000000000000e+00  -1.2244322460613155e-08 1.8119364818750896e-08 0.0000000000000000e+00  -9.7325142033130015e-09 1.9456677090399799e-08 0.0000000000000000e+00  -6.7376684592489991e-09 1.8864524134577701e-08 0.0000000000000000e+00  -3.6340814878627499e-09 1.5691317498444674e-08 0.0000000000000000e+00  -1.1188384248896216e-09 9.4739077065943878e-09 0.0000000000000000e+00  7.4724236508700209e-11 1.9876863390637926e-10 0.0000000000000000e+00  6.6593419188398542e-11 -1.1153039800358176e-10 0.0000000000000000e+00  -9.5752289684906899e-10 -7.6320561557250649e-09 0.0000000000000000e+00  -3.1965259738026117e-09 -1.2863095483166031e-08 0.0000000000000000e+00  -6.1233428462760682e-09 -1.5762215401108314e-08 0.0000000000000000e+00  -9.1525071387464958e-09 -1.6577660280677313e-08 0.0000000000000000e+00  -1.1907818924754606e-08 -1.5727106542465353e-08 0.0000000000000000e+00  -1.4188335069886194e-08 -1.3664074958514788e-08 0.0000000000000000e+00  -1.5925181573801222e-08 -1.0790306183235717e-08 0.0000000000000000e+00  -1.7124965046802774e-08 -7.4180234828088003e-09 0.0000000000000000e+00  -1.7822967506641094e-08 -3.7701084809345381e-09 0.0000000000000000e+00  -1.8051672393966674e-08 -2.0499902048547500e-12 0.0000000000000000e+00  -1.7823690935681488e-08 3.7660864253564018e-09 0.0000000000000000e+00  -1.7126451798428988e-08 7.4142050372060771e-09 0.0000000000000000e+00  -1.5927481067878496e-08 1.0786730704448522e-08 0.0000000000000000e+00  -1.4191459219473230e-08 1.3660674255700587e-08 0.0000000000000000e+00  -1.1911687017420846e-08 1.5723796387633852e-08 0.0000000000000000e+00  -9.1569255400881205e-09 1.6574631747393420e-08 0.0000000000000000e+00  -6.1276508889385387e-09 1.5760216714932914e-08 0.0000000000000000e+00  -3.2005437590221906e-09 1.2863474718490957e-08 0.0000000000000000e+00  -9.5674078392742367e-10 7.6355525219276690e-09 0.0000000000000000e+00  6.8628388510711236e-11 1.4522386404477733e-10 0.0000000000000000e+00  6.0564503494852843e-11 -8.0803424628153209e-11 0.0000000000000000e+00  -8.3214469919687311e-10 -6.0250457230726628e-09 0.0000000000000000e+00  -2.8388333660190842e-09 -1.0282928374575868e-08 0.0000000000000000e+00  -5.5628931334865292e-09 -1.2775900104894966e-08 0.0000000000000000e+00  -8.5139343210547922e-09 -1.3630411482014767e-08 0.0000000000000000e+00  -1.1336130496146716e-08 -1.3110233900062723e-08 0.0000000000000000e+00  -1.3794756485571936e-08 -1.1531555172874424e-08 0.0000000000000000e+00  -1.5760120189089864e-08 -9.1993381188774101e-09 0.0000000000000000e+00  -1.7175243579913863e-08 -6.3722055841134067e-09 0.0000000000000000e+00  -1.8024018312974607e-08 -3.2536761341966059e-09 0.0000000000000000e+00  -1.8306639134693515e-08 -1.9021710434097983e-12 0.0000000000000000e+00  -1.8024797502896407e-08 3.2499443141117196e-09 0.0000000000000000e+00  -1.7176795076852914e-08 6.3686743498994052e-09 0.0000000000000000e+00  -1.5762414129364628e-08 9.1960942458960008e-09 0.0000000000000000e+00  -1.3797715911032408e-08 1.1528654977864894e-08 0.0000000000000000e+00  -1.1339600770733031e-08 1.3107776123854475e-08 0.0000000000000000e+00  -8.5176741686037454e-09 1.3628663064594565e-08 0.0000000000000000e+00  -5.5663328029133874e-09 1.2775309947816762e-08 0.0000000000000000e+00  -2.8418375275624503e-09 1.0284069260124543e-08 0.0000000000000000e+00  -8.3137259804210040e-10 6.0280263611968909e-09 0.0000000000000000e+00  6.2842856526807583e-11 1.0620226012516843e-10 0.0000000000000000e+00  5.5572203266641949e-11 -5.6960585634217539e-11 0.0000000000000000e+00  -7.3457918622481352e-10 -4.6028101062551478e-09 0.0000000000000000e+00  -2.5477366499264127e-09 -7.9296836235736008e-09 0.0000000000000000e+00  -5.0759626168259421e-09 -9.9523296572367290e-09 0.0000000000000000e+00  -7.9016906147795661e-09 -1.0729294733072126e-08 0.0000000000000000e+00  -1.0695161325169087e-08 -1.0424420585046927e-08 0.0000000000000000e+00  -1.3209997291917249e-08 -9.2529947831303663e-09 0.0000000000000000e+00  -1.5281614949346881e-08 -7.4378569385786152e-09 0.0000000000000000e+00  -1.6810921436675298e-08 -5.1814536915929607e-09 0.0000000000000000e+00  -1.7744696873079962e-08 -2.6550528454408083e-09 0.0000000000000000e+00  -1.8058482139526414e-08 -1.7318894543485116e-12 0.0000000000000000e+00  -1.7745397274829182e-08 2.6516619206067397e-09 0.0000000000000000e+00  -1.6812294613854455e-08 5.1782735110584928e-09 0.0000000000000000e+00  -1.5283598274108564e-08 7.4350093052875251e-09 0.0000000000000000e+00  -1.3212482053885028e-08 9.2505980111680339e-09 0.0000000000000000e+00  -1.0697977406722054e-08 1.0422625044161604e-08 0.0000000000000000e+00  -7.9046091267351290e-09 1.0728317516350805e-08 0.0000000000000000e+00  -5.0785372595306998e-09 9.9523967255453981e-09 0.0000000000000000e+00  -2.5498992929036558e-09 7.9310192685491947e-09 0.0000000000000000e+00  -7.3385404913948272e-10 4.6053290367261669e-09 0.0000000000000000e+00  5.7720883473309084e-11 7.6734699464159018e-11 0.0000000000000000e+00  5.1673987227882606e-11 -3.7848092051409173e-11 0.0000000000000000e+00  -6.6056777736650897e-10 -3.3256638111245401e-09 0.0000000000000000e+00  -2.3204074439846614e-09 -5.7691069392089099e-09 0.0000000000000000e+00  -4.6797850239417722e-09 -7.2934899011784290e-09 0.0000000000000000e+00  -7.3744922043049408e-09 -7.9215644494203456e-09 0.0000000000000000e+00  -1.0098802440435510e-08 -7.7520311517637489e-09 0.0000000000000000e+00  -1.2605272421510006e-08 -6.9259347968550173e-09 0.0000000000000000e+00  -1.4710750589698725e-08 -5.5978484124791159e-09 0.0000000000000000e+00  -1.6290092872552159e-08 -3.9157929319252470e-09 0.0000000000000000e+00  -1.7265365329458931e-08 -2.0117602917331389e-09 0.0000000000000000e+00  -1.7594962176540808e-08 -1.5715051669782069e-12 0.0000000000000000e+00  -1.7265918749660810e-08 2.0086920607228464e-09 0.0000000000000000e+00  -1.6291168313719613e-08 3.9129456531527758e-09 0.0000000000000000e+00  -1.4712282295416745e-08 5.5953618065373674e-09 0.0000000000000000e+00  -1.2607156084036309e-08 6.9239476043323183e-09 0.0000000000000000e+00  -1.0100889355497619e-08 7.7506901727926449e-09 0.0000000000000000e+00  -7.3765987246479060e-09 7.9210220601893694e-09 0.0000000000000000e+00  -4.6815909889415908e-09 7.2938436372724032e-09 0.0000000000000000e+00  -2.3218915717674570e-09 5.7704441471483460e-09 0.0000000000000000e+00  -6.5995376497958136e-10 3.3278506461539278e-09 0.0000000000000000e+00  5.3459980384503563e-11 5.3782558558182929e-11 0.0000000000000000e+00  4.8933450134284734e-11 -2.1872586797101031e-11 0.0000000000000000e+00  -6.0825763037664130e-10 -2.1566983522366038e-09 0.0000000000000000e+00  -2.1568453078015934e-09 -3.7593194024167811e-09 0.0000000000000000e+00  -4.3873891717733680e-09 -4.7762032607533987e-09 0.0000000000000000e+00  -6.9721409896072041e-09 -5.2135288538938997e-09 0.0000000000000000e+00  -9.6239268315416149e-09 -5.1266639168485075e-09 0.0000000000000000e+00  -1.2098125347557418e-