<?xml version="1.0"?>
<VTKFile type="UnstructuredGrid"  version="0.1"  >
<UnstructuredGrid>
<Piece  NumberOfPoints="651" NumberOfCells="1200">
<Points>
<DataArray  type="Float64"  NumberOfComponents="3"  format="ascii">0 0 0  50000 0 0  100000 0 0  150000 0 0  200000 0 0  250000 0 0  300000 0 0  350000 0 0  400000 0 0  450000 0 0  500000 0 0  550000 0 0  600000 0 0  650000 0 0  700000 0 0  750000 0 0  800000 0 0  850000 0 0  900000 0 0  950000 0 0  1000000 0 0  0 50000 0  50000 50000 0  100000 50000 0  150000 50000 0  200000 50000 0  250000 50000 0  300000 50000 0  350000 50000 0  400000 50000 0  450000 50000 0  500000 50000 0  550000 50000 0  600000 50000 0  650000 50000 0  700000 50000 0  750000 50000 0  800000 50000 0  850000 50000 0  900000 50000 0  950000 50000 0  1000000 50000 0  0 100000 0  50000 100000 0  100000 100000 0  150000 100000 0  200000 100000 0  250000 100000 0  300000 100000 0  350000 100000 0  400000 100000 0  450000 100000 0  500000 100000 0  550000 100000 0  600000 100000 0  650000 100000 0  700000 100000 0  750000 100000 0  800000 100000 0  850000 100000 0  900000 100000 0  950000 100000 0  1000000 100000 0  0 150000 0  50000 150000 0  100000 150000 0  150000 150000 0  200000 150000 0  250000 150000 0  300000 150000 0  350000 150000 0  400000 150000 0  450000 150000 0  500000 150000 0  550000 150000 0  600000 150000 0  650000 150000 0  700000 150000 0  750000 150000 0  800000 150000 0  850000 150000 0  900000 150000 0  950000 150000 0  1000000 150000 0  0 200000 0  50000 200000 0  100000 200000 0  150000 200000 0  200000 200000 0  250000 200000 0  300000 200000 0  350000 200000 0  400000 200000 0  450000 200000 0  500000 200000 0  550000 200000 0  600000 200000 0  650000 200000 0  700000 200000 0  750000 200000 0  800000 200000 0  850000 200000 0  900000 200000 0  950000 200000 0  1000000 200000 0  0 250000 0  50000 250000 0  100000 250000 0  150000 250000 0  200000 250000 0  250000 250000 0  300000 250000 0  350000 250000 0  400000 250000 0  450000 250000 0  500000 250000 0  550000 250000 0  600000 250000 0  650000 250000 0  700000 250000 0  750000 250000 0  800000 250000 0  850000 250000 0  900000 250000 0  950000 250000 0  1000000 250000 0  0 300000 0  50000 300000 0  100000 300000 0  150000 300000 0  200000 300000 0  250000 300000 0  300000 300000 0  350000 300000 0  400000 300000 0  450000 300000 0  500000 300000 0  550000 300000 0  600000 300000 0  650000 300000 0  700000 300000 0  750000 300000 0  800000 300000 0  850000 300000 0  900000 300000 0  950000 300000 0  1000000 300000 0  0 350000 0  50000 350000 0  100000 350000 0  150000 350000 0  200000 350000 0  250000 350000 0  300000 350000 0  350000 350000 0  400000 350000 0  450000 350000 0  500000 350000 0  550000 350000 0  600000 350000 0  650000 350000 0  700000 350000 0  750000 350000 0  800000 350000 0  850000 350000 0  900000 350000 0  950000 350000 0  1000000 350000 0  0 400000 0  50000 400000 0  100000 400000 0  150000 400000 0  200000 400000 0  250000 400000 0  300000 400000 0  350000 400000 0  400000 400000 0  450000 400000 0  500000 400000 0  550000 400000 0  600000 400000 0  650000 400000 0  700000 400000 0  750000 400000 0  800000 400000 0  850000 400000 0  900000 400000 0  950000 400000 0  1000000 400000 0  0 450000 0  50000 450000 0  100000 450000 0  150000 450000 0  200000 450000 0  250000 450000 0  300000 450000 0  350000 450000 0  400000 450000 0  450000 450000 0  500000 450000 0  550000 450000 0  600000 450000 0  650000 450000 0  700000 450000 0  750000 450000 0  800000 450000 0  850000 450000 0  900000 450000 0  950000 450000 0  1000000 450000 0  0 500000 0  50000 500000 0  100000 500000 0  150000 500000 0  200000 500000 0  250000 500000 0  300000 500000 0  350000 500000 0  400000 500000 0  450000 500000 0  500000 500000 0  550000 500000 0  600000 500000 0  650000 500000 0  700000 500000 0  750000 500000 0  800000 500000 0  850000 500000 0  900000 500000 0  950000 500000 0  1000000 500000 0  0 550000 0  50000 550000 0  100000 550000 0  150000 550000 0  200000 550000 0  250000 550000 0  300000 550000 0  350000 550000 0  400000 550000 0  450000 550000 0  500000 550000 0  550000 550000 0  600000 550000 0  650000 550000 0  700000 550000 0  750000 550000 0  800000 550000 0  850000 550000 0  900000 550000 0  950000 550000 0  1000000 550000 0  0 600000 0  50000 600000 0  100000 600000 0  150000 600000 0  200000 600000 0  250000 600000 0  300000 600000 0  350000 600000 0  400000 600000 0  450000 600000 0  500000 600000 0  550000 600000 0  600000 600000 0  650000 600000 0  700000 600000 0  750000 600000 0  800000 600000 0  850000 600000 0  900000 600000 0  950000 600000 0  1000000 600000 0  0 650000 0  50000 650000 0  100000 650000 0  150000 650000 0  200000 650000 0  250000 650000 0  300000 650000 0  350000 650000 0  400000 650000 0  450000 650000 0  500000 650000 0  550000 650000 0  600000 650000 0  650000 650000 0  700000 650000 0  750000 650000 0  800000 650000 0  850000 650000 0  900000 650000 0  950000 650000 0  1000000 650000 0  0 700000 0  50000 700000 0  100000 700000 0  150000 700000 0  200000 700000 0  250000 700000 0  300000 700000 0  350000 700000 0  400000 700000 0  450000 700000 0  500000 700000 0  550000 700000 0  600000 700000 0  650000 700000 0  700000 700000 0  750000 700000 0  800000 700000 0  850000 700000 0  900000 700000 0  950000 700000 0  1000000 700000 0  0 750000 0  50000 750000 0  100000 750000 0  150000 750000 0  200000 750000 0  250000 750000 0  300000 750000 0  350000 750000 0  400000 750000 0  450000 750000 0  500000 750000 0  550000 750000 0  600000 750000 0  650000 750000 0  700000 750000 0  750000 750000 0  800000 750000 0  850000 750000 0  900000 750000 0  950000 750000 0  1000000 750000 0  0 800000 0  50000 800000 0  100000 800000 0  150000 800000 0  200000 800000 0  250000 800000 0  300000 800000 0  350000 800000 0  400000 800000 0  450000 800000 0  500000 800000 0  550000 800000 0  600000 800000 0  650000 800000 0  700000 800000 0  750000 800000 0  800000 800000 0  850000 800000 0  900000 800000 0  950000 800000 0  1000000 800000 0  0 850000 0  50000 850000 0  100000 850000 0  150000 850000 0  200000 850000 0  250000 850000 0  300000 850000 0  350000 850000 0  400000 850000 0  450000 850000 0  500000 850000 0  550000 850000 0  600000 850000 0  650000 850000 0  700000 850000 0  750000 850000 0  800000 850000 0  850000 850000 0  900000 850000 0  950000 850000 0  1000000 850000 0  0 900000 0  50000 900000 0  100000 900000 0  150000 900000 0  200000 900000 0  250000 900000 0  300000 900000 0  350000 900000 0  400000 900000 0  450000 900000 0  500000 900000 0  550000 900000 0  600000 900000 0  650000 900000 0  700000 900000 0  750000 900000 0  800000 900000 0  850000 900000 0  900000 900000 0  950000 900000 0  1000000 900000 0  0 950000 0  50000 950000 0  100000 950000 0  150000 950000 0  200000 950000 0  250000 950000 0  300000 950000 0  350000 950000 0  400000 950000 0  450000 950000 0  500000 950000 0  550000 950000 0  600000 950000 0  650000 950000 0  700000 950000 0  750000 950000 0  800000 950000 0  850000 950000 0  900000 950000 0  950000 950000 0  1000000 950000 0  0 1000000 0  50000 1000000 0  100000 1000000 0  150000 1000000 0  200000 1000000 0  250000 1000000 0  300000 1000000 0  350000 1000000 0  400000 1000000 0  450000 1000000 0  500000 1000000 0  550000 1000000 0  600000 1000000 0  650000 1000000 0  700000 1000000 0  750000 1000000 0  800000 1000000 0  850000 1000000 0  900000 1000000 0  950000 1000000 0  1000000 1000000 0  0 1050000 0  50000 1050000 0  100000 1050000 0  150000 1050000 0  200000 1050000 0  250000 1050000 0  300000 1050000 0  350000 1050000 0  400000 1050000 0  450000 1050000 0  500000 1050000 0  550000 1050000 0  600000 1050000 0  650000 1050000 0  700000 1050000 0  750000 1050000 0  800000 1050000 0  850000 1050000 0  900000 1050000 0  950000 1050000 0  1000000 1050000 0  0 1100000 0  50000 1100000 0  100000 1100000 0  150000 1100000 0  200000 1100000 0  250000 1100000 0  300000 1100000 0  350000 1100000 0  400000 1100000 0  450000 1100000 0  500000 1100000 0  550000 1100000 0  600000 1100000 0  650000 1100000 0  700000 1100000 0  750000 1100000 0  800000 1100000 0  850000 1100000 0  900000 1100000 0  950000 1100000 0  1000000 1100000 0  0 1150000 0  50000 1150000 0  100000 1150000 0  150000 1150000 0  200000 1150000 0  250000 1150000 0  300000 1150000 0  350000 1150000 0  400000 1150000 0  450000 1150000 0  500000 1150000 0  550000 1150000 0  600000 1150000 0  650000 1150000 0  700000 1150000 0  750000 1150000 0  800000 1150000 0  850000 1150000 0  900000 1150000 0  950000 1150000 0  1000000 1150000 0  0 1200000 0  50000 1200000 0  100000 1200000 0  150000 1200000 0  200000 1200000 0  250000 1200000 0  300000 1200000 0  350000 1200000 0  400000 1200000 0  450000 1200000 0  500000 1200000 0  550000 1200000 0  600000 1200000 0  650000 1200000 0  700000 1200000 0  750000 1200000 0  800000 1200000 0  850000 1200000 0  900000 1200000 0  950000 1200000 0  1000000 1200000 0  0 1250000 0  50000 1250000 0  100000 1250000 0  150000 1250000 0  200000 1250000 0  250000 1250000 0  300000 1250000 0  350000 1250000 0  400000 1250000 0  450000 1250000 0  500000 1250000 0  550000 1250000 0  600000 1250000 0  650000 1250000 0  700000 1250000 0  750000 1250000 0  800000 1250000 0  850000 1250000 0  900000 1250000 0  950000 1250000 0  1000000 1250000 0  0 1300000 0  50000 1300000 0  100000 1300000 0  150000 1300000 0  200000 1300000 0  250000 1300000 0  300000 1300000 0  350000 1300000 0  400000 1300000 0  450000 1300000 0  500000 1300000 0  550000 1300000 0  600000 1300000 0  650000 1300000 0  700000 1300000 0  750000 1300000 0  800000 1300000 0  850000 1300000 0  900000 1300000 0  950000 1300000 0  1000000 1300000 0  0 1350000 0  50000 1350000 0  100000 1350000 0  150000 1350000 0  200000 1350000 0  250000 1350000 0  300000 1350000 0  350000 1350000 0  400000 1350000 0  450000 1350000 0  500000 1350000 0  550000 1350000 0  600000 1350000 0  650000 1350000 0  700000 135
[...]
<PointData  Vectors="f_10477"> 
<DataArray  type="Float64"  Name="f_10477"  NumberOfComponents="3" format="ascii">-6.0879142540802566e-09 -3.3952431556721281e-09 0.0000000000000000e+00  7.5032095963851199e-08 -2.1930695969293530e-09 0.0000000000000000e+00  7.7994689268563695e-08 -8.1530360793460171e-11 0.0000000000000000e+00  7.8957601613623734e-08 2.9136770709469207e-10 0.0000000000000000e+00  7.9425315797156950e-08 2.6394001808815550e-10 0.0000000000000000e+00  7.9648997984078236e-08 1.9154852784778269e-10 0.0000000000000000e+00  7.9763192456355973e-08 1.3064184375406321e-10 0.0000000000000000e+00  7.9824326202624090e-08 8.4617040001398399e-11 0.0000000000000000e+00  7.9856610182116411e-08 4.8953089989239249e-11 0.0000000000000000e+00  7.9870891996770852e-08 1.9246106750421909e-11 0.0000000000000000e+00  7.9871522224729463e-08 -8.0419884338054705e-12 0.0000000000000000e+00  7.9858722240064382e-08 -3.5986226436528447e-11 0.0000000000000000e+00  7.9828728511246295e-08 -6.7671851507938850e-11 0.0000000000000000e+00  7.9771890406920656e-08 -1.0662267044514253e-10 0.0000000000000000e+00  7.9666998062263765e-08 -1.5708173714640360e-10 0.0000000000000000e+00  7.9466094270086344e-08 -2.2318332243282855e-10 0.0000000000000000e+00  7.9058900440936713e-08 -2.9948779274794895e-10 0.0000000000000000e+00  7.8237266159163698e-08 -2.8693194998359495e-10 0.0000000000000000e+00  7.6599353118945998e-08 6.6263006209500155e-10 0.0000000000000000e+00  7.2549234619985420e-08 4.9492705965179605e-09 0.0000000000000000e+00  -8.2998386810501472e-09 5.0841462865251490e-09 0.0000000000000000e+00  -4.2603226529647800e-09 -3.8275137113391946e-09 0.0000000000000000e+00  -8.1789030111124524e-10 -2.3361503964919616e-08 0.0000000000000000e+00  1.7263365770891529e-08 -1.4052230626013311e-08 0.0000000000000000e+00  3.1701563535050660e-08 -7.8244838172031182e-09 0.0000000000000000e+00  4.0993847871897372e-08 -4.5801033618255024e-09 0.0000000000000000e+00  4.6976504420867185e-08 -2.8307114422010646e-09 0.0000000000000000e+00  5.0887634631257459e-08 -1.8031152618173202e-09 0.0000000000000000e+00  5.3438569855365288e-08 -1.1421366297714788e-09 0.0000000000000000e+00  5.5038016221314626e-08 -6.7760370695629598e-10 0.0000000000000000e+00  5.5918102859560761e-08 -3.1751810763347180e-10 0.0000000000000000e+00  5.6198667163771983e-08 -3.4467988094611007e-12 0.0000000000000000e+00  5.5916805055352754e-08 3.1023173189193476e-10 0.0000000000000000e+00  5.5035475360287058e-08 6.6902341393144244e-10 0.0000000000000000e+00  5.3435273122142951e-08 1.1308696616291419e-09 0.0000000000000000e+00  5.0885996297327135e-08 1.7862217982103040e-09 0.0000000000000000e+00  4.6986019311370354e-08 2.8009053876677576e-09 0.0000000000000000e+00  4.1047268616460973e-08 4.5248020684935621e-09 0.0000000000000000e+00  3.1916355335148613e-08 7.7899631051900029e-09 0.0000000000000000e+00  1.8039917386123941e-08 1.4471409233814860e-08 0.0000000000000000e+00  2.2603243825570225e-10 2.5086101040159919e-08 0.0000000000000000e+00  -6.8535732449319754e-09 5.4128429551633265e-09 0.0000000000000000e+00  -1.2715017151224543e-09 -2.1913459053185350e-09 0.0000000000000000e+00  -6.5275583040404890e-09 -2.9622498034906260e-08 0.0000000000000000e+00  -2.7465936153370966e-09 -2.5990467167571870e-08 0.0000000000000000e+00  6.1453221522504523e-09 -1.8445497104433128e-08 0.0000000000000000e+00  1.5034407618896222e-08 -1.2510861213745010e-08 0.0000000000000000e+00  2.2140337404953624e-08 -8.4436492714500747e-09 0.0000000000000000e+00  2.7379639655720847e-08 -5.6683499738505707e-09 0.0000000000000000e+00  3.1053908537454156e-08 -3.7063725745922714e-09 0.0000000000000000e+00  3.3462804940880502e-08 -2.2391772369454898e-09 0.0000000000000000e+00  3.4823795435308541e-08 -1.0547470044662455e-09 0.0000000000000000e+00  3.5264082954344190e-08 8.9107528160480038e-13 0.0000000000000000e+00  3.4825464448876195e-08 1.0567973427311188e-09 0.0000000000000000e+00  3.3467104748414626e-08 2.2421348647217485e-09 0.0000000000000000e+00  3.1063498831950028e-08 3.7112721312265512e-09 0.0000000000000000e+00  2.7401008715157585e-08 5.6774389899266254e-09 0.0000000000000000e+00  2.2189385880726566e-08 8.4637912781871383e-09 0.0000000000000000e+00  1.5149710307512936e-08 1.2566105145891484e-08 0.0000000000000000e+00  6.3853424009120052e-09 1.8590811893326762e-08 0.0000000000000000e+00  -2.4269032725837006e-09 2.6193599050875255e-08 0.0000000000000000e+00  -6.1248640912016156e-09 2.8716192738039476e-08 0.0000000000000000e+00  -2.1861209795556242e-09 2.7729600360011666e-09 0.0000000000000000e+00  -1.8615299901353351e-10 -1.1985855523296203e-09 0.0000000000000000e+00  -4.5557907425559526e-09 -2.5280875529724191e-08 0.0000000000000000e+00  -6.6718195090806222e-09 -2.9373453602142279e-08 0.0000000000000000e+00  -4.3249016806967568e-09 -2.5090329285953748e-08 0.0000000000000000e+00  4.9107091299784043e-10 -1.9260091985243473e-08 0.0000000000000000e+00  5.6572947055989567e-09 -1.4089723893899146e-08 0.0000000000000000e+00  1.0141694714911525e-08 -9.9690926618192814e-09 0.0000000000000000e+00  1.3610216875223005e-08 -6.7452281773889685e-09 0.0000000000000000e+00  1.6025797668566231e-08 -4.1638218824986652e-09 0.0000000000000000e+00  1.7440042146909907e-08 -1.9853672655959512e-09 0.0000000000000000e+00  1.7905776639507817e-08 3.7646449469189342e-13 0.0000000000000000e+00  1.7443769696439661e-08 1.9863604767205393e-09 0.0000000000000000e+00  1.6034352224973595e-08 4.1656781885706592e-09 0.0000000000000000e+00  1.3626212891016009e-08 6.7491440520201415e-09 0.0000000000000000e+00  1.0170113327217643e-08 9.9778928073588905e-09 0.0000000000000000e+00  5.7056971905135860e-09 1.4110325550330300e-08 0.0000000000000000e+00  5.6230742187232423e-10 1.9305517895139399e-08 0.0000000000000000e+00  -4.2495574692218679e-09 2.5154689260759516e-08 0.0000000000000000e+00  -6.6097124217076010e-09 2.9284722472189830e-08 0.0000000000000000e+00  -4.3382550278396262e-09 2.4837747816025512e-08 0.0000000000000000e+00  -3.1387778483752737e-10 1.6895611828138637e-09 0.0000000000000000e+00  6.2595979361044945e-11 -7.3808985822833730e-10 0.0000000000000000e+00  -3.0737193305873819e-09 -2.0592878561935023e-08 0.0000000000000000e+00  -6.6312684746058178e-09 -2.7855423388255504e-08 0.0000000000000000e+00  -7.8535106929775757e-09 -2.7046811146399669e-08 0.0000000000000000e+00  -6.6456204337095615e-09 -2.2867818130594486e-08 0.0000000000000000e+00  -4.1556309337608853e-09 -1.7943722383867535e-08 0.0000000000000000e+00  -1.3878593625747072e-09 -1.3341128007335269e-08 0.0000000000000000e+00  1.0659900980756933e-09 -9.3395385221010464e-09 0.0000000000000000e+00  2.9203018838623929e-09 -5.8945237830272733e-09 0.0000000000000000e+00  4.0585875349033072e-09 -2.8461993300852874e-09 0.0000000000000000e+00  4.4419892499753823e-09 -5.5146948024206737e-14 0.0000000000000000e+00  4.0624125065269813e-09 2.8463326120234503e-09 0.0000000000000000e+00  2.9285148834611041e-09 5.8955291742407941e-09 0.0000000000000000e+00  1.0796492430603522e-09 9.3425224137880086e-09 0.0000000000000000e+00  -1.3676435828131596e-09 1.3348001463352400e-08 0.0000000000000000e+00  -4.1290086827964841e-09 1.7956323606769090e-08 0.0000000000000000e+00  -6.6156311585678137e-09 2.2881115507942489e-08 0.0000000000000000e+00  -7.8281067109031454e-09 2.7031294457025140e-08 0.0000000000000000e+00  -6.6072079859715116e-09 2.7744011892921209e-08 0.0000000000000000e+00  -2.9931566906855739e-09 2.0443732826370143e-08 0.0000000000000000e+00  1.6724415543386406e-11 1.0701989602868973e-09 0.0000000000000000e+00  1.0317867917412432e-10 -4.8287270647775885e-10 0.0000000000000000e+00  -2.2353065054182621e-09 -1.6726330804373767e-08 0.0000000000000000e+00  -5.8381436685647547e-09 -2.4636661518724326e-08 0.0000000000000000e+00  -8.6040948633917978e-09 -2.6031900833666601e-08 0.0000000000000000e+00  -9.7001308920594263e-09 -2.3654286392274245e-08 0.0000000000000000e+00  -9.4434057610588639e-09 -1.9653591527246342e-08 0.0000000000000000e+00  -8.4506957789141914e-09 -1.5257666445722166e-08 0.0000000000000000e+00  -7.2538616869672745e-09 -1.1019567863653401e-08 0.0000000000000000e+00  -6.2069126631398178e-09 -7.1024268859634019e-09 0.0000000000000000e+00  -5.5127457296199881e-09 -3.4714296332353731e-09 0.0000000000000000e+00  -5.2706711114117853e-09 -7.3258606496088127e-13 0.0000000000000000e+00  -5.5099364039143706e-09 3.4701462377051742e-09 0.0000000000000000e+00  -6.2012604423582547e-09 7.1017535226333173e-09 0.0000000000000000e+00  -7.2454720386733857e-09 1.1020062354775785e-08 0.0000000000000000e+00  -8.4401769316838480e-09 1.5259714818354526e-08 0.0000000000000000e+00  -9.4323287698948181e-09 1.9655851211330319e-08 0.0000000000000000e+00  -9.6907863910023614e-09 2.3649406598827898e-08 0.0000000000000000e+00  -8.5970393562618310e-09 2.6002252117026530e-08 0.0000000000000000e+00  -5.8327179566967296e-09 2.4576495102495354e-08 0.0000000000000000e+00  -2.2115907453160327e-09 1.6683985992499627e-08 0.0000000000000000e+00  8.3305320100613268e-11 6.7881013282967271e-10 0.0000000000000000e+00  1.0161751789314172e-10 -3.3080516832378209e-10 0.0000000000000000e+00  -1.7309825032707128e-09 -1.3573822168810459e-08 0.0000000000000000e+00  -5.0222043369109107e-09 -2.1064220471598974e-08 0.0000000000000000e+00  -8.3085319864618673e-09 -2.3540166897658781e-08 0.0000000000000000e+00  -1.0645078244698521e-08 -2.2539028900460103e-08 0.0000000000000000e+00  -1.1897525167182886e-08 -1.9581098456552191e-08 0.0000000000000000e+00  -1.2318178607834349e-08 -1.5753992754794925e-08 0.0000000000000000e+00  -1.2255558765485067e-08 -1.1688582280344614e-08 0.0000000000000000e+00  -1.2008205692572492e-08 -7.6757888388197806e-09 0.0000000000000000e+00  -1.1782439047858189e-08 -3.7932626870075633e-09 0.0000000000000000e+00  -1.1694331755245497e-08 -1.2563419828501569e-12 0.0000000000000000e+00  -1.1780935818335561e-08 3.7908659316330179e-09 0.0000000000000000e+00  -1.2005397286742889e-08 7.6737322756499109e-09 0.0000000000000000e+00  -1.2251902933541881e-08 1.1686976104669749e-08 0.0000000000000000e+00  -1.2314457414830331e-08 1.5752398721148081e-08 0.0000000000000000e+00  -1.1894794690329859e-08 1.9577524824005012e-08 0.0000000000000000e+00  -1.0644424789194686e-08 2.2528855261350427e-08 0.0000000000000000e+00  -8.3095993443668737e-09 2.3518267083758398e-08 0.0000000000000000e+00  -5.0257416738926415e-09 2.1037590901270294e-08 0.0000000000000000e+00  -1.7242023645998456e-09 1.3564585621971743e-08 0.0000000000000000e+00  9.5144029771440013e-11 4.5129430858775787e-10 0.0000000000000000e+00  9.2082722421008308e-11 -2.3315616227619074e-10 0.0000000000000000e+00  -1.3936878697721618e-09 -1.0963773639795812e-08 0.0000000000000000e+00  -4.3067415588076037e-09 -1.7612718265659244e-08 0.0000000000000000e+00  -7.6330858217987491e-09 -2.0452752642545745e-08 0.0000000000000000e+00  -1.0523661467387746e-08 -2.0338878973344560e-08 0.0000000000000000e+00  -1.2654420471230475e-08 -1.8282330563118469e-08 0.0000000000000000e+00  -1.4034219050705583e-08 -1.5135279378652046e-08 0.0000000000000000e+00  -1.4828905492241851e-08 -1.1483098235877023e-08 0.0000000000000000e+00  -1.5234090378864587e-08 -7.6617925983077699e-09 0.0000000000000000e+00  -1.5410191335345732e-08 -3.8226246511980727e-09 0.0000000000000000e+00  -1.5457492850364882e-08 -1.5888695088435329e-12 0.0000000000000000e+00  -1.5409747983681165e-08 3.8195081872049825e-09 0.0000000000000000e+00  -1.5233406972479667e-08 7.6588178775370609e-09 0.0000000000000000e+00  -1.4828373224344424e-08 1.1480163562228554e-08 0.0000000000000000e+00  -1.4034359833461682e-08 1.5131817634720308e-08 0.0000000000000000e+00  -1.2655773858471058e-08 1.8276989621070496e-08 0.0000000000000000e+00  -1.0526680383991204e-08 2.0329839657907393e-08 0.0000000000000000e+00  -7.6373652286246180e-09 2.0439987239175829e-08 0.0000000000000000e+00  -4.3125473003786609e-09 1.7602094581419602e-08 0.0000000000000000e+00  -1.3910288415121336e-09 1.0964203888068411e-08 0.0000000000000000e+00  9.1970919593103337e-11 3.1222262971008918e-10 0.0000000000000000e+00  8.1550429286092332e-11 -1.6640840281929264e-10 0.0000000000000000e+00  -1.1469301600548158e-09 -8.7760929270529917e-09 0.0000000000000000e+00  -3.6924563969087181e-09 -1.4446298228399287e-08 0.0000000000000000e+00  -6.8406649711206232e-09 -1.7238617435853297e-08 0.0000000000000000e+00  -9.8813342028665298e-09 -1.7623958437811190e-08 0.0000000000000000e+00  -1.2436872823758485e-08 -1.6256709813052316e-08 0.0000000000000000e+00  -1.4379599218213089e-08 -1.3763218391809324e-08 0.0000000000000000e+00  -1.5737583172367034e-08 -1.0631835267217528e-08 0.0000000000000000e+00  -1.6604436867052857e-08 -7.1873609125273983e-09 0.0000000000000000e+00  -1.7078330595307072e-08 -3.6145792176297892e-09 0.0000000000000000e+00  -1.7228222926265384e-08 -1.7446501198041536e-12 0.0000000000000000e+00  -1.7078550593606836e-08 3.6111185214396796e-09 0.0000000000000000e+00  -1.6605006924076835e-08 7.1839430911854634e-09 0.0000000000000000e+00  -1.5738730622447213e-08 1.0628330701115118e-08 0.0000000000000000e+00  -1.4381588112708090e-08 1.3759246653958811e-08 0.0000000000000000e+00  -1.2439925141167345e-08 1.6251672399417212e-08 0.0000000000000000e+00  -9.8855695335704469e-09 1.7617556512193524e-08 0.0000000000000000e+00  -6.8455741699050671e-09 1.7231929554608920e-08 0.0000000000000000e+00  -3.6978409364893745e-09 1.4442709070094740e-08 0.0000000000000000e+00  -1.1450992604518051e-09 8.7789705789265673e-09 0.0000000000000000e+00  8.4271144448928688e-11 2.2103282736598761e-10 0.0000000000000000e+00  7.1649693031341024e-11 -1.1879826117515518e-10 0.0000000000000000e+00  -9.5574038559153796e-10 -6.9286621166443209e-09 0.0000000000000000e+00  -3.1666265832373904e-09 -1.1612249903994159e-08 0.0000000000000000e+00  -6.0472536042359846e-09 -1.4135118340088139e-08 0.0000000000000000e+00  -9.0164810898218062e-09 -1.4750249169354197e-08 0.0000000000000000e+00  -1.1704078758004567e-08 -1.3874527883607420e-08 0.0000000000000000e+00  -1.3916629550378025e-08 -1.1951846128403118e-08 0.0000000000000000e+00  -1.5592351306260152e-08 -9.3648207438838726e-09 0.0000000000000000e+00  -1.6743879497527346e-08 -6.3977474957097345e-09 0.0000000000000000e+00  -1.7411023738642876e-08 -3.2383320693076745e-09 0.0000000000000000e+00  -1.7629064770321156e-08 -1.7691246385091800e-12 0.0000000000000000e+00  -1.7411564062155897e-08 3.2348113669369109e-09 0.0000000000000000e+00  -1.6745020192096099e-08 6.3942517872306690e-09 0.0000000000000000e+00  -1.5594187847738093e-08 9.3612810151942677e-09 0.0000000000000000e+00  -1.3919253450127850e-08 1.1948110125684328e-08 0.0000000000000000e+00  -1.1707526699382813e-08 1.3870478902979332e-08 0.0000000000000000e+00  -9.0206861715268711e-09 1.4746138052365007e-08 0.0000000000000000e+00  -6.0516587202555842e-09 1.4131898487634218e-08 0.0000000000000000e+00  -3.1709160880984232e-09 1.1611660911407963e-08 0.0000000000000000e+00  -9.5404593636687214e-10 6.9318755167056864e-09 0.0000000000000000e+00  7.5461652466302999e-11 1.5796841457189228e-10 0.0000000000000000e+00  6.2903105445507031e-11 -8.3866334762280481e-11 0.0000000000000000e+00  -8.0396150177977488e-10 -5.3600409347190909e-09 0.0000000000000000e+00  -2.7219258281416380e-09 -9.1067371674407970e-09 0.0000000000000000e+00  -5.3136828498062969e-09 -1.1250615372556196e-08 0.0000000000000000e+00  -8.1044145213372934e-09 -1.1920903061034312e-08 0.0000000000000000e+00  -1.0754002308316321e-08 -1.1379577255657217e-08 0.0000000000000000e+00  -1.3044215170381581e-08 -9.9334288408771215e-09 0.0000000000000000e+00  -1.4860638375325378e-08 -7.8695757868172647e-09 0.0000000000000000e+00  -1.6159324338975164e-08 -5.4207581584285958e-09 0.0000000000000000e+00  -1.6934073041752796e-08 -2.7578863679188517e-09 0.0000000000000000e+00  -1.7191265323228027e-08 -1.7106924045971615e-12 0.0000000000000000e+00  -1.6934700809830115e-08 2.7544862748442321e-09 0.0000000000000000e+00  -1.6160594885444126e-08 5.4174103119505421e-09 0.0000000000000000e+00  -1.4862567650526811e-08 7.8662872797790336e-09 0.0000000000000000e+00  -1.3046797296102586e-08 9.9302095478481823e-09 0.0000000000000000e+00  -1.0757176279456958e-08 1.1376533850638143e-08 0.0000000000000000e+00  -8.1080292521398740e-09 1.1918388006006039e-08 0.0000000000000000e+00  -5.3172261504737419e-09 1.1249261323869586e-08 0.0000000000000000e+00  -2.7251337927073462e-09 9.1074094635295769e-09 0.0000000000000000e+00  -8.0235422058089876e-10 5.3630586070599934e-09 0.0000000000000000e+00  6.6887565633025565e-11 1.1273323866386664e-10 0.0000000000000000e+00  5.5574859129226481e-11 -5.7656940000549321e-11 0.0000000000000000e+00  -6.8413640452765690e-10 -4.0186682892877253e-09 0.0000000000000000e+00  -2.3563069966856039e-09 -6.8993573006482309e-09 0.0000000000000000e+00  -4.6772137278958238e-09 -8.6183572218585251e-09 0.0000000000000000e+00  -7.2547845578721913e-09 -9.2359624333414870e-09 0.0000000000000000e+00  -9.7837040934039544e-09 -8.9138830360122050e-09 0.0000000000000000e+00  -1.2042088947877531e-08 -7.8589239770073899e-09 0.0000000000000000e+00  -1.3887842762456636e-08 -6.2783086000503819e-09 0.0000000000000000e+00  -1.5241020032626571e-08 -4.3519838328789558e-09 0.0000000000000000e+00  -1.6062992188485309e-08 -2.2228942990945053e-09 0.0000000000000000e+00  -1.6338431680795941e-08 -1.6117314944507020e-12 0.0000000000000000e+00  -1.6063571784735417e-08 2.2197024937342823e-09 0.0000000000000000e+00  -1.5242171604453071e-08 4.3488857462385134e-09 0.0000000000000000e+00  -1.3889543771574730e-08 6.2753703736280284e-09 0.0000000000000000e+00  -1.2044289309638902e-08 7.8562430388128486e-09 0.0000000000000000e+00  -9.7863057370873464e-09 8.9116388024090226e-09 0.0000000000000000e+00  -7.2576223401746014e-09 9.2344626650775450e-09 0.0000000000000000e+00  -4.6798730517371749e-09 8.6179843565429844e-09 0.0000000000000000e+00  -2.3586099610330545e-09 6.9005573689730744e-09 0.0000000000000000e+00  -6.8270522942069043e-10 4.0214231352846390e-09 0.0000000000000000e+00  5.9200696063490430e-11 7.9444471796738468e-11 0.0000000000000000e+00  4.9842433200904704e-11 -3.7469683401308327e-11 0.0000000000000000e+00  -5.9281065759790399e-10 -2.8572255788382656e-09 0.0000000000000000e+00  -2.0703134718050942e-09 -4.9439109988220154e-09 0.0000000000000000e+00  -4.1623911264223649e-09 -6.2259011802522397e-09 0.0000000000000000e+00  -6.5382805644668120e-09 -6.7271500886412107e-09 0.0000000000000000e+00  -8.9238498615290022e-09 -6.5444087098583023e-09 0.0000000000000000e+00  -1.1102725287346013e-08 -5.8117880374577934e-09 0.0000000000000000e+00  -1.2920140825538068e-08 -4.6713352169421796e-09 0.0000000000000000e+00  -1.4275078727280535e-08 -3.2531150538757123e-09 0.0000000000000000e+00  -1.5107995260737024e-08 -1.6665383084454743e-09 0.0000000000000000e+00  -1.5388801256217126e-08 -1.5052969999091104e-12 0.0000000000000000e+00  -1.5108457778753544e-08 1.6635703121937545e-09 0.0000000000000000e+00  -1.4275988499105965e-08 3.2502783038567267e-09 0.0000000000000000e+00  -1.2921463670745432e-08 4.6687322675761141e-09 0.0000000000000000e+00  -1.1104401510899812e-08 5.8095535307117698e-09 0.0000000000000000e+00  -8.9257832510744327e-09 6.5427289590174034e-09 0.0000000000000000e+00  -6.5403312398104855e-09 6.7262652530977454e-09 0.0000000000000000e+00  -4.1642564435598753e-09 6.2260409358082025e-09 0.0000000000000000e+00  -2.0718869772574646e-09 4.9453330512528875e-09 0.0000000000000000e+00  -5.9165288862649582e-10 2.8597685230240234e-09 0.0000000000000000e+00  5.2783823073759347e-11 5.4395179573706769e-11 0.0000000000000000e+00  4.5829381058190912e-11 -2.1269711050628406e-11 0.0000000000000000e+00  -5.2832595041384614e-10 -1.8300622481658489e-09 0.0000000000000000e+00  -1.8651465745541725e-09 -3.1842357846073410e-09 0.0000000000000000e+00  -3.7852652937150675e-09 -4.0324294978614335e-09 0.0000000000000000e+00  -6.0000907651885084e-09 -4.3816238877561073e-09 0.0000000000000000e+00  -8.2592816414988375e-09 -4.2857489109770553e-09 0.0000000000000000e+00  -1.0354137597397824e-