<?xml version="1.0"?>
<VTKFile type="UnstructuredGrid"  version="0.1"  >
<UnstructuredGrid>
<Piece  NumberOfPoints="651" NumberOfCells="1200">
<Points>
<DataArray  type="Float64"  NumberOfComponents="3"  format="ascii">0 0 0  50000 0 0  100000 0 0  150000 0 0  200000 0 0  250000 0 0  300000 0 0  350000 0 0  400000 0 0  450000 0 0  500000 0 0  550000 0 0  600000 0 0  650000 0 0  700000 0 0  750000 0 0  800000 0 0  850000 0 0  900000 0 0  950000 0 0  1000000 0 0  0 50000 0  50000 50000 0  100000 50000 0  150000 50000 0  200000 50000 0  250000 50000 0  300000 50000 0  350000 50000 0  400000 50000 0  450000 50000 0  500000 50000 0  550000 50000 0  600000 50000 0  650000 50000 0  700000 50000 0  750000 50000 0  800000 50000 0  850000 50000 0  900000 50000 0  950000 50000 0  1000000 50000 0  0 100000 0  50000 100000 0  100000 100000 0  150000 100000 0  200000 100000 0  250000 100000 0  300000 100000 0  350000 100000 0  400000 100000 0  450000 100000 0  500000 100000 0  550000 100000 0  600000 100000 0  650000 100000 0  700000 100000 0  750000 100000 0  800000 100000 0  850000 100000 0  900000 100000 0  950000 100000 0  1000000 100000 0  0 150000 0  50000 150000 0  100000 150000 0  150000 150000 0  200000 150000 0  250000 150000 0  300000 150000 0  350000 150000 0  400000 150000 0  450000 150000 0  500000 150000 0  550000 150000 0  600000 150000 0  650000 150000 0  700000 150000 0  750000 150000 0  800000 150000 0  850000 150000 0  900000 150000 0  950000 150000 0  1000000 150000 0  0 200000 0  50000 200000 0  100000 200000 0  150000 200000 0  200000 200000 0  250000 200000 0  300000 200000 0  350000 200000 0  400000 200000 0  450000 200000 0  500000 200000 0  550000 200000 0  600000 200000 0  650000 200000 0  700000 200000 0  750000 200000 0  800000 200000 0  850000 200000 0  900000 200000 0  950000 200000 0  1000000 200000 0  0 250000 0  50000 250000 0  100000 250000 0  150000 250000 0  200000 250000 0  250000 250000 0  300000 250000 0  350000 250000 0  400000 250000 0  450000 250000 0  500000 250000 0  550000 250000 0  600000 250000 0  650000 250000 0  700000 250000 0  750000 250000 0  800000 250000 0  850000 250000 0  900000 250000 0  950000 250000 0  1000000 250000 0  0 300000 0  50000 300000 0  100000 300000 0  150000 300000 0  200000 300000 0  250000 300000 0  300000 300000 0  350000 300000 0  400000 300000 0  450000 300000 0  500000 300000 0  550000 300000 0  600000 300000 0  650000 300000 0  700000 300000 0  750000 300000 0  800000 300000 0  850000 300000 0  900000 300000 0  950000 300000 0  1000000 300000 0  0 350000 0  50000 350000 0  100000 350000 0  150000 350000 0  200000 350000 0  250000 350000 0  300000 350000 0  350000 350000 0  400000 350000 0  450000 350000 0  500000 350000 0  550000 350000 0  600000 350000 0  650000 350000 0  700000 350000 0  750000 350000 0  800000 350000 0  850000 350000 0  900000 350000 0  950000 350000 0  1000000 350000 0  0 400000 0  50000 400000 0  100000 400000 0  150000 400000 0  200000 400000 0  250000 400000 0  300000 400000 0  350000 400000 0  400000 400000 0  450000 400000 0  500000 400000 0  550000 400000 0  600000 400000 0  650000 400000 0  700000 400000 0  750000 400000 0  800000 400000 0  850000 400000 0  900000 400000 0  950000 400000 0  1000000 400000 0  0 450000 0  50000 450000 0  100000 450000 0  150000 450000 0  200000 450000 0  250000 450000 0  300000 450000 0  350000 450000 0  400000 450000 0  450000 450000 0  500000 450000 0  550000 450000 0  600000 450000 0  650000 450000 0  700000 450000 0  750000 450000 0  800000 450000 0  850000 450000 0  900000 450000 0  950000 450000 0  1000000 450000 0  0 500000 0  50000 500000 0  100000 500000 0  150000 500000 0  200000 500000 0  250000 500000 0  300000 500000 0  350000 500000 0  400000 500000 0  450000 500000 0  500000 500000 0  550000 500000 0  600000 500000 0  650000 500000 0  700000 500000 0  750000 500000 0  800000 500000 0  850000 500000 0  900000 500000 0  950000 500000 0  1000000 500000 0  0 550000 0  50000 550000 0  100000 550000 0  150000 550000 0  200000 550000 0  250000 550000 0  300000 550000 0  350000 550000 0  400000 550000 0  450000 550000 0  500000 550000 0  550000 550000 0  600000 550000 0  650000 550000 0  700000 550000 0  750000 550000 0  800000 550000 0  850000 550000 0  900000 550000 0  950000 550000 0  1000000 550000 0  0 600000 0  50000 600000 0  100000 600000 0  150000 600000 0  200000 600000 0  250000 600000 0  300000 600000 0  350000 600000 0  400000 600000 0  450000 600000 0  500000 600000 0  550000 600000 0  600000 600000 0  650000 600000 0  700000 600000 0  750000 600000 0  800000 600000 0  850000 600000 0  900000 600000 0  950000 600000 0  1000000 600000 0  0 650000 0  50000 650000 0  100000 650000 0  150000 650000 0  200000 650000 0  250000 650000 0  300000 650000 0  350000 650000 0  400000 650000 0  450000 650000 0  500000 650000 0  550000 650000 0  600000 650000 0  650000 650000 0  700000 650000 0  750000 650000 0  800000 650000 0  850000 650000 0  900000 650000 0  950000 650000 0  1000000 650000 0  0 700000 0  50000 700000 0  100000 700000 0  150000 700000 0  200000 700000 0  250000 700000 0  300000 700000 0  350000 700000 0  400000 700000 0  450000 700000 0  500000 700000 0  550000 700000 0  600000 700000 0  650000 700000 0  700000 700000 0  750000 700000 0  800000 700000 0  850000 700000 0  900000 700000 0  950000 700000 0  1000000 700000 0  0 750000 0  50000 750000 0  100000 750000 0  150000 750000 0  200000 750000 0  250000 750000 0  300000 750000 0  350000 750000 0  400000 750000 0  450000 750000 0  500000 750000 0  550000 750000 0  600000 750000 0  650000 750000 0  700000 750000 0  750000 750000 0  800000 750000 0  850000 750000 0  900000 750000 0  950000 750000 0  1000000 750000 0  0 800000 0  50000 800000 0  100000 800000 0  150000 800000 0  200000 800000 0  250000 800000 0  300000 800000 0  350000 800000 0  400000 800000 0  450000 800000 0  500000 800000 0  550000 800000 0  600000 800000 0  650000 800000 0  700000 800000 0  750000 800000 0  800000 800000 0  850000 800000 0  900000 800000 0  950000 800000 0  1000000 800000 0  0 850000 0  50000 850000 0  100000 850000 0  150000 850000 0  200000 850000 0  250000 850000 0  300000 850000 0  350000 850000 0  400000 850000 0  450000 850000 0  500000 850000 0  550000 850000 0  600000 850000 0  650000 850000 0  700000 850000 0  750000 850000 0  800000 850000 0  850000 850000 0  900000 850000 0  950000 850000 0  1000000 850000 0  0 900000 0  50000 900000 0  100000 900000 0  150000 900000 0  200000 900000 0  250000 900000 0  300000 900000 0  350000 900000 0  400000 900000 0  450000 900000 0  500000 900000 0  550000 900000 0  600000 900000 0  650000 900000 0  700000 900000 0  750000 900000 0  800000 900000 0  850000 900000 0  900000 900000 0  950000 900000 0  1000000 900000 0  0 950000 0  50000 950000 0  100000 950000 0  150000 950000 0  200000 950000 0  250000 950000 0  300000 950000 0  350000 950000 0  400000 950000 0  450000 950000 0  500000 950000 0  550000 950000 0  600000 950000 0  650000 950000 0  700000 950000 0  750000 950000 0  800000 950000 0  850000 950000 0  900000 950000 0  950000 950000 0  1000000 950000 0  0 1000000 0  50000 1000000 0  100000 1000000 0  150000 1000000 0  200000 1000000 0  250000 1000000 0  300000 1000000 0  350000 1000000 0  400000 1000000 0  450000 1000000 0  500000 1000000 0  550000 1000000 0  600000 1000000 0  650000 1000000 0  700000 1000000 0  750000 1000000 0  800000 1000000 0  850000 1000000 0  900000 1000000 0  950000 1000000 0  1000000 1000000 0  0 1050000 0  50000 1050000 0  100000 1050000 0  150000 1050000 0  200000 1050000 0  250000 1050000 0  300000 1050000 0  350000 1050000 0  400000 1050000 0  450000 1050000 0  500000 1050000 0  550000 1050000 0  600000 1050000 0  650000 1050000 0  700000 1050000 0  750000 1050000 0  800000 1050000 0  850000 1050000 0  900000 1050000 0  950000 1050000 0  1000000 1050000 0  0 1100000 0  50000 1100000 0  100000 1100000 0  150000 1100000 0  200000 1100000 0  250000 1100000 0  300000 1100000 0  350000 1100000 0  400000 1100000 0  450000 1100000 0  500000 1100000 0  550000 1100000 0  600000 1100000 0  650000 1100000 0  700000 1100000 0  750000 1100000 0  800000 1100000 0  850000 1100000 0  900000 1100000 0  950000 1100000 0  1000000 1100000 0  0 1150000 0  50000 1150000 0  100000 1150000 0  150000 1150000 0  200000 1150000 0  250000 1150000 0  300000 1150000 0  350000 1150000 0  400000 1150000 0  450000 1150000 0  500000 1150000 0  550000 1150000 0  600000 1150000 0  650000 1150000 0  700000 1150000 0  750000 1150000 0  800000 1150000 0  850000 1150000 0  900000 1150000 0  950000 1150000 0  1000000 1150000 0  0 1200000 0  50000 1200000 0  100000 1200000 0  150000 1200000 0  200000 1200000 0  250000 1200000 0  300000 1200000 0  350000 1200000 0  400000 1200000 0  450000 1200000 0  500000 1200000 0  550000 1200000 0  600000 1200000 0  650000 1200000 0  700000 1200000 0  750000 1200000 0  800000 1200000 0  850000 1200000 0  900000 1200000 0  950000 1200000 0  1000000 1200000 0  0 1250000 0  50000 1250000 0  100000 1250000 0  150000 1250000 0  200000 1250000 0  250000 1250000 0  300000 1250000 0  350000 1250000 0  400000 1250000 0  450000 1250000 0  500000 1250000 0  550000 1250000 0  600000 1250000 0  650000 1250000 0  700000 1250000 0  750000 1250000 0  800000 1250000 0  850000 1250000 0  900000 1250000 0  950000 1250000 0  1000000 1250000 0  0 1300000 0  50000 1300000 0  100000 1300000 0  150000 1300000 0  200000 1300000 0  250000 1300000 0  300000 1300000 0  350000 1300000 0  400000 1300000 0  450000 1300000 0  500000 1300000 0  550000 1300000 0  600000 1300000 0  650000 1300000 0  700000 1300000 0  750000 1300000 0  800000 1300000 0  850000 1300000 0  900000 1300000 0  950000 1300000 0  1000000 1300000 0  0 1350000 0  50000 1350000 0  100000 1350000 0  150000 1350000 0  200000 1350000 0  250000 1350000 0  300000 1350000 0  350000 1350000 0  400000 1350000 0  450000 1350000 0  500000 1350000 0  550000 1350000 0  600000 1350000 0  650000 1350000 0  700000 135
[...]
<PointData  Vectors="f_10477"> 
<DataArray  type="Float64"  Name="f_10477"  NumberOfComponents="3" format="ascii">-5.7473651848429343e-09 -3.2007072233411618e-09 0.0000000000000000e+00  7.5362258054624076e-08 -2.0802397343995603e-09 0.0000000000000000e+00  7.8206738146705692e-08 -5.1452063136311748e-11 0.0000000000000000e+00  7.9063517051572019e-08 2.9028136888528919e-10 0.0000000000000000e+00  7.9485308935716866e-08 2.5608935874019243e-10 0.0000000000000000e+00  7.9688408983902026e-08 1.8549671979963822e-10 0.0000000000000000e+00  7.9793312228281400e-08 1.2741204277091150e-10 0.0000000000000000e+00  7.9850389949948058e-08 8.3326661318784399e-11 0.0000000000000000e+00  7.9881048729617810e-08 4.8615523313908680e-11 0.0000000000000000e+00  7.9894812225163971e-08 1.9194451251381566e-11 0.0000000000000000e+00  7.9895480518719386e-08 -8.0861162658257941e-12 0.0000000000000000e+00  7.9883242949378713e-08 -3.5911493354995841e-11 0.0000000000000000e+00  7.9854805795780483e-08 -6.6981566512494350e-11 0.0000000000000000e+00  7.9801697273952652e-08 -1.0444131542129045e-10 0.0000000000000000e+00  7.9705190199859064e-08 -1.5220108696303380e-10 0.0000000000000000e+00  7.9522422541834057e-08 -2.1442949989888169e-10 0.0000000000000000e+00  7.9152720419880794e-08 -2.8848791980240376e-10 0.0000000000000000e+00  7.8402600045000143e-08 -2.9313762667068455e-10 0.0000000000000000e+00  7.6870919613515888e-08 5.7281701664100994e-10 0.0000000000000000e+00  7.2835108801576538e-08 4.7944251732856608e-09 0.0000000000000000e+00  -8.0544060085213393e-09 4.9684055517022381e-09 0.0000000000000000e+00  -4.0282625803346519e-09 -3.5735484812880788e-09 0.0000000000000000e+00  -1.1557642648906639e-09 -2.3576003650953869e-08 0.0000000000000000e+00  1.7264193976688602e-08 -1.4064331553515382e-08 0.0000000000000000e+00  3.1863905388717620e-08 -7.8370019139902942e-09 0.0000000000000000e+00  4.1295840273958417e-08 -4.6267797635477501e-09 0.0000000000000000e+00  4.7422708223101140e-08 -2.8963577182344449e-09 0.0000000000000000e+00  5.1477794484400811e-08 -1.8721034746089661e-09 0.0000000000000000e+00  5.4158283503416696e-08 -1.2030146601154480e-09 0.0000000000000000e+00  5.5860037959560646e-08 -7.2244782426310569e-10 0.0000000000000000e+00  5.6805546279835400e-08 -3.4124556210172491e-10 0.0000000000000000e+00  5.7108729925391848e-08 -3.5337384242642925e-12 0.0000000000000000e+00  5.6804689836932207e-08 3.3383756317484047e-10 0.0000000000000000e+00  5.5858356268394715e-08 7.1391254187353846e-10 0.0000000000000000e+00  5.4156162156068816e-08 1.1921242812170882e-09 0.0000000000000000e+00  5.1477290361317076e-08 1.8562379907890035e-09 0.0000000000000000e+00  4.7432186626083011e-08 2.8687361636827388e-09 0.0000000000000000e+00  4.1344605122762285e-08 4.5740736193271052e-09 0.0000000000000000e+00  3.2060529142656088e-08 7.7984397663736499e-09 0.0000000000000000e+00  1.7985584990691167e-08 1.4457592964754096e-08 0.0000000000000000e+00  -7.5468173843629161e-11 2.5283385969822459e-08 0.0000000000000000e+00  -6.6042814298617101e-09 5.2262660489808262e-09 0.0000000000000000e+00  -1.1707467987397735e-09 -1.9717460535364411e-09 0.0000000000000000e+00  -6.5251802032815480e-09 -2.9751536550696325e-08 0.0000000000000000e+00  -2.6535363770712569e-09 -2.6183218134317247e-08 0.0000000000000000e+00  6.4225032850911344e-09 -1.8679173690122837e-08 0.0000000000000000e+00  1.5554626121089447e-08 -1.2776900751385971e-08 0.0000000000000000e+00  2.2917386176457685e-08 -8.7219258448485828e-09 0.0000000000000000e+00  2.8404697988156661e-08 -5.9317645365310876e-09 0.0000000000000000e+00  3.2297575791734311e-08 -3.9289590619977603e-09 0.0000000000000000e+00  3.4877293376851463e-08 -2.3998779044482654e-09 0.0000000000000000e+00  3.6346922190667463e-08 -1.1389707201357845e-09 0.0000000000000000e+00  3.6824575270905483e-08 5.6434139575105309e-13 0.0000000000000000e+00  3.6348929575085738e-08 1.1403200265237801e-09 0.0000000000000000e+00  3.4882187948288342e-08 2.4019835390229579e-09 0.0000000000000000e+00  3.2307795417988119e-08 3.9327195571584288e-09 0.0000000000000000e+00  2.8426206411823583e-08 5.9391793379055619e-09 0.0000000000000000e+00  2.2964830888588969e-08 8.7392572100430238e-09 0.0000000000000000e+00  1.5663314889234121e-08 1.2827157031652607e-08 0.0000000000000000e+00  6.6436736703735032e-09 1.8819900858401950e-08 0.0000000000000000e+00  -2.3723843052896729e-09 2.6405122007686000e-08 0.0000000000000000e+00  -6.0857620743143629e-09 2.8877495822810641e-08 0.0000000000000000e+00  -2.0196563580060790e-09 2.5419412477776205e-09 0.0000000000000000e+00  -1.5873110220838947e-10 -1.0663637243765159e-09 0.0000000000000000e+00  -4.4479584144632740e-09 -2.5400549530698768e-08 0.0000000000000000e+00  -6.4645528362862736e-09 -2.9723895677414773e-08 0.0000000000000000e+00  -3.9144753936913529e-09 -2.5576863722650014e-08 0.0000000000000000e+00  1.1829025515991836e-09 -1.9813691876995456e-08 0.0000000000000000e+00  6.6554042087763711e-09 -1.4657352290468863e-08 0.0000000000000000e+00  1.1437788705231641e-08 -1.0498801688778233e-08 0.0000000000000000e+00  1.5168870536855861e-08 -7.1892884025026134e-09 0.0000000000000000e+00  1.7789241126212563e-08 -4.4831017527969207e-09 0.0000000000000000e+00  1.9333512387573540e-08 -2.1523644493138073e-09 0.0000000000000000e+00  1.9843844008976232e-08 -2.1302733559192450e-13 0.0000000000000000e+00  1.9337339176778279e-08 2.1521297336839997e-09 0.0000000000000000e+00  1.7797885364172361e-08 4.4835758622057078e-09 0.0000000000000000e+00  1.5184685216566782e-08 7.1915361534084666e-09 0.0000000000000000e+00  1.1465236402679049e-08 1.0505465910435423e-08 0.0000000000000000e+00  6.7011238521028334e-09 1.4675188995552764e-08 0.0000000000000000e+00  1.2485742533232408e-09 1.9856365280754109e-08 0.0000000000000000e+00  -3.8465603076492535e-09 2.5642671556927039e-08 0.0000000000000000e+00  -6.4108501792593317e-09 2.9655932511872217e-08 0.0000000000000000e+00  -4.2243282862433535e-09 2.4991370357217363e-08 0.0000000000000000e+00  -2.6582783290511498e-10 1.5198281952054012e-09 0.0000000000000000e+00  6.1182966182857330e-11 -6.5869881262493348e-10 0.0000000000000000e+00  -2.9641394090210265e-09 -2.0823882437282275e-08 0.0000000000000000e+00  -6.3753860265132047e-09 -2.8390935615708278e-08 0.0000000000000000e+00  -7.3718919833450799e-09 -2.7792778963990894e-08 0.0000000000000000e+00  -5.8781626116033616e-09 -2.3725869349944920e-08 0.0000000000000000e+00  -3.0784328457127020e-09 -1.8824148598372097e-08 0.0000000000000000e+00  -8.5879066011787545e-12 -1.4160838992569938e-08 0.0000000000000000e+00  2.7116253687358095e-09 -1.0025175110327515e-08 0.0000000000000000e+00  4.7736290640925457e-09 -6.3867295145207985e-09 0.0000000000000000e+00  6.0436989733656688e-09 -3.1033243238747226e-09 0.0000000000000000e+00  6.4722348093481860e-09 -6.6459071489811969e-13 0.0000000000000000e+00  6.0474621534199745e-09 3.1022201063089434e-09 0.0000000000000000e+00  4.7816241059910528e-09 6.3864452442250631e-09 0.0000000000000000e+00  2.7247056081125334e-09 1.0026805072714769e-08 0.0000000000000000e+00  1.0353594785834478e-11 1.4166373285393695e-08 0.0000000000000000e+00  -3.0541676979209019e-09 1.8835815029807084e-08 0.0000000000000000e+00  -5.8516056224303060e-09 2.3739808663868473e-08 0.0000000000000000e+00  -7.3488312210221725e-09 2.7781554981227520e-08 0.0000000000000000e+00  -6.3516978511894791e-09 2.8290772067941924e-08 0.0000000000000000e+00  -2.8858403133320076e-09 2.0689923438451032e-08 0.0000000000000000e+00  1.9627139874207573e-11 9.5838883896228542e-10 0.0000000000000000e+00  9.3670124448051263e-11 -4.3350199643519693e-10 0.0000000000000000e+00  -2.1416763808741521e-09 -1.7091827978094987e-08 0.0000000000000000e+00  -5.5886496899047731e-09 -2.5371381292072136e-08 0.0000000000000000e+00  -8.1354844073123629e-09 -2.7033377941934174e-08 0.0000000000000000e+00  -8.9704910958200409e-09 -2.4803400253265845e-08 0.0000000000000000e+00  -8.4361179764097203e-09 -2.0831317865096092e-08 0.0000000000000000e+00  -7.1743113577034166e-09 -1.6352781327353270e-08 0.0000000000000000e+00  -5.7407317971440891e-09 -1.1934535808660033e-08 0.0000000000000000e+00  -4.5093920936738552e-09 -7.7587207350687858e-09 0.0000000000000000e+00  -3.6983116681656757e-09 -3.8140330455538472e-09 0.0000000000000000e+00  -3.4162393854823574e-09 -1.3208709496757484e-12 0.0000000000000000e+00  -3.6956519387384947e-09 3.8115864148872949e-09 0.0000000000000000e+00  -4.5041012926313686e-09 7.7569351702174783e-09 0.0000000000000000e+00  -5.7330319932452276e-09 1.1934050547504649e-08 0.0000000000000000e+00  -7.1649448921679204e-09 1.6354179450141875e-08 0.0000000000000000e+00  -8.4266906706565575e-09 2.0833713162656360e-08 0.0000000000000000e+00  -8.9630152978873117e-09 2.4800299081490098e-08 0.0000000000000000e+00  -8.1293902845039209e-09 2.7008038471474677e-08 0.0000000000000000e+00  -5.5830952839258922e-09 2.5318066029487182e-08 0.0000000000000000e+00  -2.1198145533719589e-09 1.7056210115428278e-08 0.0000000000000000e+00  7.4945704652644843e-11 6.0724310286410255e-10 0.0000000000000000e+00  9.1385976124160596e-11 -3.0025943810221420e-10 0.0000000000000000e+00  -1.6580536182102004e-09 -1.4060847128241296e-08 0.0000000000000000e+00  -4.8179261872884146e-09 -2.1981031141202712e-08 0.0000000000000000e+00  -7.9248059174498391e-09 -2.4765040711240423e-08 0.0000000000000000e+00  -1.0054421066367915e-08 -2.3934570133615938e-08 0.0000000000000000e+00  -1.1090971312066048e-08 -2.1007104995194942e-08 0.0000000000000000e+00  -1.1304495660754694e-08 -1.7077890498809802e-08 0.0000000000000000e+00  -1.1060545249125694e-08 -1.2793643483018339e-08 0.0000000000000000e+00  -1.0672304120325645e-08 -8.4679432006541280e-09 0.0000000000000000e+00  -1.0357324040255360e-08 -4.2065787406025290e-09 0.0000000000000000e+00  -1.0238734865966307e-08 -1.7706371300552919e-12 0.0000000000000000e+00  -1.0356004796915554e-08 4.2031923572760219e-09 0.0000000000000000e+00  -1.0669893298887874e-08 8.4650255007480077e-09 0.0000000000000000e+00  -1.1057543896667429e-08 1.2791433469587467e-08 0.0000000000000000e+00  -1.1301698476858665e-08 1.7076154326920714e-08 0.0000000000000000e+00  -1.1089328472732433e-08 2.1004162806129951e-08 0.0000000000000000e+00  -1.0054754638457621e-08 2.3926207703311194e-08 0.0000000000000000e+00  -7.9262697622047771e-09 2.4746353497788841e-08 0.0000000000000000e+00  -4.8213018053823080e-09 2.1958473641777904e-08 0.0000000000000000e+00  -1.6523680496376766e-09 1.4054682379413220e-08 0.0000000000000000e+00  8.4727504825684690e-11 4.0610601526596797e-10 0.0000000000000000e+00  8.3496263449146862e-11 -2.1499016342081384e-10 0.0000000000000000e+00  -1.3451388372664778e-09 -1.1541327407576676e-08 0.0000000000000000e+00  -4.1723209112960841e-09 -1.8665421253092893e-08 0.0000000000000000e+00  -7.3836678376071877e-09 -2.1840191743452299e-08 0.0000000000000000e+00  -1.0145077601639549e-08 -2.1909418395624786e-08 0.0000000000000000e+00  -1.2143991204150599e-08 -1.9881995332220362e-08 0.0000000000000000e+00  -1.3399074018483586e-08 -1.6617887746664719e-08 0.0000000000000000e+00  -1.4085474647530560e-08 -1.2719460742853072e-08 0.0000000000000000e+00  -1.4406912390860150e-08 -8.5475719094583858e-09 0.0000000000000000e+00  -1.4530121867182498e-08 -4.2846002753450182e-09 0.0000000000000000e+00  -1.4559395905094515e-08 -2.0112462834867715e-12 0.0000000000000000e+00  -1.4529863585868956e-08 4.2806913627535977e-09 0.0000000000000000e+00  -1.4406604077204414e-08 8.5439685926268629e-09 0.0000000000000000e+00  -1.4085503374975429e-08 1.2716193568273435e-08 0.0000000000000000e+00  -1.3399919037657454e-08 1.6614551651347881e-08 0.0000000000000000e+00  -1.2146066504432474e-08 1.9877416252793612e-08 0.0000000000000000e+00  -1.0148638167640882e-08 2.1901914954057849e-08 0.0000000000000000e+00  -7.3880589234422103e-09 2.1829668436377475e-08 0.0000000000000000e+00  -4.1778859424614559e-09 1.8657210688649665e-08 0.0000000000000000e+00  -1.3433445413315356e-09 1.1543218582925892e-08 0.0000000000000000e+00  8.2363308592188963e-11 2.8424649315906568e-10 0.0000000000000000e+00  7.5362403515714693e-11 -1.5645878280461079e-10 0.0000000000000000e+00  -1.1246687369051705e-09 -9.4035705770183813e-09 0.0000000000000000e+00  -3.6401481270155144e-09 -1.5570815012773027e-08 0.0000000000000000e+00  -6.7516058887585914e-09 -1.8708270928817080e-08 0.0000000000000000e+00  -9.7547641008099500e-09 -1.9279684311232684e-08 0.0000000000000000e+00  -1.2275238896711634e-08 -1.7938632318298472e-08 0.0000000000000000e+00  -1.4186810892979243e-08 -1.5319711266321262e-08 0.0000000000000000e+00  -1.5518838237386925e-08 -1.1928694457561832e-08 0.0000000000000000e+00  -1.6366121565436041e-08 -8.1160204325198394e-09 0.0000000000000000e+00  -1.6827846700594444e-08 -4.0987539115234351e-09 0.0000000000000000e+00  -1.6973659153891352e-08 -2.0733200726127115e-12 0.0000000000000000e+00  -1.6828236750051737e-08 4.0946909525016121e-09 0.0000000000000000e+00  -1.6367022010056618e-08 8.1121670777950929e-09 0.0000000000000000e+00  -1.5520447946569258e-08 1.1925035338998021e-08 0.0000000000000000e+00  -1.4189331513643052e-08 1.5315976680722778e-08 0.0000000000000000e+00  -1.2278779610347478e-08 1.7934307130059966e-08 0.0000000000000000e+00  -9.7593025185647557e-09 1.9274476392298512e-08 0.0000000000000000e+00  -6.7564909667772482e-09 1.8703099710703015e-08 0.0000000000000000e+00  -3.6452812051606099e-09 1.5568639458395139e-08 0.0000000000000000e+00  -1.1236744166810236e-09 9.4071151954151726e-09 0.0000000000000000e+00  7.6629057559718291e-11 2.0449535389820776e-10 0.0000000000000000e+00  6.7998673993808574e-11 -1.1415848113219877e-10 0.0000000000000000e+00  -9.5932413171664559e-10 -7.5619986789623549e-09 0.0000000000000000e+00  -3.1981032520810447e-09 -1.2737055160630843e-08 0.0000000000000000e+00  -6.1236448636802522e-09 -1.5597892116767956e-08 0.0000000000000000e+00  -9.1504396856377875e-09 -1.6393112121079395e-08 0.0000000000000000e+00  -1.1902521654384725e-08 -1.5540174030466092e-08 0.0000000000000000e+00  -1.4179488628322978e-08 -1.3491486632465034e-08 0.0000000000000000e+00  -1.5912979200931242e-08 -1.0646759223109079e-08 0.0000000000000000e+00  -1.7110035101116858e-08 -7.3153546019647328e-09 0.0000000000000000e+00  -1.7806261408172890e-08 -3.7166158318000031e-09 0.0000000000000000e+00  -1.8034340223296871e-08 -2.0122758670723960e-12 0.0000000000000000e+00  -1.7806950725718787e-08 3.7126597363534177e-09 0.0000000000000000e+00  -1.7111457308903877e-08 7.3115737684169995e-09 0.0000000000000000e+00  -1.5915192304856378e-08 1.0643174820997848e-08 0.0000000000000000e+00  -1.4182519650020832e-08 1.3488015194772359e-08 0.0000000000000000e+00  -1.1906312496546190e-08 1.5536724027080934e-08 0.0000000000000000e+00  -9.1548209817112111e-09 1.6389883263459403e-08 0.0000000000000000e+00  -6.1279784933202908e-09 1.5595667719894413e-08 0.0000000000000000e+00  -3.2021820741939291e-09 1.2737251154142066e-08 0.0000000000000000e+00  -9.5843896554033101e-10 7.5654351584977397e-09 0.0000000000000000e+00  7.0230613360393699e-11 1.4902078661718858e-10 0.0000000000000000e+00  6.1617736898316285e-11 -8.2433521852275272e-11 0.0000000000000000e+00  -8.3087854201577136e-10 -5.9566756689813185e-09 0.0000000000000000e+00  -2.8306865088029628e-09 -1.0161414991896365e-08 0.0000000000000000e+00  -5.5441253294026437e-09 -1.2618486523052982e-08 0.0000000000000000e+00  -8.4819818770965123e-09 -1.3454345647909908e-08 0.0000000000000000e+00  -1.1289694822168736e-08 -1.2932368426270311e-08 0.0000000000000000e+00  -1.3734017754258659e-08 -1.1367620408943231e-08 0.0000000000000000e+00  -1.5686634844912750e-08 -9.0631382113138398e-09 0.0000000000000000e+00  -1.7091745119358734e-08 -6.2748593291081133e-09 0.0000000000000000e+00  -1.7934134132045941e-08 -3.2029814402464480e-09 0.0000000000000000e+00  -1.8214554492952186e-08 -1.8807183429823269e-12 0.0000000000000000e+00  -1.7934888243489671e-08 3.1992846705809613e-09 0.0000000000000000e+00  -1.7093250211439170e-08 6.2713402355717025e-09 0.0000000000000000e+00  -1.5688869017968951e-08 9.0598707888449879e-09 0.0000000000000000e+00  -1.3736916576110083e-08 1.1364652934690337e-08 0.0000000000000000e+00  -1.1293120384931310e-08 1.2929800028765232e-08 0.0000000000000000e+00  -8.4857087600602431e-09 1.3452456282437293e-08 0.0000000000000000e+00  -5.5475959157769553e-09 1.2617754591885648e-08 0.0000000000000000e+00  -2.8337397233139665e-09 1.0162459568362445e-08 0.0000000000000000e+00  -8.3000361353381616e-10 5.9596468136081336e-09 0.0000000000000000e+00  6.4105836960181328e-11 1.0865003520697303e-10 0.0000000000000000e+00  5.6305803108304643e-11 -5.7915198420681402e-11 0.0000000000000000e+00  -7.3050019435565034e-10 -4.5410961325581523e-09 0.0000000000000000e+00  -2.5304931344836325e-09 -7.8208320995241334e-09 0.0000000000000000e+00  -5.0392313002622623e-09 -9.8119121342587328e-09 0.0000000000000000e+00  -7.8415200346770466e-09 -1.0572690741867183e-08 0.0000000000000000e+00  -1.0609875147226878e-08 -1.0266532734485115e-08 0.0000000000000000e+00  -1.3100293559801653e-08 -9.1076724094679616e-09 0.0000000000000000e+00  -1.5150367719719823e-08 -7.3172311291822218e-09 0.0000000000000000e+00  -1.6662856638701077e-08 -5.0952901792433842e-09 0.0000000000000000e+00  -1.7585949302835388e-08 -2.6102002389670654e-09 0.0000000000000000e+00  -1.7896067553132120e-08 -1.7223255160244335e-12 0.0000000000000000e+00  -1.7586632035375586e-08 2.6068222840530743e-09 0.0000000000000000e+00  -1.6664197703001588e-08 5.0921054104759677e-09 0.0000000000000000e+00  -1.5152311003358422e-08 7.3143528178360250e-09 0.0000000000000000e+00  -1.3102739945247320e-08 9.1052154395523494e-09 0.0000000000000000e+00  -1.0612666405731715e-08 1.0264651628780028e-08 0.0000000000000000e+00  -7.8444374281406574e-09 1.0571616252914711e-08 0.0000000000000000e+00  -5.0418347683761904e-09 9.8118942030318219e-09 0.0000000000000000e+00  -2.5326927254703050e-09 7.8221282379325888e-09 0.0000000000000000e+00  -7.2968072194260359e-10 4.5436383437331992e-09 0.0000000000000000e+00  5.8650521481469803e-11 7.8249462093400777e-11 0.0000000000000000e+00  5.2143664235562500e-11 -3.8363830519087311e-11 0.0000000000000000e+00  -6.5410601552787726e-10 -3.2750574308530155e-09 0.0000000000000000e+00  -2.2953758758270556e-09 -5.6802771185470363e-09 0.0000000000000000e+00  -4.6276057359611876e-09 -7.1792177174793480e-09 0.0000000000000000e+00  -7.2900081858119802e-09 -7.7943708173418987e-09 0.0000000000000000e+00  -9.9800214510606193e-09 -7.6239783750511018e-09 0.0000000000000000e+00  -1.2453358408519988e-08 -6.8081932747305919e-09 0.0000000000000000e+00  -1.4529729864720183e-08 -5.5001851391310725e-09 0.0000000000000000e+00  -1.6086415169102140e-08 -3.8460644977732919e-09 0.0000000000000000e+00  -1.7047321862261035e-08 -1.9754750578013703e-09 0.0000000000000000e+00  -1.7371995388218315e-08 -1.5701896939966761e-12 0.0000000000000000e+00  -1.7047863453611893e-08 1.9724047587451927e-09 0.0000000000000000e+00  -1.6087469412073976e-08 3.8432020386680284e-09 0.0000000000000000e+00  -1.4531235829370987e-08 5.4976647790830951e-09 0.0000000000000000e+00  -1.2455218605279609e-08 6.8061531434270474e-09 0.0000000000000000e+00  -9.9820952115579186e-09 7.6225711569745218e-09 0.0000000000000000e+00  -7.2921181706879042e-09 7.7937619766380840e-09 0.0000000000000000e+00  -4.6294348599124710e-09 7.1795246746981029e-09 0.0000000000000000e+00  -2.2968860730605124e-09 5.6816128355813774e-09 0.0000000000000000e+00  -6.5341401044660350e-10 3.2772899868839256e-09 0.0000000000000000e+00  5.4092631028945516e-11 5.4670984946951554e-11 0.0000000000000000e+00  4.9212175106814530e-11 -2.2114140926782487e-11 0.0000000000000000e+00  -5.9998638797013689e-10 -2.1208161788955750e-09 0.0000000000000000e+00  -2.1258713127891820e-09 -3.6965284830244801e-09 0.0000000000000000e+00  -4.3233876694730066e-09 -4.6955735444502096e-09 0.0000000000000000e+00  -6.8690221713672314e-09 -5.1238982571273810e-09 0.0000000000000000e+00  -9.4794570975041481e-09 -5.0365147477235922e-09 0.0000000000000000e+00  -1.1913832951978552e