<?xml version="1.0"?>
<VTKFile type="UnstructuredGrid"  version="0.1"  >
<UnstructuredGrid>
<Piece  NumberOfPoints="651" NumberOfCells="1200">
<Points>
<DataArray  type="Float64"  NumberOfComponents="3"  format="ascii">0 0 0  50000 0 0  100000 0 0  150000 0 0  200000 0 0  250000 0 0  300000 0 0  350000 0 0  400000 0 0  450000 0 0  500000 0 0  550000 0 0  600000 0 0  650000 0 0  700000 0 0  750000 0 0  800000 0 0  850000 0 0  900000 0 0  950000 0 0  1000000 0 0  0 50000 0  50000 50000 0  100000 50000 0  150000 50000 0  200000 50000 0  250000 50000 0  300000 50000 0  350000 50000 0  400000 50000 0  450000 50000 0  500000 50000 0  550000 50000 0  600000 50000 0  650000 50000 0  700000 50000 0  750000 50000 0  800000 50000 0  850000 50000 0  900000 50000 0  950000 50000 0  1000000 50000 0  0 100000 0  50000 100000 0  100000 100000 0  150000 100000 0  200000 100000 0  250000 100000 0  300000 100000 0  350000 100000 0  400000 100000 0  450000 100000 0  500000 100000 0  550000 100000 0  600000 100000 0  650000 100000 0  700000 100000 0  750000 100000 0  800000 100000 0  850000 100000 0  900000 100000 0  950000 100000 0  1000000 100000 0  0 150000 0  50000 150000 0  100000 150000 0  150000 150000 0  200000 150000 0  250000 150000 0  300000 150000 0  350000 150000 0  400000 150000 0  450000 150000 0  500000 150000 0  550000 150000 0  600000 150000 0  650000 150000 0  700000 150000 0  750000 150000 0  800000 150000 0  850000 150000 0  900000 150000 0  950000 150000 0  1000000 150000 0  0 200000 0  50000 200000 0  100000 200000 0  150000 200000 0  200000 200000 0  250000 200000 0  300000 200000 0  350000 200000 0  400000 200000 0  450000 200000 0  500000 200000 0  550000 200000 0  600000 200000 0  650000 200000 0  700000 200000 0  750000 200000 0  800000 200000 0  850000 200000 0  900000 200000 0  950000 200000 0  1000000 200000 0  0 250000 0  50000 250000 0  100000 250000 0  150000 250000 0  200000 250000 0  250000 250000 0  300000 250000 0  350000 250000 0  400000 250000 0  450000 250000 0  500000 250000 0  550000 250000 0  600000 250000 0  650000 250000 0  700000 250000 0  750000 250000 0  800000 250000 0  850000 250000 0  900000 250000 0  950000 250000 0  1000000 250000 0  0 300000 0  50000 300000 0  100000 300000 0  150000 300000 0  200000 300000 0  250000 300000 0  300000 300000 0  350000 300000 0  400000 300000 0  450000 300000 0  500000 300000 0  550000 300000 0  600000 300000 0  650000 300000 0  700000 300000 0  750000 300000 0  800000 300000 0  850000 300000 0  900000 300000 0  950000 300000 0  1000000 300000 0  0 350000 0  50000 350000 0  100000 350000 0  150000 350000 0  200000 350000 0  250000 350000 0  300000 350000 0  350000 350000 0  400000 350000 0  450000 350000 0  500000 350000 0  550000 350000 0  600000 350000 0  650000 350000 0  700000 350000 0  750000 350000 0  800000 350000 0  850000 350000 0  900000 350000 0  950000 350000 0  1000000 350000 0  0 400000 0  50000 400000 0  100000 400000 0  150000 400000 0  200000 400000 0  250000 400000 0  300000 400000 0  350000 400000 0  400000 400000 0  450000 400000 0  500000 400000 0  550000 400000 0  600000 400000 0  650000 400000 0  700000 400000 0  750000 400000 0  800000 400000 0  850000 400000 0  900000 400000 0  950000 400000 0  1000000 400000 0  0 450000 0  50000 450000 0  100000 450000 0  150000 450000 0  200000 450000 0  250000 450000 0  300000 450000 0  350000 450000 0  400000 450000 0  450000 450000 0  500000 450000 0  550000 450000 0  600000 450000 0  650000 450000 0  700000 450000 0  750000 450000 0  800000 450000 0  850000 450000 0  900000 450000 0  950000 450000 0  1000000 450000 0  0 500000 0  50000 500000 0  100000 500000 0  150000 500000 0  200000 500000 0  250000 500000 0  300000 500000 0  350000 500000 0  400000 500000 0  450000 500000 0  500000 500000 0  550000 500000 0  600000 500000 0  650000 500000 0  700000 500000 0  750000 500000 0  800000 500000 0  850000 500000 0  900000 500000 0  950000 500000 0  1000000 500000 0  0 550000 0  50000 550000 0  100000 550000 0  150000 550000 0  200000 550000 0  250000 550000 0  300000 550000 0  350000 550000 0  400000 550000 0  450000 550000 0  500000 550000 0  550000 550000 0  600000 550000 0  650000 550000 0  700000 550000 0  750000 550000 0  800000 550000 0  850000 550000 0  900000 550000 0  950000 550000 0  1000000 550000 0  0 600000 0  50000 600000 0  100000 600000 0  150000 600000 0  200000 600000 0  250000 600000 0  300000 600000 0  350000 600000 0  400000 600000 0  450000 600000 0  500000 600000 0  550000 600000 0  600000 600000 0  650000 600000 0  700000 600000 0  750000 600000 0  800000 600000 0  850000 600000 0  900000 600000 0  950000 600000 0  1000000 600000 0  0 650000 0  50000 650000 0  100000 650000 0  150000 650000 0  200000 650000 0  250000 650000 0  300000 650000 0  350000 650000 0  400000 650000 0  450000 650000 0  500000 650000 0  550000 650000 0  600000 650000 0  650000 650000 0  700000 650000 0  750000 650000 0  800000 650000 0  850000 650000 0  900000 650000 0  950000 650000 0  1000000 650000 0  0 700000 0  50000 700000 0  100000 700000 0  150000 700000 0  200000 700000 0  250000 700000 0  300000 700000 0  350000 700000 0  400000 700000 0  450000 700000 0  500000 700000 0  550000 700000 0  600000 700000 0  650000 700000 0  700000 700000 0  750000 700000 0  800000 700000 0  850000 700000 0  900000 700000 0  950000 700000 0  1000000 700000 0  0 750000 0  50000 750000 0  100000 750000 0  150000 750000 0  200000 750000 0  250000 750000 0  300000 750000 0  350000 750000 0  400000 750000 0  450000 750000 0  500000 750000 0  550000 750000 0  600000 750000 0  650000 750000 0  700000 750000 0  750000 750000 0  800000 750000 0  850000 750000 0  900000 750000 0  950000 750000 0  1000000 750000 0  0 800000 0  50000 800000 0  100000 800000 0  150000 800000 0  200000 800000 0  250000 800000 0  300000 800000 0  350000 800000 0  400000 800000 0  450000 800000 0  500000 800000 0  550000 800000 0  600000 800000 0  650000 800000 0  700000 800000 0  750000 800000 0  800000 800000 0  850000 800000 0  900000 800000 0  950000 800000 0  1000000 800000 0  0 850000 0  50000 850000 0  100000 850000 0  150000 850000 0  200000 850000 0  250000 850000 0  300000 850000 0  350000 850000 0  400000 850000 0  450000 850000 0  500000 850000 0  550000 850000 0  600000 850000 0  650000 850000 0  700000 850000 0  750000 850000 0  800000 850000 0  850000 850000 0  900000 850000 0  950000 850000 0  1000000 850000 0  0 900000 0  50000 900000 0  100000 900000 0  150000 900000 0  200000 900000 0  250000 900000 0  300000 900000 0  350000 900000 0  400000 900000 0  450000 900000 0  500000 900000 0  550000 900000 0  600000 900000 0  650000 900000 0  700000 900000 0  750000 900000 0  800000 900000 0  850000 900000 0  900000 900000 0  950000 900000 0  1000000 900000 0  0 950000 0  50000 950000 0  100000 950000 0  150000 950000 0  200000 950000 0  250000 950000 0  300000 950000 0  350000 950000 0  400000 950000 0  450000 950000 0  500000 950000 0  550000 950000 0  600000 950000 0  650000 950000 0  700000 950000 0  750000 950000 0  800000 950000 0  850000 950000 0  900000 950000 0  950000 950000 0  1000000 950000 0  0 1000000 0  50000 1000000 0  100000 1000000 0  150000 1000000 0  200000 1000000 0  250000 1000000 0  300000 1000000 0  350000 1000000 0  400000 1000000 0  450000 1000000 0  500000 1000000 0  550000 1000000 0  600000 1000000 0  650000 1000000 0  700000 1000000 0  750000 1000000 0  800000 1000000 0  850000 1000000 0  900000 1000000 0  950000 1000000 0  1000000 1000000 0  0 1050000 0  50000 1050000 0  100000 1050000 0  150000 1050000 0  200000 1050000 0  250000 1050000 0  300000 1050000 0  350000 1050000 0  400000 1050000 0  450000 1050000 0  500000 1050000 0  550000 1050000 0  600000 1050000 0  650000 1050000 0  700000 1050000 0  750000 1050000 0  800000 1050000 0  850000 1050000 0  900000 1050000 0  950000 1050000 0  1000000 1050000 0  0 1100000 0  50000 1100000 0  100000 1100000 0  150000 1100000 0  200000 1100000 0  250000 1100000 0  300000 1100000 0  350000 1100000 0  400000 1100000 0  450000 1100000 0  500000 1100000 0  550000 1100000 0  600000 1100000 0  650000 1100000 0  700000 1100000 0  750000 1100000 0  800000 1100000 0  850000 1100000 0  900000 1100000 0  950000 1100000 0  1000000 1100000 0  0 1150000 0  50000 1150000 0  100000 1150000 0  150000 1150000 0  200000 1150000 0  250000 1150000 0  300000 1150000 0  350000 1150000 0  400000 1150000 0  450000 1150000 0  500000 1150000 0  550000 1150000 0  600000 1150000 0  650000 1150000 0  700000 1150000 0  750000 1150000 0  800000 1150000 0  850000 1150000 0  900000 1150000 0  950000 1150000 0  1000000 1150000 0  0 1200000 0  50000 1200000 0  100000 1200000 0  150000 1200000 0  200000 1200000 0  250000 1200000 0  300000 1200000 0  350000 1200000 0  400000 1200000 0  450000 1200000 0  500000 1200000 0  550000 1200000 0  600000 1200000 0  650000 1200000 0  700000 1200000 0  750000 1200000 0  800000 1200000 0  850000 1200000 0  900000 1200000 0  950000 1200000 0  1000000 1200000 0  0 1250000 0  50000 1250000 0  100000 1250000 0  150000 1250000 0  200000 1250000 0  250000 1250000 0  300000 1250000 0  350000 1250000 0  400000 1250000 0  450000 1250000 0  500000 1250000 0  550000 1250000 0  600000 1250000 0  650000 1250000 0  700000 1250000 0  750000 1250000 0  800000 1250000 0  850000 1250000 0  900000 1250000 0  950000 1250000 0  1000000 1250000 0  0 1300000 0  50000 1300000 0  100000 1300000 0  150000 1300000 0  200000 1300000 0  250000 1300000 0  300000 1300000 0  350000 1300000 0  400000 1300000 0  450000 1300000 0  500000 1300000 0  550000 1300000 0  600000 1300000 0  650000 1300000 0  700000 1300000 0  750000 1300000 0  800000 1300000 0  850000 1300000 0  900000 1300000 0  950000 1300000 0  1000000 1300000 0  0 1350000 0  50000 1350000 0  100000 1350000 0  150000 1350000 0  200000 1350000 0  250000 1350000 0  300000 1350000 0  350000 1350000 0  400000 1350000 0  450000 1350000 0  500000 1350000 0  550000 1350000 0  600000 1350000 0  650000 1350000 0  700000 135
[...]
<PointData  Vectors="f_10477"> 
<DataArray  type="Float64"  Name="f_10477"  NumberOfComponents="3" format="ascii">-5.5193744130908933e-09 -3.0733748267370090e-09 0.0000000000000000e+00  7.5582047501118198e-08 -2.0072904301421200e-09 0.0000000000000000e+00  7.8346601937233369e-08 -3.4602322835332372e-11 0.0000000000000000e+00  7.9133245893809230e-08 2.8595711268917835e-10 0.0000000000000000e+00  7.9524273732172172e-08 2.4716669089367976e-10 0.0000000000000000e+00  7.9712641873570266e-08 1.7788617064046459e-10 0.0000000000000000e+00  7.9810064351176940e-08 1.2203391487106111e-10 0.0000000000000000e+00  7.9863228633447818e-08 7.9866523401456272e-11 0.0000000000000000e+00  7.9891880022002607e-08 4.6652879792566067e-11 0.0000000000000000e+00  7.9904779463734331e-08 1.8444327846539589e-11 0.0000000000000000e+00  7.9905417221227169e-08 -7.7442062754937861e-12 0.0000000000000000e+00  7.9893965962706036e-08 -3.4437955119281204e-11 0.0000000000000000e+00  7.9867398252940023e-08 -6.4178025478276795e-11 0.0000000000000000e+00  7.9817921969962678e-08 -9.9946793111176724e-11 0.0000000000000000e+00  7.9728281185296423e-08 -1.4550227287850123e-10 0.0000000000000000e+00  7.9558723154690589e-08 -2.0504454730325518e-10 0.0000000000000000e+00  7.9214583392445010e-08 -2.7763199680991905e-10 0.0000000000000000e+00  7.8511926680459066e-08 -2.9354864093644784e-10 0.0000000000000000e+00  7.7051550099920959e-08 5.1624598808410068e-10 0.0000000000000000e+00  7.3027374418956130e-08 4.6928862406539149e-09 0.0000000000000000e+00  -7.8881854054826098e-09 4.8918561068051228e-09 0.0000000000000000e+00  -3.8724156783563759e-09 -3.4086134034143875e-09 0.0000000000000000e+00  -1.3839540386562455e-09 -2.3713938169212804e-08 0.0000000000000000e+00  1.7240319646042997e-08 -1.4052178572413809e-08 0.0000000000000000e+00  3.1897183992938177e-08 -7.8149252016981225e-09 0.0000000000000000e+00  4.1358657520298895e-08 -4.6203733269322936e-09 0.0000000000000000e+00  4.7510512964411316e-08 -2.8999273359704882e-09 0.0000000000000000e+00  5.1590650478883162e-08 -1.8798704088893740e-09 0.0000000000000000e+00  5.4294101487972258e-08 -1.2113004700188051e-09 0.0000000000000000e+00  5.6014232691919022e-08 -7.2901883217459971e-10 0.0000000000000000e+00  5.6971600047771335e-08 -3.4478188594570737e-10 0.0000000000000000e+00  5.7278935286684808e-08 -3.4053820674139894e-12 0.0000000000000000e+00  5.6970939181991161e-08 3.3764643254426336e-10 0.0000000000000000e+00  5.6012936332072841e-08 7.2080976548537801e-10 0.0000000000000000e+00  5.4292510352233434e-08 1.2008599459002769e-09 0.0000000000000000e+00  5.1590627076839320e-08 1.8647513714745800e-09 0.0000000000000000e+00  4.7519751029123754e-08 2.8736691570216457e-09 0.0000000000000000e+00  4.1404290994498754e-08 4.5692386878463389e-09 0.0000000000000000e+00  3.2081938811381035e-08 7.7738056365544529e-09 0.0000000000000000e+00  1.7922877523946935e-08 1.4428522270037243e-08 0.0000000000000000e+00  -2.7944092993116138e-10 2.5409580295231397e-08 0.0000000000000000e+00  -6.4361319906240620e-09 5.1039360895222811e-09 0.0000000000000000e+00  -1.1024464072674767e-09 -1.8319548672862099e-09 0.0000000000000000e+00  -6.5385730977828675e-09 -2.9806508514251912e-08 0.0000000000000000e+00  -2.6598790913526260e-09 -2.6238568954495659e-08 0.0000000000000000e+00  6.4530161592236637e-09 -1.8727036526511757e-08 0.0000000000000000e+00  1.5640255024419737e-08 -1.2824343140866074e-08 0.0000000000000000e+00  2.3056537061359580e-08 -8.7707351865051484e-09 0.0000000000000000e+00  2.8593048749814677e-08 -5.9784804720515366e-09 0.0000000000000000e+00  3.2528308539318964e-08 -3.9689141355452427e-09 0.0000000000000000e+00  3.5140828723189889e-08 -2.4289934674606240e-09 0.0000000000000000e+00  3.6631247840870566e-08 -1.1543648331923854e-09 0.0000000000000000e+00  3.7116062550404020e-08 3.5622465446737149e-13 0.0000000000000000e+00  3.6633377943582334e-08 1.1552630223751631e-09 0.0000000000000000e+00  3.5145926803500495e-08 2.4305379170323460e-09 0.0000000000000000e+00  3.2538691117445567e-08 3.9719070741462980e-09 0.0000000000000000e+00  2.8614372929791074e-08 5.9847527605121918e-09 0.0000000000000000e+00  2.3102682792827997e-08 8.7861454468077803e-09 0.0000000000000000e+00  1.5744447477673053e-08 1.2871160304982474e-08 0.0000000000000000e+00  6.6619482981966896e-09 1.8864461678420687e-08 0.0000000000000000e+00  -2.4051106136854410e-09 2.6473544838454465e-08 0.0000000000000000e+00  -6.0755309582711215e-09 2.8955831473469418e-08 0.0000000000000000e+00  -1.9079835874524404e-09 2.3931936555631813e-09 0.0000000000000000e+00  -1.3866845874819776e-10 -9.8349319590292569e-10 0.0000000000000000e+00  -4.4049051770436808e-09 -2.5406800904882961e-08 0.0000000000000000e+00  -6.4286186155096928e-09 -2.9802661824614096e-08 0.0000000000000000e+00  -3.8512845624620522e-09 -2.5681613568789516e-08 0.0000000000000000e+00  1.3022869323559095e-09 -1.9924121081141520e-08 0.0000000000000000e+00  6.8371368137856358e-09 -1.4766481727105067e-08 0.0000000000000000e+00  1.1679627339665975e-08 -1.0599240695162456e-08 0.0000000000000000e+00  1.5463083167465823e-08 -7.2731554052989057e-09 0.0000000000000000e+00  1.8124001713411731e-08 -4.5434088617612810e-09 0.0000000000000000e+00  1.9693910544047305e-08 -2.1840202145892311e-09 0.0000000000000000e+00  2.0213014397650915e-08 -5.7055487342408059e-13 0.0000000000000000e+00  1.9697729288119248e-08 2.1830334285227239e-09 0.0000000000000000e+00  1.8132568463155864e-08 4.5430157649303385e-09 0.0000000000000000e+00  1.5478598351589804e-08 7.2743281038655365e-09 0.0000000000000000e+00  1.1706238323776412e-08 1.0604501486838206e-08 0.0000000000000000e+00  6.8809038758081208e-09 1.4782486785830635e-08 0.0000000000000000e+00  1.3641325198872069e-09 1.9964956834544598e-08 0.0000000000000000e+00  -3.7881517639004941e-09 2.5748210753225303e-08 0.0000000000000000e+00  -6.3802487653228572e-09 2.9748141746355910e-08 0.0000000000000000e+00  -4.1780053875527403e-09 2.5020009971315764e-08 0.0000000000000000e+00  -2.3287827079924747e-10 1.4127517637415274e-09 0.0000000000000000e+00  6.2583174596076161e-11 -6.0841252020855118e-10 0.0000000000000000e+00  -2.9258226537726882e-09 -2.0847773498186017e-08 0.0000000000000000e+00  -6.3203335116373709e-09 -2.8495121086225681e-08 0.0000000000000000e+00  -7.2814531590037159e-09 -2.7943727137409474e-08 0.0000000000000000e+00  -5.7335762803043557e-09 -2.3896693292869718e-08 0.0000000000000000e+00  -2.8720320849446307e-09 -1.8996701576550332e-08 0.0000000000000000e+00  2.5920269485720149e-10 -1.4319987134494212e-08 0.0000000000000000e+00  3.0337077433719659e-09 -1.0157685351153057e-08 0.0000000000000000e+00  5.1379935652945884e-09 -6.4817085567739436e-09 0.0000000000000000e+00  6.4348403976681206e-09 -3.1530055027344063e-09 0.0000000000000000e+00  6.8725156175545461e-09 -1.0179295589693440e-12 0.0000000000000000e+00  6.4385094903035049e-09 3.1511753446524478e-09 0.0000000000000000e+00  5.1457461074131194e-09 6.4806440527132460e-09 0.0000000000000000e+00  3.0462769987306188e-09 1.0158462983879702e-08 0.0000000000000000e+00  2.7716433846973970e-10 1.4324643894675567e-08 0.0000000000000000e+00  -2.8494479190311185e-09 1.9007723055800663e-08 0.0000000000000000e+00  -5.7093998860026103e-09 2.3911007069355998e-08 0.0000000000000000e+00  -7.2599629642267852e-09 2.7935199603498937e-08 0.0000000000000000e+00  -6.2967307744132856e-09 2.8401934260272169e-08 0.0000000000000000e+00  -2.8491977010437242e-09 2.0723205952981548e-08 0.0000000000000000e+00  2.3682776412390425e-11 8.8814015622717338e-10 0.0000000000000000e+00  8.9673113404582858e-11 -4.0085179795206854e-10 0.0000000000000000e+00  -2.1122813374834980e-09 -1.7145904348666815e-08 0.0000000000000000e+00  -5.5306767679644095e-09 -2.5510126660714636e-08 0.0000000000000000e+00  -8.0368717164332183e-09 -2.7231168961849826e-08 0.0000000000000000e+00  -8.8205155454410953e-09 -2.5031754123456041e-08 0.0000000000000000e+00  -8.2294235726514814e-09 -2.1064646231392315e-08 0.0000000000000000e+00  -6.9114221903353280e-09 -1.6568885429967461e-08 0.0000000000000000e+00  -5.4279551637601169e-09 -1.2114596933457666e-08 0.0000000000000000e+00  -4.1576444768239451e-09 -7.8877101370842881e-09 0.0000000000000000e+00  -3.3218499133973953e-09 -3.8814084751133718e-09 0.0000000000000000e+00  -3.0313532616324996e-09 -1.6418528681939950e-12 0.0000000000000000e+00  -3.3193256392117440e-09 3.8783192403087925e-09 0.0000000000000000e+00  -4.1526601424324572e-09 7.8852885999337959e-09 0.0000000000000000e+00  -5.4207994885648898e-09 1.2113521946706373e-08 0.0000000000000000e+00  -6.9029122717322267e-09 1.6569860345181130e-08 0.0000000000000000e+00  -8.2211701433621735e-09 2.1067078045842182e-08 0.0000000000000000e+00  -8.8143420293413075e-09 2.5029709569683860e-08 0.0000000000000000e+00  -8.0314554534017866e-09 2.7208466928806405e-08 0.0000000000000000e+00  -5.5250001514077521e-09 2.5460916653591231e-08 0.0000000000000000e+00  -2.0914940620556907e-09 1.7114196549145297e-08 0.0000000000000000e+00  7.1944434604289132e-11 5.6146559861895721e-10 0.0000000000000000e+00  8.6374593124327614e-11 -2.7830963047028713e-10 0.0000000000000000e+00  -1.6354267123452000e-09 -1.4144353652693760e-08 0.0000000000000000e+00  -4.7665353594300233e-09 -2.2157352573382828e-08 0.0000000000000000e+00  -7.8351998623939386e-09 -2.5008130348664046e-08 0.0000000000000000e+00  -9.9202952683022209e-09 -2.4214180934581027e-08 0.0000000000000000e+00  -1.0909658911981524e-08 -2.1293268086851288e-08 0.0000000000000000e+00  -1.1077232688246703e-08 -1.7343323220557131e-08 0.0000000000000000e+00  -1.0792709467018530e-08 -1.3014935327897178e-08 0.0000000000000000e+00  -1.0372816084204572e-08 -8.6264576500258296e-09 0.0000000000000000e+00  -1.0037772646021795e-08 -4.2893122478138566e-09 0.0000000000000000e+00  -9.9123561155121584e-09 -2.0302747208933995e-12 0.0000000000000000e+00  -1.0036596351492874e-08 4.2854210086267900e-09 0.0000000000000000e+00  -1.0370707382861446e-08 8.6230873922262462e-09 0.0000000000000000e+00  -1.0790191906147357e-08 1.3012392694104755e-08 0.0000000000000000e+00  -1.1075101768234899e-08 1.7341497001891688e-08 0.0000000000000000e+00  -1.0908785622589409e-08 2.1290674859125786e-08 0.0000000000000000e+00  -9.9213223776983969e-09 2.4206864667546576e-08 0.0000000000000000e+00  -7.8369561648815312e-09 2.4991321562502611e-08 0.0000000000000000e+00  -4.7698025076147813e-09 2.2137114590094071e-08 0.0000000000000000e+00  -1.6301769601627773e-09 1.4139837985036979e-08 0.0000000000000000e+00  8.0085802347574131e-11 3.7575363120373785e-10 0.0000000000000000e+00  7.8725351143470193e-11 -2.0003065740804795e-10 0.0000000000000000e+00  -1.3285419970431648e-09 -1.1648949037172723e-08 0.0000000000000000e+00  -4.1333892486661023e-09 -1.8874104882139526e-08 0.0000000000000000e+00  -7.3157400293574090e-09 -2.2120667821205089e-08 0.0000000000000000e+00  -1.0044825980312598e-08 -2.2229267251757173e-08 0.0000000000000000e+00  -1.2010740061259632e-08 -2.0208491686161375e-08 0.0000000000000000e+00  -1.3234402287242789e-08 -1.6920515200178473e-08 0.0000000000000000e+00  -1.3893374405983912e-08 -1.2971686862852288e-08 0.0000000000000000e+00  -1.4193533687592263e-08 -8.7281919682750051e-09 0.0000000000000000e+00  -1.4303296146130757e-08 -4.3788149190342734e-09 0.0000000000000000e+00  -1.4328010682121319e-08 -2.2047953996929446e-12 0.0000000000000000e+00  -1.4303166914767423e-08 4.3745410208795917e-09 0.0000000000000000e+00  -1.4193485472652141e-08 8.7242960380113622e-09 0.0000000000000000e+00  -1.3893789388897598e-08 1.2968267483684575e-08 0.0000000000000000e+00  -1.3235729519475397e-08 1.6917261078483620e-08 0.0000000000000000e+00  -1.2013309328505755e-08 2.0204339260110040e-08 0.0000000000000000e+00  -1.0048762921311053e-08 2.2222623900803279e-08 0.0000000000000000e+00  -7.3202220037800053e-09 2.2111398733257132e-08 0.0000000000000000e+00  -4.1388000400730028e-09 1.8867204262412605e-08 0.0000000000000000e+00  -1.3269724798124055e-09 1.1651570013703431e-08 0.0000000000000000e+00  7.7556112155313389e-11 2.6368449769952314e-10 0.0000000000000000e+00  7.1204665385806520e-11 -1.4629684287156009e-10 0.0000000000000000e+00  -1.1141304483969838e-09 -9.5276007895327518e-09 0.0000000000000000e+00  -3.6174416630708061e-09 -1.5801159517207990e-08 0.0000000000000000e+00  -6.7139544566000469e-09 -1.9012684071704047e-08 0.0000000000000000e+00  -9.7015290112842277e-09 -1.9624088705757023e-08 0.0000000000000000e+00  -1.2207114544404129e-08 -1.8288894595573209e-08 0.0000000000000000e+00  -1.4105138318859275e-08 -1.5643797480935341e-08 0.0000000000000000e+00  -1.5425671233285291e-08 -1.2198560307657674e-08 0.0000000000000000e+00  -1.6264188745783376e-08 -8.3091643264151489e-09 0.0000000000000000e+00  -1.6720434013874856e-08 -4.1994431181081515e-09 0.0000000000000000e+00  -1.6864413908196343e-08 -2.2060635110147390e-12 0.0000000000000000e+00  -1.6720929771598984e-08 4.1951383420373617e-09 0.0000000000000000e+00  -1.6265294798457356e-08 8.3051427144756737e-09 0.0000000000000000e+00  -1.5427569079870660e-08 1.2194862610180840e-08 0.0000000000000000e+00  -1.4107991248438282e-08 1.5640214818691061e-08 0.0000000000000000e+00  -1.2210961995730812e-08 1.8284963454550867e-08 0.0000000000000000e+00  -9.7062617787304469e-09 1.9619528190191770e-08 0.0000000000000000e+00  -6.7188254682430071e-09 1.9008329287034845e-08 0.0000000000000000e+00  -3.6224097373282138e-09 1.5799730635377766e-08 0.0000000000000000e+00  -1.1133306796861967e-09 9.5314747013555292e-09 0.0000000000000000e+00  7.2200136169997669e-11 1.9044660523949559e-10 0.0000000000000000e+00  6.4562670195513299e-11 -1.0737443083056994e-10 0.0000000000000000e+00  -9.5493617136843706e-10 -7.6932748528295274e-09 0.0000000000000000e+00  -3.1936704807434553e-09 -1.2975028809200435e-08 0.0000000000000000e+00  -6.1211166250185861e-09 -1.5908948202412152e-08 0.0000000000000000e+00  -9.1519177555734363e-09 -1.6742872830015730e-08 0.0000000000000000e+00  -1.1909715969193639e-08 -1.5894646889237364e-08 0.0000000000000000e+00  -1.4193051008423560e-08 -1.3818823346855885e-08 0.0000000000000000e+00  -1.5932590611112367e-08 -1.0919022318052749e-08 0.0000000000000000e+00  -1.7134569489793036e-08 -7.5100794070298817e-09 0.0000000000000000e+00  -1.7834004758569922e-08 -3.8180724923521699e-09 0.0000000000000000e+00  -1.8063220922640973e-08 -2.0949096171933551e-12 0.0000000000000000e+00  -1.7834774915991800e-08 3.8139725666906426e-09 0.0000000000000000e+00  -1.7136144633110318e-08 7.5062190980106901e-09 0.0000000000000000e+00  -1.5935008356439047e-08 1.0915464560430748e-08 0.0000000000000000e+00  -1.4196302566720068e-08 1.3815520209484352e-08 0.0000000000000000e+00  -1.1913689727748449e-08 1.5891524164528545e-08 0.0000000000000000e+00  -9.1563872120845980e-09 1.6740110365292499e-08 0.0000000000000000e+00  -6.1253893411442410e-09 1.5907247406428954e-08 0.0000000000000000e+00  -3.1976029683664490e-09 1.2975646857755289e-08 0.0000000000000000e+00  -9.5425371622040635e-10 7.6968447595949315e-09 0.0000000000000000e+00  6.6409600581707006e-11 1.3948275283805833e-10 0.0000000000000000e+00  5.8903055972244373e-11 -7.8036871677914468e-11 0.0000000000000000e+00  -8.3248956506179764e-10 -6.0854197814682097e-09 0.0000000000000000e+00  -2.8449421561804782e-09 -1.0391437555766747e-08 0.0000000000000000e+00  -5.5780452507271272e-09 -1.2916982384908065e-08 0.0000000000000000e+00  -8.5404317865173988e-09 -1.3788476801891644e-08 0.0000000000000000e+00  -1.1375211454333604e-08 -1.3270038096790489e-08 0.0000000000000000e+00  -1.3846317676157286e-08 -1.1678884364149442e-08 0.0000000000000000e+00  -1.5822824660731352e-08 -9.3217455149689472e-09 0.0000000000000000e+00  -1.7246707919821713e-08 -6.4596887271163913e-09 0.0000000000000000e+00  -1.8101071755679839e-08 -3.2992330661401360e-09 0.0000000000000000e+00  -1.8385622434019949e-08 -1.9249988910400727e-12 0.0000000000000000e+00  -1.8101884525139323e-08 3.2954653502009405e-09 0.0000000000000000e+00  -1.7248321505384620e-08 6.4561501685540937e-09 0.0000000000000000e+00  -1.5825198445054114e-08 9.3185391165926848e-09 0.0000000000000000e+00  -1.3849357836037288e-08 1.1676076952288826e-08 0.0000000000000000e+00  -1.1378740895898288e-08 1.3267728276890793e-08 0.0000000000000000e+00  -8.5441882190761273e-09 1.3786915028690729e-08 0.0000000000000000e+00  -5.5814416415299565e-09 1.2916579484047187e-08 0.0000000000000000e+00  -2.8478776087877120e-09 1.0392706401433999e-08 0.0000000000000000e+00  -8.3181874765276535e-10 6.0884140204837631e-09 0.0000000000000000e+00  6.0973214865925124e-11 1.0229485983741694e-10 0.0000000000000000e+00  5.4246582942052197e-11 -5.5185418436073182e-11 0.0000000000000000e+00  -7.3761971568665044e-10 -4.6577330672604986e-09 0.0000000000000000e+00  -2.5623249626930073e-09 -8.0273439464395228e-09 0.0000000000000000e+00  -5.1077098796612106e-09 -1.0078616452511739e-08 0.0000000000000000e+00  -7.9541354435920673e-09 -1.0870284442389149e-08 0.0000000000000000e+00  -1.0769866334178340e-08 -1.0566626368191244e-08 0.0000000000000000e+00  -1.3306382993680823e-08 -9.3838970548480585e-09 0.0000000000000000e+00  -1.5397146863990870e-08 -7.5465078878904100e-09 0.0000000000000000e+00  -1.6941405460247974e-08 -5.2590556581066518e-09 0.0000000000000000e+00  -1.7884681031490606e-08 -2.6954449544207781e-09 0.0000000000000000e+00  -1.8201729917997523e-08 -1.7389112455362519e-12 0.0000000000000000e+00  -1.7885404405409689e-08 2.6920474651482488e-09 0.0000000000000000e+00  -1.6942820298288592e-08 5.2558902987000152e-09 0.0000000000000000e+00  -1.5399181897666727e-08 7.5437070149381991e-09 0.0000000000000000e+00  -1.3308916841057505e-08 9.3815834165516512e-09 0.0000000000000000e+00  -1.0772713241331285e-08 1.0564945430854305e-08 0.0000000000000000e+00  -7.9570534406008751e-09 1.0869436515535185e-08 0.0000000000000000e+00  -5.1102436359821985e-09 1.0078797669536275e-08 0.0000000000000000e+00  -2.5644354926666242e-09 8.0287373058374840e-09 0.0000000000000000e+00  -7.3698905889217304e-10 4.6602282422934784e-09 0.0000000000000000e+00  5.6196917148553348e-11 7.4138268005596960e-11 0.0000000000000000e+00  5.0626301412379373e-11 -3.6776092568489577e-11 0.0000000000000000e+00  -6.6590679826548946e-10 -3.3709628587421081e-09 0.0000000000000000e+00  -2.3423333785113420e-09 -5.8491069392351817e-09 0.0000000000000000e+00  -4.7259725841742324e-09 -7.3965663148419808e-09 0.0000000000000000e+00  -7.4495652929753913e-09 -8.0363600138162412e-09 0.0000000000000000e+00  -1.0204591109269629e-08 -7.8676186808211530e-09 0.0000000000000000e+00  -1.2740755833568453e-08 -7.0322090556184011e-09 0.0000000000000000e+00  -1.4872329355285764e-08 -5.6859876251269699e-09 0.0000000000000000e+00  -1.6471987073296143e-08 -3.9787115470313186e-09 0.0000000000000000e+00  -1.7460141500369359e-08 -2.0444964719890905e-09 0.0000000000000000e+00  -1.7794154577377725e-08 -1.5678364423953355e-12 0.0000000000000000e+00  -1.7460709786059072e-08 2.0414411281134539e-09 0.0000000000000000e+00  -1.6473089033811414e-08 3.9758926690875889e-09 0.0000000000000000e+00  -1.4873892946183924e-08 5.6835514658474876e-09 0.0000000000000000e+00  -1.2742667914656089e-08 7.0302951741857922e-09 0.0000000000000000e+00  -1.0206692635971188e-08 7.8663669334516855e-09 0.0000000000000000e+00  -7.4516647550644176e-09 8.0359071875830265e-09 0.0000000000000000e+00  -4.7277452741402968e-09 7.3969861120139023e-09 0.0000000000000000e+00  -2.3437803931045948e-09 5.8504560701135005e-09 0.0000000000000000e+00  -6.6537190557497103e-10 3.3731009908825727e-09 0.0000000000000000e+00  5.2245483669609547e-11 5.2118866664073509e-11 0.0000000000000000e+00  4.8087427016616533e-11 -2.1304600963991035e-11 0.0000000000000000e+00  -6.1535459553803544e-10 -2.1889487641361668e-09 0.0000000000000000e+00  -2.1844208111588361e-09 -3.8160271888876387e-09 0.0000000000000000e+00  -4.4447330928225137e-09 -4.8490958431774822e-09 0.0000000000000000e+00  -7.0647237083182924e-09 -5.2945767203675842e-09 0.0000000000000000e+00  -9.7537814487475475e-09 -5.2081756140292619e-09 0.0000000000000000e+00  -1.2263879300672869e-