<?xml version="1.0"?>
<VTKFile type="UnstructuredGrid"  version="0.1"  >
<UnstructuredGrid>
<Piece  NumberOfPoints="651" NumberOfCells="1200">
<Points>
<DataArray  type="Float64"  NumberOfComponents="3"  format="ascii">0 0 0  50000 0 0  100000 0 0  150000 0 0  200000 0 0  250000 0 0  300000 0 0  350000 0 0  400000 0 0  450000 0 0  500000 0 0  550000 0 0  600000 0 0  650000 0 0  700000 0 0  750000 0 0  800000 0 0  850000 0 0  900000 0 0  950000 0 0  1000000 0 0  0 50000 0  50000 50000 0  100000 50000 0  150000 50000 0  200000 50000 0  250000 50000 0  300000 50000 0  350000 50000 0  400000 50000 0  450000 50000 0  500000 50000 0  550000 50000 0  600000 50000 0  650000 50000 0  700000 50000 0  750000 50000 0  800000 50000 0  850000 50000 0  900000 50000 0  950000 50000 0  1000000 50000 0  0 100000 0  50000 100000 0  100000 100000 0  150000 100000 0  200000 100000 0  250000 100000 0  300000 100000 0  350000 100000 0  400000 100000 0  450000 100000 0  500000 100000 0  550000 100000 0  600000 100000 0  650000 100000 0  700000 100000 0  750000 100000 0  800000 100000 0  850000 100000 0  900000 100000 0  950000 100000 0  1000000 100000 0  0 150000 0  50000 150000 0  100000 150000 0  150000 150000 0  200000 150000 0  250000 150000 0  300000 150000 0  350000 150000 0  400000 150000 0  450000 150000 0  500000 150000 0  550000 150000 0  600000 150000 0  650000 150000 0  700000 150000 0  750000 150000 0  800000 150000 0  850000 150000 0  900000 150000 0  950000 150000 0  1000000 150000 0  0 200000 0  50000 200000 0  100000 200000 0  150000 200000 0  200000 200000 0  250000 200000 0  300000 200000 0  350000 200000 0  400000 200000 0  450000 200000 0  500000 200000 0  550000 200000 0  600000 200000 0  650000 200000 0  700000 200000 0  750000 200000 0  800000 200000 0  850000 200000 0  900000 200000 0  950000 200000 0  1000000 200000 0  0 250000 0  50000 250000 0  100000 250000 0  150000 250000 0  200000 250000 0  250000 250000 0  300000 250000 0  350000 250000 0  400000 250000 0  450000 250000 0  500000 250000 0  550000 250000 0  600000 250000 0  650000 250000 0  700000 250000 0  750000 250000 0  800000 250000 0  850000 250000 0  900000 250000 0  950000 250000 0  1000000 250000 0  0 300000 0  50000 300000 0  100000 300000 0  150000 300000 0  200000 300000 0  250000 300000 0  300000 300000 0  350000 300000 0  400000 300000 0  450000 300000 0  500000 300000 0  550000 300000 0  600000 300000 0  650000 300000 0  700000 300000 0  750000 300000 0  800000 300000 0  850000 300000 0  900000 300000 0  950000 300000 0  1000000 300000 0  0 350000 0  50000 350000 0  100000 350000 0  150000 350000 0  200000 350000 0  250000 350000 0  300000 350000 0  350000 350000 0  400000 350000 0  450000 350000 0  500000 350000 0  550000 350000 0  600000 350000 0  650000 350000 0  700000 350000 0  750000 350000 0  800000 350000 0  850000 350000 0  900000 350000 0  950000 350000 0  1000000 350000 0  0 400000 0  50000 400000 0  100000 400000 0  150000 400000 0  200000 400000 0  250000 400000 0  300000 400000 0  350000 400000 0  400000 400000 0  450000 400000 0  500000 400000 0  550000 400000 0  600000 400000 0  650000 400000 0  700000 400000 0  750000 400000 0  800000 400000 0  850000 400000 0  900000 400000 0  950000 400000 0  1000000 400000 0  0 450000 0  50000 450000 0  100000 450000 0  150000 450000 0  200000 450000 0  250000 450000 0  300000 450000 0  350000 450000 0  400000 450000 0  450000 450000 0  500000 450000 0  550000 450000 0  600000 450000 0  650000 450000 0  700000 450000 0  750000 450000 0  800000 450000 0  850000 450000 0  900000 450000 0  950000 450000 0  1000000 450000 0  0 500000 0  50000 500000 0  100000 500000 0  150000 500000 0  200000 500000 0  250000 500000 0  300000 500000 0  350000 500000 0  400000 500000 0  450000 500000 0  500000 500000 0  550000 500000 0  600000 500000 0  650000 500000 0  700000 500000 0  750000 500000 0  800000 500000 0  850000 500000 0  900000 500000 0  950000 500000 0  1000000 500000 0  0 550000 0  50000 550000 0  100000 550000 0  150000 550000 0  200000 550000 0  250000 550000 0  300000 550000 0  350000 550000 0  400000 550000 0  450000 550000 0  500000 550000 0  550000 550000 0  600000 550000 0  650000 550000 0  700000 550000 0  750000 550000 0  800000 550000 0  850000 550000 0  900000 550000 0  950000 550000 0  1000000 550000 0  0 600000 0  50000 600000 0  100000 600000 0  150000 600000 0  200000 600000 0  250000 600000 0  300000 600000 0  350000 600000 0  400000 600000 0  450000 600000 0  500000 600000 0  550000 600000 0  600000 600000 0  650000 600000 0  700000 600000 0  750000 600000 0  800000 600000 0  850000 600000 0  900000 600000 0  950000 600000 0  1000000 600000 0  0 650000 0  50000 650000 0  100000 650000 0  150000 650000 0  200000 650000 0  250000 650000 0  300000 650000 0  350000 650000 0  400000 650000 0  450000 650000 0  500000 650000 0  550000 650000 0  600000 650000 0  650000 650000 0  700000 650000 0  750000 650000 0  800000 650000 0  850000 650000 0  900000 650000 0  950000 650000 0  1000000 650000 0  0 700000 0  50000 700000 0  100000 700000 0  150000 700000 0  200000 700000 0  250000 700000 0  300000 700000 0  350000 700000 0  400000 700000 0  450000 700000 0  500000 700000 0  550000 700000 0  600000 700000 0  650000 700000 0  700000 700000 0  750000 700000 0  800000 700000 0  850000 700000 0  900000 700000 0  950000 700000 0  1000000 700000 0  0 750000 0  50000 750000 0  100000 750000 0  150000 750000 0  200000 750000 0  250000 750000 0  300000 750000 0  350000 750000 0  400000 750000 0  450000 750000 0  500000 750000 0  550000 750000 0  600000 750000 0  650000 750000 0  700000 750000 0  750000 750000 0  800000 750000 0  850000 750000 0  900000 750000 0  950000 750000 0  1000000 750000 0  0 800000 0  50000 800000 0  100000 800000 0  150000 800000 0  200000 800000 0  250000 800000 0  300000 800000 0  350000 800000 0  400000 800000 0  450000 800000 0  500000 800000 0  550000 800000 0  600000 800000 0  650000 800000 0  700000 800000 0  750000 800000 0  800000 800000 0  850000 800000 0  900000 800000 0  950000 800000 0  1000000 800000 0  0 850000 0  50000 850000 0  100000 850000 0  150000 850000 0  200000 850000 0  250000 850000 0  300000 850000 0  350000 850000 0  400000 850000 0  450000 850000 0  500000 850000 0  550000 850000 0  600000 850000 0  650000 850000 0  700000 850000 0  750000 850000 0  800000 850000 0  850000 850000 0  900000 850000 0  950000 850000 0  1000000 850000 0  0 900000 0  50000 900000 0  100000 900000 0  150000 900000 0  200000 900000 0  250000 900000 0  300000 900000 0  350000 900000 0  400000 900000 0  450000 900000 0  500000 900000 0  550000 900000 0  600000 900000 0  650000 900000 0  700000 900000 0  750000 900000 0  800000 900000 0  850000 900000 0  900000 900000 0  950000 900000 0  1000000 900000 0  0 950000 0  50000 950000 0  100000 950000 0  150000 950000 0  200000 950000 0  250000 950000 0  300000 950000 0  350000 950000 0  400000 950000 0  450000 950000 0  500000 950000 0  550000 950000 0  600000 950000 0  650000 950000 0  700000 950000 0  750000 950000 0  800000 950000 0  850000 950000 0  900000 950000 0  950000 950000 0  1000000 950000 0  0 1000000 0  50000 1000000 0  100000 1000000 0  150000 1000000 0  200000 1000000 0  250000 1000000 0  300000 1000000 0  350000 1000000 0  400000 1000000 0  450000 1000000 0  500000 1000000 0  550000 1000000 0  600000 1000000 0  650000 1000000 0  700000 1000000 0  750000 1000000 0  800000 1000000 0  850000 1000000 0  900000 1000000 0  950000 1000000 0  1000000 1000000 0  0 1050000 0  50000 1050000 0  100000 1050000 0  150000 1050000 0  200000 1050000 0  250000 1050000 0  300000 1050000 0  350000 1050000 0  400000 1050000 0  450000 1050000 0  500000 1050000 0  550000 1050000 0  600000 1050000 0  650000 1050000 0  700000 1050000 0  750000 1050000 0  800000 1050000 0  850000 1050000 0  900000 1050000 0  950000 1050000 0  1000000 1050000 0  0 1100000 0  50000 1100000 0  100000 1100000 0  150000 1100000 0  200000 1100000 0  250000 1100000 0  300000 1100000 0  350000 1100000 0  400000 1100000 0  450000 1100000 0  500000 1100000 0  550000 1100000 0  600000 1100000 0  650000 1100000 0  700000 1100000 0  750000 1100000 0  800000 1100000 0  850000 1100000 0  900000 1100000 0  950000 1100000 0  1000000 1100000 0  0 1150000 0  50000 1150000 0  100000 1150000 0  150000 1150000 0  200000 1150000 0  250000 1150000 0  300000 1150000 0  350000 1150000 0  400000 1150000 0  450000 1150000 0  500000 1150000 0  550000 1150000 0  600000 1150000 0  650000 1150000 0  700000 1150000 0  750000 1150000 0  800000 1150000 0  850000 1150000 0  900000 1150000 0  950000 1150000 0  1000000 1150000 0  0 1200000 0  50000 1200000 0  100000 1200000 0  150000 1200000 0  200000 1200000 0  250000 1200000 0  300000 1200000 0  350000 1200000 0  400000 1200000 0  450000 1200000 0  500000 1200000 0  550000 1200000 0  600000 1200000 0  650000 1200000 0  700000 1200000 0  750000 1200000 0  800000 1200000 0  850000 1200000 0  900000 1200000 0  950000 1200000 0  1000000 1200000 0  0 1250000 0  50000 1250000 0  100000 1250000 0  150000 1250000 0  200000 1250000 0  250000 1250000 0  300000 1250000 0  350000 1250000 0  400000 1250000 0  450000 1250000 0  500000 1250000 0  550000 1250000 0  600000 1250000 0  650000 1250000 0  700000 1250000 0  750000 1250000 0  800000 1250000 0  850000 1250000 0  900000 1250000 0  950000 1250000 0  1000000 1250000 0  0 1300000 0  50000 1300000 0  100000 1300000 0  150000 1300000 0  200000 1300000 0  250000 1300000 0  300000 1300000 0  350000 1300000 0  400000 1300000 0  450000 1300000 0  500000 1300000 0  550000 1300000 0  600000 1300000 0  650000 1300000 0  700000 1300000 0  750000 1300000 0  800000 1300000 0  850000 1300000 0  900000 1300000 0  950000 1300000 0  1000000 1300000 0  0 1350000 0  50000 1350000 0  100000 1350000 0  150000 1350000 0  200000 1350000 0  250000 1350000 0  300000 1350000 0  350000 1350000 0  400000 1350000 0  450000 1350000 0  500000 1350000 0  550000 1350000 0  600000 1350000 0  650000 1350000 0  700000 135
[...]
<PointData  Vectors="f_10477"> 
<DataArray  type="Float64"  Name="f_10477"  NumberOfComponents="3" format="ascii">-6.2350194104540613e-09 -3.4849551470460061e-09 0.0000000000000000e+00  7.4889622068607005e-08 -2.2469490555289373e-09 0.0000000000000000e+00  7.7903862216246330e-08 -1.0018010705803326e-10 0.0000000000000000e+00  7.8912496030000132e-08 2.8546308011513556e-10 0.0000000000000000e+00  7.9398257063648755e-08 2.6054767426905201e-10 0.0000000000000000e+00  7.9628200042129871e-08 1.8749855694771969e-10 0.0000000000000000e+00  7.9743730045722788e-08 1.2607538955543760e-10 0.0000000000000000e+00  7.9804336770790247e-08 8.0435479421615125e-11 0.0000000000000000e+00  7.9835680719872515e-08 4.5971169150121610e-11 0.0000000000000000e+00  7.9849297887780335e-08 1.7991405077505742e-11 0.0000000000000000e+00  7.9849822651386210e-08 -7.3556277233385073e-12 0.0000000000000000e+00  7.9837491811466096e-08 -3.3455221979728751e-11 0.0000000000000000e+00  7.9808299062357608e-08 -6.3703732028994535e-11 0.0000000000000000e+00  7.9751983221199520e-08 -1.0194057974158580e-10 0.0000000000000000e+00  7.9646056066000372e-08 -1.5270453938812533e-10 0.0000000000000000e+00  7.9439985086097141e-08 -2.2022819513516756e-10 0.0000000000000000e+00  7.9018735816040560e-08 -2.9781598700672100e-10 0.0000000000000000e+00  7.8167086665228875e-08 -2.7830744344342428e-10 0.0000000000000000e+00  7.6483034236302619e-08 7.0707029466493590e-10 0.0000000000000000e+00  7.2426762461479962e-08 5.0211371023849683e-09 0.0000000000000000e+00  -8.4048852224469253e-09 5.1374007391886273e-09 0.0000000000000000e+00  -4.3594221995871518e-09 -3.9452398901498765e-09 0.0000000000000000e+00  -6.7871635620019544e-10 -2.3256170438256804e-08 0.0000000000000000e+00  1.7201788875945238e-08 -1.4006568597012183e-08 0.0000000000000000e+00  3.1471536262111821e-08 -7.7569318528442309e-09 0.0000000000000000e+00  4.0578263441130288e-08 -4.4855119527192367e-09 0.0000000000000000e+00  4.6362135908180999e-08 -2.7255427464460447e-09 0.0000000000000000e+00  5.0078801835805056e-08 -1.7026254769522562e-09 0.0000000000000000e+00  5.2458542248393497e-08 -1.0577283269671307e-09 0.0000000000000000e+00  5.3925191193721232e-08 -6.1714709503569550e-10 0.0000000000000000e+00  5.4721439095319835e-08 -2.8591822583889554e-10 0.0000000000000000e+00  5.4973268908162076e-08 -3.0647331295892621e-12 0.0000000000000000e+00  5.4719786926167723e-08 2.7934946998780316e-10 0.0000000000000000e+00  5.3921956479935794e-08 6.0913730015662778e-10 0.0000000000000000e+00  5.2454272043660600e-08 1.0467532619655414e-09 0.0000000000000000e+00  5.0076106127440658e-08 1.6855365424570977e-09 0.0000000000000000e+00  4.6371089127850839e-08 2.6947708053131743e-09 0.0000000000000000e+00  4.0633284804399954e-08 4.4288041928021282e-09 0.0000000000000000e+00  3.1694177038240863e-08 7.7238524863732213e-09 0.0000000000000000e+00  1.8001630460714170e-08 1.4436846139652067e-08 0.0000000000000000e+00  3.4901092656304933e-10 2.4987980552078769e-08 0.0000000000000000e+00  -6.9598928433844102e-09 5.4990093514819402e-09 0.0000000000000000e+00  -1.3123275520463127e-09 -2.2951691636255049e-09 0.0000000000000000e+00  -6.5655362229269676e-09 -2.9501633690664879e-08 0.0000000000000000e+00  -2.9306999387295907e-09 -2.5757446273363092e-08 0.0000000000000000e+00  5.7160891956125687e-09 -1.8129523751675011e-08 0.0000000000000000e+00  1.4297130528077937e-08 -1.2145050736001352e-08 0.0000000000000000e+00  2.1074034152695124e-08 -8.0670283948218638e-09 0.0000000000000000e+00  2.5995703832478500e-08 -5.3191645197378916e-09 0.0000000000000000e+00  2.9392012798432873e-08 -3.4167303672050843e-09 0.0000000000000000e+00  3.1585646470564252e-08 -2.0330633119537093e-09 0.0000000000000000e+00  3.2810756850959339e-08 -9.4778266658154843e-10 0.0000000000000000e+00  3.3204532060447032e-08 1.0743593556974410e-12 0.0000000000000000e+00  3.2812092093253450e-08 9.5021362804850848e-10 0.0000000000000000e+00  3.1589328514875030e-08 2.0364478032834968e-09 0.0000000000000000e+00  2.9400830298871474e-08 3.4221512817628374e-09 0.0000000000000000e+00  2.6016432474194853e-08 5.3289707929960433e-09 0.0000000000000000e+00  2.1123220444868580e-08 8.0883450159868702e-09 0.0000000000000000e+00  1.4414929361354629e-08 1.2202366678461711e-08 0.0000000000000000e+00  5.9643869303910754e-09 1.8276659198151760e-08 0.0000000000000000e+00  -2.5943800996801399e-09 2.5952514760041596e-08 0.0000000000000000e+00  -6.1798474360585391e-09 2.8581987752959936e-08 0.0000000000000000e+00  -2.2564195555244570e-09 2.8813479066955009e-09 0.0000000000000000e+00  -1.9416342065190987e-10 -1.2615150646719876e-09 0.0000000000000000e+00  -4.6593637743690112e-09 -2.5076918981499302e-08 0.0000000000000000e+00  -6.9545463746364167e-09 -2.8914983578180500e-08 0.0000000000000000e+00  -4.8922813939111810e-09 -2.4457466816267858e-08 0.0000000000000000e+00  -4.3232155114151813e-10 -1.8535863591256093e-08 0.0000000000000000e+00  4.3533844942956652e-09 -1.3351514686567107e-08 0.0000000000000000e+00  8.4706373946282548e-09 -9.2880371773636074e-09 0.0000000000000000e+00  1.1617928756577808e-08 -6.1812846736307864e-09 0.0000000000000000e+00  1.3784616121312820e-08 -3.7626143693780581e-09 0.0000000000000000e+00  1.5041656950455484e-08 -1.7771230875245692e-09 0.0000000000000000e+00  1.5453613252168888e-08 7.1532526339711962e-13 0.0000000000000000e+00  1.5045193768159614e-08 1.7788056422326244e-09 0.0000000000000000e+00  1.3792853019982006e-08 3.7651988908070264e-09 0.0000000000000000e+00  1.1633628247744523e-08 6.1860092559693716e-09 0.0000000000000000e+00  8.4990598529637953e-09 9.2977962903694186e-09 0.0000000000000000e+00  4.4025649083926614e-09 1.3373294885333846e-08 0.0000000000000000e+00  -3.5894696475525231e-10 1.8582399685979445e-08 0.0000000000000000e+00  -4.8137164050124116e-09 2.4520929948682994e-08 0.0000000000000000e+00  -6.8886417209036701e-09 2.8816565591300260e-08 0.0000000000000000e+00  -4.4451129189686145e-09 2.4618236817816959e-08 0.0000000000000000e+00  -3.3151419478016677e-10 1.7706918251669159e-09 0.0000000000000000e+00  6.7160844455629486e-11 -7.7418359201314107e-10 0.0000000000000000e+00  -3.1802386316296869e-09 -2.0237947795616835e-08 0.0000000000000000e+00  -6.9355350613488774e-09 -2.7145287307421653e-08 0.0000000000000000e+00  -8.4442165743136454e-09 -2.6084269664021947e-08 0.0000000000000000e+00  -7.5803884460578008e-09 -2.1771039249963485e-08 0.0000000000000000e+00  -5.4553621760002549e-09 -1.6828559818659917e-08 0.0000000000000000e+00  -3.0393880691287597e-09 -1.2313479658019474e-08 0.0000000000000000e+00  -8.9354039888763576e-10 -8.4887229756618087e-09 0.0000000000000000e+00  7.2185367187482156e-10 -5.2890374477771951e-09 0.0000000000000000e+00  1.7090827133013286e-09 -2.5318573121564448e-09 0.0000000000000000e+00  2.0408081650179206e-09 3.2346145794688595e-13 0.0000000000000000e+00  1.7128276681447641e-09 2.5327430532688133e-09 0.0000000000000000e+00  7.2996070317972099e-10 5.2907798956702531e-09 0.0000000000000000e+00  -8.7989782040950180e-10 8.4924104607012093e-09 0.0000000000000000e+00  -3.0189151782234727e-09 1.2320969624976434e-08 0.0000000000000000e+00  -5.4279935825669241e-09 1.6841507057250955e-08 0.0000000000000000e+00  -7.5491367018082921e-09 2.1783889929634882e-08 0.0000000000000000e+00  -8.4179248593982356e-09 2.6066535614293564e-08 0.0000000000000000e+00  -6.9113073568548509e-09 2.7028204344254305e-08 0.0000000000000000e+00  -3.0986120299913585e-09 2.0081168681114833e-08 0.0000000000000000e+00  1.9661323008487624e-11 1.1229872318812276e-09 0.0000000000000000e+00  1.1032488851321515e-10 -5.0270050965215838e-10 0.0000000000000000e+00  -2.3226422468220495e-09 -1.6220503610176132e-08 0.0000000000000000e+00  -6.0980209503555680e-09 -2.3689917335265711e-08 0.0000000000000000e+00  -9.1049279856384585e-09 -2.4771937146575903e-08 0.0000000000000000e+00  -1.0482981953077025e-08 -2.2226727165095632e-08 0.0000000000000000e+00  -1.0522896946037008e-08 -1.8205046623887780e-08 0.0000000000000000e+00  -9.8156944785163793e-09 -1.3923434619987515e-08 0.0000000000000000e+00  -8.8691215949267679e-09 -9.9146297088962688e-09 0.0000000000000000e+00  -8.0166788904773464e-09 -6.3156929420592364e-09 0.0000000000000000e+00  -7.4456962310505041e-09 -3.0628463821699934e-09 0.0000000000000000e+00  -7.2457838518963312e-09 -3.3542646001554172e-13 0.0000000000000000e+00  -7.4428873300451831e-09 3.0623359795106998e-09 0.0000000000000000e+00  -8.0109924985608718e-09 6.3157237463201486e-09 0.0000000000000000e+00  -8.8605968144050207e-09 9.9156936254381125e-09 0.0000000000000000e+00  -9.8048592303192554e-09 1.3925803969567778e-08 0.0000000000000000e+00  -1.0511281705285414e-08 1.8207156063943098e-08 0.0000000000000000e+00  -1.0472984163180398e-08 2.2220833179033017e-08 0.0000000000000000e+00  -9.0975808707800320e-09 2.4739994274751359e-08 0.0000000000000000e+00  -6.0927138066085669e-09 2.3626072202342105e-08 0.0000000000000000e+00  -2.2976200119696391e-09 1.6174455186549126e-08 0.0000000000000000e+00  9.0832283828262000e-11 7.1055198469699107e-10 0.0000000000000000e+00  1.0751558677057041e-10 -3.4038513001954971e-10 0.0000000000000000e+00  -1.7887338547961719e-09 -1.2952061061869211e-08 0.0000000000000000e+00  -5.1950742837482816e-09 -1.9936550928780422e-08 0.0000000000000000e+00  -8.6404344780237148e-09 -2.2057418606752756e-08 0.0000000000000000e+00  -1.1160929947627633e-08 -2.0866839814091987e-08 0.0000000000000000e+00  -1.2606041506137062e-08 -1.7886851751203771e-08 0.0000000000000000e+00  -1.3212351888552048e-08 -1.4193539518543634e-08 0.0000000000000000e+00  -1.3313099948874958e-08 -1.0395603813691428e-08 0.0000000000000000e+00  -1.3193278511704404e-08 -6.7545639882001179e-09 0.0000000000000000e+00  -1.3048562699930114e-08 -3.3146250390273369e-09 0.0000000000000000e+00  -1.2988233427411990e-08 -8.8073446757143431e-13 0.0000000000000000e+00  -1.3047004514418442e-08 3.3129458617250124e-09 0.0000000000000000e+00  -1.3190344087270678e-08 6.7531185180322750e-09 0.0000000000000000e+00  -1.3309222228395760e-08 1.0394411900124874e-08 0.0000000000000000e+00  -1.3208300217719027e-08 1.4192042044915853e-08 0.0000000000000000e+00  -1.2602911522330136e-08 1.7882896106185207e-08 0.0000000000000000e+00  -1.1159922402332913e-08 2.0855615901629569e-08 0.0000000000000000e+00  -8.6413998324776696e-09 2.2033711029727380e-08 0.0000000000000000e+00  -5.1987349760707897e-09 1.9907619777568188e-08 0.0000000000000000e+00  -1.7808088636274069e-09 1.2941038081408038e-08 0.0000000000000000e+00  1.0231155876986749e-10 4.6871616806321058e-10 0.0000000000000000e+00  9.5535737054286030e-11 -2.3650863049464686e-10 0.0000000000000000e+00  -1.4181527295399944e-09 -1.0277874045426632e-08 0.0000000000000000e+00  -4.3748378645599793e-09 -1.6385837121817194e-08 0.0000000000000000e+00  -7.7609654066839235e-09 -1.8849287443735283e-08 0.0000000000000000e+00  -1.0720320017589943e-08 -1.8534862448698190e-08 0.0000000000000000e+00  -1.2923518312548149e-08 -1.6455364660488249e-08 0.0000000000000000e+00  -1.4374201695706848e-08 -1.3451780429909009e-08 0.0000000000000000e+00  -1.5232456786655747e-08 -1.0087001297466796e-08 0.0000000000000000e+00  -1.5688152013904049e-08 -6.6662867813206930e-09 0.0000000000000000e+00  -1.5896775088957198e-08 -3.3051221148422077e-09 0.0000000000000000e+00  -1.5955279416912805e-08 -1.2588372733804423e-12 0.0000000000000000e+00  -1.5896240215468039e-08 3.3026264636235980e-09 0.0000000000000000e+00  -1.5687283953701409e-08 6.6638113403024079e-09 0.0000000000000000e+00  -1.5231650231065103e-08 1.0084352320926734e-08 0.0000000000000000e+00  -1.4374001400640748e-08 1.3448288874927282e-08 0.0000000000000000e+00  -1.2924526790354230e-08 1.6449580645997046e-08 0.0000000000000000e+00  -1.0723089499623434e-08 1.8524909205491466e-08 0.0000000000000000e+00  -7.7651994726717900e-09 1.8835208111075450e-08 0.0000000000000000e+00  -4.3807652013013396e-09 1.6373843574292833e-08 0.0000000000000000e+00  -1.4144544534583048e-09 1.0277524474308215e-08 0.0000000000000000e+00  9.7083729020088343e-11 3.2044843313803135e-10 0.0000000000000000e+00  8.2430546490092272e-11 -1.6635599253801827e-10 0.0000000000000000e+00  -1.1401984420763244e-09 -8.0813740457909798e-09 0.0000000000000000e+00  -3.6591813202004911e-09 -1.3209110836251538e-08 0.0000000000000000e+00  -6.7691318903248381e-09 -1.5624287319407803e-08 0.0000000000000000e+00  -9.7651506453701106e-09 -1.5808061107042675e-08 0.0000000000000000e+00  -1.2275011144504313e-08 -1.4416491357585430e-08 0.0000000000000000e+00  -1.4175882740438099e-08 -1.2065676833130592e-08 0.0000000000000000e+00  -1.5499240362114187e-08 -9.2224595702285678e-09 0.0000000000000000e+00  -1.6340646053382214e-08 -6.1813914748926083e-09 0.0000000000000000e+00  -1.6799108026413378e-08 -3.0913142057983473e-09 0.0000000000000000e+00  -1.6943810671303067e-08 -1.4726468458760997e-12 0.0000000000000000e+00  -1.6799215572007817e-08 3.0883582846937748e-09 0.0000000000000000e+00  -1.6340998685200238e-08 6.1783594084647075e-09 0.0000000000000000e+00  -1.5500085044573038e-08 9.2191404735056166e-09 0.0000000000000000e+00  -1.4177523160150412e-08 1.2061614931463947e-08 0.0000000000000000e+00  -1.2277736828691515e-08 1.4411039232444729e-08 0.0000000000000000e+00  -9.7691659037818545e-09 1.5800933899583843e-08 0.0000000000000000e+00  -6.7739968652842130e-09 1.5616697495718650e-08 0.0000000000000000e+00  -3.6646536273031149e-09 1.3204779480074527e-08 0.0000000000000000e+00  -1.1374647497089313e-09 8.0840461732075667e-09 0.0000000000000000e+00  8.6810393596573989e-11 2.2373038613005703e-10 0.0000000000000000e+00  7.0310767008119473e-11 -1.1725651024501261e-10 0.0000000000000000e+00  -9.2392742704166367e-10 -6.2742994213794044e-09 0.0000000000000000e+00  -3.0497437388475773e-09 -1.0445668779333743e-08 0.0000000000000000e+00  -5.8087445549555172e-09 -1.2610725641898812e-08 0.0000000000000000e+00  -8.6358464587072293e-09 -1.3032847380123278e-08 0.0000000000000000e+00  -1.1175550607436891e-08 -1.2131253211301621e-08 0.0000000000000000e+00  -1.3248129197140187e-08 -1.0341113446531281e-08 0.0000000000000000e+00  -1.4803330841274203e-08 -8.0255650677894287e-09 0.0000000000000000e+00  -1.5862684199335628e-08 -5.4407300706771038e-09 0.0000000000000000e+00  -1.6472141401339055e-08 -2.7401814147937518e-09 0.0000000000000000e+00  -1.6670528614220713e-08 -1.5574476091229346e-12 0.0000000000000000e+00  -1.6472562569242815e-08 2.7370485440567951e-09 0.0000000000000000e+00  -1.5863598698084414e-08 5.4375163382376705e-09 0.0000000000000000e+00  -1.4804861092574442e-08 8.0221356738122369e-09 0.0000000000000000e+00  -1.3250412062174847e-08 1.0337265395477328e-08 0.0000000000000000e+00  -1.1178687787717637e-08 1.2126854206842358e-08 0.0000000000000000e+00  -8.6398427256373723e-09 1.3028196963884539e-08 0.0000000000000000e+00  -5.8130906649775257e-09 1.2606924225312116e-08 0.0000000000000000e+00  -3.0540753849614040e-09 1.0444749569761840e-08 0.0000000000000000e+00  -9.2152636247423715e-10 6.2776269182181635e-09 0.0000000000000000e+00  7.5528277081278280e-11 1.5772167054266700e-10 0.0000000000000000e+00  5.9893047217249922e-11 -8.2010815435003849e-11 0.0000000000000000e+00  -7.5490203723829937e-10 -4.7835242885265166e-09 0.0000000000000000e+00  -2.5457148885815527e-09 -8.0744757787924005e-09 0.0000000000000000e+00  -4.9539248627452461e-09 -9.8971527201618375e-09 0.0000000000000000e+00  -7.5285119135274908e-09 -1.0391864150807539e-08 0.0000000000000000e+00  -9.9513385557745003e-09 -9.8238429715223987e-09 0.0000000000000000e+00  -1.2024954069562527e-08 -8.4930667938295686e-09 0.0000000000000000e+00  -1.3653147598356224e-08 -6.6699773308081721e-09 0.0000000000000000e+00  -1.4806687831015019e-08 -4.5624664151732440e-09 0.0000000000000000e+00  -1.5490047292734517e-08 -2.3107894078477663e-09 0.0000000000000000e+00  -1.5716025416691765e-08 -1.5542962128879612e-12 0.0000000000000000e+00  -1.5490561756433660e-08 2.3076720821430843e-09 0.0000000000000000e+00  -1.4807745369136610e-08 4.5593133401082726e-09 0.0000000000000000e+00  -1.3654792639504032e-08 6.6667457343091690e-09 0.0000000000000000e+00  -1.2027225017341312e-08 8.4897356761432628e-09 0.0000000000000000e+00  -9.9542324095902202e-09 9.8205239695132886e-09 0.0000000000000000e+00  -7.5319359450906313e-09 1.0388970962357256e-08 0.0000000000000000e+00  -4.9574005261309338e-09 9.8954528652675752e-09 0.0000000000000000e+00  -2.5489288718573223e-09 8.0750681540876426e-09 0.0000000000000000e+00  -7.5280910608693885e-10 4.7868001772300158e-09 0.0000000000000000e+00  6.4918891694945639e-11 1.1126622786807228e-10 0.0000000000000000e+00  5.1454658044028880e-11 -5.6086946176641943e-11 0.0000000000000000e+00  -6.2530347533406307e-10 -3.5443179822783091e-09 0.0000000000000000e+00  -2.1446629866188597e-09 -6.0448950576236979e-09 0.0000000000000000e+00  -4.2421311490705779e-09 -7.4930492394269208e-09 0.0000000000000000e+00  -6.5540165915051064e-09 -7.9603598749877031e-09 0.0000000000000000e+00  -8.8019200816641696e-09 -7.6124850594148578e-09 0.0000000000000000e+00  -1.0789919322869557e-08 -6.6513859980326164e-09 0.0000000000000000e+00  -1.2399197997993125e-08 -5.2708713607411909e-09 0.0000000000000000e+00  -1.3569079972641095e-08 -3.6302695211081582e-09 0.0000000000000000e+00  -1.4275222512741065e-08 -1.8466598511935235e-09 0.0000000000000000e+00  -1.4511039300396445e-08 -1.5010556954998828e-12 0.0000000000000000e+00  -1.4275704422201595e-08 1.8436652297421762e-09 0.0000000000000000e+00  -1.3570049104248271e-08 3.6272989503908624e-09 0.0000000000000000e+00  -1.2400658024920806e-08 5.2679552193599267e-09 0.0000000000000000e+00  -1.0791859045480287e-08 6.6486055539134912e-09 0.0000000000000000e+00  -8.8042893780228288e-09 7.6100358524079664e-09 0.0000000000000000e+00  -6.5566949947733220e-09 7.9586104229306561e-09 0.0000000000000000e+00  -4.2447271815126200e-09 7.4924928904622900e-09 0.0000000000000000e+00  -2.1469524822711102e-09 6.0461450385706518e-09 0.0000000000000000e+00  -6.2358677404834692e-10 3.5473546582693345e-09 0.0000000000000000e+00  5.5758970448405165e-11 7.7782737573464827e-11 0.0000000000000000e+00  4.5077055728232137e-11 -3.6388801883121088e-11 0.0000000000000000e+00  -5.2992778816089287e-10 -2.4978466887611328e-09 0.0000000000000000e+00  -1.8420858663955944e-09 -4.2923814109035429e-09 0.0000000000000000e+00  -3.6890603720361575e-09 -5.3638902729598337e-09 0.0000000000000000e+00  -5.7704911674488902e-09 -5.7466356222055864e-09 0.0000000000000000e+00  -7.8420739232811526e-09 -5.5413798163292146e-09 0.0000000000000000e+00  -9.7168237538327260e-09 -4.8791331211550330e-09 0.0000000000000000e+00  -1.1266814646044272e-08 -3.8919642548201787e-09 0.0000000000000000e+00  -1.2413603126364220e-08 -2.6941338668538911e-09 0.0000000000000000e+00  -1.3114612494176095e-08 -1.3749357804458768e-09 0.0000000000000000e+00  -1.3350241903463301e-08 -1.4289171499538466e-12 0.0000000000000000e+00  -1.3114999169892745e-08 1.3721016444835033e-09 0.0000000000000000e+00  -1.2414372016720226e-08 2.6913774236713848e-09 0.0000000000000000e+00  -1.1267953005903645e-08 3.8893635069765606e-09 0.0000000000000000e+00  -9.7183026629391871e-09 4.8768165665316387e-09 0.0000000000000000e+00  -7.8438334062014281e-09 5.5395547132750360e-09 0.0000000000000000e+00  -5.7724228397123029e-09 5.7455958238514709e-09 0.0000000000000000e+00  -3.6908765189116894e-09 5.3639492465217994e-09 0.0000000000000000e+00  -1.8436406147011200e-09 4.2939013449507508e-09 0.0000000000000000e+00  -5.2863335891668430e-10 2.5006250967326043e-09 0.0000000000000000e+00  4.8403468525555174e-11 5.3035039003280667e-11 0.0000000000000000e+00  4.0743318381595867e-11 -2.0663873894814821e-11 0.0000000000000000e+00  -4.6480374897799058e-10 -1.5903722743486261e-09 0.0000000000000000e+00  -1.6321231635791817e-09 -2.7472349613896638e-09 0.0000000000000000e+00  -3.2978134886745442e-09 -3.4519409198457063e-09 0.0000000000000000e+00  -5.2041096406263753e-09 -3.7193816924100154e-09 0.0000000000000000e+00  -7.1319456600489042e-09 -3.6067646490437601e-09 0.0000000000000000e+00  -8.904036750521523