<?xml version="1.0"?>
<VTKFile type="UnstructuredGrid"  version="0.1"  >
<UnstructuredGrid>
<Piece  NumberOfPoints="651" NumberOfCells="1200">
<Points>
<DataArray  type="Float64"  NumberOfComponents="3"  format="ascii">0 0 0  50000 0 0  100000 0 0  150000 0 0  200000 0 0  250000 0 0  300000 0 0  350000 0 0  400000 0 0  450000 0 0  500000 0 0  550000 0 0  600000 0 0  650000 0 0  700000 0 0  750000 0 0  800000 0 0  850000 0 0  900000 0 0  950000 0 0  1000000 0 0  0 50000 0  50000 50000 0  100000 50000 0  150000 50000 0  200000 50000 0  250000 50000 0  300000 50000 0  350000 50000 0  400000 50000 0  450000 50000 0  500000 50000 0  550000 50000 0  600000 50000 0  650000 50000 0  700000 50000 0  750000 50000 0  800000 50000 0  850000 50000 0  900000 50000 0  950000 50000 0  1000000 50000 0  0 100000 0  50000 100000 0  100000 100000 0  150000 100000 0  200000 100000 0  250000 100000 0  300000 100000 0  350000 100000 0  400000 100000 0  450000 100000 0  500000 100000 0  550000 100000 0  600000 100000 0  650000 100000 0  700000 100000 0  750000 100000 0  800000 100000 0  850000 100000 0  900000 100000 0  950000 100000 0  1000000 100000 0  0 150000 0  50000 150000 0  100000 150000 0  150000 150000 0  200000 150000 0  250000 150000 0  300000 150000 0  350000 150000 0  400000 150000 0  450000 150000 0  500000 150000 0  550000 150000 0  600000 150000 0  650000 150000 0  700000 150000 0  750000 150000 0  800000 150000 0  850000 150000 0  900000 150000 0  950000 150000 0  1000000 150000 0  0 200000 0  50000 200000 0  100000 200000 0  150000 200000 0  200000 200000 0  250000 200000 0  300000 200000 0  350000 200000 0  400000 200000 0  450000 200000 0  500000 200000 0  550000 200000 0  600000 200000 0  650000 200000 0  700000 200000 0  750000 200000 0  800000 200000 0  850000 200000 0  900000 200000 0  950000 200000 0  1000000 200000 0  0 250000 0  50000 250000 0  100000 250000 0  150000 250000 0  200000 250000 0  250000 250000 0  300000 250000 0  350000 250000 0  400000 250000 0  450000 250000 0  500000 250000 0  550000 250000 0  600000 250000 0  650000 250000 0  700000 250000 0  750000 250000 0  800000 250000 0  850000 250000 0  900000 250000 0  950000 250000 0  1000000 250000 0  0 300000 0  50000 300000 0  100000 300000 0  150000 300000 0  200000 300000 0  250000 300000 0  300000 300000 0  350000 300000 0  400000 300000 0  450000 300000 0  500000 300000 0  550000 300000 0  600000 300000 0  650000 300000 0  700000 300000 0  750000 300000 0  800000 300000 0  850000 300000 0  900000 300000 0  950000 300000 0  1000000 300000 0  0 350000 0  50000 350000 0  100000 350000 0  150000 350000 0  200000 350000 0  250000 350000 0  300000 350000 0  350000 350000 0  400000 350000 0  450000 350000 0  500000 350000 0  550000 350000 0  600000 350000 0  650000 350000 0  700000 350000 0  750000 350000 0  800000 350000 0  850000 350000 0  900000 350000 0  950000 350000 0  1000000 350000 0  0 400000 0  50000 400000 0  100000 400000 0  150000 400000 0  200000 400000 0  250000 400000 0  300000 400000 0  350000 400000 0  400000 400000 0  450000 400000 0  500000 400000 0  550000 400000 0  600000 400000 0  650000 400000 0  700000 400000 0  750000 400000 0  800000 400000 0  850000 400000 0  900000 400000 0  950000 400000 0  1000000 400000 0  0 450000 0  50000 450000 0  100000 450000 0  150000 450000 0  200000 450000 0  250000 450000 0  300000 450000 0  350000 450000 0  400000 450000 0  450000 450000 0  500000 450000 0  550000 450000 0  600000 450000 0  650000 450000 0  700000 450000 0  750000 450000 0  800000 450000 0  850000 450000 0  900000 450000 0  950000 450000 0  1000000 450000 0  0 500000 0  50000 500000 0  100000 500000 0  150000 500000 0  200000 500000 0  250000 500000 0  300000 500000 0  350000 500000 0  400000 500000 0  450000 500000 0  500000 500000 0  550000 500000 0  600000 500000 0  650000 500000 0  700000 500000 0  750000 500000 0  800000 500000 0  850000 500000 0  900000 500000 0  950000 500000 0  1000000 500000 0  0 550000 0  50000 550000 0  100000 550000 0  150000 550000 0  200000 550000 0  250000 550000 0  300000 550000 0  350000 550000 0  400000 550000 0  450000 550000 0  500000 550000 0  550000 550000 0  600000 550000 0  650000 550000 0  700000 550000 0  750000 550000 0  800000 550000 0  850000 550000 0  900000 550000 0  950000 550000 0  1000000 550000 0  0 600000 0  50000 600000 0  100000 600000 0  150000 600000 0  200000 600000 0  250000 600000 0  300000 600000 0  350000 600000 0  400000 600000 0  450000 600000 0  500000 600000 0  550000 600000 0  600000 600000 0  650000 600000 0  700000 600000 0  750000 600000 0  800000 600000 0  850000 600000 0  900000 600000 0  950000 600000 0  1000000 600000 0  0 650000 0  50000 650000 0  100000 650000 0  150000 650000 0  200000 650000 0  250000 650000 0  300000 650000 0  350000 650000 0  400000 650000 0  450000 650000 0  500000 650000 0  550000 650000 0  600000 650000 0  650000 650000 0  700000 650000 0  750000 650000 0  800000 650000 0  850000 650000 0  900000 650000 0  950000 650000 0  1000000 650000 0  0 700000 0  50000 700000 0  100000 700000 0  150000 700000 0  200000 700000 0  250000 700000 0  300000 700000 0  350000 700000 0  400000 700000 0  450000 700000 0  500000 700000 0  550000 700000 0  600000 700000 0  650000 700000 0  700000 700000 0  750000 700000 0  800000 700000 0  850000 700000 0  900000 700000 0  950000 700000 0  1000000 700000 0  0 750000 0  50000 750000 0  100000 750000 0  150000 750000 0  200000 750000 0  250000 750000 0  300000 750000 0  350000 750000 0  400000 750000 0  450000 750000 0  500000 750000 0  550000 750000 0  600000 750000 0  650000 750000 0  700000 750000 0  750000 750000 0  800000 750000 0  850000 750000 0  900000 750000 0  950000 750000 0  1000000 750000 0  0 800000 0  50000 800000 0  100000 800000 0  150000 800000 0  200000 800000 0  250000 800000 0  300000 800000 0  350000 800000 0  400000 800000 0  450000 800000 0  500000 800000 0  550000 800000 0  600000 800000 0  650000 800000 0  700000 800000 0  750000 800000 0  800000 800000 0  850000 800000 0  900000 800000 0  950000 800000 0  1000000 800000 0  0 850000 0  50000 850000 0  100000 850000 0  150000 850000 0  200000 850000 0  250000 850000 0  300000 850000 0  350000 850000 0  400000 850000 0  450000 850000 0  500000 850000 0  550000 850000 0  600000 850000 0  650000 850000 0  700000 850000 0  750000 850000 0  800000 850000 0  850000 850000 0  900000 850000 0  950000 850000 0  1000000 850000 0  0 900000 0  50000 900000 0  100000 900000 0  150000 900000 0  200000 900000 0  250000 900000 0  300000 900000 0  350000 900000 0  400000 900000 0  450000 900000 0  500000 900000 0  550000 900000 0  600000 900000 0  650000 900000 0  700000 900000 0  750000 900000 0  800000 900000 0  850000 900000 0  900000 900000 0  950000 900000 0  1000000 900000 0  0 950000 0  50000 950000 0  100000 950000 0  150000 950000 0  200000 950000 0  250000 950000 0  300000 950000 0  350000 950000 0  400000 950000 0  450000 950000 0  500000 950000 0  550000 950000 0  600000 950000 0  650000 950000 0  700000 950000 0  750000 950000 0  800000 950000 0  850000 950000 0  900000 950000 0  950000 950000 0  1000000 950000 0  0 1000000 0  50000 1000000 0  100000 1000000 0  150000 1000000 0  200000 1000000 0  250000 1000000 0  300000 1000000 0  350000 1000000 0  400000 1000000 0  450000 1000000 0  500000 1000000 0  550000 1000000 0  600000 1000000 0  650000 1000000 0  700000 1000000 0  750000 1000000 0  800000 1000000 0  850000 1000000 0  900000 1000000 0  950000 1000000 0  1000000 1000000 0  0 1050000 0  50000 1050000 0  100000 1050000 0  150000 1050000 0  200000 1050000 0  250000 1050000 0  300000 1050000 0  350000 1050000 0  400000 1050000 0  450000 1050000 0  500000 1050000 0  550000 1050000 0  600000 1050000 0  650000 1050000 0  700000 1050000 0  750000 1050000 0  800000 1050000 0  850000 1050000 0  900000 1050000 0  950000 1050000 0  1000000 1050000 0  0 1100000 0  50000 1100000 0  100000 1100000 0  150000 1100000 0  200000 1100000 0  250000 1100000 0  300000 1100000 0  350000 1100000 0  400000 1100000 0  450000 1100000 0  500000 1100000 0  550000 1100000 0  600000 1100000 0  650000 1100000 0  700000 1100000 0  750000 1100000 0  800000 1100000 0  850000 1100000 0  900000 1100000 0  950000 1100000 0  1000000 1100000 0  0 1150000 0  50000 1150000 0  100000 1150000 0  150000 1150000 0  200000 1150000 0  250000 1150000 0  300000 1150000 0  350000 1150000 0  400000 1150000 0  450000 1150000 0  500000 1150000 0  550000 1150000 0  600000 1150000 0  650000 1150000 0  700000 1150000 0  750000 1150000 0  800000 1150000 0  850000 1150000 0  900000 1150000 0  950000 1150000 0  1000000 1150000 0  0 1200000 0  50000 1200000 0  100000 1200000 0  150000 1200000 0  200000 1200000 0  250000 1200000 0  300000 1200000 0  350000 1200000 0  400000 1200000 0  450000 1200000 0  500000 1200000 0  550000 1200000 0  600000 1200000 0  650000 1200000 0  700000 1200000 0  750000 1200000 0  800000 1200000 0  850000 1200000 0  900000 1200000 0  950000 1200000 0  1000000 1200000 0  0 1250000 0  50000 1250000 0  100000 1250000 0  150000 1250000 0  200000 1250000 0  250000 1250000 0  300000 1250000 0  350000 1250000 0  400000 1250000 0  450000 1250000 0  500000 1250000 0  550000 1250000 0  600000 1250000 0  650000 1250000 0  700000 1250000 0  750000 1250000 0  800000 1250000 0  850000 1250000 0  900000 1250000 0  950000 1250000 0  1000000 1250000 0  0 1300000 0  50000 1300000 0  100000 1300000 0  150000 1300000 0  200000 1300000 0  250000 1300000 0  300000 1300000 0  350000 1300000 0  400000 1300000 0  450000 1300000 0  500000 1300000 0  550000 1300000 0  600000 1300000 0  650000 1300000 0  700000 1300000 0  750000 1300000 0  800000 1300000 0  850000 1300000 0  900000 1300000 0  950000 1300000 0  1000000 1300000 0  0 1350000 0  50000 1350000 0  100000 1350000 0  150000 1350000 0  200000 1350000 0  250000 1350000 0  300000 1350000 0  350000 1350000 0  400000 1350000 0  450000 1350000 0  500000 1350000 0  550000 1350000 0  600000 1350000 0  650000 1350000 0  700000 135
[...]
<PointData  Vectors="f_10477"> 
<DataArray  type="Float64"  Name="f_10477"  NumberOfComponents="3" format="ascii">-5.5045325058763219e-09 -3.0651159273097586e-09 0.0000000000000000e+00  7.5596306610438734e-08 -2.0025680690846249e-09 0.0000000000000000e+00  7.8355615287541279e-08 -3.3550335147481737e-11 0.0000000000000000e+00  7.9137725271279704e-08 2.8563009831380975e-10 0.0000000000000000e+00  7.9526771899913225e-08 2.4654494116541243e-10 0.0000000000000000e+00  7.9714182263989127e-08 1.7735389097205393e-10 0.0000000000000000e+00  7.9811110378616833e-08 1.2165121353327782e-10 0.0000000000000000e+00  7.9864010389099119e-08 7.9614984039049056e-11 0.0000000000000000e+00  7.9892522988516221e-08 4.6507459097453783e-11 0.0000000000000000e+00  7.9905361398513132e-08 1.8388171374384861e-11 0.0000000000000000e+00  7.9905996600575979e-08 -7.7182340944103661e-12 0.0000000000000000e+00  7.9894600247706348e-08 -3.4327663503863313e-11 0.0000000000000000e+00  7.9868161509795858e-08 -6.3971961160225493e-11 0.0000000000000000e+00  7.9818930814326708e-08 -9.9623857785961645e-11 0.0000000000000000e+00  7.9729744954436471e-08 -1.4503201848054308e-10 0.0000000000000000e+00  7.9561048674610916e-08 -2.0439780624317787e-10 0.0000000000000000e+00  7.9218562164044052e-08 -2.7688494853522082e-10 0.0000000000000000e+00  7.8518971529910076e-08 -2.9351858079550158e-10 0.0000000000000000e+00  7.7063250230665786e-08 5.1261771903956557e-10 0.0000000000000000e+00  7.3039908970937305e-08 4.6862877067313117e-09 0.0000000000000000e+00  -7.8773075286045992e-09 4.8868649637924237e-09 0.0000000000000000e+00  -3.8622678619738599e-09 -3.3979517024225183e-09 0.0000000000000000e+00  -1.3988244802781124e-09 -2.3722846887417560e-08 0.0000000000000000e+00  1.7238599599709532e-08 -1.4051149582811788e-08 0.0000000000000000e+00  3.1898599165543975e-08 -7.8131840207441919e-09 0.0000000000000000e+00  4.1361332497130468e-08 -4.6195825461042881e-09 0.0000000000000000e+00  4.7514075048890112e-08 -2.8997497228556480e-09 0.0000000000000000e+00  5.1595101898624906e-08 -1.8799796593172423e-09 0.0000000000000000e+00  5.4299380347747495e-08 -1.2115015651028502e-09 0.0000000000000000e+00  5.6020180760362967e-08 -7.2920084411601613e-10 0.0000000000000000e+00  5.6977983099483643e-08 -3.4488235999815877e-10 0.0000000000000000e+00  5.7285472435544445e-08 -3.3952862504843296e-12 0.0000000000000000e+00  5.6977333940223702e-08 3.3776789970015133e-10 0.0000000000000000e+00  5.6018907588718485e-08 7.2101555709645567e-10 0.0000000000000000e+00  5.4297821346319658e-08 1.2010916122962391e-09 0.0000000000000000e+00  5.1595107739172848e-08 1.8649086310732336e-09 0.0000000000000000e+00  4.7523297393529522e-08 2.8735778058454348e-09 0.0000000000000000e+00  4.1406766669972025e-08 4.5685485352797075e-09 0.0000000000000000e+00  3.2082591679337128e-08 7.7719072642501724e-09 0.0000000000000000e+00  1.7918566555872784e-08 1.4426408095717900e-08 0.0000000000000000e+00  -2.9273423264273742e-10 2.5417718313834223e-08 0.0000000000000000e+00  -6.4251582321947144e-09 5.0959921345603626e-09 0.0000000000000000e+00  -1.0980076008741695e-09 -1.8229891801255180e-09 0.0000000000000000e+00  -6.5395337916710039e-09 -2.9809726045309174e-08 0.0000000000000000e+00  -2.6609405204215436e-09 -2.6241402557701288e-08 0.0000000000000000e+00  6.4534277258087504e-09 -1.8729041874773771e-08 0.0000000000000000e+00  1.5643123390710520e-08 -1.2826084754115667e-08 0.0000000000000000e+00  2.3061635756341779e-08 -8.7724826711804525e-09 0.0000000000000000e+00  2.8600109866765757e-08 -5.9801635583055853e-09 0.0000000000000000e+00  3.2537021512134529e-08 -3.9703663329492775e-09 0.0000000000000000e+00  3.5150806298523209e-08 -2.4300591163901147e-09 0.0000000000000000e+00  3.6642023191323973e-08 -1.1549325914080777e-09 0.0000000000000000e+00  3.7127112960277158e-08 3.4266419924960943e-13 0.0000000000000000e+00  3.6644160298222677e-08 1.1558013582179564e-09 0.0000000000000000e+00  3.5155915827923953e-08 2.4315668791536233e-09 0.0000000000000000e+00  3.2547412448836227e-08 3.9733089724067787e-09 0.0000000000000000e+00  2.8621419964767268e-08 5.9863609032827464e-09 0.0000000000000000e+00  2.3107696046223809e-08 8.7877669604966705e-09 0.0000000000000000e+00  1.5747024898869921e-08 1.2872675282766898e-08 0.0000000000000000e+00  6.6615747036075287e-09 1.8866245112892277e-08 0.0000000000000000e+00  -2.4079106798069831e-09 2.6477245574994888e-08 0.0000000000000000e+00  -6.0749731944782860e-09 2.8960624716264411e-08 0.0000000000000000e+00  -1.9007280181155698e-09 2.3836063460684816e-09 0.0000000000000000e+00  -1.3735829576968774e-10 -9.7821345653397632e-10 0.0000000000000000e+00  -4.4023931436228601e-09 -2.5406455952194826e-08 0.0000000000000000e+00  -6.4273559712292732e-09 -2.9806171573968471e-08 0.0000000000000000e+00  -3.8494123299549829e-09 -2.5686119417860521e-08 0.0000000000000000e+00  1.3063879244839421e-09 -1.9928569649487425e-08 0.0000000000000000e+00  6.8437418583421706e-09 -1.4770719412168892e-08 0.0000000000000000e+00  1.1688623349486542e-08 -1.0603077527409113e-08 0.0000000000000000e+00  1.5474139029549527e-08 -7.2763383973868037e-09 0.0000000000000000e+00  1.8136639733542073e-08 -4.5456934582237260e-09 0.0000000000000000e+00  1.9707544265628659e-08 -2.1852222475379229e-09 0.0000000000000000e+00  2.0226987961298637e-08 -5.9344592300602462e-13 0.0000000000000000e+00  1.9711361870008239e-08 2.1841872496816104e-09 0.0000000000000000e+00  1.8145200334344166e-08 4.5452446031537383e-09 0.0000000000000000e+00  1.5489633369325344e-08 7.2774417632397178e-09 0.0000000000000000e+00  1.1715178596589109e-08 1.0608247665455508e-08 0.0000000000000000e+00  6.8873809673822606e-09 1.4786606233352570e-08 0.0000000000000000e+00  1.3679837811239473e-09 1.9969286951421304e-08 0.0000000000000000e+00  -3.7865847600024370e-09 2.5752764818827806e-08 0.0000000000000000e+00  -6.3793251271453105e-09 2.9752518365080137e-08 0.0000000000000000e+00  -4.1752993145741213e-09 2.5021120133090199e-08 0.0000000000000000e+00  -2.3074981411252374e-10 1.4059049155337254e-09 0.0000000000000000e+00  6.2694259134833660e-11 -6.0520728413630797e-10 0.0000000000000000e+00  -2.9237230869059402e-09 -2.0847981866985658e-08 0.0000000000000000e+00  -6.3180499671239796e-09 -2.8499213654597624e-08 0.0000000000000000e+00  -7.2781626721597282e-09 -2.7949832645913826e-08 0.0000000000000000e+00  -5.7283136755596054e-09 -2.3903482004985289e-08 0.0000000000000000e+00  -2.8643996638541702e-09 -1.9003444027770757e-08 0.0000000000000000e+00  2.6922896000414105e-10 -1.4326136968966199e-08 0.0000000000000000e+00  3.0458561410384932e-09 -1.0162773843652345e-08 0.0000000000000000e+00  5.1517924031058378e-09 -6.4853451854712217e-09 0.0000000000000000e+00  6.4496823751383021e-09 -3.1549085337960639e-09 0.0000000000000000e+00  6.8877125032338679e-09 -1.0404101822563130e-12 0.0000000000000000e+00  6.4533449680640214e-09 3.1530321179143987e-09 0.0000000000000000e+00  5.1595284969109542e-09 6.4842307701374782e-09 0.0000000000000000e+00  3.0583913513024214e-09 1.0163496699379556e-08 0.0000000000000000e+00  2.8712614758260853e-10 1.4330737109209063e-08 0.0000000000000000e+00  -2.8419251894616810e-09 1.9014423818810541e-08 0.0000000000000000e+00  -5.7042926821642870e-09 2.3917820494184464e-08 0.0000000000000000e+00  -7.2567736860478122e-09 2.7941479083591679e-08 0.0000000000000000e+00  -6.2944474242636619e-09 2.8406471637928168e-08 0.0000000000000000e+00  -2.8472114112458490e-09 2.0724011369080860e-08 0.0000000000000000e+00  2.3959375057919960e-11 8.8366137357400551e-10 0.0000000000000000e+00  8.9440290869176666e-11 -3.9875568121768251e-10 0.0000000000000000e+00  -2.1107725104645768e-09 -1.7147389139610210e-08 0.0000000000000000e+00  -5.5282183198698180e-09 -2.5515325253577681e-08 0.0000000000000000e+00  -8.0330443533535142e-09 -2.7238877454945086e-08 0.0000000000000000e+00  -8.8148365607752863e-09 -2.5040683204553703e-08 0.0000000000000000e+00  -8.2216155818112502e-09 -2.1073727160792357e-08 0.0000000000000000e+00  -6.9014555554007463e-09 -1.6577251803793948e-08 0.0000000000000000e+00  -5.4160535259118364e-09 -1.2121540980170183e-08 0.0000000000000000e+00  -4.1442257850572202e-09 -7.8926737271957465e-09 0.0000000000000000e+00  -3.3074684782733856e-09 -3.8840011266346133e-09 0.0000000000000000e+00  -3.0166446743124110e-09 -1.6620881060715026e-12 0.0000000000000000e+00  -3.3049532442833813e-09 3.8808713101602566e-09 0.0000000000000000e+00  -4.1392617881145054e-09 7.8902118402817383e-09 0.0000000000000000e+00  -5.4089337160319682e-09 1.2120428342699385e-08 0.0000000000000000e+00  -6.8930017519958460e-09 1.6578199481165042e-08 0.0000000000000000e+00  -8.2134385893833665e-09 2.1076161012020335e-08 0.0000000000000000e+00  -8.8087476289633886e-09 2.5038706182225301e-08 0.0000000000000000e+00  -8.0276719934449879e-09 2.7216344277659002e-08 0.0000000000000000e+00  -5.5225319170474998e-09 2.5466375382530616e-08 0.0000000000000000e+00  -2.0900535254229583e-09 1.7115925970136661e-08 0.0000000000000000e+00  7.1776684214569625e-11 5.5854143575593327e-10 0.0000000000000000e+00  8.6074041166095521e-11 -2.7688016506375917e-10 0.0000000000000000e+00  -1.6343074842711329e-09 -1.4147098325264866e-08 0.0000000000000000e+00  -4.7643378062818857e-09 -2.2163932684994566e-08 0.0000000000000000e+00  -7.8316113291093746e-09 -2.5017469643375640e-08 0.0000000000000000e+00  -9.9150670196963645e-09 -2.4225008724606709e-08 0.0000000000000000e+00  -1.0902659076943147e-08 -2.1304356525328813e-08 0.0000000000000000e+00  -1.1068476048869971e-08 -1.7353592093129446e-08 0.0000000000000000e+00  -1.0782384308459300e-08 -1.3023481311983749e-08 0.0000000000000000e+00  -1.0361259826838594e-08 -8.6325718676365663e-09 0.0000000000000000e+00  -1.0025434143207185e-08 -4.2925035071737781e-09 0.0000000000000000e+00  -9.8997522770715293e-09 -2.0464234580923342e-12 0.0000000000000000e+00  -1.0024267267815498e-08 4.2885808165240047e-09 0.0000000000000000e+00  -1.0359170982198000e-08 8.6291732934209360e-09 0.0000000000000000e+00  -1.0779898438843353e-08 1.3020917742271310e-08 0.0000000000000000e+00  -1.1066388631920994e-08 1.7351760151282144e-08 0.0000000000000000e+00  -1.0901835835031735e-08 2.1301785342336934e-08 0.0000000000000000e+00  -9.9161390423438410e-09 2.4217758696815146e-08 0.0000000000000000e+00  -7.8333864705483308e-09 2.5000779657259205e-08 0.0000000000000000e+00  -4.7675971669737369e-09 2.2143839803000282e-08 0.0000000000000000e+00  -1.6290829370334207e-09 1.4142683552608511e-08 0.0000000000000000e+00  7.9813217587276944e-11 3.7379931751925015e-10 0.0000000000000000e+00  7.8432814344937472e-11 -1.9903403305022995e-10 0.0000000000000000e+00  -1.3277217819242433e-09 -1.1652733086617109e-08 0.0000000000000000e+00  -4.1316905140510300e-09 -1.8881941816895681e-08 0.0000000000000000e+00  -7.3129353455862510e-09 -2.2131406895532587e-08 0.0000000000000000e+00  -1.0040797090336908e-08 -2.2241604685945691e-08 0.0000000000000000e+00  -1.2005457227099121e-08 -2.0221114966513882e-08 0.0000000000000000e+00  -1.3227911880242862e-08 -1.6932217962188524e-08 0.0000000000000000e+00  -1.3885819262328132e-08 -1.2981435637318745e-08 0.0000000000000000e+00  -1.4185146820178316e-08 -8.7351696617772359e-09 0.0000000000000000e+00  -1.4294381935836652e-08 -4.3824550149959683e-09 0.0000000000000000e+00  -1.4318918391501455e-08 -2.2166041564613865e-12 0.0000000000000000e+00  -1.4294261133016253e-08 4.3781588285609573e-09 0.0000000000000000e+00  -1.4185115571579766e-08 8.7312558332999350e-09 0.0000000000000000e+00  -1.3886259395695874e-08 1.2978006991214622e-08 0.0000000000000000e+00  -1.3229270454097370e-08 1.6928969145111089e-08 0.0000000000000000e+00  -1.2008058534370140e-08 2.0216989438499383e-08 0.0000000000000000e+00  -1.0044758396011731e-08 2.2235015380296090e-08 0.0000000000000000e+00  -7.3174231621735248e-09 2.2122216265819930e-08 0.0000000000000000e+00  -4.1370909787363737e-09 1.8875121967217467e-08 0.0000000000000000e+00  -1.3261630748370560e-09 1.1655397436785109e-08 0.0000000000000000e+00  7.7267591759974650e-11 2.6233992311101414e-10 0.0000000000000000e+00  7.0941110131641320e-11 -1.4559757026974238e-10 0.0000000000000000e+00  -1.1135827639306776e-09 -9.5321139526315110e-09 0.0000000000000000e+00  -3.6163879871825675e-09 -1.5809877059837740e-08 0.0000000000000000e+00  -6.7122987024790968e-09 -1.9024354736923256e-08 0.0000000000000000e+00  -9.6992564935433462e-09 -1.9637369173527399e-08 0.0000000000000000e+00  -1.2204259228200408e-08 -1.8302434497948561e-08 0.0000000000000000e+00  -1.4101749707207988e-08 -1.5656335966380352e-08 0.0000000000000000e+00  -1.5421825603979230e-08 -1.2209002147265796e-08 0.0000000000000000e+00  -1.6259991388523701e-08 -8.3166368944850224e-09 0.0000000000000000e+00  -1.6716015699608468e-08 -4.2033392967282644e-09 0.0000000000000000e+00  -1.6859922291230695e-08 -2.2139194889144599e-12 0.0000000000000000e+00  -1.6716518295688477e-08 4.1990202293055499e-09 0.0000000000000000e+00  -1.6261110734131100e-08 8.3126054316795795e-09 0.0000000000000000e+00  -1.5423742061952777e-08 1.2205302498201120e-08 0.0000000000000000e+00  -1.4104624081519378e-08 1.5652763061995610e-08 0.0000000000000000e+00  -1.2208126461773090e-08 1.8298528081231901e-08 0.0000000000000000e+00  -9.7040018255765446e-09 1.9632849020882194e-08 0.0000000000000000e+00  -6.7171688302026173e-09 1.9020050521560438e-08 0.0000000000000000e+00  -3.6213452575830669e-09 1.5808493649615455e-08 0.0000000000000000e+00  -1.1127913754028658e-09 9.5360068398451551e-09 0.0000000000000000e+00  7.1926942023936484e-11 1.8950559243067173e-10 0.0000000000000000e+00  6.4333702480689120e-11 -1.0688701334196213e-10 0.0000000000000000e+00  -9.5465267972406780e-10 -7.6981518397142805e-09 0.0000000000000000e+00  -3.1933442357534966e-09 -1.2984100212727363e-08 0.0000000000000000e+00  -6.1208232699628780e-09 -1.5920910624438613e-08 0.0000000000000000e+00  -9.1517447792932551e-09 -1.6756381218875663e-08 0.0000000000000000e+00  -1.1909739603278145e-08 -1.5908365951588745e-08 0.0000000000000000e+00  -1.4193300415300894e-08 -1.3831503775893598e-08 0.0000000000000000e+00  -1.5933055798701319e-08 -1.0929572603044040e-08 0.0000000000000000e+00  -1.7135210098324073e-08 -7.5176256362400164e-09 0.0000000000000000e+00  -1.7834759725263199e-08 -3.8220048106571925e-09 0.0000000000000000e+00  -1.8064017102815686e-08 -2.0995438544038150e-12 0.0000000000000000e+00  -1.7835535046059881e-08 3.8178968892652893e-09 0.0000000000000000e+00  -1.7136795005959946e-08 7.5137611688557188e-09 0.0000000000000000e+00  -1.5935486600846387e-08 1.0926017059839682e-08 0.0000000000000000e+00  -1.4196566034689282e-08 1.3828211423693772e-08 0.0000000000000000e+00  -1.1913725019992954e-08 1.5905263679106727e-08 0.0000000000000000e+00  -9.1562198882474427e-09 1.6753647649261023e-08 0.0000000000000000e+00  -6.1250920861862259e-09 1.5919242048796707e-08 0.0000000000000000e+00  -3.1972672153753681e-09 1.2984743864878579e-08 0.0000000000000000e+00  -9.5397894531728022e-10 7.7017292990482690e-09 0.0000000000000000e+00  6.6164320422201224e-11 1.3882203263448473e-10 0.0000000000000000e+00  5.8708594371297660e-11 -7.7703220452122355e-11 0.0000000000000000e+00  -8.3245937899097807e-10 -6.0902698893873185e-09 0.0000000000000000e+00  -2.8453648826582859e-09 -1.0400260987051514e-08 0.0000000000000000e+00  -5.5791880656202622e-09 -1.2928503312617934e-08 0.0000000000000000e+00  -8.5424858988281108e-09 -1.3801412677656215e-08 0.0000000000000000e+00  -1.1378284699158439e-08 -1.3283131832596632e-08 0.0000000000000000e+00  -1.3850405055018036e-08 -1.1690963499637339e-08 0.0000000000000000e+00  -1.5827818694883317e-08 -9.3317844275494467e-09 0.0000000000000000e+00  -1.7252414920062812e-08 -6.4668644225634414e-09 0.0000000000000000e+00  -1.8107233764763763e-08 -3.3029701677234024e-09 0.0000000000000000e+00  -1.8391941854657615e-08 -1.9272006107391583e-12 0.0000000000000000e+00  -1.8108050215478887e-08 3.2991990761216396e-09 0.0000000000000000e+00  -1.7254035309363989e-08 6.4633255025518721e-09 0.0000000000000000e+00  -1.5830201221978978e-08 9.3285824083916840e-09 0.0000000000000000e+00  -1.3853454045784420e-08 1.1688166339860264e-08 0.0000000000000000e+00  -1.1381820601553043e-08 1.3280838137853566e-08 0.0000000000000000e+00  -8.5462441408614163e-09 1.3799871144840465e-08 0.0000000000000000e+00  -5.5825796719420662e-09 1.2928120679073082e-08 0.0000000000000000e+00  -2.8482926890261322e-09 1.0401543684967056e-08 0.0000000000000000e+00  -8.3179752332174442e-10 6.0932655932700245e-09 0.0000000000000000e+00  6.0760174105700553e-11 1.0183477836303846e-10 0.0000000000000000e+00  5.4083416787879649e-11 -5.4964219386185305e-11 0.0000000000000000e+00  -7.3782137311624791e-10 -4.6621708206881350e-09 0.0000000000000000e+00  -2.5634584843382980e-09 -8.0353071046768651e-09 0.0000000000000000e+00  -5.1102325298835594e-09 -1.0088946184322662e-08 0.0000000000000000e+00  -7.9583382639642914e-09 -1.0881835549007649e-08 0.0000000000000000e+00  -1.0775882758826293e-08 -1.0578287804336271e-08 0.0000000000000000e+00  -1.3314168979433360e-08 -9.3946370316565172e-09 0.0000000000000000e+00  -1.5406497010789604e-08 -7.5554246024126147e-09 0.0000000000000000e+00  -1.6951977661903015e-08 -5.2654250546642806e-09 0.0000000000000000e+00  -1.7896029912371192e-08 -2.6987604022100008e-09 0.0000000000000000e+00  -1.8213345836467207e-08 -1.7393865582533250e-12 0.0000000000000000e+00  -1.7896755778618575e-08 2.6953627392652476e-09 0.0000000000000000e+00  -1.6953397015778170e-08 5.2622617465103311e-09 0.0000000000000000e+00  -1.5408537639577986e-08 7.5526291125348459e-09 0.0000000000000000e+00  -1.3316708121029407e-08 9.3923325836073871e-09 0.0000000000000000e+00  -1.0778732962149864e-08 1.0576619362729085e-08 0.0000000000000000e+00  -7.9612561565387063e-09 1.0881001669768260e-08 0.0000000000000000e+00  -5.1127617540232396e-09 1.0089139866385597e-08 0.0000000000000000e+00  -2.5655632110107419e-09 8.0367070057904168e-09 0.0000000000000000e+00  -7.3719915719601104e-10 4.6646637859516743e-09 0.0000000000000000e+00  5.6015842746154383e-11 7.3823918674602880e-11 0.0000000000000000e+00  5.0488998719218474e-11 -3.6637743256191793e-11 0.0000000000000000e+00  -6.6630604149136496e-10 -3.3746378504778974e-09 0.0000000000000000e+00  -2.3440842684388093e-09 -5.8556441794231564e-09 0.0000000000000000e+00  -4.7297020850284711e-09 -7.4050095743489916e-09 0.0000000000000000e+00  -7.4556526659764162e-09 -8.0457748134087556e-09 0.0000000000000000e+00  -1.0213190608309954e-08 -7.8771050881659939e-09 0.0000000000000000e+00  -1.2751786468377134e-08 -7.0409345736127836e-09 0.0000000000000000e+00  -1.4885497728711770e-08 -5.6932257010873538e-09 0.0000000000000000e+00  -1.6486820228937156e-08 -3.9838789522134077e-09 0.0000000000000000e+00  -1.7476030507969659e-08 -2.0471850098174985e-09 0.0000000000000000e+00  -1.7810405704641711e-08 -1.5671553765497612e-12 0.0000000000000000e+00  -1.7476600386534049e-08 2.0441315942751034e-09 0.0000000000000000e+00  -1.6487925025983941e-08 3.9810635870308079e-09 0.0000000000000000e+00  -1.4887064717392891e-08 5.6907953104246657e-09 0.0000000000000000e+00  -1.2753701553893454e-08 7.0390288064614613e-09 0.0000000000000000e+00  -1.0215293633762694e-08 7.8758630941623994e-09 0.0000000000000000e+00  -7.4577512904519913e-09 8.0453317850216138e-09 0.0000000000000000e+00  -4.7314710750124147e-09 7.4054367689873604e-09 0.0000000000000000e+00  -2.3455271421490478e-09 5.8569951688924603e-09 0.0000000000000000e+00  -6.6577826654594129e-10 3.3767713772311834e-09 0.0000000000000000e+00  5.2093028255013444e-11 5.1911030240392236e-11 0.0000000000000000e+00  4.7968885063002702e-11 -2.1228794394402811e-11 0.0000000000000000e+00  -6.1590513438172823e-10 -2.1915723578091322e-09 0.0000000000000000e+00  -2.1866486301251789e-09 -3.8206683217932347e-09 0.0000000000000000e+00  -4.4493987955830743e-09 -4.8550731174080197e-09 0.0000000000000000e+00  -7.0722757275156401e-09 -5.3012291594371490e-09 0.0000000000000000e+00  -9.7643897673587209e-09 -5.2148697701281545e-09 0.0000000000000000e+00  -1.2277433142936244e-