<?xml version="1.0"?>
<VTKFile type="UnstructuredGrid"  version="0.1"  >
<UnstructuredGrid>
<Piece  NumberOfPoints="651" NumberOfCells="1200">
<Points>
<DataArray  type="Float64"  NumberOfComponents="3"  format="ascii">0 0 0  50000 0 0  100000 0 0  150000 0 0  200000 0 0  250000 0 0  300000 0 0  350000 0 0  400000 0 0  450000 0 0  500000 0 0  550000 0 0  600000 0 0  650000 0 0  700000 0 0  750000 0 0  800000 0 0  850000 0 0  900000 0 0  950000 0 0  1000000 0 0  0 50000 0  50000 50000 0  100000 50000 0  150000 50000 0  200000 50000 0  250000 50000 0  300000 50000 0  350000 50000 0  400000 50000 0  450000 50000 0  500000 50000 0  550000 50000 0  600000 50000 0  650000 50000 0  700000 50000 0  750000 50000 0  800000 50000 0  850000 50000 0  900000 50000 0  950000 50000 0  1000000 50000 0  0 100000 0  50000 100000 0  100000 100000 0  150000 100000 0  200000 100000 0  250000 100000 0  300000 100000 0  350000 100000 0  400000 100000 0  450000 100000 0  500000 100000 0  550000 100000 0  600000 100000 0  650000 100000 0  700000 100000 0  750000 100000 0  800000 100000 0  850000 100000 0  900000 100000 0  950000 100000 0  1000000 100000 0  0 150000 0  50000 150000 0  100000 150000 0  150000 150000 0  200000 150000 0  250000 150000 0  300000 150000 0  350000 150000 0  400000 150000 0  450000 150000 0  500000 150000 0  550000 150000 0  600000 150000 0  650000 150000 0  700000 150000 0  750000 150000 0  800000 150000 0  850000 150000 0  900000 150000 0  950000 150000 0  1000000 150000 0  0 200000 0  50000 200000 0  100000 200000 0  150000 200000 0  200000 200000 0  250000 200000 0  300000 200000 0  350000 200000 0  400000 200000 0  450000 200000 0  500000 200000 0  550000 200000 0  600000 200000 0  650000 200000 0  700000 200000 0  750000 200000 0  800000 200000 0  850000 200000 0  900000 200000 0  950000 200000 0  1000000 200000 0  0 250000 0  50000 250000 0  100000 250000 0  150000 250000 0  200000 250000 0  250000 250000 0  300000 250000 0  350000 250000 0  400000 250000 0  450000 250000 0  500000 250000 0  550000 250000 0  600000 250000 0  650000 250000 0  700000 250000 0  750000 250000 0  800000 250000 0  850000 250000 0  900000 250000 0  950000 250000 0  1000000 250000 0  0 300000 0  50000 300000 0  100000 300000 0  150000 300000 0  200000 300000 0  250000 300000 0  300000 300000 0  350000 300000 0  400000 300000 0  450000 300000 0  500000 300000 0  550000 300000 0  600000 300000 0  650000 300000 0  700000 300000 0  750000 300000 0  800000 300000 0  850000 300000 0  900000 300000 0  950000 300000 0  1000000 300000 0  0 350000 0  50000 350000 0  100000 350000 0  150000 350000 0  200000 350000 0  250000 350000 0  300000 350000 0  350000 350000 0  400000 350000 0  450000 350000 0  500000 350000 0  550000 350000 0  600000 350000 0  650000 350000 0  700000 350000 0  750000 350000 0  800000 350000 0  850000 350000 0  900000 350000 0  950000 350000 0  1000000 350000 0  0 400000 0  50000 400000 0  100000 400000 0  150000 400000 0  200000 400000 0  250000 400000 0  300000 400000 0  350000 400000 0  400000 400000 0  450000 400000 0  500000 400000 0  550000 400000 0  600000 400000 0  650000 400000 0  700000 400000 0  750000 400000 0  800000 400000 0  850000 400000 0  900000 400000 0  950000 400000 0  1000000 400000 0  0 450000 0  50000 450000 0  100000 450000 0  150000 450000 0  200000 450000 0  250000 450000 0  300000 450000 0  350000 450000 0  400000 450000 0  450000 450000 0  500000 450000 0  550000 450000 0  600000 450000 0  650000 450000 0  700000 450000 0  750000 450000 0  800000 450000 0  850000 450000 0  900000 450000 0  950000 450000 0  1000000 450000 0  0 500000 0  50000 500000 0  100000 500000 0  150000 500000 0  200000 500000 0  250000 500000 0  300000 500000 0  350000 500000 0  400000 500000 0  450000 500000 0  500000 500000 0  550000 500000 0  600000 500000 0  650000 500000 0  700000 500000 0  750000 500000 0  800000 500000 0  850000 500000 0  900000 500000 0  950000 500000 0  1000000 500000 0  0 550000 0  50000 550000 0  100000 550000 0  150000 550000 0  200000 550000 0  250000 550000 0  300000 550000 0  350000 550000 0  400000 550000 0  450000 550000 0  500000 550000 0  550000 550000 0  600000 550000 0  650000 550000 0  700000 550000 0  750000 550000 0  800000 550000 0  850000 550000 0  900000 550000 0  950000 550000 0  1000000 550000 0  0 600000 0  50000 600000 0  100000 600000 0  150000 600000 0  200000 600000 0  250000 600000 0  300000 600000 0  350000 600000 0  400000 600000 0  450000 600000 0  500000 600000 0  550000 600000 0  600000 600000 0  650000 600000 0  700000 600000 0  750000 600000 0  800000 600000 0  850000 600000 0  900000 600000 0  950000 600000 0  1000000 600000 0  0 650000 0  50000 650000 0  100000 650000 0  150000 650000 0  200000 650000 0  250000 650000 0  300000 650000 0  350000 650000 0  400000 650000 0  450000 650000 0  500000 650000 0  550000 650000 0  600000 650000 0  650000 650000 0  700000 650000 0  750000 650000 0  800000 650000 0  850000 650000 0  900000 650000 0  950000 650000 0  1000000 650000 0  0 700000 0  50000 700000 0  100000 700000 0  150000 700000 0  200000 700000 0  250000 700000 0  300000 700000 0  350000 700000 0  400000 700000 0  450000 700000 0  500000 700000 0  550000 700000 0  600000 700000 0  650000 700000 0  700000 700000 0  750000 700000 0  800000 700000 0  850000 700000 0  900000 700000 0  950000 700000 0  1000000 700000 0  0 750000 0  50000 750000 0  100000 750000 0  150000 750000 0  200000 750000 0  250000 750000 0  300000 750000 0  350000 750000 0  400000 750000 0  450000 750000 0  500000 750000 0  550000 750000 0  600000 750000 0  650000 750000 0  700000 750000 0  750000 750000 0  800000 750000 0  850000 750000 0  900000 750000 0  950000 750000 0  1000000 750000 0  0 800000 0  50000 800000 0  100000 800000 0  150000 800000 0  200000 800000 0  250000 800000 0  300000 800000 0  350000 800000 0  400000 800000 0  450000 800000 0  500000 800000 0  550000 800000 0  600000 800000 0  650000 800000 0  700000 800000 0  750000 800000 0  800000 800000 0  850000 800000 0  900000 800000 0  950000 800000 0  1000000 800000 0  0 850000 0  50000 850000 0  100000 850000 0  150000 850000 0  200000 850000 0  250000 850000 0  300000 850000 0  350000 850000 0  400000 850000 0  450000 850000 0  500000 850000 0  550000 850000 0  600000 850000 0  650000 850000 0  700000 850000 0  750000 850000 0  800000 850000 0  850000 850000 0  900000 850000 0  950000 850000 0  1000000 850000 0  0 900000 0  50000 900000 0  100000 900000 0  150000 900000 0  200000 900000 0  250000 900000 0  300000 900000 0  350000 900000 0  400000 900000 0  450000 900000 0  500000 900000 0  550000 900000 0  600000 900000 0  650000 900000 0  700000 900000 0  750000 900000 0  800000 900000 0  850000 900000 0  900000 900000 0  950000 900000 0  1000000 900000 0  0 950000 0  50000 950000 0  100000 950000 0  150000 950000 0  200000 950000 0  250000 950000 0  300000 950000 0  350000 950000 0  400000 950000 0  450000 950000 0  500000 950000 0  550000 950000 0  600000 950000 0  650000 950000 0  700000 950000 0  750000 950000 0  800000 950000 0  850000 950000 0  900000 950000 0  950000 950000 0  1000000 950000 0  0 1000000 0  50000 1000000 0  100000 1000000 0  150000 1000000 0  200000 1000000 0  250000 1000000 0  300000 1000000 0  350000 1000000 0  400000 1000000 0  450000 1000000 0  500000 1000000 0  550000 1000000 0  600000 1000000 0  650000 1000000 0  700000 1000000 0  750000 1000000 0  800000 1000000 0  850000 1000000 0  900000 1000000 0  950000 1000000 0  1000000 1000000 0  0 1050000 0  50000 1050000 0  100000 1050000 0  150000 1050000 0  200000 1050000 0  250000 1050000 0  300000 1050000 0  350000 1050000 0  400000 1050000 0  450000 1050000 0  500000 1050000 0  550000 1050000 0  600000 1050000 0  650000 1050000 0  700000 1050000 0  750000 1050000 0  800000 1050000 0  850000 1050000 0  900000 1050000 0  950000 1050000 0  1000000 1050000 0  0 1100000 0  50000 1100000 0  100000 1100000 0  150000 1100000 0  200000 1100000 0  250000 1100000 0  300000 1100000 0  350000 1100000 0  400000 1100000 0  450000 1100000 0  500000 1100000 0  550000 1100000 0  600000 1100000 0  650000 1100000 0  700000 1100000 0  750000 1100000 0  800000 1100000 0  850000 1100000 0  900000 1100000 0  950000 1100000 0  1000000 1100000 0  0 1150000 0  50000 1150000 0  100000 1150000 0  150000 1150000 0  200000 1150000 0  250000 1150000 0  300000 1150000 0  350000 1150000 0  400000 1150000 0  450000 1150000 0  500000 1150000 0  550000 1150000 0  600000 1150000 0  650000 1150000 0  700000 1150000 0  750000 1150000 0  800000 1150000 0  850000 1150000 0  900000 1150000 0  950000 1150000 0  1000000 1150000 0  0 1200000 0  50000 1200000 0  100000 1200000 0  150000 1200000 0  200000 1200000 0  250000 1200000 0  300000 1200000 0  350000 1200000 0  400000 1200000 0  450000 1200000 0  500000 1200000 0  550000 1200000 0  600000 1200000 0  650000 1200000 0  700000 1200000 0  750000 1200000 0  800000 1200000 0  850000 1200000 0  900000 1200000 0  950000 1200000 0  1000000 1200000 0  0 1250000 0  50000 1250000 0  100000 1250000 0  150000 1250000 0  200000 1250000 0  250000 1250000 0  300000 1250000 0  350000 1250000 0  400000 1250000 0  450000 1250000 0  500000 1250000 0  550000 1250000 0  600000 1250000 0  650000 1250000 0  700000 1250000 0  750000 1250000 0  800000 1250000 0  850000 1250000 0  900000 1250000 0  950000 1250000 0  1000000 1250000 0  0 1300000 0  50000 1300000 0  100000 1300000 0  150000 1300000 0  200000 1300000 0  250000 1300000 0  300000 1300000 0  350000 1300000 0  400000 1300000 0  450000 1300000 0  500000 1300000 0  550000 1300000 0  600000 1300000 0  650000 1300000 0  700000 1300000 0  750000 1300000 0  800000 1300000 0  850000 1300000 0  900000 1300000 0  950000 1300000 0  1000000 1300000 0  0 1350000 0  50000 1350000 0  100000 1350000 0  150000 1350000 0  200000 1350000 0  250000 1350000 0  300000 1350000 0  350000 1350000 0  400000 1350000 0  450000 1350000 0  500000 1350000 0  550000 1350000 0  600000 1350000 0  650000 1350000 0  700000 135
[...]
<PointData  Vectors="f_10477"> 
<DataArray  type="Float64"  Name="f_10477"  NumberOfComponents="3" format="ascii">-6.1233142478825571e-09 -3.4162337843032833e-09 0.0000000000000000e+00  7.4997753848497717e-08 -2.2054904261939679e-09 0.0000000000000000e+00  7.7972679981489561e-08 -8.5436260881608028e-11 0.0000000000000000e+00  7.8946654316556317e-08 2.9060141670411428e-10 0.0000000000000000e+00  7.9418935200394913e-08 2.6381920123681878e-10 0.0000000000000000e+00  7.9644409092608041e-08 1.9125137530514412e-10 0.0000000000000000e+00  7.9759197894329434e-08 1.3014140622817808e-10 0.0000000000000000e+00  7.9820427470950342e-08 8.4080561621982787e-11 0.0000000000000000e+00  7.9852640460163405e-08 4.8542495547047691e-11 0.0000000000000000e+00  7.9866844310284910e-08 1.9068781507819338e-11 0.0000000000000000e+00  7.9867456947602595e-08 -7.9418958462299607e-12 0.0000000000000000e+00  7.9854703782072472e-08 -3.5628229937325491e-11 0.0000000000000000e+00  7.9824764008875945e-08 -6.7138617035669873e-11 0.0000000000000000e+00  7.9767844821377993e-08 -1.0605878473317865e-10 0.0000000000000000e+00  7.9662442764857362e-08 -1.5668661012704134e-10 0.0000000000000000e+00  7.9460012256082229e-08 -2.2316468230924593e-10 0.0000000000000000e+00  7.9049187617944190e-08 -2.9974758356166854e-10 0.0000000000000000e+00  7.8220198264226103e-08 -2.8545503543675092e-10 0.0000000000000000e+00  7.6571207041501068e-08 6.7275457626070048e-10 0.0000000000000000e+00  7.2519669311670690e-08 4.9660246383245028e-09 0.0000000000000000e+00  -8.3251709836758239e-09 5.0965880517539623e-09 0.0000000000000000e+00  -4.2842934252624025e-09 -3.8550441702347631e-09 0.0000000000000000e+00  -7.8352574672681289e-10 -2.3337624402117863e-08 0.0000000000000000e+00  1.7255522773065417e-08 -1.4045633814798567e-08 0.0000000000000000e+00  3.1663666898219761e-08 -7.8148717341536155e-09 0.0000000000000000e+00  4.0924439056208551e-08 -4.5651308195928152e-09 0.0000000000000000e+00  4.6873318365077508e-08 -2.8132667995806897e-09 0.0000000000000000e+00  5.0751017735574083e-08 -1.7860160009277420e-09 0.0000000000000000e+00  5.3272183268739200e-08 -1.1275327835079476e-09 0.0000000000000000e+00  5.4848314630852408e-08 -6.6702554023793851e-10 0.0000000000000000e+00  5.5713578672344204e-08 -3.1195473128913242e-10 0.0000000000000000e+00  5.5989041648952833e-08 -3.3884691405166226e-12 0.0000000000000000e+00  5.5712210139636932e-08 3.0477543237380241e-10 0.0000000000000000e+00  5.4845636330487656e-08 6.5852236051755697e-10 0.0000000000000000e+00  5.3268696749706884e-08 1.1162867808117955e-09 0.0000000000000000e+00  5.0749182057603427e-08 1.7690445755902134e-09 0.0000000000000000e+00  4.6882760448741333e-08 2.7832240617668480e-09 0.0000000000000000e+00  4.0978296035120500e-08 4.5095173698494192e-09 0.0000000000000000e+00  3.1880359874304215e-08 7.7807400154935033e-09 0.0000000000000000e+00  1.8037678865510388e-08 1.4467513351784064e-08 0.0000000000000000e+00  2.5655753213662096e-10 2.5063981766973669e-08 0.0000000000000000e+00  -6.8792819895667234e-09 5.4329827202286969e-09 0.0000000000000000e+00  -1.2816215598759573e-09 -2.2155082686001807e-09 0.0000000000000000e+00  -6.5325651257042330e-09 -2.9600596367601627e-08 0.0000000000000000e+00  -2.7753951571571065e-09 -2.5950492137033419e-08 0.0000000000000000e+00  6.0748113743873070e-09 -1.8392143523231594e-08 0.0000000000000000e+00  1.4910666496923455e-08 -1.2448802937297284e-08 0.0000000000000000e+00  2.1959507883182475e-08 -8.3790646636229103e-09 0.0000000000000000e+00  2.7143356648737526e-08 -5.6077900240747200e-09 0.0000000000000000e+00  3.0768746645773645e-08 -3.6556305377599164e-09 0.0000000000000000e+00  3.3139533470963902e-08 -2.2027792231063634e-09 0.0000000000000000e+00  3.4476344087538017e-08 -1.0357586459602868e-09 0.0000000000000000e+00  3.4908330778234936e-08 9.3016706460566396e-13 0.0000000000000000e+00  3.4477950585517828e-08 1.0378912032013484e-09 0.0000000000000000e+00  3.3143719446148693e-08 2.2058321325206520e-09 0.0000000000000000e+00  3.0778200585396524e-08 3.6606512073474576e-09 0.0000000000000000e+00  2.7164631019085651e-08 5.6170511489725884e-09 0.0000000000000000e+00  2.2008649123294946e-08 8.3994926422992549e-09 0.0000000000000000e+00  1.5026612877692150e-08 1.2504552471127040e-08 0.0000000000000000e+00  6.3168223892296510e-09 1.8537909480364727e-08 0.0000000000000000e+00  -2.4517205238952995e-09 2.6151699969879176e-08 0.0000000000000000e+00  -6.1338576140793823e-09 2.8691075363424978e-08 0.0000000000000000e+00  -2.2032250426677872e-09 2.7982075300812585e-09 0.0000000000000000e+00  -1.8847241773431058e-10 -1.2132496371301765e-09 0.0000000000000000e+00  -4.5747684863696561e-09 -2.5248226185174582e-08 0.0000000000000000e+00  -6.7200059071657930e-09 -2.9295541345131488e-08 0.0000000000000000e+00  -4.4217348556487367e-09 -2.4981903578822420e-08 0.0000000000000000e+00  3.3191208290607208e-10 -1.9135340081843538e-08 0.0000000000000000e+00  5.4309658848340966e-09 -1.3961584500972858e-08 0.0000000000000000e+00  9.8501483952248533e-09 -9.8498593792399044e-09 0.0000000000000000e+00  1.3261276352256532e-08 -6.6456950245718252e-09 0.0000000000000000e+00  1.5632157601691225e-08 -4.0925393991494245e-09 0.0000000000000000e+00  1.7018059538513805e-08 -1.9482034280835906e-09 0.0000000000000000e+00  1.7474078696560671e-08 4.4902043508009649e-13 0.0000000000000000e+00  1.7021755784672496e-08 1.9493454293245254e-09 0.0000000000000000e+00  1.5640663583540548e-08 4.0945565034452681e-09 0.0000000000000000e+00  1.3277239186025517e-08 6.6497954253848786e-09 0.0000000000000000e+00  9.8786113284068700e-09 9.8588859041698282e-09 0.0000000000000000e+00  5.4795966974755901e-09 1.3982471731933765e-08 0.0000000000000000e+00  4.0369314746960870e-10 1.9181042795607411e-08 0.0000000000000000e+00  -4.3456084496529843e-09 2.5046075104963925e-08 0.0000000000000000e+00  -6.6569935472035150e-09 2.9204553101807480e-08 0.0000000000000000e+00  -4.3579774729942085e-09 2.4801457199369667e-08 0.0000000000000000e+00  -3.1846827955784552e-10 1.7083858951463567e-09 0.0000000000000000e+00  6.3327581977103837e-11 -7.4668634077220553e-10 0.0000000000000000e+00  -3.0935967497559602e-09 -2.0534221120427960e-08 0.0000000000000000e+00  -6.6858268206445410e-09 -2.7733913565885521e-08 0.0000000000000000e+00  -7.9590402525482051e-09 -2.6880298346219263e-08 0.0000000000000000e+00  -6.8131705758737820e-09 -2.2676697364449211e-08 0.0000000000000000e+00  -4.3894301444741550e-09 -1.7747971541986623e-08 0.0000000000000000e+00  -1.6858487255885617e-09 -1.3159389364110249e-08 0.0000000000000000e+00  7.1156204923213093e-10 -9.1880211692760332e-09 0.0000000000000000e+00  2.5219381645365825e-09 -5.7860781724090050e-09 0.0000000000000000e+00  3.6323724804740947e-09 -2.7896836022280794e-09 0.0000000000000000e+00  4.0062344478337189e-09 2.4274649597449966e-14 0.0000000000000000e+00  3.6361885534911240e-09 2.7899756371290434e-09 0.0000000000000000e+00  2.5301453431731028e-09 5.7872418769888563e-09 0.0000000000000000e+00  7.2524398258338226e-10 9.1911609911168456e-09 0.0000000000000000e+00  -1.6655407611181280e-09 1.3166405897474770e-08 0.0000000000000000e+00  -4.3625990439165750e-09 1.7760661095137113e-08 0.0000000000000000e+00  -6.7828529905466488e-09 2.2689905090457113e-08 0.0000000000000000e+00  -7.9334062339843476e-09 2.6864285737594937e-08 0.0000000000000000e+00  -6.6617195863509106e-09 2.7621217156908906e-08 0.0000000000000000e+00  -3.0128017517096991e-09 2.0383343083922577e-08 0.0000000000000000e+00  1.7014991160204852e-11 1.0825492905033176e-09 0.0000000000000000e+00  1.0465904907459500e-10 -4.8785233679342495e-10 0.0000000000000000e+00  -2.2522714966176359e-09 -1.6639903889199208e-08 0.0000000000000000e+00  -5.8876544589058394e-09 -2.4471931597187897e-08 0.0000000000000000e+00  -8.6991554697204190e-09 -2.5810735075773632e-08 0.0000000000000000e+00  -9.8487129895411487e-09 -2.3401999684493035e-08 0.0000000000000000e+00  -9.6484265977027905e-09 -1.9395924541114501e-08 0.0000000000000000e+00  -8.7101375705290693e-09 -1.5018799769944862e-08 0.0000000000000000e+00  -7.5610729315720024e-09 -1.0820566506445956e-08 0.0000000000000000e+00  -6.5512942516021543e-09 -6.9600386924153377e-09 0.0000000000000000e+00  -5.8806884968710849e-09 -3.3972393380381750e-09 0.0000000000000000e+00  -5.6466804938426610e-09 -6.5076310625135439e-13 0.0000000000000000e+00  -5.8778735437518788e-09 3.3961155932474586e-09 0.0000000000000000e+00  -6.5456228981184520e-09 6.9595120508050088e-09 0.0000000000000000e+00  -7.5526358336374332e-09 1.0821181920955997e-08 0.0000000000000000e+00  -8.6995253859842627e-09 1.5020919276071013e-08 0.0000000000000000e+00  -9.6372027087606209e-09 1.9398155306667639e-08 0.0000000000000000e+00  -9.8391950400953391e-09 2.3396899284185042e-08 0.0000000000000000e+00  -8.6920159129979831e-09 2.5780576762157736e-08 0.0000000000000000e+00  -5.8822477097417405e-09 2.4410948139833883e-08 0.0000000000000000e+00  -2.2283037606804529e-09 1.6596740756241738e-08 0.0000000000000000e+00  8.4768302266408855e-11 6.8644910043287733e-10 0.0000000000000000e+00  1.0297634437915255e-10 -3.3347928697133140e-10 0.0000000000000000e+00  -1.7432741937599499e-09 -1.3464358094377169e-08 0.0000000000000000e+00  -5.0586989511835722e-09 -2.0863755231532173e-08 0.0000000000000000e+00  -8.3783190184294961e-09 -2.3275042874365326e-08 0.0000000000000000e+00  -1.0753228835247497e-08 -2.2238492242377285e-08 0.0000000000000000e+00  -1.2045672035458993e-08 -1.9275007039335050e-08 0.0000000000000000e+00  -1.2504687440282557e-08 -1.5470582189652817e-08 0.0000000000000000e+00  -1.2475680780023105e-08 -1.1452584036965121e-08 0.0000000000000000e+00  -1.2254478438625551e-08 -7.5069533162372781e-09 0.0000000000000000e+00  -1.2045292522341780e-08 -3.7053003547246374e-09 0.0000000000000000e+00  -1.1962860200956910e-08 -1.1798339927507621e-12 0.0000000000000000e+00  -1.2043774816355058e-08 3.7030496045978601e-09 0.0000000000000000e+00  -1.2251637336560486e-08 7.5050207032863720e-09 0.0000000000000000e+00  -1.2471968310513342e-08 1.1451061224120918e-08 0.0000000000000000e+00  -1.2500882869951196e-08 1.5469005591898980e-08 0.0000000000000000e+00  -1.2042841033818630e-08 1.9271349676365096e-08 0.0000000000000000e+00  -1.0752484760607325e-08 2.2228089982378278e-08 0.0000000000000000e+00  -8.3793558490164080e-09 2.3252746764205991e-08 0.0000000000000000e+00  -5.0622600238063559e-09 2.0836618604547916e-08 0.0000000000000000e+00  -1.7362931681605297e-09 1.3454726444949126e-08 0.0000000000000000e+00  9.6676890647487047e-11 4.5574296835339997e-10 0.0000000000000000e+00  9.3030247586454919e-11 -2.3435877300573064e-10 0.0000000000000000e+00  -1.4004039259613099e-09 -1.0839431879482525e-08 0.0000000000000000e+00  -4.3259489103325856e-09 -1.7389345301428177e-08 0.0000000000000000e+00  -7.6691936883046352e-09 -2.0159963231091031e-08 0.0000000000000000e+00  -1.0578874765043994e-08 -2.0008432586490776e-08 0.0000000000000000e+00  -1.2729288015021026e-08 -1.7946460614750813e-08 0.0000000000000000e+00  -1.4127828526199987e-08 -1.4824555729875258e-08 0.0000000000000000e+00  -1.4938922016025285e-08 -1.1224420100673631e-08 0.0000000000000000e+00  -1.5356889059756829e-08 -7.4767328011925634e-09 0.0000000000000000e+00  -1.5541107803074023e-08 -3.7262096821754510e-09 0.0000000000000000e+00  -1.5591186966097401e-08 -1.5218362224810357e-12 0.0000000000000000e+00  -1.5540644900613233e-08 3.7232187875144009e-09 0.0000000000000000e+00  -1.5356166021575397e-08 7.4738576078321883e-09 0.0000000000000000e+00  -1.4938330503097622e-08 1.1221539819065573e-08 0.0000000000000000e+00  -1.4127895167189733e-08 1.4821082292827658e-08 0.0000000000000000e+00  -1.2730566140012135e-08 1.7941021294134161e-08 0.0000000000000000e+00  -1.0581839212379504e-08 1.9999194656672713e-08 0.0000000000000000e+00  -7.6734649436730316e-09 2.0146911144183215e-08 0.0000000000000000e+00  -4.3317835048206101e-09 1.7378414696983372e-08 0.0000000000000000e+00  -1.3975618861801585e-09 1.0839675624578291e-08 0.0000000000000000e+00  9.3196468458667012e-11 3.1457947793684536e-10 0.0000000000000000e+00  8.2016247206485300e-11 -1.6672006073801628e-10 0.0000000000000000e+00  -1.1480085129604602e-09 -8.6463801453925954e-09 0.0000000000000000e+00  -3.6934601544866552e-09 -1.4215288056008925e-08 0.0000000000000000e+00  -6.8409891966264735e-09 -1.6937146219384589e-08 0.0000000000000000e+00  -9.8803428254922241e-09 -1.7284497193525261e-08 0.0000000000000000e+00  -1.2434170534611510e-08 -1.5912037122832766e-08 0.0000000000000000e+00  -1.4375149455985436e-08 -1.3444454997732308e-08 0.0000000000000000e+00  -1.5731617260712868e-08 -1.0366455973294264e-08 0.0000000000000000e+00  -1.6597338678941358e-08 -6.9974786528825972e-09 0.0000000000000000e+00  -1.7070542911819411e-08 -3.5156427528955442e-09 0.0000000000000000e+00  -1.7220198420428445e-08 -1.6891552896670108e-12 0.0000000000000000e+00  -1.7070740756196109e-08 3.5122843904387069e-09 0.0000000000000000e+00  -1.6597865934754291e-08 6.9941372161280180e-09 0.0000000000000000e+00  -1.5732705254783952e-08 1.0362984921787706e-08 0.0000000000000000e+00  -1.4377070380775121e-08 1.3440458765718501e-08 0.0000000000000000e+00  -1.2437160400582543e-08 1.5906907444694588e-08 0.0000000000000000e+00  -9.8845387289887421e-09 1.7277937400335002e-08 0.0000000000000000e+00  -6.8458970703796011e-09 1.6930260046659445e-08 0.0000000000000000e+00  -3.6988702026836706e-09 1.4211522966336393e-08 0.0000000000000000e+00  -1.1460074882189547e-09 8.6491868836545772e-09 0.0000000000000000e+00  8.5047094678044881e-11 2.2205682467254828e-10 0.0000000000000000e+00  7.1661657212930101e-11 -1.1863013236143148e-10 0.0000000000000000e+00  -9.5182358586838090e-10 -6.8028171694948349e-09 0.0000000000000000e+00  -3.1511000338544118e-09 -1.1388748553582182e-08 0.0000000000000000e+00  -6.0147128048950248e-09 -1.3843825746193490e-08 0.0000000000000000e+00  -8.9635889412758044e-09 -1.4422446850755061e-08 0.0000000000000000e+00  -1.1629554004019754e-08 -1.3541730622295222e-08 0.0000000000000000e+00  -1.3821253166863609e-08 -1.1644008033995706e-08 0.0000000000000000e+00  -1.5478740160057495e-08 -9.1084561692329917e-09 0.0000000000000000e+00  -1.6616147421670804e-08 -6.2142589778674395e-09 0.0000000000000000e+00  -1.7274375383682112e-08 -3.1427098051401695e-09 0.0000000000000000e+00  -1.7489363271181587e-08 -1.7255508676871627e-12 0.0000000000000000e+00  -1.7274892866563187e-08 3.1392683316181368e-09 0.0000000000000000e+00  -1.6617244991730862e-08 6.2108191860681117e-09 0.0000000000000000e+00  -1.5480518894890382e-08 9.1049352988567259e-09 0.0000000000000000e+00  -1.3823813853666109e-08 1.1640243838116364e-08 0.0000000000000000e+00  -1.1632946481705091e-08 1.3537603694296311e-08 0.0000000000000000e+00  -8.9677605125937713e-09 1.4418217586681320e-08 0.0000000000000000e+00  -6.0191158283243315e-09 1.3840475426906947e-08 0.0000000000000000e+00  -3.1554066777063109e-09 1.1388070533572806e-08 0.0000000000000000e+00  -9.4998191457343558e-10 6.8060272526964776e-09 0.0000000000000000e+00  7.5763872328061852e-11 1.5819678266659681e-10 0.0000000000000000e+00  6.2536841445003889e-11 -8.3498245425761465e-11 0.0000000000000000e+00  -7.9611974629292159e-10 -5.2459242879542280e-09 0.0000000000000000e+00  -2.6931100324850176e-09 -8.9039333270407279e-09 0.0000000000000000e+00  -5.2543283601579697e-09 -1.0986113507904265e-08 0.0000000000000000e+00  -8.0087648207356811e-09 -1.1623065910857735e-08 0.0000000000000000e+00  -1.0619916348262577e-08 -1.1077016807503302e-08 0.0000000000000000e+00  -1.2873088693107085e-08 -9.6533902494073466e-09 0.0000000000000000e+00  -1.4657061814919551e-08 -7.6362334619715158e-09 0.0000000000000000e+00  -1.5930555317155250e-08 -5.2536743266442782e-09 0.0000000000000000e+00  -1.6689363489902374e-08 -2.6707912533067430e-09 0.0000000000000000e+00  -1.6941096446013345e-08 -1.6782637832712184e-12 0.0000000000000000e+00  -1.6689969443478270e-08 2.6674492911518439e-09 0.0000000000000000e+00  -1.5931785137543401e-08 5.2503651244017921e-09 0.0000000000000000e+00  -1.4658937420538639e-08 7.6329536560868736e-09 0.0000000000000000e+00  -1.2875613283196858e-08 9.6501437655705657e-09 0.0000000000000000e+00  -1.0623040597633473e-08 1.1073911830742530e-08 0.0000000000000000e+00  -8.0123490966956331e-09 1.1620467206411532e-08 0.0000000000000000e+00  -5.2578666469574100e-09 1.0984679681420462e-08 0.0000000000000000e+00  -2.6963266477438919e-09 8.9045731929774341e-09 0.0000000000000000e+00  -7.9439677191775947e-10 5.2489757795638157e-09 0.0000000000000000e+00  6.6761815797490326e-11 1.1254489049101890e-10 0.0000000000000000e+00  5.4923344851677251e-11 -5.7263617399324528e-11 0.0000000000000000e+00  -6.7356090575704996e-10 -3.9222177122831286e-09 0.0000000000000000e+00  -2.3179738466305555e-09 -6.7275163930206988e-09 0.0000000000000000e+00  -4.5982655358827909e-09 -8.3938238690834090e-09 0.0000000000000000e+00  -7.1274379187289412e-09 -8.9827888057827806e-09 0.0000000000000000e+00  -9.6050023048503470e-09 -8.6564203150525760e-09 0.0000000000000000e+00  -1.1813790350988189e-08 -7.6204186668448632e-09 0.0000000000000000e+00  -1.3615999550027555e-08 -6.0794351257260499e-09 0.0000000000000000e+00  -1.4935305781361817e-08 -4.2095081611168257e-09 0.0000000000000000e+00  -1.5735816173835063e-08 -2.1486048114080689e-09 0.0000000000000000e+00  -1.6003903018972901e-08 -1.5888991649277387e-12 0.0000000000000000e+00  -1.5736376523750958e-08 2.1454532520908980e-09 0.0000000000000000e+00  -1.4936421629050706e-08 4.2064348674443741e-09 0.0000000000000000e+00  -1.3617653878508401e-08 6.0764987383268730e-09 0.0000000000000000e+00  -1.1815941109323115e-08 7.6177136608334667e-09 0.0000000000000000e+00  -9.6075611860742968e-09 8.6541299333697904e-09 0.0000000000000000e+00  -7.1302487212393808e-09 8.9812333623128947e-09 0.0000000000000000e+00  -4.6009178176486573e-09 8.3934078628226060e-09 0.0000000000000000e+00  -2.3202793038921470e-09 6.7287186332291065e-09 0.0000000000000000e+00  -6.7204764912363517e-10 3.9250223455462247e-09 0.0000000000000000e+00  5.8728986103675945e-11 7.9093315815612236e-11 0.0000000000000000e+00  4.8995837575965460e-11 -3.7146723934105259e-11 0.0000000000000000e+00  -5.8056528104697424e-10 -2.7824211565395691e-09 0.0000000000000000e+00  -2.0259367936198244e-09 -4.8102027975948291e-09 0.0000000000000000e+00  -4.0706444911421692e-09 -6.0507940651941742e-09 0.0000000000000000e+00  -6.3898064832424358e-09 -6.5293843836762369e-09 0.0000000000000000e+00  -8.7149689553726190e-09 -6.3430452796365741e-09 0.0000000000000000e+00  -1.0835338716473439e-08 -5.6250739273692371e-09 0.0000000000000000e+00  -1.2601268205140439e-08 -4.5155336977398431e-09 0.0000000000000000e+00  -1.3916085395609937e-08 -3.1414388973259578e-09 0.0000000000000000e+00  -1.4723549314597918e-08 -1.6082909893867143e-09 0.0000000000000000e+00  -1.4995632271340836e-08 -1.4900636027489377e-12 0.0000000000000000e+00  -1.4723996413232996e-08 1.6053492342283319e-09 0.0000000000000000e+00  -1.3916966640450600e-08 3.1386165397704710e-09 0.0000000000000000e+00  -1.2602553949610007e-08 4.5129281925193035e-09 0.0000000000000000e+00  -1.0836975693128871e-08 5.6228190666284739e-09 0.0000000000000000e+00  -8.7168684836199402e-09 6.3413323338897448e-09 0.0000000000000000e+00  -6.3918352439215831e-09 6.5284651275376913e-09 0.0000000000000000e+00  -4.0725026271655946e-09 6.0509158481714920e-09 0.0000000000000000e+00  -2.0275094595907084e-09 4.8116459401615708e-09 0.0000000000000000e+00  -5.7935529862757347e-10 2.7850161519058084e-09 0.0000000000000000e+00  5.2058639060277752e-11 5.4036315224598181e-11 0.0000000000000000e+00  4.4864224528350362e-11 -2.1060058032512965e-11 0.0000000000000000e+00  -5.1520462483502582e-10 -1.7792461839668410e-09 0.0000000000000000e+00  -1.8174168048095736e-09 -3.0931292826234452e-09 0.0000000000000000e+00  -3.6861364116323038e-09 -3.9128631421358511e-09 0.0000000000000000e+00  -5.8390986817575029e-09 -4.2463831875013094e-09 0.0000000000000000e+00  -8.0321762814567501e-09 -4.1478945661778566e-09 0.0000000000000000e+00  -1.0062823997025542e-0