<?xml version="1.0"?>
<VTKFile type="UnstructuredGrid"  version="0.1"  >
<UnstructuredGrid>
<Piece  NumberOfPoints="651" NumberOfCells="1200">
<Points>
<DataArray  type="Float64"  NumberOfComponents="3"  format="ascii">0 0 0  50000 0 0  100000 0 0  150000 0 0  200000 0 0  250000 0 0  300000 0 0  350000 0 0  400000 0 0  450000 0 0  500000 0 0  550000 0 0  600000 0 0  650000 0 0  700000 0 0  750000 0 0  800000 0 0  850000 0 0  900000 0 0  950000 0 0  1000000 0 0  0 50000 0  50000 50000 0  100000 50000 0  150000 50000 0  200000 50000 0  250000 50000 0  300000 50000 0  350000 50000 0  400000 50000 0  450000 50000 0  500000 50000 0  550000 50000 0  600000 50000 0  650000 50000 0  700000 50000 0  750000 50000 0  800000 50000 0  850000 50000 0  900000 50000 0  950000 50000 0  1000000 50000 0  0 100000 0  50000 100000 0  100000 100000 0  150000 100000 0  200000 100000 0  250000 100000 0  300000 100000 0  350000 100000 0  400000 100000 0  450000 100000 0  500000 100000 0  550000 100000 0  600000 100000 0  650000 100000 0  700000 100000 0  750000 100000 0  800000 100000 0  850000 100000 0  900000 100000 0  950000 100000 0  1000000 100000 0  0 150000 0  50000 150000 0  100000 150000 0  150000 150000 0  200000 150000 0  250000 150000 0  300000 150000 0  350000 150000 0  400000 150000 0  450000 150000 0  500000 150000 0  550000 150000 0  600000 150000 0  650000 150000 0  700000 150000 0  750000 150000 0  800000 150000 0  850000 150000 0  900000 150000 0  950000 150000 0  1000000 150000 0  0 200000 0  50000 200000 0  100000 200000 0  150000 200000 0  200000 200000 0  250000 200000 0  300000 200000 0  350000 200000 0  400000 200000 0  450000 200000 0  500000 200000 0  550000 200000 0  600000 200000 0  650000 200000 0  700000 200000 0  750000 200000 0  800000 200000 0  850000 200000 0  900000 200000 0  950000 200000 0  1000000 200000 0  0 250000 0  50000 250000 0  100000 250000 0  150000 250000 0  200000 250000 0  250000 250000 0  300000 250000 0  350000 250000 0  400000 250000 0  450000 250000 0  500000 250000 0  550000 250000 0  600000 250000 0  650000 250000 0  700000 250000 0  750000 250000 0  800000 250000 0  850000 250000 0  900000 250000 0  950000 250000 0  1000000 250000 0  0 300000 0  50000 300000 0  100000 300000 0  150000 300000 0  200000 300000 0  250000 300000 0  300000 300000 0  350000 300000 0  400000 300000 0  450000 300000 0  500000 300000 0  550000 300000 0  600000 300000 0  650000 300000 0  700000 300000 0  750000 300000 0  800000 300000 0  850000 300000 0  900000 300000 0  950000 300000 0  1000000 300000 0  0 350000 0  50000 350000 0  100000 350000 0  150000 350000 0  200000 350000 0  250000 350000 0  300000 350000 0  350000 350000 0  400000 350000 0  450000 350000 0  500000 350000 0  550000 350000 0  600000 350000 0  650000 350000 0  700000 350000 0  750000 350000 0  800000 350000 0  850000 350000 0  900000 350000 0  950000 350000 0  1000000 350000 0  0 400000 0  50000 400000 0  100000 400000 0  150000 400000 0  200000 400000 0  250000 400000 0  300000 400000 0  350000 400000 0  400000 400000 0  450000 400000 0  500000 400000 0  550000 400000 0  600000 400000 0  650000 400000 0  700000 400000 0  750000 400000 0  800000 400000 0  850000 400000 0  900000 400000 0  950000 400000 0  1000000 400000 0  0 450000 0  50000 450000 0  100000 450000 0  150000 450000 0  200000 450000 0  250000 450000 0  300000 450000 0  350000 450000 0  400000 450000 0  450000 450000 0  500000 450000 0  550000 450000 0  600000 450000 0  650000 450000 0  700000 450000 0  750000 450000 0  800000 450000 0  850000 450000 0  900000 450000 0  950000 450000 0  1000000 450000 0  0 500000 0  50000 500000 0  100000 500000 0  150000 500000 0  200000 500000 0  250000 500000 0  300000 500000 0  350000 500000 0  400000 500000 0  450000 500000 0  500000 500000 0  550000 500000 0  600000 500000 0  650000 500000 0  700000 500000 0  750000 500000 0  800000 500000 0  850000 500000 0  900000 500000 0  950000 500000 0  1000000 500000 0  0 550000 0  50000 550000 0  100000 550000 0  150000 550000 0  200000 550000 0  250000 550000 0  300000 550000 0  350000 550000 0  400000 550000 0  450000 550000 0  500000 550000 0  550000 550000 0  600000 550000 0  650000 550000 0  700000 550000 0  750000 550000 0  800000 550000 0  850000 550000 0  900000 550000 0  950000 550000 0  1000000 550000 0  0 600000 0  50000 600000 0  100000 600000 0  150000 600000 0  200000 600000 0  250000 600000 0  300000 600000 0  350000 600000 0  400000 600000 0  450000 600000 0  500000 600000 0  550000 600000 0  600000 600000 0  650000 600000 0  700000 600000 0  750000 600000 0  800000 600000 0  850000 600000 0  900000 600000 0  950000 600000 0  1000000 600000 0  0 650000 0  50000 650000 0  100000 650000 0  150000 650000 0  200000 650000 0  250000 650000 0  300000 650000 0  350000 650000 0  400000 650000 0  450000 650000 0  500000 650000 0  550000 650000 0  600000 650000 0  650000 650000 0  700000 650000 0  750000 650000 0  800000 650000 0  850000 650000 0  900000 650000 0  950000 650000 0  1000000 650000 0  0 700000 0  50000 700000 0  100000 700000 0  150000 700000 0  200000 700000 0  250000 700000 0  300000 700000 0  350000 700000 0  400000 700000 0  450000 700000 0  500000 700000 0  550000 700000 0  600000 700000 0  650000 700000 0  700000 700000 0  750000 700000 0  800000 700000 0  850000 700000 0  900000 700000 0  950000 700000 0  1000000 700000 0  0 750000 0  50000 750000 0  100000 750000 0  150000 750000 0  200000 750000 0  250000 750000 0  300000 750000 0  350000 750000 0  400000 750000 0  450000 750000 0  500000 750000 0  550000 750000 0  600000 750000 0  650000 750000 0  700000 750000 0  750000 750000 0  800000 750000 0  850000 750000 0  900000 750000 0  950000 750000 0  1000000 750000 0  0 800000 0  50000 800000 0  100000 800000 0  150000 800000 0  200000 800000 0  250000 800000 0  300000 800000 0  350000 800000 0  400000 800000 0  450000 800000 0  500000 800000 0  550000 800000 0  600000 800000 0  650000 800000 0  700000 800000 0  750000 800000 0  800000 800000 0  850000 800000 0  900000 800000 0  950000 800000 0  1000000 800000 0  0 850000 0  50000 850000 0  100000 850000 0  150000 850000 0  200000 850000 0  250000 850000 0  300000 850000 0  350000 850000 0  400000 850000 0  450000 850000 0  500000 850000 0  550000 850000 0  600000 850000 0  650000 850000 0  700000 850000 0  750000 850000 0  800000 850000 0  850000 850000 0  900000 850000 0  950000 850000 0  1000000 850000 0  0 900000 0  50000 900000 0  100000 900000 0  150000 900000 0  200000 900000 0  250000 900000 0  300000 900000 0  350000 900000 0  400000 900000 0  450000 900000 0  500000 900000 0  550000 900000 0  600000 900000 0  650000 900000 0  700000 900000 0  750000 900000 0  800000 900000 0  850000 900000 0  900000 900000 0  950000 900000 0  1000000 900000 0  0 950000 0  50000 950000 0  100000 950000 0  150000 950000 0  200000 950000 0  250000 950000 0  300000 950000 0  350000 950000 0  400000 950000 0  450000 950000 0  500000 950000 0  550000 950000 0  600000 950000 0  650000 950000 0  700000 950000 0  750000 950000 0  800000 950000 0  850000 950000 0  900000 950000 0  950000 950000 0  1000000 950000 0  0 1000000 0  50000 1000000 0  100000 1000000 0  150000 1000000 0  200000 1000000 0  250000 1000000 0  300000 1000000 0  350000 1000000 0  400000 1000000 0  450000 1000000 0  500000 1000000 0  550000 1000000 0  600000 1000000 0  650000 1000000 0  700000 1000000 0  750000 1000000 0  800000 1000000 0  850000 1000000 0  900000 1000000 0  950000 1000000 0  1000000 1000000 0  0 1050000 0  50000 1050000 0  100000 1050000 0  150000 1050000 0  200000 1050000 0  250000 1050000 0  300000 1050000 0  350000 1050000 0  400000 1050000 0  450000 1050000 0  500000 1050000 0  550000 1050000 0  600000 1050000 0  650000 1050000 0  700000 1050000 0  750000 1050000 0  800000 1050000 0  850000 1050000 0  900000 1050000 0  950000 1050000 0  1000000 1050000 0  0 1100000 0  50000 1100000 0  100000 1100000 0  150000 1100000 0  200000 1100000 0  250000 1100000 0  300000 1100000 0  350000 1100000 0  400000 1100000 0  450000 1100000 0  500000 1100000 0  550000 1100000 0  600000 1100000 0  650000 1100000 0  700000 1100000 0  750000 1100000 0  800000 1100000 0  850000 1100000 0  900000 1100000 0  950000 1100000 0  1000000 1100000 0  0 1150000 0  50000 1150000 0  100000 1150000 0  150000 1150000 0  200000 1150000 0  250000 1150000 0  300000 1150000 0  350000 1150000 0  400000 1150000 0  450000 1150000 0  500000 1150000 0  550000 1150000 0  600000 1150000 0  650000 1150000 0  700000 1150000 0  750000 1150000 0  800000 1150000 0  850000 1150000 0  900000 1150000 0  950000 1150000 0  1000000 1150000 0  0 1200000 0  50000 1200000 0  100000 1200000 0  150000 1200000 0  200000 1200000 0  250000 1200000 0  300000 1200000 0  350000 1200000 0  400000 1200000 0  450000 1200000 0  500000 1200000 0  550000 1200000 0  600000 1200000 0  650000 1200000 0  700000 1200000 0  750000 1200000 0  800000 1200000 0  850000 1200000 0  900000 1200000 0  950000 1200000 0  1000000 1200000 0  0 1250000 0  50000 1250000 0  100000 1250000 0  150000 1250000 0  200000 1250000 0  250000 1250000 0  300000 1250000 0  350000 1250000 0  400000 1250000 0  450000 1250000 0  500000 1250000 0  550000 1250000 0  600000 1250000 0  650000 1250000 0  700000 1250000 0  750000 1250000 0  800000 1250000 0  850000 1250000 0  900000 1250000 0  950000 1250000 0  1000000 1250000 0  0 1300000 0  50000 1300000 0  100000 1300000 0  150000 1300000 0  200000 1300000 0  250000 1300000 0  300000 1300000 0  350000 1300000 0  400000 1300000 0  450000 1300000 0  500000 1300000 0  550000 1300000 0  600000 1300000 0  650000 1300000 0  700000 1300000 0  750000 1300000 0  800000 1300000 0  850000 1300000 0  900000 1300000 0  950000 1300000 0  1000000 1300000 0  0 1350000 0  50000 1350000 0  100000 1350000 0  150000 1350000 0  200000 1350000 0  250000 1350000 0  300000 1350000 0  350000 1350000 0  400000 1350000 0  450000 1350000 0  500000 1350000 0  550000 1350000 0  600000 1350000 0  650000 1350000 0  700000 135
[...]
<PointData  Vectors="f_10477"> 
<DataArray  type="Float64"  Name="f_10477"  NumberOfComponents="3" format="ascii">-5.6346483579941150e-09 -3.1376255969738589e-09 0.0000000000000000e+00  7.5471089381749921e-08 -2.0440602609043433e-09 0.0000000000000000e+00  7.8276199564620833e-08 -4.2941588778860264e-11 0.0000000000000000e+00  7.9098192656388575e-08 2.8832919099525832e-10 0.0000000000000000e+00  7.9504706673557690e-08 2.5185010709581125e-10 0.0000000000000000e+00  7.9700530289444786e-08 1.8189223256813476e-10 0.0000000000000000e+00  7.9801773202133162e-08 1.2489392140480873e-10 0.0000000000000000e+00  7.9856960445824289e-08 8.1729671054391671e-11 0.0000000000000000e+00  7.9886663421782757e-08 4.7721513949625340e-11 0.0000000000000000e+00  7.9900021066656547e-08 1.8855205702624368e-11 0.0000000000000000e+00  7.9900676735311576e-08 -7.9332083028937808e-12 0.0000000000000000e+00  7.9888811240409336e-08 -3.5245206409686957e-11 0.0000000000000000e+00  7.9861265429880310e-08 -6.5697573734436106e-11 0.0000000000000000e+00  7.9809910277579555e-08 -1.0235083858918663e-10 0.0000000000000000e+00  7.9716757997664195e-08 -1.4903743382248623e-10 0.0000000000000000e+00  7.9540502996442337e-08 -2.0994392840294692e-10 0.0000000000000000e+00  7.9183468038970827e-08 -2.8328908156126251e-10 0.0000000000000000e+00  7.8456893907304101e-08 -2.9356416539913834e-10 0.0000000000000000e+00  7.6960421062123806e-08 5.4463525934017371e-10 0.0000000000000000e+00  7.2930095302821603e-08 4.7441640486710420e-09 0.0000000000000000e+00  -7.9724306989349356e-09 4.9305744319132687e-09 0.0000000000000000e+00  -3.9512262939785713e-09 -3.4917076075377365e-09 0.0000000000000000e+00  -1.2685131795975612e-09 -2.3644480278624663e-08 0.0000000000000000e+00  1.7253180968397158e-08 -1.4059303442766597e-08 0.0000000000000000e+00  3.1883581881590699e-08 -7.8273971898942389e-09 0.0000000000000000e+00  4.1332956187151906e-08 -4.6252296828536399e-09 0.0000000000000000e+00  4.7475349216476669e-08 -2.8998896208145446e-09 0.0000000000000000e+00  5.1546000528103235e-08 -1.8776473686140780e-09 0.0000000000000000e+00  5.4240702547311841e-08 -1.2085635321276262e-09 0.0000000000000000e+00  5.5953801088740689e-08 -7.2675092218231707e-10 0.0000000000000000e+00  5.6906616412354351e-08 -3.4355047424671155e-10 0.0000000000000000e+00  5.7212350251466323e-08 -3.4779618668057717e-12 0.0000000000000000e+00  5.6905861073064525e-08 3.3626281439263241e-10 0.0000000000000000e+00  5.5952318114385975e-08 7.1836545204936537e-10 0.0000000000000000e+00  5.4238853840636243e-08 1.1978892495075530e-09 0.0000000000000000e+00  5.1545743752665302e-08 1.8621521801789194e-09 0.0000000000000000e+00  4.7484711442577642e-08 2.8729512188918106e-09 0.0000000000000000e+00  4.1380158548736492e-08 4.5733076561118592e-09 0.0000000000000000e+00  3.2074301668823614e-08 7.7875393236927709e-09 0.0000000000000000e+00  1.7955594162276824e-08 1.4444144570215241e-08 0.0000000000000000e+00  -1.7624503646322757e-10 2.5346080821797539e-08 0.0000000000000000e+00  -6.5212510600063136e-09 5.1656951711909298e-09 0.0000000000000000e+00  -1.1369662764001261e-09 -1.9021225394496823e-09 0.0000000000000000e+00  -6.5313541363493530e-09 -2.9780204840063654e-08 0.0000000000000000e+00  -2.6538384123165021e-09 -2.6213856831414288e-08 0.0000000000000000e+00  6.4443558722666075e-09 -1.8707601156167554e-08 0.0000000000000000e+00  1.5608564508923154e-08 -1.2806135506852342e-08 0.0000000000000000e+00  2.3003144676222636e-08 -8.7521891268956952e-09 0.0000000000000000e+00  2.8520084945752735e-08 -5.9606814315398307e-09 0.0000000000000000e+00  3.2438651508432660e-08 -3.9536348169632091e-09 0.0000000000000000e+00  3.5038311213234002e-08 -2.4178267523725289e-09 0.0000000000000000e+00  3.6520595358072041e-08 -1.1484420192641611e-09 0.0000000000000000e+00  3.7002606774162528e-08 4.6143057958436553e-13 0.0000000000000000e+00  3.6522667714153282e-08 1.1495683830559671e-09 0.0000000000000000e+00  3.5043314307673990e-08 2.4196554263340546e-09 0.0000000000000000e+00  3.2448961743300454e-08 3.9570170196952075e-09 0.0000000000000000e+00  2.8541512004125625e-08 5.9675334641695371e-09 0.0000000000000000e+00  2.3049952429093983e-08 8.7685740431446874e-09 0.0000000000000000e+00  1.5715025314812034e-08 1.2854701327712513e-08 0.0000000000000000e+00  6.6594347608804284e-09 1.8846720270676277e-08 0.0000000000000000e+00  -2.3856564791828740e-09 2.6442165887445246e-08 0.0000000000000000e+00  -6.0801836999574014e-09 2.8917520989062287e-08 0.0000000000000000e+00  -1.9644041739986942e-09 2.4680281670572418e-09 0.0000000000000000e+00  -1.4884642241963606e-10 -1.0249602631417199e-09 0.0000000000000000e+00  -4.4254143764185511e-09 -2.5406858202803303e-08 0.0000000000000000e+00  -6.4421714260859495e-09 -2.9769755059771776e-08 0.0000000000000000e+00  -3.8736395368954372e-09 -2.5638545194342187e-08 0.0000000000000000e+00  1.2576224043842034e-09 -1.9880009484920161e-08 0.0000000000000000e+00  6.7675791236844156e-09 -1.4723568960436709e-08 0.0000000000000000e+00  1.1586171496155884e-08 -1.0560016162668985e-08 0.0000000000000000e+00  1.5348905013719366e-08 -7.2404910687501753e-09 0.0000000000000000e+00  1.7993834687533320e-08 -4.5199383299465970e-09 0.0000000000000000e+00  1.9553654273462363e-08 -2.1716880845861583e-09 0.0000000000000000e+00  2.0069309671216491e-08 -3.9134077954901679e-13 0.0000000000000000e+00  1.9557479852876844e-08 2.1710785442229349e-09 0.0000000000000000e+00  1.8002445618014804e-08 4.5199809616333488e-09 0.0000000000000000e+00  1.5364577829318097e-08 7.2422048662399555e-09 0.0000000000000000e+00  1.1613211552321489e-08 1.0565984022368090e-08 0.0000000000000000e+00  6.8123377348040910e-09 1.4740496695149717e-08 0.0000000000000000e+00  1.3214055130066652e-09 1.9921770536815006e-08 0.0000000000000000e+00  -3.8081105195969499e-09 2.5704755326355179e-08 0.0000000000000000e+00  -6.3911344308757395e-09 2.9708469178481801e-08 0.0000000000000000e+00  -4.2000982983548472e-09 2.5008758307346707e-08 0.0000000000000000e+00  -2.4949516108508293e-10 1.4664202585045146e-09 0.0000000000000000e+00  6.1782206677076786e-11 -6.3358494190334960e-10 0.0000000000000000e+00  -2.9435221109975652e-09 -2.0841474890730391e-08 0.0000000000000000e+00  -6.3426348542863353e-09 -2.8453940864270281e-08 0.0000000000000000e+00  -7.3161189729579353e-09 -2.7883299022714130e-08 0.0000000000000000e+00  -5.7890130821578372e-09 -2.3828823930893164e-08 0.0000000000000000e+00  -2.9516893820054344e-09 -1.8928637943394748e-08 0.0000000000000000e+00  1.5532027416204885e-10 -1.4257505867857999e-08 0.0000000000000000e+00  2.9083803450906458e-09 -1.0105799174616527e-08 0.0000000000000000e+00  4.9959752684407138e-09 -6.4445638733541789e-09 0.0000000000000000e+00  6.2822610550867340e-09 -3.1335726711995815e-09 0.0000000000000000e+00  6.7163365489532279e-09 -8.4145837848736994e-13 0.0000000000000000e+00  6.2859794690823421e-09 3.1321053963806084e-09 0.0000000000000000e+00  5.0038535432488647e-09 6.4438902696450815e-09 0.0000000000000000e+00  2.9212117295755084e-09 1.0107004987436644e-08 0.0000000000000000e+00  1.7378076773788096e-10 1.4262604529972763e-08 0.0000000000000000e+00  -2.9282534456813413e-09 1.8939984762483119e-08 0.0000000000000000e+00  -5.7636309104471813e-09 2.3842947878469794e-08 0.0000000000000000e+00  -7.2938381523217764e-09 2.7873415102809783e-08 0.0000000000000000e+00  -6.3190079348424491e-09 2.8357262549624424e-08 0.0000000000000000e+00  -2.8660346212024284e-09 2.0712213078881941e-08 0.0000000000000000e+00  2.1566230149807254e-11 9.2330307944829563e-10 0.0000000000000000e+00  9.1575753801851754e-11 -4.1726052237230137e-10 0.0000000000000000e+00  -2.1254382046073215e-09 -1.7127269831276975e-08 0.0000000000000000e+00  -5.5544253032519964e-09 -2.5456332758875468e-08 0.0000000000000000e+00  -8.0757590903060967e-09 -2.7153198096759633e-08 0.0000000000000000e+00  -8.8790568030296164e-09 -2.4941606852732903e-08 0.0000000000000000e+00  -8.3100267005262158e-09 -2.0972718167885502e-08 0.0000000000000000e+00  -7.0140918058776388e-09 -1.6483933806011250e-08 0.0000000000000000e+00  -5.5502927143888720e-09 -1.2043930415104394e-08 0.0000000000000000e+00  -4.2953686071594349e-09 -7.8371344321391225e-09 0.0000000000000000e+00  -3.4693341843626164e-09 -3.8549913960626817e-09 0.0000000000000000e+00  -3.1821600585105335e-09 -1.4823889327700184e-12 0.0000000000000000e+00  -3.4667403390584028e-09 3.8522217320490010e-09 0.0000000000000000e+00  -4.2902274058112817e-09 7.8350300296291992e-09 0.0000000000000000e+00  -5.5428596506433930e-09 1.2043150603608472e-08 0.0000000000000000e+00  -7.0051468085230111e-09 1.6485121616745511e-08 0.0000000000000000e+00  -8.3011790077083954e-09 2.0975133209635731e-08 0.0000000000000000e+00  -8.8722249845784935e-09 2.4939033529403070e-08 0.0000000000000000e+00  -8.0700005452130345e-09 2.7129174379325544e-08 0.0000000000000000e+00  -5.5488168201177316e-09 2.5405075275423184e-08 0.0000000000000000e+00  -2.1041142342495731e-09 1.7093623446287627e-08 0.0000000000000000e+00  7.3341174390699577e-11 5.8440640449510556e-10 0.0000000000000000e+00  8.8800569033041903e-11 -2.8942740320911982e-10 0.0000000000000000e+00  -1.6453866744875840e-09 -1.4113603729362954e-08 0.0000000000000000e+00  -4.7877039067335301e-09 -2.2089052197189131e-08 0.0000000000000000e+00  -7.8710816721571992e-09 -2.4912817346916281e-08 0.0000000000000000e+00  -9.9733997136044818e-09 -2.4104183708431865e-08 0.0000000000000000e+00  -1.0981158845975761e-08 -2.1180666529248727e-08 0.0000000000000000e+00  -1.1166778360076643e-08 -1.7238951834247528e-08 0.0000000000000000e+00  -1.0898260754118358e-08 -1.2927988363161935e-08 0.0000000000000000e+00  -1.0490884408307845e-08 -8.5642095034456626e-09 0.0000000000000000e+00  -1.0163782672760080e-08 -4.2568233770980965e-09 0.0000000000000000e+00  -1.0041064921478067e-08 -1.9022700364739747e-12 0.0000000000000000e+00  -1.0162533510537399e-08 4.2531812757780076e-09 0.0000000000000000e+00  -1.0488621933702568e-08 8.5610631562780535e-09 0.0000000000000000e+00  -1.0895497433083543e-08 1.2925610910189548e-08 0.0000000000000000e+00  -1.1164309619715813e-08 1.7237170692777490e-08 0.0000000000000000e+00  -1.0979896169563303e-08 2.1177899841811671e-08 0.0000000000000000e+00  -9.9740765712568337e-09 2.4096346301937918e-08 0.0000000000000000e+00  -7.8726904786757944e-09 2.4895073035745497e-08 0.0000000000000000e+00  -4.7910282765685305e-09 2.2067665081721056e-08 0.0000000000000000e+00  -1.6399296307716437e-09 1.4108279837735877e-08 0.0000000000000000e+00  8.2307431398930102e-11 3.9103152628572256e-10 0.0000000000000000e+00  8.1063638433867665e-11 -2.0770267000324797e-10 0.0000000000000000e+00  -1.3358578231700921e-09 -1.1608219688156082e-08 0.0000000000000000e+00  -4.1496133773952946e-09 -1.8792992158262967e-08 0.0000000000000000e+00  -7.3433828911613407e-09 -2.2010772547745080e-08 0.0000000000000000e+00  -1.0085162027263467e-08 -2.2103563108890824e-08 0.0000000000000000e+00  -1.2064051285886973e-08 -2.0080056485374340e-08 0.0000000000000000e+00  -1.3300123660023937e-08 -1.6801466027208031e-08 0.0000000000000000e+00  -1.3969972362724369e-08 -1.2872490666155308e-08 0.0000000000000000e+00  -1.4278592638154827e-08 -8.6571745183857108e-09 0.0000000000000000e+00  -1.4393708948520176e-08 -4.3417701509714339e-09 0.0000000000000000e+00  -1.4420235729106034e-08 -2.1104038510281691e-12 0.0000000000000000e+00  -1.4393514281029156e-08 4.3376743486430873e-09 0.0000000000000000e+00  -1.4278412628961272e-08 8.6534215234756721e-09 0.0000000000000000e+00  -1.3970191815643185e-08 1.2869145479837224e-08 0.0000000000000000e+00  -1.3301207015307567e-08 1.6798170624442175e-08 0.0000000000000000e+00  -1.2066370955846539e-08 2.0075692084776058e-08 0.0000000000000000e+00  -1.0088908876787541e-08 2.2096493005361748e-08 0.0000000000000000e+00  -7.3478189258892428e-09 2.2000882383430750e-08 0.0000000000000000e+00  -4.1551029897689483e-09 1.8785447431469279e-08 0.0000000000000000e+00  -1.3341907572797965e-09 1.1610488249030829e-08 0.0000000000000000e+00  7.9885111981660815e-11 2.7412246292584172e-10 0.0000000000000000e+00  7.3279800963359944e-11 -1.5160209762825193e-10 0.0000000000000000e+00  -1.1189040671896554e-09 -9.4799638589751168e-09 0.0000000000000000e+00  -3.6272214687397634e-09 -1.5711265102002602e-08 0.0000000000000000e+00  -6.7298061591888648e-09 -1.8893254670681813e-08 0.0000000000000000e+00  -9.7236715093724604e-09 -1.9488655504052021e-08 0.0000000000000000e+00  -1.2235244736897397e-08 -1.8151026975485097e-08 0.0000000000000000e+00  -1.4138731110740127e-08 -1.5516198544234843e-08 0.0000000000000000e+00  -1.5463918107256522e-08 -1.2092311300198834e-08 0.0000000000000000e+00  -1.6305998287982341e-08 -8.2331282085428380e-09 0.0000000000000000e+00  -1.6764475244580641e-08 -4.1598028974745669e-09 0.0000000000000000e+00  -1.6909199147224891e-08 -2.1424126756097734e-12 0.0000000000000000e+00  -1.6764917714294670e-08 4.1556139887730981e-09 0.0000000000000000e+00  -1.6307000721483886e-08 8.2291868110612035e-09 0.0000000000000000e+00  -1.5465670801928855e-08 1.2088630633622905e-08 0.0000000000000000e+00  -1.4141416695509982e-08 1.5512539594661155e-08 0.0000000000000000e+00  -1.2238937729740154e-08 1.8146900509442247e-08 0.0000000000000000e+00  -9.7283062196587293e-09 1.9483775094537753e-08 0.0000000000000000e+00  -6.7346840399848080e-09 1.8888497715039131e-08 0.0000000000000000e+00  -3.6322730759359512e-09 1.5709471417474346e-08 0.0000000000000000e+00  -1.1180240108192520e-09 9.4836811258555153e-09 0.0000000000000000e+00  7.4378216992364145e-11 1.9767274987292231e-10 0.0000000000000000e+00  6.6325242907654402e-11 -1.1100221732764319e-10 0.0000000000000000e+00  -9.5717577666961722e-10 -7.6423796452818157e-09 0.0000000000000000e+00  -3.1961654104674697e-09 -1.2881802359201807e-08 0.0000000000000000e+00  -6.1231184218801168e-09 -1.5786662122372523e-08 0.0000000000000000e+00  -9.1525821542962579e-09 -1.6605144682466392e-08 0.0000000000000000e+00  -1.1908327372025104e-08 -1.5754957904784912e-08 0.0000000000000000e+00  -1.4189329218490692e-08 -1.3689791821240816e-08 0.0000000000000000e+00  -1.5926638505774538e-08 -1.0811694754934313e-08 0.0000000000000000e+00  -1.7126799269411707e-08 -7.4333200094494786e-09 0.0000000000000000e+00  -1.7825047911601284e-08 -3.7780781102881019e-09 0.0000000000000000e+00  -1.8053840121889146e-08 -2.0564253814839628e-12 0.0000000000000000e+00  -1.7825777638777336e-08 3.7740448547736682e-09 0.0000000000000000e+00  -1.7128297936883974e-08 7.4294953789736501e-09 0.0000000000000000e+00  -1.5928953945913596e-08 1.0808121362618486e-08 0.0000000000000000e+00  -1.4192470554346670e-08 1.3686404249327274e-08 0.0000000000000000e+00  -1.1912209719489783e-08 1.5751673281503336e-08 0.0000000000000000e+00  -9.1570074214477721e-09 1.6602152541248472e-08 0.0000000000000000e+00  -6.1274217049558041e-09 1.5784704310879869e-08 0.0000000000000000e+00  -3.2001717886469286e-09 1.2882214583538209e-08 0.0000000000000000e+00  -9.5640959194500172e-10 7.6458864975086954e-09 0.0000000000000000e+00  6.8329973210261068e-11 1.4448048176328850e-10 0.0000000000000000e+00  6.0352948695926345e-11 -8.0461774865358645e-11 0.0000000000000000e+00  -8.3226948956727924e-10 -6.0351762860706059e-09 0.0000000000000000e+00  -2.8399439479738352e-09 -1.0301021132354977e-08 0.0000000000000000e+00  -5.5655382722757432e-09 -1.2799373226101889e-08 0.0000000000000000e+00  -8.5184948192592093e-09 -1.3656682201645372e-08 0.0000000000000000e+00  -1.1342805236702613e-08 -1.3136779079577832e-08 0.0000000000000000e+00  -1.3803523879668936e-08 -1.1556021811642803e-08 0.0000000000000000e+00  -1.5770754497936524e-08 -9.2196640223389815e-09 0.0000000000000000e+00  -1.7187345104935856e-08 -6.3867318646478575e-09 0.0000000000000000e+00  -1.8037055802261594e-08 -3.2612405503515625e-09 0.0000000000000000e+00  -1.8319999457593977e-08 -1.9056185648610450e-12 0.0000000000000000e+00  -1.8037839556318141e-08 3.2575032083818668e-09 0.0000000000000000e+00  -1.7188905043913393e-08 6.3831991219304363e-09 0.0000000000000000e+00  -1.5773059301553262e-08 9.2164249162430672e-09 0.0000000000000000e+00  -1.3806494301039081e-08 1.1553134106425651e-08 0.0000000000000000e+00  -1.1346283586348040e-08 1.3134341477648051e-08 0.0000000000000000e+00  -8.5222369453774124e-09 1.3654959345956735e-08 0.0000000000000000e+00  -5.5689721324164425e-09 1.2798808751457790e-08 0.0000000000000000e+00  -2.8429389181609652e-09 1.0302179545401543e-08 0.0000000000000000e+00  -8.3151344924637024e-10 6.0381587653556297e-09 0.0000000000000000e+00  6.2598438951501502e-11 1.0570762040210970e-10 0.0000000000000000e+00  5.5412172390410966e-11 -5.6749031139783378e-11 0.0000000000000000e+00  -7.3513832840240033e-10 -4.6119931236268430e-09 0.0000000000000000e+00  -2.5502338451125659e-09 -7.9459358821812093e-09 0.0000000000000000e+00  -5.0813341611049278e-09 -9.9733135204284081e-09 0.0000000000000000e+00  -7.9105240630987278e-09 -1.0752704206897876e-08 0.0000000000000000e+00  -1.0707710658648240e-08 -1.0448022924763737e-08 0.0000000000000000e+00  -1.3226162251336798e-08 -9.2747170889770585e-09 0.0000000000000000e+00  -1.5300971272217625e-08 -7.4558855412255111e-09 0.0000000000000000e+00  -1.6832769471940409e-08 -5.1943301146938232e-09 0.0000000000000000e+00  -1.7768127842672618e-08 -2.6617551272888007e-09 0.0000000000000000e+00  -1.8082456661714138e-08 -1.7331816145192573e-12 0.0000000000000000e+00  -1.7768831401268089e-08 2.6583626819706216e-09 0.0000000000000000e+00  -1.6834148379109118e-08 5.1911514516889352e-09 0.0000000000000000e+00  -1.5302961721458806e-08 7.4530439523361638e-09 0.0000000000000000e+00  -1.3228653799681125e-08 9.2723315018001634e-09 0.0000000000000000e+00  -1.0710531045052773e-08 1.0446243002538243e-08 0.0000000000000000e+00  -7.9134425876036744e-09 1.0751744667498030e-08 0.0000000000000000e+00  -5.0839033376813625e-09 9.9733961257831021e-09 0.0000000000000000e+00  -2.5523895288239104e-09 7.9472791111508277e-09 0.0000000000000000e+00  -7.3442806762580635e-10 4.6145083840373001e-09 0.0000000000000000e+00  5.7529807399736090e-11 7.6415350734302095e-11 0.0000000000000000e+00  5.1556600021468144e-11 -3.7725461366531451e-11 0.0000000000000000e+00  -6.6149679860346152e-10 -3.3332181792270758e-09 0.0000000000000000e+00  -2.3241001845453540e-09 -5.7823996556342755e-09 0.0000000000000000e+00  -4.6875187168614506e-09 -7.3105978383484647e-09 0.0000000000000000e+00  -7.3870350484881296e-09 -7.9406076876990340e-09 0.0000000000000000e+00  -1.0116454165498189e-08 -7.7712009488765821e-09 0.0000000000000000e+00  -1.2627860827324440e-08 -6.9435580827110680e-09 0.0000000000000000e+00  -1.4737676129715977e-08 -5.6124639345090833e-09 0.0000000000000000e+00  -1.6320394475487351e-08 -3.9262263970964423e-09 0.0000000000000000e+00  -1.7297807518317458e-08 -2.0171889943531914e-09 0.0000000000000000e+00  -1.7628138057625609e-08 -1.5713251005319253e-12 0.0000000000000000e+00  -1.7298363007840270e-08 2.0141219239050195e-09 0.0000000000000000e+00  -1.6321473614769098e-08 3.9233825145423448e-09 0.0000000000000000e+00  -1.4739212298640516e-08 5.6099838969503473e-09 0.0000000000000000e+00  -1.2629748501196135e-08 6.9415807419234761e-09 0.0000000000000000e+00  -1.0118543210198442e-08 7.7698721022087939e-09 0.0000000000000000e+00  -7.3891407132614334e-09 7.9400774698026999e-09 0.0000000000000000e+00  -4.6893202515536158e-09 7.3109603668956742e-09 0.0000000000000000e+00  -2.3255793699689382e-09 5.7837378789606535e-09 0.0000000000000000e+00  -6.6089517820865063e-10 3.3353976072012292e-09 0.0000000000000000e+00  5.3316607720965338e-11 5.3584839582280886e-11 0.0000000000000000e+00  4.8846988455757949e-11 -2.1810295960890022e-11 0.0000000000000000e+00  -6.0946898585900049e-10 -2.1620670116144451e-09 0.0000000000000000e+00  -2.1614556821704788e-09 -3.7687312603606283e-09 0.0000000000000000e+00  -4.3969415207760316e-09 -4.7882911828630641e-09 0.0000000000000000e+00  -6.9875439177336890e-09 -5.2269644346166141e-09 0.0000000000000000e+00  -9.6455149042192018e-09 -5.1401742948131972e-09 0.0000000000000000e+00  -1.2125669490221398e-