<?xml version="1.0"?>
<VTKFile type="UnstructuredGrid"  version="0.1"  >
<UnstructuredGrid>
<Piece  NumberOfPoints="651" NumberOfCells="1200">
<Points>
<DataArray  type="Float64"  NumberOfComponents="3"  format="ascii">0 0 0  50000 0 0  100000 0 0  150000 0 0  200000 0 0  250000 0 0  300000 0 0  350000 0 0  400000 0 0  450000 0 0  500000 0 0  550000 0 0  600000 0 0  650000 0 0  700000 0 0  750000 0 0  800000 0 0  850000 0 0  900000 0 0  950000 0 0  1000000 0 0  0 50000 0  50000 50000 0  100000 50000 0  150000 50000 0  200000 50000 0  250000 50000 0  300000 50000 0  350000 50000 0  400000 50000 0  450000 50000 0  500000 50000 0  550000 50000 0  600000 50000 0  650000 50000 0  700000 50000 0  750000 50000 0  800000 50000 0  850000 50000 0  900000 50000 0  950000 50000 0  1000000 50000 0  0 100000 0  50000 100000 0  100000 100000 0  150000 100000 0  200000 100000 0  250000 100000 0  300000 100000 0  350000 100000 0  400000 100000 0  450000 100000 0  500000 100000 0  550000 100000 0  600000 100000 0  650000 100000 0  700000 100000 0  750000 100000 0  800000 100000 0  850000 100000 0  900000 100000 0  950000 100000 0  1000000 100000 0  0 150000 0  50000 150000 0  100000 150000 0  150000 150000 0  200000 150000 0  250000 150000 0  300000 150000 0  350000 150000 0  400000 150000 0  450000 150000 0  500000 150000 0  550000 150000 0  600000 150000 0  650000 150000 0  700000 150000 0  750000 150000 0  800000 150000 0  850000 150000 0  900000 150000 0  950000 150000 0  1000000 150000 0  0 200000 0  50000 200000 0  100000 200000 0  150000 200000 0  200000 200000 0  250000 200000 0  300000 200000 0  350000 200000 0  400000 200000 0  450000 200000 0  500000 200000 0  550000 200000 0  600000 200000 0  650000 200000 0  700000 200000 0  750000 200000 0  800000 200000 0  850000 200000 0  900000 200000 0  950000 200000 0  1000000 200000 0  0 250000 0  50000 250000 0  100000 250000 0  150000 250000 0  200000 250000 0  250000 250000 0  300000 250000 0  350000 250000 0  400000 250000 0  450000 250000 0  500000 250000 0  550000 250000 0  600000 250000 0  650000 250000 0  700000 250000 0  750000 250000 0  800000 250000 0  850000 250000 0  900000 250000 0  950000 250000 0  1000000 250000 0  0 300000 0  50000 300000 0  100000 300000 0  150000 300000 0  200000 300000 0  250000 300000 0  300000 300000 0  350000 300000 0  400000 300000 0  450000 300000 0  500000 300000 0  550000 300000 0  600000 300000 0  650000 300000 0  700000 300000 0  750000 300000 0  800000 300000 0  850000 300000 0  900000 300000 0  950000 300000 0  1000000 300000 0  0 350000 0  50000 350000 0  100000 350000 0  150000 350000 0  200000 350000 0  250000 350000 0  300000 350000 0  350000 350000 0  400000 350000 0  450000 350000 0  500000 350000 0  550000 350000 0  600000 350000 0  650000 350000 0  700000 350000 0  750000 350000 0  800000 350000 0  850000 350000 0  900000 350000 0  950000 350000 0  1000000 350000 0  0 400000 0  50000 400000 0  100000 400000 0  150000 400000 0  200000 400000 0  250000 400000 0  300000 400000 0  350000 400000 0  400000 400000 0  450000 400000 0  500000 400000 0  550000 400000 0  600000 400000 0  650000 400000 0  700000 400000 0  750000 400000 0  800000 400000 0  850000 400000 0  900000 400000 0  950000 400000 0  1000000 400000 0  0 450000 0  50000 450000 0  100000 450000 0  150000 450000 0  200000 450000 0  250000 450000 0  300000 450000 0  350000 450000 0  400000 450000 0  450000 450000 0  500000 450000 0  550000 450000 0  600000 450000 0  650000 450000 0  700000 450000 0  750000 450000 0  800000 450000 0  850000 450000 0  900000 450000 0  950000 450000 0  1000000 450000 0  0 500000 0  50000 500000 0  100000 500000 0  150000 500000 0  200000 500000 0  250000 500000 0  300000 500000 0  350000 500000 0  400000 500000 0  450000 500000 0  500000 500000 0  550000 500000 0  600000 500000 0  650000 500000 0  700000 500000 0  750000 500000 0  800000 500000 0  850000 500000 0  900000 500000 0  950000 500000 0  1000000 500000 0  0 550000 0  50000 550000 0  100000 550000 0  150000 550000 0  200000 550000 0  250000 550000 0  300000 550000 0  350000 550000 0  400000 550000 0  450000 550000 0  500000 550000 0  550000 550000 0  600000 550000 0  650000 550000 0  700000 550000 0  750000 550000 0  800000 550000 0  850000 550000 0  900000 550000 0  950000 550000 0  1000000 550000 0  0 600000 0  50000 600000 0  100000 600000 0  150000 600000 0  200000 600000 0  250000 600000 0  300000 600000 0  350000 600000 0  400000 600000 0  450000 600000 0  500000 600000 0  550000 600000 0  600000 600000 0  650000 600000 0  700000 600000 0  750000 600000 0  800000 600000 0  850000 600000 0  900000 600000 0  950000 600000 0  1000000 600000 0  0 650000 0  50000 650000 0  100000 650000 0  150000 650000 0  200000 650000 0  250000 650000 0  300000 650000 0  350000 650000 0  400000 650000 0  450000 650000 0  500000 650000 0  550000 650000 0  600000 650000 0  650000 650000 0  700000 650000 0  750000 650000 0  800000 650000 0  850000 650000 0  900000 650000 0  950000 650000 0  1000000 650000 0  0 700000 0  50000 700000 0  100000 700000 0  150000 700000 0  200000 700000 0  250000 700000 0  300000 700000 0  350000 700000 0  400000 700000 0  450000 700000 0  500000 700000 0  550000 700000 0  600000 700000 0  650000 700000 0  700000 700000 0  750000 700000 0  800000 700000 0  850000 700000 0  900000 700000 0  950000 700000 0  1000000 700000 0  0 750000 0  50000 750000 0  100000 750000 0  150000 750000 0  200000 750000 0  250000 750000 0  300000 750000 0  350000 750000 0  400000 750000 0  450000 750000 0  500000 750000 0  550000 750000 0  600000 750000 0  650000 750000 0  700000 750000 0  750000 750000 0  800000 750000 0  850000 750000 0  900000 750000 0  950000 750000 0  1000000 750000 0  0 800000 0  50000 800000 0  100000 800000 0  150000 800000 0  200000 800000 0  250000 800000 0  300000 800000 0  350000 800000 0  400000 800000 0  450000 800000 0  500000 800000 0  550000 800000 0  600000 800000 0  650000 800000 0  700000 800000 0  750000 800000 0  800000 800000 0  850000 800000 0  900000 800000 0  950000 800000 0  1000000 800000 0  0 850000 0  50000 850000 0  100000 850000 0  150000 850000 0  200000 850000 0  250000 850000 0  300000 850000 0  350000 850000 0  400000 850000 0  450000 850000 0  500000 850000 0  550000 850000 0  600000 850000 0  650000 850000 0  700000 850000 0  750000 850000 0  800000 850000 0  850000 850000 0  900000 850000 0  950000 850000 0  1000000 850000 0  0 900000 0  50000 900000 0  100000 900000 0  150000 900000 0  200000 900000 0  250000 900000 0  300000 900000 0  350000 900000 0  400000 900000 0  450000 900000 0  500000 900000 0  550000 900000 0  600000 900000 0  650000 900000 0  700000 900000 0  750000 900000 0  800000 900000 0  850000 900000 0  900000 900000 0  950000 900000 0  1000000 900000 0  0 950000 0  50000 950000 0  100000 950000 0  150000 950000 0  200000 950000 0  250000 950000 0  300000 950000 0  350000 950000 0  400000 950000 0  450000 950000 0  500000 950000 0  550000 950000 0  600000 950000 0  650000 950000 0  700000 950000 0  750000 950000 0  800000 950000 0  850000 950000 0  900000 950000 0  950000 950000 0  1000000 950000 0  0 1000000 0  50000 1000000 0  100000 1000000 0  150000 1000000 0  200000 1000000 0  250000 1000000 0  300000 1000000 0  350000 1000000 0  400000 1000000 0  450000 1000000 0  500000 1000000 0  550000 1000000 0  600000 1000000 0  650000 1000000 0  700000 1000000 0  750000 1000000 0  800000 1000000 0  850000 1000000 0  900000 1000000 0  950000 1000000 0  1000000 1000000 0  0 1050000 0  50000 1050000 0  100000 1050000 0  150000 1050000 0  200000 1050000 0  250000 1050000 0  300000 1050000 0  350000 1050000 0  400000 1050000 0  450000 1050000 0  500000 1050000 0  550000 1050000 0  600000 1050000 0  650000 1050000 0  700000 1050000 0  750000 1050000 0  800000 1050000 0  850000 1050000 0  900000 1050000 0  950000 1050000 0  1000000 1050000 0  0 1100000 0  50000 1100000 0  100000 1100000 0  150000 1100000 0  200000 1100000 0  250000 1100000 0  300000 1100000 0  350000 1100000 0  400000 1100000 0  450000 1100000 0  500000 1100000 0  550000 1100000 0  600000 1100000 0  650000 1100000 0  700000 1100000 0  750000 1100000 0  800000 1100000 0  850000 1100000 0  900000 1100000 0  950000 1100000 0  1000000 1100000 0  0 1150000 0  50000 1150000 0  100000 1150000 0  150000 1150000 0  200000 1150000 0  250000 1150000 0  300000 1150000 0  350000 1150000 0  400000 1150000 0  450000 1150000 0  500000 1150000 0  550000 1150000 0  600000 1150000 0  650000 1150000 0  700000 1150000 0  750000 1150000 0  800000 1150000 0  850000 1150000 0  900000 1150000 0  950000 1150000 0  1000000 1150000 0  0 1200000 0  50000 1200000 0  100000 1200000 0  150000 1200000 0  200000 1200000 0  250000 1200000 0  300000 1200000 0  350000 1200000 0  400000 1200000 0  450000 1200000 0  500000 1200000 0  550000 1200000 0  600000 1200000 0  650000 1200000 0  700000 1200000 0  750000 1200000 0  800000 1200000 0  850000 1200000 0  900000 1200000 0  950000 1200000 0  1000000 1200000 0  0 1250000 0  50000 1250000 0  100000 1250000 0  150000 1250000 0  200000 1250000 0  250000 1250000 0  300000 1250000 0  350000 1250000 0  400000 1250000 0  450000 1250000 0  500000 1250000 0  550000 1250000 0  600000 1250000 0  650000 1250000 0  700000 1250000 0  750000 1250000 0  800000 1250000 0  850000 1250000 0  900000 1250000 0  950000 1250000 0  1000000 1250000 0  0 1300000 0  50000 1300000 0  100000 1300000 0  150000 1300000 0  200000 1300000 0  250000 1300000 0  300000 1300000 0  350000 1300000 0  400000 1300000 0  450000 1300000 0  500000 1300000 0  550000 1300000 0  600000 1300000 0  650000 1300000 0  700000 1300000 0  750000 1300000 0  800000 1300000 0  850000 1300000 0  900000 1300000 0  950000 1300000 0  1000000 1300000 0  0 1350000 0  50000 1350000 0  100000 1350000 0  150000 1350000 0  200000 1350000 0  250000 1350000 0  300000 1350000 0  350000 1350000 0  400000 1350000 0  450000 1350000 0  500000 1350000 0  550000 1350000 0  600000 1350000 0  650000 1350000 0  700000 135
[...]
<PointData  Vectors="f_10477"> 
<DataArray  type="Float64"  Name="f_10477"  NumberOfComponents="3" format="ascii">-5.4261280313190758e-09 -3.0215257911502994e-09 0.0000000000000000e+00  7.5671524582345208e-08 -1.9776549836684790e-09 0.0000000000000000e+00  7.8403024267762267e-08 -2.8064044446636019e-11 0.0000000000000000e+00  7.9161250663096762e-08 2.8383430722062812e-10 0.0000000000000000e+00  7.9539885261434273e-08 2.4320497790170449e-10 0.0000000000000000e+00  7.9722251415316759e-08 1.7449559262112212e-10 0.0000000000000000e+00  7.9816565962314836e-08 1.1958948115414656e-10 0.0000000000000000e+00  7.9868061861467944e-08 7.8254018694676664e-11 0.0000000000000000e+00  7.9895833142360172e-08 4.5717608620810088e-11 0.0000000000000000e+00  7.9908344033339886e-08 1.8082485236118638e-11 0.0000000000000000e+00  7.9908965062695178e-08 -7.5765643825256596e-12 0.0000000000000000e+00  7.9897862626298644e-08 -3.3727562625022864e-11 0.0000000000000000e+00  7.9872112457226993e-08 -6.2854782449605171e-11 0.0000000000000000e+00  7.9824187019071043e-08 -9.7881158471527263e-11 0.0000000000000000e+00  7.9737407850123362e-08 -1.4250649090225246e-10 0.0000000000000000e+00  7.9573254630310107e-08 -2.0093693366410641e-10 0.0000000000000000e+00  7.9239468732714948e-08 -2.7288220053083124e-10 0.0000000000000000e+00  7.8556021055573635e-08 -2.9326496366138092e-10 0.0000000000000000e+00  7.7124924099383183e-08 4.9354235662830770e-10 0.0000000000000000e+00  7.3106159542922179e-08 4.6514312957195768e-09 0.0000000000000000e+00  -7.8197234426646122e-09 4.8604665329774659e-09 0.0000000000000000e+00  -3.8086609142879145e-09 -3.3417531386683433e-09 0.0000000000000000e+00  -1.4774008688085587e-09 -2.3769795107390008e-08 0.0000000000000000e+00  1.7229390072265787e-08 -1.4045366715761088e-08 0.0000000000000000e+00  3.1905122436536441e-08 -7.8036075171925906e-09 0.0000000000000000e+00  4.1373662267657219e-08 -4.6149483268038178e-09 0.0000000000000000e+00  4.7530155389942459e-08 -2.8983027840904410e-09 0.0000000000000000e+00  5.1614942864739474e-08 -1.8800602943693240e-09 0.0000000000000000e+00  5.4322747505575919e-08 -1.2121380874185379e-09 0.0000000000000000e+00  5.6046415114881663e-08 -7.2985236670076369e-10 0.0000000000000000e+00  5.7006087951171160e-08 -3.4524941559624652e-10 0.0000000000000000e+00  5.7314243985498192e-08 -3.3399960595928778e-12 0.0000000000000000e+00  5.7005499344590834e-08 3.3824945191190414e-10 0.0000000000000000e+00  5.6045262112909433e-08 7.2179529638096744e-10 0.0000000000000000e+00  5.4321355554374797e-08 1.2018903762900994e-09 0.0000000000000000e+00  5.1615101557693744e-08 1.8652407468698914e-09 0.0000000000000000e+00  4.7539297192491584e-08 2.8725816170646696e-09 0.0000000000000000e+00  4.1418055147731243e-08 4.5644437191297928e-09 0.0000000000000000e+00  3.2085110623467569e-08 7.7615216707670567e-09 0.0000000000000000e+00  1.7895534793811052e-08 1.4414927622505583e-08 0.0000000000000000e+00  -3.6297599455552475e-10 2.5460581200749963e-08 0.0000000000000000e+00  -6.3671345332010395e-09 5.0540426815289681e-09 0.0000000000000000e+00  -1.0745896549764263e-09 -1.7758701420501221e-09 0.0000000000000000e+00  -6.5446470813366523e-09 -2.9826197866318735e-08 0.0000000000000000e+00  -2.6673108421402434e-09 -2.6255364801570508e-08 0.0000000000000000e+00  6.4536235168830799e-09 -1.8738232014421017e-08 0.0000000000000000e+00  1.5654852400731502e-08 -1.2833585743452732e-08 0.0000000000000000e+00  2.3083543019549666e-08 -8.7799064569880886e-09 0.0000000000000000e+00  2.8630800958130876e-08 -5.9873351223091457e-09 0.0000000000000000e+00  3.2575027241309110e-08 -3.9765814580748788e-09 0.0000000000000000e+00  3.5194382698962383e-08 -2.4346360402378805e-09 0.0000000000000000e+00  3.6689105933123512e-08 -1.1573806854497795e-09 0.0000000000000000e+00  3.7175405204387787e-08 2.7094925382824271e-13 0.0000000000000000e+00  3.6691278868278535e-08 1.1580938173569906e-09 0.0000000000000000e+00  3.5199550625327565e-08 2.4359496316928337e-09 0.0000000000000000e+00  3.2585459901462352e-08 3.9792577094464620e-09 0.0000000000000000e+00  2.8652034848321627e-08 5.9931354611102644e-09 0.0000000000000000e+00  2.3129152452390212e-08 8.7945234931794002e-09 0.0000000000000000e+00  1.5757221941580844e-08 1.2878973280497348e-08 0.0000000000000000e+00  6.6576469676093045e-09 1.8874247932714932e-08 0.0000000000000000e+00  -2.4235112109620150e-09 2.6495822223113578e-08 0.0000000000000000e+00  -6.0721015472777534e-09 2.8985536268156711e-08 0.0000000000000000e+00  -1.8624387511695395e-09 2.3331243805552127e-09 0.0000000000000000e+00  -1.3045093515066330e-10 -9.5053556156817725e-10 0.0000000000000000e+00  -4.3894765215380429e-09 -2.5403672535005228e-08 0.0000000000000000e+00  -6.4220457979923881e-09 -2.9822642456440922e-08 0.0000000000000000e+00  -3.8423672477378449e-09 -2.5706968798356395e-08 0.0000000000000000e+00  1.3233760850192661e-09 -1.9948576072108768e-08 0.0000000000000000e+00  6.8719593651066677e-09 -1.4789454186856330e-08 0.0000000000000000e+00  1.1727517147413206e-08 -1.0619905430781907e-08 0.0000000000000000e+00  1.5522182594623518e-08 -7.2902533931429953e-09 0.0000000000000000e+00  1.8191685254753368e-08 -4.5556715473396555e-09 0.0000000000000000e+00  1.9766986675190883e-08 -2.1904782710272645e-09 0.0000000000000000e+00  2.0287929329532547e-08 -7.1375715638223001e-13 0.0000000000000000e+00  1.9770797601871877e-08 2.1891898050133236e-09 0.0000000000000000e+00  1.8200212237293989e-08 4.5549293396497900e-09 0.0000000000000000e+00  1.5537565546426675e-08 7.2909917315417215e-09 0.0000000000000000e+00  1.1753776956397082e-08 1.0624598165630204e-08 0.0000000000000000e+00  6.9149222091209643e-09 1.4804718643022554e-08 0.0000000000000000e+00  1.3836520066214835e-09 1.9988670503185668e-08 0.0000000000000000e+00  -3.7811394988278742e-09 2.5773863154536005e-08 0.0000000000000000e+00  -6.3757888275708273e-09 2.9773553176710190e-08 0.0000000000000000e+00  -4.1613940136978122e-09 2.5026021202961381e-08 0.0000000000000000e+00  -2.1955884051847706e-10 1.3699595753839857e-09 0.0000000000000000e+00  6.3297253627212273e-11 -5.8840652500646045e-10 0.0000000000000000e+00  -2.9131496636336859e-09 -2.0847385491546585e-08 0.0000000000000000e+00  -6.3076662596441472e-09 -2.8517395378619191e-08 0.0000000000000000e+00  -7.2641221389556538e-09 -2.7977320152759486e-08 0.0000000000000000e+00  -5.7058600634347763e-09 -2.3933799054272339e-08 0.0000000000000000e+00  -2.8315680393631569e-09 -1.9033316872946372e-08 0.0000000000000000e+00  3.1263271724107705e-10 -1.4353239333802206e-08 0.0000000000000000e+00  3.0986436688197311e-09 -1.0185130858531582e-08 0.0000000000000000e+00  5.2118737337207581e-09 -6.5013005720115073e-09 0.0000000000000000e+00  6.5143695378382910e-09 -3.1632597416854055e-09 0.0000000000000000e+00  6.9539643731061166e-09 -1.1584094031366901e-12 0.0000000000000000e+00  6.5179974606178203e-09 3.1611404405382597e-09 0.0000000000000000e+00  5.2195223799526018e-09 6.4999238689643075e-09 0.0000000000000000e+00  3.1109984672665636e-09 1.0185565582944656e-08 0.0000000000000000e+00  3.3018913065393092e-10 1.4357541452631383e-08 0.0000000000000000e+00  -2.8096725896006616e-09 1.9044077386174228e-08 0.0000000000000000e+00  -5.6826602604987827e-09 2.3948269551941349e-08 0.0000000000000000e+00  -7.2432654778199759e-09 2.7969883923321741e-08 0.0000000000000000e+00  -6.2840534374592726e-09 2.8426986546577201e-08 0.0000000000000000e+00  -2.8372442915898183e-09 2.0726542508763081e-08 0.0000000000000000e+00  2.5422560800345832e-11 8.6017569067652657e-10 0.0000000000000000e+00  8.8243218726450752e-11 -3.8774930878046788e-10 0.0000000000000000e+00  -2.1033407346033462e-09 -1.7152644162281428e-08 0.0000000000000000e+00  -5.5169579752201518e-09 -2.5537870266583240e-08 0.0000000000000000e+00  -8.0162153866909911e-09 -2.7272957297737125e-08 0.0000000000000000e+00  -8.7901761076267834e-09 -2.5080221554815396e-08 0.0000000000000000e+00  -8.1877537531369091e-09 -2.1113848774555360e-08 0.0000000000000000e+00  -6.8581526286362119e-09 -1.6614123791214689e-08 0.0000000000000000e+00  -5.3642458941512845e-09 -1.2152088181138628e-08 0.0000000000000000e+00  -4.0857378389065403e-09 -7.9144862060004162e-09 0.0000000000000000e+00  -3.2447393119721034e-09 -3.8953948395075403e-09 0.0000000000000000e+00  -2.9524764156657162e-09 -1.7681001726979705e-12 0.0000000000000000e+00  -3.2422719864703663e-09 3.8920523410681190e-09 0.0000000000000000e+00  -4.0808815133701518e-09 7.9118126594297405e-09 0.0000000000000000e+00  -5.3573157362894393e-09 1.2150777820507304e-08 0.0000000000000000e+00  -6.8499952248004161e-09 1.6614928275190688e-08 0.0000000000000000e+00  -8.1799798808264113e-09 2.1116293196098059e-08 0.0000000000000000e+00  -8.7845330330298138e-09 2.5078599757784507e-08 0.0000000000000000e+00  -8.0110741320010820e-09 2.7251312114601738e-08 0.0000000000000000e+00  -5.5112158902788517e-09 2.5490282982824530e-08 0.0000000000000000e+00  -2.0829796858787313e-09 1.7122456090740922e-08 0.0000000000000000e+00  7.0922334203726897e-11 5.4320380831199978e-10 0.0000000000000000e+00  8.4520422117022799e-11 -2.6934780616399000e-10 0.0000000000000000e+00  -1.6288728667984919e-09 -1.4158141036354931e-08 0.0000000000000000e+00  -4.7542653482795753e-09 -2.2192374281624785e-08 0.0000000000000000e+00  -7.8156487788170518e-09 -2.5058428892521531e-08 0.0000000000000000e+00  -9.8921169337029672e-09 -2.4272681748915499e-08 0.0000000000000000e+00  -1.0872080736842106e-08 -2.1353194850297520e-08 0.0000000000000000e+00  -1.1030259948626218e-08 -1.7398788907459445e-08 0.0000000000000000e+00  -1.0737309271621225e-08 -1.3061064941403385e-08 0.0000000000000000e+00  -1.0310784156226579e-08 -8.6594465776605566e-09 0.0000000000000000e+00  -9.9715223892785811e-09 -4.3065311887021724e-09 0.0000000000000000e+00  -9.8446768194990833e-09 -2.1307753877119203e-12 0.0000000000000000e+00  -9.9704053076948951e-09 4.3024441634689500e-09 0.0000000000000000e+00  -1.0308800233588914e-08 8.6558999362808045e-09 0.0000000000000000e+00  -1.0734990748709836e-08 1.3058391812596478e-08 0.0000000000000000e+00  -1.1028402097075331e-08 1.7396927076585172e-08 0.0000000000000000e+00  -1.0871521278110476e-08 2.1350739357952921e-08 0.0000000000000000e+00  -9.8934252710291418e-09 2.4265779032720568e-08 0.0000000000000000e+00  -7.8175226690365677e-09 2.5042361243609487e-08 0.0000000000000000e+00  -4.7574818463963998e-09 2.2173038613126726e-08 0.0000000000000000e+00  -1.6237767952588654e-09 1.4154248737911432e-08 0.0000000000000000e+00  7.8411615329047406e-11 3.6352957893962862e-10 0.0000000000000000e+00  7.6913083295851782e-11 -1.9375319026519035e-10 0.0000000000000000e+00  -1.3237501620701340e-09 -1.1668547642759833e-08 0.0000000000000000e+00  -4.1238693348600263e-09 -1.8915876324917364e-08 0.0000000000000000e+00  -7.3003430600166884e-09 -2.2178367337216617e-08 0.0000000000000000e+00  -1.0022943932025686e-08 -2.2295757344548845e-08 0.0000000000000000e+00  -1.1982205400842843e-08 -2.0276591914540651e-08 0.0000000000000000e+00  -1.3199428705406925e-08 -1.6983659865972173e-08 0.0000000000000000e+00  -1.3852698532861245e-08 -1.3024281693150240e-08 0.0000000000000000e+00  -1.4148389933837058e-08 -8.7658315467171855e-09 0.0000000000000000e+00  -1.4255315446854579e-08 -4.3984522567588722e-09 0.0000000000000000e+00  -1.4279073552301323e-08 -2.2780227271232773e-12 0.0000000000000000e+00  -1.4255239126577394e-08 4.3940401310748544e-09 0.0000000000000000e+00  -1.4148448200303293e-08 8.7618246038745351e-09 0.0000000000000000e+00  -1.3853271298653023e-08 1.3020804928735267e-08 0.0000000000000000e+00  -1.3200952471471515e-08 1.6980439068900428e-08 0.0000000000000000e+00  -1.1984975434829515e-08 2.0272607331004428e-08 0.0000000000000000e+00  -1.0027033352190307e-08 2.2289450788026197e-08 0.0000000000000000e+00  -7.3048613079585846e-09 2.2169586427836798e-08 0.0000000000000000e+00  -4.1292144574757885e-09 1.8909476245344698e-08 0.0000000000000000e+00  -1.3222433705099396e-09 1.1671434680641514e-08 0.0000000000000000e+00  7.5776855529664034e-11 2.5524755928274612e-10 0.0000000000000000e+00  6.9560750100635811e-11 -1.4186337270152045e-10 0.0000000000000000e+00  -1.1108948285144536e-09 -9.5513011220924348e-09 0.0000000000000000e+00  -3.6114504085461791e-09 -1.5847717955015682e-08 0.0000000000000000e+00  -6.7047287944095667e-09 -1.9075354595252749e-08 0.0000000000000000e+00  -9.6890191409456217e-09 -1.9695580950005633e-08 0.0000000000000000e+00  -1.2191519482303487e-08 -1.8361865971284547e-08 0.0000000000000000e+00  -1.4086714494680445e-08 -1.5711402535122501e-08 0.0000000000000000e+00  -1.5404813081761805e-08 -1.2254868528071215e-08 0.0000000000000000e+00  -1.6241449802372775e-08 -8.3494620808313939e-09 0.0000000000000000e+00  -1.6696511122685357e-08 -4.2204566049224756e-09 0.0000000000000000e+00  -1.6840099693343027e-08 -2.2544918520789471e-12 0.0000000000000000e+00  -1.6697049748165432e-08 4.2160637583252172e-09 0.0000000000000000e+00  -1.6242639169326316e-08 8.3453798893831666e-09 0.0000000000000000e+00  -1.5406827539801148e-08 1.2251159228147159e-08 0.0000000000000000e+00  -1.4089701735456907e-08 1.5707880968032384e-08 0.0000000000000000e+00  -1.2195490766588854e-08 1.8358088888571757e-08 0.0000000000000000e+00  -9.6938305248211850e-09 1.9691271501548382e-08 0.0000000000000000e+00  -6.7095941578652740e-09 1.9071313748655265e-08 0.0000000000000000e+00  -3.6163503408687436e-09 1.5846570026223824e-08 0.0000000000000000e+00  -1.1101420030660356e-09 9.5552904569355415e-09 0.0000000000000000e+00  7.0505915233923496e-11 1.8451274999655538e-10 0.0000000000000000e+00  6.3119802678132476e-11 -1.0425781779086715e-10 0.0000000000000000e+00  -9.5318138010820552e-10 -7.7190808288230907e-09 0.0000000000000000e+00  -3.1916433741576019e-09 -1.3023564390639823e-08 0.0000000000000000e+00  -6.1192398123890335e-09 -1.5973198050869934e-08 0.0000000000000000e+00  -9.1506835218180090e-09 -1.6815566206183559e-08 0.0000000000000000e+00  -1.1909557673083219e-08 -1.5968549485967949e-08 0.0000000000000000e+00  -1.4194129469977736e-08 -1.3887166518871142e-08 0.0000000000000000e+00  -1.5934847654835174e-08 -1.0975898848109580e-08 0.0000000000000000e+00  -1.7137781480914107e-08 -7.5507660048102463e-09 0.0000000000000000e+00  -1.7837838240863819e-08 -3.8392765564036900e-09 0.0000000000000000e+00  -1.8067279483177555e-08 -2.1231608634978853e-12 0.0000000000000000e+00  -1.7838640709604435e-08 3.8351279794187690e-09 0.0000000000000000e+00  -1.7139417716967570e-08 7.5468807341888303e-09 0.0000000000000000e+00  -1.5937347070274430e-08 1.0972355517833294e-08 0.0000000000000000e+00  -1.4197468950625902e-08 1.3883930842080608e-08 0.0000000000000000e+00  -1.1913604303390893e-08 1.5965554061579648e-08 0.0000000000000000e+00  -9.1551883433929937e-09 1.6812983221858805e-08 0.0000000000000000e+00  -6.1234881279805759e-09 1.5971696998706880e-08 0.0000000000000000e+00  -3.1955161074715810e-09 1.3024340469755202e-08 0.0000000000000000e+00  -9.5254769321111745e-10 7.7226963510420365e-09 0.0000000000000000e+00  6.4875806116941207e-11 1.3528801889777860e-10 0.0000000000000000e+00  5.7660203173041995e-11 -7.5881376596183622e-11 0.0000000000000000e+00  -8.3214103161976245e-10 -6.1112034053407425e-09 0.0000000000000000e+00  -2.8469912250629822e-09 -1.0438716157906551e-08 0.0000000000000000e+00  -5.5839330957864395e-09 -1.2978889577931966e-08 0.0000000000000000e+00  -8.5512011564628485e-09 -1.3858091433188880e-08 0.0000000000000000e+00  -1.1391465441485259e-08 -1.3340563145590595e-08 0.0000000000000000e+00  -1.3868038979033095e-08 -1.1743976725166161e-08 0.0000000000000000e+00  -1.5849436849348383e-08 -9.3758582212785398e-09 0.0000000000000000e+00  -1.7277166529443267e-08 -6.4983735836489319e-09 0.0000000000000000e+00  -1.8133985345564902e-08 -3.3193820992198074e-09 0.0000000000000000e+00  -1.8419386304438529e-08 -1.9380469415152402e-12 0.0000000000000000e+00  -1.8134821098915134e-08 3.3155946010314644e-09 0.0000000000000000e+00  -1.7278822585200043e-08 6.4948337718872680e-09 0.0000000000000000e+00  -1.5851865188689932e-08 9.3726797430983973e-09 0.0000000000000000e+00  -1.3871134220486099e-08 1.1741233415129086e-08 0.0000000000000000e+00  -1.1395035163032131e-08 1.3338353632794797e-08 0.0000000000000000e+00  -8.5549689011909907e-09 1.3856655309039622e-08 0.0000000000000000e+00  -5.5872996004085852e-09 1.2978612365464633e-08 0.0000000000000000e+00  -2.8498787009756935e-09 1.0440070842914510e-08 0.0000000000000000e+00  -8.3152058932853591e-10 6.1142065929002384e-09 0.0000000000000000e+00  5.9625319772320958e-11 9.9348613546458317e-11 0.0000000000000000e+00  5.3184693952195384e-11 -5.3739658698569520e-11 0.0000000000000000e+00  -7.3855236382681334e-10 -4.6813966983028352e-09 0.0000000000000000e+00  -2.5682422403056534e-09 -8.0700628025684874e-09 0.0000000000000000e+00  -5.1210707975415797e-09 -1.0134151304323122e-08 0.0000000000000000e+00  -7.9765144960257330e-09 -1.0932459292507376e-08 0.0000000000000000e+00  -1.0802001556994839e-08 -1.0629440105130633e-08 0.0000000000000000e+00  -1.3348048036529661e-08 -9.4417727070989515e-09 0.0000000000000000e+00  -1.5447240558215554e-08 -7.5945708151842534e-09 0.0000000000000000e+00  -1.6998086228328556e-08 -5.2933930467160022e-09 0.0000000000000000e+00  -1.7945549033578734e-08 -2.7133198030291509e-09 0.0000000000000000e+00  -1.8264038335857229e-08 -1.7411964365400428e-12 0.0000000000000000e+00  -1.7946287922526833e-08 2.7099224881969533e-09 0.0000000000000000e+00  -1.6999529168572750e-08 5.2902414571218156e-09 0.0000000000000000e+00  -1.5449310389748623e-08 7.5918040918464756e-09 0.0000000000000000e+00  -1.3350614780893927e-08 9.4395165351667320e-09 0.0000000000000000e+00  -1.0804868908316819e-08 1.0627836904125375e-08 0.0000000000000000e+00  -7.9794318144588973e-09 1.0931698640037977e-08 0.0000000000000000e+00  -5.1235762488504314e-09 1.0134410116328486e-08 0.0000000000000000e+00  -2.5703163766374019e-09 8.0714974567380153e-09 0.0000000000000000e+00  -7.3796935732663439e-10 4.6838790368907460e-09 0.0000000000000000e+00  5.5033252149648714e-11 7.2104549969737576e-11 0.0000000000000000e+00  4.9713724926699681e-11 -3.5860908945764657e-11 0.0000000000000000e+00  -6.6792909359087714e-10 -3.3905993605707508e-09 0.0000000000000000e+00  -2.3516120756133091e-09 -5.8842074795620544e-09 0.0000000000000000e+00  -4.7458790794482984e-09 -7.4419799979555544e-09 0.0000000000000000e+00  -7.4821455501070451e-09 -8.0870481850324269e-09 0.0000000000000000e+00  -1.0250692033694496e-08 -7.9187230555498689e-09 0.0000000000000000e+00  -1.2799951098243427e-08 -7.0792323047740097e-09 0.0000000000000000e+00  -1.4943043911395527e-08 -5.7250039369546028e-09 0.0000000000000000e+00  -1.6551674725719549e-08 -4.0065697197521946e-09 0.0000000000000000e+00  -1.7545521120621833e-08 -2.0589913027061778e-09 0.0000000000000000e+00  -1.7881486897565033e-08 -1.5629339549746821e-12 0.0000000000000000e+00  -1.7546099287414206e-08 2.0559491934717341e-09 0.0000000000000000e+00  -1.6552794272100546e-08 4.0037736779912936e-09 0.0000000000000000e+00  -1.4944628544503308e-08 5.7226042950700943e-09 0.0000000000000000e+00  -1.2801881747064699e-08 7.0773691825971676e-09 0.0000000000000000e+00  -1.0252802758608250e-08 7.9175320371396302e-09 0.0000000000000000e+00  -7.4842397333397211e-09 8.0866563968593668e-09 0.0000000000000000e+00  -4.7476286546378020e-09 7.4424463187395863e-09 0.0000000000000000e+00  -2.3530331204584669e-09 5.8855696003489973e-09 0.0000000000000000e+00  -6.6743449769992166e-10 3.3927106417174481e-09 0.0000000000000000e+00  5.1246587251178206e-11 5.0759180660419740e-11 0.0000000000000000e+00  4.7283071332079237e-11 -2.0797579030584157e-11 0.0000000000000000e+00  -6.1821064004130964e-10 -2.2029862860022777e-09 0.0000000000000000e+00  -2.1962978475501244e-09 -3.8409625277464021e-09 0.0000000000000000e+00  -4.4697229790229857e-09 -4.8812570259171510e-09 0.0000000000000000e+00  -7.1052430264891359e-09 -5.3303999128285163e-09 0.0000000000000000e+00  -9.8107591318040261e-09 -5.2442420502301522e-09 0.0000000000000000e+00  -1.2336726939771485e-