<?xml version="1.0"?>
<VTKFile type="UnstructuredGrid"  version="0.1"  >
<UnstructuredGrid>
<Piece  NumberOfPoints="651" NumberOfCells="1200">
<Points>
<DataArray  type="Float64"  NumberOfComponents="3"  format="ascii">0 0 0  50000 0 0  100000 0 0  150000 0 0  200000 0 0  250000 0 0  300000 0 0  350000 0 0  400000 0 0  450000 0 0  500000 0 0  550000 0 0  600000 0 0  650000 0 0  700000 0 0  750000 0 0  800000 0 0  850000 0 0  900000 0 0  950000 0 0  1000000 0 0  0 50000 0  50000 50000 0  100000 50000 0  150000 50000 0  200000 50000 0  250000 50000 0  300000 50000 0  350000 50000 0  400000 50000 0  450000 50000 0  500000 50000 0  550000 50000 0  600000 50000 0  650000 50000 0  700000 50000 0  750000 50000 0  800000 50000 0  850000 50000 0  900000 50000 0  950000 50000 0  1000000 50000 0  0 100000 0  50000 100000 0  100000 100000 0  150000 100000 0  200000 100000 0  250000 100000 0  300000 100000 0  350000 100000 0  400000 100000 0  450000 100000 0  500000 100000 0  550000 100000 0  600000 100000 0  650000 100000 0  700000 100000 0  750000 100000 0  800000 100000 0  850000 100000 0  900000 100000 0  950000 100000 0  1000000 100000 0  0 150000 0  50000 150000 0  100000 150000 0  150000 150000 0  200000 150000 0  250000 150000 0  300000 150000 0  350000 150000 0  400000 150000 0  450000 150000 0  500000 150000 0  550000 150000 0  600000 150000 0  650000 150000 0  700000 150000 0  750000 150000 0  800000 150000 0  850000 150000 0  900000 150000 0  950000 150000 0  1000000 150000 0  0 200000 0  50000 200000 0  100000 200000 0  150000 200000 0  200000 200000 0  250000 200000 0  300000 200000 0  350000 200000 0  400000 200000 0  450000 200000 0  500000 200000 0  550000 200000 0  600000 200000 0  650000 200000 0  700000 200000 0  750000 200000 0  800000 200000 0  850000 200000 0  900000 200000 0  950000 200000 0  1000000 200000 0  0 250000 0  50000 250000 0  100000 250000 0  150000 250000 0  200000 250000 0  250000 250000 0  300000 250000 0  350000 250000 0  400000 250000 0  450000 250000 0  500000 250000 0  550000 250000 0  600000 250000 0  650000 250000 0  700000 250000 0  750000 250000 0  800000 250000 0  850000 250000 0  900000 250000 0  950000 250000 0  1000000 250000 0  0 300000 0  50000 300000 0  100000 300000 0  150000 300000 0  200000 300000 0  250000 300000 0  300000 300000 0  350000 300000 0  400000 300000 0  450000 300000 0  500000 300000 0  550000 300000 0  600000 300000 0  650000 300000 0  700000 300000 0  750000 300000 0  800000 300000 0  850000 300000 0  900000 300000 0  950000 300000 0  1000000 300000 0  0 350000 0  50000 350000 0  100000 350000 0  150000 350000 0  200000 350000 0  250000 350000 0  300000 350000 0  350000 350000 0  400000 350000 0  450000 350000 0  500000 350000 0  550000 350000 0  600000 350000 0  650000 350000 0  700000 350000 0  750000 350000 0  800000 350000 0  850000 350000 0  900000 350000 0  950000 350000 0  1000000 350000 0  0 400000 0  50000 400000 0  100000 400000 0  150000 400000 0  200000 400000 0  250000 400000 0  300000 400000 0  350000 400000 0  400000 400000 0  450000 400000 0  500000 400000 0  550000 400000 0  600000 400000 0  650000 400000 0  700000 400000 0  750000 400000 0  800000 400000 0  850000 400000 0  900000 400000 0  950000 400000 0  1000000 400000 0  0 450000 0  50000 450000 0  100000 450000 0  150000 450000 0  200000 450000 0  250000 450000 0  300000 450000 0  350000 450000 0  400000 450000 0  450000 450000 0  500000 450000 0  550000 450000 0  600000 450000 0  650000 450000 0  700000 450000 0  750000 450000 0  800000 450000 0  850000 450000 0  900000 450000 0  950000 450000 0  1000000 450000 0  0 500000 0  50000 500000 0  100000 500000 0  150000 500000 0  200000 500000 0  250000 500000 0  300000 500000 0  350000 500000 0  400000 500000 0  450000 500000 0  500000 500000 0  550000 500000 0  600000 500000 0  650000 500000 0  700000 500000 0  750000 500000 0  800000 500000 0  850000 500000 0  900000 500000 0  950000 500000 0  1000000 500000 0  0 550000 0  50000 550000 0  100000 550000 0  150000 550000 0  200000 550000 0  250000 550000 0  300000 550000 0  350000 550000 0  400000 550000 0  450000 550000 0  500000 550000 0  550000 550000 0  600000 550000 0  650000 550000 0  700000 550000 0  750000 550000 0  800000 550000 0  850000 550000 0  900000 550000 0  950000 550000 0  1000000 550000 0  0 600000 0  50000 600000 0  100000 600000 0  150000 600000 0  200000 600000 0  250000 600000 0  300000 600000 0  350000 600000 0  400000 600000 0  450000 600000 0  500000 600000 0  550000 600000 0  600000 600000 0  650000 600000 0  700000 600000 0  750000 600000 0  800000 600000 0  850000 600000 0  900000 600000 0  950000 600000 0  1000000 600000 0  0 650000 0  50000 650000 0  100000 650000 0  150000 650000 0  200000 650000 0  250000 650000 0  300000 650000 0  350000 650000 0  400000 650000 0  450000 650000 0  500000 650000 0  550000 650000 0  600000 650000 0  650000 650000 0  700000 650000 0  750000 650000 0  800000 650000 0  850000 650000 0  900000 650000 0  950000 650000 0  1000000 650000 0  0 700000 0  50000 700000 0  100000 700000 0  150000 700000 0  200000 700000 0  250000 700000 0  300000 700000 0  350000 700000 0  400000 700000 0  450000 700000 0  500000 700000 0  550000 700000 0  600000 700000 0  650000 700000 0  700000 700000 0  750000 700000 0  800000 700000 0  850000 700000 0  900000 700000 0  950000 700000 0  1000000 700000 0  0 750000 0  50000 750000 0  100000 750000 0  150000 750000 0  200000 750000 0  250000 750000 0  300000 750000 0  350000 750000 0  400000 750000 0  450000 750000 0  500000 750000 0  550000 750000 0  600000 750000 0  650000 750000 0  700000 750000 0  750000 750000 0  800000 750000 0  850000 750000 0  900000 750000 0  950000 750000 0  1000000 750000 0  0 800000 0  50000 800000 0  100000 800000 0  150000 800000 0  200000 800000 0  250000 800000 0  300000 800000 0  350000 800000 0  400000 800000 0  450000 800000 0  500000 800000 0  550000 800000 0  600000 800000 0  650000 800000 0  700000 800000 0  750000 800000 0  800000 800000 0  850000 800000 0  900000 800000 0  950000 800000 0  1000000 800000 0  0 850000 0  50000 850000 0  100000 850000 0  150000 850000 0  200000 850000 0  250000 850000 0  300000 850000 0  350000 850000 0  400000 850000 0  450000 850000 0  500000 850000 0  550000 850000 0  600000 850000 0  650000 850000 0  700000 850000 0  750000 850000 0  800000 850000 0  850000 850000 0  900000 850000 0  950000 850000 0  1000000 850000 0  0 900000 0  50000 900000 0  100000 900000 0  150000 900000 0  200000 900000 0  250000 900000 0  300000 900000 0  350000 900000 0  400000 900000 0  450000 900000 0  500000 900000 0  550000 900000 0  600000 900000 0  650000 900000 0  700000 900000 0  750000 900000 0  800000 900000 0  850000 900000 0  900000 900000 0  950000 900000 0  1000000 900000 0  0 950000 0  50000 950000 0  100000 950000 0  150000 950000 0  200000 950000 0  250000 950000 0  300000 950000 0  350000 950000 0  400000 950000 0  450000 950000 0  500000 950000 0  550000 950000 0  600000 950000 0  650000 950000 0  700000 950000 0  750000 950000 0  800000 950000 0  850000 950000 0  900000 950000 0  950000 950000 0  1000000 950000 0  0 1000000 0  50000 1000000 0  100000 1000000 0  150000 1000000 0  200000 1000000 0  250000 1000000 0  300000 1000000 0  350000 1000000 0  400000 1000000 0  450000 1000000 0  500000 1000000 0  550000 1000000 0  600000 1000000 0  650000 1000000 0  700000 1000000 0  750000 1000000 0  800000 1000000 0  850000 1000000 0  900000 1000000 0  950000 1000000 0  1000000 1000000 0  0 1050000 0  50000 1050000 0  100000 1050000 0  150000 1050000 0  200000 1050000 0  250000 1050000 0  300000 1050000 0  350000 1050000 0  400000 1050000 0  450000 1050000 0  500000 1050000 0  550000 1050000 0  600000 1050000 0  650000 1050000 0  700000 1050000 0  750000 1050000 0  800000 1050000 0  850000 1050000 0  900000 1050000 0  950000 1050000 0  1000000 1050000 0  0 1100000 0  50000 1100000 0  100000 1100000 0  150000 1100000 0  200000 1100000 0  250000 1100000 0  300000 1100000 0  350000 1100000 0  400000 1100000 0  450000 1100000 0  500000 1100000 0  550000 1100000 0  600000 1100000 0  650000 1100000 0  700000 1100000 0  750000 1100000 0  800000 1100000 0  850000 1100000 0  900000 1100000 0  950000 1100000 0  1000000 1100000 0  0 1150000 0  50000 1150000 0  100000 1150000 0  150000 1150000 0  200000 1150000 0  250000 1150000 0  300000 1150000 0  350000 1150000 0  400000 1150000 0  450000 1150000 0  500000 1150000 0  550000 1150000 0  600000 1150000 0  650000 1150000 0  700000 1150000 0  750000 1150000 0  800000 1150000 0  850000 1150000 0  900000 1150000 0  950000 1150000 0  1000000 1150000 0  0 1200000 0  50000 1200000 0  100000 1200000 0  150000 1200000 0  200000 1200000 0  250000 1200000 0  300000 1200000 0  350000 1200000 0  400000 1200000 0  450000 1200000 0  500000 1200000 0  550000 1200000 0  600000 1200000 0  650000 1200000 0  700000 1200000 0  750000 1200000 0  800000 1200000 0  850000 1200000 0  900000 1200000 0  950000 1200000 0  1000000 1200000 0  0 1250000 0  50000 1250000 0  100000 1250000 0  150000 1250000 0  200000 1250000 0  250000 1250000 0  300000 1250000 0  350000 1250000 0  400000 1250000 0  450000 1250000 0  500000 1250000 0  550000 1250000 0  600000 1250000 0  650000 1250000 0  700000 1250000 0  750000 1250000 0  800000 1250000 0  850000 1250000 0  900000 1250000 0  950000 1250000 0  1000000 1250000 0  0 1300000 0  50000 1300000 0  100000 1300000 0  150000 1300000 0  200000 1300000 0  250000 1300000 0  300000 1300000 0  350000 1300000 0  400000 1300000 0  450000 1300000 0  500000 1300000 0  550000 1300000 0  600000 1300000 0  650000 1300000 0  700000 1300000 0  750000 1300000 0  800000 1300000 0  850000 1300000 0  900000 1300000 0  950000 1300000 0  1000000 1300000 0  0 1350000 0  50000 1350000 0  100000 1350000 0  150000 1350000 0  200000 1350000 0  250000 1350000 0  300000 1350000 0  350000 1350000 0  400000 1350000 0  450000 1350000 0  500000 1350000 0  550000 1350000 0  600000 1350000 0  650000 1350000 0  700000 135
[...]
<PointData  Vectors="f_10477"> 
<DataArray  type="Float64"  Name="f_10477"  NumberOfComponents="3" format="ascii">-6.3232561443159279e-09 -3.5448939061524062e-09 0.0000000000000000e+00  7.4804807346773848e-08 -2.2849050501460580e-09 0.0000000000000000e+00  7.7850887217601507e-08 -1.1724846031043403e-10 0.0000000000000000e+00  7.8885906438315382e-08 2.7544373844969659e-10 0.0000000000000000e+00  7.9380010712876729e-08 2.5181352574810434e-10 0.0000000000000000e+00  7.9610936368478632e-08 1.7875987781591357e-10 0.0000000000000000e+00  7.9724857201205283e-08 1.1796310002596443e-10 0.0000000000000000e+00  7.9783357927604632e-08 7.3853103410536223e-11 0.0000000000000000e+00  7.9812998742136050e-08 4.1593112246256814e-11 0.0000000000000000e+00  7.9825660542879166e-08 1.6204159802146427e-11 0.0000000000000000e+00  7.9826078869378134e-08 -6.4069032878716593e-12 0.0000000000000000e+00  7.9814486367519528e-08 -2.9834700669787168e-11 0.0000000000000000e+00  7.9786780526378085e-08 -5.7701696814042408e-11 0.0000000000000000e+00  7.9732402377948422e-08 -9.4132305121363818e-11 0.0000000000000000e+00  7.9628097150753320e-08 -1.4400974852610120e-10 0.0000000000000000e+00  7.9421602611163845e-08 -2.1183564815910556e-10 0.0000000000000000e+00  7.8994536634038676e-08 -2.9030434487940781e-10 0.0000000000000000e+00  7.8126585976688531e-08 -2.6720251941126012e-10 0.0000000000000000e+00  7.6414872591355720e-08 7.3942490789200886e-10 0.0000000000000000e+00  7.2354165450485450e-08 5.0698666021577161e-09 0.0000000000000000e+00  -8.4675429360592348e-09 5.1734000037578562e-09 0.0000000000000000e+00  -4.4176115473242358e-09 -4.0236511811744833e-09 0.0000000000000000e+00  -6.0708221782464010e-10 -2.3175218050283605e-08 0.0000000000000000e+00  1.7085489755198258e-08 -1.3931327428054748e-08 0.0000000000000000e+00  3.1144889815362848e-08 -7.6473423791550127e-09 0.0000000000000000e+00  4.0008341260441392e-08 -4.3514782900765663e-09 0.0000000000000000e+00  4.5537758147279742e-08 -2.5882482644235065e-09 0.0000000000000000e+00  4.9015134567038003e-08 -1.5789630688735466e-09 0.0000000000000000e+00  5.1192317506066337e-08 -9.5865299279317291e-10 0.0000000000000000e+00  5.2507170564321192e-08 -5.4873456385465242e-10 0.0000000000000000e+00  5.3210056338310011e-08 -2.5097202168082223e-10 0.0000000000000000e+00  5.3430366593873758e-08 -2.5674285993922235e-12 0.0000000000000000e+00  5.3208111235288575e-08 2.4537423315645197e-10 0.0000000000000000e+00  5.2503334325159714e-08 5.4160811834273977e-10 0.0000000000000000e+00  5.1187138840034309e-08 9.4835846160125497e-10 0.0000000000000000e+00  4.9011324508211853e-08 1.5621475219485254e-09 0.0000000000000000e+00  4.5545778968389163e-08 2.5570596715724751e-09 0.0000000000000000e+00  4.0063760347214558e-08 4.2937640355615536e-09 0.0000000000000000e+00  3.1372009265735191e-08 7.6146927490602297e-09 0.0000000000000000e+00  1.7899540523256566e-08 1.4367821699400502e-08 0.0000000000000000e+00  4.1024715281423339e-10 2.4911007590845215e-08 0.0000000000000000e+00  -7.0225092811984239e-09 5.5568215945548271e-09 0.0000000000000000e+00  -1.3339030123583125e-09 -2.3648099442173886e-09 0.0000000000000000e+00  -6.6333900491342893e-09 -2.9349167805887859e-08 0.0000000000000000e+00  -3.2036386520471880e-09 -2.5447581703476618e-08 0.0000000000000000e+00  5.1232505104101377e-09 -1.7709611339600059e-08 0.0000000000000000e+00  1.3316895030276499e-08 -1.1672342474160718e-08 0.0000000000000000e+00  1.9689830045605251e-08 -7.5980784295774324e-09 0.0000000000000000e+00  2.4232282490906576e-08 -4.9007859528109739e-09 0.0000000000000000e+00  2.7306340744988809e-08 -3.0819152488170939e-09 0.0000000000000000e+00  2.9257007722493211e-08 -1.8017410317739985e-09 0.0000000000000000e+00  3.0331861849329785e-08 -8.3007942972070571e-10 0.0000000000000000e+00  3.0674786194920585e-08 1.2324087531590190e-12 0.0000000000000000e+00  3.0332870931180095e-08 8.3283079515591634e-10 0.0000000000000000e+00  2.9260058838470024e-08 1.8054604247318303e-09 0.0000000000000000e+00  2.7314294539836391e-08 3.0877036714631278e-09 0.0000000000000000e+00  2.4252105903728447e-08 4.9110424009918272e-09 0.0000000000000000e+00  1.9738528515315222e-08 7.6200794449155270e-09 0.0000000000000000e+00  1.3435728466245734e-08 1.1730841390179998e-08 0.0000000000000000e+00  5.3764285622892443e-09 1.7857714320896975e-08 0.0000000000000000e+00  -2.8571088138782580e-09 2.5637493050003970e-08 0.0000000000000000e+00  -6.2588832408661782e-09 2.8421206590833032e-08 0.0000000000000000e+00  -2.2966664674446305e-09 2.9542986953112715e-09 0.0000000000000000e+00  -1.9542985476846950e-10 -1.3029669961058322e-09 0.0000000000000000e+00  -4.7801523528888185e-09 -2.4780616758477031e-08 0.0000000000000000e+00  -7.3158933366569488e-09 -2.8309174477251584e-08 0.0000000000000000e+00  -5.6103872232137416e-09 -2.3644609508691349e-08 0.0000000000000000e+00  -1.5774640284226845e-09 -1.7629312962672273e-08 0.0000000000000000e+00  2.7630575012793930e-09 -1.2455032961578712e-08 0.0000000000000000e+00  6.4607151461463906e-09 -8.4871941992103726e-09 0.0000000000000000e+00  9.2492315045008651e-09 -5.5382179351846953e-09 0.0000000000000000e+00  1.1143622236600096e-08 -3.3166840089780362e-09 0.0000000000000000e+00  1.2231362317748303e-08 -1.5496101853725620e-09 0.0000000000000000e+00  1.2585888478323990e-08 9.9528389542682657e-13 0.0000000000000000e+00  1.2234670192179653e-08 1.5518560075937823e-09 0.0000000000000000e+00  1.1151443050509710e-08 3.3198422462211903e-09 0.0000000000000000e+00  9.2644295124012182e-09 5.5435376933164350e-09 0.0000000000000000e+00  6.4887504635402287e-09 8.4975939981752237e-09 0.0000000000000000e+00  2.8123100748443356e-09 1.2477523223873572e-08 0.0000000000000000e+00  -1.5031218764589754e-09 1.7676431636380357e-08 0.0000000000000000e+00  -5.5300277327610104e-09 2.3707273585342743e-08 0.0000000000000000e+00  -7.2477023589466945e-09 2.8204188556858355e-08 0.0000000000000000e+00  -4.5681186004054051e-09 2.4311487616841253e-08 0.0000000000000000e+00  -3.3869813589220765e-10 1.8253780447101129e-09 0.0000000000000000e+00  7.2753868693067006e-11 -7.9592006955518174e-10 0.0000000000000000e+00  -3.2940794000409985e-09 -1.9756029954605610e-08 0.0000000000000000e+00  -7.2776442408294628e-09 -2.6235552637107257e-08 0.0000000000000000e+00  -9.1089026220788661e-09 -2.4885707765537920e-08 0.0000000000000000e+00  -8.6233946981693655e-09 -2.0439436252574487e-08 0.0000000000000000e+00  -6.8928399672812335e-09 -1.5510919168883699e-08 0.0000000000000000e+00  -4.8511077043709906e-09 -1.1133074863866944e-08 0.0000000000000000e+00  -3.0279759476258118e-09 -7.5373550795165983e-09 0.0000000000000000e+00  -1.6595340262442074e-09 -4.6270026564005530e-09 0.0000000000000000e+00  -8.2683101386422870e-10 -2.1932851327695459e-09 0.0000000000000000e+00  -5.4768315531089667e-10 6.4039180087314981e-13 0.0000000000000000e+00  -8.2321300195323504e-10 2.1947994834189671e-09 0.0000000000000000e+00  -1.6516442660511470e-09 4.6293539186599397e-09 0.0000000000000000e+00  -3.0145606766425017e-09 7.5416037975649871e-09 0.0000000000000000e+00  -4.8307396484562280e-09 1.1141018768359627e-08 0.0000000000000000e+00  -6.8652906258358033e-09 1.5524067210250292e-08 0.0000000000000000e+00  -8.5916277352533414e-09 2.0451878831019943e-08 0.0000000000000000e+00  -9.0822680154886551e-09 2.4866298368957574e-08 0.0000000000000000e+00  -7.2534378437831259e-09 2.6114322538950456e-08 0.0000000000000000e+00  -3.2113827039704617e-09 1.9593693092615868e-08 0.0000000000000000e+00  2.5068450644795631e-11 1.1571475431954966e-09 0.0000000000000000e+00  1.1588954129136305e-10 -5.1235087026339058e-10 0.0000000000000000e+00  -2.4021257424014049e-09 -1.5581593819231115e-08 0.0000000000000000e+00  -6.3400880024616067e-09 -2.2532584229158696e-08 0.0000000000000000e+00  -9.5741166445420590e-09 -2.3265437908428434e-08 0.0000000000000000e+00  -1.1217494960192414e-08 -2.0556517698984196e-08 0.0000000000000000e+00  -1.1536371721261926e-08 -1.6549516965807259e-08 0.0000000000000000e+00  -1.1097428924939455e-08 -1.2435304246924298e-08 0.0000000000000000e+00  -1.0385593423980714e-08 -8.7105943567285567e-09 0.0000000000000000e+00  -9.7151540132062370e-09 -5.4749217492511295e-09 0.0000000000000000e+00  -9.2591726720803573e-09 -2.6318621144276912e-09 0.0000000000000000e+00  -9.0985766074202749e-09 -1.9143910542884792e-15 0.0000000000000000e+00  -9.2564017128755023e-09 2.6320052270873845e-09 0.0000000000000000e+00  -9.7095194347172612e-09 5.4755579073641038e-09 0.0000000000000000e+00  -1.0377088062206339e-08 8.7121570471772628e-09 0.0000000000000000e+00  -1.1086522737859174e-08 1.2437962579218669e-08 0.0000000000000000e+00  -1.1524559582308217e-08 1.6551524500860765e-08 0.0000000000000000e+00  -1.1207233062560522e-08 2.0549847026512237e-08 0.0000000000000000e+00  -9.5667160509227119e-09 2.3231759574917758e-08 0.0000000000000000e+00  -6.3349558998290715e-09 2.2465960636862736e-08 0.0000000000000000e+00  -2.3755759298831016e-09 1.5532752625690263e-08 0.0000000000000000e+00  9.7886388110984277e-11 7.2893822717408968e-10 0.0000000000000000e+00  1.1051551696673270e-10 -3.4309945942748416e-10 0.0000000000000000e+00  -1.8237895474129188e-09 -1.2220695920730223e-08 0.0000000000000000e+00  -5.2996930491794601e-09 -1.8632983640372148e-08 0.0000000000000000e+00  -8.8449029938100450e-09 -2.0368465167132071e-08 0.0000000000000000e+00  -1.1485850832808598e-08 -1.8993339934206249e-08 0.0000000000000000e+00  -1.3062848650586186e-08 -1.6024227477009024e-08 0.0000000000000000e+00  -1.3801530842040192e-08 -1.2512455083461479e-08 0.0000000000000000e+00  -1.4022752266257928e-08 -9.0297701308804257e-09 0.0000000000000000e+00  -1.3999384639474019e-08 -5.7974122363188542e-09 0.0000000000000000e+00  -1.3916996916295948e-08 -2.8228349638771076e-09 0.0000000000000000e+00  -1.3878207968224229e-08 -5.7023442972369013e-13 0.0000000000000000e+00  -1.3915406481317738e-08 2.8217572874372101e-09 0.0000000000000000e+00  -1.3996373319356008e-08 5.7965010389214231e-09 0.0000000000000000e+00  -1.4018734237561885e-08 9.0289725798817272e-09 0.0000000000000000e+00  -1.3797265907988569e-08 1.2511103309340553e-08 0.0000000000000000e+00  -1.3059460274642131e-08 1.6020025330716204e-08 0.0000000000000000e+00  -1.1484621976425718e-08 1.8981326155417027e-08 0.0000000000000000e+00  -8.8458141040771109e-09 2.0343378062087386e-08 0.0000000000000000e+00  -5.3034580149770984e-09 1.8602354558997399e-08 0.0000000000000000e+00  -1.8144279680794872e-09 1.2208456840524211e-08 0.0000000000000000e+00  1.0736200757622878e-10 4.7666825330339875e-10 0.0000000000000000e+00  9.5558014289684888e-11 -2.3595507794820929e-10 0.0000000000000000e+00  -1.4111773321246647e-09 -9.5279032799215637e-09 0.0000000000000000e+00  -4.3450726452497211e-09 -1.5052087440120175e-08 0.0000000000000000e+00  -7.7044457005793843e-09 -1.7118691907499556e-08 0.0000000000000000e+00  -1.0640485437477058e-08 -1.6608506921432230e-08 0.0000000000000000e+00  -1.2829006391238970e-08 -1.4531518414777043e-08 0.0000000000000000e+00  -1.4275435621434161e-08 -1.1707012589868307e-08 0.0000000000000000e+00  -1.5137985330116696e-08 -8.6629622444255884e-09 0.0000000000000000e+00  -1.5602186610594989e-08 -5.6646342755158582e-09 0.0000000000000000e+00  -1.5818516020045014e-08 -2.7892350645273920e-09 0.0000000000000000e+00  -1.5880046325346148e-08 -9.9492384231028443e-13 0.0000000000000000e+00  -1.5817900838513263e-08 2.7872448558447539e-09 0.0000000000000000e+00  -1.5601154057327287e-08 5.6625897205291197e-09 0.0000000000000000e+00  -1.5136929268777122e-08 8.6605980112800832e-09 0.0000000000000000e+00  -1.4274916719684968e-08 1.1703566547505017e-08 0.0000000000000000e+00  -1.2829677850420974e-08 1.4525444303787191e-08 0.0000000000000000e+00  -1.0642984961184570e-08 1.6597875437863442e-08 0.0000000000000000e+00  -7.7085623466081079e-09 1.7103630862138351e-08 0.0000000000000000e+00  -4.3510327792313437e-09 1.5039197031359760e-08 0.0000000000000000e+00  -1.4063007297140118e-09 9.5272590329877425e-09 0.0000000000000000e+00  9.9093858339984151e-11 3.2248879491299326e-10 0.0000000000000000e+00  7.9994637032824344e-11 -1.6492906973461853e-10 0.0000000000000000e+00  -1.1015896054424563e-09 -7.3768593295826839e-09 0.0000000000000000e+00  -3.5251490644533005e-09 -1.1948448126443999e-08 0.0000000000000000e+00  -6.5061787450439271e-09 -1.3978594219913695e-08 0.0000000000000000e+00  -9.3608278288167854e-09 -1.3965150478694132e-08 0.0000000000000000e+00  -1.1733723953228896e-08 -1.2565025547939665e-08 0.0000000000000000e+00  -1.3514537991439881e-08 -1.0377123835196956e-08 0.0000000000000000e+00  -1.4742228086825634e-08 -7.8375044907089697e-09 0.0000000000000000e+00  -1.5515479722895955e-08 -5.2034571848714271e-09 0.0000000000000000e+00  -1.5933580318660770e-08 -2.5864096517193692e-09 0.0000000000000000e+00  -1.6064938463845895e-08 -1.2640945343236970e-12 0.0000000000000000e+00  -1.5933582423665053e-08 2.5838480551254031e-09 0.0000000000000000e+00  -1.5515623356915673e-08 5.2007461239670601e-09 0.0000000000000000e+00  -1.4742770126225336e-08 7.8343709559634288e-09 0.0000000000000000e+00  -1.3515810470230313e-08 1.0373042492741766e-08 0.0000000000000000e+00  -1.1736073539560858e-08 1.2559295230336928e-08 0.0000000000000000e+00  -9.3645395858346448e-09 1.3957495466351933e-08 0.0000000000000000e+00  -6.5108822590139559e-09 1.3970368024753936e-08 0.0000000000000000e+00  -3.5305960032951444e-09 1.1943759916012846e-08 0.0000000000000000e+00  -1.0980373331595544e-09 7.3797349301306052e-09 0.0000000000000000e+00  8.5914045030079485e-11 2.2314734789179402e-10 0.0000000000000000e+00  6.6261813193528345e-11 -1.1623481623015627e-10 0.0000000000000000e+00  -8.6694609308003104e-10 -5.6593734687583184e-09 0.0000000000000000e+00  -2.8522319515669158e-09 -9.3325070718686230e-09 0.0000000000000000e+00  -5.4153694509940183e-09 -1.1144004740971270e-08 0.0000000000000000e+00  -8.0205750479237011e-09 -1.1377232130109738e-08 0.0000000000000000e+00  -1.0337107574765560e-08 -1.0456208220893141e-08 0.0000000000000000e+00  -1.2205684774427939e-08 -8.8040016104409577e-09 0.0000000000000000e+00  -1.3591046316077500e-08 -6.7582856944651609e-09 0.0000000000000000e+00  -1.4524305630295691e-08 -4.5423526094484533e-09 0.0000000000000000e+00  -1.5056604392913127e-08 -2.2752105122168983e-09 0.0000000000000000e+00  -1.5229036765803240e-08 -1.4010065296923790e-12 0.0000000000000000e+00  -1.5056915496252999e-08 2.2723691492260872e-09 0.0000000000000000e+00  -1.4525005828878779e-08 4.5393637195591540e-09 0.0000000000000000e+00  -1.3592274218044174e-08 6.7549646851655814e-09 0.0000000000000000e+00  -1.2207610641060727e-08 8.8000986505736235e-09 0.0000000000000000e+00  -1.0339888526612312e-08 1.0451569506349179e-08 0.0000000000000000e+00  -8.0242851419303191e-09 1.1372199155460620e-08 0.0000000000000000e+00  -5.4195544641203835e-09 1.1139827214859698e-08 0.0000000000000000e+00  -2.8565096605756931e-09 9.3315407709492346e-09 0.0000000000000000e+00  -8.6410156467911719e-10 5.6630963805588230e-09 0.0000000000000000e+00  7.2433155501331468e-11 1.5658964663073529e-10 0.0000000000000000e+00  5.5052075514902059e-11 -8.1813266188373322e-11 0.0000000000000000e+00  -6.9148015753987487e-10 -4.2806389224277486e-09 0.0000000000000000e+00  -2.3226605390775032e-09 -7.1504367808186376e-09 0.0000000000000000e+00  -4.5024253422325022e-09 -8.6657441496092167e-09 0.0000000000000000e+00  -6.8119828234077534e-09 -8.9890850121808542e-09 0.0000000000000000e+00  -8.9620681865456341e-09 -8.3936867210064286e-09 0.0000000000000000e+00  -1.0780734958995286e-08 -7.1722193084553576e-09 0.0000000000000000e+00  -1.2192183519905727e-08 -5.5753132804557670e-09 0.0000000000000000e+00  -1.3181874002460017e-08 -3.7834397391522718e-09 0.0000000000000000e+00  -1.3763619726392041e-08 -1.9066256200575300e-09 0.0000000000000000e+00  -1.3955183576743050e-08 -1.4398482021539819e-12 0.0000000000000000e+00  -1.3764034551724485e-08 1.9037184148268899e-09 0.0000000000000000e+00  -1.3182740616399113e-08 3.7804397856284782e-09 0.0000000000000000e+00  -1.2193565703455109e-08 5.5721400803466686e-09 0.0000000000000000e+00  -1.0782704815656588e-08 7.1688230029863546e-09 0.0000000000000000e+00  -8.9646711697402052e-09 8.3901774682567816e-09 0.0000000000000000e+00  -6.8151793760296743e-09 8.9859290522765499e-09 0.0000000000000000e+00  -4.5057757327615060e-09 8.6638379604185841e-09 0.0000000000000000e+00  -2.3258209589925931e-09 7.1511087062468040e-09 0.0000000000000000e+00  -6.8925081386191930e-10 4.2842956313303769e-09 0.0000000000000000e+00  6.0500504474974453e-11 1.1061910850663947e-10 0.0000000000000000e+00  4.6434081317827308e-11 -5.6586354934897187e-11 0.0000000000000000e+00  -5.6372945109932273e-10 -3.1583002694901965e-09 0.0000000000000000e+00  -1.9233450522924348e-09 -5.3238158619821953e-09 0.0000000000000000e+00  -3.7859179360485115e-09 -6.5203834501342800e-09 0.0000000000000000e+00  -5.8189707447370473e-09 -6.8417658238532873e-09 0.0000000000000000e+00  -7.7740700302871435e-09 -6.4632598358695166e-09 0.0000000000000000e+00  -9.4833901919612751e-09 -5.5833348827078268e-09 0.0000000000000000e+00  -1.0852004379427591e-08 -4.3813213063891285e-09 0.0000000000000000e+00  -1.1837613046373891e-08 -2.9949144804126569e-09 0.0000000000000000e+00  -1.2428430067321631e-08 -1.5163024502591294e-09 0.0000000000000000e+00  -1.2625011649149003e-08 -1.4164631041299888e-12 0.0000000000000000e+00  -1.2428831218214649e-08 1.5134614592365611e-09 0.0000000000000000e+00  -1.1838430023735271e-08 2.9920513074228610e-09 0.0000000000000000e+00  -1.0853260557052207e-08 4.3784387685605537e-09 0.0000000000000000e+00  -9.4851048542240786e-09 5.5804974262261881e-09 0.0000000000000000e+00  -7.7762316325993524e-09 6.4606705237107947e-09 0.0000000000000000e+00  -5.8214950324844996e-09 6.8398410557868763e-09 0.0000000000000000e+00  -3.7884369243457825e-09 6.5197119923819625e-09 0.0000000000000000e+00  -1.9255966613492747e-09 5.3251482542526660e-09 0.0000000000000000e+00  -5.6207224110231790e-10 3.1615922075002852e-09 0.0000000000000000e+00  5.0786903143568830e-11 7.7887342407811215e-11 0.0000000000000000e+00  4.0222267015352590e-11 -3.7205692973065476e-11 0.0000000000000000e+00  -4.7433814925692718e-10 -2.2225352180844481e-09 0.0000000000000000e+00  -1.6369411978282957e-09 -3.7697522678371950e-09 0.0000000000000000e+00  -3.2577805287510615e-09 -4.6506908993447667e-09 0.0000000000000000e+00  -5.0646065549287628e-09 -4.9191223857115106e-09 0.0000000000000000e+00  -6.8423057332591250e-09 -4.6852068205738786e-09 0.0000000000000000e+00  -8.4328447969484003e-09 -4.0789609910278611e-09 0.0000000000000000e+00  -9.7341252242515855e-09 -3.2226114307700562e-09 0.0000000000000000e+00  -1.0688496238667991e-08 -2.2145435256617064e-09 0.0000000000000000e+00  -1.1268216853000790e-08 -1.1250897224632162e-09 0.0000000000000000e+00  -1.1462437703218220e-08 -1.3633381774049768e-12 0.0000000000000000e+00  -1.1268544505457645e-08 1.1223744528731342e-09 0.0000000000000000e+00  -1.0689155848006622e-08 2.2118699330391687e-09 0.0000000000000000e+00  -9.7351214269060096e-09 3.2200375865846116e-09 0.0000000000000000e+00  -8.4341733414130855e-09 4.0766052718050837e-09 0.0000000000000000e+00  -6.8439344948142465e-09 4.6832851441480855e-09 0.0000000000000000e+00  -5.0664488794260202e-09 4.9179639332977451e-09 0.0000000000000000e+00  -3.2595604650333914e-09 4.6506695536692635e-09 0.0000000000000000e+00  -1.6384754052882452e-09 3.7712935594494512e-09 0.0000000000000000e+00  -4.7318728010312593e-10 2.2254113483217276e-09 0.0000000000000000e+00  4.3403874645652312e-11 5.3698467053326266e-11 0.0000000000000000e+00  3.6157806911182931e-11 -2.1388427671075662e-11 0.0000000000000000e+00  -4.1583695838931607e-10 -1.4152354964628427e-09 0.0000000000000000e+00  -1.4463556351040724e-09 -2.4101806237432180e-09 0.0000000000000000e+00  -2.8997252981475592e-09 -2.9875083741883465e-09 0.0000000000000000e+00  -4.5428093193345818e-09 -3.1765682801430854e-09 0.0000000000000000e+00  -6.1842496692739687e-09 -3.0419521706498200e-09 0.0000000000000000e+00  -7.6756282029