<?xml version="1.0"?>
<VTKFile type="UnstructuredGrid"  version="0.1"  >
<UnstructuredGrid>
<Piece  NumberOfPoints="651" NumberOfCells="1200">
<Points>
<DataArray  type="Float64"  NumberOfComponents="3"  format="ascii">0 0 0  50000 0 0  100000 0 0  150000 0 0  200000 0 0  250000 0 0  300000 0 0  350000 0 0  400000 0 0  450000 0 0  500000 0 0  550000 0 0  600000 0 0  650000 0 0  700000 0 0  750000 0 0  800000 0 0  850000 0 0  900000 0 0  950000 0 0  1000000 0 0  0 50000 0  50000 50000 0  100000 50000 0  150000 50000 0  200000 50000 0  250000 50000 0  300000 50000 0  350000 50000 0  400000 50000 0  450000 50000 0  500000 50000 0  550000 50000 0  600000 50000 0  650000 50000 0  700000 50000 0  750000 50000 0  800000 50000 0  850000 50000 0  900000 50000 0  950000 50000 0  1000000 50000 0  0 100000 0  50000 100000 0  100000 100000 0  150000 100000 0  200000 100000 0  250000 100000 0  300000 100000 0  350000 100000 0  400000 100000 0  450000 100000 0  500000 100000 0  550000 100000 0  600000 100000 0  650000 100000 0  700000 100000 0  750000 100000 0  800000 100000 0  850000 100000 0  900000 100000 0  950000 100000 0  1000000 100000 0  0 150000 0  50000 150000 0  100000 150000 0  150000 150000 0  200000 150000 0  250000 150000 0  300000 150000 0  350000 150000 0  400000 150000 0  450000 150000 0  500000 150000 0  550000 150000 0  600000 150000 0  650000 150000 0  700000 150000 0  750000 150000 0  800000 150000 0  850000 150000 0  900000 150000 0  950000 150000 0  1000000 150000 0  0 200000 0  50000 200000 0  100000 200000 0  150000 200000 0  200000 200000 0  250000 200000 0  300000 200000 0  350000 200000 0  400000 200000 0  450000 200000 0  500000 200000 0  550000 200000 0  600000 200000 0  650000 200000 0  700000 200000 0  750000 200000 0  800000 200000 0  850000 200000 0  900000 200000 0  950000 200000 0  1000000 200000 0  0 250000 0  50000 250000 0  100000 250000 0  150000 250000 0  200000 250000 0  250000 250000 0  300000 250000 0  350000 250000 0  400000 250000 0  450000 250000 0  500000 250000 0  550000 250000 0  600000 250000 0  650000 250000 0  700000 250000 0  750000 250000 0  800000 250000 0  850000 250000 0  900000 250000 0  950000 250000 0  1000000 250000 0  0 300000 0  50000 300000 0  100000 300000 0  150000 300000 0  200000 300000 0  250000 300000 0  300000 300000 0  350000 300000 0  400000 300000 0  450000 300000 0  500000 300000 0  550000 300000 0  600000 300000 0  650000 300000 0  700000 300000 0  750000 300000 0  800000 300000 0  850000 300000 0  900000 300000 0  950000 300000 0  1000000 300000 0  0 350000 0  50000 350000 0  100000 350000 0  150000 350000 0  200000 350000 0  250000 350000 0  300000 350000 0  350000 350000 0  400000 350000 0  450000 350000 0  500000 350000 0  550000 350000 0  600000 350000 0  650000 350000 0  700000 350000 0  750000 350000 0  800000 350000 0  850000 350000 0  900000 350000 0  950000 350000 0  1000000 350000 0  0 400000 0  50000 400000 0  100000 400000 0  150000 400000 0  200000 400000 0  250000 400000 0  300000 400000 0  350000 400000 0  400000 400000 0  450000 400000 0  500000 400000 0  550000 400000 0  600000 400000 0  650000 400000 0  700000 400000 0  750000 400000 0  800000 400000 0  850000 400000 0  900000 400000 0  950000 400000 0  1000000 400000 0  0 450000 0  50000 450000 0  100000 450000 0  150000 450000 0  200000 450000 0  250000 450000 0  300000 450000 0  350000 450000 0  400000 450000 0  450000 450000 0  500000 450000 0  550000 450000 0  600000 450000 0  650000 450000 0  700000 450000 0  750000 450000 0  800000 450000 0  850000 450000 0  900000 450000 0  950000 450000 0  1000000 450000 0  0 500000 0  50000 500000 0  100000 500000 0  150000 500000 0  200000 500000 0  250000 500000 0  300000 500000 0  350000 500000 0  400000 500000 0  450000 500000 0  500000 500000 0  550000 500000 0  600000 500000 0  650000 500000 0  700000 500000 0  750000 500000 0  800000 500000 0  850000 500000 0  900000 500000 0  950000 500000 0  1000000 500000 0  0 550000 0  50000 550000 0  100000 550000 0  150000 550000 0  200000 550000 0  250000 550000 0  300000 550000 0  350000 550000 0  400000 550000 0  450000 550000 0  500000 550000 0  550000 550000 0  600000 550000 0  650000 550000 0  700000 550000 0  750000 550000 0  800000 550000 0  850000 550000 0  900000 550000 0  950000 550000 0  1000000 550000 0  0 600000 0  50000 600000 0  100000 600000 0  150000 600000 0  200000 600000 0  250000 600000 0  300000 600000 0  350000 600000 0  400000 600000 0  450000 600000 0  500000 600000 0  550000 600000 0  600000 600000 0  650000 600000 0  700000 600000 0  750000 600000 0  800000 600000 0  850000 600000 0  900000 600000 0  950000 600000 0  1000000 600000 0  0 650000 0  50000 650000 0  100000 650000 0  150000 650000 0  200000 650000 0  250000 650000 0  300000 650000 0  350000 650000 0  400000 650000 0  450000 650000 0  500000 650000 0  550000 650000 0  600000 650000 0  650000 650000 0  700000 650000 0  750000 650000 0  800000 650000 0  850000 650000 0  900000 650000 0  950000 650000 0  1000000 650000 0  0 700000 0  50000 700000 0  100000 700000 0  150000 700000 0  200000 700000 0  250000 700000 0  300000 700000 0  350000 700000 0  400000 700000 0  450000 700000 0  500000 700000 0  550000 700000 0  600000 700000 0  650000 700000 0  700000 700000 0  750000 700000 0  800000 700000 0  850000 700000 0  900000 700000 0  950000 700000 0  1000000 700000 0  0 750000 0  50000 750000 0  100000 750000 0  150000 750000 0  200000 750000 0  250000 750000 0  300000 750000 0  350000 750000 0  400000 750000 0  450000 750000 0  500000 750000 0  550000 750000 0  600000 750000 0  650000 750000 0  700000 750000 0  750000 750000 0  800000 750000 0  850000 750000 0  900000 750000 0  950000 750000 0  1000000 750000 0  0 800000 0  50000 800000 0  100000 800000 0  150000 800000 0  200000 800000 0  250000 800000 0  300000 800000 0  350000 800000 0  400000 800000 0  450000 800000 0  500000 800000 0  550000 800000 0  600000 800000 0  650000 800000 0  700000 800000 0  750000 800000 0  800000 800000 0  850000 800000 0  900000 800000 0  950000 800000 0  1000000 800000 0  0 850000 0  50000 850000 0  100000 850000 0  150000 850000 0  200000 850000 0  250000 850000 0  300000 850000 0  350000 850000 0  400000 850000 0  450000 850000 0  500000 850000 0  550000 850000 0  600000 850000 0  650000 850000 0  700000 850000 0  750000 850000 0  800000 850000 0  850000 850000 0  900000 850000 0  950000 850000 0  1000000 850000 0  0 900000 0  50000 900000 0  100000 900000 0  150000 900000 0  200000 900000 0  250000 900000 0  300000 900000 0  350000 900000 0  400000 900000 0  450000 900000 0  500000 900000 0  550000 900000 0  600000 900000 0  650000 900000 0  700000 900000 0  750000 900000 0  800000 900000 0  850000 900000 0  900000 900000 0  950000 900000 0  1000000 900000 0  0 950000 0  50000 950000 0  100000 950000 0  150000 950000 0  200000 950000 0  250000 950000 0  300000 950000 0  350000 950000 0  400000 950000 0  450000 950000 0  500000 950000 0  550000 950000 0  600000 950000 0  650000 950000 0  700000 950000 0  750000 950000 0  800000 950000 0  850000 950000 0  900000 950000 0  950000 950000 0  1000000 950000 0  0 1000000 0  50000 1000000 0  100000 1000000 0  150000 1000000 0  200000 1000000 0  250000 1000000 0  300000 1000000 0  350000 1000000 0  400000 1000000 0  450000 1000000 0  500000 1000000 0  550000 1000000 0  600000 1000000 0  650000 1000000 0  700000 1000000 0  750000 1000000 0  800000 1000000 0  850000 1000000 0  900000 1000000 0  950000 1000000 0  1000000 1000000 0  0 1050000 0  50000 1050000 0  100000 1050000 0  150000 1050000 0  200000 1050000 0  250000 1050000 0  300000 1050000 0  350000 1050000 0  400000 1050000 0  450000 1050000 0  500000 1050000 0  550000 1050000 0  600000 1050000 0  650000 1050000 0  700000 1050000 0  750000 1050000 0  800000 1050000 0  850000 1050000 0  900000 1050000 0  950000 1050000 0  1000000 1050000 0  0 1100000 0  50000 1100000 0  100000 1100000 0  150000 1100000 0  200000 1100000 0  250000 1100000 0  300000 1100000 0  350000 1100000 0  400000 1100000 0  450000 1100000 0  500000 1100000 0  550000 1100000 0  600000 1100000 0  650000 1100000 0  700000 1100000 0  750000 1100000 0  800000 1100000 0  850000 1100000 0  900000 1100000 0  950000 1100000 0  1000000 1100000 0  0 1150000 0  50000 1150000 0  100000 1150000 0  150000 1150000 0  200000 1150000 0  250000 1150000 0  300000 1150000 0  350000 1150000 0  400000 1150000 0  450000 1150000 0  500000 1150000 0  550000 1150000 0  600000 1150000 0  650000 1150000 0  700000 1150000 0  750000 1150000 0  800000 1150000 0  850000 1150000 0  900000 1150000 0  950000 1150000 0  1000000 1150000 0  0 1200000 0  50000 1200000 0  100000 1200000 0  150000 1200000 0  200000 1200000 0  250000 1200000 0  300000 1200000 0  350000 1200000 0  400000 1200000 0  450000 1200000 0  500000 1200000 0  550000 1200000 0  600000 1200000 0  650000 1200000 0  700000 1200000 0  750000 1200000 0  800000 1200000 0  850000 1200000 0  900000 1200000 0  950000 1200000 0  1000000 1200000 0  0 1250000 0  50000 1250000 0  100000 1250000 0  150000 1250000 0  200000 1250000 0  250000 1250000 0  300000 1250000 0  350000 1250000 0  400000 1250000 0  450000 1250000 0  500000 1250000 0  550000 1250000 0  600000 1250000 0  650000 1250000 0  700000 1250000 0  750000 1250000 0  800000 1250000 0  850000 1250000 0  900000 1250000 0  950000 1250000 0  1000000 1250000 0  0 1300000 0  50000 1300000 0  100000 1300000 0  150000 1300000 0  200000 1300000 0  250000 1300000 0  300000 1300000 0  350000 1300000 0  400000 1300000 0  450000 1300000 0  500000 1300000 0  550000 1300000 0  600000 1300000 0  650000 1300000 0  700000 1300000 0  750000 1300000 0  800000 1300000 0  850000 1300000 0  900000 1300000 0  950000 1300000 0  1000000 1300000 0  0 1350000 0  50000 1350000 0  100000 1350000 0  150000 1350000 0  200000 1350000 0  250000 1350000 0  300000 1350000 0  350000 1350000 0  400000 1350000 0  450000 1350000 0  500000 1350000 0  550000 1350000 0  600000 1350000 0  650000 1350000 0  700000 135
[...]
<PointData  Vectors="f_10477"> 
<DataArray  type="Float64"  Name="f_10477"  NumberOfComponents="3" format="ascii">-5.3513746702557603e-09 -2.9800140976614822e-09 0.0000000000000000e+00  7.5743065588198104e-08 -1.9539436081776658e-09 0.0000000000000000e+00  7.8447892000867422e-08 -2.2934095072778837e-11 0.0000000000000000e+00  7.9183455582202668e-08 2.8202767861527537e-10 0.0000000000000000e+00  7.9552253403670440e-08 2.3994812453428590e-10 0.0000000000000000e+00  7.9729841245443724e-08 1.7171260136389528e-10 0.0000000000000000e+00  7.9821667669008706e-08 1.1757481470947655e-10 0.0000000000000000e+00  7.9871818215536338e-08 7.6917242717081557e-11 0.0000000000000000e+00  7.9898874371054402e-08 4.4938142250301721e-11 0.0000000000000000e+00  7.9911067438742749e-08 1.7779974210138084e-11 0.0000000000000000e+00  7.9911674155219677e-08 -7.4361180051817523e-12 0.0000000000000000e+00  7.9900856050657112e-08 -3.3134226728080578e-11 0.0000000000000000e+00  7.9875769752415717e-08 -6.1754963014851222e-11 0.0000000000000000e+00  7.9829095504977029e-08 -9.6175195475905295e-11 0.0000000000000000e+00  7.9744609670790962e-08 -1.4004863273980390e-10 0.0000000000000000e+00  7.9584766489510749e-08 -1.9758268722400205e-10 0.0000000000000000e+00  7.9259218474413815e-08 -2.6899102560016336e-10 0.0000000000000000e+00  7.8591073870078681e-08 -2.9288509103887201e-10 0.0000000000000000e+00  7.7183507573477460e-08 4.7548908728067833e-10 0.0000000000000000e+00  7.3169379089263889e-08 4.6181880361445559e-09 0.0000000000000000e+00  -7.7646292872306521e-09 4.8352382993645977e-09 0.0000000000000000e+00  -3.7575535836943052e-09 -3.2883496730637629e-09 0.0000000000000000e+00  -1.5523465530906978e-09 -2.3814393493181589e-08 0.0000000000000000e+00  1.7220528211832929e-08 -1.4039378990515566e-08 0.0000000000000000e+00  3.1910146608945147e-08 -7.7940094099854645e-09 0.0000000000000000e+00  4.1383154811939178e-08 -4.6099733439253429e-09 0.0000000000000000e+00  4.7542056093634226e-08 -2.8962970306880267e-09 0.0000000000000000e+00  5.1629260210093753e-08 -1.8795220354737551e-09 0.0000000000000000e+00  5.4339372600727850e-08 -1.2122157820503020e-09 0.0000000000000000e+00  5.6064939895055351e-08 -7.3008776042404407e-10 0.0000000000000000e+00  5.7025862386017855e-08 -3.4539557844903338e-10 0.0000000000000000e+00  5.7334470026195215e-08 -3.2850414143123724e-12 0.0000000000000000e+00  5.7025329900553636e-08 3.3850883780919675e-10 0.0000000000000000e+00  5.6063898607669528e-08 7.2215565554335416e-10 0.0000000000000000e+00  5.4338136783183204e-08 1.2021229390941591e-09 0.0000000000000000e+00  5.1629563406577598e-08 1.8649384003102687e-09 0.0000000000000000e+00  4.7551126422647842e-08 2.8709979007049372e-09 0.0000000000000000e+00  4.1426574278013664e-08 4.5599706243786344e-09 0.0000000000000000e+00  3.2086353731617684e-08 7.7511868519383177e-09 0.0000000000000000e+00  1.7873276801379515e-08 1.4403564033823751e-08 0.0000000000000000e+00  -4.2996921429186906e-10 2.5501261792786372e-08 0.0000000000000000e+00  -6.3117302325268284e-09 5.0140581611555453e-09 0.0000000000000000e+00  -1.0523190168213371e-09 -1.7313120507129010e-09 0.0000000000000000e+00  -6.5495070080656404e-09 -2.9841184969580094e-08 0.0000000000000000e+00  -2.6742895434383023e-09 -2.6267389943039885e-08 0.0000000000000000e+00  6.4513517329695736e-09 -1.8745243205621250e-08 0.0000000000000000e+00  1.5661763180916191e-08 -1.2838621052492210e-08 0.0000000000000000e+00  2.3098144441968900e-08 -8.7847314749914178e-09 0.0000000000000000e+00  2.8651793312827410e-08 -5.9920274164095780e-09 0.0000000000000000e+00  3.2601225995813071e-08 -3.9806891558963506e-09 0.0000000000000000e+00  3.5224503451287722e-08 -2.4376854246184595e-09 0.0000000000000000e+00  3.6721683541852639e-08 -1.1590263525320745e-09 0.0000000000000000e+00  3.7208831191035485e-08 2.0243823162229008e-13 0.0000000000000000e+00  3.6723889218588028e-08 1.1595907574603717e-09 0.0000000000000000e+00  3.5229724584571474e-08 2.4388133099396831e-09 0.0000000000000000e+00  3.2611695711710163e-08 3.9831103833311952e-09 0.0000000000000000e+00  2.8672952930159030e-08 5.9974475329882567e-09 0.0000000000000000e+00  2.3143325962824242e-08 8.7987095439855160e-09 0.0000000000000000e+00  1.5762680590191403e-08 1.2882852452361252e-08 0.0000000000000000e+00  6.6514822618140377e-09 1.8880102786722928e-08 0.0000000000000000e+00  -2.4393634533429760e-09 2.6512300098969787e-08 0.0000000000000000e+00  -6.0694042808443278e-09 2.9008755218360395e-08 0.0000000000000000e+00  -1.8260001806832984e-09 2.2852353008072476e-09 0.0000000000000000e+00  -1.2389907324576674e-10 -9.2446999040853176e-10 0.0000000000000000e+00  -4.3775901391385863e-09 -2.5399808411630849e-08 0.0000000000000000e+00  -6.4186745786391293e-09 -2.9835743060557639e-08 0.0000000000000000e+00  -3.8391989527567500e-09 -2.5723141386693314e-08 0.0000000000000000e+00  1.3337293431918225e-09 -1.9963273431625252e-08 0.0000000000000000e+00  6.8905073162205614e-09 -1.4802746007379972e-08 0.0000000000000000e+00  1.1753790263634435e-08 -1.0631644278704976e-08 0.0000000000000000e+00  1.5555006279397756e-08 -7.2998923259857247e-09 0.0000000000000000e+00  1.8229483836540746e-08 -4.5625691384886585e-09 0.0000000000000000e+00  1.9807895036726135e-08 -2.1941207653963662e-09 0.0000000000000000e+00  2.0329895309417328e-08 -8.2755850803155206e-13 0.0000000000000000e+00  1.9811698858112001e-08 2.1925924448389498e-09 0.0000000000000000e+00  1.8237977530593221e-08 4.5615490528220788e-09 0.0000000000000000e+00  1.5570281751803961e-08 7.3002845520639998e-09 0.0000000000000000e+00  1.1779767601215002e-08 1.0635884214826216e-08 0.0000000000000000e+00  6.9328255358590163e-09 1.4817420711479318e-08 0.0000000000000000e+00  1.3927459294919848e-09 2.0002778774700687e-08 0.0000000000000000e+00  -3.7794766836528771e-09 2.5790264427632868e-08 0.0000000000000000e+00  -6.3740817710794937e-09 2.9790981439218104e-08 0.0000000000000000e+00  -4.1486210702152664e-09 2.5029480980898887e-08 0.0000000000000000e+00  -2.0898279839345728e-10 1.3360256259484280e-09 0.0000000000000000e+00  6.3884039147287136e-11 -5.7258999793993490e-10 0.0000000000000000e+00  -2.9037272556366579e-09 -2.0844706724076574e-08 0.0000000000000000e+00  -6.2998777453048749e-09 -2.8530418595530041e-08 0.0000000000000000e+00  -7.2549248558390343e-09 -2.7997545726692363e-08 0.0000000000000000e+00  -5.6911591364058108e-09 -2.3955748547518000e-08 0.0000000000000000e+00  -2.8096650849768189e-09 -1.9054596561678040e-08 0.0000000000000000e+00  3.4200739710797717e-10 -1.4372331211254912e-08 0.0000000000000000e+00  3.1346680335231248e-09 -1.0200778823905437e-08 0.0000000000000000e+00  5.2530608360704418e-09 -6.5124342237414783e-09 0.0000000000000000e+00  6.5588107770448375e-09 -3.1690900266606940e-09 0.0000000000000000e+00  6.9995076662470813e-09 -1.2698432275939368e-12 0.0000000000000000e+00  6.5624053215323423e-09 3.1667412529618345e-09 0.0000000000000000e+00  5.2606256059126735e-09 6.5108094462418017e-09 0.0000000000000000e+00  3.1468504200927104e-09 1.0200940702393041e-08 0.0000000000000000e+00  3.5923898085503039e-10 1.4376350920469695e-08 0.0000000000000000e+00  -2.7883205533530390e-09 1.9065149654267194e-08 0.0000000000000000e+00  -5.6687424392045220e-09 2.3970347587300078e-08 0.0000000000000000e+00  -7.2345720478166576e-09 2.7990982243841833e-08 0.0000000000000000e+00  -6.2762371159819878e-09 2.8442209505471204e-08 0.0000000000000000e+00  -2.8284117452923016e-09 2.0726805251013262e-08 0.0000000000000000e+00  2.6807858517628182e-11 8.3804744808465608e-10 0.0000000000000000e+00  8.7140548711635632e-11 -3.7736362284981270e-10 0.0000000000000000e+00  -2.0969430696095160e-09 -1.7154424476622497e-08 0.0000000000000000e+00  -5.5084044906428166e-09 -2.5553197813747445e-08 0.0000000000000000e+00  -8.0044419691124873e-09 -2.7297111898807950e-08 0.0000000000000000e+00  -8.7733917938563337e-09 -2.5108338986501892e-08 0.0000000000000000e+00  -8.1647749806958975e-09 -2.1142249974461644e-08 0.0000000000000000e+00  -6.8286467730133543e-09 -1.6640087902555001e-08 0.0000000000000000e+00  -5.3287969205595475e-09 -1.2173515217248573e-08 0.0000000000000000e+00  -4.0456014123929091e-09 -7.9297529975917410e-09 0.0000000000000000e+00  -3.2016240473252540e-09 -3.9033700754185107e-09 0.0000000000000000e+00  -2.9083535615449752e-09 -1.8679821004732813e-12 0.0000000000000000e+00  -3.1992025009352181e-09 3.8998271057494318e-09 0.0000000000000000e+00  -4.0408478621934073e-09 7.9268797237902506e-09 0.0000000000000000e+00  -5.3220475533308387e-09 1.2172018047917372e-08 0.0000000000000000e+00  -6.8207715653042627e-09 1.6640756993006759e-08 0.0000000000000000e+00  -8.1573840870339173e-09 2.1144704422093015e-08 0.0000000000000000e+00  -8.7681720240201849e-09 2.5107053987666282e-08 0.0000000000000000e+00  -7.9995196273942379e-09 2.7276307956177964e-08 0.0000000000000000e+00  -5.5026029435142618e-09 2.5506892906555180e-08 0.0000000000000000e+00  -2.0769190142024380e-09 1.7125426653215894e-08 0.0000000000000000e+00  7.0144188468771154e-11 5.2875017727768081e-10 0.0000000000000000e+00  8.3082056149419770e-11 -2.6220693079983458e-10 0.0000000000000000e+00  -1.6243026816261254e-09 -1.4164340666930920e-08 0.0000000000000000e+00  -4.7466142837082797e-09 -2.2211556078104198e-08 0.0000000000000000e+00  -7.8042253094557884e-09 -2.5086953229537630e-08 0.0000000000000000e+00  -9.8761502126615826e-09 -2.4306161739837240e-08 0.0000000000000000e+00  -1.0851031558799559e-08 -2.1387521459343643e-08 0.0000000000000000e+00  -1.1004008911168174e-08 -1.7430510184832818e-08 0.0000000000000000e+00  -1.0706325803371355e-08 -1.3087399033734440e-08 0.0000000000000000e+00  -1.0276048068681183e-08 -8.6782561839127853e-09 0.0000000000000000e+00  -9.9343918158368615e-09 -4.3163504431899871e-09 0.0000000000000000e+00  -9.8067380138388563e-09 -2.2099478880427685e-12 0.0000000000000000e+00  -9.9333221759725229e-09 4.3121091206177754e-09 0.0000000000000000e+00  -1.0274164058505794e-08 8.6745704050604431e-09 0.0000000000000000e+00  -1.0704166515146492e-08 1.3084622899841855e-08 0.0000000000000000e+00  -1.1002369316814339e-08 1.7428620438662539e-08 0.0000000000000000e+00  -1.0850722431348135e-08 2.1385175365716211e-08 0.0000000000000000e+00  -9.8776821575563127e-09 2.4299586650552934e-08 0.0000000000000000e+00  -7.8061919737076561e-09 2.5071471640549202e-08 0.0000000000000000e+00  -4.7497870999861210e-09 2.2192929174922190e-08 0.0000000000000000e+00  -1.6193226118701251e-09 1.4160931421783151e-08 0.0000000000000000e+00  7.7123090357258015e-11 3.5382853287874401e-10 0.0000000000000000e+00  7.5497446160649458e-11 -1.8870996244454462e-10 0.0000000000000000e+00  -1.3204285816439264e-09 -1.1678380676610379e-08 0.0000000000000000e+00  -4.1178886951150528e-09 -1.8938838839093214e-08 0.0000000000000000e+00  -7.2911791696285217e-09 -2.2210844520986341e-08 0.0000000000000000e+00  -1.0010302181192135e-08 -2.2333516609506222e-08 0.0000000000000000e+00  -1.1965979229340799e-08 -2.0315381816445237e-08 0.0000000000000000e+00  -1.3179678842858742e-08 -1.7019646535011711e-08 0.0000000000000000e+00  -1.3829786175529772e-08 -1.3054246760699805e-08 0.0000000000000000e+00  -1.4122977059595037e-08 -8.7872685699976488e-09 0.0000000000000000e+00  -1.4228307880404454e-08 -4.4096394671998547e-09 0.0000000000000000e+00  -1.4251530982015630e-08 -2.3353548907797668e-12 0.0000000000000000e+00  -1.4228273854593887e-08 4.4051191037711324e-09 0.0000000000000000e+00  -1.4123120404658877e-08 8.7831747041519481e-09 0.0000000000000000e+00  -1.3830484917434060e-08 1.3050725227212951e-08 0.0000000000000000e+00  -1.3181359383185156e-08 1.7016452487344211e-08 0.0000000000000000e+00  -1.1968909155037250e-08 2.0311530118007276e-08 0.0000000000000000e+00  -1.0014512654479145e-08 2.2327475903466694e-08 0.0000000000000000e+00  -7.2957256164396462e-09 2.2202447686271344e-08 0.0000000000000000e+00  -4.1231797139645857e-09 1.8932829355676996e-08 0.0000000000000000e+00  -1.3189644816433275e-09 1.1681471051184520e-08 0.0000000000000000e+00  7.4398341766028625e-11 2.4851445813231574e-10 0.0000000000000000e+00  6.8261081642447635e-11 -1.3826081886851301e-10 0.0000000000000000e+00  -1.1086009124023409e-09 -9.5637324775886328e-09 0.0000000000000000e+00  -3.6075626122977363e-09 -1.5873447110667382e-08 0.0000000000000000e+00  -6.6990431220340441e-09 -1.9110551107876820e-08 0.0000000000000000e+00  -9.6815580521148502e-09 -1.9736026062756483e-08 0.0000000000000000e+00  -1.2182422341328782e-08 -1.8403286583679781e-08 0.0000000000000000e+00  -1.4076108213240658e-08 -1.5749830362995186e-08 0.0000000000000000e+00  -1.5392891040449260e-08 -1.2286890138388892e-08 0.0000000000000000e+00  -1.6228498912969782e-08 -8.3723824646110561e-09 0.0000000000000000e+00  -1.6682908518606588e-08 -4.2324128120540782e-09 0.0000000000000000e+00  -1.6826284163162546e-08 -2.2920196660487231e-12 0.0000000000000000e+00  -1.6683481331270502e-08 4.2279517619598060e-09 0.0000000000000000e+00  -1.6229754698326855e-08 8.3682535442643476e-09 0.0000000000000000e+00  -1.5394998399520291e-08 1.2283172457562409e-08 0.0000000000000000e+00  -1.4079202359629581e-08 1.5746357446522337e-08 0.0000000000000000e+00  -1.2186492054710560e-08 1.8399631102814203e-08 0.0000000000000000e+00  -9.6864318055048061e-09 1.9731914092392537e-08 0.0000000000000000e+00  -6.7039036954398880e-09 1.9106756197603855e-08 0.0000000000000000e+00  -3.6124073829729738e-09 1.5872517189740751e-08 0.0000000000000000e+00  -1.1078775367051379e-09 9.5678085645711697e-09 0.0000000000000000e+00  6.9180247316733526e-11 1.7973611769591278e-10 0.0000000000000000e+00  6.1958411161881629e-11 -1.0168833727710787e-10 0.0000000000000000e+00  -9.5182103626338178e-10 -7.7329315612856016e-09 0.0000000000000000e+00  -3.1900765811946348e-09 -1.3050510744630469e-08 0.0000000000000000e+00  -6.1177348539940106e-09 -1.6009279124256730e-08 0.0000000000000000e+00  -9.1495563753296080e-09 -1.6856624147183346e-08 0.0000000000000000e+00  -1.1909091398939555e-08 -1.6010418884700681e-08 0.0000000000000000e+00  -1.4194419698017524e-08 -1.3925948269234395e-08 0.0000000000000000e+00  -1.5935851156346741e-08 -1.1008199502075476e-08 0.0000000000000000e+00  -1.7139356916126930e-08 -7.5738817228947621e-09 0.0000000000000000e+00  -1.7839783869704833e-08 -3.8513278533481313e-09 0.0000000000000000e+00  -1.8069360779167003e-08 -2.1446225501597000e-12 0.0000000000000000e+00  -1.7840612036101887e-08 3.8471424459329229e-09 0.0000000000000000e+00  -1.7141041721918985e-08 7.5699780294309676e-09 0.0000000000000000e+00  -1.5938415459412178e-08 1.1004668412944043e-08 0.0000000000000000e+00  -1.4197828976216919e-08 1.3922766185524572e-08 0.0000000000000000e+00  -1.1913195816875823e-08 1.6007523717489433e-08 0.0000000000000000e+00  -9.1540892556394494e-09 1.6854181955205723e-08 0.0000000000000000e+00  -6.1219637274575211e-09 1.6007934140961237e-08 0.0000000000000000e+00  -3.1939013282537219e-09 1.3051409204423349e-08 0.0000000000000000e+00  -9.5121783556969451e-10 7.7365808442230960e-09 0.0000000000000000e+00  6.3657854535620751e-11 1.3187142335337953e-10 0.0000000000000000e+00  5.6635321425332637e-11 -7.4073427102876934e-11 0.0000000000000000e+00  -8.3164428249686554e-10 -6.1252308573801975e-09 0.0000000000000000e+00  -2.8477969378250523e-09 -1.0465062041986968e-08 0.0000000000000000e+00  -5.5868641585430374e-09 -1.3013680972926659e-08 0.0000000000000000e+00  -8.5568714744373800e-09 -1.3897391795209333e-08 0.0000000000000000e+00  -1.1400253508638966e-08 -1.3380482817146438e-08 0.0000000000000000e+00  -1.3879949651347557e-08 -1.1780878229942240e-08 0.0000000000000000e+00  -1.5864145304302296e-08 -9.4065622881103414e-09 0.0000000000000000e+00  -1.7294075689545379e-08 -6.5203346545080109e-09 0.0000000000000000e+00  -1.8152299402132269e-08 -3.3308242596166409e-09 0.0000000000000000e+00  -1.8438188513786376e-08 -1.9474430867217206e-12 0.0000000000000000e+00  -1.8153153371647656e-08 3.3270228312673482e-09 0.0000000000000000e+00  -1.7295765390760984e-08 6.5167951968336475e-09 0.0000000000000000e+00  -1.5866616831327606e-08 9.4034066935154736e-09 0.0000000000000000e+00  -1.3883088458686598e-08 1.1778185793229630e-08 0.0000000000000000e+00  -1.1403855057294036e-08 1.3378352202611246e-08 0.0000000000000000e+00  -8.5606482060579764e-09 1.3896054127343717e-08 0.0000000000000000e+00  -5.5902069877246014e-09 1.3013502037212816e-08 0.0000000000000000e+00  -2.8506460359821311e-09 1.0466483691442608e-08 0.0000000000000000e+00  -8.3105572519369789e-10 6.1282407539619579e-09 0.0000000000000000e+00  5.8532860935041229e-11 9.6913373391762231e-11 0.0000000000000000e+00  5.2282513755433315e-11 -5.2503786986205350e-11 0.0000000000000000e+00  -7.3883148074457732e-10 -4.6943816881574039e-09 0.0000000000000000e+00  -2.5712944582847439e-09 -8.0939357930986590e-09 0.0000000000000000e+00  -5.1282837149659769e-09 -1.0165391422889184e-08 0.0000000000000000e+00  -7.9887926268512270e-09 -1.0967562130087906e-08 0.0000000000000000e+00  -1.0819795174598762e-08 -1.0664983175275897e-08 0.0000000000000000e+00  -1.3371246508991856e-08 -9.4745673934458905e-09 0.0000000000000000e+00  -1.5475227627986707e-08 -7.6218285213684445e-09 0.0000000000000000e+00  -1.7029818831359862e-08 -5.3128763800041441e-09 0.0000000000000000e+00  -1.7979663947813164e-08 -2.7234647410672483e-09 0.0000000000000000e+00  -1.8298974031367591e-08 -1.7420849937666291e-12 0.0000000000000000e+00  -1.7980415079996934e-08 2.7200692622666011e-09 0.0000000000000000e+00  -1.7031283934051619e-08 5.3097369895809552e-09 0.0000000000000000e+00  -1.5477324873481142e-08 7.6190895589472734e-09 0.0000000000000000e+00  -1.3373839132563964e-08 9.4723568244705155e-09 0.0000000000000000e+00  -1.0822678570420904e-08 1.0663441119400655e-08 0.0000000000000000e+00  -7.9917094155089645e-09 1.0966869962052408e-08 0.0000000000000000e+00  -5.1307667826765656e-09 1.0165711334176200e-08 0.0000000000000000e+00  -2.5733395329992567e-09 8.0954037513209838e-09 0.0000000000000000e+00  -7.3827893066609592e-10 4.6968551853535926e-09 0.0000000000000000e+00  5.4064845819110222e-11 7.0394658305620466e-11 0.0000000000000000e+00  4.8912330354631098e-11 -3.5063566870622022e-11 0.0000000000000000e+00  -6.6886339386338532e-10 -3.4014350734202470e-09 0.0000000000000000e+00  -2.3566156841066257e-09 -5.9038646620776287e-09 0.0000000000000000e+00  -4.7568511900672075e-09 -7.4675495041049630e-09 0.0000000000000000e+00  -7.5002506882062208e-09 -8.1156737587382921e-09 0.0000000000000000e+00  -1.0276436967262146e-08 -7.9476391320237914e-09 0.0000000000000000e+00  -1.2833111385056945e-08 -7.1058723595296210e-09 0.0000000000000000e+00  -1.4982736724355512e-08 -5.7471253138104060e-09 0.0000000000000000e+00  -1.6596460335949433e-08 -4.0223719788047027e-09 0.0000000000000000e+00  -1.7593539040322408e-08 -2.0672146910749240e-09 0.0000000000000000e+00  -1.7930614650382317e-08 -1.5581672986345438e-12 0.0000000000000000e+00  -1.7594124964748873e-08 2.0641846858010660e-09 0.0000000000000000e+00  -1.6597593675989530e-08 4.0195952433424805e-09 0.0000000000000000e+00  -1.4984337833406045e-08 5.7447552556900886e-09 0.0000000000000000e+00  -1.2835056529652921e-08 7.1040495421086386e-09 0.0000000000000000e+00  -1.0278554811285603e-08 7.9464959501931406e-09 0.0000000000000000e+00  -7.5023406804407778e-09 8.1153301035110669e-09 0.0000000000000000e+00  -4.7585824933529841e-09 7.4680531422701897e-09 0.0000000000000000e+00  -2.3580160022060254e-09 5.9052390387884559e-09 0.0000000000000000e+00  -6.6839471694134184e-10 3.4035278019388438e-09 0.0000000000000000e+00  5.0388753520861231e-11 4.9595117947038205e-11 0.0000000000000000e+00  4.6554547116522243e-11 -2.0348282537702253e-11 0.0000000000000000e+00  -6.1964456590912382e-10 -2.2107605052484300e-09 0.0000000000000000e+00  -2.2028102839630490e-09 -3.8549475116537542e-09 0.0000000000000000e+00  -4.4836198596333134e-09 -4.8993773167975228e-09 0.0000000000000000e+00  -7.1278946721185984e-09 -5.3506361314029434e-09 0.0000000000000000e+00  -9.8427145339779235e-09 -5.2646500839142029e-09 0.0000000000000000e+00  -1.2377668142708793e-