<?xml version="1.0"?>
<VTKFile type="UnstructuredGrid"  version="0.1"  >
<UnstructuredGrid>
<Piece  NumberOfPoints="651" NumberOfCells="1200">
<Points>
<DataArray  type="Float64"  NumberOfComponents="3"  format="ascii">0 0 0  50000 0 0  100000 0 0  150000 0 0  200000 0 0  250000 0 0  300000 0 0  350000 0 0  400000 0 0  450000 0 0  500000 0 0  550000 0 0  600000 0 0  650000 0 0  700000 0 0  750000 0 0  800000 0 0  850000 0 0  900000 0 0  950000 0 0  1000000 0 0  0 50000 0  50000 50000 0  100000 50000 0  150000 50000 0  200000 50000 0  250000 50000 0  300000 50000 0  350000 50000 0  400000 50000 0  450000 50000 0  500000 50000 0  550000 50000 0  600000 50000 0  650000 50000 0  700000 50000 0  750000 50000 0  800000 50000 0  850000 50000 0  900000 50000 0  950000 50000 0  1000000 50000 0  0 100000 0  50000 100000 0  100000 100000 0  150000 100000 0  200000 100000 0  250000 100000 0  300000 100000 0  350000 100000 0  400000 100000 0  450000 100000 0  500000 100000 0  550000 100000 0  600000 100000 0  650000 100000 0  700000 100000 0  750000 100000 0  800000 100000 0  850000 100000 0  900000 100000 0  950000 100000 0  1000000 100000 0  0 150000 0  50000 150000 0  100000 150000 0  150000 150000 0  200000 150000 0  250000 150000 0  300000 150000 0  350000 150000 0  400000 150000 0  450000 150000 0  500000 150000 0  550000 150000 0  600000 150000 0  650000 150000 0  700000 150000 0  750000 150000 0  800000 150000 0  850000 150000 0  900000 150000 0  950000 150000 0  1000000 150000 0  0 200000 0  50000 200000 0  100000 200000 0  150000 200000 0  200000 200000 0  250000 200000 0  300000 200000 0  350000 200000 0  400000 200000 0  450000 200000 0  500000 200000 0  550000 200000 0  600000 200000 0  650000 200000 0  700000 200000 0  750000 200000 0  800000 200000 0  850000 200000 0  900000 200000 0  950000 200000 0  1000000 200000 0  0 250000 0  50000 250000 0  100000 250000 0  150000 250000 0  200000 250000 0  250000 250000 0  300000 250000 0  350000 250000 0  400000 250000 0  450000 250000 0  500000 250000 0  550000 250000 0  600000 250000 0  650000 250000 0  700000 250000 0  750000 250000 0  800000 250000 0  850000 250000 0  900000 250000 0  950000 250000 0  1000000 250000 0  0 300000 0  50000 300000 0  100000 300000 0  150000 300000 0  200000 300000 0  250000 300000 0  300000 300000 0  350000 300000 0  400000 300000 0  450000 300000 0  500000 300000 0  550000 300000 0  600000 300000 0  650000 300000 0  700000 300000 0  750000 300000 0  800000 300000 0  850000 300000 0  900000 300000 0  950000 300000 0  1000000 300000 0  0 350000 0  50000 350000 0  100000 350000 0  150000 350000 0  200000 350000 0  250000 350000 0  300000 350000 0  350000 350000 0  400000 350000 0  450000 350000 0  500000 350000 0  550000 350000 0  600000 350000 0  650000 350000 0  700000 350000 0  750000 350000 0  800000 350000 0  850000 350000 0  900000 350000 0  950000 350000 0  1000000 350000 0  0 400000 0  50000 400000 0  100000 400000 0  150000 400000 0  200000 400000 0  250000 400000 0  300000 400000 0  350000 400000 0  400000 400000 0  450000 400000 0  500000 400000 0  550000 400000 0  600000 400000 0  650000 400000 0  700000 400000 0  750000 400000 0  800000 400000 0  850000 400000 0  900000 400000 0  950000 400000 0  1000000 400000 0  0 450000 0  50000 450000 0  100000 450000 0  150000 450000 0  200000 450000 0  250000 450000 0  300000 450000 0  350000 450000 0  400000 450000 0  450000 450000 0  500000 450000 0  550000 450000 0  600000 450000 0  650000 450000 0  700000 450000 0  750000 450000 0  800000 450000 0  850000 450000 0  900000 450000 0  950000 450000 0  1000000 450000 0  0 500000 0  50000 500000 0  100000 500000 0  150000 500000 0  200000 500000 0  250000 500000 0  300000 500000 0  350000 500000 0  400000 500000 0  450000 500000 0  500000 500000 0  550000 500000 0  600000 500000 0  650000 500000 0  700000 500000 0  750000 500000 0  800000 500000 0  850000 500000 0  900000 500000 0  950000 500000 0  1000000 500000 0  0 550000 0  50000 550000 0  100000 550000 0  150000 550000 0  200000 550000 0  250000 550000 0  300000 550000 0  350000 550000 0  400000 550000 0  450000 550000 0  500000 550000 0  550000 550000 0  600000 550000 0  650000 550000 0  700000 550000 0  750000 550000 0  800000 550000 0  850000 550000 0  900000 550000 0  950000 550000 0  1000000 550000 0  0 600000 0  50000 600000 0  100000 600000 0  150000 600000 0  200000 600000 0  250000 600000 0  300000 600000 0  350000 600000 0  400000 600000 0  450000 600000 0  500000 600000 0  550000 600000 0  600000 600000 0  650000 600000 0  700000 600000 0  750000 600000 0  800000 600000 0  850000 600000 0  900000 600000 0  950000 600000 0  1000000 600000 0  0 650000 0  50000 650000 0  100000 650000 0  150000 650000 0  200000 650000 0  250000 650000 0  300000 650000 0  350000 650000 0  400000 650000 0  450000 650000 0  500000 650000 0  550000 650000 0  600000 650000 0  650000 650000 0  700000 650000 0  750000 650000 0  800000 650000 0  850000 650000 0  900000 650000 0  950000 650000 0  1000000 650000 0  0 700000 0  50000 700000 0  100000 700000 0  150000 700000 0  200000 700000 0  250000 700000 0  300000 700000 0  350000 700000 0  400000 700000 0  450000 700000 0  500000 700000 0  550000 700000 0  600000 700000 0  650000 700000 0  700000 700000 0  750000 700000 0  800000 700000 0  850000 700000 0  900000 700000 0  950000 700000 0  1000000 700000 0  0 750000 0  50000 750000 0  100000 750000 0  150000 750000 0  200000 750000 0  250000 750000 0  300000 750000 0  350000 750000 0  400000 750000 0  450000 750000 0  500000 750000 0  550000 750000 0  600000 750000 0  650000 750000 0  700000 750000 0  750000 750000 0  800000 750000 0  850000 750000 0  900000 750000 0  950000 750000 0  1000000 750000 0  0 800000 0  50000 800000 0  100000 800000 0  150000 800000 0  200000 800000 0  250000 800000 0  300000 800000 0  350000 800000 0  400000 800000 0  450000 800000 0  500000 800000 0  550000 800000 0  600000 800000 0  650000 800000 0  700000 800000 0  750000 800000 0  800000 800000 0  850000 800000 0  900000 800000 0  950000 800000 0  1000000 800000 0  0 850000 0  50000 850000 0  100000 850000 0  150000 850000 0  200000 850000 0  250000 850000 0  300000 850000 0  350000 850000 0  400000 850000 0  450000 850000 0  500000 850000 0  550000 850000 0  600000 850000 0  650000 850000 0  700000 850000 0  750000 850000 0  800000 850000 0  850000 850000 0  900000 850000 0  950000 850000 0  1000000 850000 0  0 900000 0  50000 900000 0  100000 900000 0  150000 900000 0  200000 900000 0  250000 900000 0  300000 900000 0  350000 900000 0  400000 900000 0  450000 900000 0  500000 900000 0  550000 900000 0  600000 900000 0  650000 900000 0  700000 900000 0  750000 900000 0  800000 900000 0  850000 900000 0  900000 900000 0  950000 900000 0  1000000 900000 0  0 950000 0  50000 950000 0  100000 950000 0  150000 950000 0  200000 950000 0  250000 950000 0  300000 950000 0  350000 950000 0  400000 950000 0  450000 950000 0  500000 950000 0  550000 950000 0  600000 950000 0  650000 950000 0  700000 950000 0  750000 950000 0  800000 950000 0  850000 950000 0  900000 950000 0  950000 950000 0  1000000 950000 0  0 1000000 0  50000 1000000 0  100000 1000000 0  150000 1000000 0  200000 1000000 0  250000 1000000 0  300000 1000000 0  350000 1000000 0  400000 1000000 0  450000 1000000 0  500000 1000000 0  550000 1000000 0  600000 1000000 0  650000 1000000 0  700000 1000000 0  750000 1000000 0  800000 1000000 0  850000 1000000 0  900000 1000000 0  950000 1000000 0  1000000 1000000 0  0 1050000 0  50000 1050000 0  100000 1050000 0  150000 1050000 0  200000 1050000 0  250000 1050000 0  300000 1050000 0  350000 1050000 0  400000 1050000 0  450000 1050000 0  500000 1050000 0  550000 1050000 0  600000 1050000 0  650000 1050000 0  700000 1050000 0  750000 1050000 0  800000 1050000 0  850000 1050000 0  900000 1050000 0  950000 1050000 0  1000000 1050000 0  0 1100000 0  50000 1100000 0  100000 1100000 0  150000 1100000 0  200000 1100000 0  250000 1100000 0  300000 1100000 0  350000 1100000 0  400000 1100000 0  450000 1100000 0  500000 1100000 0  550000 1100000 0  600000 1100000 0  650000 1100000 0  700000 1100000 0  750000 1100000 0  800000 1100000 0  850000 1100000 0  900000 1100000 0  950000 1100000 0  1000000 1100000 0  0 1150000 0  50000 1150000 0  100000 1150000 0  150000 1150000 0  200000 1150000 0  250000 1150000 0  300000 1150000 0  350000 1150000 0  400000 1150000 0  450000 1150000 0  500000 1150000 0  550000 1150000 0  600000 1150000 0  650000 1150000 0  700000 1150000 0  750000 1150000 0  800000 1150000 0  850000 1150000 0  900000 1150000 0  950000 1150000 0  1000000 1150000 0  0 1200000 0  50000 1200000 0  100000 1200000 0  150000 1200000 0  200000 1200000 0  250000 1200000 0  300000 1200000 0  350000 1200000 0  400000 1200000 0  450000 1200000 0  500000 1200000 0  550000 1200000 0  600000 1200000 0  650000 1200000 0  700000 1200000 0  750000 1200000 0  800000 1200000 0  850000 1200000 0  900000 1200000 0  950000 1200000 0  1000000 1200000 0  0 1250000 0  50000 1250000 0  100000 1250000 0  150000 1250000 0  200000 1250000 0  250000 1250000 0  300000 1250000 0  350000 1250000 0  400000 1250000 0  450000 1250000 0  500000 1250000 0  550000 1250000 0  600000 1250000 0  650000 1250000 0  700000 1250000 0  750000 1250000 0  800000 1250000 0  850000 1250000 0  900000 1250000 0  950000 1250000 0  1000000 1250000 0  0 1300000 0  50000 1300000 0  100000 1300000 0  150000 1300000 0  200000 1300000 0  250000 1300000 0  300000 1300000 0  350000 1300000 0  400000 1300000 0  450000 1300000 0  500000 1300000 0  550000 1300000 0  600000 1300000 0  650000 1300000 0  700000 1300000 0  750000 1300000 0  800000 1300000 0  850000 1300000 0  900000 1300000 0  950000 1300000 0  1000000 1300000 0  0 1350000 0  50000 1350000 0  100000 1350000 0  150000 1350000 0  200000 1350000 0  250000 1350000 0  300000 1350000 0  350000 1350000 0  400000 1350000 0  450000 1350000 0  500000 1350000 0  550000 1350000 0  600000 1350000 0  650000 1350000 0  700000 135
[...]
<PointData  Vectors="f_10477"> 
<DataArray  type="Float64"  Name="f_10477"  NumberOfComponents="3" format="ascii">-5.5218524066914815e-09 -3.0747539837873601e-09 0.0000000000000000e+00  7.5579666191026548e-08 -2.0080790957364473e-09 0.0000000000000000e+00  7.8345095898332709e-08 -3.4778405077304395e-11 0.0000000000000000e+00  7.9132497235966729e-08 2.8601127799374476e-10 0.0000000000000000e+00  7.9523856158165587e-08 2.4727013534098814e-10 0.0000000000000000e+00  7.9712384282275009e-08 1.7797472904587827e-10 0.0000000000000000e+00  7.9809889269023242e-08 1.2209754030523618e-10 0.0000000000000000e+00  7.9863097611465368e-08 7.9908302986589575e-11 0.0000000000000000e+00  7.9891772113140618e-08 4.6677013054310897e-11 0.0000000000000000e+00  7.9904681708498268e-08 1.8453642855275554e-11 0.0000000000000000e+00  7.9905319888047810e-08 -7.7485122294873003e-12 0.0000000000000000e+00  7.9893859490185595e-08 -3.4456251114907456e-11 0.0000000000000000e+00  7.9867270300080569e-08 -6.4212236131298678e-11 0.0000000000000000e+00  7.9817753074728659e-08 -1.0000046115561422e-10 0.0000000000000000e+00  7.9728036373649019e-08 -1.4558050600013550e-10 0.0000000000000000e+00  7.9558334428936582e-08 -2.0515222837119366e-10 0.0000000000000000e+00  7.9213918462736697e-08 -2.7775635849864646e-10 0.0000000000000000e+00  7.8510749531928231e-08 -2.9355307628440985e-10 0.0000000000000000e+00  7.7049595891304373e-08 5.1685232278603646e-10 0.0000000000000000e+00  7.3025281867586831e-08 4.6939879644697373e-09 0.0000000000000000e+00  -7.8900008695581174e-09 4.8926892585187664e-09 0.0000000000000000e+00  -3.8741099450711003e-09 -3.4103942361867078e-09 0.0000000000000000e+00  -1.3814714177464985e-09 -2.3712450073895411e-08 0.0000000000000000e+00  1.7240605817773761e-08 -1.4052348156378904e-08 0.0000000000000000e+00  3.1896941368969903e-08 -7.8152133685440594e-09 0.0000000000000000e+00  4.1358198915748683e-08 -4.6205022706569505e-09 0.0000000000000000e+00  4.7509900001101369e-08 -2.8999535718007702e-09 0.0000000000000000e+00  5.1589882771088433e-08 -1.8798488420545008e-09 0.0000000000000000e+00  5.4293189989848584e-08 -1.2112640468016270e-09 0.0000000000000000e+00  5.6013205004034566e-08 -7.2898637120040620e-10 0.0000000000000000e+00  5.6970496882994597e-08 -3.4476401649176006e-10 0.0000000000000000e+00  5.7277805410613931e-08 -3.4070540667887187e-12 0.0000000000000000e+00  5.6969834054096050e-08 3.3762508321742100e-10 0.0000000000000000e+00  5.6011904757048715e-08 7.2077335294316209e-10 0.0000000000000000e+00  5.4291593470309604e-08 1.2008184253830116e-09 0.0000000000000000e+00  5.1589854473823012e-08 1.8647217778221875e-09 0.0000000000000000e+00  4.7519140701564040e-08 2.8736809615256284e-09 0.0000000000000000e+00  4.1403865729709465e-08 4.5693508164502413e-09 0.0000000000000000e+00  3.2081823591401490e-08 7.7741201696088856e-09 0.0000000000000000e+00  1.7923595492080448e-08 1.4428873237763643e-08 0.0000000000000000e+00  -2.7722161085910419e-10 2.5408220794808524e-08 0.0000000000000000e+00  -6.4379638457720404e-09 5.1052625305358597e-09 0.0000000000000000e+00  -1.1031876655073157e-09 -1.8334532390888102e-09 0.0000000000000000e+00  -6.5384131157447912e-09 -2.9805967964267517e-08 0.0000000000000000e+00  -2.6597070926160825e-09 -2.6238089211855293e-08 0.0000000000000000e+00  6.4529342065760119e-09 -1.8726692342524620e-08 0.0000000000000000e+00  1.5639753263278073e-08 -1.2824041004733593e-08 0.0000000000000000e+00  2.3055652249884711e-08 -8.7704313521960482e-09 0.0000000000000000e+00  2.8591825747413878e-08 -5.9781879825066274e-09 0.0000000000000000e+00  3.2526800336554830e-08 -3.9686619560428038e-09 0.0000000000000000e+00  3.5139101985618341e-08 -2.4288085226339234e-09 0.0000000000000000e+00  3.6629383187406287e-08 -1.1542663623003489e-09 0.0000000000000000e+00  3.7114150349621226e-08 3.5848827122750290e-13 0.0000000000000000e+00  3.6631512112746177e-08 1.1551694626737909e-09 0.0000000000000000e+00  3.5144198140117875e-08 2.4303590952728117e-09 0.0000000000000000e+00  3.2537181502077744e-08 3.9716632885560713e-09 0.0000000000000000e+00  2.8613152264669796e-08 5.9844727769094982e-09 0.0000000000000000e+00  2.3101812246560697e-08 8.7858626339313235e-09 0.0000000000000000e+00  1.5743994320011082e-08 1.2870895974255201e-08 0.0000000000000000e+00  6.6619975760877003e-09 1.8864154458405095e-08 0.0000000000000000e+00  -2.4046485970724034e-09 2.6472920516204152e-08 0.0000000000000000e+00  -6.0756247147953780e-09 2.8955028515641120e-08 0.0000000000000000e+00  -1.9091951876836642e-09 2.3947953500328703e-09 0.0000000000000000e+00  -1.3888725278393193e-10 -9.8437597471234921e-10 0.0000000000000000e+00  -4.4053269763291667e-09 -2.5406852105615436e-08 0.0000000000000000e+00  -6.4288385175109485e-09 -2.9802062068884330e-08 0.0000000000000000e+00  -3.8516161452759264e-09 -2.5680841607545005e-08 0.0000000000000000e+00  1.3015710463658633e-09 -1.9923355070180015e-08 0.0000000000000000e+00  6.8359895583950502e-09 -1.4765749864624577e-08 0.0000000000000000e+00  1.1678067885810298e-08 -1.0598577160316121e-08 0.0000000000000000e+00  1.5461168275682572e-08 -7.2726046422746556e-09 0.0000000000000000e+00  1.8121813637997903e-08 -4.5430134882023347e-09 0.0000000000000000e+00  1.9691550480662558e-08 -2.1838122308123682e-09 0.0000000000000000e+00  2.0210595621434667e-08 -5.6672923050828729e-13 0.0000000000000000e+00  1.9695369410402650e-08 2.1828335015953339e-09 0.0000000000000000e+00  1.8130381406286146e-08 4.5426297079619269e-09 0.0000000000000000e+00  1.5476686930613896e-08 7.2737889238786703e-09 0.0000000000000000e+00  1.1704688167851018e-08 1.0603853096091001e-08 0.0000000000000000e+00  6.8797779796319552e-09 1.4781774677066418e-08 0.0000000000000000e+00  1.3634583240107704e-09 1.9964210616291405e-08 0.0000000000000000e+00  -3.7884323123538798e-09 2.5747430707137634e-08 0.0000000000000000e+00  -6.3804119684557384e-09 2.9747397166813199e-08 0.0000000000000000e+00  -4.1784597993134066e-09 2.5019818210632884e-08 0.0000000000000000e+00  -2.3323391984410568e-10 1.4138962589784364e-09 0.0000000000000000e+00  6.2564756552546472e-11 -6.0894844501584718e-10 0.0000000000000000e+00  -2.9261766199967299e-09 -2.0847727358752786e-08 0.0000000000000000e+00  -6.3207259348087010e-09 -2.8494414898900080e-08 0.0000000000000000e+00  -7.2820247820343583e-09 -2.7942676042224818e-08 0.0000000000000000e+00  -5.7344905007590882e-09 -2.3895522931017615e-08 0.0000000000000000e+00  -2.8733561957645037e-09 -1.8995537597673794e-08 0.0000000000000000e+00  2.5746512810425714e-10 -1.4318924491517670e-08 0.0000000000000000e+00  3.0316037258557048e-09 -1.0156805644090458e-08 0.0000000000000000e+00  5.1356045198971837e-09 -6.4810796983343056e-09 0.0000000000000000e+00  6.4322711760214168e-09 -3.1526764359803627e-09 0.0000000000000000e+00  6.8698850786694731e-09 -1.0141714299595348e-12 0.0000000000000000e+00  6.4359413513486800e-09 3.1508540103512842e-09 0.0000000000000000e+00  5.1433598039640024e-09 6.4800235359463999e-09 0.0000000000000000e+00  3.0441786607775419e-09 1.0157592429805342e-08 0.0000000000000000e+00  2.7543753028592153e-10 1.4323590711178218e-08 0.0000000000000000e+00  -2.8507537144812010e-09 1.9006566042277515e-08 0.0000000000000000e+00  -5.7102881630879506e-09 2.3909832589047738e-08 0.0000000000000000e+00  -7.2605176760763218e-09 2.7934119450211725e-08 0.0000000000000000e+00  -6.2971230994227690e-09 2.8401153707489331e-08 0.0000000000000000e+00  -2.8495328023296283e-09 2.0723059972518045e-08 0.0000000000000000e+00  2.3636639839809189e-11 8.8888897552656322e-10 0.0000000000000000e+00  8.9712209902003514e-11 -4.0120214593738864e-10 0.0000000000000000e+00  -2.1125368031923771e-09 -1.7145639171881243e-08 0.0000000000000000e+00  -5.5310986699299830e-09 -2.5509225971151315e-08 0.0000000000000000e+00  -8.0375332193224501e-09 -2.7229837765979260e-08 0.0000000000000000e+00  -8.8214991347352862e-09 -2.5030212554652935e-08 0.0000000000000000e+00  -8.2307761881079610e-09 -2.1063077847516126e-08 0.0000000000000000e+00  -6.9131482271744346e-09 -1.6567439836713217e-08 0.0000000000000000e+00  -5.4300156577714095e-09 -1.2113396719638042e-08 0.0000000000000000e+00  -4.1599671045308834e-09 -7.8868520743838333e-09 0.0000000000000000e+00  -3.3243388832642231e-09 -3.8809602814008198e-09 0.0000000000000000e+00  -3.0338987709121190e-09 -1.6384686945408358e-12 0.0000000000000000e+00  -3.3218131009946138e-09 3.8778778330121562e-09 0.0000000000000000e+00  -4.1549793766712120e-09 7.8844372835018513e-09 0.0000000000000000e+00  -5.4228539965041897e-09 1.2112328026269547e-08 0.0000000000000000e+00  -6.9046289403229741e-09 1.6568419303511758e-08 0.0000000000000000e+00  -8.2225099939138941e-09 2.1065509320157444e-08 0.0000000000000000e+00  -8.8153114915147382e-09 2.5028156715667326e-08 0.0000000000000000e+00  -8.0321096218614263e-09 2.7207107515094497e-08 0.0000000000000000e+00  -5.5254236642274561e-09 2.5459972460009821e-08 0.0000000000000000e+00  -2.0917381090284190e-09 1.7113890424387013e-08 0.0000000000000000e+00  7.1972662384162383e-11 5.6195446367342899e-10 0.0000000000000000e+00  8.6424999021952993e-11 -2.7854837693875407e-10 0.0000000000000000e+00  -1.6356167226717829e-09 -1.4143872384673415e-08 0.0000000000000000e+00  -4.7669124046888203e-09 -2.2156211936439440e-08 0.0000000000000000e+00  -7.8358187924851104e-09 -2.5006515371636822e-08 0.0000000000000000e+00  -9.9211990407654414e-09 -2.4212309799590891e-08 0.0000000000000000e+00  -1.0910869911910285e-08 -2.1291352022549921e-08 0.0000000000000000e+00  -1.1078747867461668e-08 -1.7341548558403892e-08 0.0000000000000000e+00  -1.0794495962329047e-08 -1.3013458209150382e-08 0.0000000000000000e+00  -1.0374815416739935e-08 -8.6254007476690189e-09 0.0000000000000000e+00  -1.0039907186808593e-08 -4.2887606110358485e-09 0.0000000000000000e+00  -9.9145365306654523e-09 -2.0275722529982948e-12 0.0000000000000000e+00  -1.0038729320117229e-08 4.2848746348440607e-09 0.0000000000000000e+00  -1.0372703400729818e-08 8.6220352274137141e-09 0.0000000000000000e+00  -1.0791973110490256e-08 1.3010919077377769e-08 0.0000000000000000e+00  -1.1076609683392726e-08 1.7339723297199436e-08 0.0000000000000000e+00  -1.0909988263719361e-08 2.1288755109005594e-08 0.0000000000000000e+00  -9.9222186465079632e-09 2.4204982456504587e-08 0.0000000000000000e+00  -7.8375719455598753e-09 2.4989686717578334e-08 0.0000000000000000e+00  -4.7701808432515177e-09 2.2135949668984412e-08 0.0000000000000000e+00  -1.6303627326814411e-09 1.4139339806416623e-08 0.0000000000000000e+00  8.0131568609619457e-11 3.7608022613321270e-10 0.0000000000000000e+00  7.8774359892601906e-11 -2.0019691701982159e-10 0.0000000000000000e+00  -1.3286813061791765e-09 -1.1648289500363264e-08 0.0000000000000000e+00  -4.1336804363016648e-09 -1.8872746842940251e-08 0.0000000000000000e+00  -7.3162229145414810e-09 -2.2118809941989255e-08 0.0000000000000000e+00  -1.0045521194510208e-08 -2.2227134199378335e-08 0.0000000000000000e+00  -1.2011652696271899e-08 -2.0206309668830534e-08 0.0000000000000000e+00  -1.3235524089892550e-08 -1.6918492362276926e-08 0.0000000000000000e+00  -1.3894680470812092e-08 -1.2970001723768838e-08 0.0000000000000000e+00  -1.4194983600978365e-08 -8.7269857904906371e-09 0.0000000000000000e+00  -1.4304837237574854e-08 -4.3781856948576936e-09 0.0000000000000000e+00  -1.4329582574346377e-08 -2.2028173994004110e-12 0.0000000000000000e+00  -1.4304706598869207e-08 4.3739155299284454e-09 0.0000000000000000e+00  -1.4194932552932565e-08 8.7230928579971263e-09 0.0000000000000000e+00  -1.3895091253600565e-08 1.2966583897256198e-08 0.0000000000000000e+00  -1.3236846087513950e-08 1.6915237354821101e-08 0.0000000000000000e+00  -1.2014216611417546e-08 2.0202152744367224e-08 0.0000000000000000e+00  -1.0049454064524260e-08 2.2220481807381556e-08 0.0000000000000000e+00  -7.3207039113956832e-09 2.2109527724603337e-08 0.0000000000000000e+00  -4.1390929474802074e-09 1.8865832694317868e-08 0.0000000000000000e+00  -1.3271099502457272e-09 1.1650903194709244e-08 0.0000000000000000e+00  7.7604502854327746e-11 2.6390901751565991e-10 0.0000000000000000e+00  7.1248743269015011e-11 -1.4641330564390347e-10 0.0000000000000000e+00  -1.1142232182871422e-09 -9.5268163883225847e-09 0.0000000000000000e+00  -3.6176216600280614e-09 -1.5799649571214806e-08 0.0000000000000000e+00  -6.7142385369951306e-09 -1.9010664879249018e-08 0.0000000000000000e+00  -9.7019198998738937e-09 -1.9621792162850742e-08 0.0000000000000000e+00  -1.2207606474610974e-08 -1.8286553726721443e-08 0.0000000000000000e+00  -1.4105722669595666e-08 -1.5641629937196874e-08 0.0000000000000000e+00  -1.5426334718222621e-08 -1.2196755258456518e-08 0.0000000000000000e+00  -1.6264913085635100e-08 -8.3078725719914922e-09 0.0000000000000000e+00  -1.6721196567062503e-08 -4.1987696146339453e-09 0.0000000000000000e+00  -1.6865189148082277e-08 -2.2047456295123257e-12 0.0000000000000000e+00  -1.6721691182531782e-08 4.1944672361997706e-09 0.0000000000000000e+00  -1.6266016917810640e-08 8.3038526135555551e-09 0.0000000000000000e+00  -1.5428229455680149e-08 1.2193057891255189e-08 0.0000000000000000e+00  -1.4108572016425981e-08 1.5638045644473338e-08 0.0000000000000000e+00  -1.2211450620608799e-08 1.8282618449496985e-08 0.0000000000000000e+00  -9.7066505678927148e-09 1.9617224892143789e-08 0.0000000000000000e+00  -6.7191096959006450e-09 1.9006301627520675e-08 0.0000000000000000e+00  -3.6225915367279219e-09 1.5798213067456902e-08 0.0000000000000000e+00  -1.1134220128543014e-09 9.5306871079696724e-09 0.0000000000000000e+00  7.2245891777810398e-11 1.9060354353871084e-10 0.0000000000000000e+00  6.4600865465937892e-11 -1.0745543546866357e-10 0.0000000000000000e+00  -9.5498364621845808e-10 -7.6924285624057327e-09 0.0000000000000000e+00  -3.1937250086484020e-09 -1.2973458223522808e-08 0.0000000000000000e+00  -6.1211652117501498e-09 -1.5906878700073775e-08 0.0000000000000000e+00  -9.1519454047885144e-09 -1.6740536790346331e-08 0.0000000000000000e+00  -1.1909709650719619e-08 -1.5892274903276209e-08 0.0000000000000000e+00  -1.4193005710801740e-08 -1.3816631160661112e-08 0.0000000000000000e+00  -1.5932508044502532e-08 -1.0917198474752887e-08 0.0000000000000000e+00  -1.7134456607052955e-08 -7.5087749070586885e-09 0.0000000000000000e+00  -1.7833872106854720e-08 -3.8173927354426674e-09 0.0000000000000000e+00  -1.8063081154336514e-08 -2.0941300186328335e-12 0.0000000000000000e+00  -1.7834641401393679e-08 3.8132941555020153e-09 0.0000000000000000e+00  -1.7136030118536625e-08 7.5049153002523442e-09 0.0000000000000000e+00  -1.5934923607616906e-08 1.0913640350999229e-08 0.0000000000000000e+00  -1.4196254918882092e-08 1.3813326220787834e-08 0.0000000000000000e+00  -1.1913681460581741e-08 1.5889148756198022e-08 0.0000000000000000e+00  -9.1564139167650326e-09 1.6737769488077755e-08 0.0000000000000000e+00  -6.1254385797034324e-09 1.5905172507410774e-08 0.0000000000000000e+00  -3.1976590837201628e-09 1.2974071979345809e-08 0.0000000000000000e+00  -9.5429969541052052e-10 7.6959971966268127e-09 0.0000000000000000e+00  6.6450595957467545e-11 1.3959275729098602e-10 0.0000000000000000e+00  5.8935379404470233e-11 -7.8092176112065319e-11 0.0000000000000000e+00  -8.3249352728818421e-10 -6.0845789936292826e-09 0.0000000000000000e+00  -2.8448674836535057e-09 -1.0389910431534292e-08 0.0000000000000000e+00  -5.5778457493207276e-09 -1.2914989528209223e-08 0.0000000000000000e+00  -8.5400744734243823e-09 -1.3786239863343927e-08 0.0000000000000000e+00  -1.1374677831409604e-08 -1.3267774245907238e-08 0.0000000000000000e+00  -1.3845608675749010e-08 -1.1676796131796689e-08 0.0000000000000000e+00  -1.5821958891341553e-08 -9.3200100828965337e-09 0.0000000000000000e+00  -1.7245718875429148e-08 -6.4584482937119505e-09 0.0000000000000000e+00  -1.8100004040047699e-08 -3.2985870598115790e-09 0.0000000000000000e+00  -1.8384527508417521e-08 -1.9246259360589800e-12 0.0000000000000000e+00  -1.8100816193917895e-08 3.2948199172206860e-09 0.0000000000000000e+00  -1.7247331323199131e-08 6.4549098025034563e-09 0.0000000000000000e+00  -1.5824331213488817e-08 9.3168029562859928e-09 0.0000000000000000e+00  -1.3848647358569621e-08 1.1673987006407535e-08 0.0000000000000000e+00  -1.1378206192202741e-08 1.3265461727340108e-08 0.0000000000000000e+00  -8.5438306034448425e-09 1.3784674701067885e-08 0.0000000000000000e+00  -5.5812429399419529e-09 1.2914583232989685e-08 0.0000000000000000e+00  -2.8478042132641564e-09 1.0391176956975824e-08 0.0000000000000000e+00  -8.3182117469767881e-10 6.0875729866900585e-09 0.0000000000000000e+00  6.1008717292030629e-11 1.0237129243228151e-10 0.0000000000000000e+00  5.4273578409636759e-11 -5.5221973230229832e-11 0.0000000000000000e+00  -7.3758381800295192e-10 -4.6569642749251572e-09 0.0000000000000000e+00  -2.5621276907909596e-09 -8.0259660978348293e-09 0.0000000000000000e+00  -5.1072721398020771e-09 -1.0076829896356503e-08 0.0000000000000000e+00  -7.9534069547710173e-09 -1.0868287112142552e-08 0.0000000000000000e+00  -1.0768824151972710e-08 -1.0564610239875287e-08 0.0000000000000000e+00  -1.3305034806558896e-08 -9.3820403891742677e-09 0.0000000000000000e+00  -1.5395528224143876e-08 -7.5449664902532613e-09 0.0000000000000000e+00  -1.6939575532214844e-08 -5.2579546335720593e-09 0.0000000000000000e+00  -1.7882716824063913e-08 -2.6948718473946205e-09 0.0000000000000000e+00  -1.8199719547699177e-08 -1.7388270909288562e-12 0.0000000000000000e+00  -1.7883439780862631e-08 2.6914743957960007e-09 0.0000000000000000e+00  -1.6940989614414253e-08 5.2547889377997563e-09 0.0000000000000000e+00  -1.5397562321189139e-08 7.5421647209573241e-09 0.0000000000000000e+00  -1.3307567767453591e-08 9.3797252148715266e-09 0.0000000000000000e+00  -1.0771670506886220e-08 1.0562927211345988e-08 0.0000000000000000e+00  -7.9563249688768890e-09 1.0867436833596226e-08 0.0000000000000000e+00  -5.1098066537074553e-09 1.0077009027656380e-08 0.0000000000000000e+00  -2.5642391900357728e-09 8.0273583665102791e-09 0.0000000000000000e+00  -7.3695171669974853e-10 4.6594598259331221e-09 0.0000000000000000e+00  5.6226973060292077e-11 7.4190353973824970e-11 0.0000000000000000e+00  5.0648892387300827e-11 -3.6798884064145569e-11 0.0000000000000000e+00  -6.6583691977511552e-10 -3.3703264956333388e-09 0.0000000000000000e+00  -2.3420296452262653e-09 -5.8479760560607758e-09 0.0000000000000000e+00  -4.7253265589467946e-09 -7.3951062101571875e-09 0.0000000000000000e+00  -7.4485114202972569e-09 -8.0347322025264655e-09 0.0000000000000000e+00  -1.0203102822490490e-08 -7.8659786742418163e-09 0.0000000000000000e+00  -1.2738847199124721e-08 -7.0307006963523551e-09 0.0000000000000000e+00  -1.4870051134744740e-08 -5.6847364481416400e-09 0.0000000000000000e+00  -1.6469421048806557e-08 -3.9778183268095102e-09 0.0000000000000000e+00  -1.7457392948410864e-08 -2.0440317426691438e-09 0.0000000000000000e+00  -1.7791343428570240e-08 -1.5679458893441138e-12 0.0000000000000000e+00  -1.7457960967249005e-08 2.0409760845143974e-09 0.0000000000000000e+00  -1.6470522534050010e-08 3.9749988676944079e-09 0.0000000000000000e+00  -1.4871614156157567e-08 5.6822993277728309e-09 0.0000000000000000e+00  -1.2740758776351180e-08 7.0287854588950378e-09 0.0000000000000000e+00  -1.0205204097298941e-08 7.8647252949921259e-09 0.0000000000000000e+00  -7.4506110218905029e-09 8.0342777371579228e-09 0.0000000000000000e+00  -4.7270998672893490e-09 7.3955247726605636e-09 0.0000000000000000e+00  -2.3434773513803120e-09 5.8493248853416218e-09 0.0000000000000000e+00  -6.6530080984929695e-10 3.3724654104043458e-09 0.0000000000000000e+00  5.2270662659528433e-11 5.2153204995979648e-11 0.0000000000000000e+00  4.8106822657182153e-11 -2.1317052785892618e-11 0.0000000000000000e+00  -6.1525869566720200e-10 -2.1884945990766092e-09 0.0000000000000000e+00  -2.1840348526139654e-09 -3.8152244373946908e-09 0.0000000000000000e+00  -4.4439255450059064e-09 -4.8480622818975243e-09 0.0000000000000000e+00  -7.0634170461649565e-09 -5.2934265904476092e-09 0.0000000000000000e+00  -9.7519463674644997e-09 -5.2070183814234350e-09 0.0000000000000000e+00  -1.2261535002089433e-