<?xml version="1.0"?>
<VTKFile type="UnstructuredGrid"  version="0.1"  >
<UnstructuredGrid>
<Piece  NumberOfPoints="651" NumberOfCells="1200">
<Points>
<DataArray  type="Float64"  NumberOfComponents="3"  format="ascii">0 0 0  50000 0 0  100000 0 0  150000 0 0  200000 0 0  250000 0 0  300000 0 0  350000 0 0  400000 0 0  450000 0 0  500000 0 0  550000 0 0  600000 0 0  650000 0 0  700000 0 0  750000 0 0  800000 0 0  850000 0 0  900000 0 0  950000 0 0  1000000 0 0  0 50000 0  50000 50000 0  100000 50000 0  150000 50000 0  200000 50000 0  250000 50000 0  300000 50000 0  350000 50000 0  400000 50000 0  450000 50000 0  500000 50000 0  550000 50000 0  600000 50000 0  650000 50000 0  700000 50000 0  750000 50000 0  800000 50000 0  850000 50000 0  900000 50000 0  950000 50000 0  1000000 50000 0  0 100000 0  50000 100000 0  100000 100000 0  150000 100000 0  200000 100000 0  250000 100000 0  300000 100000 0  350000 100000 0  400000 100000 0  450000 100000 0  500000 100000 0  550000 100000 0  600000 100000 0  650000 100000 0  700000 100000 0  750000 100000 0  800000 100000 0  850000 100000 0  900000 100000 0  950000 100000 0  1000000 100000 0  0 150000 0  50000 150000 0  100000 150000 0  150000 150000 0  200000 150000 0  250000 150000 0  300000 150000 0  350000 150000 0  400000 150000 0  450000 150000 0  500000 150000 0  550000 150000 0  600000 150000 0  650000 150000 0  700000 150000 0  750000 150000 0  800000 150000 0  850000 150000 0  900000 150000 0  950000 150000 0  1000000 150000 0  0 200000 0  50000 200000 0  100000 200000 0  150000 200000 0  200000 200000 0  250000 200000 0  300000 200000 0  350000 200000 0  400000 200000 0  450000 200000 0  500000 200000 0  550000 200000 0  600000 200000 0  650000 200000 0  700000 200000 0  750000 200000 0  800000 200000 0  850000 200000 0  900000 200000 0  950000 200000 0  1000000 200000 0  0 250000 0  50000 250000 0  100000 250000 0  150000 250000 0  200000 250000 0  250000 250000 0  300000 250000 0  350000 250000 0  400000 250000 0  450000 250000 0  500000 250000 0  550000 250000 0  600000 250000 0  650000 250000 0  700000 250000 0  750000 250000 0  800000 250000 0  850000 250000 0  900000 250000 0  950000 250000 0  1000000 250000 0  0 300000 0  50000 300000 0  100000 300000 0  150000 300000 0  200000 300000 0  250000 300000 0  300000 300000 0  350000 300000 0  400000 300000 0  450000 300000 0  500000 300000 0  550000 300000 0  600000 300000 0  650000 300000 0  700000 300000 0  750000 300000 0  800000 300000 0  850000 300000 0  900000 300000 0  950000 300000 0  1000000 300000 0  0 350000 0  50000 350000 0  100000 350000 0  150000 350000 0  200000 350000 0  250000 350000 0  300000 350000 0  350000 350000 0  400000 350000 0  450000 350000 0  500000 350000 0  550000 350000 0  600000 350000 0  650000 350000 0  700000 350000 0  750000 350000 0  800000 350000 0  850000 350000 0  900000 350000 0  950000 350000 0  1000000 350000 0  0 400000 0  50000 400000 0  100000 400000 0  150000 400000 0  200000 400000 0  250000 400000 0  300000 400000 0  350000 400000 0  400000 400000 0  450000 400000 0  500000 400000 0  550000 400000 0  600000 400000 0  650000 400000 0  700000 400000 0  750000 400000 0  800000 400000 0  850000 400000 0  900000 400000 0  950000 400000 0  1000000 400000 0  0 450000 0  50000 450000 0  100000 450000 0  150000 450000 0  200000 450000 0  250000 450000 0  300000 450000 0  350000 450000 0  400000 450000 0  450000 450000 0  500000 450000 0  550000 450000 0  600000 450000 0  650000 450000 0  700000 450000 0  750000 450000 0  800000 450000 0  850000 450000 0  900000 450000 0  950000 450000 0  1000000 450000 0  0 500000 0  50000 500000 0  100000 500000 0  150000 500000 0  200000 500000 0  250000 500000 0  300000 500000 0  350000 500000 0  400000 500000 0  450000 500000 0  500000 500000 0  550000 500000 0  600000 500000 0  650000 500000 0  700000 500000 0  750000 500000 0  800000 500000 0  850000 500000 0  900000 500000 0  950000 500000 0  1000000 500000 0  0 550000 0  50000 550000 0  100000 550000 0  150000 550000 0  200000 550000 0  250000 550000 0  300000 550000 0  350000 550000 0  400000 550000 0  450000 550000 0  500000 550000 0  550000 550000 0  600000 550000 0  650000 550000 0  700000 550000 0  750000 550000 0  800000 550000 0  850000 550000 0  900000 550000 0  950000 550000 0  1000000 550000 0  0 600000 0  50000 600000 0  100000 600000 0  150000 600000 0  200000 600000 0  250000 600000 0  300000 600000 0  350000 600000 0  400000 600000 0  450000 600000 0  500000 600000 0  550000 600000 0  600000 600000 0  650000 600000 0  700000 600000 0  750000 600000 0  800000 600000 0  850000 600000 0  900000 600000 0  950000 600000 0  1000000 600000 0  0 650000 0  50000 650000 0  100000 650000 0  150000 650000 0  200000 650000 0  250000 650000 0  300000 650000 0  350000 650000 0  400000 650000 0  450000 650000 0  500000 650000 0  550000 650000 0  600000 650000 0  650000 650000 0  700000 650000 0  750000 650000 0  800000 650000 0  850000 650000 0  900000 650000 0  950000 650000 0  1000000 650000 0  0 700000 0  50000 700000 0  100000 700000 0  150000 700000 0  200000 700000 0  250000 700000 0  300000 700000 0  350000 700000 0  400000 700000 0  450000 700000 0  500000 700000 0  550000 700000 0  600000 700000 0  650000 700000 0  700000 700000 0  750000 700000 0  800000 700000 0  850000 700000 0  900000 700000 0  950000 700000 0  1000000 700000 0  0 750000 0  50000 750000 0  100000 750000 0  150000 750000 0  200000 750000 0  250000 750000 0  300000 750000 0  350000 750000 0  400000 750000 0  450000 750000 0  500000 750000 0  550000 750000 0  600000 750000 0  650000 750000 0  700000 750000 0  750000 750000 0  800000 750000 0  850000 750000 0  900000 750000 0  950000 750000 0  1000000 750000 0  0 800000 0  50000 800000 0  100000 800000 0  150000 800000 0  200000 800000 0  250000 800000 0  300000 800000 0  350000 800000 0  400000 800000 0  450000 800000 0  500000 800000 0  550000 800000 0  600000 800000 0  650000 800000 0  700000 800000 0  750000 800000 0  800000 800000 0  850000 800000 0  900000 800000 0  950000 800000 0  1000000 800000 0  0 850000 0  50000 850000 0  100000 850000 0  150000 850000 0  200000 850000 0  250000 850000 0  300000 850000 0  350000 850000 0  400000 850000 0  450000 850000 0  500000 850000 0  550000 850000 0  600000 850000 0  650000 850000 0  700000 850000 0  750000 850000 0  800000 850000 0  850000 850000 0  900000 850000 0  950000 850000 0  1000000 850000 0  0 900000 0  50000 900000 0  100000 900000 0  150000 900000 0  200000 900000 0  250000 900000 0  300000 900000 0  350000 900000 0  400000 900000 0  450000 900000 0  500000 900000 0  550000 900000 0  600000 900000 0  650000 900000 0  700000 900000 0  750000 900000 0  800000 900000 0  850000 900000 0  900000 900000 0  950000 900000 0  1000000 900000 0  0 950000 0  50000 950000 0  100000 950000 0  150000 950000 0  200000 950000 0  250000 950000 0  300000 950000 0  350000 950000 0  400000 950000 0  450000 950000 0  500000 950000 0  550000 950000 0  600000 950000 0  650000 950000 0  700000 950000 0  750000 950000 0  800000 950000 0  850000 950000 0  900000 950000 0  950000 950000 0  1000000 950000 0  0 1000000 0  50000 1000000 0  100000 1000000 0  150000 1000000 0  200000 1000000 0  250000 1000000 0  300000 1000000 0  350000 1000000 0  400000 1000000 0  450000 1000000 0  500000 1000000 0  550000 1000000 0  600000 1000000 0  650000 1000000 0  700000 1000000 0  750000 1000000 0  800000 1000000 0  850000 1000000 0  900000 1000000 0  950000 1000000 0  1000000 1000000 0  0 1050000 0  50000 1050000 0  100000 1050000 0  150000 1050000 0  200000 1050000 0  250000 1050000 0  300000 1050000 0  350000 1050000 0  400000 1050000 0  450000 1050000 0  500000 1050000 0  550000 1050000 0  600000 1050000 0  650000 1050000 0  700000 1050000 0  750000 1050000 0  800000 1050000 0  850000 1050000 0  900000 1050000 0  950000 1050000 0  1000000 1050000 0  0 1100000 0  50000 1100000 0  100000 1100000 0  150000 1100000 0  200000 1100000 0  250000 1100000 0  300000 1100000 0  350000 1100000 0  400000 1100000 0  450000 1100000 0  500000 1100000 0  550000 1100000 0  600000 1100000 0  650000 1100000 0  700000 1100000 0  750000 1100000 0  800000 1100000 0  850000 1100000 0  900000 1100000 0  950000 1100000 0  1000000 1100000 0  0 1150000 0  50000 1150000 0  100000 1150000 0  150000 1150000 0  200000 1150000 0  250000 1150000 0  300000 1150000 0  350000 1150000 0  400000 1150000 0  450000 1150000 0  500000 1150000 0  550000 1150000 0  600000 1150000 0  650000 1150000 0  700000 1150000 0  750000 1150000 0  800000 1150000 0  850000 1150000 0  900000 1150000 0  950000 1150000 0  1000000 1150000 0  0 1200000 0  50000 1200000 0  100000 1200000 0  150000 1200000 0  200000 1200000 0  250000 1200000 0  300000 1200000 0  350000 1200000 0  400000 1200000 0  450000 1200000 0  500000 1200000 0  550000 1200000 0  600000 1200000 0  650000 1200000 0  700000 1200000 0  750000 1200000 0  800000 1200000 0  850000 1200000 0  900000 1200000 0  950000 1200000 0  1000000 1200000 0  0 1250000 0  50000 1250000 0  100000 1250000 0  150000 1250000 0  200000 1250000 0  250000 1250000 0  300000 1250000 0  350000 1250000 0  400000 1250000 0  450000 1250000 0  500000 1250000 0  550000 1250000 0  600000 1250000 0  650000 1250000 0  700000 1250000 0  750000 1250000 0  800000 1250000 0  850000 1250000 0  900000 1250000 0  950000 1250000 0  1000000 1250000 0  0 1300000 0  50000 1300000 0  100000 1300000 0  150000 1300000 0  200000 1300000 0  250000 1300000 0  300000 1300000 0  350000 1300000 0  400000 1300000 0  450000 1300000 0  500000 1300000 0  550000 1300000 0  600000 1300000 0  650000 1300000 0  700000 1300000 0  750000 1300000 0  800000 1300000 0  850000 1300000 0  900000 1300000 0  950000 1300000 0  1000000 1300000 0  0 1350000 0  50000 1350000 0  100000 1350000 0  150000 1350000 0  200000 1350000 0  250000 1350000 0  300000 1350000 0  350000 1350000 0  400000 1350000 0  450000 1350000 0  500000 1350000 0  550000 1350000 0  600000 1350000 0  650000 1350000 0  700000 135
[...]
<PointData  Scalars="f_4507"> 
<DataArray  type="Float64"  Name="f_4507"  format="ascii">-8.8517767782797602e-02  -7.2560771021889818e-03  -9.4231937401951832e-04  6.2168336152999912e-03  1.1148573757561358e-02  1.4961030052006719e-02  1.8189826731405206e-02  2.1050052553297102e-02  2.3681470900214455e-02  2.6178287516682015e-02  2.8612428003874327e-02  3.1046500294670924e-02  3.3543086121700441e-02  3.6174013770047551e-02  3.9033494392697640e-02  4.2259986268022236e-02  4.6065407625676992e-02  5.1080566367544405e-02  5.7622975455539335e-02  6.5434688402433647e-02  2.0523936869285933e-01  -1.5356538933540919e-02  -6.5044560072332475e-03  -1.2994062658592289e-03  6.6413349546589210e-03  1.1227686742873094e-02  1.5016097840471428e-02  1.8223202519630343e-02  2.1070754174939105e-02  2.3694452660874055e-02  2.6185794723899453e-02  2.8615587875968712e-02  3.1045709706759503e-02  3.3538132673501912e-02  3.6164016694013444e-02  3.9016099232461146e-02  4.2229321895150773e-02  4.6032541236030129e-02  5.0822241793652329e-02  5.7306441521548492e-02  7.0863162940959748e-02  7.2953159320689104e-02  -8.7888114724107673e-04  -8.5099067419014797e-04  3.9525378872619140e-03  8.5917686623328514e-03  1.2231232365249589e-02  1.5636167055804607e-02  1.8607177601084421e-02  2.1313118872641000e-02  2.3839246570735061e-02  2.6255680391206751e-02  2.8620530705495344e-02  3.0986345187851289e-02  3.3405966254627134e-02  3.5938476958500838e-02  3.8656440517663641e-02  4.1655987877757129e-02  4.5068070620245822e-02  4.9054100887474139e-02  5.3850222281631707e-02  5.7842735539564968e-02  5.7282327568552324e-02  5.6125275749333084e-03  5.8983826101352901e-03  8.1744861413844613e-03  1.0859764561124724e-02  1.3801891424835910e-02  1.6632739339199263e-02  1.9254116790142880e-02  2.1730931677156024e-02  2.4090818633843863e-02  2.6375548910620154e-02  2.8623926720400098e-02  3.0873580964711100e-02  3.3162469975912268e-02  3.5530570250445419e-02  3.8020719786453522e-02  4.0676000513077251e-02  4.3525390048748287e-02  4.6537608170681179e-02  4.9417928588420285e-02  5.1370536731527652e-02  5.1698282807972576e-02  1.0110633362083307e-02  1.0228949684824396e-02  1.1440305997567990e-02  1.3324156775411371e-02  1.5538753642791125e-02  1.7805832486514055e-02  2.0059531983481295e-02  2.2265327917665320e-02  2.4417868173436375e-02  2.6532025422129818e-02  2.8626499715349793e-02  3.0722306001133397e-02  3.2840682334895448e-02  3.5001343689377400e-02  3.7218892886234339e-02  3.9494209659832288e-02  4.1794630187077506e-02  4.4010043737163780e-02  4.5890915597649067e-02  4.7041107304854154e-02  4.7091501724073559e-02  1.3328055337147248e-02  1.3393330294563934e-02  1.4186522260891735e-02  1.5516861155687145e-02  1.7177096118391553e-02  1.9010125968799335e-02  2.0921309542655558e-02  2.2853219773473883e-02  2.4784216358766823e-02  2.6708330404501407e-02  2.8627662958542435e-02  3.0548152325158680e-02  3.2475800601399818e-02  3.4413166752159982e-02  3.6354213773422260e-02  3.8275590488815410e-02  4.0122073470464967e-02  4.1786889669286308e-02  4.3099476144961950e-02  4.3847959151712253e-02  4.3887695460674329e-02  1.5780102325282385e-02  1.5823810432052221e-02  1.6383546438776864e-02  1.7365701997040146e-02  1.8657619163320652e-02  2.0151236631495154e-02  2.1764689995042937e-02  2.3444498294299770e-02  2.5159013257547633e-02  2.6889994091847429e-02  2.8627746229232736e-02  3.0366367210970600e-02  3.2099925427606202e-02  3.3818640973997040e-02  3.5504124966438497e-02  3.7123030565536057e-02  3.8619297786776564e-02  3.9907878790963414e-02  4.0877489178024771e-02  4.1411653351541976e-02  4.1439818787599420e-02  1.7698808914933768e-02  1.7729816707743946e-02  1.8150918252662473e-02  1.8911182082790311e-02  1.9943611344286783e-02  2.1175317990328176e-02  2.2544496576140691e-02  2.4003656329600782e-02  2.5518610045548076e-02  2.7065452189372001e-02  2.8626956463117349e-02  3.0189027432118133e-02  3.1737506957657563e-02  3.3254899068736327e-02  3.4716788173676197e-02  3.6087993803931691e-02  3.7319253361792898e-02  3.8346625709310890e-02  3.9097009485919286e-02  3.9501807155648362e-02  3.9522908834730586e-02  1.9218913273686467e-02  1.9242349904126918e-02  1.9574483350481776e-02  2.0184850211118172e-02  2.1031372339900319e-02  2.2064275881280536e-02  2.3236811374065972e-02  2.4508691301759037e-02  2.5847332001971514e-02  2.7226757348157344e-02  2.8625585887363872e-02  3.0024732415587951e-02  3.1405036517910073e-02  3.2744857750959283e-02  3.4017719272568844e-02  3.5190281710734142e-02  3.6221346122135102e-02  3.7063134162688215e-02  3.7666071434942938e-02  3.7987132742713987e-02  3.8003964336341838e-02  2.0425882911171173e-02  2.0444410989774318e-02  2.0716280504295009e-02  2.1221901645250004e-02  2.1933231325520067e-02  2.2814905839802183e-02  2.3831044068422517e-02  2.4948011390948960e-02  2.6136016474776702e-02  2.7369028996159527e-02  2.8623873955801786e-02  2.9878862077580445e-02  3.1112235075509163e-02  3.2300606419039889e-02  3.3417583742114614e-02  3.4432874673310715e-02  3.5312341332185165e-02  3.6019629495030292e-02  3.6519672621442151e-02  3.6783775089640591e-02  3.6797716069695952e-02  2.1376896984215379e-02  2.1392081130090067e-02  2.1621794714773445e-02  2.2052588761189564e-02  2.2664597512576930e-02  2.3431529818241439e-02  2.4325084217150270e-02  2.5316927504004917e-02  2.6380163644778878e-02  2.7489704616364477e-02  2.8621997816211650e-02  2.9754326019862904e-02  3.0863920001161733e-02  3.1927073488643432e-02  3.2918456517762353e-02  3.3810869494276211e-02  3.4575710707668530e-02  3.5184453476236298e-02  3.5611077354969024e-02  3.5835246193329923e-02  3.5847181912438901e-02  2.2111665541391306e-02  2.2124507240344732e-02  2.2324348541486155e-02  2.2701383683029881e-02  2.3240644840782327e-02  2.3921593824448535e-02  2.4721088123370868e-02  2.5614762404724611e-02  2.6578259666294526e-02  2.7587761829690957e-02  2.8620070679863531e-02  2.9652358124155811e-02  3.0661760860191560e-02  3.1624979034006614e-02  3.2518042423599770e-02  3.3316416898772405e-02  3.3995599022624411e-02  3.4532338981180077e-02  3.4906311917682349e-02  3.5102207369452749e-02  3.5112751144477157e-02  2.2658158965041333e-02  2.2669347263221239e-02  2.2848256241133940e-02  2.3187315623385673e-02  2.3674517349536770e-02  2.4292958323628495e-02  2.5022924143829783e-02  2.5842874360823612e-02  2.6730455962112654e-02  2.7663072022652592e-02  2.8618153659892669e-02  2.9573193714310081e-02  3.0505662951693623e-02  3.1392929960115015e-02  3.2212307628434522e-02  3.2941343540108185e-02  3.3558428839050414e-02  3.4043798903920577e-02  3.4380704657460300e-02  3.4556896461810947e-02  3.4566509020682500e-02  2.3035851456305101e-02  2.3045895634816554e-02  2.3210844122850360e-02  2.3524513472405747e-02  2.3976636135974852e-02  2.4552530677649426e-02  2.5234648887466911e-02  2.6003323988057880e-02  2.6837625925435118e-02  2.7715926705741880e-02  2.8616270929865812e-02  2.9516576542659496e-02  3.0394748938313086e-02  3.1228797637377011e-02  3.1997045415915783e-02  3.2678510116059253e-02  3.3253493182455164e-02  3.3704424004081142e-02  3.4016720198408096e-02  3.4179959445060804e-02  3.4189015157632896e-02  2.3257610040882358e-02  2.3266914124688329e-02  2.3423727415921244e-02  2.3722698770187071e-02  2.4154465899045297e-02  2.4705555016517278e-02  2.5359613012238172e-02  2.6098039138858473e-02  2.6900746467889373e-02  2.7746717756485368e-02  2.8614422571592642e-02  2.9482105073763740e-02  3.0328003804355901e-02  3.1130572748945332e-02  3.1868773173859062e-02  3.2522495998119530e-02  3.3073128222039130e-02  3.3504308315560713e-02  3.3802610841671014e-02  3.3958597843368771e-02  3.3967424832968642e-02  2.3330782640752983e-02  2.3339690738765535e-02  2.3493585847840597e-02  2.3787543780182496e-02  2.4212460281673284e-02  2.4755259143329170e-02  2.5399967027702235e-02  2.6128325924938970e-02  2.6920521830646055e-02  2.7755739482109930e-02  2.8612594599980931e-02  2.9469449717851884e-02  3.0304667369315814e-02  3.1096863275022937e-02  3.1825222172259658e-02  3.2469930056632804e-02  3.3012728918288714e-02  3.3437645419779539e-02  3.3731603352121449e-02  3.3885498461196498e-02  3.3894406559209063e-02  2.3257764366993495e-02  2.3266591356593324e-02  2.3422578358291098e-02  2.3720880884401351e-02  2.4152060977922940e-02  2.4702693201842457e-02  2.5356416026102911e-02  2.6094616451016628e-02  2.6897185395605951e-02  2.7743084126198112e-02  2.8610766628369221e-02  2.9478471443476491e-02  3.0324442732072476e-02  3.1127150061103354e-02  3.1865576187723677e-02  3.2519634183444605e-02  3.3070723300916677e-02  3.3502490429774892e-02  3.3801461784040768e-02  3.3958275075273645e-02  3.3967579159079685e-02  2.3036174042329209e-02  2.3045229754901374e-02  2.3208469001554068e-02  2.3520765195881005e-02  2.3971696017506927e-02  2.4546679083902800e-02  2.5228143784046218e-02  2.5996391562584941e-02  2.6830440261648814e-02  2.7708612657302404e-02  2.8608918270096043e-02  2.9509262494219955e-02  3.0387563274526696e-02  3.1221865211903951e-02  3.1990540312494965e-02  3.2672658522312485e-02  3.3248553063987094e-02  3.3700675727556174e-02  3.4014345077111645e-02  3.4179293565145458e-02  3.4189337743656886e-02  2.2658680179279835e-02  2.2668292738151345e-02  2.2844484542501996e-02  2.3181390296041653e-02  2.3666760360911802e-02  2.4283845659853934e-02  2.5012881571527548e-02  2.5832259239846975e-02  2.6719526248268326e-02  2.7651995485651799e-02  2.8607035540069208e-02  2.9562117177309267e-02  3.0494733237849191e-02  3.1382314839138191e-02  3.2202265056132093e-02  3.2932230876333360e-02  3.3550671850425130e-02  3.4037873576576304e-02  3.4376932958828016e-02  3.4555841936740717e-02  3.4567030234920644e-02  2.2112438055485253e-02  2.2122981830509644e-02  2.2318877282280061e-02  2.2692850218782274e-02  2.3229590177337878e-02  2.3908772301189776e-02  2.4707146776362387e-02  2.5600210165955411e-02  2.6563428339770403e-02  2.7572831075806093e-02  2.8605118520098345e-02  2.9637427370270895e-02  3.0646929533667298e-02  3.1610426795237179e-02  3.2504101076590936e-02  3.3303595375513285e-02  3.3984544359179615e-02  3.4523805516932050e-02  3.4900840658475804e-02  3.5100681959617241e-02  3.5113523658570650e-02  2.1378007287523679e-02  2.1389943006632672e-02  2.1614111844993546e-02  2.2040735723726154e-02  2.2649478492293901e-02  2.3414319705686099e-02  2.4306732682199864e-02  2.5298115711318653e-02  2.6361269198800295e-02  2.7470863180099014e-02  2.8603191383750216e-02  2.9735484583597351e-02  3.0845025555182932e-02  3.1908261695956903e-02  3.2900104982811589e-02  3.3793659381720451e-02  3.4560591687385019e-02  3.5172600438772392e-02  3.5603394485188546e-02  3.5833108069871930e-02  3.5848292215746647e-02  2.0427473130266872e-02  2.0441414110322177e-02  2.0705516578520562e-02  2.1205559704932382e-02  2.1912847867777387e-02  2.2792314526651671e-02  2.3807605457847651e-02  2.4924582780922210e-02  2.6112954124452890e-02  2.7346327122381553e-02  2.8601315244160094e-02  2.9856160203802329e-02  3.1089172725185108e-02  3.2277177809012854e-02  3.3394145131539335e-02  3.4410283360159687e-02  3.5291957874441858e-02  3.6003287554711987e-02  3.6508908695667024e-02  3.6780778210187728e-02  3.6799306288790877e-02  1.9221224863621159e-02  1.9238056457248989e-02  1.9559117765020020e-02  2.0162055037274605e-02  2.1003843077827562e-02  2.2034907489228379e-02  2.3207469927393479e-02  2.4480331449002937e-02  2.5820152682052039e-02  2.7200456784374025e-02  2.8599603312598011e-02  2.9998431851804515e-02  3.1377857197990328e-02  3.2716497898202773e-02  3.3988377825895880e-02  3.5160913318681361e-02  3.6193816860061637e-02  3.7040338988843860e-02  3.7650705849480270e-02  3.7982839295835173e-02  3.8006275926275659e-02  1.7702280365232675e-02  1.7723382044314930e-02  1.8128179714043874e-02  1.8878563490652086e-02  1.9905935838169877e-02  2.1137195396030893e-02  2.2508401026286175e-02  2.3970290131225890e-02  2.5487682242304500e-02  2.7036161767843840e-02  2.8598232736844524e-02  3.0159737010589823e-02  3.1706579154413744e-02  3.3221532870361024e-02  3.4680692623821126e-02  3.6049871209633676e-02  3.7281577855675180e-02  3.8314007117171776e-02  3.9074270947299698e-02  3.9495372492218288e-02  3.9526380285028473e-02  1.5785370412364188e-02  1.5813535848421597e-02  1.6347700021938652e-02  1.7317310408999781e-02  1.8605891413186328e-02  2.0102158634426614e-02  2.1721064233523921e-02  2.3406548225965190e-02  2.5125263772355903e-02  2.6858821988991359e-02  2.8597442970729116e-02  3.0335195108114364e-02  3.2066175942414114e-02  3.3780690905661943e-02  3.5460499204918845e-02  3.7073952568466677e-02  3.8567570036641331e-02  3.9859487202921977e-02  4.0841642761185452e-02  4.1401378767910196e-02  4.1445086874680064e-02  1.3337493739289732e-02  1.3377230048251742e-02  1.4125713055001843e-02  1.5438299530677104e-02  1.7103115729498051e-02  1.8949598711147250e-02  2.0870975426540098e-02  2.2812022447802255e-02  2.4749388598562259e-02  2.6677036874803241e-02  2.8597526241419390e-02  3.0516858795460323e-02  3.2440972841194911e-02  3.4371969426487785e-02  3.6303879657306089e-02  3.8215063231162423e-02  4.0048093081570361e-02  4.1708328044275031e-02  4.3038666939070734e-02  4.3831858905398750e-02  4.3897133862815421e-02  1.0133687475890992e-02  1.0184081895110360e-02  1.1334273602315066e-02  1.3215145462799692e-02  1.5430559012885491e-02  1.7730979540130257e-02  2.0006296313727998e-02  2.2223845510584771e-02  2.4384506865066543e-02  2.6502883198828465e-02  2.8598689484611983e-02  3.0693163777831871e-02  3.2807321026525248e-02  3.4959861282296209e-02  3.7165657216480227e-02  3.9419356713447574e-02  4.1686435557170637e-02  4.3901032424550832e-02  4.5784883202394683e-02  4.6996239515138642e-02  4.7114555837879810e-02  5.5269063919927914e-03  5.8546524684375692e-03  7.8072606115441381e-03  1.0687581029282189e-02  1.3699799151214420e-02  1.6549188686885114e-02  1.9204469413508611e-02  2.1694618949516634e-02  2.4062719224049661e-02  2.6351608235250741e-02  2.8601262479561625e-02  3.0849640289341496e-02  3.3134370566117656e-02  3.5494257522805370e-02  3.7971072409818479e-02  4.0592449860761999e-02  4.3423297775125567e-02  4.6365424638836999e-02  4.9050703058577817e-02  5.1326806589828376e-02  5.1612661625030636e-02  -5.7138368587163362e-05  -6.1754633959819458e-04  3.3749669183322953e-03  8.1710883124883667e-03  1.2157118579716205e-02  1.5569201322204762e-02  1.8568748682298276e-02  2.1286712241461097e-02  2.3819222945334707e-02  2.6238844012110497e-02  2.8604658494466386e-02  3.0969508808754837e-02  3.3385942629226395e-02  3.5912070327320252e-02  3.8618011598876643e-02  4.1589022144156239e-02  4.4993956834711135e-02  4.8633420537627974e-02  5.3272651312700973e-02  5.8076179874155844e-02  5.8104070347205342e-02  -1.5727970120701169e-02  -1.3637973740996496e-02  -8.1252321588179657e-05  6.4029474063082353e-03  1.1192647963931022e-02  1.4995867304810780e-02  1.8209089967500640e-02  2.1061172505948474e-02  2.3687056526460030e-02  2.6179479493202432e-02  2.8609601323993136e-02  3.1039394476062271e-02  3.3530736539087461e-02  3.6154435025022157e-02  3.9001986680330565e-02  4.2209091359488984e-02  4.5997502457086607e-02  5.0583854245300208e-02  5.8524595465816488e-02  6.3729645207189489e-02  7.2581728133511089e-02  -1.4801417949283904e-01  -8.2094992024675170e-03  -3.9778625558035974e-04  6.1446228324162520e-03  1.1159781574284319e-02  1.4965202931939443e-02  1.8191694807264427e-02  2.1051175429914533e-02  2.3682103078261796e-02  2.6178688905291254e-02  2.8612761196087817e-02  3.1046901683279910e-02  3.3543718299747338e-02  3.6175136646664406e-02  3.9035362468555941e-02  4.2264159147953874e-02  4.6076615442398557e-02  5.1008355584658979e-02  5.8167508573976054e-02  6.4481266302148843e-02  1.4574295698281348e-01  </DataArray> 
</PointData> 
</Piece>
</UnstructuredGrid>
</VTKFile>