<?xml version="1.0"?>
<VTKFile type="UnstructuredGrid"  version="0.1"  >
<UnstructuredGrid>
<Piece  NumberOfPoints="651" NumberOfCells="1200">
<Points>
<DataArray  type="Float64"  NumberOfComponents="3"  format="ascii">0 0 0  50000 0 0  100000 0 0  150000 0 0  200000 0 0  250000 0 0  300000 0 0  350000 0 0  400000 0 0  450000 0 0  500000 0 0  550000 0 0  600000 0 0  650000 0 0  700000 0 0  750000 0 0  800000 0 0  850000 0 0  900000 0 0  950000 0 0  1000000 0 0  0 50000 0  50000 50000 0  100000 50000 0  150000 50000 0  200000 50000 0  250000 50000 0  300000 50000 0  350000 50000 0  400000 50000 0  450000 50000 0  500000 50000 0  550000 50000 0  600000 50000 0  650000 50000 0  700000 50000 0  750000 50000 0  800000 50000 0  850000 50000 0  900000 50000 0  950000 50000 0  1000000 50000 0  0 100000 0  50000 100000 0  100000 100000 0  150000 100000 0  200000 100000 0  250000 100000 0  300000 100000 0  350000 100000 0  400000 100000 0  450000 100000 0  500000 100000 0  550000 100000 0  600000 100000 0  650000 100000 0  700000 100000 0  750000 100000 0  800000 100000 0  850000 100000 0  900000 100000 0  950000 100000 0  1000000 100000 0  0 150000 0  50000 150000 0  100000 150000 0  150000 150000 0  200000 150000 0  250000 150000 0  300000 150000 0  350000 150000 0  400000 150000 0  450000 150000 0  500000 150000 0  550000 150000 0  600000 150000 0  650000 150000 0  700000 150000 0  750000 150000 0  800000 150000 0  850000 150000 0  900000 150000 0  950000 150000 0  1000000 150000 0  0 200000 0  50000 200000 0  100000 200000 0  150000 200000 0  200000 200000 0  250000 200000 0  300000 200000 0  350000 200000 0  400000 200000 0  450000 200000 0  500000 200000 0  550000 200000 0  600000 200000 0  650000 200000 0  700000 200000 0  750000 200000 0  800000 200000 0  850000 200000 0  900000 200000 0  950000 200000 0  1000000 200000 0  0 250000 0  50000 250000 0  100000 250000 0  150000 250000 0  200000 250000 0  250000 250000 0  300000 250000 0  350000 250000 0  400000 250000 0  450000 250000 0  500000 250000 0  550000 250000 0  600000 250000 0  650000 250000 0  700000 250000 0  750000 250000 0  800000 250000 0  850000 250000 0  900000 250000 0  950000 250000 0  1000000 250000 0  0 300000 0  50000 300000 0  100000 300000 0  150000 300000 0  200000 300000 0  250000 300000 0  300000 300000 0  350000 300000 0  400000 300000 0  450000 300000 0  500000 300000 0  550000 300000 0  600000 300000 0  650000 300000 0  700000 300000 0  750000 300000 0  800000 300000 0  850000 300000 0  900000 300000 0  950000 300000 0  1000000 300000 0  0 350000 0  50000 350000 0  100000 350000 0  150000 350000 0  200000 350000 0  250000 350000 0  300000 350000 0  350000 350000 0  400000 350000 0  450000 350000 0  500000 350000 0  550000 350000 0  600000 350000 0  650000 350000 0  700000 350000 0  750000 350000 0  800000 350000 0  850000 350000 0  900000 350000 0  950000 350000 0  1000000 350000 0  0 400000 0  50000 400000 0  100000 400000 0  150000 400000 0  200000 400000 0  250000 400000 0  300000 400000 0  350000 400000 0  400000 400000 0  450000 400000 0  500000 400000 0  550000 400000 0  600000 400000 0  650000 400000 0  700000 400000 0  750000 400000 0  800000 400000 0  850000 400000 0  900000 400000 0  950000 400000 0  1000000 400000 0  0 450000 0  50000 450000 0  100000 450000 0  150000 450000 0  200000 450000 0  250000 450000 0  300000 450000 0  350000 450000 0  400000 450000 0  450000 450000 0  500000 450000 0  550000 450000 0  600000 450000 0  650000 450000 0  700000 450000 0  750000 450000 0  800000 450000 0  850000 450000 0  900000 450000 0  950000 450000 0  1000000 450000 0  0 500000 0  50000 500000 0  100000 500000 0  150000 500000 0  200000 500000 0  250000 500000 0  300000 500000 0  350000 500000 0  400000 500000 0  450000 500000 0  500000 500000 0  550000 500000 0  600000 500000 0  650000 500000 0  700000 500000 0  750000 500000 0  800000 500000 0  850000 500000 0  900000 500000 0  950000 500000 0  1000000 500000 0  0 550000 0  50000 550000 0  100000 550000 0  150000 550000 0  200000 550000 0  250000 550000 0  300000 550000 0  350000 550000 0  400000 550000 0  450000 550000 0  500000 550000 0  550000 550000 0  600000 550000 0  650000 550000 0  700000 550000 0  750000 550000 0  800000 550000 0  850000 550000 0  900000 550000 0  950000 550000 0  1000000 550000 0  0 600000 0  50000 600000 0  100000 600000 0  150000 600000 0  200000 600000 0  250000 600000 0  300000 600000 0  350000 600000 0  400000 600000 0  450000 600000 0  500000 600000 0  550000 600000 0  600000 600000 0  650000 600000 0  700000 600000 0  750000 600000 0  800000 600000 0  850000 600000 0  900000 600000 0  950000 600000 0  1000000 600000 0  0 650000 0  50000 650000 0  100000 650000 0  150000 650000 0  200000 650000 0  250000 650000 0  300000 650000 0  350000 650000 0  400000 650000 0  450000 650000 0  500000 650000 0  550000 650000 0  600000 650000 0  650000 650000 0  700000 650000 0  750000 650000 0  800000 650000 0  850000 650000 0  900000 650000 0  950000 650000 0  1000000 650000 0  0 700000 0  50000 700000 0  100000 700000 0  150000 700000 0  200000 700000 0  250000 700000 0  300000 700000 0  350000 700000 0  400000 700000 0  450000 700000 0  500000 700000 0  550000 700000 0  600000 700000 0  650000 700000 0  700000 700000 0  750000 700000 0  800000 700000 0  850000 700000 0  900000 700000 0  950000 700000 0  1000000 700000 0  0 750000 0  50000 750000 0  100000 750000 0  150000 750000 0  200000 750000 0  250000 750000 0  300000 750000 0  350000 750000 0  400000 750000 0  450000 750000 0  500000 750000 0  550000 750000 0  600000 750000 0  650000 750000 0  700000 750000 0  750000 750000 0  800000 750000 0  850000 750000 0  900000 750000 0  950000 750000 0  1000000 750000 0  0 800000 0  50000 800000 0  100000 800000 0  150000 800000 0  200000 800000 0  250000 800000 0  300000 800000 0  350000 800000 0  400000 800000 0  450000 800000 0  500000 800000 0  550000 800000 0  600000 800000 0  650000 800000 0  700000 800000 0  750000 800000 0  800000 800000 0  850000 800000 0  900000 800000 0  950000 800000 0  1000000 800000 0  0 850000 0  50000 850000 0  100000 850000 0  150000 850000 0  200000 850000 0  250000 850000 0  300000 850000 0  350000 850000 0  400000 850000 0  450000 850000 0  500000 850000 0  550000 850000 0  600000 850000 0  650000 850000 0  700000 850000 0  750000 850000 0  800000 850000 0  850000 850000 0  900000 850000 0  950000 850000 0  1000000 850000 0  0 900000 0  50000 900000 0  100000 900000 0  150000 900000 0  200000 900000 0  250000 900000 0  300000 900000 0  350000 900000 0  400000 900000 0  450000 900000 0  500000 900000 0  550000 900000 0  600000 900000 0  650000 900000 0  700000 900000 0  750000 900000 0  800000 900000 0  850000 900000 0  900000 900000 0  950000 900000 0  1000000 900000 0  0 950000 0  50000 950000 0  100000 950000 0  150000 950000 0  200000 950000 0  250000 950000 0  300000 950000 0  350000 950000 0  400000 950000 0  450000 950000 0  500000 950000 0  550000 950000 0  600000 950000 0  650000 950000 0  700000 950000 0  750000 950000 0  800000 950000 0  850000 950000 0  900000 950000 0  950000 950000 0  1000000 950000 0  0 1000000 0  50000 1000000 0  100000 1000000 0  150000 1000000 0  200000 1000000 0  250000 1000000 0  300000 1000000 0  350000 1000000 0  400000 1000000 0  450000 1000000 0  500000 1000000 0  550000 1000000 0  600000 1000000 0  650000 1000000 0  700000 1000000 0  750000 1000000 0  800000 1000000 0  850000 1000000 0  900000 1000000 0  950000 1000000 0  1000000 1000000 0  0 1050000 0  50000 1050000 0  100000 1050000 0  150000 1050000 0  200000 1050000 0  250000 1050000 0  300000 1050000 0  350000 1050000 0  400000 1050000 0  450000 1050000 0  500000 1050000 0  550000 1050000 0  600000 1050000 0  650000 1050000 0  700000 1050000 0  750000 1050000 0  800000 1050000 0  850000 1050000 0  900000 1050000 0  950000 1050000 0  1000000 1050000 0  0 1100000 0  50000 1100000 0  100000 1100000 0  150000 1100000 0  200000 1100000 0  250000 1100000 0  300000 1100000 0  350000 1100000 0  400000 1100000 0  450000 1100000 0  500000 1100000 0  550000 1100000 0  600000 1100000 0  650000 1100000 0  700000 1100000 0  750000 1100000 0  800000 1100000 0  850000 1100000 0  900000 1100000 0  950000 1100000 0  1000000 1100000 0  0 1150000 0  50000 1150000 0  100000 1150000 0  150000 1150000 0  200000 1150000 0  250000 1150000 0  300000 1150000 0  350000 1150000 0  400000 1150000 0  450000 1150000 0  500000 1150000 0  550000 1150000 0  600000 1150000 0  650000 1150000 0  700000 1150000 0  750000 1150000 0  800000 1150000 0  850000 1150000 0  900000 1150000 0  950000 1150000 0  1000000 1150000 0  0 1200000 0  50000 1200000 0  100000 1200000 0  150000 1200000 0  200000 1200000 0  250000 1200000 0  300000 1200000 0  350000 1200000 0  400000 1200000 0  450000 1200000 0  500000 1200000 0  550000 1200000 0  600000 1200000 0  650000 1200000 0  700000 1200000 0  750000 1200000 0  800000 1200000 0  850000 1200000 0  900000 1200000 0  950000 1200000 0  1000000 1200000 0  0 1250000 0  50000 1250000 0  100000 1250000 0  150000 1250000 0  200000 1250000 0  250000 1250000 0  300000 1250000 0  350000 1250000 0  400000 1250000 0  450000 1250000 0  500000 1250000 0  550000 1250000 0  600000 1250000 0  650000 1250000 0  700000 1250000 0  750000 1250000 0  800000 1250000 0  850000 1250000 0  900000 1250000 0  950000 1250000 0  1000000 1250000 0  0 1300000 0  50000 1300000 0  100000 1300000 0  150000 1300000 0  200000 1300000 0  250000 1300000 0  300000 1300000 0  350000 1300000 0  400000 1300000 0  450000 1300000 0  500000 1300000 0  550000 1300000 0  600000 1300000 0  650000 1300000 0  700000 1300000 0  750000 1300000 0  800000 1300000 0  850000 1300000 0  900000 1300000 0  950000 1300000 0  1000000 1300000 0  0 1350000 0  50000 1350000 0  100000 1350000 0  150000 1350000 0  200000 1350000 0  250000 1350000 0  300000 1350000 0  350000 1350000 0  400000 1350000 0  450000 1350000 0  500000 1350000 0  550000 1350000 0  600000 1350000 0  650000 1350000 0  700000 135
[...]
<PointData  Scalars="f_4507"> 
<DataArray  type="Float64"  Name="f_4507"  format="ascii">-2.5537027134393427e-02  1.3484565668918943e-02  1.8894987378660279e-02  2.3292841143914524e-02  2.6481933650994750e-02  2.8990142580675116e-02  3.1119735620574518e-02  3.3014211659080965e-02  3.4761400936207353e-02  3.6421623297459231e-02  3.8041283686562739e-02  3.9660886271618380e-02  4.1320922784962640e-02  4.3067752322232707e-02  4.4961571520106165e-02  4.7089979225516033e-02  4.9597790122070266e-02  5.2799597124544684e-02  5.7024364536015990e-02  6.3490158200780952e-02  1.2774001860759293e-01  1.0249307708316280e-02  1.5422983109803294e-02  1.9083635601042183e-02  2.3620769941512729e-02  2.6621750014381076e-02  2.9071262511503233e-02  3.1170437524594842e-02  3.3046211972625791e-02  3.4780778544033213e-02  3.6431500979988499e-02  3.8043090605570769e-02  3.9654864980955468e-02  4.1306201191106791e-02  4.3042021986744977e-02  4.4920171058690964e-02  4.7023927701720147e-02  4.9487083281334318e-02  5.2537137209508679e-02  5.6634984366292343e-02  6.4027069534354344e-02  6.5657806148526857e-02  1.8716823535737920e-02  1.9217516814359088e-02  2.2058861292473052e-02  2.4927277601989730e-02  2.7328180815199353e-02  2.9503993951463393e-02  3.1444646956170733e-02  3.3220440696295414e-02  3.4885291193914598e-02  3.6481935380920712e-02  3.8046336151288537e-02  3.9611320195340992e-02  4.1209890060898619e-02  4.2878643902255667e-02  4.4661832023575633e-02  4.6616442600735386e-02  4.8817208837503193e-02  5.1356178705754624e-02  5.4313814884047878e-02  5.6917808563425577e-02  5.7311795833832821e-02  2.2889566642720283e-02  2.3195009373889141e-02  2.4668768353697093e-02  2.6452238104597375e-02  2.8339903425594455e-02  3.0163989068210512e-02  3.1879174485898228e-02  3.3502656552831363e-02  3.5056096149162656e-02  3.6563526149550184e-02  3.8048609257253528e-02  3.9534472641441783e-02  4.1044435866439480e-02  4.2602826216580805e-02  4.4235181599044771e-02  4.5966244004745346e-02  4.7811191248398895e-02  4.9746220540728872e-02  5.1606514969214083e-02  5.2945492281278018e-02  5.3212862059418851e-02  2.5758099455685721e-02  2.5924583221482805e-02  2.6772173590455108e-02  2.8011983263247987e-02  2.9447505731832215e-02  3.0931485203123256e-02  3.2407748393729903e-02  3.3855568857671291e-02  3.5273005929881501e-02  3.6667483355266102e-02  3.8050198029697217e-02  3.9433732166989352e-02  4.0830810520458040e-02  4.2253073426743872e-02  4.3708744354563712e-02  4.5197343263338810e-02  4.6697848364844828e-02  4.8144190199929431e-02  4.9388331342067243e-02  5.0193446641408179e-02  5.0327856671154414e-02  2.7850248634094032e-02  2.7953793519983845e-02  2.8516137249139546e-02  2.9406984881881631e-02  3.0505299019827146e-02  3.1712173567438266e-02  3.2968174988554422e-02  3.4240204788160540e-02  3.5513475845982301e-02  3.6783488064814227e-02  3.8051086999687969e-02  3.9319403442468544e-02  4.0591632279669575e-02  4.1868784376663644e-02  4.3146499171714758e-02  4.4409784538874245e-02  4.5624454314627284e-02  4.6725577315498583e-02  4.7609489101070407e-02  4.8147737070582501e-02  4.8235664212288004e-02  2.9452807730851228e-02  2.9524980236601998e-02  2.9929027738723548e-02  3.0597268118855481e-02  3.1459631640840126e-02  3.2448949443151090e-02  3.3515265107588108e-02  3.4625076403135599e-02  3.5757963117070815e-02  3.6902204970580797e-02  3.8051221913143210e-02  3.9200785231107212e-02  4.0346665427902210e-02  4.1482243633669591e-02  4.2595595229927403e-02  4.3665653887532831e-02  4.4657559643336633e-02  4.5518832574115084e-02  4.6180396944692177e-02  4.6569558414428010e-02  4.6632339854700902e-02  3.0711755912279599e-02  3.0765596625449705e-02  3.1073076288029002e-02  3.1595281742604127e-02  3.2290013427333723e-02  3.3111475555663933e-02  3.4020869984162025e-02  3.4988234406207332e-02  3.5991904153148430e-02  3.7016526014163317e-02  3.8050826683700710e-02  3.9085494613766252e-02  4.0111182521869591e-02  4.1116483846247498e-02  4.2085734623289760e-02  4.2996662324720027e-02  4.3818340535845865e-02  4.4510724026161970e-02  4.5027541421045321e-02  4.5325262361605272e-02  4.5373049050569228e-02  3.1712132456975711e-02  3.1754329322192791e-02  3.1998823818250997e-02  3.2421257011906075e-02  3.2994783483992464e-02  3.3687544576642962e-02  3.4469826270100645e-02  3.5316082074280407e-02  3.6205530597484548e-02  3.7121471172581209e-02  3.8050052828935942e-02  3.8978851322003162e-02  3.9895397104019119e-02  4.0785690519268010e-02  4.1632745637816979e-02  4.2415329986585877e-02  4.3107312458861770e-02  4.3678361769455824e-02  4.4096591387352717e-02  4.4334378138604538e-02  4.4372488487926680e-02  3.2508197762480075e-02  3.2542578132945595e-02  3.2743990854049117e-02  3.3096026749301587e-02  3.3580618717349485e-02  3.4174821480275182e-02  3.4855587616367693e-02  3.5601392357890949e-02  3.6393116863133880e-02  3.7213997917719829e-02  3.8049049293142782e-02  3.8884208519323900e-02  3.9705372330729578e-02  4.0497428443569225e-02  4.1243396377769311e-02  4.1923856616873013e-02  4.2516949204677905e-02  4.2999324061316554e-02  4.3348124334177826e-02  4.3544779123043685e-02  4.3576304031294116e-02  3.3136542037928200e-02  3.3165482835354296e-02  3.3336545976088768e-02  3.3637938775807404e-02  3.4056782009023470e-02  3.4575824798828231e-02  3.5176712970766015e-02  3.5841167223024537e-02  3.6551831577946482e-02  3.7292499266623806e-02  3.8047926051533780e-02  3.8803391112761418e-02  3.9544142333925066e-02  4.0254842367959530e-02  4.0919134735392312e-02  4.1519474839288043e-02  4.2037396214439665e-02  4.2454396681573657e-02  4.2753330329248912e-02  4.2920969326555189e-02  4.2947878588711678e-02  3.3622681016073505e-02  3.3647772790413921e-02  3.3797227736065784e-02  3.4062059364938405e-02  3.4432525425838738e-02  3.4895025858703785e-02  3.5434433646519839e-02  3.6034923459643944e-02  3.6680699397196911e-02  3.7356323933601526e-02  3.8046755147850497e-02  3.8737186344096529e-02  3.9412789098902501e-02  4.0058458485882908e-02  4.0658660480680758e-02  4.1197485699572822e-02  4.1659006379904003e-02  4.2028023609364779e-02  4.2291028576044914e-02  4.2438032658479626e-02  4.2461682566940252e-02  3.3984636206170413e-02  3.4007021841106752e-02  3.4141291255943840e-02  3.4380211543646566e-02  3.4715948470402651e-02  3.5137228393052299e-02  3.5631086383154958e-02  3.6183457107049427e-02  3.6779784563044371e-02  3.7405379089924862e-02  3.8045577582722090e-02  3.8685759992146150e-02  3.9311292347372760e-02  3.9907471891110081e-02  4.0459550300463255e-02  4.0952906070246847e-02  4.1373419278477874e-02  4.1708090813981365e-02  4.1945716179228383e-02  4.2078291050469237e-02  4.2099685738217492e-02  3.4234977536537772e-02  3.4255537413297669e-02  3.4379666868519274e-02  3.4601229908441819e-02  3.4913519025588771e-02  3.5306690499536782e-02  3.5769153858149896e-02  3.6288017178799377e-02  3.6849609205232385e-02  3.7439837169644392e-02  3.8044411732640400e-02  3.8648968626394865e-02  3.9239135520322585e-02  3.9800600386964445e-02  4.0319237692926703e-02  4.0781340960338579e-02  4.1173990792674295e-02  4.1485581294710853e-02  4.1706314382089028e-02  4.1829375033499379e-02  4.1849312388222162e-02  3.4382018997013181e-02  3.4401479907595914e-02  3.4519708082862928e-02  3.4731218787739555e-02  3.5029891660893021e-02  3.5406661904414612e-02  3.5850700309413133e-02  3.6349784324885781e-02  3.6890768361509022e-02  3.7459936972968462e-02  3.8043260980481823e-02  3.8626574215848530e-02  3.9195706853228575e-02  3.9736619495324955e-02  4.0235582152437659e-02  4.0679433975130942e-02  4.1055941051686175e-02  4.1354268335383006e-02  4.1565373596235085e-02  4.1683084299869930e-02  4.1702244501974968e-02  3.4430509879719233e-02  3.4449515084151353e-02  3.4565651775637342e-02  3.4773748288843255e-02  3.5067850924827143e-02  3.5439149039027076e-02  3.5877055682309845e-02  3.6369562705384627e-02  3.6903694467210618e-02  3.7465860084085277e-02  3.8042119821599600e-02  3.8618379559113888e-02  3.9180545175988589e-02  3.9714676937814594e-02  4.0207183960889334e-02  4.0645090604172145e-02  4.1016388718372085e-02  4.1310491354356001e-02  4.1518587867561907e-02  4.1634724559047875e-02  4.1653729763479995e-02  3.4381995141224329e-02  3.4401155343329347e-02  3.4518866046964219e-02  3.4729971307816264e-02  3.5028298591513095e-02  3.5404805668068286e-02  3.5848657490761590e-02  3.6347620147874300e-02  3.6888532789970625e-02  3.7457665427350670e-02  3.8040978662717384e-02  3.8624302670230752e-02  3.9193471281690179e-02  3.9734455318313405e-02  4.0233539333786032e-02  4.0677577738784582e-02  4.1054347982306207e-02  4.1353020855459659e-02  4.1564531560336307e-02  4.1682759735603273e-02  4.1702220646186054e-02  3.4234927254977107e-02  3.4254864609699939e-02  3.4377925261110304e-02  3.4598658348488472e-02  3.4910248850524989e-02  3.5302898682860698e-02  3.5765001950272580e-02  3.6283639256234818e-02  3.6845104122876650e-02  3.7435271016804376e-02  3.8039827910558821e-02  3.8644402473554808e-02  3.9234630437966794e-02  3.9796222464399796e-02  4.0315085785049297e-02  4.0777549143662425e-02  4.1170720617610450e-02  4.1483009734757381e-02  4.1704572774679954e-02  4.1828702229901558e-02  4.1849262106661442e-02  3.3984553904981937e-02  3.4005948592730158e-02  3.4138523463971039e-02  3.4376148829218023e-02  3.4710820364721513e-02  3.5131333572952506e-02  3.5624689342736091e-02  3.6176767752089230e-02  3.6772947295826544e-02  3.7398479651053113e-02  3.8038662060477166e-02  3.8678860553274366e-02  3.9304455080154843e-02  3.9900782536149752e-02  4.0453153260044263e-02  4.0947011250146888e-02  4.1368291172796549e-02  4.1704028099552683e-02  4.1942948387255381e-02  4.2077217802092469e-02  4.2099603437028808e-02  3.3622557076259239e-02  3.3646206984719859e-02  3.3793211067154598e-02  3.4056216033834685e-02  3.4425233263295447e-02  3.4886753943626586e-02  3.5425579162518664e-02  3.6025781157316451e-02  3.6671450544296838e-02  3.7347053299102789e-02  3.8037484495348800e-02  3.8727915709597736e-02  3.9403540246002323e-02  4.0049316183555242e-02  4.0649805996679340e-02  4.1189213784495408e-02  4.1651714217360518e-02  4.2022180278260837e-02  4.2287011907133451e-02  4.2436466852785314e-02  4.2461558627125709e-02  3.3136361054487959e-02  3.3163270316644435e-02  3.3330909313950711e-02  3.3629842961625904e-02  3.4046843428759896e-02  3.4564764803911463e-02  3.5165104907807172e-02  3.5829397275239899e-02  3.6540097309274343e-02  3.7280848530437928e-02  3.8036313591665538e-02  3.8791740376575491e-02  3.9532408065252794e-02  4.0243072420174726e-02  4.0907526672433268e-02  4.1508414844371046e-02  4.2027457634175820e-02  4.2446300867391859e-02  4.2747693667110481e-02  4.2918756807844960e-02  4.2947697605271076e-02  3.2507935611905694e-02  3.2539460520156091e-02  3.2736115309021929e-02  3.3084915581883180e-02  3.3567290438521760e-02  3.4160383026326589e-02  3.4840843265430251e-02  3.5586811199630281e-02  3.6378867312469906e-02  3.7200031123875550e-02  3.8035190350056605e-02  3.8870241725479544e-02  3.9691122780065459e-02  4.0482847285308383e-02  4.1228652026831625e-02  4.1909418162924116e-02  4.2503620925849819e-02  4.2988212893897725e-02  4.3340248789150194e-02  4.3541661510253717e-02  4.3576041880719223e-02  3.1711751155273249e-02  3.1749861504595377e-02  3.1987648255847198e-02  3.2405877873744014e-02  3.2976927184338006e-02  3.3668909656613871e-02  3.4451494005382680e-02  3.5298549123931634e-02  3.6188842539180470e-02  3.7105388321196357e-02  3.8034186814263536e-02  3.8962768470618254e-02  3.9878709045714902e-02  4.0768157568918995e-02  4.1614413373098735e-02  4.2396695066556404e-02  4.3089456159206896e-02  4.3662982631293291e-02  4.4085415824948342e-02  4.4329910321006555e-02  4.4372107186223649e-02  3.0711190592630874e-02  3.0758977281594841e-02  3.1056698222154736e-02  3.1573515617037994e-02  3.2265899107354029e-02  3.3087577318479826e-02  3.3998505019909996e-02  3.4967755796952202e-02  3.5973057121330039e-02  3.6998745029433358e-02  3.8033412959498851e-02  3.9067713629036209e-02  4.0092335490051083e-02  4.1096005236992153e-02  4.2063369659037411e-02  4.2972764087535475e-02  4.3794226215865692e-02  4.4488957900595302e-02  4.5011163355170428e-02  4.5318643017749738e-02  4.5372483730919851e-02  2.9451899788499408e-02  2.9514681228772273e-02  2.9903842698508053e-02  3.0565407069085063e-02  3.1426679999863406e-02  3.2418585755667147e-02  3.3488644413272484e-02  3.4601996009530227e-02  3.5737574215297559e-02  3.6883454412092488e-02  3.8033017730056441e-02  3.9182034672618819e-02  4.0326276526128753e-02  4.1459163240063913e-02  4.2568974535611405e-02  4.3635290200048395e-02  4.4624608002359366e-02  4.5486971524344014e-02  4.6155211904475989e-02  4.6559259406597546e-02  4.6631431912348330e-02  2.7848575430912584e-02  2.7936502572618049e-02  2.8474750542130060e-02  2.9358662327701776e-02  3.0459785328572936e-02  3.1674455104325858e-02  3.2937740471485219e-02  3.4215455266536320e-02  3.5492607363530292e-02  3.6764836200731260e-02  3.8033152643511793e-02  3.9300751578385473e-02  4.0570763797217392e-02  4.1844034855039063e-02  4.3116064654645125e-02  4.4372066075761288e-02  4.5578940623372401e-02  4.6677254761317948e-02  4.7568102394060084e-02  4.8130446123215820e-02  4.8233991009105630e-02  2.5756382972046438e-02  2.5890793001792645e-02  2.6695908301133442e-02  2.7940049443271057e-02  2.9386391278355534e-02  3.0886896379861372e-02  3.2375495288636424e-02  3.3831166216456196e-02  3.5253429122741931e-02  3.6650507476210556e-02  3.8034041613502642e-02  3.9416756287933709e-02  4.0811233713318261e-02  4.2228670785528374e-02  4.3676491249469741e-02  4.5152754440076395e-02  4.6636733911367363e-02  4.8072256379951675e-02  4.9312066052744623e-02  5.0159656421717040e-02  5.0326140187514169e-02  2.2871377583782378e-02  2.3138747361923177e-02  2.4477724673986827e-02  2.6338019102471747e-02  2.8273048394801523e-02  3.0117995638454964e-02  3.1849058044155443e-02  3.3481413426619359e-02  3.5039803776760602e-02  3.6549767001758250e-02  3.8035630385946428e-02  3.9520713493649745e-02  4.1028143494037189e-02  4.2581583090368393e-02  4.4205065157301521e-02  4.5920250574989122e-02  4.7744336217605175e-02  4.9632001538602262e-02  5.1415471289502655e-02  5.2889230269310937e-02  5.3194673000479899e-02  1.8772443809369158e-02  1.9166431079776201e-02  2.1770424759153088e-02  2.4728060937445982e-02  2.7267030805697232e-02  2.9467797042464956e-02  3.1422407619624677e-02  3.3205595740944616e-02  3.4874349582301588e-02  3.6472919447859159e-02  3.8037903491911579e-02  3.9602304262279321e-02  4.1198948449285379e-02  4.2863798946904459e-02  4.4639592687029057e-02  4.6580245691736286e-02  4.8756058828000222e-02  5.1156962041209800e-02  5.4025378350726946e-02  5.6866722828841650e-02  5.7367416107462557e-02  1.0426433494681682e-02  1.2057170108846148e-02  1.9449255276907766e-02  2.3547102433691597e-02  2.6597156361866083e-02  2.9060311941480302e-02  3.1164068584509496e-02  3.3042217656455465e-02  3.4778038452093617e-02  3.6429374662244905e-02  3.8041149037629528e-02  3.9652738663211742e-02  4.1303461099166931e-02  4.3038027670574248e-02  4.4913802118605080e-02  4.7012977131696505e-02  4.9462489628818419e-02  5.2463469701686472e-02  5.7000604042156448e-02  6.0661256533394450e-02  6.5834931934886098e-02  -5.1655778964373587e-02  1.2594081442417882e-02  1.9059875107183138e-02  2.3284642518655557e-02  2.6486449521130231e-02  2.8994260417684530e-02  3.1122668123094475e-02  3.3016487320967854e-02  3.4763316858237976e-02  3.6423353371582166e-02  3.8042955956637765e-02  3.9662616345741170e-02  4.1322838706992986e-02  4.3070027984119255e-02  4.4964504022625564e-02  4.7094097062524765e-02  4.9602305992204845e-02  5.2791398499284617e-02  5.7189252264537797e-02  6.2599673974278333e-02  1.0162126677760872e-01  </DataArray> 
</PointData> 
</Piece>
</UnstructuredGrid>
</VTKFile>