<?xml version="1.0"?>
<VTKFile type="UnstructuredGrid"  version="0.1"  >
<UnstructuredGrid>
<Piece  NumberOfPoints="651" NumberOfCells="1200">
<Points>
<DataArray  type="Float64"  NumberOfComponents="3"  format="ascii">0 0 0  50000 0 0  100000 0 0  150000 0 0  200000 0 0  250000 0 0  300000 0 0  350000 0 0  400000 0 0  450000 0 0  500000 0 0  550000 0 0  600000 0 0  650000 0 0  700000 0 0  750000 0 0  800000 0 0  850000 0 0  900000 0 0  950000 0 0  1000000 0 0  0 50000 0  50000 50000 0  100000 50000 0  150000 50000 0  200000 50000 0  250000 50000 0  300000 50000 0  350000 50000 0  400000 50000 0  450000 50000 0  500000 50000 0  550000 50000 0  600000 50000 0  650000 50000 0  700000 50000 0  750000 50000 0  800000 50000 0  850000 50000 0  900000 50000 0  950000 50000 0  1000000 50000 0  0 100000 0  50000 100000 0  100000 100000 0  150000 100000 0  200000 100000 0  250000 100000 0  300000 100000 0  350000 100000 0  400000 100000 0  450000 100000 0  500000 100000 0  550000 100000 0  600000 100000 0  650000 100000 0  700000 100000 0  750000 100000 0  800000 100000 0  850000 100000 0  900000 100000 0  950000 100000 0  1000000 100000 0  0 150000 0  50000 150000 0  100000 150000 0  150000 150000 0  200000 150000 0  250000 150000 0  300000 150000 0  350000 150000 0  400000 150000 0  450000 150000 0  500000 150000 0  550000 150000 0  600000 150000 0  650000 150000 0  700000 150000 0  750000 150000 0  800000 150000 0  850000 150000 0  900000 150000 0  950000 150000 0  1000000 150000 0  0 200000 0  50000 200000 0  100000 200000 0  150000 200000 0  200000 200000 0  250000 200000 0  300000 200000 0  350000 200000 0  400000 200000 0  450000 200000 0  500000 200000 0  550000 200000 0  600000 200000 0  650000 200000 0  700000 200000 0  750000 200000 0  800000 200000 0  850000 200000 0  900000 200000 0  950000 200000 0  1000000 200000 0  0 250000 0  50000 250000 0  100000 250000 0  150000 250000 0  200000 250000 0  250000 250000 0  300000 250000 0  350000 250000 0  400000 250000 0  450000 250000 0  500000 250000 0  550000 250000 0  600000 250000 0  650000 250000 0  700000 250000 0  750000 250000 0  800000 250000 0  850000 250000 0  900000 250000 0  950000 250000 0  1000000 250000 0  0 300000 0  50000 300000 0  100000 300000 0  150000 300000 0  200000 300000 0  250000 300000 0  300000 300000 0  350000 300000 0  400000 300000 0  450000 300000 0  500000 300000 0  550000 300000 0  600000 300000 0  650000 300000 0  700000 300000 0  750000 300000 0  800000 300000 0  850000 300000 0  900000 300000 0  950000 300000 0  1000000 300000 0  0 350000 0  50000 350000 0  100000 350000 0  150000 350000 0  200000 350000 0  250000 350000 0  300000 350000 0  350000 350000 0  400000 350000 0  450000 350000 0  500000 350000 0  550000 350000 0  600000 350000 0  650000 350000 0  700000 350000 0  750000 350000 0  800000 350000 0  850000 350000 0  900000 350000 0  950000 350000 0  1000000 350000 0  0 400000 0  50000 400000 0  100000 400000 0  150000 400000 0  200000 400000 0  250000 400000 0  300000 400000 0  350000 400000 0  400000 400000 0  450000 400000 0  500000 400000 0  550000 400000 0  600000 400000 0  650000 400000 0  700000 400000 0  750000 400000 0  800000 400000 0  850000 400000 0  900000 400000 0  950000 400000 0  1000000 400000 0  0 450000 0  50000 450000 0  100000 450000 0  150000 450000 0  200000 450000 0  250000 450000 0  300000 450000 0  350000 450000 0  400000 450000 0  450000 450000 0  500000 450000 0  550000 450000 0  600000 450000 0  650000 450000 0  700000 450000 0  750000 450000 0  800000 450000 0  850000 450000 0  900000 450000 0  950000 450000 0  1000000 450000 0  0 500000 0  50000 500000 0  100000 500000 0  150000 500000 0  200000 500000 0  250000 500000 0  300000 500000 0  350000 500000 0  400000 500000 0  450000 500000 0  500000 500000 0  550000 500000 0  600000 500000 0  650000 500000 0  700000 500000 0  750000 500000 0  800000 500000 0  850000 500000 0  900000 500000 0  950000 500000 0  1000000 500000 0  0 550000 0  50000 550000 0  100000 550000 0  150000 550000 0  200000 550000 0  250000 550000 0  300000 550000 0  350000 550000 0  400000 550000 0  450000 550000 0  500000 550000 0  550000 550000 0  600000 550000 0  650000 550000 0  700000 550000 0  750000 550000 0  800000 550000 0  850000 550000 0  900000 550000 0  950000 550000 0  1000000 550000 0  0 600000 0  50000 600000 0  100000 600000 0  150000 600000 0  200000 600000 0  250000 600000 0  300000 600000 0  350000 600000 0  400000 600000 0  450000 600000 0  500000 600000 0  550000 600000 0  600000 600000 0  650000 600000 0  700000 600000 0  750000 600000 0  800000 600000 0  850000 600000 0  900000 600000 0  950000 600000 0  1000000 600000 0  0 650000 0  50000 650000 0  100000 650000 0  150000 650000 0  200000 650000 0  250000 650000 0  300000 650000 0  350000 650000 0  400000 650000 0  450000 650000 0  500000 650000 0  550000 650000 0  600000 650000 0  650000 650000 0  700000 650000 0  750000 650000 0  800000 650000 0  850000 650000 0  900000 650000 0  950000 650000 0  1000000 650000 0  0 700000 0  50000 700000 0  100000 700000 0  150000 700000 0  200000 700000 0  250000 700000 0  300000 700000 0  350000 700000 0  400000 700000 0  450000 700000 0  500000 700000 0  550000 700000 0  600000 700000 0  650000 700000 0  700000 700000 0  750000 700000 0  800000 700000 0  850000 700000 0  900000 700000 0  950000 700000 0  1000000 700000 0  0 750000 0  50000 750000 0  100000 750000 0  150000 750000 0  200000 750000 0  250000 750000 0  300000 750000 0  350000 750000 0  400000 750000 0  450000 750000 0  500000 750000 0  550000 750000 0  600000 750000 0  650000 750000 0  700000 750000 0  750000 750000 0  800000 750000 0  850000 750000 0  900000 750000 0  950000 750000 0  1000000 750000 0  0 800000 0  50000 800000 0  100000 800000 0  150000 800000 0  200000 800000 0  250000 800000 0  300000 800000 0  350000 800000 0  400000 800000 0  450000 800000 0  500000 800000 0  550000 800000 0  600000 800000 0  650000 800000 0  700000 800000 0  750000 800000 0  800000 800000 0  850000 800000 0  900000 800000 0  950000 800000 0  1000000 800000 0  0 850000 0  50000 850000 0  100000 850000 0  150000 850000 0  200000 850000 0  250000 850000 0  300000 850000 0  350000 850000 0  400000 850000 0  450000 850000 0  500000 850000 0  550000 850000 0  600000 850000 0  650000 850000 0  700000 850000 0  750000 850000 0  800000 850000 0  850000 850000 0  900000 850000 0  950000 850000 0  1000000 850000 0  0 900000 0  50000 900000 0  100000 900000 0  150000 900000 0  200000 900000 0  250000 900000 0  300000 900000 0  350000 900000 0  400000 900000 0  450000 900000 0  500000 900000 0  550000 900000 0  600000 900000 0  650000 900000 0  700000 900000 0  750000 900000 0  800000 900000 0  850000 900000 0  900000 900000 0  950000 900000 0  1000000 900000 0  0 950000 0  50000 950000 0  100000 950000 0  150000 950000 0  200000 950000 0  250000 950000 0  300000 950000 0  350000 950000 0  400000 950000 0  450000 950000 0  500000 950000 0  550000 950000 0  600000 950000 0  650000 950000 0  700000 950000 0  750000 950000 0  800000 950000 0  850000 950000 0  900000 950000 0  950000 950000 0  1000000 950000 0  0 1000000 0  50000 1000000 0  100000 1000000 0  150000 1000000 0  200000 1000000 0  250000 1000000 0  300000 1000000 0  350000 1000000 0  400000 1000000 0  450000 1000000 0  500000 1000000 0  550000 1000000 0  600000 1000000 0  650000 1000000 0  700000 1000000 0  750000 1000000 0  800000 1000000 0  850000 1000000 0  900000 1000000 0  950000 1000000 0  1000000 1000000 0  0 1050000 0  50000 1050000 0  100000 1050000 0  150000 1050000 0  200000 1050000 0  250000 1050000 0  300000 1050000 0  350000 1050000 0  400000 1050000 0  450000 1050000 0  500000 1050000 0  550000 1050000 0  600000 1050000 0  650000 1050000 0  700000 1050000 0  750000 1050000 0  800000 1050000 0  850000 1050000 0  900000 1050000 0  950000 1050000 0  1000000 1050000 0  0 1100000 0  50000 1100000 0  100000 1100000 0  150000 1100000 0  200000 1100000 0  250000 1100000 0  300000 1100000 0  350000 1100000 0  400000 1100000 0  450000 1100000 0  500000 1100000 0  550000 1100000 0  600000 1100000 0  650000 1100000 0  700000 1100000 0  750000 1100000 0  800000 1100000 0  850000 1100000 0  900000 1100000 0  950000 1100000 0  1000000 1100000 0  0 1150000 0  50000 1150000 0  100000 1150000 0  150000 1150000 0  200000 1150000 0  250000 1150000 0  300000 1150000 0  350000 1150000 0  400000 1150000 0  450000 1150000 0  500000 1150000 0  550000 1150000 0  600000 1150000 0  650000 1150000 0  700000 1150000 0  750000 1150000 0  800000 1150000 0  850000 1150000 0  900000 1150000 0  950000 1150000 0  1000000 1150000 0  0 1200000 0  50000 1200000 0  100000 1200000 0  150000 1200000 0  200000 1200000 0  250000 1200000 0  300000 1200000 0  350000 1200000 0  400000 1200000 0  450000 1200000 0  500000 1200000 0  550000 1200000 0  600000 1200000 0  650000 1200000 0  700000 1200000 0  750000 1200000 0  800000 1200000 0  850000 1200000 0  900000 1200000 0  950000 1200000 0  1000000 1200000 0  0 1250000 0  50000 1250000 0  100000 1250000 0  150000 1250000 0  200000 1250000 0  250000 1250000 0  300000 1250000 0  350000 1250000 0  400000 1250000 0  450000 1250000 0  500000 1250000 0  550000 1250000 0  600000 1250000 0  650000 1250000 0  700000 1250000 0  750000 1250000 0  800000 1250000 0  850000 1250000 0  900000 1250000 0  950000 1250000 0  1000000 1250000 0  0 1300000 0  50000 1300000 0  100000 1300000 0  150000 1300000 0  200000 1300000 0  250000 1300000 0  300000 1300000 0  350000 1300000 0  400000 1300000 0  450000 1300000 0  500000 1300000 0  550000 1300000 0  600000 1300000 0  650000 1300000 0  700000 1300000 0  750000 1300000 0  800000 1300000 0  850000 1300000 0  900000 1300000 0  950000 1300000 0  1000000 1300000 0  0 1350000 0  50000 1350000 0  100000 1350000 0  150000 1350000 0  200000 1350000 0  250000 1350000 0  300000 1350000 0  350000 1350000 0  400000 1350000 0  450000 1350000 0  500000 1350000 0  550000 1350000 0  600000 1350000 0  650000 1350000 0  700000 135
[...]
<PointData  Scalars="f_4507"> 
<DataArray  type="Float64"  Name="f_4507"  format="ascii">-6.6466705515186020e-02  -1.6512335097879332e-03  4.4394990365602405e-03  1.0603302613656254e-02  1.4923388815351015e-02  1.8281167051261725e-02  2.1127373094710491e-02  2.3652379663899138e-02  2.5977280267846334e-02  2.8184349463851364e-02  3.0336531110749555e-02  3.2488660995448997e-02  3.4695556389821421e-02  3.7020104080750356e-02  3.9544531312289279e-02  4.2389074375173835e-02  4.5743452239270573e-02  5.0116499357490400e-02  5.5859967850004619e-02  6.3283437401895237e-02  1.7365360235408539e-01  -7.7809750417366444e-03  -3.3140073521983996e-04  4.3313628672142467e-03  1.1007187805752909e-02  1.5035732103054542e-02  1.8351306887108929e-02  2.1170716771893493e-02  2.3679513647234588e-02  2.5993994578854294e-02  2.8193439514631470e-02  3.0339322131373678e-02  3.2485494580887793e-02  3.4685895325948964e-02  3.7002326896452886e-02  3.9514976767668075e-02  4.2340144927511383e-02  4.5671628442054336e-02  4.9842881151823969e-02  5.5467377374885038e-02  6.6675841744627831e-02  6.8538777645984594e-02  4.4008217469440735e-03  4.6563856662116482e-03  8.7397708699575288e-03  1.2737963982541539e-02  1.5941947383756008e-02  1.8909583229985066e-02  2.1519438291387576e-02  2.3900042021104986e-02  2.6125926500964958e-02  2.8257095312109549e-02  3.0343644571464788e-02  3.2431033277437550e-02  3.4564969132665185e-02  3.6796410195766745e-02  3.9187603462446936e-02  4.1820228836527563e-02  4.4803979727291131e-02  4.8273357281256361e-02  5.2401180474193940e-02  5.5894255614993518e-02  5.5780888512859630e-02  1.0071242225360894e-02  1.0383836314739133e-02  1.2378395602333711e-02  1.4747758126936192e-02  1.7314777812894987e-02  1.9789545467054862e-02  2.2093429557786884e-02  2.4271411942986154e-02  2.6349939142382480e-02  2.8363878877167761e-02  3.0346562452694712e-02  3.2330351776429865e-02  3.4347887652688446e-02  3.6433432453269146e-02  3.8623435229492104e-02  4.0954054909900985e-02  4.3448791410367199e-02  4.6078444289656628e-02  4.8596135531940886e-02  5.0341407474134597e-02  5.0650965212790014e-02  1.3991035855810775e-02  1.4138205356826927e-02  1.5229339738501895e-02  1.6888034567510327e-02  1.8828159869696555e-02  2.0820880108132610e-02  2.2802119833384732e-02  2.4742770817159747e-02  2.6638870163838382e-02  2.8502214550819263e-02  3.0348812789469833e-02  3.2196561284300769e-02  3.4063564193195971e-02  3.5966539534058324e-02  3.7917663026857375e-02  3.9917157500137870e-02  4.1936399333089354e-02  4.3881345260468475e-02  4.5540081782238770e-02  4.6575425906552947e-02  4.6670117401993970e-02  1.6813263147209198e-02  1.6899722724521414e-02  1.7617715978083610e-02  1.8796561955865990e-02  2.0261396111470081e-02  2.1875722681025771e-02  2.3557837436501458e-02  2.5259485372021120e-02  2.6961190873120513e-02  2.8657433748354014e-02  3.0349833034105263e-02  3.2043228321153937e-02  3.3742541578024574e-02  3.5449694475090020e-02  3.7159165976581622e-02  3.8850540035348206e-02  4.0476171105914567e-02  4.1944576519194955e-02  4.3109670335025503e-02  4.3790551634738335e-02  4.3854744806731009e-02  1.8967813864898150e-02  1.9026919982749968e-02  1.9536939856842659e-02  2.0412218932023465e-02  2.1555638807877763e-02  2.2873887632217562e-02  2.4296880920747072e-02  2.5778229397793020e-02  2.7290238199254344e-02  2.8817015396535105e-02  3.0349912892716362e-02  3.1883559201306845e-02  3.3412570369656752e-02  3.4928236278399187e-02  3.6414432806866695e-02  3.7842195557570249e-02  3.9163108908542361e-02  4.0303958480016937e-02  4.1168739874502834e-02  4.1656890778654157e-02  4.1702518469205800e-02  2.0656035410426564e-02  2.0699133631664150e-02  2.1084382307561076e-02  2.1764181119340118e-02  2.2680592333180035e-02  2.3770397243196177e-02  2.4980066668535288e-02  2.6268375165610293e-02  2.7605637608976472e-02  2.8970977694484326e-02  3.0349243045689495e-02  3.1728000637352385e-02  3.3094761801234850e-02  3.4434161697659393e-02  3.5724881840310529e-02  3.6936351473379869e-02  3.8025893822326400e-02  3.8938185010139938e-02  3.9609716187091380e-02  3.9980933149959902e-02  4.0015456420564532e-02  2.1994891181546732e-02  2.2028116285426825e-02  2.2332848645895565e-02  2.2880105132195062e-02  2.3633330329234939e-02  2.4549047462243373e-02  2.5586611088298503e-02  2.6711004369243393e-02  2.7893847101164271e-02  2.9112443524906814e-02  3.0348065766898594e-02  3.1583967507794415e-02  3.2803336111060101e-02  3.3987223192787595e-02  3.5112514851862398e-02  3.6150184127929953e-02  3.7064414662941615e-02  3.7813672402562677e-02  3.8354638502632731e-02  3.8649816481243361e-02  3.8677299747587733e-02  2.3058754703148873e-02  2.3085468410060032e-02  2.3335477974361855e-02  2.3789782792409047e-02  2.4423945620620845e-02  2.5206930961014576e-02  2.6107427708194832e-02  2.7096099758112432e-02  2.8146940656655142e-02  2.9237199449078266e-02  3.0346590625664700e-02  3.1456110144012228e-02  3.2546695054389355e-02  3.3597878319868553e-02  3.4586598611357544e-02  3.5486422645897048e-02  3.6267574186682999e-02  3.6898321159011593e-02  3.7347872346879321e-02  3.7591156980939532e-02  3.7613875041635207e-02  2.3897516659057528e-02  2.3919745481404863e-02  2.4131377958288906e-02  2.4519114615211109e-02  2.5065615173019435e-02  2.5747712589035916e-02  2.6540624112055520e-02  2.7419567144051058e-02  2.8361018476582796e-02  2.9343026814714051e-02  3.0344969391083991e-02  3.1346946306540870e-02  3.2329013186525833e-02  3.3270415546758365e-02  3.4148993089885664e-02  3.4940960672202863e-02  3.5621298638969900e-02  3.6165021926374594e-02  3.6549190038410846e-02  3.6756011056312883e-02  3.6775405985144206e-02  2.4545867952042728e-02  2.4564939104703424e-02  2.4749331364361082e-02  2.5089160463141646e-02  2.5571348966950166e-02  2.6177738772797041e-02  2.6888007971528696e-02  2.7680794563706760e-02  2.8534758547082800e-02  2.9429035378391869e-02  3.0343300133184307e-02  3.1257549755963933e-02  3.2151750835396821e-02  3.3005490859219992e-02  3.3797773236604982e-02  3.4507103947762005e-02  3.5111997027048703e-02  3.5592032759479857e-02  3.5929233664274439e-02  3.6110196598164675e-02  3.6127261012755776e-02  2.5028265914593562e-02  2.5045114347126168e-02  2.5210398957416415e-02  2.5516346419996543e-02  2.5952459993395492e-02  2.6503756730680096e-02  2.7152887588968635e-02  2.7880931925110049e-02  2.8668277061185965e-02  2.9495107586246693e-02  3.0341636367107301e-02  3.1188131705664115e-02  3.2014842769363797e-02  3.2801928230251361e-02  3.3529493923537546e-02  3.4177840182882842e-02  3.4727983823949232e-02  3.5162529158640148e-02  3.5466624455521199e-02  3.5629545018063834e-02  3.5645016440724042e-02  2.5361749111208882e-02  2.5377081828459665e-02  2.5529617282071770e-02  2.5812896195979713e-02  2.6217940777571679e-02  2.6731713120320709e-02  2.7338746592770025e-02  2.8021742846304896e-02  2.8762317905833844e-02  2.9541490507263575e-02  3.0339999804674035e-02  3.1138477350515198e-02  3.1917543771452714e-02  3.2657907672628557e-02  3.3340544548648578e-02  3.3947024552324331e-02  3.4460019681801048e-02  3.4864042059009642e-02  3.5146138465457305e-02  3.5297185755886411e-02  3.5311654289873588e-02  2.5557579349430162e-02  2.5571970043823885e-02  2.5717079238050070e-02  2.5987232992610375e-02  2.6374243220979785e-02  2.6866130764189200e-02  2.7448468834986233e-02  2.8104883088045193e-02  2.8817718335649389e-02  2.9568519654417955e-02  3.0338391355013962e-02  3.1108244561901290e-02  3.1858985492424385e-02  3.2571704843324709e-02  3.3227928734557960e-02  3.3809982386437794e-02  3.4301479804182251e-02  3.4687986062300724e-02  3.4957563417954120e-02  3.5101952908838767e-02  3.5115926393540345e-02  2.5622188771396662e-02  2.5636137133169347e-02  2.5778593144939837e-02  2.6044275714488908e-02  2.6425220358818925e-02  2.6909796425720070e-02  2.7483907538455747e-02  2.8131476280436017e-02  2.8835083361994484e-02  2.9576447878168554e-02  3.0336799741440507e-02  3.1097151604712416e-02  3.1838516120886534e-02  3.2542123202445011e-02  3.3189691944425261e-02  3.3763803057160993e-02  3.4248379124062159e-02  3.4629323768392214e-02  3.4895006337941285e-02  3.5037462349711758e-02  3.5051410711484446e-02  2.5557673089340861e-02  2.5571646574042393e-02  2.5716036064927068e-02  2.5985613420580415e-02  2.6372119678698899e-02  2.6863617096443283e-02  2.7445670748323124e-02  2.8101894639556368e-02  2.8814613990456608e-02  2.9565354920979711e-02  3.0335208127867053e-02  3.1105079828463059e-02  3.1855881147231611e-02  3.2568716394835780e-02  3.3225130647894743e-02  3.3807468718691794e-02  3.4299356261901275e-02  3.4686366490270681e-02  3.4956520244831021e-02  3.5101629439057161e-02  3.5116020133450949e-02  2.5361945193007596e-02  2.5376413726994836e-02  2.5527461017423925e-02  2.5809557423871570e-02  2.6213579801080116e-02  2.6726574930556812e-02  2.7333054934232544e-02  2.8015691810252527e-02  2.8756055711428332e-02  2.9535122132365851e-02  3.0333599678206976e-02  3.1132108975617412e-02  3.1911281577047125e-02  3.2651856636576070e-02  3.3334852890110969e-02  3.3941886362560313e-02  3.4455658705309374e-02  3.4860703286901315e-02  3.5143982200809318e-02  3.5296517654421426e-02  3.5311850371672199e-02  2.5028583042157340e-02  2.5044054464817507e-02  2.5206975027360148e-02  2.5511070324241145e-02  2.5945615658932060e-02  2.6495759299998384e-02  2.7144105559343649e-02  2.7871671252629765e-02  2.8658756713517308e-02  2.9485467777216931e-02  3.0331963115773745e-02  3.1178491896634332e-02  3.2005322421695036e-02  3.2792667557770903e-02  3.3520711893912369e-02  3.4169842752200898e-02  3.4721139489485534e-02  3.5157253062884537e-02  3.5463200525464630e-02  3.5628485135754888e-02  3.5645333568287509e-02  2.4546338470125675e-02  2.4563402884716767e-02  2.4744365818607016e-02  2.5081566723401543e-02  2.5561602455832659e-02  2.6166495535119280e-02  2.6875826246276293e-02  2.7668108623661175e-02  2.8521848647484301e-02  2.9416049726917151e-02  3.0330299349696745e-02  3.1244564104489156e-02  3.2138840935798191e-02  3.2992804919174189e-02  3.3785591511352249e-02  3.4495860710083932e-02  3.5102250515930897e-02  3.5584439019739400e-02  3.5924268118519974e-02  3.6108660378177643e-02  3.6127731530838321e-02  2.3898193497737398e-02  2.3917588426568718e-02  2.4124409444470748e-02  2.4508577556506903e-02  2.5052300843911593e-02  2.5732638810678533e-02  2.6524606392995680e-02  2.7403183936122878e-02  2.8344586296355365e-02  2.9326653176340239e-02  3.0328630091797076e-02  3.1330572668166981e-02  3.2312581006298198e-02  3.3254032338829932e-02  3.4132975370825498e-02  3.4925886893845133e-02  3.5607984309861639e-02  3.6154484867669957e-02  3.6542221524592168e-02  3.6753854001476224e-02  3.6776082823823587e-02  2.3059724441246612e-02  2.3082442501942236e-02  2.3325727136002405e-02  2.3775278323870108e-02  2.4406025296198612e-02  2.5187176836984442e-02  2.6087000871523863e-02  2.7075721163012725e-02  2.8126904428491889e-02  2.9217489338868970e-02  3.0327008857216405e-02  3.1436400033802818e-02  3.2526658826225893e-02  3.3577499724768603e-02  3.4566171774686225e-02  3.5466668521866480e-02  3.6249653862260228e-02  3.6883816690472047e-02  3.7338121508519277e-02  3.7588131072821107e-02  3.7614844779732259e-02  2.1996299735294222e-02  2.2023783001638569e-02  2.2318960980249207e-02  2.2859927080319149e-02  2.3609184819940097e-02  2.4523415354951679e-02  2.5561084631019075e-02  2.6686376290093808e-02  2.7870263371821226e-02  2.9089631975086801e-02  3.0325533715982542e-02  3.1561155957974291e-02  3.2779752381716827e-02  3.3962595113637660e-02  3.5086988394582568e-02  3.6124552020637711e-02  3.7040269153646159e-02  3.7793494350686081e-02  3.8340750836985578e-02  3.8645483197454353e-02  3.8678708301334470e-02  2.0658143062317634e-02  2.0692666332922292e-02  2.1063883295790727e-02  2.1735414472742014e-02  2.2647705660555434e-02  2.3737248009501839e-02  2.4948717642571023e-02  2.6239437785222048e-02  2.7578837681646470e-02  2.8945598845528876e-02  3.0324356437191682e-02  3.1702621788396806e-02  3.3067961873904643e-02  3.4405224317270791e-02  3.5693532814345785e-02  3.6903202239684893e-02  3.7993007149701101e-02  3.8909418363541080e-02  3.9589217175320178e-02  3.9974465851217153e-02  4.0017564072454742e-02  1.8971081013676654e-02  1.9016708704228266e-02  1.9504859608379485e-02  2.0369641002865216e-02  2.1510490574339590e-02  2.2831403925311567e-02  2.4259166676014944e-02  2.5745363204482310e-02  2.7261029113224654e-02  2.8790040281574447e-02  3.0323686590164850e-02  3.1856584086346049e-02  3.3383361283626761e-02  3.4895370085088036e-02  3.6376718562134022e-02  3.7799711850663532e-02  3.9117960675003415e-02  4.0261380550857789e-02  4.1136659626038720e-02  4.1646679500131477e-02  4.1705785617983319e-02  1.6818854676151827e-02  1.6883047848144442e-02  1.7563929147857128e-02  1.8729022963687416e-02  2.0197428376967530e-02  2.1823059447533641e-02  2.3514433506300017e-02  2.5223905007791547e-02  2.6931057904856868e-02  2.8630371161727380e-02  3.0323766448775984e-02  3.2016165734527140e-02  3.3712408609760637e-02  3.5414114110859950e-02  3.7115762046379570e-02  3.8797876801855313e-02  4.0412203371411083e-02  4.1877037527015326e-02  4.3055883504797894e-02  4.3773876758360218e-02  4.3860336335672427e-02  1.4003482080889263e-02  1.4098173576330251e-02  1.5133517700644144e-02  1.6792254222414003e-02  1.8737200149792792e-02  2.0756441982743960e-02  2.2755936456024337e-02  2.4707059948823260e-02  2.6610035289685474e-02  2.8477038198580565e-02  3.0324786693411425e-02  3.2171384932061925e-02  3.4034729319042736e-02  3.5930828665721268e-02  3.7871479649496269e-02  3.9852719374748442e-02  4.1845439613184536e-02  4.3785564915371049e-02  4.5444259744379774e-02  4.6535394126054994e-02  4.6682563627071218e-02  1.0022634270093801e-02  1.0332192008749142e-02  1.2077463950942285e-02  1.4595155193225844e-02  1.7224808072514836e-02  1.9719544572980818e-02  2.2050164253389539e-02  2.4240167029612417e-02  2.6325711830193020e-02  2.8343247706451531e-02  3.0327037030186580e-02  3.2309720605713459e-02  3.4323660340498628e-02  3.6402187539894833e-02  3.8580169925094075e-02  4.0884054015825989e-02  4.3358821669985968e-02  4.5925841355944907e-02  4.8295203880547727e-02  5.0289763168143223e-02  5.0602357257521685e-02  4.8927109700244815e-03  4.7793438678913544e-03  8.2724190086890387e-03  1.2400242201625654e-02  1.5869619755590553e-02  1.8853370646354003e-02  2.1485996020434633e-02  2.3877189287114818e-02  2.6108630350216298e-02  2.8242566205443867e-02  3.0329954911416566e-02  3.2416504170771680e-02  3.4547672981916168e-02  3.6773557461775984e-02  3.9154161191493252e-02  4.1764016252895587e-02  4.4731652099124546e-02  4.7935635500339038e-02  5.1933828612924421e-02  5.6017213816672178e-02  5.6272777735938827e-02  -7.8651781630847978e-03  -6.0022422617458260e-03  5.2062221079954884e-03  1.0830718331056834e-02  1.5001971040826857e-02  1.8333454555370068e-02  2.1158622715213508e-02  2.3671272586428746e-02  2.5987704156932665e-02  2.8188104901993805e-02  3.0334277351507833e-02  3.2480159968249947e-02  3.4679604904026960e-02  3.6994085835646465e-02  3.9502882710987314e-02  4.2322292595771513e-02  4.5637867379825406e-02  4.9666411677126571e-02  5.6342236615663871e-02  6.1005000218096656e-02  6.8454574524623543e-02  -1.1298000287116210e-01  -2.6098379190128231e-03  4.8136316328744331e-03  1.0557100125390365e-02  1.4930147243610709e-02  1.8284525107707721e-02  2.1129068170592544e-02  2.3653495402131432e-02  2.5978043093060472e-02  2.8184938487432813e-02  3.0337068372132212e-02  3.2489250019030226e-02  3.4696319215035167e-02  3.7021219818982133e-02  3.9546226388170520e-02  4.2392432431618880e-02  4.5750210667529066e-02  5.0070296869223048e-02  5.6234100446317034e-02  6.2324832992666113e-02  1.2714030499810458e-01  </DataArray> 
</PointData> 
</Piece>
</UnstructuredGrid>
</VTKFile>