<?xml version="1.0"?>
<VTKFile type="UnstructuredGrid"  version="0.1"  >
<UnstructuredGrid>
<Piece  NumberOfPoints="651" NumberOfCells="1200">
<Points>
<DataArray  type="Float64"  NumberOfComponents="3"  format="ascii">0 0 0  50000 0 0  100000 0 0  150000 0 0  200000 0 0  250000 0 0  300000 0 0  350000 0 0  400000 0 0  450000 0 0  500000 0 0  550000 0 0  600000 0 0  650000 0 0  700000 0 0  750000 0 0  800000 0 0  850000 0 0  900000 0 0  950000 0 0  1000000 0 0  0 50000 0  50000 50000 0  100000 50000 0  150000 50000 0  200000 50000 0  250000 50000 0  300000 50000 0  350000 50000 0  400000 50000 0  450000 50000 0  500000 50000 0  550000 50000 0  600000 50000 0  650000 50000 0  700000 50000 0  750000 50000 0  800000 50000 0  850000 50000 0  900000 50000 0  950000 50000 0  1000000 50000 0  0 100000 0  50000 100000 0  100000 100000 0  150000 100000 0  200000 100000 0  250000 100000 0  300000 100000 0  350000 100000 0  400000 100000 0  450000 100000 0  500000 100000 0  550000 100000 0  600000 100000 0  650000 100000 0  700000 100000 0  750000 100000 0  800000 100000 0  850000 100000 0  900000 100000 0  950000 100000 0  1000000 100000 0  0 150000 0  50000 150000 0  100000 150000 0  150000 150000 0  200000 150000 0  250000 150000 0  300000 150000 0  350000 150000 0  400000 150000 0  450000 150000 0  500000 150000 0  550000 150000 0  600000 150000 0  650000 150000 0  700000 150000 0  750000 150000 0  800000 150000 0  850000 150000 0  900000 150000 0  950000 150000 0  1000000 150000 0  0 200000 0  50000 200000 0  100000 200000 0  150000 200000 0  200000 200000 0  250000 200000 0  300000 200000 0  350000 200000 0  400000 200000 0  450000 200000 0  500000 200000 0  550000 200000 0  600000 200000 0  650000 200000 0  700000 200000 0  750000 200000 0  800000 200000 0  850000 200000 0  900000 200000 0  950000 200000 0  1000000 200000 0  0 250000 0  50000 250000 0  100000 250000 0  150000 250000 0  200000 250000 0  250000 250000 0  300000 250000 0  350000 250000 0  400000 250000 0  450000 250000 0  500000 250000 0  550000 250000 0  600000 250000 0  650000 250000 0  700000 250000 0  750000 250000 0  800000 250000 0  850000 250000 0  900000 250000 0  950000 250000 0  1000000 250000 0  0 300000 0  50000 300000 0  100000 300000 0  150000 300000 0  200000 300000 0  250000 300000 0  300000 300000 0  350000 300000 0  400000 300000 0  450000 300000 0  500000 300000 0  550000 300000 0  600000 300000 0  650000 300000 0  700000 300000 0  750000 300000 0  800000 300000 0  850000 300000 0  900000 300000 0  950000 300000 0  1000000 300000 0  0 350000 0  50000 350000 0  100000 350000 0  150000 350000 0  200000 350000 0  250000 350000 0  300000 350000 0  350000 350000 0  400000 350000 0  450000 350000 0  500000 350000 0  550000 350000 0  600000 350000 0  650000 350000 0  700000 350000 0  750000 350000 0  800000 350000 0  850000 350000 0  900000 350000 0  950000 350000 0  1000000 350000 0  0 400000 0  50000 400000 0  100000 400000 0  150000 400000 0  200000 400000 0  250000 400000 0  300000 400000 0  350000 400000 0  400000 400000 0  450000 400000 0  500000 400000 0  550000 400000 0  600000 400000 0  650000 400000 0  700000 400000 0  750000 400000 0  800000 400000 0  850000 400000 0  900000 400000 0  950000 400000 0  1000000 400000 0  0 450000 0  50000 450000 0  100000 450000 0  150000 450000 0  200000 450000 0  250000 450000 0  300000 450000 0  350000 450000 0  400000 450000 0  450000 450000 0  500000 450000 0  550000 450000 0  600000 450000 0  650000 450000 0  700000 450000 0  750000 450000 0  800000 450000 0  850000 450000 0  900000 450000 0  950000 450000 0  1000000 450000 0  0 500000 0  50000 500000 0  100000 500000 0  150000 500000 0  200000 500000 0  250000 500000 0  300000 500000 0  350000 500000 0  400000 500000 0  450000 500000 0  500000 500000 0  550000 500000 0  600000 500000 0  650000 500000 0  700000 500000 0  750000 500000 0  800000 500000 0  850000 500000 0  900000 500000 0  950000 500000 0  1000000 500000 0  0 550000 0  50000 550000 0  100000 550000 0  150000 550000 0  200000 550000 0  250000 550000 0  300000 550000 0  350000 550000 0  400000 550000 0  450000 550000 0  500000 550000 0  550000 550000 0  600000 550000 0  650000 550000 0  700000 550000 0  750000 550000 0  800000 550000 0  850000 550000 0  900000 550000 0  950000 550000 0  1000000 550000 0  0 600000 0  50000 600000 0  100000 600000 0  150000 600000 0  200000 600000 0  250000 600000 0  300000 600000 0  350000 600000 0  400000 600000 0  450000 600000 0  500000 600000 0  550000 600000 0  600000 600000 0  650000 600000 0  700000 600000 0  750000 600000 0  800000 600000 0  850000 600000 0  900000 600000 0  950000 600000 0  1000000 600000 0  0 650000 0  50000 650000 0  100000 650000 0  150000 650000 0  200000 650000 0  250000 650000 0  300000 650000 0  350000 650000 0  400000 650000 0  450000 650000 0  500000 650000 0  550000 650000 0  600000 650000 0  650000 650000 0  700000 650000 0  750000 650000 0  800000 650000 0  850000 650000 0  900000 650000 0  950000 650000 0  1000000 650000 0  0 700000 0  50000 700000 0  100000 700000 0  150000 700000 0  200000 700000 0  250000 700000 0  300000 700000 0  350000 700000 0  400000 700000 0  450000 700000 0  500000 700000 0  550000 700000 0  600000 700000 0  650000 700000 0  700000 700000 0  750000 700000 0  800000 700000 0  850000 700000 0  900000 700000 0  950000 700000 0  1000000 700000 0  0 750000 0  50000 750000 0  100000 750000 0  150000 750000 0  200000 750000 0  250000 750000 0  300000 750000 0  350000 750000 0  400000 750000 0  450000 750000 0  500000 750000 0  550000 750000 0  600000 750000 0  650000 750000 0  700000 750000 0  750000 750000 0  800000 750000 0  850000 750000 0  900000 750000 0  950000 750000 0  1000000 750000 0  0 800000 0  50000 800000 0  100000 800000 0  150000 800000 0  200000 800000 0  250000 800000 0  300000 800000 0  350000 800000 0  400000 800000 0  450000 800000 0  500000 800000 0  550000 800000 0  600000 800000 0  650000 800000 0  700000 800000 0  750000 800000 0  800000 800000 0  850000 800000 0  900000 800000 0  950000 800000 0  1000000 800000 0  0 850000 0  50000 850000 0  100000 850000 0  150000 850000 0  200000 850000 0  250000 850000 0  300000 850000 0  350000 850000 0  400000 850000 0  450000 850000 0  500000 850000 0  550000 850000 0  600000 850000 0  650000 850000 0  700000 850000 0  750000 850000 0  800000 850000 0  850000 850000 0  900000 850000 0  950000 850000 0  1000000 850000 0  0 900000 0  50000 900000 0  100000 900000 0  150000 900000 0  200000 900000 0  250000 900000 0  300000 900000 0  350000 900000 0  400000 900000 0  450000 900000 0  500000 900000 0  550000 900000 0  600000 900000 0  650000 900000 0  700000 900000 0  750000 900000 0  800000 900000 0  850000 900000 0  900000 900000 0  950000 900000 0  1000000 900000 0  0 950000 0  50000 950000 0  100000 950000 0  150000 950000 0  200000 950000 0  250000 950000 0  300000 950000 0  350000 950000 0  400000 950000 0  450000 950000 0  500000 950000 0  550000 950000 0  600000 950000 0  650000 950000 0  700000 950000 0  750000 950000 0  800000 950000 0  850000 950000 0  900000 950000 0  950000 950000 0  1000000 950000 0  0 1000000 0  50000 1000000 0  100000 1000000 0  150000 1000000 0  200000 1000000 0  250000 1000000 0  300000 1000000 0  350000 1000000 0  400000 1000000 0  450000 1000000 0  500000 1000000 0  550000 1000000 0  600000 1000000 0  650000 1000000 0  700000 1000000 0  750000 1000000 0  800000 1000000 0  850000 1000000 0  900000 1000000 0  950000 1000000 0  1000000 1000000 0  0 1050000 0  50000 1050000 0  100000 1050000 0  150000 1050000 0  200000 1050000 0  250000 1050000 0  300000 1050000 0  350000 1050000 0  400000 1050000 0  450000 1050000 0  500000 1050000 0  550000 1050000 0  600000 1050000 0  650000 1050000 0  700000 1050000 0  750000 1050000 0  800000 1050000 0  850000 1050000 0  900000 1050000 0  950000 1050000 0  1000000 1050000 0  0 1100000 0  50000 1100000 0  100000 1100000 0  150000 1100000 0  200000 1100000 0  250000 1100000 0  300000 1100000 0  350000 1100000 0  400000 1100000 0  450000 1100000 0  500000 1100000 0  550000 1100000 0  600000 1100000 0  650000 1100000 0  700000 1100000 0  750000 1100000 0  800000 1100000 0  850000 1100000 0  900000 1100000 0  950000 1100000 0  1000000 1100000 0  0 1150000 0  50000 1150000 0  100000 1150000 0  150000 1150000 0  200000 1150000 0  250000 1150000 0  300000 1150000 0  350000 1150000 0  400000 1150000 0  450000 1150000 0  500000 1150000 0  550000 1150000 0  600000 1150000 0  650000 1150000 0  700000 1150000 0  750000 1150000 0  800000 1150000 0  850000 1150000 0  900000 1150000 0  950000 1150000 0  1000000 1150000 0  0 1200000 0  50000 1200000 0  100000 1200000 0  150000 1200000 0  200000 1200000 0  250000 1200000 0  300000 1200000 0  350000 1200000 0  400000 1200000 0  450000 1200000 0  500000 1200000 0  550000 1200000 0  600000 1200000 0  650000 1200000 0  700000 1200000 0  750000 1200000 0  800000 1200000 0  850000 1200000 0  900000 1200000 0  950000 1200000 0  1000000 1200000 0  0 1250000 0  50000 1250000 0  100000 1250000 0  150000 1250000 0  200000 1250000 0  250000 1250000 0  300000 1250000 0  350000 1250000 0  400000 1250000 0  450000 1250000 0  500000 1250000 0  550000 1250000 0  600000 1250000 0  650000 1250000 0  700000 1250000 0  750000 1250000 0  800000 1250000 0  850000 1250000 0  900000 1250000 0  950000 1250000 0  1000000 1250000 0  0 1300000 0  50000 1300000 0  100000 1300000 0  150000 1300000 0  200000 1300000 0  250000 1300000 0  300000 1300000 0  350000 1300000 0  400000 1300000 0  450000 1300000 0  500000 1300000 0  550000 1300000 0  600000 1300000 0  650000 1300000 0  700000 1300000 0  750000 1300000 0  800000 1300000 0  850000 1300000 0  900000 1300000 0  950000 1300000 0  1000000 1300000 0  0 1350000 0  50000 1350000 0  100000 1350000 0  150000 1350000 0  200000 1350000 0  250000 1350000 0  300000 1350000 0  350000 1350000 0  400000 1350000 0  450000 1350000 0  500000 1350000 0  550000 1350000 0  600000 1350000 0  650000 1350000 0  700000 135
[...]
<PointData  Scalars="f_4507"> 
<DataArray  type="Float64"  Name="f_4507"  format="ascii">-1.1040889718775822e-01  -1.2694039994033086e-02  -6.2480561609316934e-03  1.8338493257597773e-03  7.3206415118798147e-03  1.1542594201298417e-02  1.5115548372907033e-02  1.8276640124496504e-02  2.1182830192922615e-02  2.3939169047030109e-02  2.6625748018988329e-02  2.9312231093774552e-02  3.2068247136073806e-02  3.4973733834136329e-02  3.8133793819513061e-02  4.1703582122247576e-02  4.5913985056525511e-02  5.1516320904011544e-02  5.8763629802434963e-02  6.6877961634711505e-02  2.3613322496815192e-01  -2.2850132255338492e-02  -1.2599843936183869e-02  -6.8931491733957547e-03  2.2620784454298356e-03  7.3579698806448641e-03  1.1578027921210534e-02  1.5136147386971877e-02  1.8289185486792526e-02  2.1191055369949516e-02  2.3944585200154685e-02  2.6629209663444436e-02  2.9314186098953456e-02  3.2068873345359676e-02  3.4973058128210867e-02  3.8131131223340275e-02  4.1695432799451503e-02  4.5928343200518092e-02  5.1286707508098023e-02  5.8574972791217352e-02  7.4447798470560364e-02  7.6805785085843958e-02  -6.0908609508686703e-03  -6.3268642868006802e-03  -8.3713436301634703e-04  4.4053664124786554e-03  8.4426873354814455e-03  1.2249958646505663e-02  1.5548932563422064e-02  1.8549335409277390e-02  2.1346281843693009e-02  2.4019547032879725e-02  2.6634736531508069e-02  2.9250994048332136e-02  3.1927802568830994e-02  3.4731843112690952e-02  3.7745417066826527e-02  4.1078499728298641e-02  4.4882855973752717e-02  4.9347240380017740e-02  5.4775010436541371e-02  5.9236890895192865e-02  5.8180798019992305e-02  1.1600012057638284e-03  1.4004832547874567e-03  3.9332726334782185e-03  6.9061728694774045e-03  1.0193747446216506e-02  1.3350814759109901e-02  1.6260466044927806e-02  1.9008104540217376e-02  2.1622052499195785e-02  2.4150909801104452e-02  2.6638604340823557e-02  2.9127727662554326e-02  3.1661240753690478e-02  3.4284527558176389e-02  3.7046548580047425e-02  3.9997169098462473e-02  4.3171056629295705e-02  4.6535730819413111e-02  4.9750842904185265e-02  5.1884814047656727e-02  5.2216678865294443e-02  6.1893304523095959e-03  6.2695583163047538e-03  7.5831821308904677e-03  9.6708260355605497e-03  1.2135926064317350e-02  1.4652249506846009e-02  1.7153227165361998e-02  1.9599100739623617e-02  2.1983216811894808e-02  2.4323603427720043e-02  2.6641479444694943e-02  2.8960857303892758e-02  3.1305962668165301e-02  3.3699396627136474e-02  3.6158160737062663e-02  3.8683930990562332e-02  4.1240452129106923e-02  4.3702451992118203e-02  4.5784146053999164e-02  4.7032296663994652e-02  4.7029138626579689e-02  9.7660248603205716e-03  9.8044385520825381e-03  1.0660299480088360e-02  1.2125785744920155e-02  1.3962127879596819e-02  1.5993020548780146e-02  1.8111532382338681e-02  2.0251468140109440e-02  2.2389387823432950e-02  2.4518968602568324e-02  2.6642809535466102e-02  2.8767962585005413e-02  3.0901503116178564e-02  3.3046666506643160e-02  3.5197025862506497e-02  3.7326572830514861e-02  3.9373020815940310e-02  4.1215095536483733e-02  4.2658963451202452e-02  4.3462987771398155e-02  4.3473155160243228e-02  1.2487667649968663e-02  1.2512178834406966e-02  1.3112447253293340e-02  1.4188668143834742e-02  1.5613437993401936e-02  1.7264910341920136e-02  1.9050014279707522e-02  2.0908718210149630e-02  2.2805741260936065e-02  2.4720670199672511e-02  2.6642913677245274e-02  2.8566142134555723e-02  3.0483976970997393e-02  3.2385709795247519e-02  3.4250902593086739e-02  3.6042160446173956e-02  3.7696278646210550e-02  3.9117055103419014e-02  4.0178841420870019e-02  4.0750183850171540e-02  4.0757301162985267e-02  1.4614757431910128e-02  1.4630903120556642e-02  1.5080799366920975e-02  1.5911280106593498e-02  1.7046809969570812e-02  1.8405557545818567e-02  1.9917981757169766e-02  2.1530779661291903e-02  2.3205574416185041e-02  2.4915691228043085e-02  2.6642035089294552e-02  2.8369016848461152e-02  3.0080983418062975e-02  3.1758511296956470e-02  3.3374348416230937e-02  3.4889049576875046e-02  3.6247220423385323e-02  3.7376859254742288e-02  3.8195966085384635e-02  3.8627498586073318e-02  3.8632530504259945e-02  1.6298436634799747e-02  1.6309951191414016e-02  1.6663842504269145e-02  1.7328891031824369e-02  1.8257856443906810e-02  1.9395222501072208e-02  2.0688564181738690e-02  2.2092713352421620e-02  2.3571209768461710e-02  2.5095074030609683e-02  2.6640503015279260e-02  2.8186287567996467e-02  2.9711136979056592e-02  3.1190956182813024e-02  3.2596182968421344e-02  3.3889498091625746e-02  3.5024719012306839e-02  3.5948272988487788e-02  3.6604848532075372e-02  3.6946294009208999e-02  3.6950436343292654e-02  1.7634377800406539e-02  1.7643004116332885e-02  1.7932067591882130e-02  1.8481905603402210e-02  1.9261117193547932e-02  2.0230427699496043e-02  2.1349737898610603e-02  2.2581462883646493e-02  2.3892333042790155e-02  2.5253312370357790e-02  2.6638586402072256e-02  2.8024019552695029e-02  2.9385397252443907e-02  3.0696666121687272e-02  3.1928380882693806e-02  3.3046700557652325e-02  3.4013472479592126e-02  3.4788084656921972e-02  3.5331591091324527e-02  3.5611948399532127e-02  3.5615462130324280e-02  1.8686441028609981e-02  1.8693150895022118e-02  1.8936973406268161e-02  1.9404698291471269e-02  2.0074110853197439e-02  2.0916123855338111e-02  2.1899210975899312e-02  2.2991792016258086e-02  2.4163881113705012e-02  2.5387521827079637e-02  2.6636486801931723e-02  2.7885489166915221e-02  2.9109182871318820e-02  3.0281166026266852e-02  3.1373209326079357e-02  3.2354985244547413e-02  3.3194612814064224e-02  3.3860323886171655e-02  3.4323329671818004e-02  3.4560947333103643e-02  3.4564041304388463e-02  1.9498930167387601e-02  1.9504313009656424e-02  1.9716126630601283e-02  2.0124951763083737e-02  2.0714063129853917e-02  2.1460809092870566e-02  2.2339475974554272e-02  2.3322964114754364e-02  2.4384162521085474e-02  2.5496558116181664e-02  2.6634331808335417e-02  2.7772079519277831e-02  2.8884357472290796e-02  2.9945231744548662e-02  3.0928017953494605e-02  3.1805406547792993e-02  3.2550144754206159e-02  3.3136406353379069e-02  3.3541773866780915e-02  3.3749177153975733e-02  3.3752004432873961e-02  2.0103026337582836e-02  2.0107464074143235e-02  2.0296869573935172e-02  2.0664132349316924e-02  2.1195839139644693e-02  2.1873392234569581e-02  2.2674930529440498e-02  2.3576537220850471e-02  2.4553364987187416e-02  2.5580283639186702e-02  2.6632189936514884e-02  2.7684047985160540e-02  2.8710797059347364e-02  2.9687263548202680e-02  3.0588216184762866e-02  3.1388696701927593e-02  3.2064713081089435e-02  3.2594353119620070e-02  3.2959187796844640e-02  3.3145558798347290e-02  3.3148245186959510e-02  2.0520427886857342e-02  2.0524185373595277e-02  2.0698652186614586e-02  2.1038145085742820e-02  2.1531197315986964e-02  2.2161683234827107e-02  2.2910171639798121e-02  2.3754853109584667e-02  2.4672485013758155e-02  2.5639032530370368e-02  2.6630088015574732e-02  2.7621099096760249e-02  2.8587499315550383e-02  2.9504841660282759e-02  3.0349036347949301e-02  3.1096782859932268e-02  3.1726237166355496e-02  3.2217946098566472e-02  3.2555892326813926e-02  3.2728451311212256e-02  3.2731110594884802e-02  2.0765466848629306e-02  2.0768740024566988e-02  2.0934498276420320e-02  2.1257918801416312e-02  2.1728548034432010e-02  2.2331601957617707e-02  2.3048988509752146e-02  2.3860095960890063e-02  2.4742631573265002e-02  2.5673250313317554e-02  2.6628025699990229e-02  2.7582775508788036e-02  2.8513311222582244e-02  2.9395688912395745e-02  3.0206539616433492e-02  3.0923546067369724e-02  3.1526083310583743e-02  3.1996051327363335e-02  3.2318718915722015e-02  3.2483555153987098e-02  3.2486298382027080e-02  2.0846326589719591e-02  2.0849269922012113e-02  2.1011892712508182e-02  2.1329825158484389e-02  2.1792904804922138e-02  2.2386788703132397e-02  2.3093810540988149e-02  2.3893743609189833e-02  2.4764602637925709e-02  2.5683270710315179e-02  2.6625986785218148e-02  2.7568702860121055e-02  2.8487370932510594e-02  2.9358229961246519e-02  3.0158163029448182e-02  3.0865184867304028e-02  3.1459068765514339e-02  3.1922148411952143e-02  3.2240080857928365e-02  3.2402703648424423e-02  3.2405646980716948e-02  2.0765675188409580e-02  2.0768418416449521e-02  2.0933254654714611e-02  2.1255922243073228e-02  2.1725890259852821e-02  2.2328427503066746e-02  2.3045433954002940e-02  2.3856284658040659e-02  2.4738662347854035e-02  2.5669198061648246e-02  2.6623947870446057e-02  2.7578723257118729e-02  2.8509341997171291e-02  2.9391877609546216e-02  3.0202985060684147e-02  3.0920371612818635e-02  3.1523425536004436e-02  3.1994054769020133e-02  3.2317475294016185e-02  3.2483233545869475e-02  3.2486506721807230e-02  2.0520862975551817e-02  2.0523522259224464e-02  2.0696081243622773e-02  2.1034027471870186e-02  2.1525736404081088e-02  2.2155190710504272e-02  2.2902937222487169e-02  2.3747131910153624e-02  2.4664474254885944e-02  2.5630874473676072e-02  2.6621885554861530e-02  2.7612941040065880e-02  2.8579488556678079e-02  2.9497120460851598e-02  3.0341801930638193e-02  3.1090290335609255e-02  3.1720776254449454e-02  3.2213828484693584e-02  3.2553321383821908e-02  3.2727788196841218e-02  3.2731545683579139e-02  2.0103728383477380e-02  2.0106414772089555e-02  2.0292785773592201e-02  2.0657620450816681e-02  2.1187260489347295e-02  2.1863276868509019e-02  2.2663757385673677e-02  2.3564710022233742e-02  2.4541176511089006e-02  2.5567925585275757e-02  2.6619783633921399e-02  2.7671689931249556e-02  2.8698608583248842e-02  2.9675436349585756e-02  3.0577043040995809e-02  3.1378581335866719e-02  3.2056134430791673e-02  3.2587841221119532e-02  3.2955103996501263e-02  3.3144509496293204e-02  3.3148947232853630e-02  1.9499969137563019e-02  1.9502796416461226e-02  1.9710199703656051e-02  2.0115567217057817e-02  2.0701828816230641e-02  2.1446567022643668e-02  2.2323955616942007e-02  2.3306741825887791e-02  2.4367616098145566e-02  2.5479894051158466e-02  2.6617641762100842e-02  2.7755415454254570e-02  2.8867811049350749e-02  2.9929009455681832e-02  3.0912497595881945e-02  3.1791164477565685e-02  3.2537910440582483e-02  3.3127021807352663e-02  3.3535846939835148e-02  3.3747660560780032e-02  3.3753043403048841e-02  1.8687932266048698e-02  1.8691026237333524e-02  1.8928643898619143e-02  1.9391649684265346e-02  2.0057360756372714e-02  2.0896988325889362e-02  2.1878764244357307e-02  2.2970807544169664e-02  2.4142790699117598e-02  2.5366484403521062e-02  2.6615486768504504e-02  2.7864451743356559e-02  2.9088092456731163e-02  3.0260181554178117e-02  3.1352762594536940e-02  3.2335849715098196e-02  3.3177862717238944e-02  3.3847275278965139e-02  3.4315000164168316e-02  3.4558822675414359e-02  3.4565532541826531e-02  1.7636511440113151e-02  1.7640025170905255e-02  1.7920382479112793e-02  1.8463888913515268e-02  1.9238501090844937e-02  2.0205273012784547e-02  2.1323592687742910e-02  2.2555307448749232e-02  2.3866576317992508e-02  2.5227954017741305e-02  2.6613387168363957e-02  2.7998661200078396e-02  2.9359640527645996e-02  3.0670510686789686e-02  3.1902235671825638e-02  3.3021545870940229e-02  3.3990856376888416e-02  3.4770067967034239e-02  3.5319905978554389e-02  3.5608969454103655e-02  3.5617595770030007e-02  1.6301537227144985e-02  1.6305679561228612e-02  1.6647125038362205e-02  1.7303700581949598e-02  1.8227254558130335e-02  1.9362475478811248e-02  2.0655790602015400e-02  2.2061017387623578e-02  2.3540836591379857e-02  2.5065686002439809e-02  2.6611470555156915e-02  2.8156899539826460e-02  2.9680763801974423e-02  3.1159260218014510e-02  3.2563409388697506e-02  3.3856751069364061e-02  3.4994117126529549e-02  3.5923082538612129e-02  3.6588131066167401e-02  3.6942022379022589e-02  3.6953536935636896e-02  1.4619443066177972e-02  1.4624474984364647e-02  1.5056007485053174e-02  1.5875114315695275e-02  1.7004753147051976e-02  1.8362923993562000e-02  1.9877625154205828e-02  2.1493462273480087e-02  2.3170990152373373e-02  2.4882956721975064e-02  2.6609938481141557e-02  2.8336282342392972e-02  3.0046399154251027e-02  3.1721193909144171e-02  3.3333991813266343e-02  3.4846416024617619e-02  3.6205163600865543e-02  3.7340693463843048e-02  3.8171174203515713e-02  3.8621070449880134e-02  3.8637216138526644e-02  1.2494672407453042e-02  1.2501789720266741e-02  1.3073132149568083e-02  1.4134918467018774e-02  1.5555694924226843e-02  1.7209813124263128e-02  1.9001070977350019e-02  2.0866263775188989e-02  2.2767996599438949e-02  2.4685831435880431e-02  2.6609059893190755e-02  2.8531303370763456e-02  3.0446232309499867e-02  3.2343255360286288e-02  3.4201959290728487e-02  3.5987063228515984e-02  3.7638535577034414e-02  3.9063305426601837e-02  4.0139526317143522e-02  4.0739794736030017e-02  4.0764305920468369e-02  9.7788184101956100e-03  9.7889857990406341e-03  1.0593010119236078e-02  1.2036878033954286e-02  1.3878952754497163e-02  1.5925400739922133e-02  1.8054947707930116e-02  2.0205307063793275e-02  2.2350470454257667e-02  2.4484010985430620e-02  2.6609164034969830e-02  2.8733004967867508e-02  3.0862585747002898e-02  3.3000505430326343e-02  3.5140441188097123e-02  3.7258953021655834e-02  3.9289845690839403e-02  4.1126187825516462e-02  4.2591674090348683e-02  4.3447535018354792e-02  4.3485948710116740e-02  6.2228349438597508e-03  6.2196769064447790e-03  7.4678275164397658e-03  9.5495215783198435e-03  1.2011521441330428e-02  1.4568042579874430e-02  1.7093812833373811e-02  1.9552576943299781e-02  2.1946010902270736e-02  2.4291116266543126e-02  2.6610494125740843e-02  2.8928370142715654e-02  3.1268756758540815e-02  3.3652872830811913e-02  3.6098746405073559e-02  3.8599724063589712e-02  4.1116047506118608e-02  4.3581147534876068e-02  4.5668791439546823e-02  4.6982415254133027e-02  4.7062643118128272e-02  1.0352947051460511e-03  1.3671595227835863e-03  3.5011306662539954e-03  6.7162427510246772e-03  1.0080916941141146e-02  1.3254804471973910e-02  1.6205424990388670e-02  1.8967446012259609e-02  2.1590732816745395e-02  2.4124245907881443e-02  2.6613369229612074e-02  2.9101063769331095e-02  3.1629921071239624e-02  3.4243869030217887e-02  3.6991507525507436e-02  3.9901158811325263e-02  4.3058226124218987e-02  4.6345800700958513e-02  4.9318700936958525e-02  5.1851490315651165e-02  5.2091972364675082e-02  -4.9288244495525862e-03  -5.9849173247505938e-03  -1.5230368661028840e-03  3.9047331904186406e-03  8.3691175966830421e-03  1.2173473842136981e-02  1.5506556503609157e-02  1.8520130457744779e-02  2.1324171001604674e-02  2.4000979522103477e-02  2.6617237038927481e-02  2.9232426537555662e-02  3.1905691726742222e-02  3.4702638161157588e-02  3.7703041007012675e-02  4.1002014923928812e-02  4.4809286234952887e-02  4.8846607157955871e-02  5.4089107933453666e-02  5.9578837857241891e-02  5.9342834521307924e-02  -2.3553811515373623e-02  -2.1195824900121934e-02  -5.3229992207838393e-03  1.9652660623356104e-03  7.3236303699163556e-03  1.1556540770983543e-02  1.5120842347095150e-02  1.8278915442224767e-02  2.1183100225076038e-02  2.3937787471482258e-02  2.6622763906991191e-02  2.9307388370280792e-02  3.2060918200485705e-02  3.4962788083642365e-02  3.8115826183462563e-02  4.1673945649223255e-02  4.5894003689787986e-02  5.0989895125002377e-02  6.0145122743825635e-02  6.5851817506613439e-02  7.6102105825786012e-02  -1.8288125139764025e-01  -1.3625988064267191e-02  -5.5116562320023229e-03  1.7356526664224429e-03  7.3379885139092287e-03  1.1548391448187664e-02  1.5118179750922727e-02  1.8278239736299495e-02  2.1183726434362251e-02  2.3939742476661426e-02  2.6626225551447624e-02  2.9312804523405595e-02  3.2069143377512925e-02  3.4975333445938665e-02  3.8136425197527683e-02  4.1709379369135595e-02  4.5931332058553369e-02  5.1418124244672375e-02  5.9500029731361197e-02  6.5946013564469178e-02  1.6366087075826649e-01  </DataArray> 
</PointData> 
</Piece>
</UnstructuredGrid>
</VTKFile>