<?xml version="1.0"?>
<VTKFile type="UnstructuredGrid"  version="0.1"  >
<UnstructuredGrid>
<Piece  NumberOfPoints="651" NumberOfCells="1200">
<Points>
<DataArray  type="Float64"  NumberOfComponents="3"  format="ascii">0 0 0  50000 0 0  100000 0 0  150000 0 0  200000 0 0  250000 0 0  300000 0 0  350000 0 0  400000 0 0  450000 0 0  500000 0 0  550000 0 0  600000 0 0  650000 0 0  700000 0 0  750000 0 0  800000 0 0  850000 0 0  900000 0 0  950000 0 0  1000000 0 0  0 50000 0  50000 50000 0  100000 50000 0  150000 50000 0  200000 50000 0  250000 50000 0  300000 50000 0  350000 50000 0  400000 50000 0  450000 50000 0  500000 50000 0  550000 50000 0  600000 50000 0  650000 50000 0  700000 50000 0  750000 50000 0  800000 50000 0  850000 50000 0  900000 50000 0  950000 50000 0  1000000 50000 0  0 100000 0  50000 100000 0  100000 100000 0  150000 100000 0  200000 100000 0  250000 100000 0  300000 100000 0  350000 100000 0  400000 100000 0  450000 100000 0  500000 100000 0  550000 100000 0  600000 100000 0  650000 100000 0  700000 100000 0  750000 100000 0  800000 100000 0  850000 100000 0  900000 100000 0  950000 100000 0  1000000 100000 0  0 150000 0  50000 150000 0  100000 150000 0  150000 150000 0  200000 150000 0  250000 150000 0  300000 150000 0  350000 150000 0  400000 150000 0  450000 150000 0  500000 150000 0  550000 150000 0  600000 150000 0  650000 150000 0  700000 150000 0  750000 150000 0  800000 150000 0  850000 150000 0  900000 150000 0  950000 150000 0  1000000 150000 0  0 200000 0  50000 200000 0  100000 200000 0  150000 200000 0  200000 200000 0  250000 200000 0  300000 200000 0  350000 200000 0  400000 200000 0  450000 200000 0  500000 200000 0  550000 200000 0  600000 200000 0  650000 200000 0  700000 200000 0  750000 200000 0  800000 200000 0  850000 200000 0  900000 200000 0  950000 200000 0  1000000 200000 0  0 250000 0  50000 250000 0  100000 250000 0  150000 250000 0  200000 250000 0  250000 250000 0  300000 250000 0  350000 250000 0  400000 250000 0  450000 250000 0  500000 250000 0  550000 250000 0  600000 250000 0  650000 250000 0  700000 250000 0  750000 250000 0  800000 250000 0  850000 250000 0  900000 250000 0  950000 250000 0  1000000 250000 0  0 300000 0  50000 300000 0  100000 300000 0  150000 300000 0  200000 300000 0  250000 300000 0  300000 300000 0  350000 300000 0  400000 300000 0  450000 300000 0  500000 300000 0  550000 300000 0  600000 300000 0  650000 300000 0  700000 300000 0  750000 300000 0  800000 300000 0  850000 300000 0  900000 300000 0  950000 300000 0  1000000 300000 0  0 350000 0  50000 350000 0  100000 350000 0  150000 350000 0  200000 350000 0  250000 350000 0  300000 350000 0  350000 350000 0  400000 350000 0  450000 350000 0  500000 350000 0  550000 350000 0  600000 350000 0  650000 350000 0  700000 350000 0  750000 350000 0  800000 350000 0  850000 350000 0  900000 350000 0  950000 350000 0  1000000 350000 0  0 400000 0  50000 400000 0  100000 400000 0  150000 400000 0  200000 400000 0  250000 400000 0  300000 400000 0  350000 400000 0  400000 400000 0  450000 400000 0  500000 400000 0  550000 400000 0  600000 400000 0  650000 400000 0  700000 400000 0  750000 400000 0  800000 400000 0  850000 400000 0  900000 400000 0  950000 400000 0  1000000 400000 0  0 450000 0  50000 450000 0  100000 450000 0  150000 450000 0  200000 450000 0  250000 450000 0  300000 450000 0  350000 450000 0  400000 450000 0  450000 450000 0  500000 450000 0  550000 450000 0  600000 450000 0  650000 450000 0  700000 450000 0  750000 450000 0  800000 450000 0  850000 450000 0  900000 450000 0  950000 450000 0  1000000 450000 0  0 500000 0  50000 500000 0  100000 500000 0  150000 500000 0  200000 500000 0  250000 500000 0  300000 500000 0  350000 500000 0  400000 500000 0  450000 500000 0  500000 500000 0  550000 500000 0  600000 500000 0  650000 500000 0  700000 500000 0  750000 500000 0  800000 500000 0  850000 500000 0  900000 500000 0  950000 500000 0  1000000 500000 0  0 550000 0  50000 550000 0  100000 550000 0  150000 550000 0  200000 550000 0  250000 550000 0  300000 550000 0  350000 550000 0  400000 550000 0  450000 550000 0  500000 550000 0  550000 550000 0  600000 550000 0  650000 550000 0  700000 550000 0  750000 550000 0  800000 550000 0  850000 550000 0  900000 550000 0  950000 550000 0  1000000 550000 0  0 600000 0  50000 600000 0  100000 600000 0  150000 600000 0  200000 600000 0  250000 600000 0  300000 600000 0  350000 600000 0  400000 600000 0  450000 600000 0  500000 600000 0  550000 600000 0  600000 600000 0  650000 600000 0  700000 600000 0  750000 600000 0  800000 600000 0  850000 600000 0  900000 600000 0  950000 600000 0  1000000 600000 0  0 650000 0  50000 650000 0  100000 650000 0  150000 650000 0  200000 650000 0  250000 650000 0  300000 650000 0  350000 650000 0  400000 650000 0  450000 650000 0  500000 650000 0  550000 650000 0  600000 650000 0  650000 650000 0  700000 650000 0  750000 650000 0  800000 650000 0  850000 650000 0  900000 650000 0  950000 650000 0  1000000 650000 0  0 700000 0  50000 700000 0  100000 700000 0  150000 700000 0  200000 700000 0  250000 700000 0  300000 700000 0  350000 700000 0  400000 700000 0  450000 700000 0  500000 700000 0  550000 700000 0  600000 700000 0  650000 700000 0  700000 700000 0  750000 700000 0  800000 700000 0  850000 700000 0  900000 700000 0  950000 700000 0  1000000 700000 0  0 750000 0  50000 750000 0  100000 750000 0  150000 750000 0  200000 750000 0  250000 750000 0  300000 750000 0  350000 750000 0  400000 750000 0  450000 750000 0  500000 750000 0  550000 750000 0  600000 750000 0  650000 750000 0  700000 750000 0  750000 750000 0  800000 750000 0  850000 750000 0  900000 750000 0  950000 750000 0  1000000 750000 0  0 800000 0  50000 800000 0  100000 800000 0  150000 800000 0  200000 800000 0  250000 800000 0  300000 800000 0  350000 800000 0  400000 800000 0  450000 800000 0  500000 800000 0  550000 800000 0  600000 800000 0  650000 800000 0  700000 800000 0  750000 800000 0  800000 800000 0  850000 800000 0  900000 800000 0  950000 800000 0  1000000 800000 0  0 850000 0  50000 850000 0  100000 850000 0  150000 850000 0  200000 850000 0  250000 850000 0  300000 850000 0  350000 850000 0  400000 850000 0  450000 850000 0  500000 850000 0  550000 850000 0  600000 850000 0  650000 850000 0  700000 850000 0  750000 850000 0  800000 850000 0  850000 850000 0  900000 850000 0  950000 850000 0  1000000 850000 0  0 900000 0  50000 900000 0  100000 900000 0  150000 900000 0  200000 900000 0  250000 900000 0  300000 900000 0  350000 900000 0  400000 900000 0  450000 900000 0  500000 900000 0  550000 900000 0  600000 900000 0  650000 900000 0  700000 900000 0  750000 900000 0  800000 900000 0  850000 900000 0  900000 900000 0  950000 900000 0  1000000 900000 0  0 950000 0  50000 950000 0  100000 950000 0  150000 950000 0  200000 950000 0  250000 950000 0  300000 950000 0  350000 950000 0  400000 950000 0  450000 950000 0  500000 950000 0  550000 950000 0  600000 950000 0  650000 950000 0  700000 950000 0  750000 950000 0  800000 950000 0  850000 950000 0  900000 950000 0  950000 950000 0  1000000 950000 0  0 1000000 0  50000 1000000 0  100000 1000000 0  150000 1000000 0  200000 1000000 0  250000 1000000 0  300000 1000000 0  350000 1000000 0  400000 1000000 0  450000 1000000 0  500000 1000000 0  550000 1000000 0  600000 1000000 0  650000 1000000 0  700000 1000000 0  750000 1000000 0  800000 1000000 0  850000 1000000 0  900000 1000000 0  950000 1000000 0  1000000 1000000 0  0 1050000 0  50000 1050000 0  100000 1050000 0  150000 1050000 0  200000 1050000 0  250000 1050000 0  300000 1050000 0  350000 1050000 0  400000 1050000 0  450000 1050000 0  500000 1050000 0  550000 1050000 0  600000 1050000 0  650000 1050000 0  700000 1050000 0  750000 1050000 0  800000 1050000 0  850000 1050000 0  900000 1050000 0  950000 1050000 0  1000000 1050000 0  0 1100000 0  50000 1100000 0  100000 1100000 0  150000 1100000 0  200000 1100000 0  250000 1100000 0  300000 1100000 0  350000 1100000 0  400000 1100000 0  450000 1100000 0  500000 1100000 0  550000 1100000 0  600000 1100000 0  650000 1100000 0  700000 1100000 0  750000 1100000 0  800000 1100000 0  850000 1100000 0  900000 1100000 0  950000 1100000 0  1000000 1100000 0  0 1150000 0  50000 1150000 0  100000 1150000 0  150000 1150000 0  200000 1150000 0  250000 1150000 0  300000 1150000 0  350000 1150000 0  400000 1150000 0  450000 1150000 0  500000 1150000 0  550000 1150000 0  600000 1150000 0  650000 1150000 0  700000 1150000 0  750000 1150000 0  800000 1150000 0  850000 1150000 0  900000 1150000 0  950000 1150000 0  1000000 1150000 0  0 1200000 0  50000 1200000 0  100000 1200000 0  150000 1200000 0  200000 1200000 0  250000 1200000 0  300000 1200000 0  350000 1200000 0  400000 1200000 0  450000 1200000 0  500000 1200000 0  550000 1200000 0  600000 1200000 0  650000 1200000 0  700000 1200000 0  750000 1200000 0  800000 1200000 0  850000 1200000 0  900000 1200000 0  950000 1200000 0  1000000 1200000 0  0 1250000 0  50000 1250000 0  100000 1250000 0  150000 1250000 0  200000 1250000 0  250000 1250000 0  300000 1250000 0  350000 1250000 0  400000 1250000 0  450000 1250000 0  500000 1250000 0  550000 1250000 0  600000 1250000 0  650000 1250000 0  700000 1250000 0  750000 1250000 0  800000 1250000 0  850000 1250000 0  900000 1250000 0  950000 1250000 0  1000000 1250000 0  0 1300000 0  50000 1300000 0  100000 1300000 0  150000 1300000 0  200000 1300000 0  250000 1300000 0  300000 1300000 0  350000 1300000 0  400000 1300000 0  450000 1300000 0  500000 1300000 0  550000 1300000 0  600000 1300000 0  650000 1300000 0  700000 1300000 0  750000 1300000 0  800000 1300000 0  850000 1300000 0  900000 1300000 0  950000 1300000 0  1000000 1300000 0  0 1350000 0  50000 1350000 0  100000 1350000 0  150000 1350000 0  200000 1350000 0  250000 1350000 0  300000 1350000 0  350000 1350000 0  400000 1350000 0  450000 1350000 0  500000 1350000 0  550000 1350000 0  600000 1350000 0  650000 1350000 0  700000 135
[...]
<PointData  Scalars="f_4507"> 
<DataArray  type="Float64"  Name="f_4507"  format="ascii">-1.3626996199367442e-01  -1.7418401709899667e-02  -1.0887118128103820e-02  -1.7020709797766454e-03  4.4349875623095085e-03  9.1329048360286186e-03  1.3105597502077656e-02  1.6615442372942494e-02  1.9839773703901799e-02  2.2896362194179128e-02  2.5874876529265237e-02  2.8853247005769456e-02  3.1909355565811939e-02  3.5132627174047103e-02  3.8640936273718070e-02  4.2609064905723616e-02  4.7288854709829409e-02  5.3582757745240933e-02  6.1631975636879541e-02  7.0059914985215549e-02  2.7716568367604916e-01  -3.0317356649280064e-02  -1.8264422805608995e-02  -1.1951199052038239e-02  -1.2899093959268756e-03  4.4085623601585692e-03  9.1377613563647046e-03  1.3106590548396881e-02  1.6615573325330021e-02  1.9840755729538369e-02  2.2898548080908427e-02  2.5878681160544179e-02  2.8859178675712659e-02  3.1918171572826705e-02  3.5145720328105187e-02  3.8660186840156860e-02  4.2634886381371008e-02  4.7373585063570575e-02  5.3407960933034057e-02  6.1671058212835257e-02  8.0491180351092650e-02  8.3233370922892083e-02  -1.0633436867058067e-02  -1.1244524163308794e-02  -4.9071506607327323e-03  1.0709462038649457e-03  5.5791322808168634e-03  9.8650089827454161e-03  1.3549161864983131e-02  1.6894021585104294e-02  2.0006665708309591e-02  2.2978737753976956e-02  2.5884908684298324e-02  2.8792258208368542e-02  3.1768258729551413e-02  3.4888776583586120e-02  3.8248000423190626e-02  4.1973068647093152e-02  4.6242122354064115e-02  5.1279936895952200e-02  5.7481406752941909e-02  6.2516981518011119e-02  6.0785210858352798e-02  -2.4644637526231960e-03  -2.3048913860358598e-03  5.3099125618511129e-04  3.8431917306266709e-03  7.5424135119284540e-03  1.1086147796786246e-02  1.4334375783979956e-02  1.7399282230857818e-02  2.0309782034833544e-02  2.3123088954390462e-02  2.5889362856205120e-02  2.8657241586279400e-02  3.1475772635886932e-02  3.4396960236179754e-02  3.7477359613595558e-02  4.0775441910676689e-02  4.4333509105372121e-02  4.8118661511512152e-02  5.1734258181352730e-02  5.4073500376197278e-02  5.4387401055335585e-02  3.1956464039308605e-03  3.2158233070056280e-03  4.6411632409873380e-03  6.9674487805894969e-03  9.7284427313910782e-03  1.2537788757268645e-02  1.5328981440182670e-02  1.8055902519937002e-02  2.0710369861699916e-02  2.3314506492507565e-02  2.5892618663731125e-02  2.8472437712944890e-02  3.1081874251151293e-02  3.3747126563002508e-02  3.6488263404124636e-02  3.9308162713034354e-02  4.2166477350005317e-02  4.4919441613563753e-02  4.7236069860696318e-02  4.8591092504990607e-02  4.8509473463167634e-02  7.1945336646272234e-03  7.1918591700867113e-03  8.1143532557842388e-03  9.7356276054103852e-03  1.1777262063849993e-02  1.4039654909711733e-02  1.6400799532242400e-02  1.8783736985624147e-02  2.1163062095432075e-02  2.3532117550545247e-02  2.5894178892651065e-02  2.8257744786342926e-02  3.0631269261554118e-02  3.3018907710255674e-02  3.5413879653753262e-02  3.7787076125019206e-02  4.0067697643847669e-02  4.2116672356609069e-02  4.3711466338950129e-02  4.4573520138276021e-02  4.4539476242811557e-02  1.0231934857309406e-02  1.0227449018404729e-02  1.0869658007082453e-02  1.2052704190287783e-02  1.3631077778112132e-02  1.5466243123550641e-02  1.7451365870293733e-02  1.9518553266390733e-02  2.1628202008756557e-02  2.3757321356046177e-02  2.5894331665599693e-02  2.8032470936520365e-02  3.0164902195021891e-02  3.2279883522631926e-02  3.4354583816401628e-02  3.6346773468529138e-02  3.8184605288815343e-02  3.9758264671943482e-02  4.0924602168188370e-02  4.1533912775901689e-02  4.1509867426092445e-02  1.2602516517600327e-02  1.2596446136080984e-02  1.3075565170682701e-02  1.3985018113777956e-02  1.5238895344748938e-02  1.6744643901973791e-02  1.8423352808093110e-02  2.0214737477529297e-02  2.2075388209274054e-02  2.3975357199403156e-02  2.5893371701431245e-02  2.7812111871868692e-02  2.9714198117396957e-02  3.1577955295891295e-02  3.3372772957851467e-02  3.5054101558564678e-02  3.6559156871400565e-02  3.7806176983609517e-02  3.8702463006734578e-02  3.9160792830642541e-02  3.9142193971516817e-02  1.4476978776464366e-02  1.4470794162301331e-02  1.4846444805224172e-02  1.5572511362353655e-02  1.6595535288893144e-02  1.7853210348532888e-02  1.9286285618676617e-02  2.0843747746459855e-02  2.2484510200241243e-02  2.4176036019414253e-02  2.5891665591785254e-02  2.7607698241403265e-02  2.9300345486708308e-02  3.0942619021537020e-02  3.2501295865220325e-02  3.3934304639319790e-02  3.5189490667657447e-02  3.6206323025404101e-02  3.6922674487134308e-02  3.7284265599745840e-02  3.7269822787944377e-02  1.5963128363895258e-02  1.5957131595213215e-02  1.6263176723649252e-02  1.6862048946925511e-02  1.7718323151179913e-02  1.8788147169032411e-02  2.0026387506054139e-02  2.1390761094456177e-02  2.2843862250884108e-02  2.4353092508596432e-02  2.5889520316932528e-02  2.7426129068142586e-02  2.8935810268851499e-02  3.0389360694846115e-02  3.1753716283010498e-02  3.2990814525560325e-02  3.4057720711462493e-02  3.4908749315457767e-02  3.5500396338178385e-02  3.5796636319022350e-02  3.5784920170527035e-02  1.7132740892755096e-02  1.7126988612262816e-02  1.7384597803390654e-02  1.7893066823727034e-02  1.8627373000149137e-02  1.9555188728461320e-02  2.0641166587823889e-02  2.1849884718932167e-02  2.3147695930118773e-02  2.4503251745308617e-02  2.5887167155330432e-02  2.7271124803151959e-02  2.8626739363487183e-02  2.9924425722643356e-02  3.1132524594869780e-02  3.2217001910128454e-02  3.3142092992804982e-02  3.3872193523171716e-02  3.4375294077747150e-02  3.4625927094126555e-02  3.4616136088292400e-02  1.8035554470111844e-02  1.8030006948561553e-02  1.8253410202961607e-02  1.8697156865380562e-02  1.9342423703239141e-02  2.0164129891119129e-02  2.1133532611434250e-02  2.2220312448941324e-02  2.3394107192193838e-02  2.4625223731642804e-02  2.5884751481745065e-02  2.7144249126229980e-02  2.8375230280673958e-02  2.9548653585162520e-02  3.0634630897861725e-02  3.1602575687498080e-02  3.2421995265034968e-02  3.3064031726879849e-02  3.3503853802766631e-02  3.3722304736239044e-02  3.3713905875582165e-02  1.8706543473283523e-02  1.8701117986072938e-02  1.8900602429599293e-02  1.9298737390591836e-02  1.9880433213099739e-02  2.0625157013977470e-02  2.1508530509373062e-02  2.2503849586246075e-02  2.3583330992730404e-02  2.4718861147770367e-02  2.5882351061389558e-02  2.7045785711863814e-02  2.8181121863032819e-02  2.9260190617163864e-02  3.0254763867503282e-02  3.1136933589524934e-02  3.1879910742391500e-02  3.2459267376437569e-02  3.2854650391305744e-02  3.3050730383128099e-02  3.3043352228652310e-02  1.9170031801711770e-02  1.9164626061090168e-02  1.9348172289366510e-02  1.9715855744337242e-02  2.0254779752189967e-02  2.0947177090770600e-02  2.1771416248367353e-02  2.2703181670562355e-02  2.3716514791137781e-02  2.4784550831622849e-02  2.5879996382150237e-02  2.6975391206655572e-02  2.8043259093778132e-02  2.9056262025567353e-02  2.9987473139800751e-02  3.0810869075431999e-02  3.1502095329958589e-02  3.2039500482511821e-02  3.2405432646039317e-02  3.2586839637978524e-02  3.2580210005028823e-02  1.9442079957667214e-02  1.9436579063865048e-02  1.9610829498606919e-02  1.9960893121133760e-02  2.0475016034892327e-02  2.1136928785188230e-02  2.1926511752177660e-02  2.2820805029509273e-02  2.3794928953089725e-02  2.4822804254615062e-02  2.5877686965378528e-02  2.6932540483432552e-02  2.7960321087220394e-02  2.8934265078700831e-02  2.9828266216673033e-02  3.0617417468888224e-02  3.1278744085489738e-02  3.1792119783043936e-02  3.2141331310644804e-02  3.2314548217379467e-02  3.2308456869705245e-02  1.9531856622609260e-02  1.9526132936258173e-02  1.9697021172666737e-02  2.0041061144547505e-02  2.0546830695225081e-02  2.1198551437999917e-02  2.1976584813037599e-02  2.2858406455929473e-02  2.3819485876095003e-02  2.4834003516461881e-02  2.5875404258389162e-02  2.6916805000316370e-02  2.7931322640683341e-02  2.8892402060848938e-02  2.9774223703740808e-02  3.0552257078778604e-02  3.1203977821553507e-02  3.1709747372231152e-02  3.2053787344111941e-02  3.2224675580520487e-02  3.2218951894169415e-02  1.9442351647073555e-02  1.9436260299399294e-02  1.9609477206133975e-02  1.9958688733734766e-02  2.0472064431288933e-02  2.1133391047890328e-02  2.1922542300105475e-02  2.2816543438077631e-02  2.3790487429557923e-02  2.4818268033345747e-02  2.5873121551399779e-02  2.6928004262163234e-02  2.7955879563688592e-02  2.8930003487269047e-02  2.9824296764600706e-02  3.0613879731590198e-02  3.1275792481886222e-02  3.1789915395644797e-02  3.2139979018171706e-02  3.2314229452913533e-02  3.2308728559111453e-02  1.9170598511749928e-02  1.9163968878800338e-02  1.9345375870739527e-02  1.9711308034266978e-02  2.0248713186820110e-02  2.0939939441346634e-02  2.1763335376977781e-02  2.2694546491211085e-02  2.3707549423000237e-02  2.4775417310122776e-02  2.5870812134628034e-02  2.6966257685155402e-02  2.8034293725640473e-02  2.9047626846215941e-02  2.9979392268411023e-02  3.0803631426007838e-02  3.1496028764588534e-02  3.2034952772441255e-02  3.2402636227412095e-02  3.2586182455688457e-02  3.2580776715066831e-02  1.8707456288126756e-02  1.8700078133650915e-02  1.8896158125473263e-02  1.9291541140341328e-02  1.9870897774387348e-02  2.0613874927253754e-02  2.1496044649275323e-02  2.2490617899614609e-02  2.3569686653745592e-02  2.4705022804914500e-02  2.5868457455388735e-02  2.7031947369007898e-02  2.8167477524047871e-02  2.9246958930532176e-02  3.0242278007405300e-02  3.1125651502800895e-02  3.1870375303678707e-02  3.2452071126186720e-02  3.2850206087179250e-02  3.3049690530705625e-02  3.3044265043495065e-02  1.8036902641196992e-02  1.8028503780540096e-02  1.8246954714012519e-02  1.8686776789899197e-02  1.9328813251743956e-02  2.0148232829280667e-02  2.1116177618916952e-02  2.2202154931615977e-02  2.3375578236104439e-02  2.4606559390548330e-02  2.5866057035033183e-02  2.7125584785135423e-02  2.8356701324584385e-02  2.9530496067836861e-02  3.0617275905343990e-02  3.1586678625659163e-02  3.2408384813539338e-02  3.3053651651397932e-02  3.3497398313816935e-02  3.3720801568217024e-02  3.3715254046666705e-02  1.7134672428486982e-02  1.7124881422652827e-02  1.7375514439032198e-02  1.7878614993607454e-02  1.8608715523974105e-02  1.9533806606650429e-02  2.0618283921908943e-02  2.1826382794135176e-02  2.3124069153291234e-02  2.4479683713626299e-02  2.5863641361447764e-02  2.7247556771469533e-02  2.8603112586659374e-02  2.9900923797846007e-02  3.1109641928954351e-02  3.2195619788317018e-02  3.3123435516629322e-02  3.3857741693051481e-02  3.4366210713387940e-02  3.4623819904515789e-02  3.4618067624023544e-02  1.5965888346252659e-02  1.5954172197757278e-02  1.6250412178601167e-02  1.6842059201321681e-02  1.7693087805316737e-02  1.8759993991218627e-02  1.9997092233768249e-02  2.1361447821932372e-02  2.2814998247926866e-02  2.4324679448635693e-02  2.5861288199845612e-02  2.7397716008181670e-02  2.8906946265893969e-02  3.0360047422321942e-02  3.1724421010724063e-02  3.2962661347745871e-02  3.4032485365598497e-02  3.4888759569853038e-02  3.5487631793129394e-02  3.5793676921565466e-02  3.5787680152883430e-02  1.4480985728835546e-02  1.4466542917034057e-02  1.4828134029645539e-02  1.5544485491375513e-02  1.6561317849121879e-02  1.7816503877459290e-02  1.9249512651558422e-02  2.0808189495241526e-02  2.2450463030070044e-02  2.4143110275374888e-02  2.5859142924992778e-02  2.7574772497363752e-02  2.9266298316536776e-02  3.0907060770318160e-02  3.2464522898101505e-02  3.3897598168245370e-02  3.5155273227885267e-02  3.6178297154424943e-02  3.6904363711554505e-02  3.7280014354477434e-02  3.7273829740314450e-02  1.2608614545263444e-02  1.2590015686137771e-02  1.3048345510045550e-02  1.3944631533170295e-02  1.5191651645378890e-02  1.6696706958214413e-02  1.8378035558927249e-02  2.0172853220887136e-02  2.2036610399381217e-02  2.3938696644909330e-02  2.5857436815346638e-02  2.7775451317374668e-02  2.9675420307503801e-02  3.1536071039248596e-02  3.3327455708684874e-02  3.5006164614804332e-02  3.6511913172029439e-02  3.7765790403000696e-02  3.8675243346096157e-02  3.9154362380697992e-02  3.9148291999178651e-02  1.0240941090688295e-02  1.0216895740879027e-02  1.0826206348592115e-02  1.1992543844836577e-02  1.3566203227964188e-02  1.5404035048249946e-02  1.7396224700377005e-02  1.9470924994146377e-02  2.1585906321756179e-02  2.3718337580257490e-02  2.5856476851178010e-02  2.7993487160731460e-02  3.0122606508021052e-02  3.2232255250386893e-02  3.4299442646484060e-02  3.6284565393227344e-02  3.8119730738666209e-02  3.9698104326490895e-02  4.0881150509696609e-02  4.1523359498374511e-02  4.1518873659469886e-02  7.2113322739698347e-03  7.1772883785053213e-03  8.0393421778308695e-03  9.6341361601712371e-03  1.1683110872931883e-02  1.3963732391759680e-02  1.6336928863025093e-02  1.8731900806522428e-02  2.1119539255223724e-02  2.3493063730434680e-02  2.5856629624126413e-02  2.8218690966232123e-02  3.0587746421345326e-02  3.2967071531153219e-02  3.5350008984535060e-02  3.7711153607065999e-02  3.9973546452928124e-02  4.2015180911368306e-02  4.3636455260995063e-02  4.4558949346692980e-02  4.4556274852152432e-02  3.2413350536144941e-03  3.1597160117915520e-03  4.5147386560851670e-03  6.8313669032165269e-03  9.5843311667739763e-03  1.2442645803744108e-02  1.5262545112653417e-02  1.8003681953775243e-02  2.0668934265626205e-02  2.3278370803832424e-02  2.5858189853046075e-02  2.8436302024269534e-02  3.1040438655077111e-02  3.3694905996839948e-02  3.6421827076594360e-02  3.9213019759508652e-02  4.2022365785386609e-02  4.4783359736189153e-02  4.7109645275792290e-02  4.8534985209774645e-02  4.8555162112849486e-02  -2.6365925385520459e-03  -2.3226918594139298e-03  1.6550335429166369e-05  3.6321470052676336e-03  7.4172994114063313e-03  1.0975366606101109e-02  1.4273448903181865e-02  1.7353848280597554e-02  2.0275035880890233e-02  2.3093566930497654e-02  2.5861445660571778e-02  2.8627719562386338e-02  3.1441026481943087e-02  3.4351526285918657e-02  3.7416432732796510e-02  4.0664660719990184e-02  4.4208395004848487e-02  4.7907616786150964e-02  5.1219817260593770e-02  5.4055699902817313e-02  5.4215272269404910e-02  -9.0344023415707322e-03  -1.0766173001225190e-02  -5.7305982361613109e-03  4.7087162082536528e-04  5.5086861627126147e-03  9.7777398696834335e-03  1.3502808093586087e-02  1.6862031933190691e-02  1.9982549787225353e-02  2.2958550308408193e-02  2.5865899832478337e-02  2.8772070762799522e-02  3.1744142808466685e-02  3.4856786931671664e-02  3.8201646651792508e-02  4.1885799534029891e-02  4.6171676235958262e-02  5.0679862312910530e-02  5.6657959177512048e-02  6.2995332680093635e-02  6.2384245383840242e-02  -3.1482562406068490e-02  -2.8740371834310458e-02  -9.9202496960612147e-03  -1.6571524162602915e-03  4.3772234532042610e-03  9.1159221354046773e-03  1.3090621676619396e-02  1.6605088188671385e-02  1.9832636943950020e-02  2.2891629841064104e-02  2.5872127356232490e-02  2.8852260435868065e-02  3.1910052787237811e-02  3.5135235191445714e-02  3.8644217968378247e-02  4.2613047160409569e-02  4.7342246156614462e-02  5.3040717912699251e-02  6.3702007568807853e-02  7.0015231322379828e-02  8.2068165166074195e-02  -2.2541487515917211e-01  -1.8309106468423025e-02  -9.8811671201053074e-03  -1.8319492284662969e-03  4.4619538069459747e-03  9.1417436110523657e-03  1.3109872243058639e-02  1.6618181342729719e-02  1.9841452950965201e-02  2.2897561511007622e-02  2.5875931987511831e-02  2.8854446322597614e-02  3.1911034812874779e-02  3.5135366143833585e-02  3.8645211014697839e-02  4.2617903680745979e-02  4.7315820954464100e-02  5.3452879496549241e-02  6.2637926644873845e-02  6.9169210226681530e-02  1.8802077051054972e-01  </DataArray> 
</PointData> 
</Piece>
</UnstructuredGrid>
</VTKFile>