<?xml version="1.0"?>
<VTKFile type="UnstructuredGrid"  version="0.1"  >
<UnstructuredGrid>
<Piece  NumberOfPoints="651" NumberOfCells="1200">
<Points>
<DataArray  type="Float64"  NumberOfComponents="3"  format="ascii">0 0 0  50000 0 0  100000 0 0  150000 0 0  200000 0 0  250000 0 0  300000 0 0  350000 0 0  400000 0 0  450000 0 0  500000 0 0  550000 0 0  600000 0 0  650000 0 0  700000 0 0  750000 0 0  800000 0 0  850000 0 0  900000 0 0  950000 0 0  1000000 0 0  0 50000 0  50000 50000 0  100000 50000 0  150000 50000 0  200000 50000 0  250000 50000 0  300000 50000 0  350000 50000 0  400000 50000 0  450000 50000 0  500000 50000 0  550000 50000 0  600000 50000 0  650000 50000 0  700000 50000 0  750000 50000 0  800000 50000 0  850000 50000 0  900000 50000 0  950000 50000 0  1000000 50000 0  0 100000 0  50000 100000 0  100000 100000 0  150000 100000 0  200000 100000 0  250000 100000 0  300000 100000 0  350000 100000 0  400000 100000 0  450000 100000 0  500000 100000 0  550000 100000 0  600000 100000 0  650000 100000 0  700000 100000 0  750000 100000 0  800000 100000 0  850000 100000 0  900000 100000 0  950000 100000 0  1000000 100000 0  0 150000 0  50000 150000 0  100000 150000 0  150000 150000 0  200000 150000 0  250000 150000 0  300000 150000 0  350000 150000 0  400000 150000 0  450000 150000 0  500000 150000 0  550000 150000 0  600000 150000 0  650000 150000 0  700000 150000 0  750000 150000 0  800000 150000 0  850000 150000 0  900000 150000 0  950000 150000 0  1000000 150000 0  0 200000 0  50000 200000 0  100000 200000 0  150000 200000 0  200000 200000 0  250000 200000 0  300000 200000 0  350000 200000 0  400000 200000 0  450000 200000 0  500000 200000 0  550000 200000 0  600000 200000 0  650000 200000 0  700000 200000 0  750000 200000 0  800000 200000 0  850000 200000 0  900000 200000 0  950000 200000 0  1000000 200000 0  0 250000 0  50000 250000 0  100000 250000 0  150000 250000 0  200000 250000 0  250000 250000 0  300000 250000 0  350000 250000 0  400000 250000 0  450000 250000 0  500000 250000 0  550000 250000 0  600000 250000 0  650000 250000 0  700000 250000 0  750000 250000 0  800000 250000 0  850000 250000 0  900000 250000 0  950000 250000 0  1000000 250000 0  0 300000 0  50000 300000 0  100000 300000 0  150000 300000 0  200000 300000 0  250000 300000 0  300000 300000 0  350000 300000 0  400000 300000 0  450000 300000 0  500000 300000 0  550000 300000 0  600000 300000 0  650000 300000 0  700000 300000 0  750000 300000 0  800000 300000 0  850000 300000 0  900000 300000 0  950000 300000 0  1000000 300000 0  0 350000 0  50000 350000 0  100000 350000 0  150000 350000 0  200000 350000 0  250000 350000 0  300000 350000 0  350000 350000 0  400000 350000 0  450000 350000 0  500000 350000 0  550000 350000 0  600000 350000 0  650000 350000 0  700000 350000 0  750000 350000 0  800000 350000 0  850000 350000 0  900000 350000 0  950000 350000 0  1000000 350000 0  0 400000 0  50000 400000 0  100000 400000 0  150000 400000 0  200000 400000 0  250000 400000 0  300000 400000 0  350000 400000 0  400000 400000 0  450000 400000 0  500000 400000 0  550000 400000 0  600000 400000 0  650000 400000 0  700000 400000 0  750000 400000 0  800000 400000 0  850000 400000 0  900000 400000 0  950000 400000 0  1000000 400000 0  0 450000 0  50000 450000 0  100000 450000 0  150000 450000 0  200000 450000 0  250000 450000 0  300000 450000 0  350000 450000 0  400000 450000 0  450000 450000 0  500000 450000 0  550000 450000 0  600000 450000 0  650000 450000 0  700000 450000 0  750000 450000 0  800000 450000 0  850000 450000 0  900000 450000 0  950000 450000 0  1000000 450000 0  0 500000 0  50000 500000 0  100000 500000 0  150000 500000 0  200000 500000 0  250000 500000 0  300000 500000 0  350000 500000 0  400000 500000 0  450000 500000 0  500000 500000 0  550000 500000 0  600000 500000 0  650000 500000 0  700000 500000 0  750000 500000 0  800000 500000 0  850000 500000 0  900000 500000 0  950000 500000 0  1000000 500000 0  0 550000 0  50000 550000 0  100000 550000 0  150000 550000 0  200000 550000 0  250000 550000 0  300000 550000 0  350000 550000 0  400000 550000 0  450000 550000 0  500000 550000 0  550000 550000 0  600000 550000 0  650000 550000 0  700000 550000 0  750000 550000 0  800000 550000 0  850000 550000 0  900000 550000 0  950000 550000 0  1000000 550000 0  0 600000 0  50000 600000 0  100000 600000 0  150000 600000 0  200000 600000 0  250000 600000 0  300000 600000 0  350000 600000 0  400000 600000 0  450000 600000 0  500000 600000 0  550000 600000 0  600000 600000 0  650000 600000 0  700000 600000 0  750000 600000 0  800000 600000 0  850000 600000 0  900000 600000 0  950000 600000 0  1000000 600000 0  0 650000 0  50000 650000 0  100000 650000 0  150000 650000 0  200000 650000 0  250000 650000 0  300000 650000 0  350000 650000 0  400000 650000 0  450000 650000 0  500000 650000 0  550000 650000 0  600000 650000 0  650000 650000 0  700000 650000 0  750000 650000 0  800000 650000 0  850000 650000 0  900000 650000 0  950000 650000 0  1000000 650000 0  0 700000 0  50000 700000 0  100000 700000 0  150000 700000 0  200000 700000 0  250000 700000 0  300000 700000 0  350000 700000 0  400000 700000 0  450000 700000 0  500000 700000 0  550000 700000 0  600000 700000 0  650000 700000 0  700000 700000 0  750000 700000 0  800000 700000 0  850000 700000 0  900000 700000 0  950000 700000 0  1000000 700000 0  0 750000 0  50000 750000 0  100000 750000 0  150000 750000 0  200000 750000 0  250000 750000 0  300000 750000 0  350000 750000 0  400000 750000 0  450000 750000 0  500000 750000 0  550000 750000 0  600000 750000 0  650000 750000 0  700000 750000 0  750000 750000 0  800000 750000 0  850000 750000 0  900000 750000 0  950000 750000 0  1000000 750000 0  0 800000 0  50000 800000 0  100000 800000 0  150000 800000 0  200000 800000 0  250000 800000 0  300000 800000 0  350000 800000 0  400000 800000 0  450000 800000 0  500000 800000 0  550000 800000 0  600000 800000 0  650000 800000 0  700000 800000 0  750000 800000 0  800000 800000 0  850000 800000 0  900000 800000 0  950000 800000 0  1000000 800000 0  0 850000 0  50000 850000 0  100000 850000 0  150000 850000 0  200000 850000 0  250000 850000 0  300000 850000 0  350000 850000 0  400000 850000 0  450000 850000 0  500000 850000 0  550000 850000 0  600000 850000 0  650000 850000 0  700000 850000 0  750000 850000 0  800000 850000 0  850000 850000 0  900000 850000 0  950000 850000 0  1000000 850000 0  0 900000 0  50000 900000 0  100000 900000 0  150000 900000 0  200000 900000 0  250000 900000 0  300000 900000 0  350000 900000 0  400000 900000 0  450000 900000 0  500000 900000 0  550000 900000 0  600000 900000 0  650000 900000 0  700000 900000 0  750000 900000 0  800000 900000 0  850000 900000 0  900000 900000 0  950000 900000 0  1000000 900000 0  0 950000 0  50000 950000 0  100000 950000 0  150000 950000 0  200000 950000 0  250000 950000 0  300000 950000 0  350000 950000 0  400000 950000 0  450000 950000 0  500000 950000 0  550000 950000 0  600000 950000 0  650000 950000 0  700000 950000 0  750000 950000 0  800000 950000 0  850000 950000 0  900000 950000 0  950000 950000 0  1000000 950000 0  0 1000000 0  50000 1000000 0  100000 1000000 0  150000 1000000 0  200000 1000000 0  250000 1000000 0  300000 1000000 0  350000 1000000 0  400000 1000000 0  450000 1000000 0  500000 1000000 0  550000 1000000 0  600000 1000000 0  650000 1000000 0  700000 1000000 0  750000 1000000 0  800000 1000000 0  850000 1000000 0  900000 1000000 0  950000 1000000 0  1000000 1000000 0  0 1050000 0  50000 1050000 0  100000 1050000 0  150000 1050000 0  200000 1050000 0  250000 1050000 0  300000 1050000 0  350000 1050000 0  400000 1050000 0  450000 1050000 0  500000 1050000 0  550000 1050000 0  600000 1050000 0  650000 1050000 0  700000 1050000 0  750000 1050000 0  800000 1050000 0  850000 1050000 0  900000 1050000 0  950000 1050000 0  1000000 1050000 0  0 1100000 0  50000 1100000 0  100000 1100000 0  150000 1100000 0  200000 1100000 0  250000 1100000 0  300000 1100000 0  350000 1100000 0  400000 1100000 0  450000 1100000 0  500000 1100000 0  550000 1100000 0  600000 1100000 0  650000 1100000 0  700000 1100000 0  750000 1100000 0  800000 1100000 0  850000 1100000 0  900000 1100000 0  950000 1100000 0  1000000 1100000 0  0 1150000 0  50000 1150000 0  100000 1150000 0  150000 1150000 0  200000 1150000 0  250000 1150000 0  300000 1150000 0  350000 1150000 0  400000 1150000 0  450000 1150000 0  500000 1150000 0  550000 1150000 0  600000 1150000 0  650000 1150000 0  700000 1150000 0  750000 1150000 0  800000 1150000 0  850000 1150000 0  900000 1150000 0  950000 1150000 0  1000000 1150000 0  0 1200000 0  50000 1200000 0  100000 1200000 0  150000 1200000 0  200000 1200000 0  250000 1200000 0  300000 1200000 0  350000 1200000 0  400000 1200000 0  450000 1200000 0  500000 1200000 0  550000 1200000 0  600000 1200000 0  650000 1200000 0  700000 1200000 0  750000 1200000 0  800000 1200000 0  850000 1200000 0  900000 1200000 0  950000 1200000 0  1000000 1200000 0  0 1250000 0  50000 1250000 0  100000 1250000 0  150000 1250000 0  200000 1250000 0  250000 1250000 0  300000 1250000 0  350000 1250000 0  400000 1250000 0  450000 1250000 0  500000 1250000 0  550000 1250000 0  600000 1250000 0  650000 1250000 0  700000 1250000 0  750000 1250000 0  800000 1250000 0  850000 1250000 0  900000 1250000 0  950000 1250000 0  1000000 1250000 0  0 1300000 0  50000 1300000 0  100000 1300000 0  150000 1300000 0  200000 1300000 0  250000 1300000 0  300000 1300000 0  350000 1300000 0  400000 1300000 0  450000 1300000 0  500000 1300000 0  550000 1300000 0  600000 1300000 0  650000 1300000 0  700000 1300000 0  750000 1300000 0  800000 1300000 0  850000 1300000 0  900000 1300000 0  950000 1300000 0  1000000 1300000 0  0 1350000 0  50000 1350000 0  100000 1350000 0  150000 1350000 0  200000 1350000 0  250000 1350000 0  300000 1350000 0  350000 1350000 0  400000 1350000 0  450000 1350000 0  500000 1350000 0  550000 1350000 0  600000 1350000 0  650000 1350000 0  700000 135
[...]
<PointData  Scalars="f_4507"> 
<DataArray  type="Float64"  Name="f_4507"  format="ascii">-1.1945539641402853e-01  -1.4691498211530976e-02  -8.2084087075553116e-03  2.5056880109379786e-04  5.9612163935200647e-03  1.0347476589213249e-02  1.4058447637763351e-02  1.7340033000143588e-02  2.0356182779822086e-02  2.3216324894724933e-02  2.6003846697534277e-02  2.8791257969741857e-02  3.1651029177259885e-02  3.4666365960925247e-02  3.7946766608882028e-02  4.1654140599879950e-02  4.6026733559324073e-02  5.1866792729244965e-02  5.9392928206791429e-02  6.7619388951541917e-02  2.4949487532019948e-01  -2.5750643051457890e-02  -1.4900364657033783e-02  -8.9875099311453269e-03  6.7587748087191040e-04  5.9784428584708175e-03  1.0373325976680829e-02  1.4072869573047403e-02  1.7348656526301433e-02  2.0362119395311830e-02  2.3220724167344140e-02  2.6007426812035411e-02  2.8794487521845571e-02  3.1654270269632127e-02  3.4670077910620309e-02  3.7951071821642902e-02  4.1656739730960901e-02  4.6063450760571258e-02  5.1653282815752627e-02  5.9272923560766050e-02  7.6131398825593832e-02  7.8613401986364281e-02  -8.0156217034527810e-03  -8.3729475473700663e-03  -2.5969696248408993e-03  2.8951098991325578e-03  7.0938697819749067e-03  1.1064978256671737e-02  1.4496398095704553e-02  1.7615418711300901e-02  2.0521212951844395e-02  2.3297574239430682e-02  2.6013193247602488e-02  2.8729919671469664e-02  3.1509960788593298e-02  3.4423124343559007e-02  3.7555744285919866e-02  4.1023586205257707e-02  4.4987243773495118e-02  4.9647363129832853e-02  5.5337214999061926e-02  5.9993476001500678e-02  5.8715666189455479e-02  -4.5276938323206685e-04  -2.3665336751653172e-04  2.4001399738306185e-03  5.4894966453730796e-03  8.9178839317077332e-03  1.2207473070905452e-02  1.5233541183429664e-02  1.8090375896266275e-02  2.0806520348774799e-02  2.3433466989938229e-02  2.6017259136351757e-02  2.8602540958621601e-02  3.1234340559834810e-02  3.3960285255207855e-02  3.6831897100800259e-02  3.9901920840334511e-02  4.3207529256449412e-02  4.6715970192064069e-02  5.0067870873842825e-02  5.2273324123934303e-02  5.2602112532253026e-02  4.7926290078776513e-03  4.8541222789349539e-03  6.2071801055502297e-03  8.3769592076092612e-03  1.0943588092289411e-02  1.3560624753085934e-02  1.6161418464938324e-02  1.8704044044383347e-02  2.1181320781449534e-02  2.3612638943927514e-02  2.6020261590233407e-02  2.8429455978661027e-02  3.0865693127640193e-02  3.3352785393412680e-02  3.5908757888205821e-02  3.8535666235810125e-02  4.1195831323177189e-02  4.3757705218461319e-02  4.5920284926652774e-02  4.7206201545034167e-02  4.7177952991133157e-02  8.5144775023270648e-03  8.5399391719784192e-03  9.4195671609802138e-03  1.0938979120756476e-02  1.2846095030080761e-02  1.4956695330339012e-02  1.7158742567330115e-02  1.9382395154881878e-02  2.1603521145571628e-02  2.3815671849739126e-02  2.6021667093151044e-02  2.8229039507476999e-02  3.0445323766303274e-02  3.2674055996636572e-02  3.4908674596796876e-02  3.7122102118338655e-02  3.9249151178427817e-02  4.1162521887850627e-02  4.2658684359950676e-02  4.3483545665298273e-02  4.3479693351996043e-02  1.1344809718307937e-02  1.1360142066319981e-02  1.1975524879831436e-02  1.3088923368262881e-02  1.4566804835761935e-02  1.6281646814014294e-02  1.8135718901295173e-02  2.0066308042801847e-02  2.2036653870386069e-02  2.4025459168948275e-02  2.6021784931605136e-02  2.8019144312836496e-02  3.0010992712850976e-02  3.1986259225963411e-02  3.3923681109692239e-02  3.5784210700145105e-02  3.7501702432207608e-02  3.8975336751934701e-02  4.0073526406718012e-02  4.0658623275258488e-02  4.0655815645450115e-02  1.3555782766358576e-02  1.3564871468585475e-02  1.4025376799491627e-02  1.4883438954613278e-02  1.6059996138860989e-02  1.7469558052377529e-02  1.9039397000894975e-02  2.0713828634747144e-02  2.2452758795734998e-02  2.4228389786073647e-02  2.6020875710639206e-02  2.7814029202604024e-02  2.9591599801918035e-02  3.1333388171209627e-02  3.3010990655359389e-02  3.4583218572277287e-02  3.5992159758617533e-02  3.7162492548823214e-02  3.8008569375292026e-02  3.8449878227454194e-02  3.8447366350707689e-02  1.5305229444299828e-02  1.5311108864265803e-02  1.5672944067568802e-02  1.6359364190331939e-02  1.7321008548123282e-02  1.8500032560447376e-02  1.9841683516709084e-02  2.1298797201425596e-02  2.2833331636070174e-02  2.4415087879331072e-02  2.6019281963674357e-02  2.7623847531686299e-02  2.9206634419148687e-02  3.0742553896197521e-02  3.2200789467681817e-02  3.3542397383114757e-02  3.4719156245469583e-02  3.5675119449926601e-02  3.6352641861597736e-02  3.6701476752510093e-02  3.6699677826905107e-02  1.6692977195880383e-02  1.6696939559275401e-02  1.6992232465398108e-02  1.7559283629826387e-02  1.8365317136250583e-02  1.9369482850424367e-02  2.0529960141847711e-02  2.1807555933824632e-02  2.3167584652753474e-02  2.4579789215172072e-02  2.6017285356538980e-02  2.7454947752602044e-02  2.8867567798051632e-02  3.0228011135436279e-02  3.1505592186641673e-02  3.2665024963481157e-02  3.3666520706013087e-02  3.4467731724057926e-02  3.5028145250676115e-02  3.5314353874942236e-02  3.5312993907808010e-02  1.7785599854427930e-02  1.7788329362039512e-02  1.8037230164894863e-02  1.8519284745365124e-02  1.9211317971431229e-02  2.0083123451691363e-02  2.1101864929906056e-02  2.2234644734547577e-02  2.3450221971111313e-02  2.4719476632106375e-02  2.6015097543790069e-02  2.7310757274149326e-02  2.8580066230071324e-02  2.9795530033195256e-02  3.0927742972600064e-02  3.1945107020547092e-02  3.2814409758930435e-02  3.3502567424418719e-02  3.3979680296480137e-02  3.4222110704261198e-02  3.4221077961160765e-02  1.8629265325376516e-02  1.8631152952880568e-02  1.8847251149348317e-02  1.9268377406763213e-02  1.9877088419426415e-02  2.0649891107735619e-02  2.1560031210059033e-02  2.2579302989091492e-02  2.3679479529424730e-02  2.4832956077404246e-02  2.6012852120516117e-02  2.7192720619346140e-02  2.8346073003554798e-02  2.9445908501436246e-02  3.0464443044286211e-02  3.1373242375959939e-02  3.2143941006449836e-02  3.2749670857149561e-02  3.3167179311591501e-02  3.3378680483860577e-02  3.3377910086389469e-02  1.9256456455095317e-02  1.9257737119188455e-02  1.9450880509634925e-02  1.9829032018140062e-02  2.0378204445064933e-02  2.1079128209595874e-02  2.1909076031063329e-02  2.2843172248426580e-02  2.3855560770240741e-02  2.4920086527477955e-02  2.6010620716321899e-02  2.7101104150385105e-02  2.8165451667705645e-02  2.9177460855239427e-02  3.0110871022239794e-02  3.0939710410756285e-02  3.1639024999929648e-02  3.2186036631385077e-02  3.2561648911883657e-02  3.2751630329732294e-02  3.2751089869861361e-02  1.9689772846290733e-02  1.9690594976116933e-02  1.9868437737457910e-02  2.0217883369441227e-02  2.0726975438555117e-02  2.1379017420800027e-02  2.2153820033699423e-02  2.3028710857677850e-02  2.3979513335199858e-02  2.4981219919496450e-02  2.6008431352173428e-02  2.7035596152087935e-02  2.8037148113525260e-02  2.8987646833039407e-02  2.9862027401858410e-02  3.0636053013634139e-02  3.1287015262051888e-02  3.1794703434541202e-02  3.2142532163447438e-02  3.2318387344731449e-02  3.2318067693435461e-02  1.9944139961195956e-02  1.9944600746984360e-02  2.0113522502766854e-02  2.0446355484920693e-02  2.0932200704136962e-02  2.1555757081109888e-02  2.2298233447819359e-02  2.3138208979271435e-02  2.4052500928755334e-02  2.5016824098844502e-02  2.6006283594441439e-02  2.6995716244384727e-02  2.7959952304994356e-02  2.8874078659261542e-02  2.9713785156812857e-02  3.0455863551289385e-02  3.1078879289865136e-02  3.1564033608732049e-02  3.1896079616086960e-02  3.2064040922278415e-02  3.2063950777951995e-02  2.0028079493521582e-02  2.0028243661625370e-02  2.0193948524480906e-02  2.0521106589486551e-02  2.0999123750195848e-02  2.1613157308452261e-02  2.2344860709697205e-02  2.3173215413472878e-02  2.4075360343048545e-02  2.5027249171886076e-02  2.6004160401719434e-02  2.6981071631552736e-02  2.7932960460390330e-02  2.8835105389966059e-02  2.9663460093741718e-02  3.0395163494986749e-02  3.1009197053243211e-02  3.1487214213952570e-02  3.1814372278958232e-02  3.1980077141813758e-02  3.1980241309917556e-02  1.9944370025487268e-02  1.9944279881160803e-02  2.0112241187352269e-02  2.0444287194707107e-02  2.0929441513574006e-02  2.1552457252149663e-02  2.2294535646626156e-02  2.3134242144177447e-02  2.4048368498444501e-02  2.5012604559054123e-02  2.6002037208997419e-02  2.6991496704594362e-02  2.7955819874683530e-02  2.8870111824167419e-02  2.9710087355619520e-02  3.0452563722329035e-02  3.1076120099302072e-02  3.1561965318518341e-02  3.1894798300672246e-02  3.2063720056454699e-02  3.2064180842243183e-02  1.9690253110003761e-02  1.9689933458707867e-02  1.9865788639991857e-02  2.0213617368898051e-02  2.0721305541387281e-02  2.1372267789804975e-02  2.2146293401580620e-02  2.3020673970399561e-02  2.3971172689913639e-02  2.4972724651350961e-02  2.5999889451265402e-02  2.7027100883942366e-02  2.8028807468238947e-02  2.8979609945760990e-02  2.9854500769739473e-02  3.0629303382638917e-02  3.1281345364883882e-02  3.1790437433997759e-02  3.2139883065981180e-02  3.2317725827322168e-02  3.2318547957148343e-02  1.9257230933578135e-02  1.9256690473707157e-02  1.9446671891555790e-02  1.9822284172054269e-02  2.0369295803509671e-02  2.1068610392682905e-02  2.1897449781199323e-02  2.2830859948199583e-02  2.3842869135733302e-02  2.4907216653053760e-02  2.5997700087116948e-02  2.7088234275960871e-02  2.8152760033198082e-02  2.9165148555012205e-02  3.0099244772375550e-02  3.0929192593843004e-02  3.1630116358374018e-02  3.2179288785298986e-02  3.2557440293804099e-02  3.2750583684250587e-02  3.2751864348343741e-02  1.8630410717050117e-02  1.8629640319578995e-02  1.8841141491848071e-02  1.9258649946289935e-02  1.9864379796989563e-02  2.0635078427479314e-02  2.1543877759152983e-02  2.2562412302002781e-02  2.3662247799884142e-02  2.4815600184092727e-02  2.5995468682922702e-02  2.7175364726034552e-02  2.8328841274014051e-02  2.9429017814347255e-02  3.0448289593379745e-02  3.1358429695703204e-02  3.2131232384012567e-02  3.2739943396675776e-02  3.3161069654090713e-02  3.3377167850558491e-02  3.3379055478062518e-02  1.7787242842279019e-02  1.7786210099178589e-02  1.8028640506959622e-02  1.8505753379020887e-02  1.9193911044509109e-02  2.0063213782892275e-02  2.1080577830839182e-02  2.2212790770243830e-02  2.3428254573367661e-02  2.4697563529289524e-02  2.5993223259648715e-02  2.7288844171332372e-02  2.8558098832327412e-02  2.9773676068891176e-02  3.0906455873532752e-02  3.1925197351747515e-02  3.2797002832007739e-02  3.3489036058073872e-02  3.3971090638544206e-02  3.4219991441399568e-02  3.4222720949011180e-02  1.6695326895632051e-02  1.6693966928497769e-02  1.6980175552763824e-02  1.7540589079381930e-02  1.8341800097426586e-02  1.9343295839958297e-02  2.0502728616797611e-02  2.1780309668002790e-02  2.3140753005387333e-02  2.4553373050836848e-02  2.5991035446899770e-02  2.7428531588266639e-02  2.8840736150685210e-02  3.0200764869614087e-02  3.1478360661591077e-02  3.2638837953014470e-02  3.3643003667188344e-02  3.4449037173612647e-02  3.5016088338041006e-02  3.5311381244163748e-02  3.5315343607558766e-02  1.5308642976535166e-02  1.5306844050930156e-02  1.5655678941842482e-02  1.6333201353513408e-02  1.7289164557970197e-02  1.8465923420324822e-02  1.9807531335757484e-02  2.1265766907241621e-02  2.2801686384290299e-02  2.4384473271752506e-02  2.5989038839764333e-02  2.7593232924107584e-02  2.9174989167368486e-02  3.0709523602013060e-02  3.2166637286729645e-02  3.3508288242991451e-02  3.4687312255315662e-02  3.5648956613107151e-02  3.6335376735870339e-02  3.6697211939173413e-02  3.6703091359139427e-02  1.3560954452732886e-02  1.3558442575986426e-02  1.3999751428148431e-02  1.4845828254616986e-02  1.6016161044822366e-02  1.7425102231162320e-02  1.8997330148079916e-02  2.0674932632229442e-02  2.2416721001520829e-02  2.4194291600834701e-02  2.5987445092799398e-02  2.7779931017364902e-02  2.9555562007703561e-02  3.1294492168691429e-02  3.2968923802543647e-02  3.4538762751061193e-02  3.5948324664577931e-02  3.7124881848825862e-02  3.7982944003947659e-02  3.8443449334853920e-02  3.8452538037080819e-02  1.1352505157990881e-02  1.1349697528182474e-02  1.1934794396722754e-02  1.3032984051505721e-02  1.4506618371232391e-02  1.6224110103294536e-02  1.8084639693747032e-02  2.0022061577475589e-02  2.1997328090587839e-02  2.3989176490602126e-02  2.5986535871833354e-02  2.7982861634490153e-02  2.9971666933052327e-02  3.1942012760636539e-02  3.3872601902143334e-02  3.5726673989424342e-02  3.7441515967676968e-02  3.8919397435176285e-02  4.0032795923608040e-02  4.0648178737119650e-02  4.0663511085131741e-02  8.5286274514455168e-03  8.5247751381432296e-03  9.3496364434905409e-03  1.0845798915590021e-02  1.2759169625012232e-02  1.4886218685100856e-02  1.7099646206642210e-02  1.9334264806802316e-02  2.1562997037135396e-02  2.3779281295961460e-02  2.5986653710287307e-02  2.8192648953699120e-02  3.0404799657866646e-02  3.2625925648556341e-02  3.4849578236108146e-02  3.7051625473099453e-02  3.9162225773357991e-02  4.1069341682682732e-02  4.2588753642459481e-02  4.3468381631461599e-02  4.3493843301112931e-02  4.8303678123090468e-03  4.8021192584080325e-03  6.0880358767888693e-03  8.2506155849793456e-03  1.0812489480262703e-02  1.3472654567629092e-02  1.6099562915233071e-02  1.8655535410025969e-02  2.1142627675798234e-02  2.3578864824777238e-02  2.5988059213204760e-02  2.8395681859510559e-02  3.0827000021988470e-02  3.3304276759054570e-02  3.5846902338499638e-02  3.8447696050352219e-02  4.1064732711149021e-02  4.3631361595829928e-02  4.5801140697889743e-02  4.7154198524505544e-02  4.7215691795562939e-02  -5.9379172880965041e-04  -2.6500332049113134e-04  1.9404499295991753e-03  5.2923506113762633e-03  8.8007915469898775e-03  1.2106399963104251e-02  1.5176423702638183e-02  1.8048035548230475e-02  2.0773980243603395e-02  2.3405779844816510e-02  2.5991061667086209e-02  2.8574853813499654e-02  3.1201800454662934e-02  3.3917944907171309e-02  3.6774779620007900e-02  3.9800847732532042e-02  4.3090436871730149e-02  4.6518824158065318e-02  4.9608180829608731e-02  5.2244974170957990e-02  5.2461090186673810e-02  -6.7073453860131173e-03  -7.9851551980553333e-03  -3.3288941956208509e-03  2.3609576736058238e-03  7.0210770299428821e-03  1.0984734598180147e-02  1.4452576517518070e-02  1.7585196459878986e-02  2.0498360014844650e-02  2.3278401131968246e-02  2.5995127555835353e-02  2.8710746564006993e-02  3.1487107851593102e-02  3.4392902092136322e-02  3.7511922707732410e-02  4.0943342546764940e-02  4.4914451021461611e-02  4.9113210904304205e-02  5.4605290428280800e-02  6.0381268350814386e-02  6.0023942506894912e-02  -2.6605081182887756e-02  -2.4123078022152352e-02  -7.2646027573304815e-03  3.5503798768296628e-04  5.9448700428652414e-03  1.0351581072476268e-02  1.4057248981794708e-02  1.7338242892817549e-02  2.0354050533805835e-02  2.3213833281592412e-02  2.6000893991402485e-02  2.8787596636093600e-02  3.1646201408125643e-02  3.4659664277135668e-02  3.7935451230389196e-02  4.1634994826755055e-02  4.6029877944964021e-02  5.1332443322562274e-02  6.0995830734577018e-02  6.6908685460465619e-02  7.7758963854909449e-02  -1.9748655451667754e-01  -1.5611068148093127e-02  -7.3846074033564295e-03  1.4152807419113024e-04  5.9815872441127838e-03  1.0354180203557436e-02  1.4061554194555966e-02  1.7341954842512809e-02  2.0357291626178452e-02  2.3217062833696414e-02  2.6004474105903969e-02  2.8791995908713036e-02  3.1652138023615731e-02  3.4668287803293819e-02  3.7949873165673546e-02  4.1660844214222885e-02  4.6047104409915184e-02  5.1757752002340403e-02  6.0216729510986847e-02  6.6699819014970754e-02  1.7146371721754758e-01  </DataArray> 
</PointData> 
</Piece>
</UnstructuredGrid>
</VTKFile>