<?xml version="1.0"?>
<VTKFile type="UnstructuredGrid"  version="0.1"  >
<UnstructuredGrid>
<Piece  NumberOfPoints="651" NumberOfCells="1200">
<Points>
<DataArray  type="Float64"  NumberOfComponents="3"  format="ascii">0 0 0  50000 0 0  100000 0 0  150000 0 0  200000 0 0  250000 0 0  300000 0 0  350000 0 0  400000 0 0  450000 0 0  500000 0 0  550000 0 0  600000 0 0  650000 0 0  700000 0 0  750000 0 0  800000 0 0  850000 0 0  900000 0 0  950000 0 0  1000000 0 0  0 50000 0  50000 50000 0  100000 50000 0  150000 50000 0  200000 50000 0  250000 50000 0  300000 50000 0  350000 50000 0  400000 50000 0  450000 50000 0  500000 50000 0  550000 50000 0  600000 50000 0  650000 50000 0  700000 50000 0  750000 50000 0  800000 50000 0  850000 50000 0  900000 50000 0  950000 50000 0  1000000 50000 0  0 100000 0  50000 100000 0  100000 100000 0  150000 100000 0  200000 100000 0  250000 100000 0  300000 100000 0  350000 100000 0  400000 100000 0  450000 100000 0  500000 100000 0  550000 100000 0  600000 100000 0  650000 100000 0  700000 100000 0  750000 100000 0  800000 100000 0  850000 100000 0  900000 100000 0  950000 100000 0  1000000 100000 0  0 150000 0  50000 150000 0  100000 150000 0  150000 150000 0  200000 150000 0  250000 150000 0  300000 150000 0  350000 150000 0  400000 150000 0  450000 150000 0  500000 150000 0  550000 150000 0  600000 150000 0  650000 150000 0  700000 150000 0  750000 150000 0  800000 150000 0  850000 150000 0  900000 150000 0  950000 150000 0  1000000 150000 0  0 200000 0  50000 200000 0  100000 200000 0  150000 200000 0  200000 200000 0  250000 200000 0  300000 200000 0  350000 200000 0  400000 200000 0  450000 200000 0  500000 200000 0  550000 200000 0  600000 200000 0  650000 200000 0  700000 200000 0  750000 200000 0  800000 200000 0  850000 200000 0  900000 200000 0  950000 200000 0  1000000 200000 0  0 250000 0  50000 250000 0  100000 250000 0  150000 250000 0  200000 250000 0  250000 250000 0  300000 250000 0  350000 250000 0  400000 250000 0  450000 250000 0  500000 250000 0  550000 250000 0  600000 250000 0  650000 250000 0  700000 250000 0  750000 250000 0  800000 250000 0  850000 250000 0  900000 250000 0  950000 250000 0  1000000 250000 0  0 300000 0  50000 300000 0  100000 300000 0  150000 300000 0  200000 300000 0  250000 300000 0  300000 300000 0  350000 300000 0  400000 300000 0  450000 300000 0  500000 300000 0  550000 300000 0  600000 300000 0  650000 300000 0  700000 300000 0  750000 300000 0  800000 300000 0  850000 300000 0  900000 300000 0  950000 300000 0  1000000 300000 0  0 350000 0  50000 350000 0  100000 350000 0  150000 350000 0  200000 350000 0  250000 350000 0  300000 350000 0  350000 350000 0  400000 350000 0  450000 350000 0  500000 350000 0  550000 350000 0  600000 350000 0  650000 350000 0  700000 350000 0  750000 350000 0  800000 350000 0  850000 350000 0  900000 350000 0  950000 350000 0  1000000 350000 0  0 400000 0  50000 400000 0  100000 400000 0  150000 400000 0  200000 400000 0  250000 400000 0  300000 400000 0  350000 400000 0  400000 400000 0  450000 400000 0  500000 400000 0  550000 400000 0  600000 400000 0  650000 400000 0  700000 400000 0  750000 400000 0  800000 400000 0  850000 400000 0  900000 400000 0  950000 400000 0  1000000 400000 0  0 450000 0  50000 450000 0  100000 450000 0  150000 450000 0  200000 450000 0  250000 450000 0  300000 450000 0  350000 450000 0  400000 450000 0  450000 450000 0  500000 450000 0  550000 450000 0  600000 450000 0  650000 450000 0  700000 450000 0  750000 450000 0  800000 450000 0  850000 450000 0  900000 450000 0  950000 450000 0  1000000 450000 0  0 500000 0  50000 500000 0  100000 500000 0  150000 500000 0  200000 500000 0  250000 500000 0  300000 500000 0  350000 500000 0  400000 500000 0  450000 500000 0  500000 500000 0  550000 500000 0  600000 500000 0  650000 500000 0  700000 500000 0  750000 500000 0  800000 500000 0  850000 500000 0  900000 500000 0  950000 500000 0  1000000 500000 0  0 550000 0  50000 550000 0  100000 550000 0  150000 550000 0  200000 550000 0  250000 550000 0  300000 550000 0  350000 550000 0  400000 550000 0  450000 550000 0  500000 550000 0  550000 550000 0  600000 550000 0  650000 550000 0  700000 550000 0  750000 550000 0  800000 550000 0  850000 550000 0  900000 550000 0  950000 550000 0  1000000 550000 0  0 600000 0  50000 600000 0  100000 600000 0  150000 600000 0  200000 600000 0  250000 600000 0  300000 600000 0  350000 600000 0  400000 600000 0  450000 600000 0  500000 600000 0  550000 600000 0  600000 600000 0  650000 600000 0  700000 600000 0  750000 600000 0  800000 600000 0  850000 600000 0  900000 600000 0  950000 600000 0  1000000 600000 0  0 650000 0  50000 650000 0  100000 650000 0  150000 650000 0  200000 650000 0  250000 650000 0  300000 650000 0  350000 650000 0  400000 650000 0  450000 650000 0  500000 650000 0  550000 650000 0  600000 650000 0  650000 650000 0  700000 650000 0  750000 650000 0  800000 650000 0  850000 650000 0  900000 650000 0  950000 650000 0  1000000 650000 0  0 700000 0  50000 700000 0  100000 700000 0  150000 700000 0  200000 700000 0  250000 700000 0  300000 700000 0  350000 700000 0  400000 700000 0  450000 700000 0  500000 700000 0  550000 700000 0  600000 700000 0  650000 700000 0  700000 700000 0  750000 700000 0  800000 700000 0  850000 700000 0  900000 700000 0  950000 700000 0  1000000 700000 0  0 750000 0  50000 750000 0  100000 750000 0  150000 750000 0  200000 750000 0  250000 750000 0  300000 750000 0  350000 750000 0  400000 750000 0  450000 750000 0  500000 750000 0  550000 750000 0  600000 750000 0  650000 750000 0  700000 750000 0  750000 750000 0  800000 750000 0  850000 750000 0  900000 750000 0  950000 750000 0  1000000 750000 0  0 800000 0  50000 800000 0  100000 800000 0  150000 800000 0  200000 800000 0  250000 800000 0  300000 800000 0  350000 800000 0  400000 800000 0  450000 800000 0  500000 800000 0  550000 800000 0  600000 800000 0  650000 800000 0  700000 800000 0  750000 800000 0  800000 800000 0  850000 800000 0  900000 800000 0  950000 800000 0  1000000 800000 0  0 850000 0  50000 850000 0  100000 850000 0  150000 850000 0  200000 850000 0  250000 850000 0  300000 850000 0  350000 850000 0  400000 850000 0  450000 850000 0  500000 850000 0  550000 850000 0  600000 850000 0  650000 850000 0  700000 850000 0  750000 850000 0  800000 850000 0  850000 850000 0  900000 850000 0  950000 850000 0  1000000 850000 0  0 900000 0  50000 900000 0  100000 900000 0  150000 900000 0  200000 900000 0  250000 900000 0  300000 900000 0  350000 900000 0  400000 900000 0  450000 900000 0  500000 900000 0  550000 900000 0  600000 900000 0  650000 900000 0  700000 900000 0  750000 900000 0  800000 900000 0  850000 900000 0  900000 900000 0  950000 900000 0  1000000 900000 0  0 950000 0  50000 950000 0  100000 950000 0  150000 950000 0  200000 950000 0  250000 950000 0  300000 950000 0  350000 950000 0  400000 950000 0  450000 950000 0  500000 950000 0  550000 950000 0  600000 950000 0  650000 950000 0  700000 950000 0  750000 950000 0  800000 950000 0  850000 950000 0  900000 950000 0  950000 950000 0  1000000 950000 0  0 1000000 0  50000 1000000 0  100000 1000000 0  150000 1000000 0  200000 1000000 0  250000 1000000 0  300000 1000000 0  350000 1000000 0  400000 1000000 0  450000 1000000 0  500000 1000000 0  550000 1000000 0  600000 1000000 0  650000 1000000 0  700000 1000000 0  750000 1000000 0  800000 1000000 0  850000 1000000 0  900000 1000000 0  950000 1000000 0  1000000 1000000 0  0 1050000 0  50000 1050000 0  100000 1050000 0  150000 1050000 0  200000 1050000 0  250000 1050000 0  300000 1050000 0  350000 1050000 0  400000 1050000 0  450000 1050000 0  500000 1050000 0  550000 1050000 0  600000 1050000 0  650000 1050000 0  700000 1050000 0  750000 1050000 0  800000 1050000 0  850000 1050000 0  900000 1050000 0  950000 1050000 0  1000000 1050000 0  0 1100000 0  50000 1100000 0  100000 1100000 0  150000 1100000 0  200000 1100000 0  250000 1100000 0  300000 1100000 0  350000 1100000 0  400000 1100000 0  450000 1100000 0  500000 1100000 0  550000 1100000 0  600000 1100000 0  650000 1100000 0  700000 1100000 0  750000 1100000 0  800000 1100000 0  850000 1100000 0  900000 1100000 0  950000 1100000 0  1000000 1100000 0  0 1150000 0  50000 1150000 0  100000 1150000 0  150000 1150000 0  200000 1150000 0  250000 1150000 0  300000 1150000 0  350000 1150000 0  400000 1150000 0  450000 1150000 0  500000 1150000 0  550000 1150000 0  600000 1150000 0  650000 1150000 0  700000 1150000 0  750000 1150000 0  800000 1150000 0  850000 1150000 0  900000 1150000 0  950000 1150000 0  1000000 1150000 0  0 1200000 0  50000 1200000 0  100000 1200000 0  150000 1200000 0  200000 1200000 0  250000 1200000 0  300000 1200000 0  350000 1200000 0  400000 1200000 0  450000 1200000 0  500000 1200000 0  550000 1200000 0  600000 1200000 0  650000 1200000 0  700000 1200000 0  750000 1200000 0  800000 1200000 0  850000 1200000 0  900000 1200000 0  950000 1200000 0  1000000 1200000 0  0 1250000 0  50000 1250000 0  100000 1250000 0  150000 1250000 0  200000 1250000 0  250000 1250000 0  300000 1250000 0  350000 1250000 0  400000 1250000 0  450000 1250000 0  500000 1250000 0  550000 1250000 0  600000 1250000 0  650000 1250000 0  700000 1250000 0  750000 1250000 0  800000 1250000 0  850000 1250000 0  900000 1250000 0  950000 1250000 0  1000000 1250000 0  0 1300000 0  50000 1300000 0  100000 1300000 0  150000 1300000 0  200000 1300000 0  250000 1300000 0  300000 1300000 0  350000 1300000 0  400000 1300000 0  450000 1300000 0  500000 1300000 0  550000 1300000 0  600000 1300000 0  650000 1300000 0  700000 1300000 0  750000 1300000 0  800000 1300000 0  850000 1300000 0  900000 1300000 0  950000 1300000 0  1000000 1300000 0  0 1350000 0  50000 1350000 0  100000 1350000 0  150000 1350000 0  200000 1350000 0  250000 1350000 0  300000 1350000 0  350000 1350000 0  400000 1350000 0  450000 1350000 0  500000 1350000 0  550000 1350000 0  600000 1350000 0  650000 1350000 0  700000 135
[...]
<PointData  Scalars="f_4507"> 
<DataArray  type="Float64"  Name="f_4507"  format="ascii">1.6041492431076540e-02  3.6233855242700938e-02  4.0613525785647774e-02  4.3487794539598869e-02  4.5619772444837094e-02  4.7322270051657574e-02  4.8771545750653129e-02  5.0063487224091395e-02  5.1256756928668795e-02  5.2391645930730459e-02  5.3499243157519277e-02  5.4606732509162044e-02  5.5741277479529318e-02  5.6933904801237355e-02  5.8224814584842209e-02  5.9672573651226836e-02  6.1372415051362178e-02  6.3494020996711004e-02  6.6326053167562987e-02  7.1428241938949089e-02  1.0237025366536881e-01  3.4996471009766404e-02  3.8261184180704948e-02  4.0930075447813463e-02  4.3716001955795614e-02  4.5744900234699314e-02  4.7395554461682428e-02  4.8816952091289660e-02  5.0091896326409133e-02  5.1273542338030123e-02  5.2399543048906330e-02  5.3499483515853777e-02  5.4599470114642640e-02  5.5725637379333191e-02  5.6907677779780556e-02  5.8183506454984296e-02  5.9606805294318124e-02  6.1261270695208599e-02  6.3293537872607886e-02  6.6026369990282496e-02  7.0391638031638962e-02  7.1959773147813558e-02  4.0424909510993839e-02  4.0964888180532164e-02  4.2745568941826226e-02  4.4605801088800696e-02  4.6242884787151745e-02  4.7700286535960756e-02  4.9011363241006758e-02  5.0215974706346062e-02  5.1348104803487539e-02  5.2435449426819040e-02  5.3501539093555407e-02  5.4567944702250688e-02  5.5656339450748306e-02  5.6790619005371697e-02  5.7999354146275724e-02  5.9318783505488346e-02  6.0795937992903816e-02  6.2487049192446617e-02  6.4412001636335814e-02  6.6199147401338712e-02  6.6665361653015301e-02  4.3214647945616878e-02  4.3460728873967000e-02  4.4440090111698582e-02  4.5659872282467699e-02  4.6927005309388981e-02  4.8151076989715005e-02  4.9310748104151113e-02  5.0411501150325347e-02  5.1467014275213739e-02  5.2492675179602002e-02  5.3503774359239087e-02  5.4515341352782916e-02  5.5542527723429068e-02  5.6601044200349525e-02  5.7707184315201415e-02  5.8876401750544954e-02  6.0117443304641978e-02  6.1413112624267775e-02  6.2665184747158736e-02  6.3596050245071742e-02  6.3826988187552544e-02  4.5117790537209983e-02  4.5262927978414406e-02  4.5855027466315916e-02  4.6699145942039222e-02  4.7665860181011162e-02  4.8669293700136680e-02  4.9669350974720895e-02  5.0651706735003250e-02  5.1614953046927779e-02  5.2563605471623844e-02  5.3504734579136376e-02  5.4446377121230891e-02  5.5396665304346955e-02  5.6362972101205611e-02  5.7350350678077144e-02  5.8358099929994307e-02  5.9372274511787899e-02  6.0350757812048600e-02  6.1200268012010693e-02  6.1768476192550673e-02  6.1898901774279126e-02  4.6524056850005921e-02  4.6618762063845041e-02  4.7016512035068146e-02  4.7627910456213514e-02  4.8375064492045976e-02  4.9194889959905272e-02  5.0047763207974147e-02  5.0912164572722726e-02  5.1778161765858817e-02  5.2642513616253175e-02  5.3505515300736051e-02  5.4368984645160483e-02  5.5234787048258162e-02  5.6103348288810438e-02  5.6971577477798185e-02  5.7829498662999544e-02  5.8654859741838948e-02  5.9405834118624219e-02  6.0015511216978949e-02  6.0400173326746319e-02  6.0485755310183388e-02  4.7606641120711786e-02  4.7673691024617791e-02  4.7962120529850320e-02  4.8424759437239132e-02  4.9015284106979085e-02  4.9690073796582239e-02  5.0416306118768281e-02  5.1171982611899113e-02  5.1943512428349575e-02  5.2722976293100313e-02  5.3505818997675980e-02  5.4289032975137361e-02  5.5069617170937023e-02  5.5843015220262991e-02  5.6601224707144446e-02  5.7330333805790570e-02  5.8007544561426191e-02  5.8598624535701645e-02  5.9058356847953047e-02  5.9338580706163907e-02  5.9400066085955931e-02  4.8459387158563759e-02  4.8509960698669211e-02  4.8731004058703897e-02  4.9094818742891511e-02  4.9572977651365015e-02  5.0135469629436373e-02  5.0756669123421277e-02  5.1416788418298158e-02  5.2101423356424328e-02  5.2800283977902374e-02  5.3505745921301827e-02  5.4211471290590715e-02  5.4911105127754663e-02  5.5596955973915542e-02  5.6258567711406221e-02  5.6881194398046536e-02  5.7444459846567118e-02  5.7921966158405488e-02  5.8283076215513832e-02  5.8498566148617606e-02  5.8545553784678406e-02  4.9138321087527942e-02  4.9178323159142973e-02  4.9355007416429370e-02  4.9650692234378055e-02  5.0047071429140180e-02  5.0523080094581646e-02  5.1058945368571099e-02  5.1637704957526613e-02  5.2245511034670233e-02  5.2871183071599243e-02  5.3505404581195432e-02  5.4139794681942438e-02  5.4765947357819006e-02  5.5374462172205624e-02  5.5953993101181411e-02  5.6490419848340273e-02  5.6966401603853217e-02  5.7361764037816926e-02  5.7655195868752847e-02  5.7827966894092475e-02  5.7865533140961614e-02  4.9679411050800197e-02  4.9712249887575811e-02  4.9858387695909008e-02  5.0105707286994358e-02  5.0441772392541349e-02  5.0851289941963945e-02  5.1318817698740679e-02  5.1829987524087698e-02  5.2372017648905679e-02  5.2933673868045719e-02  5.3504887920710426e-02  5.4076198587964572e-02  5.4638120527673889e-02  5.5180510042508395e-02  5.5691999789260926e-02  5.6159616224461965e-02  5.6568760983678891e-02  5.6903785567711522e-02  5.7149300317384133e-02  5.7292615141443556e-02  5.7323739736239721e-02  5.0107002745119575e-02  5.0134821830861279e-02  5.0259341594858405e-02  5.0471718501285338e-02  5.0763019912129212e-02  5.1121671535414498e-02  5.1535302783547732e-02  5.1991652522059187e-02  5.2479078242098548e-02  5.2986698792719514e-02  5.3504268019895794e-02  5.4021885108411778e-02  5.4529629868496257e-02  5.5017197851931376e-02  5.5473611897937508e-02  5.5887103232954281e-02  5.6245274292483306e-02  5.6535648527283135e-02  5.6746616158532007e-02  5.6869080299225869e-02  5.6895672721717805e-02  5.0438124114547955e-02  5.0462377757006252e-02  5.0571459334882905e-02  5.0758534240826006e-02  5.1016806149876782e-02  5.1337100816574444e-02  5.1709172928219214e-02  5.2122363301970245e-02  5.2566043301707249e-02  5.3029827556552334e-02  5.3503594853935077e-02  5.3977380517423672e-02  5.4441205882905928e-02  5.4884908693807001e-02  5.5298039090949561e-02  5.5669888872777427e-02  5.5989719432420933e-02  5.6247231260680826e-02  5.6433239525531205e-02  5.6540837310610895e-02  5.6564216687142392e-02  5.0684827959910916e-02  5.0706574215804462e-02  5.0804786978207672e-02  5.0973894606073072e-02  5.1208409979718247e-02  5.1500695031457371e-02  5.1841935339014621e-02  5.2222625651287734e-02  5.2632946407522072e-02  5.3062997193493250e-02  5.3502899376281034e-02  5.3942804628120150e-02  5.4372855343751539e-02  5.4783146127830071e-02  5.5163735853920787e-02  5.5504756960126911e-02  5.5796659074907287e-02  5.6030600559238058e-02  5.6198942198735308e-02  5.6296122885466301e-02  5.6317266533921100e-02  5.0855532848243498e-02  5.0875595544068286e-02  5.0966546791502233e-02  5.1123605852994435e-02  5.1342064582470710e-02  5.1615230876071658e-02  5.1935203198123177e-02  5.2293247897067255e-02  5.2680124260813137e-02  5.3086320165924399e-02  5.3502198189485581e-02  5.3918073536648813e-02  5.4324255883433453e-02  5.4711092033969622e-02  5.5069046380240558e-02  5.5388851370693007e-02  5.5661749214538002e-02  5.5879825381692505e-02  5.6036389313698136e-02  5.6126686972831227e-02  5.6146370378911646e-02  5.0955811013870769e-02  5.0974876632893865e-02  5.1061607976047522e-02  5.1211689989214625e-02  5.1420824742705817e-02  5.1682834070038493e-02  5.1990323083586448e-02  5.2334998718439149e-02  5.2707964477624596e-02  5.3099953962620648e-02  5.3501498095253418e-02  5.3903039553055879e-02  5.4295018455884025e-02  5.4667958475676195e-02  5.5012582553388381e-02  5.5319982232954125e-02  5.5581853989741456e-02  5.5790797773652340e-02  5.5940636738320906e-02  5.6027050905927626e-02  5.6045933109703891e-02  5.0988845160172019e-02  5.1007526254602163e-02  5.1092778544877204e-02  5.1240502231400378e-02  5.1446520876717708e-02  5.1704819783655855e-02  5.2008165092963014e-02  5.2348404040142925e-02  5.2716750858885178e-02  5.3104019938982311e-02  5.3500799940241060e-02  5.3897579941499754e-02  5.4284849021596901e-02  5.4653195840339154e-02  5.4993434787519023e-02  5.5296780096826197e-02  5.5555079003764364e-02  5.5761097649081701e-02  5.5908821335604868e-02  5.5994073625879909e-02  5.6012754720310060e-02  5.0955666770778223e-02  5.0974548974554459e-02  5.1060963142161200e-02  5.1210802106829753e-02  5.1419745890740651e-02  5.1681617647527947e-02  5.1989017327093712e-02  5.2333641404805904e-02  5.2706581424598040e-02  5.3098560327426214e-02  5.3500101785228682e-02  5.3901645917861445e-02  5.4293635402857490e-02  5.4666601162042923e-02  5.5011276796895589e-02  5.5318765810443545e-02  5.5580775137776262e-02  5.5789909891267433e-02  5.5939991904434556e-02  5.6026723247588187e-02  5.6045788866611317e-02  5.0855229501570447e-02  5.0874912907650907e-02  5.0965210566783999e-02  5.1121774498789616e-02  5.1339850665944126e-02  5.1612748509789114e-02  5.1932553500241563e-02  5.2290507846512499e-02  5.2677343997048660e-02  5.3083526343833322e-02  5.3499401690996540e-02  5.3915279714557708e-02  5.4321475619668949e-02  5.4708351983414810e-02  5.5066396682358895e-02  5.5386369004410421e-02  5.5659535298011389e-02  5.5877994027487637e-02  5.6035053088979873e-02  5.6126004336413807e-02  5.6146067032238588e-02  5.0684333346561125e-02  5.0705476995015895e-02  5.0802657681746910e-02  5.0970999321244131e-02  5.1204940805574931e-02  5.1496842920355258e-02  5.1837864026561396e-02  5.2218453752652091e-02  5.2628744536730637e-02  5.3058795252362012e-02  5.3498700504201156e-02  5.3938602686988919e-02  5.4368653472960070e-02  5.4778974229194366e-02  5.5159664541467493e-02  5.5500904849024722e-02  5.5793189900763845e-02  5.6027705274409069e-02  5.6196812902274448e-02  5.6295025664677652e-02  5.6316771920571204e-02  5.0437383193339902e-02  5.0460762569871392e-02  5.0568360354951103e-02  5.0754368619801454e-02  5.1011880448061334e-02  5.1331711007704797e-02  5.1703560789532706e-02  5.2116691186675224e-02  5.2560393997576296e-02  5.3024219363058546e-02  5.3498005026547134e-02  5.3971772323929877e-02  5.4435556578774941e-02  5.4879236578511889e-02  5.5292426952262913e-02  5.5664499063907684e-02  5.5984793730605387e-02  5.6243065639656142e-02  5.6430140545599236e-02  5.6539222123475896e-02  5.6563475765934186e-02  5.0105927158764607e-02  5.0132519581256550e-02  5.0254983721950412e-02  5.0465951353199236e-02  5.0756325587999085e-02  5.1114496647528075e-02  5.1527987982544841e-02  5.1984402028550938e-02  5.2471970011986051e-02  5.2979714772070502e-02  5.3497331860586479e-02  5.4014901087762746e-02  5.4522521638383691e-02  5.5009947358423045e-02  5.5466297096934514e-02  5.5879928345067720e-02  5.6238579968353020e-02  5.6529881379196886e-02  5.6742258285623799e-02  5.6866778049620918e-02  5.6894597135362643e-02  4.9677860144242844e-02  4.9708984739038994e-02  4.9852299563098397e-02  5.0097814312771015e-02  5.0432838896803611e-02  5.0841983656020474e-02  5.1309600091221520e-02  5.1821089837974010e-02  5.2363479352808523e-02  5.2925401292517819e-02  5.3496711959771945e-02  5.4067926012436651e-02  5.4629582231576657e-02  5.5171612356394631e-02  5.5682782181741650e-02  5.6150309938518356e-02  5.6559827487940945e-02  5.6895892593487929e-02  5.7143212184573272e-02  5.7289349992906462e-02  5.7322188829682062e-02  4.9136066739521062e-02  4.9173632986390201e-02  4.9346404011729850e-02  4.9639835842665729e-02  5.0035198276629389e-02  5.0511180032142326e-02  5.1047606779301133e-02  5.1627137708276934e-02  5.2235652522663517e-02  5.2861805198540043e-02  5.3496195299287029e-02  5.4130416808883246e-02  5.4756088845812234e-02  5.5363894922955820e-02  5.5942654511911313e-02  5.6478519785900752e-02  5.6954528451342204e-02  5.7350907646104322e-02  5.7646592464052952e-02  5.7823276721339342e-02  5.7863278792954387e-02  4.8456046095804423e-02  4.8503033731865236e-02  4.8718523664968996e-02  4.9079633722077291e-02  4.9557140033915634e-02  5.0120405482436174e-02  5.0743032169076455e-02  5.1404643906567106e-02  5.2090494752727957e-02  5.2790128589891891e-02  5.3495853959180759e-02  5.4201315902580212e-02  5.4900176524058257e-02  5.5584811462184379e-02  5.6244930757061225e-02  5.6866130251046101e-02  5.7428622229117453e-02  5.7906781137590950e-02  5.8270595821778536e-02  5.8491639181813215e-02  5.8542212721918681e-02  4.7601533794527078e-02  4.7663019174319088e-02  4.7943243032529920e-02  4.8402975344781315e-02  4.8994055319056720e-02  4.9671266074692320e-02  5.0400375173338396e-02  5.1158584660219816e-02  5.1931982709545785e-02  5.2712566905345384e-02  5.3495780882806737e-02  5.4278623587382405e-02  5.5058087452133107e-02  5.5829617268583522e-02  5.6585293761714353e-02  5.7311526083900347e-02  5.7986315773503487e-02  5.8576840443243412e-02  5.9039479350632237e-02  5.9327908855864753e-02  5.9394958759770758e-02  4.6515844570299857e-02  4.6601426553736898e-02  4.6986088663504247e-02  4.7595765761858935e-02  4.8346740138644158e-02  4.9172101217483499e-02  5.0030022402684782e-02  5.0898251591672536e-02  5.1766812832224771e-02  5.2632615235322415e-02  5.3496084579746812e-02  5.4359086264229667e-02  5.5223438114624025e-02  5.6089435307760054e-02  5.6953836672508577e-02  5.7806709920577438e-02  5.8626535388436700e-02  5.9373689424269155e-02  5.9985087845414516e-02  6.0382837816637627e-02  6.0477543030476727e-02  4.5102698106204327e-02  4.5233123687932773e-02  4.5801331868472697e-02  4.6650842068434721e-02  4.7629325368695380e-02  4.8643499950488868e-02  4.9651249202406010e-02  5.0638627779277509e-02  5.1604934576136116e-02  5.2555222759252146e-02  5.3496865301346633e-02  5.4437994408859144e-02  5.5386646833555195e-02  5.6349893145479654e-02  5.7332248905761975e-02  5.8332306180346183e-02  5.9335739699471618e-02  6.0302453938443579e-02  6.1146572414166878e-02  6.1738671902068380e-02  6.1883809343272839e-02  4.3174611692931221e-02  4.3405549635411989e-02  4.4336415133324876e-02  4.5588487256215747e-02  4.6884156575841454e-02  4.8125198129938401e-02  4.9294415565281878e-02  5.0400555680133755e-02  5.1459072157054156e-02  5.2486258527700294e-02  5.3497825521244081e-02  5.4508924700881152e-02  5.5534585605269360e-02  5.6590098730157710e-02  5.7690851776331931e-02  5.8850522890767948e-02  6.0074594571093945e-02  6.1341727598015212e-02  6.2561509768784329e-02  6.3540871006515953e-02  6.3786951934866123e-02  4.0336238227469089e-02  4.0802452479145317e-02  4.2589598244147965e-02  4.4514550688037051e-02  4.6205661887579762e-02  4.7682816374995149e-02  4.9002245734207750e-02  5.0210980875111763e-02  5.1345260429735085e-02  5.2433655178232681e-02  5.3500060786927935e-02  5.4566150453664253e-02  5.5653495076995727e-02  5.6785625174137155e-02  5.7990236639476417e-02  5.9301313344522349e-02  6.0758715093331306e-02  6.2395798791682298e-02  6.4256030938656811e-02  6.6036711699951081e-02  6.6576690369489419e-02  3.5041826732672844e-02  3.6609961848844956e-02  4.0975229890201172e-02  4.3708062007875838e-02  4.5740329185275153e-02  4.7394794586165592e-02  4.8818093425499400e-02  5.0093922100703119e-02  5.1275962501150435e-02  5.2402129765840980e-02  5.3502116364629780e-02  5.4602056831577192e-02  5.5728057542453358e-02  5.6909703554074306e-02  5.8184647789193730e-02  5.9606045418800865e-02  6.1256699645783882e-02  6.3285597924687451e-02  6.6071524432669448e-02  6.8740415699777749e-02  7.2005128870717722e-02  4.6313462151208523e-03  3.5573357941533691e-02  4.0675546712920382e-02  4.3507578883772768e-02  4.5629184829121712e-02  4.7329026229257026e-02  4.8776785295641653e-02  5.0067695079246445e-02  5.1260322400954489e-02  5.2394867371321721e-02  5.3502356722964460e-02  5.4609953949753196e-02  5.5744842951814852e-02  5.6938112656392217e-02  5.8230054129830428e-02  5.9679329828825893e-02  6.1381827435646255e-02  6.3513805340884272e-02  6.6388074094835006e-02  7.0767744637781405e-02  9.0960107449411007e-02  </DataArray> 
</PointData> 
</Piece>
</UnstructuredGrid>
</VTKFile>