<?xml version="1.0"?>
<VTKFile type="UnstructuredGrid"  version="0.1"  >
<UnstructuredGrid>
<Piece  NumberOfPoints="651" NumberOfCells="1200">
<Points>
<DataArray  type="Float64"  NumberOfComponents="3"  format="ascii">0 0 0  50000 0 0  100000 0 0  150000 0 0  200000 0 0  250000 0 0  300000 0 0  350000 0 0  400000 0 0  450000 0 0  500000 0 0  550000 0 0  600000 0 0  650000 0 0  700000 0 0  750000 0 0  800000 0 0  850000 0 0  900000 0 0  950000 0 0  1000000 0 0  0 50000 0  50000 50000 0  100000 50000 0  150000 50000 0  200000 50000 0  250000 50000 0  300000 50000 0  350000 50000 0  400000 50000 0  450000 50000 0  500000 50000 0  550000 50000 0  600000 50000 0  650000 50000 0  700000 50000 0  750000 50000 0  800000 50000 0  850000 50000 0  900000 50000 0  950000 50000 0  1000000 50000 0  0 100000 0  50000 100000 0  100000 100000 0  150000 100000 0  200000 100000 0  250000 100000 0  300000 100000 0  350000 100000 0  400000 100000 0  450000 100000 0  500000 100000 0  550000 100000 0  600000 100000 0  650000 100000 0  700000 100000 0  750000 100000 0  800000 100000 0  850000 100000 0  900000 100000 0  950000 100000 0  1000000 100000 0  0 150000 0  50000 150000 0  100000 150000 0  150000 150000 0  200000 150000 0  250000 150000 0  300000 150000 0  350000 150000 0  400000 150000 0  450000 150000 0  500000 150000 0  550000 150000 0  600000 150000 0  650000 150000 0  700000 150000 0  750000 150000 0  800000 150000 0  850000 150000 0  900000 150000 0  950000 150000 0  1000000 150000 0  0 200000 0  50000 200000 0  100000 200000 0  150000 200000 0  200000 200000 0  250000 200000 0  300000 200000 0  350000 200000 0  400000 200000 0  450000 200000 0  500000 200000 0  550000 200000 0  600000 200000 0  650000 200000 0  700000 200000 0  750000 200000 0  800000 200000 0  850000 200000 0  900000 200000 0  950000 200000 0  1000000 200000 0  0 250000 0  50000 250000 0  100000 250000 0  150000 250000 0  200000 250000 0  250000 250000 0  300000 250000 0  350000 250000 0  400000 250000 0  450000 250000 0  500000 250000 0  550000 250000 0  600000 250000 0  650000 250000 0  700000 250000 0  750000 250000 0  800000 250000 0  850000 250000 0  900000 250000 0  950000 250000 0  1000000 250000 0  0 300000 0  50000 300000 0  100000 300000 0  150000 300000 0  200000 300000 0  250000 300000 0  300000 300000 0  350000 300000 0  400000 300000 0  450000 300000 0  500000 300000 0  550000 300000 0  600000 300000 0  650000 300000 0  700000 300000 0  750000 300000 0  800000 300000 0  850000 300000 0  900000 300000 0  950000 300000 0  1000000 300000 0  0 350000 0  50000 350000 0  100000 350000 0  150000 350000 0  200000 350000 0  250000 350000 0  300000 350000 0  350000 350000 0  400000 350000 0  450000 350000 0  500000 350000 0  550000 350000 0  600000 350000 0  650000 350000 0  700000 350000 0  750000 350000 0  800000 350000 0  850000 350000 0  900000 350000 0  950000 350000 0  1000000 350000 0  0 400000 0  50000 400000 0  100000 400000 0  150000 400000 0  200000 400000 0  250000 400000 0  300000 400000 0  350000 400000 0  400000 400000 0  450000 400000 0  500000 400000 0  550000 400000 0  600000 400000 0  650000 400000 0  700000 400000 0  750000 400000 0  800000 400000 0  850000 400000 0  900000 400000 0  950000 400000 0  1000000 400000 0  0 450000 0  50000 450000 0  100000 450000 0  150000 450000 0  200000 450000 0  250000 450000 0  300000 450000 0  350000 450000 0  400000 450000 0  450000 450000 0  500000 450000 0  550000 450000 0  600000 450000 0  650000 450000 0  700000 450000 0  750000 450000 0  800000 450000 0  850000 450000 0  900000 450000 0  950000 450000 0  1000000 450000 0  0 500000 0  50000 500000 0  100000 500000 0  150000 500000 0  200000 500000 0  250000 500000 0  300000 500000 0  350000 500000 0  400000 500000 0  450000 500000 0  500000 500000 0  550000 500000 0  600000 500000 0  650000 500000 0  700000 500000 0  750000 500000 0  800000 500000 0  850000 500000 0  900000 500000 0  950000 500000 0  1000000 500000 0  0 550000 0  50000 550000 0  100000 550000 0  150000 550000 0  200000 550000 0  250000 550000 0  300000 550000 0  350000 550000 0  400000 550000 0  450000 550000 0  500000 550000 0  550000 550000 0  600000 550000 0  650000 550000 0  700000 550000 0  750000 550000 0  800000 550000 0  850000 550000 0  900000 550000 0  950000 550000 0  1000000 550000 0  0 600000 0  50000 600000 0  100000 600000 0  150000 600000 0  200000 600000 0  250000 600000 0  300000 600000 0  350000 600000 0  400000 600000 0  450000 600000 0  500000 600000 0  550000 600000 0  600000 600000 0  650000 600000 0  700000 600000 0  750000 600000 0  800000 600000 0  850000 600000 0  900000 600000 0  950000 600000 0  1000000 600000 0  0 650000 0  50000 650000 0  100000 650000 0  150000 650000 0  200000 650000 0  250000 650000 0  300000 650000 0  350000 650000 0  400000 650000 0  450000 650000 0  500000 650000 0  550000 650000 0  600000 650000 0  650000 650000 0  700000 650000 0  750000 650000 0  800000 650000 0  850000 650000 0  900000 650000 0  950000 650000 0  1000000 650000 0  0 700000 0  50000 700000 0  100000 700000 0  150000 700000 0  200000 700000 0  250000 700000 0  300000 700000 0  350000 700000 0  400000 700000 0  450000 700000 0  500000 700000 0  550000 700000 0  600000 700000 0  650000 700000 0  700000 700000 0  750000 700000 0  800000 700000 0  850000 700000 0  900000 700000 0  950000 700000 0  1000000 700000 0  0 750000 0  50000 750000 0  100000 750000 0  150000 750000 0  200000 750000 0  250000 750000 0  300000 750000 0  350000 750000 0  400000 750000 0  450000 750000 0  500000 750000 0  550000 750000 0  600000 750000 0  650000 750000 0  700000 750000 0  750000 750000 0  800000 750000 0  850000 750000 0  900000 750000 0  950000 750000 0  1000000 750000 0  0 800000 0  50000 800000 0  100000 800000 0  150000 800000 0  200000 800000 0  250000 800000 0  300000 800000 0  350000 800000 0  400000 800000 0  450000 800000 0  500000 800000 0  550000 800000 0  600000 800000 0  650000 800000 0  700000 800000 0  750000 800000 0  800000 800000 0  850000 800000 0  900000 800000 0  950000 800000 0  1000000 800000 0  0 850000 0  50000 850000 0  100000 850000 0  150000 850000 0  200000 850000 0  250000 850000 0  300000 850000 0  350000 850000 0  400000 850000 0  450000 850000 0  500000 850000 0  550000 850000 0  600000 850000 0  650000 850000 0  700000 850000 0  750000 850000 0  800000 850000 0  850000 850000 0  900000 850000 0  950000 850000 0  1000000 850000 0  0 900000 0  50000 900000 0  100000 900000 0  150000 900000 0  200000 900000 0  250000 900000 0  300000 900000 0  350000 900000 0  400000 900000 0  450000 900000 0  500000 900000 0  550000 900000 0  600000 900000 0  650000 900000 0  700000 900000 0  750000 900000 0  800000 900000 0  850000 900000 0  900000 900000 0  950000 900000 0  1000000 900000 0  0 950000 0  50000 950000 0  100000 950000 0  150000 950000 0  200000 950000 0  250000 950000 0  300000 950000 0  350000 950000 0  400000 950000 0  450000 950000 0  500000 950000 0  550000 950000 0  600000 950000 0  650000 950000 0  700000 950000 0  750000 950000 0  800000 950000 0  850000 950000 0  900000 950000 0  950000 950000 0  1000000 950000 0  0 1000000 0  50000 1000000 0  100000 1000000 0  150000 1000000 0  200000 1000000 0  250000 1000000 0  300000 1000000 0  350000 1000000 0  400000 1000000 0  450000 1000000 0  500000 1000000 0  550000 1000000 0  600000 1000000 0  650000 1000000 0  700000 1000000 0  750000 1000000 0  800000 1000000 0  850000 1000000 0  900000 1000000 0  950000 1000000 0  1000000 1000000 0  0 1050000 0  50000 1050000 0  100000 1050000 0  150000 1050000 0  200000 1050000 0  250000 1050000 0  300000 1050000 0  350000 1050000 0  400000 1050000 0  450000 1050000 0  500000 1050000 0  550000 1050000 0  600000 1050000 0  650000 1050000 0  700000 1050000 0  750000 1050000 0  800000 1050000 0  850000 1050000 0  900000 1050000 0  950000 1050000 0  1000000 1050000 0  0 1100000 0  50000 1100000 0  100000 1100000 0  150000 1100000 0  200000 1100000 0  250000 1100000 0  300000 1100000 0  350000 1100000 0  400000 1100000 0  450000 1100000 0  500000 1100000 0  550000 1100000 0  600000 1100000 0  650000 1100000 0  700000 1100000 0  750000 1100000 0  800000 1100000 0  850000 1100000 0  900000 1100000 0  950000 1100000 0  1000000 1100000 0  0 1150000 0  50000 1150000 0  100000 1150000 0  150000 1150000 0  200000 1150000 0  250000 1150000 0  300000 1150000 0  350000 1150000 0  400000 1150000 0  450000 1150000 0  500000 1150000 0  550000 1150000 0  600000 1150000 0  650000 1150000 0  700000 1150000 0  750000 1150000 0  800000 1150000 0  850000 1150000 0  900000 1150000 0  950000 1150000 0  1000000 1150000 0  0 1200000 0  50000 1200000 0  100000 1200000 0  150000 1200000 0  200000 1200000 0  250000 1200000 0  300000 1200000 0  350000 1200000 0  400000 1200000 0  450000 1200000 0  500000 1200000 0  550000 1200000 0  600000 1200000 0  650000 1200000 0  700000 1200000 0  750000 1200000 0  800000 1200000 0  850000 1200000 0  900000 1200000 0  950000 1200000 0  1000000 1200000 0  0 1250000 0  50000 1250000 0  100000 1250000 0  150000 1250000 0  200000 1250000 0  250000 1250000 0  300000 1250000 0  350000 1250000 0  400000 1250000 0  450000 1250000 0  500000 1250000 0  550000 1250000 0  600000 1250000 0  650000 1250000 0  700000 1250000 0  750000 1250000 0  800000 1250000 0  850000 1250000 0  900000 1250000 0  950000 1250000 0  1000000 1250000 0  0 1300000 0  50000 1300000 0  100000 1300000 0  150000 1300000 0  200000 1300000 0  250000 1300000 0  300000 1300000 0  350000 1300000 0  400000 1300000 0  450000 1300000 0  500000 1300000 0  550000 1300000 0  600000 1300000 0  650000 1300000 0  700000 1300000 0  750000 1300000 0  800000 1300000 0  850000 1300000 0  900000 1300000 0  950000 1300000 0  1000000 1300000 0  0 1350000 0  50000 1350000 0  100000 1350000 0  150000 1350000 0  200000 1350000 0  250000 1350000 0  300000 1350000 0  350000 1350000 0  400000 1350000 0  450000 1350000 0  500000 1350000 0  550000 1350000 0  600000 1350000 0  650000 1350000 0  700000 135
[...]
<PointData  Scalars="f_4507"> 
<DataArray  type="Float64"  Name="f_4507"  format="ascii">1.1097885786604762e-01  1.1554494168987639e-01  1.1789893416396574e-01  1.1933576454024872e-01  1.2038276633934429e-01  1.2122157993169069e-01  1.2193753039095839e-01  1.2257690281611781e-01  1.2316814267886038e-01  1.2373082751477038e-01  1.2428006137574485e-01  1.2482902923712226e-01  1.2539086922943973e-01  1.2598053022371725e-01  1.2661727914123069e-01  1.2732901685744541e-01  1.2816121712462705e-01  1.2919860363047531e-01  1.3062450394734063e-01  1.3296368729885771e-01  1.3837835476443883e-01  1.1589652682127538e-01  1.1700010794457903e-01  1.1833223589012434e-01  1.1953093689607258e-01  1.2048635584917416e-01  1.2128245730177498e-01  1.2197526359150096e-01  1.2260041321184932e-01  1.2318186430295583e-01  1.2373699711273567e-01  1.2427963848602583e-01  1.2482203728202107e-01  1.2537640283707940e-01  1.2595643034309609e-01  1.2657922837380953e-01  1.2726822124347320e-01  1.2805790657657404e-01  1.2900136456660732e-01  1.3017774936048240e-01  1.3166334041950939e-01  1.3283569619385885e-01  1.1798329216026113e-01  1.1839890621770710e-01  1.1915541788541947e-01  1.1997703584008731e-01  1.2074954678258146e-01  1.2144679648012000e-01  1.2208081547299074e-01  1.2266778388793560e-01  1.2322206595223310e-01  1.2375581989089214e-01  1.2427961991729225e-01  1.2480324031149898e-01  1.2533643623675592e-01  1.2588972167188989e-01  1.2647514437092325e-01  1.2710689283980547e-01  1.2780095937947678e-01  1.2857104896967048e-01  1.2941146504547590e-01  1.3023690836548094e-01  1.3066302136869412e-01  1.1927039178971391e-01  1.1946742949860270e-01  1.1992292318173003e-01  1.2049301001566373e-01  1.2109088847744530e-01  1.2167508594980200e-01  1.2223403393762521e-01  1.2276845331091395e-01  1.2328340796183690e-01  1.2378520880750356e-01  1.2428039320655090e-01  1.2477548003569419e-01  1.2527699235215012e-01  1.2579148795974937e-01  1.2632534678101334e-01  1.2688385798305660e-01  1.2746859276593023e-01  1.2807085574081126e-01  1.2865701974672253e-01  1.2914047842465312e-01  1.2934484735486837e-01  1.2016639502594365e-01  1.2027993986975055e-01  1.2057600687851698e-01  1.2098399126942458e-01  1.2144681898830521e-01  1.2192875707422586e-01  1.2241165809851236e-01  1.2288843947825313e-01  1.2335775434551706e-01  1.2382106466832166e-01  1.2428111455958002e-01  1.2474114476624236e-01  1.2520441567001464e-01  1.2567374152693084e-01  1.2615074729449499e-01  1.2663444990716627e-01  1.2711854632740824e-01  1.2758657247134947e-01  1.2800444980870279e-01  1.2831277556674189e-01  1.2843060061794837e-01  1.2083547243512155e-01  1.2091032311755663e-01  1.2111716439288846e-01  1.2142021650049561e-01  1.2178396096686370e-01  1.2218147376913405e-01  1.2259537150506464e-01  1.2301584188269635e-01  1.2343805156733031e-01  1.2386012693995384e-01  1.2428180155559236e-01  1.2470351475681986e-01  1.2512572999179300e-01  1.2554826114040160e-01  1.2596939691823070e-01  1.2638459395524365e-01  1.2678451569159921e-01  1.2715237688683778e-01  1.2746127292118606e-01  1.2767403214502576e-01  1.2775114955434935e-01  1.2135485695510148e-01  1.2140875151170880e-01  1.2156214447361126e-01  1.2179570745771427e-01  1.2208737308117483e-01  1.2241782357182002e-01  1.2277250632167290e-01  1.2314149489599489e-01  1.2351847165821291e-01  1.2389957818206102e-01  1.2428243813346043e-01  1.2466537087694553e-01  1.2504671656292210e-01  1.2542416428759892e-01  1.2579397344545848e-01  1.2615000146224997e-01  1.2648253368435888e-01  1.2677713351290371e-01  1.2701420558880086e-01  1.2717070066500683e-01  1.2722579996537167e-01  1.2176645285523512e-01  1.2180768394177630e-01  1.2192696044213747e-01  1.2211309242377584e-01  1.2235199625474159e-01  1.2262994636041338e-01  1.2293533515216180e-01  1.2325915809064672e-01  1.2359475990166362e-01  1.2393727380592610e-01  1.2428299969891449e-01  1.2462881182894434e-01  1.2497159886909097e-01  1.2530770377529385e-01  1.2563232888738285e-01  1.2593890253680828e-01  1.2621848183233639e-01  1.2645941549882941e-01  1.2664771076330125e-01  1.2676873061666999e-01  1.2681062849207045e-01  1.2209558661452760e-01  1.2212857111105382e-01  1.2222492150542937e-01  1.2237770584347755e-01  1.2257757186333157e-01  1.2281463054720704e-01  1.2307973016126408e-01  1.2336504219065814e-01  1.2366413571621679e-01  1.2397175706418105e-01  1.2428347464102504e-01  1.2459527748204097e-01  1.2490316291988357e-01  1.2520272266770369e-01  1.2548873540255523e-01  1.2575479757572627e-01  1.2599307521812314e-01  1.2619433547280198e-01  1.2634849062543388e-01  1.2644587741527363e-01  1.2647924964559867e-01  1.2235875138294136e-01  1.2238609239251200e-01  1.2246644866778138e-01  1.2259523766212312e-01  1.2276595470094835e-01  1.2297127363871940e-01  1.2320391280453750e-01  1.2345714478447706e-01  1.2372498365896498e-01  1.2400214403292299e-01  1.2428386425484388e-01  1.2456566047331637e-01  1.2484305259549064e-01  1.2511128850782363e-01  1.2536509241413965e-01  1.2559847708013039e-01  1.2580468592608998e-01  1.2597636047992930e-01  1.2610603873575899e-01  1.2618703800748077e-01  1.2621461478574353e-01  1.2256723413236061e-01  1.2259059840898005e-01  1.2265954311391075e-01  1.2277084144523988e-01  1.2291973563973743e-01  1.2310059647131480e-01  1.2330750262248398e-01  1.2353464048717380e-01  1.2377651009590687e-01  1.2402797114455423e-01  1.2428417786188464e-01  1.2454044755035885e-01  1.2479209847032743e-01  1.2503428634333008e-01  1.2526186865541400e-01  1.2546933239392663e-01  1.2565083091550108e-01  1.2580038177389477e-01  1.2591226581226525e-01  1.2598162097893548e-01  1.2600513341073397e-01  1.2272898832855113e-01  1.2274952399718880e-01  1.2281028393383300e-01  1.2290884936591459e-01  1.2304154994241322e-01  1.2320387398161803e-01  1.2339086072247553e-01  1.2359740444543948e-01  1.2381844509252113e-01  1.2404905258618616e-01  1.2428442849621488e-01  1.2451985339424486e-01  1.2475060739044061e-01  1.2497188973805835e-01  1.2517876346856097e-01  1.2536615292296158e-01  1.2552892356638787e-01  1.2566206988610512e-01  1.2576102175769474e-01  1.2582204666824706e-01  1.2584267688851392e-01  1.2284967118746705e-01  1.2286822531739489e-01  1.2292321925833138e-01  1.2301272214222382e-01  1.2313374078251359e-01  1.2328248879017645e-01  1.2345466183967838e-01  1.2364567147915265e-01  1.2385081324251203e-01  1.2406536561129304e-01  1.2428463014231297e-01  1.2450393013970933e-01  1.2471858795886771e-01  1.2492390174963522e-01  1.2511514255754266e-01  1.2528759226270345e-01  1.2543664054071532e-01  1.2555795244616402e-01  1.2564770466373468e-01  1.2570286704531153e-01  1.2572148080520232e-01  1.2293324578652734e-01  1.2295048682659260e-01  1.2300164563987490e-01  1.2308507916213930e-01  1.2319820225525271e-01  1.2333767855690420e-01  1.2349962636684632e-01  1.2367980638887641e-01  1.2387377078704606e-01  1.2407696647414473e-01  1.2428479632200225e-01  1.2449264906337346e-01  1.2469591255564513e-01  1.2488998674403083e-01  1.2507031274922942e-01  1.2523243302955253e-01  1.2537209388756423e-01  1.2548539469405756e-01  1.2556897740570319e-01  1.2562023604368533e-01  1.2563751224142841e-01  1.2298233830545728e-01  1.2299883056257338e-01  1.2304779731243642e-01  1.2312774661120603e-01  1.2323631051945465e-01  1.2337039681534305e-01  1.2352635868192294e-01  1.2370015692244599e-01  1.2388749704263911e-01  1.2408393317623413e-01  1.2428493960817380e-01  1.2448595723613154e-01  1.2468242645630254e-01  1.2486981992160723e-01  1.2504368866578530e-01  1.2519973321870670e-01  1.2533390728592514e-01  1.2544255503679211e-01  1.2552257422132526e-01  1.2557158748224223e-01  1.2558809607310414e-01  1.2299844631015515e-01  1.2301469980580744e-01  1.2306296643609139e-01  1.2314179945079383e-01  1.2324889639601683e-01  1.2338123950309071e-01  1.2353525462305640e-01  1.2370696557634413e-01  1.2389212728482799e-01  1.2408632957997773e-01  1.2428507169832673e-01  1.2448381381667566e-01  1.2467801611182540e-01  1.2486317782030926e-01  1.2503488877359695e-01  1.2518890389356269e-01  1.2532124700063657e-01  1.2542834394585956e-01  1.2550717696056199e-01  1.2555544359084592e-01  1.2557169708649824e-01  1.2298204732354921e-01  1.2299855591441113e-01  1.2304756917532812e-01  1.2312758835986126e-01  1.2323623611072826e-01  1.2337041017794673e-01  1.2352645473086810e-01  1.2370032347504618e-01  1.2388771694035086e-01  1.2408418616052189e-01  1.2428520378847964e-01  1.2448621022041928e-01  1.2468264635401427e-01  1.2486998647420740e-01  1.2504378471473043e-01  1.2519974658131033e-01  1.2533383287719879e-01  1.2544239678544736e-01  1.2552234608421700e-01  1.2557131283408002e-01  1.2558780509119613e-01  1.2293263115522494e-01  1.2294990735296805e-01  1.2300116599095022e-01  1.2308474870259586e-01  1.2319804950908916e-01  1.2333771036710088e-01  1.2349983064742401e-01  1.2368015665262262e-01  1.2387423084100831e-01  1.2407749433328003e-01  1.2428534707465119e-01  1.2449317692250871e-01  1.2469637260960736e-01  1.2489033700777702e-01  1.2507051702980712e-01  1.2523246483974923e-01  1.2537194114140077e-01  1.2548506423451417e-01  1.2556849775677859e-01  1.2561965657006086e-01  1.2563689761012611e-01  1.2284866259145112e-01  1.2286727635134188e-01  1.2292243873291879e-01  1.2301219095048946e-01  1.2313350285593817e-01  1.2328255113395008e-01  1.2345500083911087e-01  1.2364624164701830e-01  1.2385155543778582e-01  1.2406621325694422e-01  1.2428551325434055e-01  1.2450477778536050e-01  1.2471933015414151e-01  1.2492447191750083e-01  1.2511548155697513e-01  1.2528765460647706e-01  1.2543640261413996e-01  1.2555742125442979e-01  1.2564692413832218e-01  1.2570191807925868e-01  1.2572047220918650e-01  1.2272746650813961e-01  1.2274809672840643e-01  1.2280912163895880e-01  1.2290807351054843e-01  1.2304121983026572e-01  1.2320399047369203e-01  1.2339137992809268e-01  1.2359825365859525e-01  1.2381953600621301e-01  1.2405029000240879e-01  1.2428571490043877e-01  1.2452109081046750e-01  1.2475169830413255e-01  1.2497273895121414e-01  1.2517928267417811e-01  1.2536626941503562e-01  1.2552859345424047e-01  1.2566129403073911e-01  1.2575985946282070e-01  1.2582061939946487e-01  1.2584115506810253e-01  1.2256500998591971e-01  1.2258852241771817e-01  1.2265787758438845e-01  1.2276976162275895e-01  1.2291931248115268e-01  1.2310081100272709e-01  1.2330827474123975e-01  1.2353585705332365e-01  1.2377804492632632e-01  1.2402969584629492e-01  1.2428596553476916e-01  1.2454217225209960e-01  1.2479363330074694e-01  1.2503550290948004e-01  1.2526264077416988e-01  1.2546954692533904e-01  1.2565040775691644e-01  1.2579930195141398e-01  1.2591060028274309e-01  1.2597954498767375e-01  1.2600290926429322e-01  1.2235552861091031e-01  1.2238310538917305e-01  1.2246410466089486e-01  1.2259378291672458e-01  1.2276545747056394e-01  1.2297166631652350e-01  1.2320505098251425e-01  1.2345885488883027e-01  1.2372709080116330e-01  1.2400448292333759e-01  1.2428627914181013e-01  1.2456799936373104e-01  1.2484515973768903e-01  1.2511299861217698e-01  1.2536623059211655e-01  1.2559886975793461e-01  1.2580418869570567e-01  1.2597490573453088e-01  1.2610369472887259e-01  1.2618405100414196e-01  1.2621139201371262e-01  1.2209089375105533e-01  1.2212426598138038e-01  1.2222165277122016e-01  1.2237580792385205e-01  1.2257706817853092e-01  1.2281534582092780e-01  1.2308140799409886e-01  1.2336742072895045e-01  1.2366698047677058e-01  1.2397486591461322e-01  1.2428666875562913e-01  1.2459838633247318e-01  1.2490600768043746e-01  1.2520510120599612e-01  1.2549041323539015e-01  1.2575551284944717e-01  1.2599257153332263e-01  1.2619243755317661e-01  1.2634522189122474e-01  1.2644157228560030e-01  1.2647455678212652e-01  1.2175951490458378e-01  1.2180141277998423e-01  1.2192243263335296e-01  1.2211072789782482e-01  1.2235166156431786e-01  1.2263124085984603e-01  1.2293781450927148e-01  1.2326243962136051e-01  1.2359854452756340e-01  1.2394133156771005e-01  1.2428714369773991e-01  1.2463286959072833e-01  1.2497538349499088e-01  1.2531098530600779e-01  1.2563480824449264e-01  1.2594019703624099e-01  1.2621814714191279e-01  1.2645705097287852e-01  1.2664318295451685e-01  1.2676245945487799e-01  1.2680369054141918e-01  1.2134434343128281e-01  1.2139944273164766e-01  1.2155593780785359e-01  1.2179300988375079e-01  1.2208760971229560e-01  1.2242014193440459e-01  1.2277616995119611e-01  1.2314597910905570e-01  1.2352342683373256e-01  1.2390477251970912e-01  1.2428770526319423e-01  1.2467056521459367e-01  1.2505167173844181e-01  1.2542864850065980e-01  1.2579763707498176e-01  1.2615231982483460e-01  1.2648277031547980e-01  1.2677443593894028e-01  1.2700799892304329e-01  1.2716139188494574e-01  1.2721528644155303e-01  1.2081899384230543e-01  1.2089611125162902e-01  1.2110887047546870e-01  1.2141776650981700e-01  1.2178562770505560e-01  1.2218554944141119e-01  1.2260074647842412e-01  1.2302188225625330e-01  1.2344441340486192e-01  1.2386662863983505e-01  1.2428834184106254e-01  1.2471001645670109e-01  1.2513209182932467e-01  1.2555430151395860e-01  1.2597477189159026e-01  1.2638866962752085e-01  1.2678618242979117e-01  1.2714992689615920e-01  1.2745297900376629e-01  1.2765982027909809e-01  1.2773467096153310e-01  1.2013954277870671e-01  1.2025736782991317e-01  1.2056569358795227e-01  1.2098357092530559e-01  1.2145159706924688e-01  1.2193569348948884e-01  1.2241939610216016e-01  1.2289640186972436e-01  1.2336572772664053e-01  1.2382899863041279e-01  1.2428902883707514e-01  1.2474907872833356e-01  1.2521238905113818e-01  1.2568170391840205e-01  1.2615848529814280e-01  1.2664138632242930e-01  1.2712332440834989e-01  1.2758615212723048e-01  1.2799413651813801e-01  1.2829020352690437e-01  1.2840374837071125e-01  1.1922529604178704e-01  1.1942966497200226e-01  1.1991312364993290e-01  1.2049928765584417e-01  1.2110155063072518e-01  1.2168628541359880e-01  1.2224479661564208e-01  1.2277865543690611e-01  1.2329315104450533e-01  1.2379466336096123e-01  1.2428975019010453e-01  1.2478493458915189e-01  1.2528673543481858e-01  1.2580169008574155e-01  1.2633610945903026e-01  1.2689505744685339e-01  1.2747925491921006e-01  1.2807713338099158e-01  1.2864722021492517e-01  1.2910271389805242e-01  1.2929975160694121e-01  1.1790712202796164e-01  1.1833323503117481e-01  1.1915867835117987e-01  1.1999909442698531e-01  1.2076918401717898e-01  1.2146325055685024e-01  1.2209499902573250e-01  1.2268042172476591e-01  1.2323370715989981e-01  1.2376690308515674e-01  1.2429052347936345e-01  1.2481432350576357e-01  1.2534807744442264e-01  1.2590235950872011e-01  1.2648932792366499e-01  1.2712334691653568e-01  1.2782059661407416e-01  1.2859310755656825e-01  1.2941472551123601e-01  1.3017123717894832e-01  1.3058685123639424e-01  1.1573444720279723e-01  1.1690680297714665e-01  1.1839239403617366e-01  1.1956877883004874e-01  1.2051223682008204e-01  1.2130192215318285e-01  1.2199091502284652e-01  1.2261371305355993e-01  1.2319374055957662e-01  1.2374810611463494e-01  1.2429050491063014e-01  1.2483314628392032e-01  1.2538827909370018e-01  1.2596973018480667e-01  1.2659487980515502e-01  1.2728768609488095e-01  1.2808378754748170e-01  1.2903920650058320e-01  1.3023790750653141e-01  1.3157003545207666e-01  1.3267361657538027e-01  1.1019178863221737e-01  1.1560645609779849e-01  1.1794563944931560e-01  1.1937153976618091e-01  1.2040892627202918e-01  1.2124112653921081e-01  1.2195286425542551e-01  1.2258961317293890e-01  1.2317927416721644e-01  1.2374111415953387e-01  1.2429008202091130e-01  1.2483931588188575e-01  1.2540200071779578e-01  1.2599324058053835e-01  1.2663261300569775e-01  1.2734856346496537e-01  1.2818737705731173e-01  1.2923437885640723e-01  1.3067120923269016e-01  1.3302520170677948e-01  1.3759128553060820e-01  </DataArray> 
</PointData> 
</Piece>
</UnstructuredGrid>
</VTKFile>