<?xml version="1.0"?>
<VTKFile type="UnstructuredGrid"  version="0.1"  >
<UnstructuredGrid>
<Piece  NumberOfPoints="651" NumberOfCells="1200">
<Points>
<DataArray  type="Float64"  NumberOfComponents="3"  format="ascii">0 0 0  50000 0 0  100000 0 0  150000 0 0  200000 0 0  250000 0 0  300000 0 0  350000 0 0  400000 0 0  450000 0 0  500000 0 0  550000 0 0  600000 0 0  650000 0 0  700000 0 0  750000 0 0  800000 0 0  850000 0 0  900000 0 0  950000 0 0  1000000 0 0  0 50000 0  50000 50000 0  100000 50000 0  150000 50000 0  200000 50000 0  250000 50000 0  300000 50000 0  350000 50000 0  400000 50000 0  450000 50000 0  500000 50000 0  550000 50000 0  600000 50000 0  650000 50000 0  700000 50000 0  750000 50000 0  800000 50000 0  850000 50000 0  900000 50000 0  950000 50000 0  1000000 50000 0  0 100000 0  50000 100000 0  100000 100000 0  150000 100000 0  200000 100000 0  250000 100000 0  300000 100000 0  350000 100000 0  400000 100000 0  450000 100000 0  500000 100000 0  550000 100000 0  600000 100000 0  650000 100000 0  700000 100000 0  750000 100000 0  800000 100000 0  850000 100000 0  900000 100000 0  950000 100000 0  1000000 100000 0  0 150000 0  50000 150000 0  100000 150000 0  150000 150000 0  200000 150000 0  250000 150000 0  300000 150000 0  350000 150000 0  400000 150000 0  450000 150000 0  500000 150000 0  550000 150000 0  600000 150000 0  650000 150000 0  700000 150000 0  750000 150000 0  800000 150000 0  850000 150000 0  900000 150000 0  950000 150000 0  1000000 150000 0  0 200000 0  50000 200000 0  100000 200000 0  150000 200000 0  200000 200000 0  250000 200000 0  300000 200000 0  350000 200000 0  400000 200000 0  450000 200000 0  500000 200000 0  550000 200000 0  600000 200000 0  650000 200000 0  700000 200000 0  750000 200000 0  800000 200000 0  850000 200000 0  900000 200000 0  950000 200000 0  1000000 200000 0  0 250000 0  50000 250000 0  100000 250000 0  150000 250000 0  200000 250000 0  250000 250000 0  300000 250000 0  350000 250000 0  400000 250000 0  450000 250000 0  500000 250000 0  550000 250000 0  600000 250000 0  650000 250000 0  700000 250000 0  750000 250000 0  800000 250000 0  850000 250000 0  900000 250000 0  950000 250000 0  1000000 250000 0  0 300000 0  50000 300000 0  100000 300000 0  150000 300000 0  200000 300000 0  250000 300000 0  300000 300000 0  350000 300000 0  400000 300000 0  450000 300000 0  500000 300000 0  550000 300000 0  600000 300000 0  650000 300000 0  700000 300000 0  750000 300000 0  800000 300000 0  850000 300000 0  900000 300000 0  950000 300000 0  1000000 300000 0  0 350000 0  50000 350000 0  100000 350000 0  150000 350000 0  200000 350000 0  250000 350000 0  300000 350000 0  350000 350000 0  400000 350000 0  450000 350000 0  500000 350000 0  550000 350000 0  600000 350000 0  650000 350000 0  700000 350000 0  750000 350000 0  800000 350000 0  850000 350000 0  900000 350000 0  950000 350000 0  1000000 350000 0  0 400000 0  50000 400000 0  100000 400000 0  150000 400000 0  200000 400000 0  250000 400000 0  300000 400000 0  350000 400000 0  400000 400000 0  450000 400000 0  500000 400000 0  550000 400000 0  600000 400000 0  650000 400000 0  700000 400000 0  750000 400000 0  800000 400000 0  850000 400000 0  900000 400000 0  950000 400000 0  1000000 400000 0  0 450000 0  50000 450000 0  100000 450000 0  150000 450000 0  200000 450000 0  250000 450000 0  300000 450000 0  350000 450000 0  400000 450000 0  450000 450000 0  500000 450000 0  550000 450000 0  600000 450000 0  650000 450000 0  700000 450000 0  750000 450000 0  800000 450000 0  850000 450000 0  900000 450000 0  950000 450000 0  1000000 450000 0  0 500000 0  50000 500000 0  100000 500000 0  150000 500000 0  200000 500000 0  250000 500000 0  300000 500000 0  350000 500000 0  400000 500000 0  450000 500000 0  500000 500000 0  550000 500000 0  600000 500000 0  650000 500000 0  700000 500000 0  750000 500000 0  800000 500000 0  850000 500000 0  900000 500000 0  950000 500000 0  1000000 500000 0  0 550000 0  50000 550000 0  100000 550000 0  150000 550000 0  200000 550000 0  250000 550000 0  300000 550000 0  350000 550000 0  400000 550000 0  450000 550000 0  500000 550000 0  550000 550000 0  600000 550000 0  650000 550000 0  700000 550000 0  750000 550000 0  800000 550000 0  850000 550000 0  900000 550000 0  950000 550000 0  1000000 550000 0  0 600000 0  50000 600000 0  100000 600000 0  150000 600000 0  200000 600000 0  250000 600000 0  300000 600000 0  350000 600000 0  400000 600000 0  450000 600000 0  500000 600000 0  550000 600000 0  600000 600000 0  650000 600000 0  700000 600000 0  750000 600000 0  800000 600000 0  850000 600000 0  900000 600000 0  950000 600000 0  1000000 600000 0  0 650000 0  50000 650000 0  100000 650000 0  150000 650000 0  200000 650000 0  250000 650000 0  300000 650000 0  350000 650000 0  400000 650000 0  450000 650000 0  500000 650000 0  550000 650000 0  600000 650000 0  650000 650000 0  700000 650000 0  750000 650000 0  800000 650000 0  850000 650000 0  900000 650000 0  950000 650000 0  1000000 650000 0  0 700000 0  50000 700000 0  100000 700000 0  150000 700000 0  200000 700000 0  250000 700000 0  300000 700000 0  350000 700000 0  400000 700000 0  450000 700000 0  500000 700000 0  550000 700000 0  600000 700000 0  650000 700000 0  700000 700000 0  750000 700000 0  800000 700000 0  850000 700000 0  900000 700000 0  950000 700000 0  1000000 700000 0  0 750000 0  50000 750000 0  100000 750000 0  150000 750000 0  200000 750000 0  250000 750000 0  300000 750000 0  350000 750000 0  400000 750000 0  450000 750000 0  500000 750000 0  550000 750000 0  600000 750000 0  650000 750000 0  700000 750000 0  750000 750000 0  800000 750000 0  850000 750000 0  900000 750000 0  950000 750000 0  1000000 750000 0  0 800000 0  50000 800000 0  100000 800000 0  150000 800000 0  200000 800000 0  250000 800000 0  300000 800000 0  350000 800000 0  400000 800000 0  450000 800000 0  500000 800000 0  550000 800000 0  600000 800000 0  650000 800000 0  700000 800000 0  750000 800000 0  800000 800000 0  850000 800000 0  900000 800000 0  950000 800000 0  1000000 800000 0  0 850000 0  50000 850000 0  100000 850000 0  150000 850000 0  200000 850000 0  250000 850000 0  300000 850000 0  350000 850000 0  400000 850000 0  450000 850000 0  500000 850000 0  550000 850000 0  600000 850000 0  650000 850000 0  700000 850000 0  750000 850000 0  800000 850000 0  850000 850000 0  900000 850000 0  950000 850000 0  1000000 850000 0  0 900000 0  50000 900000 0  100000 900000 0  150000 900000 0  200000 900000 0  250000 900000 0  300000 900000 0  350000 900000 0  400000 900000 0  450000 900000 0  500000 900000 0  550000 900000 0  600000 900000 0  650000 900000 0  700000 900000 0  750000 900000 0  800000 900000 0  850000 900000 0  900000 900000 0  950000 900000 0  1000000 900000 0  0 950000 0  50000 950000 0  100000 950000 0  150000 950000 0  200000 950000 0  250000 950000 0  300000 950000 0  350000 950000 0  400000 950000 0  450000 950000 0  500000 950000 0  550000 950000 0  600000 950000 0  650000 950000 0  700000 950000 0  750000 950000 0  800000 950000 0  850000 950000 0  900000 950000 0  950000 950000 0  1000000 950000 0  0 1000000 0  50000 1000000 0  100000 1000000 0  150000 1000000 0  200000 1000000 0  250000 1000000 0  300000 1000000 0  350000 1000000 0  400000 1000000 0  450000 1000000 0  500000 1000000 0  550000 1000000 0  600000 1000000 0  650000 1000000 0  700000 1000000 0  750000 1000000 0  800000 1000000 0  850000 1000000 0  900000 1000000 0  950000 1000000 0  1000000 1000000 0  0 1050000 0  50000 1050000 0  100000 1050000 0  150000 1050000 0  200000 1050000 0  250000 1050000 0  300000 1050000 0  350000 1050000 0  400000 1050000 0  450000 1050000 0  500000 1050000 0  550000 1050000 0  600000 1050000 0  650000 1050000 0  700000 1050000 0  750000 1050000 0  800000 1050000 0  850000 1050000 0  900000 1050000 0  950000 1050000 0  1000000 1050000 0  0 1100000 0  50000 1100000 0  100000 1100000 0  150000 1100000 0  200000 1100000 0  250000 1100000 0  300000 1100000 0  350000 1100000 0  400000 1100000 0  450000 1100000 0  500000 1100000 0  550000 1100000 0  600000 1100000 0  650000 1100000 0  700000 1100000 0  750000 1100000 0  800000 1100000 0  850000 1100000 0  900000 1100000 0  950000 1100000 0  1000000 1100000 0  0 1150000 0  50000 1150000 0  100000 1150000 0  150000 1150000 0  200000 1150000 0  250000 1150000 0  300000 1150000 0  350000 1150000 0  400000 1150000 0  450000 1150000 0  500000 1150000 0  550000 1150000 0  600000 1150000 0  650000 1150000 0  700000 1150000 0  750000 1150000 0  800000 1150000 0  850000 1150000 0  900000 1150000 0  950000 1150000 0  1000000 1150000 0  0 1200000 0  50000 1200000 0  100000 1200000 0  150000 1200000 0  200000 1200000 0  250000 1200000 0  300000 1200000 0  350000 1200000 0  400000 1200000 0  450000 1200000 0  500000 1200000 0  550000 1200000 0  600000 1200000 0  650000 1200000 0  700000 1200000 0  750000 1200000 0  800000 1200000 0  850000 1200000 0  900000 1200000 0  950000 1200000 0  1000000 1200000 0  0 1250000 0  50000 1250000 0  100000 1250000 0  150000 1250000 0  200000 1250000 0  250000 1250000 0  300000 1250000 0  350000 1250000 0  400000 1250000 0  450000 1250000 0  500000 1250000 0  550000 1250000 0  600000 1250000 0  650000 1250000 0  700000 1250000 0  750000 1250000 0  800000 1250000 0  850000 1250000 0  900000 1250000 0  950000 1250000 0  1000000 1250000 0  0 1300000 0  50000 1300000 0  100000 1300000 0  150000 1300000 0  200000 1300000 0  250000 1300000 0  300000 1300000 0  350000 1300000 0  400000 1300000 0  450000 1300000 0  500000 1300000 0  550000 1300000 0  600000 1300000 0  650000 1300000 0  700000 1300000 0  750000 1300000 0  800000 1300000 0  850000 1300000 0  900000 1300000 0  950000 1300000 0  1000000 1300000 0  0 1350000 0  50000 1350000 0  100000 1350000 0  150000 1350000 0  200000 1350000 0  250000 1350000 0  300000 1350000 0  350000 1350000 0  400000 1350000 0  450000 1350000 0  500000 1350000 0  550000 1350000 0  600000 1350000 0  650000 1350000 0  700000 135
[...]
<PointData  Scalars="f_4507"> 
<DataArray  type="Float64"  Name="f_4507"  format="ascii">-1.1622444737943233e-01  -1.3809936150793449e-02  -7.3381249876540927e-03  9.9627574820952366e-04  6.6331498347524743e-03  1.0965314393073484e-02  1.4630849077200572e-02  1.7872776603044056e-02  2.0852740634760291e-02  2.3678726261187510e-02  2.6433034465388642e-02  2.9187237180551339e-02  3.2012868447115955e-02  3.4992057127358638e-02  3.8232852726999861e-02  4.1894938084091511e-02  4.6214150949450257e-02  5.1975818709108230e-02  5.9410399987055676e-02  6.7600445295948469e-02  2.4526946078528292e-01  -2.4566722842433615e-02  -1.3916527813200061e-02  -8.0718965219750468e-03  1.4228405175092673e-03  6.6572117524156078e-03  1.0994430166660369e-02  1.4647372499924911e-02  1.7882733112118472e-02  2.0859455100331315e-02  2.3683471663033626e-02  2.6436575630597470e-02  2.9190035865164748e-02  3.2015224288692960e-02  3.4994282616731404e-02  3.8234795529552730e-02  4.1893886827740187e-02  4.6243285624735148e-02  5.1756695211115811e-02  5.9266655779073502e-02  7.5796976800712415e-02  7.8237128107828263e-02  -7.1568468532021267e-03  -7.4732666156986476e-03  -1.7922512137600747e-03  3.6171641520374525e-03  7.7626499415583278e-03  1.1679660597678528e-02  1.5067416733597237e-02  1.8147352186805438e-02  2.1017296041910615e-02  2.3759709650992871e-02  2.6442262902834038e-02  2.9125910742506603e-02  3.1871959651525568e-02  3.4749182896247899e-02  3.7842578648873360e-02  4.1265990797296363e-02  4.5177074926041047e-02  4.9772500877502193e-02  5.5375498478375966e-02  5.9967354053313771e-02  5.8763923980595822e-02  3.0276090941986120e-04  5.2730388406363557e-04  3.1297863375285666e-03  6.1807281492368190e-03  9.5626094143089688e-03  1.2808459766822024e-02  1.5796148231063459e-02  1.8616995607945070e-02  2.1299474742701090e-02  2.3894116283178900e-02  2.6446263058021058e-02  2.8999879474066743e-02  3.1599309185045478e-02  3.4291436118048323e-02  3.7126932124272857e-02  4.0157583571677494e-02  4.3419723718507497e-02  4.6880675717203536e-02  5.0187376888627476e-02  5.2369372103575410e-02  5.2699513173680018e-02  5.4768314679914673e-03  5.5447190902813952e-03  6.8848950364007238e-03  9.0276061231766846e-03  1.1560739567342552e-02  1.4144569372618435e-02  1.6712459435245266e-02  1.9223201587016927e-02  2.1669788875460453e-02  2.4071157089638178e-02  2.6449223135031185e-02  2.8828837802369989e-02  3.1235059055624799e-02  3.3691296985036472e-02  3.6215235708655931e-02  3.8808801880748575e-02  4.1434783946200232e-02  4.3963712602794330e-02  4.6099639218711345e-02  4.7373221850861000e-02  4.7353463129900443e-02  9.1508237867725731e-03  9.1806905839901653e-03  1.0052581863646552e-02  1.1554257458157495e-02  1.3438062770751746e-02  1.5522398084884146e-02  1.7696918288742293e-02  1.9892990346679375e-02  2.2086708444838506e-02  2.4271664196752328e-02  2.6450603317626428e-02  2.8630898025538639e-02  3.0819929890858869e-02  3.3021134105358993e-02  3.5227991986171395e-02  3.7413778229964799e-02  3.9514264825990068e-02  4.1404149210470788e-02  4.2883117675225450e-02  4.3701211433684412e-02  4.3702116143703437e-02  1.1945336814094678e-02  1.1963786448414265e-02  1.2574266504142603e-02  1.3675460131912589e-02  1.5135866404343345e-02  1.6829841178232149e-02  1.8661198625178687e-02  2.0568112126783267e-02  2.2514309857856043e-02  2.4478786349006298e-02  2.6450716293694373e-02  2.8423663717871396e-02  3.0391137794783044e-02  3.2342186316653504e-02  3.4255818230677214e-02  3.6093531865787704e-02  3.7790154732117706e-02  3.9246396788795219e-02  4.0332637647932580e-02  4.0913280661261736e-02  4.0913836171759858e-02  1.4128673737035236e-02  1.4140156207979926e-02  1.4597228912375772e-02  1.5446247612257260e-02  1.6609317889783325e-02  1.8002158804134357e-02  1.9553097250744954e-02  2.1207236170724182e-02  2.2925049117313363e-02  2.4679108873282923e-02  2.6449816852581715e-02  2.8221182559671668e-02  2.9977152051482960e-02  3.1697781585019673e-02  3.3355047528375745e-02  3.4908337326316270e-02  3.6300571535312479e-02  3.7457527145444147e-02  3.8294762637676630e-02  3.8732913499356848e-02  3.8732955818968448e-02  1.5856457660589046e-02  1.5864247022298529e-02  1.6223516880279766e-02  1.6902936603000910e-02  1.7853846670483613e-02  1.9019170775315331e-02  2.0344925836869632e-02  2.1784607285969444e-02  2.3300695637504761e-02  2.4863394429511441e-02  2.6448243219789509e-02  2.8033458198562934e-02  2.9597172476949242e-02  3.1114625051434700e-02  3.2555413451068223e-02  3.3881130580631309e-02  3.5044228884602069e-02  3.5989546516439902e-02  3.6660208797734371e-02  3.7006661156737300e-02  3.7006872895557798e-02  1.7227144196121272e-02  1.7232686367866599e-02  1.7525970890478023e-02  1.8087388232843390e-02  1.8884616853229515e-02  1.9877325802232157e-02  2.1024263076215716e-02  2.2286766601157013e-02  2.3630618327687879e-02  2.5025964181891226e-02  2.6446272820794259e-02  2.7866745318385396e-02  2.9262500900985897e-02  3.0606761826992304e-02  3.1869251878668466e-02  3.3015162207608195e-02  3.4005244374308768e-02  3.4797723928054053e-02  3.5352604659043579e-02  3.5636929508170087e-02  3.5637218358514480e-02  1.8306411576157224e-02  1.8310488675902094e-02  1.8557754534990006e-02  1.9035122104738726e-02  1.9719733535870410e-02  2.0581750792169732e-02  2.1588769935306309e-02  2.2708328027586495e-02  2.3909598380377265e-02  2.5163844906790481e-02  2.6444113965875954e-02  2.7724421344172256e-02  2.8978721654971413e-02  3.0179880925719667e-02  3.1298881622507733e-02  3.2304545030583671e-02  3.3164098131388799e-02  3.3844891291298008e-02  3.4317390609919333e-02  3.4558273567775258e-02  3.4558636547207679e-02  1.9139812637365746e-02  1.9142883121425397e-02  1.9357603624172454e-02  1.9774708587415285e-02  2.0376991863085701e-02  2.1141237036553094e-02  2.2041033024377064e-02  2.3048538850743688e-02  2.4135895724386253e-02  2.5275858995157264e-02  2.6441898258675552e-02  2.7607910475848259e-02  2.8747751682186441e-02  2.9834773009785254e-02  3.0841553151467346e-02  3.1740028878854513e-02  3.2502201687708281e-02  3.3101547048537669e-02  3.3515087055578333e-02  3.3725272035251920e-02  3.3725718180071883e-02  1.9759400773179354e-02  1.9761749491704911e-02  1.9953692269325939e-02  2.0328285802908439e-02  2.0871732441490858e-02  2.1564983334846161e-02  2.2385596693423254e-02  2.3309012913375525e-02  2.4309708556505258e-02  2.5361866541898658e-02  2.6439696294352073e-02  2.7517476106874026e-02  2.8569458676125620e-02  2.9569780890030088e-02  3.0492521553299123e-02  3.1312043121375137e-02  3.2003708691161634e-02  3.2545025489141448e-02  3.2917116453673935e-02  3.3105939247738331e-02  3.3106489778148444e-02  2.0187478282268183e-02  2.0189293179699880e-02  2.0366052540657136e-02  2.0712247166135987e-02  2.1216082331613834e-02  2.1861048956396820e-02  2.2627207512381231e-02  2.3492169940327066e-02  2.4432067569670601e-02  2.5422213577900522e-02  2.6437535693236758e-02  2.7452811903887313e-02  2.8442805685338114e-02  2.9382404209543040e-02  3.0246864089113042e-02  3.1012257184454658e-02  3.1656159917979397e-02  3.2158611133616899e-02  3.2503212022206511e-02  3.2678010070922692e-02  3.2678697509973514e-02  2.0438774880918140e-02  2.0440186641642315e-02  2.0608093816983752e-02  2.0937852962857280e-02  2.1418712171423146e-02  2.2035540079999919e-02  2.2769775782945815e-02  2.3600264998104928e-02  2.4504118336027642e-02  2.5457360548250672e-02  2.6435416045618172e-02  2.7413445112247473e-02  2.8366601552522235e-02  2.9270291811776934e-02  3.0100516029017938e-02  3.0834359635606275e-02  3.1450654794027012e-02  3.1930832873332544e-02  3.2259816271531509e-02  3.2426775656548501e-02  3.2427643382903028e-02  2.0521700668894447e-02  2.0522804443532092e-02  2.0687521170115783e-02  2.1011666684539354e-02  2.1484789397064143e-02  2.2092210633619470e-02  2.2815807864649238e-02  2.3634823388860596e-02  2.4526684788729731e-02  2.5467652128653755e-02  2.6433320582413364e-02  2.7398989036172914e-02  2.8339956376096997e-02  2.9231817775966191e-02  3.0050833300177542e-02  3.0774430531207399e-02  3.1381851767762779e-02  3.1854974480287616e-02  3.2179119994711208e-02  3.2343836721294886e-02  3.2344940495932541e-02  2.0438997781924075e-02  2.0439865508278560e-02  2.0606824893295569e-02  2.0935808291494464e-02  2.1415986370799986e-02  2.2032281529220630e-02  2.2766125135808935e-02  2.3596349353049901e-02  2.4500039612304472e-02  2.5453196052579237e-02  2.6431225119208545e-02  2.7409280616576048e-02  2.8362522828799072e-02  2.9266376166721775e-02  3.0096865381880923e-02  3.0831101084826864e-02  3.1447928993403748e-02  3.1928788201969607e-02  3.2258547347843197e-02  3.2426454523184593e-02  3.2427866283908841e-02  2.0187943654853546e-02  2.0188631093904459e-02  2.0363429142620626e-02  2.0708030031210203e-02  2.1210481246847622e-02  2.1854383980372306e-02  2.2619777075713846e-02  2.3484236955283778e-02  2.4423835479488645e-02  2.5413829260939436e-02  2.6429105471589925e-02  2.7444427586926157e-02  2.8434573595156061e-02  2.9374471224499616e-02  3.0239433652445514e-02  3.1005592208429984e-02  3.1650558833213029e-02  3.2154393998690856e-02  3.2500588624169796e-02  3.2677347985127066e-02  3.2679162882558739e-02  1.9760151386678887e-02  1.9760701917088959e-02  1.9949524711153355e-02  2.0321615675685748e-02  2.0862932473665535e-02  2.1554598043451900e-02  2.2374119611527844e-02  2.3296860274796768e-02  2.4297182488701174e-02  2.5349165057952684e-02  2.6426944870474634e-02  2.7504774622928031e-02  2.8556932608321425e-02  2.9557628251451116e-02  3.0481044471403484e-02  3.1301657829980574e-02  3.1994908723335942e-02  3.2538355361918458e-02  3.2912948895500935e-02  3.3104891673121972e-02  3.3107240391647551e-02  1.9140922984755542e-02  1.9141369129575488e-02  1.9351554109249085e-02  1.9765094116289662e-02  2.0364439477118960e-02  2.1126612285972589e-02  2.2025088013359697e-02  2.3031868155041629e-02  2.4118889482640349e-02  2.5258730688978465e-02  2.6424742906151131e-02  2.7590782169669398e-02  2.8730745440440388e-02  2.9818102314082922e-02  3.0825608140449576e-02  3.1725404128273578e-02  3.2489649301741128e-02  3.3091932577411547e-02  3.3509037540654422e-02  3.3723758043401504e-02  3.3726828527461131e-02  1.8308004617619947e-02  1.8308367597052372e-02  1.8549250554908265e-02  1.9021749873529434e-02  1.9702543033438581e-02  2.0562096134243528e-02  2.1567759542319358e-02  2.2686760239107265e-02  2.3887919509855415e-02  2.5142219820654444e-02  2.6422527198950690e-02  2.7702796258036129e-02  2.8957042784449327e-02  3.0158313137240121e-02  3.1277871229520360e-02  3.2284890372656999e-02  3.3146907628956411e-02  3.3831519060088126e-02  3.4308886629836922e-02  3.4556152488924831e-02  3.4560229588669729e-02  1.7229422806313417e-02  1.7229711656657754e-02  1.7514036505784199e-02  1.8068917236773632e-02  1.8861396790518747e-02  1.9851478957219094e-02  2.0997389286158664e-02  2.2259879337834614e-02  2.3604140263840917e-02  2.4999895846441345e-02  2.6420368344032358e-02  2.7840676982935360e-02  2.9236022837138675e-02  3.0579874563669573e-02  3.1842378088610936e-02  3.2989315362594536e-02  3.3982024311597268e-02  3.4779252931983494e-02  3.5340670274348944e-02  3.5633954796960389e-02  3.5639496968705719e-02  1.5859768269270311e-02  1.5859980008090777e-02  1.6206432367093671e-02  1.6877094648387939e-02  1.7822412280225547e-02  1.8985510584196098e-02  2.0311227713758921e-02  2.1752016113392295e-02  2.3269468687877604e-02  2.4833182966263731e-02  2.6418397945037052e-02  2.8003246735315096e-02  2.9565945527321776e-02  3.1082033878857079e-02  3.2521715327956967e-02  3.3847470389511358e-02  3.5012794494343184e-02  3.5963704561826029e-02  3.6643124284547225e-02  3.7002394142528532e-02  3.7010183504238056e-02  1.4133685345859950e-02  1.4133727665471598e-02  1.4571878527151657e-02  1.5409114019383888e-02  1.6566069629515266e-02  1.7958303838511182e-02  1.9511593636451413e-02  2.1168859579807259e-02  2.2889489113343767e-02  2.4645458605154928e-02  2.6416824312244770e-02  2.8187532291543506e-02  2.9941592047513083e-02  3.1659404994102275e-02  3.3313543914081555e-02  3.4864482360692242e-02  3.6257323275043461e-02  3.7420393552569736e-02  3.8269412252451375e-02  3.8726484956847322e-02  3.8737967427792008e-02  1.1952804993068956e-02  1.1953360503567047e-02  1.2534003516896021e-02  1.3620244376033045e-02  1.5076486432710128e-02  1.6773109299039787e-02  1.8610822934149930e-02  2.0524454848173373e-02  2.2475503370043653e-02  2.4442977446955116e-02  2.6415924871132014e-02  2.8387854815820016e-02  3.0352331306970244e-02  3.2298529038043013e-02  3.4205442539647711e-02  3.6036799986594370e-02  3.7730774760483435e-02  3.9191181032914434e-02  4.0292374660684728e-02  4.0902854716413209e-02  4.0921304350732844e-02  9.1645250211259341e-03  9.1654297311449077e-03  9.9835234896035931e-03  1.1462491954357704e-02  1.3352376338837832e-02  1.5452862934862577e-02  1.7638649178655572e-02  1.9845507059467783e-02  2.2046711273967692e-02  2.4235743139287721e-02  2.6416037847199828e-02  2.8594976968073824e-02  3.0779932719987670e-02  3.2973650818146745e-02  3.5169722876083866e-02  3.7344243079942212e-02  3.9428578394074890e-02  4.1312383706669571e-02  4.2814059301180984e-02  4.3685950580837685e-02  4.3715817378055244e-02  5.5131780349295554e-03  5.4934193139689934e-03  6.7670019461181109e-03  8.9029285620341788e-03  1.1431857218627521e-02  1.4057839284078532e-02  1.6651405456170870e-02  1.9175344179790089e-02  2.1631582109201540e-02  2.4037803362456193e-02  2.6417418029794901e-02  2.8795484075187814e-02  3.1196852289365473e-02  3.3643439577808909e-02  3.6154181729580605e-02  3.8722071792207630e-02  4.1305901597483784e-02  4.3839035041650376e-02  4.5981746128427085e-02  4.7321922074546934e-02  4.7389809696836940e-02  1.6712799115110896e-04  4.9726906125552035e-04  2.6792642762023216e-03  5.9859654476246528e-03  9.4469174463196835e-03  1.2709057593149185e-02  1.5739709040553520e-02  1.8575205046777944e-02  2.1267331979780660e-02  2.3866761690759294e-02  2.6420378106804851e-02  2.8972524881646922e-02  3.1567166422124586e-02  3.4249645556880461e-02  3.7070492933762050e-02  4.0058181398003413e-02  4.3304031750516850e-02  4.6685913015589484e-02  4.9736854827298643e-02  5.2339337280765605e-02  5.2563880255409666e-02  -5.8972828157656367e-03  -7.1007128884807364e-03  -2.5088573135470392e-03  3.0941402873244307e-03  7.6895662387849112e-03  1.1600650367529448e-02  1.5024062515952542e-02  1.8117458268578052e-02  2.0994681513300330e-02  2.3740730422319247e-02  2.6424378261991750e-02  2.9106931513832757e-02  3.1849345122914846e-02  3.4719288978019756e-02  3.7799224431227706e-02  4.1186980567146141e-02  4.5103991223266200e-02  4.9249477012787292e-02  5.4658892378587849e-02  6.0339907780530666e-02  6.0023488018032034e-02  -2.5370486942965124e-02  -2.2930335635883248e-02  -6.4000146142499069e-03  1.1099459537078466e-03  6.6233555400893812e-03  1.0972754337084976e-02  1.4631845635272856e-02  1.7872358548094405e-02  2.0851416876132952e-02  2.3676605299661181e-02  2.6430065534228379e-02  2.9183169501792075e-02  3.2007186064494125e-02  3.4983908052706611e-02  3.8219268664899692e-02  4.1872210998163538e-02  4.6209429412407306e-02  5.1443800647313000e-02  6.0938537686794865e-02  6.6783168978019877e-02  7.7433364007272562e-02  -1.9240281962037575e-01  -1.4733804131112468e-02  -6.5437588222327508e-03  8.9082245571587811e-04  6.6524902153746015e-03  1.0971703080733855e-02  1.4633788437826098e-02  1.7874584037467375e-02  2.0853772717710318e-02  2.3679403984274868e-02  2.6433606699437551e-02  2.9187914903638413e-02  3.2013900530065482e-02  3.4993864561781322e-02  3.8235792087624322e-02  4.1901326771750673e-02  4.6233491330070819e-02  5.1870365416612732e-02  6.0204766152473679e-02  6.6676577315620725e-02  1.6909108854433649e-01  </DataArray> 
</PointData> 
</Piece>
</UnstructuredGrid>
</VTKFile>