<?xml version="1.0"?>
<VTKFile type="UnstructuredGrid"  version="0.1"  >
<UnstructuredGrid>
<Piece  NumberOfPoints="651" NumberOfCells="1200">
<Points>
<DataArray  type="Float64"  NumberOfComponents="3"  format="ascii">0 0 0  50000 0 0  100000 0 0  150000 0 0  200000 0 0  250000 0 0  300000 0 0  350000 0 0  400000 0 0  450000 0 0  500000 0 0  550000 0 0  600000 0 0  650000 0 0  700000 0 0  750000 0 0  800000 0 0  850000 0 0  900000 0 0  950000 0 0  1000000 0 0  0 50000 0  50000 50000 0  100000 50000 0  150000 50000 0  200000 50000 0  250000 50000 0  300000 50000 0  350000 50000 0  400000 50000 0  450000 50000 0  500000 50000 0  550000 50000 0  600000 50000 0  650000 50000 0  700000 50000 0  750000 50000 0  800000 50000 0  850000 50000 0  900000 50000 0  950000 50000 0  1000000 50000 0  0 100000 0  50000 100000 0  100000 100000 0  150000 100000 0  200000 100000 0  250000 100000 0  300000 100000 0  350000 100000 0  400000 100000 0  450000 100000 0  500000 100000 0  550000 100000 0  600000 100000 0  650000 100000 0  700000 100000 0  750000 100000 0  800000 100000 0  850000 100000 0  900000 100000 0  950000 100000 0  1000000 100000 0  0 150000 0  50000 150000 0  100000 150000 0  150000 150000 0  200000 150000 0  250000 150000 0  300000 150000 0  350000 150000 0  400000 150000 0  450000 150000 0  500000 150000 0  550000 150000 0  600000 150000 0  650000 150000 0  700000 150000 0  750000 150000 0  800000 150000 0  850000 150000 0  900000 150000 0  950000 150000 0  1000000 150000 0  0 200000 0  50000 200000 0  100000 200000 0  150000 200000 0  200000 200000 0  250000 200000 0  300000 200000 0  350000 200000 0  400000 200000 0  450000 200000 0  500000 200000 0  550000 200000 0  600000 200000 0  650000 200000 0  700000 200000 0  750000 200000 0  800000 200000 0  850000 200000 0  900000 200000 0  950000 200000 0  1000000 200000 0  0 250000 0  50000 250000 0  100000 250000 0  150000 250000 0  200000 250000 0  250000 250000 0  300000 250000 0  350000 250000 0  400000 250000 0  450000 250000 0  500000 250000 0  550000 250000 0  600000 250000 0  650000 250000 0  700000 250000 0  750000 250000 0  800000 250000 0  850000 250000 0  900000 250000 0  950000 250000 0  1000000 250000 0  0 300000 0  50000 300000 0  100000 300000 0  150000 300000 0  200000 300000 0  250000 300000 0  300000 300000 0  350000 300000 0  400000 300000 0  450000 300000 0  500000 300000 0  550000 300000 0  600000 300000 0  650000 300000 0  700000 300000 0  750000 300000 0  800000 300000 0  850000 300000 0  900000 300000 0  950000 300000 0  1000000 300000 0  0 350000 0  50000 350000 0  100000 350000 0  150000 350000 0  200000 350000 0  250000 350000 0  300000 350000 0  350000 350000 0  400000 350000 0  450000 350000 0  500000 350000 0  550000 350000 0  600000 350000 0  650000 350000 0  700000 350000 0  750000 350000 0  800000 350000 0  850000 350000 0  900000 350000 0  950000 350000 0  1000000 350000 0  0 400000 0  50000 400000 0  100000 400000 0  150000 400000 0  200000 400000 0  250000 400000 0  300000 400000 0  350000 400000 0  400000 400000 0  450000 400000 0  500000 400000 0  550000 400000 0  600000 400000 0  650000 400000 0  700000 400000 0  750000 400000 0  800000 400000 0  850000 400000 0  900000 400000 0  950000 400000 0  1000000 400000 0  0 450000 0  50000 450000 0  100000 450000 0  150000 450000 0  200000 450000 0  250000 450000 0  300000 450000 0  350000 450000 0  400000 450000 0  450000 450000 0  500000 450000 0  550000 450000 0  600000 450000 0  650000 450000 0  700000 450000 0  750000 450000 0  800000 450000 0  850000 450000 0  900000 450000 0  950000 450000 0  1000000 450000 0  0 500000 0  50000 500000 0  100000 500000 0  150000 500000 0  200000 500000 0  250000 500000 0  300000 500000 0  350000 500000 0  400000 500000 0  450000 500000 0  500000 500000 0  550000 500000 0  600000 500000 0  650000 500000 0  700000 500000 0  750000 500000 0  800000 500000 0  850000 500000 0  900000 500000 0  950000 500000 0  1000000 500000 0  0 550000 0  50000 550000 0  100000 550000 0  150000 550000 0  200000 550000 0  250000 550000 0  300000 550000 0  350000 550000 0  400000 550000 0  450000 550000 0  500000 550000 0  550000 550000 0  600000 550000 0  650000 550000 0  700000 550000 0  750000 550000 0  800000 550000 0  850000 550000 0  900000 550000 0  950000 550000 0  1000000 550000 0  0 600000 0  50000 600000 0  100000 600000 0  150000 600000 0  200000 600000 0  250000 600000 0  300000 600000 0  350000 600000 0  400000 600000 0  450000 600000 0  500000 600000 0  550000 600000 0  600000 600000 0  650000 600000 0  700000 600000 0  750000 600000 0  800000 600000 0  850000 600000 0  900000 600000 0  950000 600000 0  1000000 600000 0  0 650000 0  50000 650000 0  100000 650000 0  150000 650000 0  200000 650000 0  250000 650000 0  300000 650000 0  350000 650000 0  400000 650000 0  450000 650000 0  500000 650000 0  550000 650000 0  600000 650000 0  650000 650000 0  700000 650000 0  750000 650000 0  800000 650000 0  850000 650000 0  900000 650000 0  950000 650000 0  1000000 650000 0  0 700000 0  50000 700000 0  100000 700000 0  150000 700000 0  200000 700000 0  250000 700000 0  300000 700000 0  350000 700000 0  400000 700000 0  450000 700000 0  500000 700000 0  550000 700000 0  600000 700000 0  650000 700000 0  700000 700000 0  750000 700000 0  800000 700000 0  850000 700000 0  900000 700000 0  950000 700000 0  1000000 700000 0  0 750000 0  50000 750000 0  100000 750000 0  150000 750000 0  200000 750000 0  250000 750000 0  300000 750000 0  350000 750000 0  400000 750000 0  450000 750000 0  500000 750000 0  550000 750000 0  600000 750000 0  650000 750000 0  700000 750000 0  750000 750000 0  800000 750000 0  850000 750000 0  900000 750000 0  950000 750000 0  1000000 750000 0  0 800000 0  50000 800000 0  100000 800000 0  150000 800000 0  200000 800000 0  250000 800000 0  300000 800000 0  350000 800000 0  400000 800000 0  450000 800000 0  500000 800000 0  550000 800000 0  600000 800000 0  650000 800000 0  700000 800000 0  750000 800000 0  800000 800000 0  850000 800000 0  900000 800000 0  950000 800000 0  1000000 800000 0  0 850000 0  50000 850000 0  100000 850000 0  150000 850000 0  200000 850000 0  250000 850000 0  300000 850000 0  350000 850000 0  400000 850000 0  450000 850000 0  500000 850000 0  550000 850000 0  600000 850000 0  650000 850000 0  700000 850000 0  750000 850000 0  800000 850000 0  850000 850000 0  900000 850000 0  950000 850000 0  1000000 850000 0  0 900000 0  50000 900000 0  100000 900000 0  150000 900000 0  200000 900000 0  250000 900000 0  300000 900000 0  350000 900000 0  400000 900000 0  450000 900000 0  500000 900000 0  550000 900000 0  600000 900000 0  650000 900000 0  700000 900000 0  750000 900000 0  800000 900000 0  850000 900000 0  900000 900000 0  950000 900000 0  1000000 900000 0  0 950000 0  50000 950000 0  100000 950000 0  150000 950000 0  200000 950000 0  250000 950000 0  300000 950000 0  350000 950000 0  400000 950000 0  450000 950000 0  500000 950000 0  550000 950000 0  600000 950000 0  650000 950000 0  700000 950000 0  750000 950000 0  800000 950000 0  850000 950000 0  900000 950000 0  950000 950000 0  1000000 950000 0  0 1000000 0  50000 1000000 0  100000 1000000 0  150000 1000000 0  200000 1000000 0  250000 1000000 0  300000 1000000 0  350000 1000000 0  400000 1000000 0  450000 1000000 0  500000 1000000 0  550000 1000000 0  600000 1000000 0  650000 1000000 0  700000 1000000 0  750000 1000000 0  800000 1000000 0  850000 1000000 0  900000 1000000 0  950000 1000000 0  1000000 1000000 0  0 1050000 0  50000 1050000 0  100000 1050000 0  150000 1050000 0  200000 1050000 0  250000 1050000 0  300000 1050000 0  350000 1050000 0  400000 1050000 0  450000 1050000 0  500000 1050000 0  550000 1050000 0  600000 1050000 0  650000 1050000 0  700000 1050000 0  750000 1050000 0  800000 1050000 0  850000 1050000 0  900000 1050000 0  950000 1050000 0  1000000 1050000 0  0 1100000 0  50000 1100000 0  100000 1100000 0  150000 1100000 0  200000 1100000 0  250000 1100000 0  300000 1100000 0  350000 1100000 0  400000 1100000 0  450000 1100000 0  500000 1100000 0  550000 1100000 0  600000 1100000 0  650000 1100000 0  700000 1100000 0  750000 1100000 0  800000 1100000 0  850000 1100000 0  900000 1100000 0  950000 1100000 0  1000000 1100000 0  0 1150000 0  50000 1150000 0  100000 1150000 0  150000 1150000 0  200000 1150000 0  250000 1150000 0  300000 1150000 0  350000 1150000 0  400000 1150000 0  450000 1150000 0  500000 1150000 0  550000 1150000 0  600000 1150000 0  650000 1150000 0  700000 1150000 0  750000 1150000 0  800000 1150000 0  850000 1150000 0  900000 1150000 0  950000 1150000 0  1000000 1150000 0  0 1200000 0  50000 1200000 0  100000 1200000 0  150000 1200000 0  200000 1200000 0  250000 1200000 0  300000 1200000 0  350000 1200000 0  400000 1200000 0  450000 1200000 0  500000 1200000 0  550000 1200000 0  600000 1200000 0  650000 1200000 0  700000 1200000 0  750000 1200000 0  800000 1200000 0  850000 1200000 0  900000 1200000 0  950000 1200000 0  1000000 1200000 0  0 1250000 0  50000 1250000 0  100000 1250000 0  150000 1250000 0  200000 1250000 0  250000 1250000 0  300000 1250000 0  350000 1250000 0  400000 1250000 0  450000 1250000 0  500000 1250000 0  550000 1250000 0  600000 1250000 0  650000 1250000 0  700000 1250000 0  750000 1250000 0  800000 1250000 0  850000 1250000 0  900000 1250000 0  950000 1250000 0  1000000 1250000 0  0 1300000 0  50000 1300000 0  100000 1300000 0  150000 1300000 0  200000 1300000 0  250000 1300000 0  300000 1300000 0  350000 1300000 0  400000 1300000 0  450000 1300000 0  500000 1300000 0  550000 1300000 0  600000 1300000 0  650000 1300000 0  700000 1300000 0  750000 1300000 0  800000 1300000 0  850000 1300000 0  900000 1300000 0  950000 1300000 0  1000000 1300000 0  0 1350000 0  50000 1350000 0  100000 1350000 0  150000 1350000 0  200000 1350000 0  250000 1350000 0  300000 1350000 0  350000 1350000 0  400000 1350000 0  450000 1350000 0  500000 1350000 0  550000 1350000 0  600000 1350000 0  650000 1350000 0  700000 135
[...]
<PointData  Scalars="f_4507"> 
<DataArray  type="Float64"  Name="f_4507"  format="ascii">-1.2549580176471717e-01  -1.6034216026426878e-02  -9.5315517466593048e-03  -8.2659740802434878e-04  5.0291886050240374e-03  9.5217217744098283e-03  1.3321945991627998e-02  1.6681406438339104e-02  1.9768599018109768e-02  2.2695790727065408e-02  2.5548506535898331e-02  2.8401101269519623e-02  3.1327887519258885e-02  3.4414188695616611e-02  3.7772353732784023e-02  4.1568673687468853e-02  4.6046082600249262e-02  5.2040486721090011e-02  5.9745806602805540e-02  6.8042486280106187e-02  2.5832986354037496e-01  -2.7701896068067139e-02  -1.6451158265797790e-02  -1.0403223099261909e-02  -4.0462190052714089e-04  5.0323557545354320e-03  9.5408326471663491e-03  1.3332043561471624e-02  1.6687290658875590e-02  1.9772937244667586e-02  2.2699477410272229e-02  2.5552163122337584e-02  2.8405209836207625e-02  3.1332938106689821e-02  3.4420942004301971e-02  3.7781497779516122e-02  4.1578768101605143e-02  4.6098336542126639e-02  5.1838930675526154e-02  5.9675740759805050e-02  7.7189425777379236e-02  7.9756530708163131e-02  -9.3168733295009073e-03  -9.7572870956051886e-03  -3.7926487331177384e-03  1.8632680490197060e-03  6.1670512465262471e-03  1.0244893937069861e-02  1.3762264392103459e-02  1.6958165122063044e-02  1.9934432241503566e-02  2.2777502244609098e-02  2.5558085856560546e-02  2.8339801676799486e-02  3.1186637811182909e-02  3.4170448900515113e-02  3.7380216606827187e-02  4.0935526316349322e-02  4.5002835068671976e-02  4.9790779866224107e-02  5.5652915692170533e-02  6.0436910093381729e-02  5.9009111371497433e-02  -1.5495831298881616e-03  -1.3512013735100768e-03  1.3532027945599757e-03  4.5182472954036941e-03  8.0384237525284018e-03  1.1414256000714752e-02  1.4515874586633863e-02  1.7443515416840784e-02  2.0225853988267879e-02  2.2916299195761273e-02  2.5562282332019844e-02  2.8209794463348870e-02  3.0905219579762940e-02  3.3697659320102262e-02  3.6640325924227696e-02  3.9787877097352327e-02  4.3179177901527706e-02  4.6781370069463903e-02  5.0222548989425263e-02  5.2473876680664215e-02  5.2798983183119111e-02  3.8364967228588630e-03  3.8847685916042554e-03  5.2628443027963557e-03  7.4858797176047273e-03  1.0118514579945490e-02  1.2800932175650022e-02  1.5466487548055415e-02  1.8071837248549150e-02  2.0609458993525207e-02  2.3099652977921846e-02  2.5565369380700864e-02  2.8032703242348252e-02  3.0527945883022337e-02  3.3075710025176494e-02  3.5694702339089668e-02  3.8387243464847072e-02  4.1114739447196250e-02  4.3741522874970969e-02  4.5956533707671124e-02  4.7266391716024578e-02  4.7220803997177874e-02  7.6525555091304948e-03  7.6689551022254138e-03  8.5635283030704688e-03  1.0117734829882825e-02  1.2070675770113603e-02  1.4232942715902681e-02  1.6489141052861169e-02  1.8767031905179723e-02  2.1042043636332365e-02  2.3307651786509214e-02  2.5566825981840870e-02  2.7827420212166783e-02  3.0097275420605200e-02  3.2380131600540610e-02  3.4669347012966124e-02  3.6937151974376164e-02  3.9116461814887420e-02  4.1076013668104920e-02  4.2605889609318846e-02  4.3443779055511007e-02  4.3430170317461277e-02  1.0553359061429769e-02  1.0562291888580964e-02  1.1187095181790185e-02  1.2324370392734750e-02  1.3836553201149116e-02  1.5592402984426070e-02  1.7491124563317938e-02  1.9468252799386181e-02  2.1486063373785318e-02  2.3522683978258501e-02  2.5566954398786194e-02  2.7612290498790902e-02  2.9652044605576282e-02  3.1674914524543636e-02  3.3659103306635421e-02  3.5564485289273369e-02  3.7322989170154731e-02  3.8830763586588608e-02  3.9952323408496908e-02  4.0545955201450413e-02  4.0536264539236956e-02  1.2818680879435019e-02  1.2822863884276378e-02  1.3289939659689052e-02  1.4165661660658338e-02  1.5368656508586926e-02  1.6811044141486684e-02  1.8418009218119393e-02  2.0132311237014592e-02  2.1912734091573179e-02  2.3730749962598018e-02  2.5566026818276025e-02  2.7401990779686421e-02  2.9222005776202802e-02  3.1005369866961160e-02  3.2722930260651720e-02  3.4332360304822319e-02  3.5774100936226398e-02  3.6970655815352055e-02  3.7833992950905164e-02  3.8281331243789900e-02  3.8273598012807129e-02  1.4610715036656903e-02  1.4612684764812107e-02  1.4979416028460871e-02  1.5679486322932607e-02  1.6662148758566926e-02  1.7868044334745793e-02  1.9240898878019160e-02  2.0732245086219132e-02  2.2303009464753505e-02  2.3922199559987829e-02  2.5564394090715467e-02  2.7206970668396863e-02  2.8827221700823316e-02  3.0399412938826122e-02  3.1891911398161076e-02  3.3264713767244596e-02  3.4468267333877256e-02  3.5445074489327322e-02  3.6135970184871982e-02  3.6489341162643477e-02  3.6483434785433942e-02  1.6031995251846606e-02  1.6032726537787027e-02  1.6331842945527027e-02  1.6909866756425137e-02  1.7733124661798393e-02  1.8759745042863152e-02  1.9946784726185961e-02  2.1254002947531145e-02  2.2645791748332408e-02  2.4091099435642086e-02  2.5562346353220442e-02  2.7033764365463401e-02  2.8479499186880090e-02  2.9871713767725520e-02  3.1178915372924360e-02  3.2364876589876530e-02  3.3388742319046573e-02  3.4207033515522220e-02  3.4778220428205026e-02  3.5068007355531283e-02  3.5063280840796011e-02  1.7150861021291954e-02  1.7150836326364931e-02  1.7402842990268137e-02  1.7894017372025926e-02  1.8600558035589743e-02  1.9491535156754499e-02  2.0533260146565657e-02  2.1691978412519283e-02  2.2935632398183043e-02  2.4234345427524874e-02  2.5560101882654673e-02  2.6885898219705898e-02  2.8184666775655565e-02  2.9428203031553343e-02  3.0586336159899509e-02  3.1626641393396930e-02  3.2515040047102366e-02  3.3217592626744771e-02  3.3703680483423315e-02  3.3949044638991815e-02  3.3945163276119315e-02  1.8014692516790536e-02  1.8014164040477943e-02  1.8232874429126928e-02  1.8661818833154108e-02  1.9283085951609925e-02  2.0072640162083301e-02  2.1003051326136515e-02  2.2045395337289619e-02  2.3170719964478829e-02  2.4350711004200248e-02  2.5557798231695957e-02  2.6764856983428034e-02  2.7944719868502228e-02  2.9069692850395734e-02  3.0111277128598395e-02  3.1040307390476300e-02  3.1827695299700962e-02  3.2445896306292320e-02  3.2871118756832463e-02  3.3085111172365969e-02  3.3081858617672259e-02  1.8656818823169073e-02  1.8655918945988718e-02  1.8851335006299152e-02  1.9236399282375041e-02  1.9796750588838830e-02  2.0512687004331003e-02  2.1360919470345529e-02  2.2315950320892734e-02  2.3351268391284489e-02  2.4440052968396530e-02  2.5555509088271134e-02  2.6670912881069115e-02  2.7759513748482491e-02  2.8794440992920799e-02  2.9748765285661241e-02  3.0595856713412042e-02  3.1310137096645103e-02  3.1868266800450733e-02  3.2250719614052223e-02  3.2442891139276092e-02  3.2440125175600347e-02  1.9100425298321400e-02  1.9099221400562260e-02  1.9279112173665319e-02  1.9634870939939607e-02  2.0154222248493787e-02  2.0820102746650620e-02  2.1611832007991497e-02  2.2506178276058452e-02  2.3478358938903272e-02  2.4502734990103140e-02  2.5553263284123454e-02  2.6603743530723992e-02  2.7627960294436649e-02  2.8599828117442321e-02  2.9493649046095693e-02  3.0284578680021570e-02  3.0949348315380307e-02  3.1467256543114545e-02  3.1821352763722659e-02  3.1999204311806015e-02  3.1996830560095620e-02  1.9360823030900885e-02  1.9359343665147227e-02  1.9530181463412330e-02  1.9868981544092879e-02  2.0364554797777462e-02  2.1001268166886210e-02  2.1759877851730253e-02  2.2618438900031828e-02  2.3553191259120112e-02  2.4539239600307808e-02  2.5551060352812717e-02  2.6562853451303874e-02  2.7548812073799538e-02  2.8483393919385848e-02  2.9341678028898314e-02  3.0099878217259922e-02  3.0736035446718987e-02  3.1230898604917370e-02  3.1568889592116005e-02  3.1738742052838526e-02  3.1736698242513829e-02  1.9446753544305900e-02  1.9445001131812772e-02  1.9612571136492927e-02  1.9945576552247941e-02  2.0433142204939570e-02  2.1060104583272333e-02  2.1807676830857485e-02  2.2654327543220058e-02  2.3576627631781776e-02  2.4549927679087622e-02  2.5548882726790824e-02  2.6547837774493963e-02  2.7521137821799886e-02  2.8443437910361666e-02  2.9290088622724225e-02  3.0037660870309475e-02  3.0664623248642296e-02  3.1152188901333984e-02  3.1485194317089023e-02  3.1652764321769160e-02  3.1651011909276043e-02  1.9361067211068235e-02  1.9359023400743500e-02  1.9528875861466035e-02  1.9866866848664594e-02  2.0361730006862970e-02  2.0997887236321941e-02  2.1756087424683501e-02  2.2614371534195932e-02  2.3548953379782099e-02  2.4534912002277757e-02  2.5546705100768920e-02  2.6558525853273826e-02  2.7544574194461532e-02  2.8479326553549809e-02  2.9337887601851412e-02  3.0096497286695501e-02  3.0733210655804366e-02  3.1228783909488952e-02  3.1567583990169575e-02  3.1738421788434633e-02  3.1736942422681054e-02  1.9100934893486392e-02  1.9098561141776108e-02  1.9276412689859440e-02  1.9630508910467522e-02  2.0148417138201681e-02  2.0813186773560359e-02  2.1604116407486138e-02  2.2497937336139435e-02  2.3469805159145034e-02  2.4494021922857687e-02  2.5544502169458156e-02  2.6595030463478456e-02  2.7619406514678313e-02  2.8591587177523161e-02  2.9485933445590182e-02  3.0277662706931108e-02  3.0943543205087999e-02  3.1462894513642176e-02  3.1818653279916564e-02  3.1998544053019641e-02  3.1997340155260477e-02  1.8657640277981963e-02  1.8654874314306173e-02  1.8847045839530036e-02  1.9229498653131429e-02  1.9787628356937034e-02  2.0501908740169956e-02  2.1349000167920674e-02  2.2303324460660991e-02  2.3338251705099237e-02  2.4426852572512526e-02  2.5542256365310489e-02  2.6657712485185069e-02  2.7746497062297110e-02  2.8781815132688831e-02  2.9736845983236136e-02  3.0585078449250656e-02  3.1301014864742897e-02  3.1861366171206794e-02  3.2246430447282669e-02  3.2441846507593124e-02  3.2440946630412790e-02  1.8015906835910148e-02  1.8012654281216421e-02  1.8226646696749931e-02  1.8651869147289984e-02  1.9270070153881245e-02  2.0057458063105753e-02  2.0986488324983604e-02  2.2028072603186080e-02  2.3153045585079496e-02  2.4332908470153611e-02  2.5539967221885632e-02  2.6747054449381316e-02  2.7927045489102725e-02  2.9052370116291904e-02  3.0094714127445053e-02  3.1025125291498298e-02  3.1814679501971845e-02  3.2435946620427668e-02  3.2864891024454897e-02  3.3083601413103909e-02  3.3083072936791295e-02  1.7152602177463287e-02  1.7148720814590800e-02  1.7394084970159266e-02  1.7880172826837647e-02  1.8582725406479986e-02  1.9471124060185242e-02  2.0511429293682531e-02  2.1669562422028520e-02  2.2913098677926194e-02  2.4211867233875712e-02  2.5537663570926877e-02  2.6863420026056635e-02  2.8162133055398452e-02  2.9405787041062240e-02  3.0564505307015932e-02  3.1606230296827159e-02  3.2497207417992016e-02  3.3203748081555864e-02  3.3694922463313744e-02  3.3946929127216953e-02  3.3946904432289961e-02  1.6034484612786882e-02  1.6029758098051555e-02  1.6319545025377739e-02  1.6890731938060455e-02  1.7709023134535911e-02  1.8732888863705718e-02  1.9918850080657708e-02  2.1226051685856308e-02  2.2618266266701641e-02  2.4064001088118240e-02  2.5535419100361067e-02  2.7006666017939388e-02  2.8451973705249038e-02  2.9843762506050333e-02  3.1150980727395590e-02  3.2338020410718461e-02  3.3364640791783327e-02  3.4187898697156695e-02  3.4765922508054888e-02  3.5065038915794926e-02  3.5065770201735354e-02  1.4614330668149185e-02  1.4608424290939625e-02  1.4961795268711078e-02  1.5652690964255520e-02  1.6629498119705339e-02  1.7833051686337777e-02  1.9205854055420996e-02  2.0698352514755776e-02  2.2270543752758418e-02  2.3890794785184674e-02  2.5533371362865959e-02  2.7175565893593576e-02  2.8794755988827900e-02  3.0365520367362266e-02  3.1856866575562325e-02  3.3229721118835799e-02  3.4435616695014798e-02  3.5418279130649273e-02  3.6118349425121071e-02  3.6485080688769912e-02  3.6487050416925161e-02  1.2824167440776317e-02  1.2816434209793597e-02  1.3263772502678151e-02  1.4127109638230976e-02  1.5323664517356317e-02  1.6765405148760074e-02  1.8374835192930344e-02  2.0092395586620654e-02  2.1875759677378780e-02  2.3695774673895012e-02  2.5531738635305293e-02  2.7367015490983245e-02  2.9185031362008104e-02  3.0965454216566709e-02  3.2679756235461974e-02  3.4286721312094794e-02  3.5729108944994772e-02  3.6932103792923596e-02  3.7807825793893052e-02  3.8274901569305832e-02  3.8279084574147193e-02  1.0561500914346928e-02  1.0551810252133443e-02  1.1145442045086735e-02  1.2267001866994667e-02  1.3774776283428075e-02  1.5533280164309046e-02  1.7438662146946594e-02  1.9422850929038088e-02  2.1445720848005233e-02  2.3485474954790416e-02  2.5530811054794992e-02  2.7575081475322619e-02  2.9611702079795771e-02  3.1629512654194905e-02  3.3606640890263287e-02  3.5505362469155310e-02  3.7261212252432556e-02  3.8773395060847211e-02  3.9910670271792119e-02  4.0535473565001492e-02  4.0544406392152739e-02  7.6675951361231945e-03  7.6539863980734195e-03  8.4918758442652700e-03  1.0021751785478580e-02  1.1981303638695430e-02  1.4160613479206104e-02  1.6428418440615680e-02  1.8717633853040972e-02  2.1000490032976146e-02  2.3270345241414359e-02  2.5530939471740142e-02  2.7790113667071702e-02  3.0055721817248571e-02  3.2330733548401158e-02  3.4608624400719774e-02  3.6864822737678486e-02  3.9027089683467887e-02  4.0980030623699162e-02  4.2534237150512043e-02  4.3428810351357434e-02  4.3445209944452327e-02  3.8769614564072821e-03  3.8313737375605876e-03  5.1412317459134426e-03  7.3562425786125362e-03  9.9830260063864060e-03  1.2710521988734867e-02  1.5403063114491911e-02  1.8022055428404821e-02  2.0569819570558742e-02  2.3065062211232661e-02  2.5532396072879937e-02  2.7998112475658858e-02  3.0488306460055424e-02  3.3025928205031398e-02  3.5631277905525179e-02  3.8296833277930792e-02  4.0979250873635645e-02  4.3611885735977234e-02  4.5834921150786447e-02  4.7212996861979106e-02  4.7261268730724580e-02  -1.7012177295327117e-03  -1.3761112270780120e-03  8.7521646415967755e-04  4.3163953841192267e-03  7.9185875520542646e-03  1.1309888356229085e-02  1.4457439529353381e-02  1.7400106133478695e-02  2.0192545873817878e-02  2.2887970990231845e-02  2.5535483121560724e-02  2.8181466257819206e-02  3.0871911465312443e-02  3.3654250036739386e-02  3.6581890866946284e-02  3.9683509452865341e-02  4.3059341701052113e-02  4.6579518158177395e-02  4.9744562659022155e-02  5.2448966827094455e-02  5.2647348583472822e-02  -7.9113459179121961e-03  -9.3391446397932121e-03  -4.5551502385866366e-03  1.3069855873571741e-03  6.0949303849085722e-03  1.0162239137231082e-02  1.3717548846753318e-02  1.6927316553065452e-02  1.9911127642397605e-02  2.2757963776780982e-02  2.5539679597019853e-02  2.8320263208971130e-02  3.1163333212076490e-02  3.4139600331516716e-02  3.7335501061476019e-02  4.0852871516509313e-02  4.4930714207052760e-02  4.9234497404559568e-02  5.4890414186700390e-02  6.0855052549192594e-02  6.0414638783085964e-02  -2.8658765254541332e-02  -2.6091660323794577e-02  -8.5779753062270175e-03  -7.4116522194819161e-04  4.9994289114522836e-03  9.5189973519745064e-03  1.3316267674064013e-02  1.6676823449278417e-02  1.9764827346890682e-02  2.2692555617372909e-02  2.5545602331242853e-02  2.8398288043308049e-02  3.1324828208912421e-02  3.4410474794704014e-02  3.7765721892107439e-02  4.1556932806411949e-02  4.6065409699041764e-02  5.1502387354103660e-02  6.1500988552835832e-02  6.7548923719372170e-02  7.8799661521662415e-02  -2.0723209808670506e-01  -1.6944720826513236e-02  -8.6480411492278406e-03  -9.4272126751142934e-04  5.0516828533300811e-03  9.5290917661110409e-03  1.3325411720796522e-02  1.6683576757964003e-02  1.9769877934322014e-02  2.2696664184061206e-02  2.5549258917682477e-02  2.8401974726515105e-02  3.1329166435470596e-02  3.4416359015240816e-02  3.7775819461951389e-02  4.1576043679168749e-02  4.6068576848553616e-02  5.1924362861600945e-02  6.0629317200233235e-02  6.7131981480010192e-02  1.7659356721838446e-01  </DataArray> 
</PointData> 
</Piece>
</UnstructuredGrid>
</VTKFile>