<?xml version="1.0"?>
<VTKFile type="UnstructuredGrid"  version="0.1"  >
<UnstructuredGrid>
<Piece  NumberOfPoints="651" NumberOfCells="1200">
<Points>
<DataArray  type="Float64"  NumberOfComponents="3"  format="ascii">0 0 0  50000 0 0  100000 0 0  150000 0 0  200000 0 0  250000 0 0  300000 0 0  350000 0 0  400000 0 0  450000 0 0  500000 0 0  550000 0 0  600000 0 0  650000 0 0  700000 0 0  750000 0 0  800000 0 0  850000 0 0  900000 0 0  950000 0 0  1000000 0 0  0 50000 0  50000 50000 0  100000 50000 0  150000 50000 0  200000 50000 0  250000 50000 0  300000 50000 0  350000 50000 0  400000 50000 0  450000 50000 0  500000 50000 0  550000 50000 0  600000 50000 0  650000 50000 0  700000 50000 0  750000 50000 0  800000 50000 0  850000 50000 0  900000 50000 0  950000 50000 0  1000000 50000 0  0 100000 0  50000 100000 0  100000 100000 0  150000 100000 0  200000 100000 0  250000 100000 0  300000 100000 0  350000 100000 0  400000 100000 0  450000 100000 0  500000 100000 0  550000 100000 0  600000 100000 0  650000 100000 0  700000 100000 0  750000 100000 0  800000 100000 0  850000 100000 0  900000 100000 0  950000 100000 0  1000000 100000 0  0 150000 0  50000 150000 0  100000 150000 0  150000 150000 0  200000 150000 0  250000 150000 0  300000 150000 0  350000 150000 0  400000 150000 0  450000 150000 0  500000 150000 0  550000 150000 0  600000 150000 0  650000 150000 0  700000 150000 0  750000 150000 0  800000 150000 0  850000 150000 0  900000 150000 0  950000 150000 0  1000000 150000 0  0 200000 0  50000 200000 0  100000 200000 0  150000 200000 0  200000 200000 0  250000 200000 0  300000 200000 0  350000 200000 0  400000 200000 0  450000 200000 0  500000 200000 0  550000 200000 0  600000 200000 0  650000 200000 0  700000 200000 0  750000 200000 0  800000 200000 0  850000 200000 0  900000 200000 0  950000 200000 0  1000000 200000 0  0 250000 0  50000 250000 0  100000 250000 0  150000 250000 0  200000 250000 0  250000 250000 0  300000 250000 0  350000 250000 0  400000 250000 0  450000 250000 0  500000 250000 0  550000 250000 0  600000 250000 0  650000 250000 0  700000 250000 0  750000 250000 0  800000 250000 0  850000 250000 0  900000 250000 0  950000 250000 0  1000000 250000 0  0 300000 0  50000 300000 0  100000 300000 0  150000 300000 0  200000 300000 0  250000 300000 0  300000 300000 0  350000 300000 0  400000 300000 0  450000 300000 0  500000 300000 0  550000 300000 0  600000 300000 0  650000 300000 0  700000 300000 0  750000 300000 0  800000 300000 0  850000 300000 0  900000 300000 0  950000 300000 0  1000000 300000 0  0 350000 0  50000 350000 0  100000 350000 0  150000 350000 0  200000 350000 0  250000 350000 0  300000 350000 0  350000 350000 0  400000 350000 0  450000 350000 0  500000 350000 0  550000 350000 0  600000 350000 0  650000 350000 0  700000 350000 0  750000 350000 0  800000 350000 0  850000 350000 0  900000 350000 0  950000 350000 0  1000000 350000 0  0 400000 0  50000 400000 0  100000 400000 0  150000 400000 0  200000 400000 0  250000 400000 0  300000 400000 0  350000 400000 0  400000 400000 0  450000 400000 0  500000 400000 0  550000 400000 0  600000 400000 0  650000 400000 0  700000 400000 0  750000 400000 0  800000 400000 0  850000 400000 0  900000 400000 0  950000 400000 0  1000000 400000 0  0 450000 0  50000 450000 0  100000 450000 0  150000 450000 0  200000 450000 0  250000 450000 0  300000 450000 0  350000 450000 0  400000 450000 0  450000 450000 0  500000 450000 0  550000 450000 0  600000 450000 0  650000 450000 0  700000 450000 0  750000 450000 0  800000 450000 0  850000 450000 0  900000 450000 0  950000 450000 0  1000000 450000 0  0 500000 0  50000 500000 0  100000 500000 0  150000 500000 0  200000 500000 0  250000 500000 0  300000 500000 0  350000 500000 0  400000 500000 0  450000 500000 0  500000 500000 0  550000 500000 0  600000 500000 0  650000 500000 0  700000 500000 0  750000 500000 0  800000 500000 0  850000 500000 0  900000 500000 0  950000 500000 0  1000000 500000 0  0 550000 0  50000 550000 0  100000 550000 0  150000 550000 0  200000 550000 0  250000 550000 0  300000 550000 0  350000 550000 0  400000 550000 0  450000 550000 0  500000 550000 0  550000 550000 0  600000 550000 0  650000 550000 0  700000 550000 0  750000 550000 0  800000 550000 0  850000 550000 0  900000 550000 0  950000 550000 0  1000000 550000 0  0 600000 0  50000 600000 0  100000 600000 0  150000 600000 0  200000 600000 0  250000 600000 0  300000 600000 0  350000 600000 0  400000 600000 0  450000 600000 0  500000 600000 0  550000 600000 0  600000 600000 0  650000 600000 0  700000 600000 0  750000 600000 0  800000 600000 0  850000 600000 0  900000 600000 0  950000 600000 0  1000000 600000 0  0 650000 0  50000 650000 0  100000 650000 0  150000 650000 0  200000 650000 0  250000 650000 0  300000 650000 0  350000 650000 0  400000 650000 0  450000 650000 0  500000 650000 0  550000 650000 0  600000 650000 0  650000 650000 0  700000 650000 0  750000 650000 0  800000 650000 0  850000 650000 0  900000 650000 0  950000 650000 0  1000000 650000 0  0 700000 0  50000 700000 0  100000 700000 0  150000 700000 0  200000 700000 0  250000 700000 0  300000 700000 0  350000 700000 0  400000 700000 0  450000 700000 0  500000 700000 0  550000 700000 0  600000 700000 0  650000 700000 0  700000 700000 0  750000 700000 0  800000 700000 0  850000 700000 0  900000 700000 0  950000 700000 0  1000000 700000 0  0 750000 0  50000 750000 0  100000 750000 0  150000 750000 0  200000 750000 0  250000 750000 0  300000 750000 0  350000 750000 0  400000 750000 0  450000 750000 0  500000 750000 0  550000 750000 0  600000 750000 0  650000 750000 0  700000 750000 0  750000 750000 0  800000 750000 0  850000 750000 0  900000 750000 0  950000 750000 0  1000000 750000 0  0 800000 0  50000 800000 0  100000 800000 0  150000 800000 0  200000 800000 0  250000 800000 0  300000 800000 0  350000 800000 0  400000 800000 0  450000 800000 0  500000 800000 0  550000 800000 0  600000 800000 0  650000 800000 0  700000 800000 0  750000 800000 0  800000 800000 0  850000 800000 0  900000 800000 0  950000 800000 0  1000000 800000 0  0 850000 0  50000 850000 0  100000 850000 0  150000 850000 0  200000 850000 0  250000 850000 0  300000 850000 0  350000 850000 0  400000 850000 0  450000 850000 0  500000 850000 0  550000 850000 0  600000 850000 0  650000 850000 0  700000 850000 0  750000 850000 0  800000 850000 0  850000 850000 0  900000 850000 0  950000 850000 0  1000000 850000 0  0 900000 0  50000 900000 0  100000 900000 0  150000 900000 0  200000 900000 0  250000 900000 0  300000 900000 0  350000 900000 0  400000 900000 0  450000 900000 0  500000 900000 0  550000 900000 0  600000 900000 0  650000 900000 0  700000 900000 0  750000 900000 0  800000 900000 0  850000 900000 0  900000 900000 0  950000 900000 0  1000000 900000 0  0 950000 0  50000 950000 0  100000 950000 0  150000 950000 0  200000 950000 0  250000 950000 0  300000 950000 0  350000 950000 0  400000 950000 0  450000 950000 0  500000 950000 0  550000 950000 0  600000 950000 0  650000 950000 0  700000 950000 0  750000 950000 0  800000 950000 0  850000 950000 0  900000 950000 0  950000 950000 0  1000000 950000 0  0 1000000 0  50000 1000000 0  100000 1000000 0  150000 1000000 0  200000 1000000 0  250000 1000000 0  300000 1000000 0  350000 1000000 0  400000 1000000 0  450000 1000000 0  500000 1000000 0  550000 1000000 0  600000 1000000 0  650000 1000000 0  700000 1000000 0  750000 1000000 0  800000 1000000 0  850000 1000000 0  900000 1000000 0  950000 1000000 0  1000000 1000000 0  0 1050000 0  50000 1050000 0  100000 1050000 0  150000 1050000 0  200000 1050000 0  250000 1050000 0  300000 1050000 0  350000 1050000 0  400000 1050000 0  450000 1050000 0  500000 1050000 0  550000 1050000 0  600000 1050000 0  650000 1050000 0  700000 1050000 0  750000 1050000 0  800000 1050000 0  850000 1050000 0  900000 1050000 0  950000 1050000 0  1000000 1050000 0  0 1100000 0  50000 1100000 0  100000 1100000 0  150000 1100000 0  200000 1100000 0  250000 1100000 0  300000 1100000 0  350000 1100000 0  400000 1100000 0  450000 1100000 0  500000 1100000 0  550000 1100000 0  600000 1100000 0  650000 1100000 0  700000 1100000 0  750000 1100000 0  800000 1100000 0  850000 1100000 0  900000 1100000 0  950000 1100000 0  1000000 1100000 0  0 1150000 0  50000 1150000 0  100000 1150000 0  150000 1150000 0  200000 1150000 0  250000 1150000 0  300000 1150000 0  350000 1150000 0  400000 1150000 0  450000 1150000 0  500000 1150000 0  550000 1150000 0  600000 1150000 0  650000 1150000 0  700000 1150000 0  750000 1150000 0  800000 1150000 0  850000 1150000 0  900000 1150000 0  950000 1150000 0  1000000 1150000 0  0 1200000 0  50000 1200000 0  100000 1200000 0  150000 1200000 0  200000 1200000 0  250000 1200000 0  300000 1200000 0  350000 1200000 0  400000 1200000 0  450000 1200000 0  500000 1200000 0  550000 1200000 0  600000 1200000 0  650000 1200000 0  700000 1200000 0  750000 1200000 0  800000 1200000 0  850000 1200000 0  900000 1200000 0  950000 1200000 0  1000000 1200000 0  0 1250000 0  50000 1250000 0  100000 1250000 0  150000 1250000 0  200000 1250000 0  250000 1250000 0  300000 1250000 0  350000 1250000 0  400000 1250000 0  450000 1250000 0  500000 1250000 0  550000 1250000 0  600000 1250000 0  650000 1250000 0  700000 1250000 0  750000 1250000 0  800000 1250000 0  850000 1250000 0  900000 1250000 0  950000 1250000 0  1000000 1250000 0  0 1300000 0  50000 1300000 0  100000 1300000 0  150000 1300000 0  200000 1300000 0  250000 1300000 0  300000 1300000 0  350000 1300000 0  400000 1300000 0  450000 1300000 0  500000 1300000 0  550000 1300000 0  600000 1300000 0  650000 1300000 0  700000 1300000 0  750000 1300000 0  800000 1300000 0  850000 1300000 0  900000 1300000 0  950000 1300000 0  1000000 1300000 0  0 1350000 0  50000 1350000 0  100000 1350000 0  150000 1350000 0  200000 1350000 0  250000 1350000 0  300000 1350000 0  350000 1350000 0  400000 1350000 0  450000 1350000 0  500000 1350000 0  550000 1350000 0  600000 1350000 0  650000 1350000 0  700000 135
[...]
<PointData  Scalars="f_4507"> 
<DataArray  type="Float64"  Name="f_4507"  format="ascii">-2.3652252390563406e-03  2.4924465163238364e-02  2.9777468725743935e-02  3.3255193518879754e-02  3.5819008220735221e-02  3.7852521449266006e-02  3.9581100026955432e-02  4.1120850750188842e-02  4.2542213030693971e-02  4.3893562981374777e-02  4.5212215906587659e-02  4.6530787287240867e-02  4.7881874797263552e-02  4.9302731748909021e-02  5.0841625617031212e-02  5.2568993713140361e-02  5.4601655274114411e-02  5.7163057400758423e-02  6.0552428204018467e-02  6.6284917166180485e-02  1.0968709090192705e-01  2.2935248721652982e-02  2.6969671622814648e-02  3.0055594611435386e-02  3.3525897718290266e-02  3.5955048211100821e-02  3.7931066638025313e-02  3.9629964203797323e-02  4.1151622136844215e-02  4.2560629558498875e-02  4.3902575328813885e-02  4.5213166270415488e-02  4.6523863885994506e-02  4.7866168933062725e-02  4.9275936988959129e-02  5.0799152868620662e-02  5.2501473683360347e-02  5.4486106560917159e-02  5.6929965100494299e-02  6.0214879070557920e-02  6.5761350752526329e-02  6.7347359087500738e-02  2.9574131791851241e-02  3.0118289476222852e-02  3.2320461633076704e-02  3.4588325244005617e-02  3.6540774116035603e-02  3.8289213383179421e-02  3.9858065826251704e-02  4.1297003847274263e-02  4.2647964826373862e-02  4.3944709800909990e-02  4.5215774946611262e-02  4.6487269521838848e-02  4.7785436392445042e-02  4.9139285011254301e-02  5.0583660216099106e-02  5.2162981680562714e-02  5.3935093854715073e-02  5.5970974748989710e-02  5.8311561031211143e-02  6.0433364858629664e-02  6.0913849706775505e-02  3.2926265868867953e-02  3.3201371637979829e-02  3.4384114996238772e-02  3.5837854601532146e-02  3.7357405306656224e-02  3.8825707029692104e-02  4.0213176716188889e-02  4.1528337314680447e-02  4.2788317270106291e-02  4.4011976789684111e-02  4.5217954706997181e-02  4.6424529904403801e-02  4.7650132457298176e-02  4.8913920819822113e-02  5.0235862473650264e-02  5.1635073492675827e-02  5.3122823230061796e-02  5.4679034460934535e-02  5.6179897446423308e-02  5.7280653369494436e-02  5.7528952910746743e-02  3.5222128857490986e-02  3.5380657791133037e-02  3.6080890877634428e-02  3.7087427087378763e-02  3.8245423755296243e-02  3.9446006134121046e-02  4.0641436312722205e-02  4.1814792166689672e-02  4.2964585800205193e-02  4.4096464395893507e-02  4.5219132131951799e-02  4.6342437759413956e-02  4.7476344184063247e-02  4.8629918142377146e-02  4.9809456492088344e-02  5.1014311603621063e-02  5.2227672729362518e-02  5.3397898453762395e-02  5.4409773820724636e-02  5.5077713472054077e-02  5.5213527582715416e-02  3.6909660999636537e-02  3.7010899820700063e-02  3.7478224364195983e-02  3.8205095306150079e-02  3.9096873495079211e-02  4.0075850763537840e-02  4.1094260732456006e-02  4.2126105293743193e-02  4.3159481935095750e-02  4.4190607314405529e-02  4.5219975158910589e-02  4.6249911351547934e-02  4.7282795331853394e-02  4.8319265262034630e-02  4.9355695065465714e-02  5.0380070420460138e-02  5.1365338230498062e-02  5.2260413548860365e-02  5.2983652854095030e-02  5.3433481962152675e-02  5.3522610236535935e-02  3.8205493398579204e-02  3.8276615255750664e-02  3.8614224019111791e-02  3.9162373219370106e-02  3.9865217985731692e-02  4.0669562083212853e-02  4.1535703058733046e-02  4.2437038720497929e-02  4.3357200938251461e-02  4.4286717935851393e-02  4.5220197358055388e-02  4.6154118031225454e-02  4.7084961777753412e-02  4.8007319046167896e-02  4.8911586626521932e-02  4.9780954938000457e-02  5.0587762862962724e-02  5.1290434022520391e-02  5.1834139716720684e-02  5.2160804932900977e-02  5.2224795160262238e-02  3.9224963346775284e-02  3.9278393820660285e-02  3.9536387681341156e-02  3.9966310179950719e-02  4.0534176290158236e-02  4.1203571775924229e-02  4.1943545523346865e-02  4.2730201180269961e-02  4.3546187342588340e-02  4.4379153095714365e-02  4.5219981994879435e-02  4.6061115328838081e-02  4.6894969583459886e-02  4.7712333803891442e-02  4.8500632125729033e-02  4.9242066821507509e-02  4.9911995151771256e-02  5.0478503479717100e-02  5.0904612941889991e-02  5.1155298607098644e-02  5.1204138986361190e-02  4.0035966343333868e-02  4.0078089757894987e-02  4.0283856780263083e-02  4.0632577071056504e-02  4.1102497996024882e-02  4.1668158436654640e-02  4.2305743448808393e-02  4.2994810167680537e-02  4.3718693146782873e-02  4.4463964342286298e-02  4.5219456650235197e-02  4.5975136098588713e-02  4.6720935313502680e-02  4.7445576749000115e-02  4.8135418206966575e-02  4.8773449924329554e-02  4.9338764979881114e-02  4.9807066350696323e-02  5.0152729394263497e-02  5.0353414103681091e-02  5.0392419170290831e-02  4.0681897547856463e-02  4.0716379827500364e-02  4.0886281564203618e-02  4.1177509174083589e-02  4.1575352730100983e-02  4.2061387839151976e-02  4.2617067605757820e-02  4.3225113455912630e-02  4.3870162998525260e-02  4.4538728538264266e-02  4.5218734866443670e-02  4.5898841466489544e-02  4.6567676911856586e-02  4.7213069963077954e-02  4.7821365623906043e-02  4.8376965938077290e-02  4.8862317723844792e-02  4.9258634399231366e-02  4.9547467448393771e-02  4.9713737434749064e-02  4.9746029602097036e-02  4.1192082639446299e-02  4.1221223203227346e-02  4.1365792625538196e-02  4.1615559316322076e-02  4.1959996206173585e-02  4.2385197112265675e-02  4.2876341195026008e-02  4.3418713235019862e-02  4.3998339462418004e-02  4.4602165333046402e-02  4.5217903981351372e-02  4.5833685852873257e-02  4.6437617179495766e-02  4.7017338665450839e-02  4.7559678044868846e-02  4.8050510230905619e-02  4.8474961615082579e-02  4.8818092427902499e-02  4.9066016874247831e-02  4.9207958806925481e-02  4.9235536282635675e-02  4.1587009932266383e-02  4.1612362177785446e-02  4.1738864476923272e-02  4.1958647162426470e-02  4.2263723582897914e-02  4.2643095839854650e-02  4.3084514586955232e-02  4.3575209149967715e-02  4.4102438853445863e-02  4.4653754027178319e-02  4.5217022831814259e-02  4.5780301952763988e-02  4.6331630949876169e-02  4.6858828047334447e-02  4.7349366180682702e-02  4.7790411531880080e-02  4.8169103719528719e-02  4.8473134954464925e-02  4.8691537388192832e-02  4.8816151663683409e-02  4.8840392321531256e-02  4.1881168589203849e-02  4.1903857325158694e-02  4.2017649539363287e-02  4.2216157688203283e-02  4.2492946367852509e-02  4.2838875899586300e-02  4.3243424736073365e-02  4.3695220437902145e-02  4.4182504784032663e-02  4.4693418425969265e-02  4.5216126299016224e-02  4.5738829034305033e-02  4.6249716107278550e-02  4.6736920482632900e-02  4.7188534886105388e-02  4.7592746131260182e-02  4.7938132201791467e-02  4.8214143553761094e-02  4.8411667376313576e-02  4.8524150511687528e-02  4.8546074283912777e-02  4.2084672636573520e-02  4.2105569942542435e-02  4.2210872119279298e-02  4.2395119951956307e-02  4.2652797495290912e-02  4.2975908630692394e-02  4.3355032560305450e-02  4.3779730698912535e-02  4.4238947010314701e-02  4.4721294243681924e-02  4.5215231553701267e-02  4.5709159817788086e-02  4.6191473361517930e-02  4.6650612778435789e-02  4.7075163616951778e-02  4.7454039692451357e-02  4.7776776560288073e-02  4.8033940742236415e-02  4.8217555204931060e-02  4.8322030136851601e-02  4.8342446471488165e-02  4.2204214398506253e-02  4.2224044324498139e-02  4.2324408972648601e-02  4.2500398015226322e-02  4.2746976935017625e-02  4.3056771832150877e-02  4.3420972442651931e-02  4.3829673236229882e-02  4.4272235645153209e-02  4.4737571088436907e-02  4.5214343864410249e-02  4.5691110538395530e-02  4.6156424674658199e-02  4.6598942126775407e-02  4.7007562103510425e-02  4.7371632785076577e-02  4.7681237644068196e-02  4.7927561611321078e-02  4.8103240549155039e-02  4.8203204241968653e-02  4.8222801721168058e-02  4.2243616720123341e-02  4.2263023339773498e-02  4.2361648048950797e-02  4.2534838804720240e-02  4.2777700262460694e-02  4.3083058987930946e-02  4.3442299118364856e-02  4.3845685336600951e-02  4.4282713739402423e-02  4.4742394161956654e-02  4.5213461359136300e-02  4.5684528556315912e-02  4.6144208978870178e-02  4.6581237381671643e-02  4.6984623599907696e-02  4.7343863730341620e-02  4.7649222455811893e-02  4.7892083913552354e-02  4.8065274669321791e-02  4.8163899378499082e-02  4.8183305998149246e-02  4.2204120997104563e-02  4.2223718476303941e-02  4.2323682169117575e-02  4.2499361106951516e-02  4.2745685074204412e-02  4.3055289933196003e-02  4.3419360614762183e-02  4.3827980591497222e-02  4.4270498043614374e-02  4.4735812179877057e-02  4.5212578853862345e-02  4.5689351629835687e-02  4.6154687073119378e-02  4.6597249482042670e-02  4.7005950275620607e-02  4.7370150886121662e-02  4.7679945783254955e-02  4.7926524703046251e-02  4.8102513745623986e-02  4.8202878393774420e-02  4.8222708319766341e-02  4.2084476246784436e-02  4.2104892581421048e-02  4.2209367513341589e-02  4.2392981976036227e-02  4.2650146157984556e-02  4.2972883025821293e-02  4.3351759101320844e-02  4.3776309939836847e-02  4.4235449356754684e-02  4.4717762900484535e-02  4.5211691164571341e-02  4.5705628474590677e-02  4.6187975707957872e-02  4.6647192019360025e-02  4.7071890157967124e-02  4.7451014087580186e-02  4.7774125222981675e-02  4.8031802766316266e-02  4.8216050598993303e-02  4.8321352775730179e-02  4.8342250081699088e-02  4.1880848434359956e-02  4.1902772206585170e-02  4.2015255341959150e-02  4.2212779164511612e-02  4.2488790516481252e-02  4.2834176587012510e-02  4.3238387832167310e-02  4.3690002235639770e-02  4.4177206610994120e-02  4.4688093683967610e-02  4.5210796419256426e-02  4.5733504292303377e-02  4.6244417934239952e-02  4.6731702280370442e-02  4.7183497982199243e-02  4.7588046818686287e-02  4.7933976350420085e-02  4.8210765030069339e-02  4.8409273178909321e-02  4.8523065393113921e-02  4.8545754129068766e-02  4.1586530396741546e-02  4.1610771054589386e-02  4.1735385330079977e-02  4.1953787763807850e-02  4.2257818998744055e-02  4.2636511186392667e-02  4.3077556537590066e-02  4.3568094670938279e-02  4.4095291768396550e-02  4.4646620765508703e-02  4.5209899886458432e-02  4.5773168691094351e-02  4.6324483864826786e-02  4.6851713568304892e-02  4.7342408131317355e-02  4.7783826878417972e-02  4.8163199135374757e-02  4.8468275555846180e-02  4.8688058241349377e-02  4.8814560540487190e-02  4.8839912786006232e-02  4.1191386435637245e-02  4.1218963911347446e-02  4.1360905844025096e-02  4.1608830290370373e-02  4.1951961103190306e-02  4.2376412487367225e-02  4.2867244673403998e-02  4.3409584052821970e-02  4.3989305538777036e-02  4.4593236865399517e-02  4.5209018736921361e-02  4.5824757385226324e-02  4.6428583255854701e-02  4.7008209483252822e-02  4.7550581523246704e-02  4.8041725606007030e-02  4.8466926512099134e-02  4.8811363401950622e-02  4.9061130092734488e-02  4.9205699515045317e-02  4.9234840078826385e-02  4.0680893116176037e-02  4.0713185283523988e-02  4.0879455269879260e-02  4.1168288319041672e-02  4.1564604994428211e-02  4.2049956780195671e-02  4.2605557094366885e-02  4.3213852755194924e-02  4.3859245806416314e-02  4.4528081251783334e-02  4.5208187851829146e-02  4.5888194180008543e-02  4.6556759719747522e-02  4.7201809262360145e-02  4.7809855112514961e-02  4.8365534879120778e-02  4.8851569988171771e-02  4.9249413544189158e-02  4.9540641154069129e-02  4.9710542890772369e-02  4.9745025170416263e-02  4.0034503547982360e-02  4.0073508614592093e-02  4.0274193324009701e-02  4.0619856367576826e-02  4.1088157738392007e-02  4.1653472793943554e-02  4.2291504511306442e-02  4.2981345969272909e-02  4.3705987404770323e-02  4.4451786619684228e-02  4.5207466068037709e-02  4.5962958375986608e-02  4.6708229571490026e-02  4.7432112550592320e-02  4.8121179269464472e-02  4.8758764281618190e-02  4.9324424722247934e-02  4.9794345647216312e-02  5.0143065938009698e-02  5.0348832960377787e-02  5.0390956374938921e-02  3.9222783731912160e-02  3.9271624111174727e-02  3.9522309776383345e-02  3.9948419238556181e-02  4.0514927566501983e-02  4.1184855896765703e-02  4.1926290592544116e-02  4.2714588914381679e-02  4.3531953134813187e-02  4.4365807389434964e-02  4.5206940723393575e-02  4.6047769622558625e-02  4.6880735375684657e-02  4.7696721538003001e-02  4.8483377194926069e-02  4.9223350942348656e-02  4.9892746428114657e-02  5.0460612538322167e-02  5.0890535036931722e-02  5.1148528897612594e-02  5.1201959371497602e-02  3.8202127558011306e-02  3.8266117785372554e-02  3.8592783001552812e-02  3.9136488695753070e-02  3.9839159855310669e-02  4.0645967780272900e-02  4.1515336091751356e-02  4.2419603672105358e-02  4.3341960940519807e-02  4.4272804687047709e-02  4.5206725360217727e-02  4.6140204782421708e-02  4.7069721780021612e-02  4.7989883997775103e-02  4.8891219659539985e-02  4.9757360635060144e-02  5.0561704732541290e-02  5.1264549498902863e-02  5.1812698699161198e-02  5.2150307462522319e-02  5.2221429319693778e-02  3.6904312481737860e-02  3.6993440756121078e-02  3.7443269864178681e-02  3.8166509169413283e-02  3.9061584487775504e-02  4.0046852297813344e-02  4.1071227652807678e-02  4.2107657456238755e-02  4.3144127386419935e-02  4.4177011366725347e-02  4.5206947559362665e-02  4.6236315403867682e-02  4.7267440783177468e-02  4.8300817424529963e-02  4.9332661985817088e-02  5.0351071954735253e-02  5.1330049223193855e-02  5.2221827412122994e-02  5.2948698354077096e-02  5.3416022897573030e-02  5.3517261718636529e-02  3.5213395135558601e-02  3.5349209246219926e-02  3.6017148897549277e-02  3.7029024264511393e-02  3.8199249988911207e-02  3.9412611114652531e-02  4.0617466226185235e-02  4.1797004575896385e-02  4.2950578534210214e-02  4.4084484958859457e-02  4.5207790586321586e-02  4.6330458322379850e-02  4.7462336918068129e-02  4.8612130551583574e-02  4.9785486405551013e-02  5.0980916584152172e-02  5.2181498962976899e-02  5.3339495630894407e-02  5.4346031840638756e-02  5.5046264927140195e-02  5.5204793860782274e-02  3.2897969807527586e-02  3.3146269348779851e-02  3.4247025271850820e-02  3.5747888257339426e-02  3.7304099488212041e-02  3.8791849225597939e-02  4.0191060244623447e-02  4.1513001898451564e-02  4.2776790260975438e-02  4.4002392813869771e-02  4.5208968011276336e-02  4.6414945928589385e-02  4.7638605448167129e-02  4.8898585403592917e-02  5.0213746002084475e-02  5.1601215688581156e-02  5.3069517411617029e-02  5.4589068116741093e-02  5.6042807722034516e-02  5.7225551080293577e-02  5.7500656849405508e-02  2.9513073011499538e-02  2.9993557859645005e-02  3.2115361687063089e-02  3.4455947969284348e-02  3.6491828863558867e-02  3.8263941037711170e-02  3.9843262502174757e-02  4.1287637707019528e-02  4.2641486325828724e-02  4.3939653196434870e-02  4.5211147771662429e-02  4.6482212917363638e-02  4.7778957891899711e-02  4.9129918870999240e-02  5.0568856892021743e-02  5.2137709335093950e-02  5.3886148602237699e-02  5.5838597474267629e-02  5.8106461085196723e-02  6.0308633242050942e-02  6.0852790926422484e-02  2.3079563630777764e-02  2.4665571965747819e-02  3.0212043647715965e-02  3.3496957617779696e-02  3.5940816157356906e-02  3.7925449034913732e-02  3.9627769849653403e-02  4.1150985729314894e-02  4.2560753785211257e-02  4.3903058832279448e-02  4.5213756447858397e-02  4.6524347389459965e-02  4.7866293159774892e-02  4.9275300581429489e-02  5.0796958514476305e-02  5.2495856080248204e-02  5.4471874507172550e-02  5.6901024999982910e-02  6.0371328106837513e-02  6.3457251095457787e-02  6.7491673996621954e-02  -1.9260168183642710e-02  2.4142005552092092e-02  2.9874494514254862e-02  3.3263865317515594e-02  3.5825267444159772e-02  3.7857929005133850e-02  3.9585297101243019e-02  4.1124190969365135e-02  4.2545047921010624e-02  4.3896135431033240e-02  4.5214706811686420e-02  4.6533359736899212e-02  4.7884709687579977e-02  4.9306071968085043e-02  5.0845822691318376e-02  5.2574401269007670e-02  5.4607914497538282e-02  5.7171729199393444e-02  6.0649453992528662e-02  6.5502457555033547e-02  9.2792147957337728e-02  </DataArray> 
</PointData> 
</Piece>
</UnstructuredGrid>
</VTKFile>