<?xml version="1.0"?>
<VTKFile type="UnstructuredGrid"  version="0.1"  >
<UnstructuredGrid>
<Piece  NumberOfPoints="651" NumberOfCells="1200">
<Points>
<DataArray  type="Float64"  NumberOfComponents="3"  format="ascii">0 0 0  50000 0 0  100000 0 0  150000 0 0  200000 0 0  250000 0 0  300000 0 0  350000 0 0  400000 0 0  450000 0 0  500000 0 0  550000 0 0  600000 0 0  650000 0 0  700000 0 0  750000 0 0  800000 0 0  850000 0 0  900000 0 0  950000 0 0  1000000 0 0  0 50000 0  50000 50000 0  100000 50000 0  150000 50000 0  200000 50000 0  250000 50000 0  300000 50000 0  350000 50000 0  400000 50000 0  450000 50000 0  500000 50000 0  550000 50000 0  600000 50000 0  650000 50000 0  700000 50000 0  750000 50000 0  800000 50000 0  850000 50000 0  900000 50000 0  950000 50000 0  1000000 50000 0  0 100000 0  50000 100000 0  100000 100000 0  150000 100000 0  200000 100000 0  250000 100000 0  300000 100000 0  350000 100000 0  400000 100000 0  450000 100000 0  500000 100000 0  550000 100000 0  600000 100000 0  650000 100000 0  700000 100000 0  750000 100000 0  800000 100000 0  850000 100000 0  900000 100000 0  950000 100000 0  1000000 100000 0  0 150000 0  50000 150000 0  100000 150000 0  150000 150000 0  200000 150000 0  250000 150000 0  300000 150000 0  350000 150000 0  400000 150000 0  450000 150000 0  500000 150000 0  550000 150000 0  600000 150000 0  650000 150000 0  700000 150000 0  750000 150000 0  800000 150000 0  850000 150000 0  900000 150000 0  950000 150000 0  1000000 150000 0  0 200000 0  50000 200000 0  100000 200000 0  150000 200000 0  200000 200000 0  250000 200000 0  300000 200000 0  350000 200000 0  400000 200000 0  450000 200000 0  500000 200000 0  550000 200000 0  600000 200000 0  650000 200000 0  700000 200000 0  750000 200000 0  800000 200000 0  850000 200000 0  900000 200000 0  950000 200000 0  1000000 200000 0  0 250000 0  50000 250000 0  100000 250000 0  150000 250000 0  200000 250000 0  250000 250000 0  300000 250000 0  350000 250000 0  400000 250000 0  450000 250000 0  500000 250000 0  550000 250000 0  600000 250000 0  650000 250000 0  700000 250000 0  750000 250000 0  800000 250000 0  850000 250000 0  900000 250000 0  950000 250000 0  1000000 250000 0  0 300000 0  50000 300000 0  100000 300000 0  150000 300000 0  200000 300000 0  250000 300000 0  300000 300000 0  350000 300000 0  400000 300000 0  450000 300000 0  500000 300000 0  550000 300000 0  600000 300000 0  650000 300000 0  700000 300000 0  750000 300000 0  800000 300000 0  850000 300000 0  900000 300000 0  950000 300000 0  1000000 300000 0  0 350000 0  50000 350000 0  100000 350000 0  150000 350000 0  200000 350000 0  250000 350000 0  300000 350000 0  350000 350000 0  400000 350000 0  450000 350000 0  500000 350000 0  550000 350000 0  600000 350000 0  650000 350000 0  700000 350000 0  750000 350000 0  800000 350000 0  850000 350000 0  900000 350000 0  950000 350000 0  1000000 350000 0  0 400000 0  50000 400000 0  100000 400000 0  150000 400000 0  200000 400000 0  250000 400000 0  300000 400000 0  350000 400000 0  400000 400000 0  450000 400000 0  500000 400000 0  550000 400000 0  600000 400000 0  650000 400000 0  700000 400000 0  750000 400000 0  800000 400000 0  850000 400000 0  900000 400000 0  950000 400000 0  1000000 400000 0  0 450000 0  50000 450000 0  100000 450000 0  150000 450000 0  200000 450000 0  250000 450000 0  300000 450000 0  350000 450000 0  400000 450000 0  450000 450000 0  500000 450000 0  550000 450000 0  600000 450000 0  650000 450000 0  700000 450000 0  750000 450000 0  800000 450000 0  850000 450000 0  900000 450000 0  950000 450000 0  1000000 450000 0  0 500000 0  50000 500000 0  100000 500000 0  150000 500000 0  200000 500000 0  250000 500000 0  300000 500000 0  350000 500000 0  400000 500000 0  450000 500000 0  500000 500000 0  550000 500000 0  600000 500000 0  650000 500000 0  700000 500000 0  750000 500000 0  800000 500000 0  850000 500000 0  900000 500000 0  950000 500000 0  1000000 500000 0  0 550000 0  50000 550000 0  100000 550000 0  150000 550000 0  200000 550000 0  250000 550000 0  300000 550000 0  350000 550000 0  400000 550000 0  450000 550000 0  500000 550000 0  550000 550000 0  600000 550000 0  650000 550000 0  700000 550000 0  750000 550000 0  800000 550000 0  850000 550000 0  900000 550000 0  950000 550000 0  1000000 550000 0  0 600000 0  50000 600000 0  100000 600000 0  150000 600000 0  200000 600000 0  250000 600000 0  300000 600000 0  350000 600000 0  400000 600000 0  450000 600000 0  500000 600000 0  550000 600000 0  600000 600000 0  650000 600000 0  700000 600000 0  750000 600000 0  800000 600000 0  850000 600000 0  900000 600000 0  950000 600000 0  1000000 600000 0  0 650000 0  50000 650000 0  100000 650000 0  150000 650000 0  200000 650000 0  250000 650000 0  300000 650000 0  350000 650000 0  400000 650000 0  450000 650000 0  500000 650000 0  550000 650000 0  600000 650000 0  650000 650000 0  700000 650000 0  750000 650000 0  800000 650000 0  850000 650000 0  900000 650000 0  950000 650000 0  1000000 650000 0  0 700000 0  50000 700000 0  100000 700000 0  150000 700000 0  200000 700000 0  250000 700000 0  300000 700000 0  350000 700000 0  400000 700000 0  450000 700000 0  500000 700000 0  550000 700000 0  600000 700000 0  650000 700000 0  700000 700000 0  750000 700000 0  800000 700000 0  850000 700000 0  900000 700000 0  950000 700000 0  1000000 700000 0  0 750000 0  50000 750000 0  100000 750000 0  150000 750000 0  200000 750000 0  250000 750000 0  300000 750000 0  350000 750000 0  400000 750000 0  450000 750000 0  500000 750000 0  550000 750000 0  600000 750000 0  650000 750000 0  700000 750000 0  750000 750000 0  800000 750000 0  850000 750000 0  900000 750000 0  950000 750000 0  1000000 750000 0  0 800000 0  50000 800000 0  100000 800000 0  150000 800000 0  200000 800000 0  250000 800000 0  300000 800000 0  350000 800000 0  400000 800000 0  450000 800000 0  500000 800000 0  550000 800000 0  600000 800000 0  650000 800000 0  700000 800000 0  750000 800000 0  800000 800000 0  850000 800000 0  900000 800000 0  950000 800000 0  1000000 800000 0  0 850000 0  50000 850000 0  100000 850000 0  150000 850000 0  200000 850000 0  250000 850000 0  300000 850000 0  350000 850000 0  400000 850000 0  450000 850000 0  500000 850000 0  550000 850000 0  600000 850000 0  650000 850000 0  700000 850000 0  750000 850000 0  800000 850000 0  850000 850000 0  900000 850000 0  950000 850000 0  1000000 850000 0  0 900000 0  50000 900000 0  100000 900000 0  150000 900000 0  200000 900000 0  250000 900000 0  300000 900000 0  350000 900000 0  400000 900000 0  450000 900000 0  500000 900000 0  550000 900000 0  600000 900000 0  650000 900000 0  700000 900000 0  750000 900000 0  800000 900000 0  850000 900000 0  900000 900000 0  950000 900000 0  1000000 900000 0  0 950000 0  50000 950000 0  100000 950000 0  150000 950000 0  200000 950000 0  250000 950000 0  300000 950000 0  350000 950000 0  400000 950000 0  450000 950000 0  500000 950000 0  550000 950000 0  600000 950000 0  650000 950000 0  700000 950000 0  750000 950000 0  800000 950000 0  850000 950000 0  900000 950000 0  950000 950000 0  1000000 950000 0  0 1000000 0  50000 1000000 0  100000 1000000 0  150000 1000000 0  200000 1000000 0  250000 1000000 0  300000 1000000 0  350000 1000000 0  400000 1000000 0  450000 1000000 0  500000 1000000 0  550000 1000000 0  600000 1000000 0  650000 1000000 0  700000 1000000 0  750000 1000000 0  800000 1000000 0  850000 1000000 0  900000 1000000 0  950000 1000000 0  1000000 1000000 0  0 1050000 0  50000 1050000 0  100000 1050000 0  150000 1050000 0  200000 1050000 0  250000 1050000 0  300000 1050000 0  350000 1050000 0  400000 1050000 0  450000 1050000 0  500000 1050000 0  550000 1050000 0  600000 1050000 0  650000 1050000 0  700000 1050000 0  750000 1050000 0  800000 1050000 0  850000 1050000 0  900000 1050000 0  950000 1050000 0  1000000 1050000 0  0 1100000 0  50000 1100000 0  100000 1100000 0  150000 1100000 0  200000 1100000 0  250000 1100000 0  300000 1100000 0  350000 1100000 0  400000 1100000 0  450000 1100000 0  500000 1100000 0  550000 1100000 0  600000 1100000 0  650000 1100000 0  700000 1100000 0  750000 1100000 0  800000 1100000 0  850000 1100000 0  900000 1100000 0  950000 1100000 0  1000000 1100000 0  0 1150000 0  50000 1150000 0  100000 1150000 0  150000 1150000 0  200000 1150000 0  250000 1150000 0  300000 1150000 0  350000 1150000 0  400000 1150000 0  450000 1150000 0  500000 1150000 0  550000 1150000 0  600000 1150000 0  650000 1150000 0  700000 1150000 0  750000 1150000 0  800000 1150000 0  850000 1150000 0  900000 1150000 0  950000 1150000 0  1000000 1150000 0  0 1200000 0  50000 1200000 0  100000 1200000 0  150000 1200000 0  200000 1200000 0  250000 1200000 0  300000 1200000 0  350000 1200000 0  400000 1200000 0  450000 1200000 0  500000 1200000 0  550000 1200000 0  600000 1200000 0  650000 1200000 0  700000 1200000 0  750000 1200000 0  800000 1200000 0  850000 1200000 0  900000 1200000 0  950000 1200000 0  1000000 1200000 0  0 1250000 0  50000 1250000 0  100000 1250000 0  150000 1250000 0  200000 1250000 0  250000 1250000 0  300000 1250000 0  350000 1250000 0  400000 1250000 0  450000 1250000 0  500000 1250000 0  550000 1250000 0  600000 1250000 0  650000 1250000 0  700000 1250000 0  750000 1250000 0  800000 1250000 0  850000 1250000 0  900000 1250000 0  950000 1250000 0  1000000 1250000 0  0 1300000 0  50000 1300000 0  100000 1300000 0  150000 1300000 0  200000 1300000 0  250000 1300000 0  300000 1300000 0  350000 1300000 0  400000 1300000 0  450000 1300000 0  500000 1300000 0  550000 1300000 0  600000 1300000 0  650000 1300000 0  700000 1300000 0  750000 1300000 0  800000 1300000 0  850000 1300000 0  900000 1300000 0  950000 1300000 0  1000000 1300000 0  0 1350000 0  50000 1350000 0  100000 1350000 0  150000 1350000 0  200000 1350000 0  250000 1350000 0  300000 1350000 0  350000 1350000 0  400000 1350000 0  450000 1350000 0  500000 1350000 0  550000 1350000 0  600000 1350000 0  650000 1350000 0  700000 135
[...]
<PointData  Scalars="f_4507"> 
<DataArray  type="Float64"  Name="f_4507"  format="ascii">7.5433565437094993e-02  8.3130053146220656e-02  8.6175977718771613e-02  8.7943101107873720e-02  8.9214929614006830e-02  9.0231081839235991e-02  9.1097700685457264e-02  9.1871239106064220e-02  9.2586275731130360e-02  9.3266630270181769e-02  9.3930705194040107e-02  9.4594586042554593e-02  9.5274319014417061e-02  9.5988171565036057e-02  9.6759674363238540e-02  9.7622862125054777e-02  9.8633485432640222e-02  9.9899401188444481e-02  1.0168343980628303e-01  1.0490486012112121e-01  1.1487847630516379e-01  8.3254364544854575e-02  8.4877713003217101e-02  8.6583931838481468e-02  8.8115881732847415e-02  8.9306183140119885e-02  9.0285187028211769e-02  9.1131438037417828e-02  9.1892258823831396e-02  9.2598460549927653e-02  9.3271990290208481e-02  9.3930146309532836e-02  9.4588210820670732e-02  9.5261465444695159e-02  9.5967218550703406e-02  9.6727495465535551e-02  9.7573459573219487e-02  9.8553745860253741e-02  9.9750942936187900e-02  1.0130956168663155e-01  1.0341414679187623e-01  1.0482980082439797e-01  8.6169846832402752e-02  8.6634184278101642e-02  8.7608404403549472e-02  8.8650356816306342e-02  8.9613759650022745e-02  9.0474554133070664e-02  9.1252304872562445e-02  9.1969260949522513e-02  9.2644483451881435e-02  9.3293758937735144e-02  9.3930636637958489e-02  9.4567589308658009e-02  9.5217137350140937e-02  9.5893005200200415e-02  9.6611406136719855e-02  9.7392388969385332e-02  9.8260352579776944e-02  9.9239399999466849e-02  1.0032651264219541e-01  1.0138393915171176e-01  1.0178807593811731e-01  8.7817875207367363e-02  8.8011050044216402e-02  8.8573552503944733e-02  8.9285046061924139e-02  9.0027282660007604e-02  9.0748362074874120e-02  9.1434921839408434e-02  9.2088933393674383e-02  9.2717515736270198e-02  9.3329139711616119e-02  9.3932418080139732e-02  9.4535892168065433e-02  9.5148167627152933e-02  9.5778076978950924e-02  9.6434553513407309e-02  9.7125571467197330e-02  9.7854544044057801e-02  9.8610345928258042e-02  9.9343399481100922e-02  9.9921230782564485e-02  1.0009802662968605e-01  8.8933424307545264e-02  8.9040682324200440e-02  8.9394923426486292e-02  8.9895202066516300e-02  9.0464924385103840e-02  9.1057563579383966e-02  9.1650052442003790e-02  9.2233635282806398e-02  9.2806980184944196e-02  9.3372319892727595e-02  9.3933475420793708e-02  9.4494881541252407e-02  9.5061026897684614e-02  9.5635904485874071e-02  9.6222064228400836e-02  9.6818660934450212e-02  9.7417492366158806e-02  9.7995642285610460e-02  9.8504252142715756e-02  9.8859608946059968e-02  9.8959648746920134e-02  8.9758767407064996e-02  8.9829085833019295e-02  9.0072087285431937e-02  9.0438410233691771e-02  9.0882178558709434e-02  9.1368477911067350e-02  9.1874897891978877e-02  9.2388923707144521e-02  9.2904561821381848e-02  9.3419674410087167e-02  9.3934197990919704e-02  9.4448973523413748e-02  9.4964875391083142e-02  9.5481939870370305e-02  9.5998186537030170e-02  9.6507783813482059e-02  9.6998218135567679e-02  9.7446478456571797e-02  9.7815676587473477e-02  9.8056986240139726e-02  9.8123192261285686e-02  9.0396851892942845e-02  9.0447453327414676e-02  9.0625760004580044e-02  9.0905277226335651e-02  9.1258379387284330e-02  9.1660487945241204e-02  9.2092949658654652e-02  9.2543086396709731e-02  9.3002929194170331e-02  9.3467728324418409e-02  9.3934666503925304e-02  9.4401826082246634e-02  9.4867304031860167e-02  9.5328321135857236e-02  9.5780165589284899e-02  9.6214846679943705e-02  9.6619475416510794e-02  9.6974780986575609e-02  9.7254993411967236e-02  9.7431385759124078e-02  9.7479404442840784e-02  9.0901241298588786e-02  9.0939898606917327e-02  9.1077628983472575e-02  9.1298841298314184e-02  9.1586316667721546e-02  9.1922910522769907e-02  9.2293931909224441e-02  9.2687957431912896e-02  9.3096590351207029e-02  9.3513760843700514e-02  9.3934918350228672e-02  9.4356253367960899e-02  9.4773957848237139e-02  9.5183479187138986e-02  9.5578720163106812e-02  9.5951187349835348e-02  9.6289219643835369e-02  9.6577671064147594e-02  9.6798752655193249e-02  9.6934861246645868e-02  9.6971811425915683e-02  9.1303836141379366e-02  9.1334686315168209e-02  9.1445422310268351e-02  9.1626092811942075e-02  9.1865451940589468e-02  9.2151334580338515e-02  9.2472305386165604e-02  9.2818523430689456e-02  9.3181911512803986e-02  9.3555904110918034e-02  9.3934996571622187e-02  9.4314221717537949e-02  9.4688606658253405e-02  9.5052624773931893e-02  9.5399657388549511e-02  9.5721517517343382e-02  9.6008167584237553e-02  9.6247874843629733e-02  9.6428136338677334e-02  9.6537589081673258e-02  9.6567267230473264e-02  9.1625279404205201e-02  9.1650772975322037e-02  9.1742782830868827e-02  9.1894490179713850e-02  9.2098160033968465e-02  9.2344885484429887e-02  9.2625665633209245e-02  9.2932118159246152e-02  9.3256767419984149e-02  9.3593019314103146e-02  9.3934944809126258e-02  9.4276963896139612e-02  9.4613488169214041e-02  9.4938560507297376e-02  9.5245530741114623e-02  9.5526827583407151e-02  9.5773924804631511e-02  9.5977637001555788e-02  9.6128879216731189e-02  9.6219896236335506e-02  9.6244562324668770e-02  9.1879644507727148e-02  9.1901355006130336e-02  9.1980043071107992e-02  9.2110730075808347e-02  9.2287800683922797e-02  9.2504468978566914e-02  9.2753476853947373e-02  9.3027634123639721e-02  9.3320109419609831e-02  9.3624508489845992e-02  9.3934801172225704e-02  9.4245156551595710e-02  9.4549735329142376e-02  9.4842480784506175e-02  9.5116950311148640e-02  9.5366238715584917e-02  9.5583057103280106e-02  9.5760035158790141e-02  9.5890291545412940e-02  9.5968222818289137e-02  9.5989340544899104e-02  9.2076822676072229e-02  9.2095834052508790e-02  9.2164975871592253e-02  9.2280394312125189e-02  9.2437780261590302e-02  9.2631726725151631e-02  9.2856190269613476e-02  9.3104892493969388e-02  9.3371577579147241e-02  9.3650132116872828e-02  9.3934595826358408e-02  9.4219099482285434e-02  9.4497766805414871e-02  9.4764615858733164e-02  9.5013495984043558e-02  9.5238098543327071e-02  9.5432080219868418e-02  9.5589330025804872e-02  9.5704388956702538e-02  9.5772967300031250e-02  9.5791555856635055e-02  9.2223837103045103e-02  9.2240947519668881e-02  9.2303356481751114e-02  9.2407911524732739e-02  9.2551112704050545e-02  9.2728439959626222e-02  9.2934671873025274e-02  9.3164189802560374e-02  9.3411198695459371e-02  9.3669860314628012e-02  9.3934351039887426e-02  9.4198865814904498e-02  9.4457594325702887e-02  9.4704697133391913e-02  9.4934309796450289e-02  9.5140601947566850e-02  9.5317914057793107e-02  9.5460984795479265e-02  9.5565265629819846e-02  9.5627274304996623e-02  9.5644093043894526e-02  9.2325602633053921e-02  9.2341439813858534e-02  9.2399351109539549e-02  9.2496616282010127e-02  9.2630222946355395e-02  9.2796198540437969e-02  9.2989847454218927e-02  9.3205993282213989e-02  9.3439171171081775e-02  9.3683763380858362e-02  9.3934082426998605e-02  9.4184414743429284e-02  9.4429043348869438e-02  9.4662270615254521e-02  9.4878462404584946e-02  9.5072132495798961e-02  9.5238080717565052e-02  9.5371589251461109e-02  9.5468670537049105e-02  9.5526324834758605e-02  9.5541978294310104e-02  9.2385375018327734e-02  9.2400466402416823e-02  9.2455774178414260e-02  9.2548823780723655e-02  9.2676864930601330e-02  9.2836222018882850e-02  9.3022490792328411e-02  9.3230747068710748e-02  9.3455722086805762e-02  9.3691937444452700e-02  9.3933800623750452e-02  9.4175669624127323e-02  9.4411900777626873e-02  9.4636896649939378e-02  9.4845171000493236e-02  9.5031445049383503e-02  9.5190783727724229e-02  9.5318772865602377e-02  9.5411730375274589e-02  9.5466912460147810e-02  9.5481914956244252e-02  9.2405012295962222e-02  9.2419831651845072e-02  9.2474249139826339e-02  9.2565890801814169e-02  9.2692091049051087e-02  9.2849266566149988e-02  9.3033103596854655e-02  9.3238756767319672e-02  9.3461019366639808e-02  9.3694458194961555e-02  9.3933513019978931e-02  9.4172567844996266e-02  9.4406006673318027e-02  9.4628269272638163e-02  9.4833922443103111e-02  9.5017759473807764e-02  9.5174934990906707e-02  9.5301135238143625e-02  9.5392776900131426e-02  9.5447194388112666e-02  9.5462013743995516e-02  9.2385111083713486e-02  9.2400113579809928e-02  9.2455295664683190e-02  9.2548253174355416e-02  9.2676242312233578e-02  9.2835580990574276e-02  9.3021855039464571e-02  9.3230129390018471e-02  9.3455125262330963e-02  9.3691356415830540e-02  9.3933225416207425e-02  9.4175088595505163e-02  9.4411303953152087e-02  9.4636278971247073e-02  9.4844535247629369e-02  9.5030804021074930e-02  9.5190161109356491e-02  9.5318202259234125e-02  9.5411251861543533e-02  9.5466559637540943e-02  9.5481651021630046e-02  9.2325047745647607e-02  9.2340701205199133e-02  9.2398355502908688e-02  9.2495436788496685e-02  9.2628945322392756e-02  9.2794893544158874e-02  9.2988563635372876e-02  9.3204755424703342e-02  9.3437982691088453e-02  9.3682611296528620e-02  9.3932943612959285e-02  9.4183262659099529e-02  9.4427854868876088e-02  9.4661032757743860e-02  9.4877178585738922e-02  9.5070827499519894e-02  9.5236803093602482e-02  9.5370409757947708e-02  9.5467674930418300e-02  9.5525586226099302e-02  9.5541423406903886e-02  9.2222932996063281e-02  9.2239751734961170e-02  9.2301760410138003e-02  9.2406041244478584e-02  9.2549111982164770e-02  9.2726424092391041e-02  9.2932716243507615e-02  9.3162328906566019e-02  9.3409431714255087e-02  9.3668160225053462e-02  9.3932675000070534e-02  9.4197165725329962e-02  9.4455827344498575e-02  9.4702836237397517e-02  9.4932354166932659e-02  9.5138586080331697e-02  9.5315913335907387e-02  9.5459114515225221e-02  9.5563669558206804e-02  9.5626078520289023e-02  9.5643188936912787e-02  9.2075470183322849e-02  9.2094058739926640e-02  9.2162637083255367e-02  9.2277696014153032e-02  9.2434945820089556e-02  9.2628927496630903e-02  9.2853530055914471e-02  9.3102410181224837e-02  9.3369259234543159e-02  9.3647926557672609e-02  9.3932430213599635e-02  9.4216893923085215e-02  9.4495448460810774e-02  9.4762133545988572e-02  9.5010835770344484e-02  9.5235299314806385e-02  9.5429245778367755e-02  9.5586631727832855e-02  9.5702050168365776e-02  9.5771191987449225e-02  9.5790203363885759e-02  9.1877685495058939e-02  9.1898803221668907e-02  9.1976734494545118e-02  9.2106990881167888e-02  9.2283968936677993e-02  9.2500787324373168e-02  9.2750075728809458e-02  9.3024545255451938e-02  9.3317290710815778e-02  9.3621869488362430e-02  9.3932224867732422e-02  9.4242517550112162e-02  9.4546916620348295e-02  9.4839391916318419e-02  9.5113549186010796e-02  9.5362557061391254e-02  9.5579225356035413e-02  9.5756295964149848e-02  9.5886982968850148e-02  9.5965671033827790e-02  9.5987381532230992e-02  9.1622463715289482e-02  9.1647129803622704e-02  9.1738146823227007e-02  9.1889389038402450e-02  9.2093101235326755e-02  9.2340198456551087e-02  9.2621495298843629e-02  9.2928465532660889e-02  9.3253537870744280e-02  9.3590062143818695e-02  9.3932081230832035e-02  9.4274006725855175e-02  9.4610258619974158e-02  9.4934907880712169e-02  9.5241360406749062e-02  9.5522140555528406e-02  9.5768866005989856e-02  9.5972535860244429e-02  9.6124243209089424e-02  9.6216253064636215e-02  9.6241746635753064e-02  9.1299758809485140e-02  9.1329436958285160e-02  9.1438889701281084e-02  9.1619151196328644e-02  9.1858858455720852e-02  9.2145508522615036e-02  9.2467368651408907e-02  9.2814401266026567e-02  9.3178419381705083e-02  9.3552804322420538e-02  9.3932029468336259e-02  9.4311121929040481e-02  9.4685114527154543e-02  9.5048502609269031e-02  9.5394720653792883e-02  9.5715691459619931e-02  9.6001574099368991e-02  9.6240933228016357e-02  9.6421603729690025e-02  9.6532339724790153e-02  9.6563189898579010e-02  9.0895214614042930e-02  9.0932164793312745e-02  9.1068273384765336e-02  9.1289354975810921e-02  9.1577806396123188e-02  9.1915838690123250e-02  9.2288305876851842e-02  9.2683546852819668e-02  9.3093068191721501e-02  9.3510772671997755e-02  9.3932107689729982e-02  9.4353265196258168e-02  9.4770435688751667e-02  9.5179068608045786e-02  9.5573094130734199e-02  9.5944115517188677e-02  9.6280709372237039e-02  9.6568184741644400e-02  9.6789397056485982e-02  9.6927127433041188e-02  9.6965784741369729e-02  9.0387621597118065e-02  9.0435640280834742e-02  9.0612032627991557e-02  9.0892245053383183e-02  9.1247550623447984e-02  9.1652179360015115e-02  9.2086860450673963e-02  9.2538704904101654e-02  9.2999722008098695e-02  9.3465199957712228e-02  9.3932359536033544e-02  9.4399297715540481e-02  9.4864096845788559e-02  9.5323939643249117e-02  9.5774076381304155e-02  9.6206538094717575e-02  9.6608646652674435e-02  9.6961748813623086e-02  9.7241266035378679e-02  9.7419572712544034e-02  9.7470174147015851e-02  8.9743833778673468e-02  8.9810039799819372e-02  9.0051349452485607e-02  9.0420547583387273e-02  9.0868807904391405e-02  9.1359242226477011e-02  9.1868839502928873e-02  9.2385086169588806e-02  9.2902150648875956e-02  9.3418052516545363e-02  9.3932828049039352e-02  9.4447351629871917e-02  9.4962464218577278e-02  9.5478102332814535e-02  9.5992128147980124e-02  9.6498548128891623e-02  9.6984847481249498e-02  9.7428615806267160e-02  9.7794938754526967e-02  9.8037940206939581e-02  9.8108258632893852e-02  8.8907377293039283e-02  8.9007417093899435e-02  8.9362773897243619e-02  8.9871383754348888e-02  9.0449533673800542e-02  9.1048365105509080e-02  9.1644961811558470e-02  9.2231121554085263e-02  9.2805999142274706e-02  9.3372144498706913e-02  9.3933550619165584e-02  9.4494706147231711e-02  9.5060045855015124e-02  9.5633390757152853e-02  9.6216973597955432e-02  9.6809462460575257e-02  9.7402101654855286e-02  9.7971823973442826e-02  9.8472102613472792e-02  9.8826343715758588e-02  9.8933601732413778e-02  8.7768999410273704e-02  8.7945795257395223e-02  8.8523626558858773e-02  8.9256680111701611e-02  9.0012481995901783e-02  9.0741454572762240e-02  9.1432472526552233e-02  9.2088949061008646e-02  9.2718858412806610e-02  9.3331133871894109e-02  9.3934607959819810e-02  9.4537886328343423e-02  9.5149510303689303e-02  9.5778092646285090e-02  9.6432104200551025e-02  9.7118663965085283e-02  9.7839743379951757e-02  9.8581979978035181e-02  9.9293473536014518e-02  9.9855975995742793e-02  1.0004915083259187e-01  8.6078950101842786e-02  8.6483086888248253e-02  8.7540513397764586e-02  8.8627626040493124e-02  8.9606673460182959e-02  9.0474637070574529e-02  9.1255619903239979e-02  9.1974020839759404e-02  9.2649888689818841e-02  9.3299436731301782e-02  9.3936389402001275e-02  9.4573267102224620e-02  9.5222542588078288e-02  9.5897765090437209e-02  9.6614721167397277e-02  9.7392471906889017e-02  9.8253266389936880e-02  9.9216669223653214e-02  1.0025862163641001e-01  1.0123284176185786e-01  1.0169717920755675e-01  8.3037225215562602e-02  8.4452879248084076e-02  8.6557464353328673e-02  8.8116083103772280e-02  8.9313280179706425e-02  9.0293566466740624e-02  9.1139530574424532e-02  9.1899807489256635e-02  9.2605560595264896e-02  9.3278815219289324e-02  9.3936879730427178e-02  9.4595035749751546e-02  9.5268565490032361e-02  9.5974767216128604e-02  9.6735588002542172e-02  9.7581839011748162e-02  9.8560842899839976e-02  9.9751144307112377e-02  1.0128309420147828e-01  1.0298931303674262e-01  1.0461266149510526e-01  7.2988549734797112e-02  8.2962165918839134e-02  8.6183586233677320e-02  8.7967624851515824e-02  8.9233540607320083e-02  9.0244163914905515e-02  9.1107351676721710e-02  9.1878854474924124e-02  9.2592707025543133e-02  9.3272439997405587e-02  9.3936320845920074e-02  9.4600395769778398e-02  9.5280750308829806e-02  9.5995786933895960e-02  9.6769325354502889e-02  9.7635944200724092e-02  9.8652096425953198e-02  9.9923924932086211e-02  1.0169104832118826e-01  1.0473697289373918e-01  1.1243346060286522e-01  </DataArray> 
</PointData> 
</Piece>
</UnstructuredGrid>
</VTKFile>