<?xml version="1.0"?>
<VTKFile type="UnstructuredGrid"  version="0.1"  >
<UnstructuredGrid>
<Piece  NumberOfPoints="651" NumberOfCells="1200">
<Points>
<DataArray  type="Float64"  NumberOfComponents="3"  format="ascii">0 0 0  50000 0 0  100000 0 0  150000 0 0  200000 0 0  250000 0 0  300000 0 0  350000 0 0  400000 0 0  450000 0 0  500000 0 0  550000 0 0  600000 0 0  650000 0 0  700000 0 0  750000 0 0  800000 0 0  850000 0 0  900000 0 0  950000 0 0  1000000 0 0  0 50000 0  50000 50000 0  100000 50000 0  150000 50000 0  200000 50000 0  250000 50000 0  300000 50000 0  350000 50000 0  400000 50000 0  450000 50000 0  500000 50000 0  550000 50000 0  600000 50000 0  650000 50000 0  700000 50000 0  750000 50000 0  800000 50000 0  850000 50000 0  900000 50000 0  950000 50000 0  1000000 50000 0  0 100000 0  50000 100000 0  100000 100000 0  150000 100000 0  200000 100000 0  250000 100000 0  300000 100000 0  350000 100000 0  400000 100000 0  450000 100000 0  500000 100000 0  550000 100000 0  600000 100000 0  650000 100000 0  700000 100000 0  750000 100000 0  800000 100000 0  850000 100000 0  900000 100000 0  950000 100000 0  1000000 100000 0  0 150000 0  50000 150000 0  100000 150000 0  150000 150000 0  200000 150000 0  250000 150000 0  300000 150000 0  350000 150000 0  400000 150000 0  450000 150000 0  500000 150000 0  550000 150000 0  600000 150000 0  650000 150000 0  700000 150000 0  750000 150000 0  800000 150000 0  850000 150000 0  900000 150000 0  950000 150000 0  1000000 150000 0  0 200000 0  50000 200000 0  100000 200000 0  150000 200000 0  200000 200000 0  250000 200000 0  300000 200000 0  350000 200000 0  400000 200000 0  450000 200000 0  500000 200000 0  550000 200000 0  600000 200000 0  650000 200000 0  700000 200000 0  750000 200000 0  800000 200000 0  850000 200000 0  900000 200000 0  950000 200000 0  1000000 200000 0  0 250000 0  50000 250000 0  100000 250000 0  150000 250000 0  200000 250000 0  250000 250000 0  300000 250000 0  350000 250000 0  400000 250000 0  450000 250000 0  500000 250000 0  550000 250000 0  600000 250000 0  650000 250000 0  700000 250000 0  750000 250000 0  800000 250000 0  850000 250000 0  900000 250000 0  950000 250000 0  1000000 250000 0  0 300000 0  50000 300000 0  100000 300000 0  150000 300000 0  200000 300000 0  250000 300000 0  300000 300000 0  350000 300000 0  400000 300000 0  450000 300000 0  500000 300000 0  550000 300000 0  600000 300000 0  650000 300000 0  700000 300000 0  750000 300000 0  800000 300000 0  850000 300000 0  900000 300000 0  950000 300000 0  1000000 300000 0  0 350000 0  50000 350000 0  100000 350000 0  150000 350000 0  200000 350000 0  250000 350000 0  300000 350000 0  350000 350000 0  400000 350000 0  450000 350000 0  500000 350000 0  550000 350000 0  600000 350000 0  650000 350000 0  700000 350000 0  750000 350000 0  800000 350000 0  850000 350000 0  900000 350000 0  950000 350000 0  1000000 350000 0  0 400000 0  50000 400000 0  100000 400000 0  150000 400000 0  200000 400000 0  250000 400000 0  300000 400000 0  350000 400000 0  400000 400000 0  450000 400000 0  500000 400000 0  550000 400000 0  600000 400000 0  650000 400000 0  700000 400000 0  750000 400000 0  800000 400000 0  850000 400000 0  900000 400000 0  950000 400000 0  1000000 400000 0  0 450000 0  50000 450000 0  100000 450000 0  150000 450000 0  200000 450000 0  250000 450000 0  300000 450000 0  350000 450000 0  400000 450000 0  450000 450000 0  500000 450000 0  550000 450000 0  600000 450000 0  650000 450000 0  700000 450000 0  750000 450000 0  800000 450000 0  850000 450000 0  900000 450000 0  950000 450000 0  1000000 450000 0  0 500000 0  50000 500000 0  100000 500000 0  150000 500000 0  200000 500000 0  250000 500000 0  300000 500000 0  350000 500000 0  400000 500000 0  450000 500000 0  500000 500000 0  550000 500000 0  600000 500000 0  650000 500000 0  700000 500000 0  750000 500000 0  800000 500000 0  850000 500000 0  900000 500000 0  950000 500000 0  1000000 500000 0  0 550000 0  50000 550000 0  100000 550000 0  150000 550000 0  200000 550000 0  250000 550000 0  300000 550000 0  350000 550000 0  400000 550000 0  450000 550000 0  500000 550000 0  550000 550000 0  600000 550000 0  650000 550000 0  700000 550000 0  750000 550000 0  800000 550000 0  850000 550000 0  900000 550000 0  950000 550000 0  1000000 550000 0  0 600000 0  50000 600000 0  100000 600000 0  150000 600000 0  200000 600000 0  250000 600000 0  300000 600000 0  350000 600000 0  400000 600000 0  450000 600000 0  500000 600000 0  550000 600000 0  600000 600000 0  650000 600000 0  700000 600000 0  750000 600000 0  800000 600000 0  850000 600000 0  900000 600000 0  950000 600000 0  1000000 600000 0  0 650000 0  50000 650000 0  100000 650000 0  150000 650000 0  200000 650000 0  250000 650000 0  300000 650000 0  350000 650000 0  400000 650000 0  450000 650000 0  500000 650000 0  550000 650000 0  600000 650000 0  650000 650000 0  700000 650000 0  750000 650000 0  800000 650000 0  850000 650000 0  900000 650000 0  950000 650000 0  1000000 650000 0  0 700000 0  50000 700000 0  100000 700000 0  150000 700000 0  200000 700000 0  250000 700000 0  300000 700000 0  350000 700000 0  400000 700000 0  450000 700000 0  500000 700000 0  550000 700000 0  600000 700000 0  650000 700000 0  700000 700000 0  750000 700000 0  800000 700000 0  850000 700000 0  900000 700000 0  950000 700000 0  1000000 700000 0  0 750000 0  50000 750000 0  100000 750000 0  150000 750000 0  200000 750000 0  250000 750000 0  300000 750000 0  350000 750000 0  400000 750000 0  450000 750000 0  500000 750000 0  550000 750000 0  600000 750000 0  650000 750000 0  700000 750000 0  750000 750000 0  800000 750000 0  850000 750000 0  900000 750000 0  950000 750000 0  1000000 750000 0  0 800000 0  50000 800000 0  100000 800000 0  150000 800000 0  200000 800000 0  250000 800000 0  300000 800000 0  350000 800000 0  400000 800000 0  450000 800000 0  500000 800000 0  550000 800000 0  600000 800000 0  650000 800000 0  700000 800000 0  750000 800000 0  800000 800000 0  850000 800000 0  900000 800000 0  950000 800000 0  1000000 800000 0  0 850000 0  50000 850000 0  100000 850000 0  150000 850000 0  200000 850000 0  250000 850000 0  300000 850000 0  350000 850000 0  400000 850000 0  450000 850000 0  500000 850000 0  550000 850000 0  600000 850000 0  650000 850000 0  700000 850000 0  750000 850000 0  800000 850000 0  850000 850000 0  900000 850000 0  950000 850000 0  1000000 850000 0  0 900000 0  50000 900000 0  100000 900000 0  150000 900000 0  200000 900000 0  250000 900000 0  300000 900000 0  350000 900000 0  400000 900000 0  450000 900000 0  500000 900000 0  550000 900000 0  600000 900000 0  650000 900000 0  700000 900000 0  750000 900000 0  800000 900000 0  850000 900000 0  900000 900000 0  950000 900000 0  1000000 900000 0  0 950000 0  50000 950000 0  100000 950000 0  150000 950000 0  200000 950000 0  250000 950000 0  300000 950000 0  350000 950000 0  400000 950000 0  450000 950000 0  500000 950000 0  550000 950000 0  600000 950000 0  650000 950000 0  700000 950000 0  750000 950000 0  800000 950000 0  850000 950000 0  900000 950000 0  950000 950000 0  1000000 950000 0  0 1000000 0  50000 1000000 0  100000 1000000 0  150000 1000000 0  200000 1000000 0  250000 1000000 0  300000 1000000 0  350000 1000000 0  400000 1000000 0  450000 1000000 0  500000 1000000 0  550000 1000000 0  600000 1000000 0  650000 1000000 0  700000 1000000 0  750000 1000000 0  800000 1000000 0  850000 1000000 0  900000 1000000 0  950000 1000000 0  1000000 1000000 0  0 1050000 0  50000 1050000 0  100000 1050000 0  150000 1050000 0  200000 1050000 0  250000 1050000 0  300000 1050000 0  350000 1050000 0  400000 1050000 0  450000 1050000 0  500000 1050000 0  550000 1050000 0  600000 1050000 0  650000 1050000 0  700000 1050000 0  750000 1050000 0  800000 1050000 0  850000 1050000 0  900000 1050000 0  950000 1050000 0  1000000 1050000 0  0 1100000 0  50000 1100000 0  100000 1100000 0  150000 1100000 0  200000 1100000 0  250000 1100000 0  300000 1100000 0  350000 1100000 0  400000 1100000 0  450000 1100000 0  500000 1100000 0  550000 1100000 0  600000 1100000 0  650000 1100000 0  700000 1100000 0  750000 1100000 0  800000 1100000 0  850000 1100000 0  900000 1100000 0  950000 1100000 0  1000000 1100000 0  0 1150000 0  50000 1150000 0  100000 1150000 0  150000 1150000 0  200000 1150000 0  250000 1150000 0  300000 1150000 0  350000 1150000 0  400000 1150000 0  450000 1150000 0  500000 1150000 0  550000 1150000 0  600000 1150000 0  650000 1150000 0  700000 1150000 0  750000 1150000 0  800000 1150000 0  850000 1150000 0  900000 1150000 0  950000 1150000 0  1000000 1150000 0  0 1200000 0  50000 1200000 0  100000 1200000 0  150000 1200000 0  200000 1200000 0  250000 1200000 0  300000 1200000 0  350000 1200000 0  400000 1200000 0  450000 1200000 0  500000 1200000 0  550000 1200000 0  600000 1200000 0  650000 1200000 0  700000 1200000 0  750000 1200000 0  800000 1200000 0  850000 1200000 0  900000 1200000 0  950000 1200000 0  1000000 1200000 0  0 1250000 0  50000 1250000 0  100000 1250000 0  150000 1250000 0  200000 1250000 0  250000 1250000 0  300000 1250000 0  350000 1250000 0  400000 1250000 0  450000 1250000 0  500000 1250000 0  550000 1250000 0  600000 1250000 0  650000 1250000 0  700000 1250000 0  750000 1250000 0  800000 1250000 0  850000 1250000 0  900000 1250000 0  950000 1250000 0  1000000 1250000 0  0 1300000 0  50000 1300000 0  100000 1300000 0  150000 1300000 0  200000 1300000 0  250000 1300000 0  300000 1300000 0  350000 1300000 0  400000 1300000 0  450000 1300000 0  500000 1300000 0  550000 1300000 0  600000 1300000 0  650000 1300000 0  700000 1300000 0  750000 1300000 0  800000 1300000 0  850000 1300000 0  900000 1300000 0  950000 1300000 0  1000000 1300000 0  0 1350000 0  50000 1350000 0  100000 1350000 0  150000 1350000 0  200000 1350000 0  250000 1350000 0  300000 1350000 0  350000 1350000 0  400000 1350000 0  450000 1350000 0  500000 1350000 0  550000 1350000 0  600000 1350000 0  650000 1350000 0  700000 135
[...]
<PointData  Scalars="f_4507"> 
<DataArray  type="Float64"  Name="f_4507"  format="ascii">5.7902466771824285e-02  6.8295494488386274e-02  7.1728028060181373e-02  7.3729414603752624e-02  7.5186624271192326e-02  7.6356286781743526e-02  7.7355330796952948e-02  7.8247444485129825e-02  7.9072175401170633e-02  7.9856932046145843e-02  8.0622942644704446e-02  8.1388784533379083e-02  8.2173000411031261e-02  8.2996695032163184e-02  8.3886983184840516e-02  8.4882718691608891e-02  8.6046087412582267e-02  8.7493521341726763e-02  8.9511163060530682e-02  9.3283766200532817e-02  1.0755385439949411e-01  6.8133603867484183e-02  7.0151463679803877e-02  7.2100682519283393e-02  7.3900145802308886e-02  7.5281730513848802e-02  7.6413945911834993e-02  7.7391521479504580e-02  7.8270007378956799e-02  7.9085232565272945e-02  7.9862642369062598e-02  8.0622277187598831e-02  8.1381838747051183e-02  8.2159024554501567e-02  8.2973867733296833e-02  8.3851839993487595e-02  8.4829029020463020e-02  8.5962445231356099e-02  8.7353031764086472e-02  8.9196301320351348e-02  9.1806459702412510e-02  9.3299579863972179e-02  7.1652072527913419e-02  7.2137804380025358e-02  7.3287181376497978e-02  7.4511790475266890e-02  7.5631957266652755e-02  7.6629449494653931e-02  7.7529223550581922e-02  7.8357871476506136e-02  7.9137870089653020e-02  7.9887689777874957e-02  8.0623119846095617e-02  8.1358673306935456e-02  8.2108923731235350e-02  8.2889887275731239e-02  8.3720611758558217e-02  8.4625018478986402e-02  8.5633207895027652e-02  8.6777186109235738e-02  8.8057480023995507e-02  8.9291284605375137e-02  8.9687070257156942e-02  7.3560971434844608e-02  7.3758822814616418e-02  7.4413394610922723e-02  7.5243548916171576e-02  7.6106912704443905e-02  7.6943462634991439e-02  7.7738531430862540e-02  7.8495033562751032e-02  7.9221603624489698e-02  7.9928295586802020e-02  8.0625238763769730e-02  8.1322444414648670e-02  8.2030007450190665e-02  8.2758346139678252e-02  8.3518135292649814e-02  8.4319187602787518e-02  8.5166284671913506e-02  8.6046827844275003e-02  8.6899556522337162e-02  8.7556637392234876e-02  8.7737101725874400e-02  7.4850398762334569e-02  7.4963395488737525e-02  7.5371741231120323e-02  7.5951754634170865e-02  7.6612862300516796e-02  7.7299980002945176e-02  7.7986177698051468e-02  7.8661405283673810e-02  7.9324344350670400e-02  7.9977768957493200e-02  8.0626251606353005e-02  8.1275054977280548e-02  8.1929509350411850e-02  8.2594401541552009e-02  8.3272891411563327e-02  8.3964207072836861e-02  8.4658819566310411e-02  8.5329243643104319e-02  8.5915956921674627e-02  8.6318224146698222e-02  8.6423995031575260e-02  7.5805950613720086e-02  7.5881305767687063e-02  7.6160138796104671e-02  7.6583079930402503e-02  7.7096721691057732e-02  7.7659805446487137e-02  7.8245973290105617e-02  7.8840620509979059e-02  7.9436850719905389e-02  8.0032288276092808e-02  8.0626963637298224e-02  8.1221950587590727e-02  8.1818360592638029e-02  8.2416332094634240e-02  8.3013642166587034e-02  8.3603505175855686e-02  8.4171123913189178e-02  8.4689031961644012e-02  8.5113219130556653e-02  8.5386787772771797e-02  8.5457894736603951e-02  7.6544978593103122e-02  7.6599465253556168e-02  7.6803539136770724e-02  7.7125445165951892e-02  7.7533297144132859e-02  7.7998256616383307e-02  7.8498401462204034e-02  7.9018905533569328e-02  7.9550508859612165e-02  8.0087741762798523e-02  8.0627397330442885e-02  8.1167316204481338e-02  8.1705350880406896e-02  8.2238319907977295e-02  8.2760755704174405e-02  8.3263293208197683e-02  8.3730728010754360e-02  8.4140285286305697e-02  8.4461697481806333e-02  8.4661991825683458e-02  8.4713728337225389e-02  7.7128977735644075e-02  7.7170599953019517e-02  7.7327958512223516e-02  7.7582287331862398e-02  7.7913823881144428e-02  7.8302551042314331e-02  7.8731268456627965e-02  7.9186629168088815e-02  7.9658859198971713e-02  8.0140924656767601e-02  8.0627575539288371e-02  8.1114427812659096e-02  8.1597093189082398e-02  8.2070299874601460e-02  8.2526945735317186e-02  8.2957089269949338e-02  8.3347047707397648e-02  8.3679073804855772e-02  8.3932469076348742e-02  8.4087128012283949e-02  8.4126892272223044e-02  7.7594903392204609e-02  7.7628078570920273e-02  7.7754422915724430e-02  7.7961883895919404e-02  7.8237602530976599e-02  7.8567424104171307e-02  7.8938005571093942e-02  7.9337872452966723e-02  7.9757625693857651e-02  8.0189644076438513e-02  8.0627551953448215e-02  8.1065602092260394e-02  8.1498035673096617e-02  8.1918436524691621e-02  8.2319097177105519e-02  8.2690462149501112e-02  8.3020811812948320e-02  8.3296480609562934e-02  8.3502989041100928e-02  8.3627366878267564e-02  8.3659244440588726e-02  7.7966758088200749e-02  7.7994138516514849e-02  7.8098999106739050e-02  7.8273032907773613e-02  7.8507419401284459e-02  7.8791819601762889e-02  7.9115758890712401e-02  7.9469483728352774e-02  7.9844303586703871e-02  8.0232562345323097e-02  8.0627383604405439e-02  8.1022298585666300e-02  8.1410825416453794e-02  8.1786045581652339e-02  8.2140224486383945e-02  8.2464549428213893e-02  8.2749102608251107e-02  8.2983225267165672e-02  8.3156416932904542e-02  8.3259822561985691e-02  8.3286274118110362e-02  7.8260916401297578e-02  7.8284209254531223e-02  7.8373802663262465e-02  7.8523602697107286e-02  7.8727219899058051e-02  7.8976790203197825e-02  7.9263884069989327e-02  7.9580149642901873e-02  7.9917654049419348e-02  8.0268975686118307e-02  8.0627118724669003e-02  8.0985319502720629e-02  8.1336802743806461e-02  8.1674536837551423e-02  8.1991038425368964e-02  8.2278287381836235e-02  8.2527826727393269e-02  8.2731122083499045e-02  8.2880224978143749e-02  8.2968737762552855e-02  8.2991358117937314e-02  7.8488883008982768e-02  7.8509262616050249e-02  7.8587923636366297e-02  7.8720133389948849e-02  7.8900997202129342e-02  7.9124256187021361e-02  7.9382902045671069e-02  7.9669652050231410e-02  7.9977248870598219e-02  8.0298600623875380e-02  8.0626793612550401e-02  8.0955019754908361e-02  8.1276461930311503e-02  8.1584179340728286e-02  8.1871035621764565e-02  8.2129714677023749e-02  8.2352868390262457e-02  8.2533428534502976e-02  8.2665090211717446e-02  8.2742959333240676e-02  8.2762855539626201e-02  7.8658822829374503e-02  7.8677151925099484e-02  7.8748104925668430e-02  7.8867804232711544e-02  7.9032279057071803e-02  7.9236301396907946e-02  7.9473823004036770e-02  7.9738333345577783e-02  8.0023115159498268e-02  8.0321399488513259e-02  8.0626433380909787e-02  8.0931484843856885e-02  8.1229815521891721e-02  8.1514653728547729e-02  8.1779200783564529e-02  8.2016701952520490e-02  8.2220607297581516e-02  8.2384834563204376e-02  8.2504130168175385e-02  8.2574526205524398e-02  8.2592520057355970e-02  7.8776447727829185e-02  7.8793403360498879e-02  7.8859205948766414e-02  7.8970510271160921e-02  7.9123900626699717e-02  7.9314784803231328e-02  7.9537728193304597e-02  7.9786737451790088e-02  8.0055482120321098e-02  8.0337451968981829e-02  8.0626054170544970e-02  8.0914664763614919e-02  8.1196655820010455e-02  8.1465422967972614e-02  8.1714438065137368e-02  8.1937348761565207e-02  8.2128139550226367e-02  8.2281357459412632e-02  8.2392396521260403e-02  8.2457843716471232e-02  8.2474587465481891e-02  7.8845541064788999e-02  7.8861691145414220e-02  7.8924507756376508e-02  7.9030953987180338e-02  7.9177911038773627e-02  7.9361131501922755e-02  7.9575521121249437e-02  7.9815381781139949e-02  8.0074612911399723e-02  8.0346867902274299e-02  8.0625665676495137e-02  8.0904466684973059e-02  8.1176729490143887e-02  8.1435967554985014e-02  8.1675825905241459e-02  8.1890193928929142e-02  8.2073363566726010e-02  8.2220232516892866e-02  8.2326547328171601e-02  8.2389190710974836e-02  8.2405238083923041e-02  7.8868262846550768e-02  7.8884116917464567e-02  7.8945903154277339e-02  7.9050718899594793e-02  7.9195539270421597e-02  7.9376224406482496e-02  7.9587786847024333e-02  7.9824621602280002e-02  8.0080701408160856e-02  8.0349733033731940e-02  8.0625273518712459e-02  8.0900814003692950e-02  8.1169845629264062e-02  8.1425925435144916e-02  8.1662760190400530e-02  8.1874322630942395e-02  8.2055007767003293e-02  8.2199828137830097e-02  8.2304643883147510e-02  8.2366430119960268e-02  8.2382284190874080e-02  7.8845308953501822e-02  7.8861356326450013e-02  7.8923999709253276e-02  7.9030314520531997e-02  7.9177183470698881e-02  7.9360353108495735e-02  7.9574721132183446e-02  7.9814579482439918e-02  8.0073817547281032e-02  8.0346080352451874e-02  8.0624881360929782e-02  8.0903679135150619e-02  8.1175934126025195e-02  8.1435165256284955e-02  8.1675025916175426e-02  8.1889415535502094e-02  8.2072635998651278e-02  8.2219593050244538e-02  8.2326039281048369e-02  8.2388855892010629e-02  8.2405005972635878e-02  7.8775959571942930e-02  7.8792703320953658e-02  7.8858150516164502e-02  7.8969189578012258e-02  7.9122407487198523e-02  7.9313198275859739e-02  7.9536108972287564e-02  7.9785124069452332e-02  8.0053891217414477e-02  8.0335882273810041e-02  8.0624492866879990e-02  8.0913095068443103e-02  8.1195064917103835e-02  8.1463809585634858e-02  8.1712818844120336e-02  8.1935762234193590e-02  8.2126646410725243e-02  8.2280036766263998e-02  8.2391341088658490e-02  8.2457143676926026e-02  8.2474099309595705e-02  7.8658026980068962e-02  7.8676020831900520e-02  7.8746416869249589e-02  7.8865712474220570e-02  7.9029939739843444e-02  7.9233845084904470e-02  7.9471346253860459e-02  7.9735893308877245e-02  8.0020731515533267e-02  8.0319062193568103e-02  8.0624113656515242e-02  8.0929147548911770e-02  8.1227431877926734e-02  8.1512213691847191e-02  8.1776724033388218e-02  8.2014245640517028e-02  8.2218267980353157e-02  8.2382742804713457e-02  8.2502442111756516e-02  8.2573395112325476e-02  8.2591724208050457e-02  7.8487691497798828e-02  7.8507587704184353e-02  7.8585456825707611e-02  7.8717118502922054e-02  7.8897678647162586e-02  7.9120832360401280e-02  7.9379511415660520e-02  7.9666367696696758e-02  7.9974085107113554e-02  8.0295527282516724e-02  8.0623753424874670e-02  8.0951946413549705e-02  8.1273298166826852e-02  8.1580894987193633e-02  8.1867644991753946e-02  8.2126290850403669e-02  8.2349549835295716e-02  8.2530413647476195e-02  8.2662623401058719e-02  8.2741284421374767e-02  8.2761664028442233e-02  7.8259188919487854e-02  7.8281809274872313e-02  7.8370322059281419e-02  7.8519424953926109e-02  7.8722720310031885e-02  7.8972259655588919e-02  7.9259508612056204e-02  7.9576010199873731e-02  7.9913744293618721e-02  8.0265227534704525e-02  8.0623428312756137e-02  8.0981571351306861e-02  8.1332892988005820e-02  8.1670397394523295e-02  8.1986662967435855e-02  8.2273756834227343e-02  8.2523327138367117e-02  8.2726944340317868e-02  8.2876744374162620e-02  8.2966337782893876e-02  8.2989630636127534e-02  7.7964272919314972e-02  7.7990724475439643e-02  7.8094130104520779e-02  7.8267321770259662e-02  7.8501444429174200e-02  7.8785997609211400e-02  7.9110322551041348e-02  7.9464501455772954e-02  7.9839721620971527e-02  8.0228248451758993e-02  8.0623163433019812e-02  8.1017984692102224e-02  8.1406243450721436e-02  8.1781063309072546e-02  8.2134788146712878e-02  8.2458727435662363e-02  8.2743127636140792e-02  8.2977514129651597e-02  8.3151547930686145e-02  8.3256408520910347e-02  8.3283788949224447e-02  7.7591302596836734e-02  7.7623180159157909e-02  7.7747557996324573e-02  7.7954066427862539e-02  7.8229735224477126e-02  7.8560084887924361e-02  7.8931449860319941e-02  7.9332110512733867e-02  7.9752511364328871e-02  8.0184944945165065e-02  8.0622995083977217e-02  8.1060902960986975e-02  8.1492921343567837e-02  8.1912674584458750e-02  8.2312541466331504e-02  8.2683122933254083e-02  8.3012944506448777e-02  8.3288663141505931e-02  8.3496124121700863e-02  8.3622468466505007e-02  8.3655643645220670e-02  7.7123654765202609e-02  7.7163419025141719e-02  7.7318077961076898e-02  7.7571473232569840e-02  7.7903499330027950e-02  7.8293457767476274e-02  7.8723601302108440e-02  7.9180247162824180e-02  7.9653453848343228e-02  8.0136119224766530e-02  8.0622971498137255e-02  8.1109622380658039e-02  8.1591687838453927e-02  8.2063917869336797e-02  8.2519278580797606e-02  8.2947995995111171e-02  8.3336723156281059e-02  8.3668259705563061e-02  8.3922588525201930e-02  8.4079947084405901e-02  8.4121569301781343e-02  7.6536818700200474e-02  7.6588555211742390e-02  7.6788849555619501e-02  7.7110261751120138e-02  7.7519819026671433e-02  7.7987253829228137e-02  7.8489791333251444e-02  7.9012227129448540e-02  7.9545196157018924e-02  8.0083230832944483e-02  8.0623149706982936e-02  8.1162805274627284e-02  8.1700038177813628e-02  8.2231641503856423e-02  8.2752145575221689e-02  8.3252290421042374e-02  8.3717249893292808e-02  8.4125101871473734e-02  8.4447007900654888e-02  8.4651081783869403e-02  8.4705568444322435e-02  7.5792652300822230e-02  7.5863759264654301e-02  7.6137327906869431e-02  7.6561515075782058e-02  7.7079423124236879e-02  7.7647041861570343e-02  7.8236904870838953e-02  7.8834214942791789e-02  7.9432186444788000e-02  8.0028596449835301e-02  8.0623583400127777e-02  8.1218258761333179e-02  8.1813696317520626e-02  8.2409926527446900e-02  8.3004573747320287e-02  8.3590741590938739e-02  8.4153825346368116e-02  8.4667467107023331e-02  8.5090408241321122e-02  8.5369241269738688e-02  8.5444596423705624e-02  7.4826552005851130e-02  7.4932322890728140e-02  7.5334590115751707e-02  7.5921303394321973e-02  7.6591727471115895e-02  7.7286339964589335e-02  7.7977655625862910e-02  7.8656145495874227e-02  7.9321037687014345e-02  7.9975492060145648e-02  8.0624295431073176e-02  8.1272778079932981e-02  8.1926202686755781e-02  8.2589141753752301e-02  8.3264369339374644e-02  8.3950567034480922e-02  8.4637684736909219e-02  8.5298792403255122e-02  8.5878805806305622e-02  8.6287151548688365e-02  8.6400148275091335e-02  7.3513445311552308e-02  7.3693909645191763e-02  7.4350990515089463e-02  7.5203719193151566e-02  7.6084262365513008e-02  7.6931359434638941e-02  7.7732411744776644e-02  7.8492200897748207e-02  7.9220539587235725e-02  7.9928102622777719e-02  8.0625308273656632e-02  8.1322251450624355e-02  8.2028943412936664e-02  8.2755513474675288e-02  8.3512015606563780e-02  8.4307084402434826e-02  8.5143634332982318e-02  8.6006998121254591e-02  8.6837152426503375e-02  8.7491724222809625e-02  8.7689575602581477e-02  7.1563476780270141e-02  7.1959262432051793e-02  7.3193067013431368e-02  7.4473360928191110e-02  7.5617339142399126e-02  7.6625528558440306e-02  7.7529935278868464e-02  7.8360659761695442e-02  7.9141623306191275e-02  7.9891873730491142e-02  8.0627427191330980e-02  8.1362857259551613e-02  8.2112676947773564e-02  8.2892675560920420e-02  8.3721323486844620e-02  8.4621097542772555e-02  8.5618589770773662e-02  8.6738756562159458e-02  8.7963365660928314e-02  8.9112742657400976e-02  8.9598474509512915e-02  6.7950967173455598e-02  6.9444087335014670e-02  7.2054245717075721e-02  7.3897515273340569e-02  7.5288101806070915e-02  7.6421518016963966e-02  7.7398707043939363e-02  7.8276679304130098e-02  7.9091522482925336e-02  7.9868708290375692e-02  8.0628269849828016e-02  8.1387904668364236e-02  8.2165314472153875e-02  8.2980539658470007e-02  8.3859025557922212e-02  8.4836601125591715e-02  8.5968816523577837e-02  8.7350401235117670e-02  8.9149864518143121e-02  9.1099083357622609e-02  9.3116943169942595e-02  5.3696692637934390e-02  6.7966780836894225e-02  7.1739383976896429e-02  7.3757025695700376e-02  7.5204459624844885e-02  7.6367828345818248e-02  7.7363563852586609e-02  7.8253852005263871e-02  7.9077546626395809e-02  7.9861762504047959e-02  8.0627604392722582e-02  8.1393614991281130e-02  8.2178371636256339e-02  8.3003102552297134e-02  8.3895216240474010e-02  8.4894260255683376e-02  8.6063922766234466e-02  8.7521132433674056e-02  8.9522518977245211e-02  9.2955052549040226e-02  1.0334808026560323e-01  </DataArray> 
</PointData> 
</Piece>
</UnstructuredGrid>
</VTKFile>