<?xml version="1.0"?>
<VTKFile type="UnstructuredGrid"  version="0.1"  >
<UnstructuredGrid>
<Piece  NumberOfPoints="651" NumberOfCells="1200">
<Points>
<DataArray  type="Float64"  NumberOfComponents="3"  format="ascii">0 0 0  50000 0 0  100000 0 0  150000 0 0  200000 0 0  250000 0 0  300000 0 0  350000 0 0  400000 0 0  450000 0 0  500000 0 0  550000 0 0  600000 0 0  650000 0 0  700000 0 0  750000 0 0  800000 0 0  850000 0 0  900000 0 0  950000 0 0  1000000 0 0  0 50000 0  50000 50000 0  100000 50000 0  150000 50000 0  200000 50000 0  250000 50000 0  300000 50000 0  350000 50000 0  400000 50000 0  450000 50000 0  500000 50000 0  550000 50000 0  600000 50000 0  650000 50000 0  700000 50000 0  750000 50000 0  800000 50000 0  850000 50000 0  900000 50000 0  950000 50000 0  1000000 50000 0  0 100000 0  50000 100000 0  100000 100000 0  150000 100000 0  200000 100000 0  250000 100000 0  300000 100000 0  350000 100000 0  400000 100000 0  450000 100000 0  500000 100000 0  550000 100000 0  600000 100000 0  650000 100000 0  700000 100000 0  750000 100000 0  800000 100000 0  850000 100000 0  900000 100000 0  950000 100000 0  1000000 100000 0  0 150000 0  50000 150000 0  100000 150000 0  150000 150000 0  200000 150000 0  250000 150000 0  300000 150000 0  350000 150000 0  400000 150000 0  450000 150000 0  500000 150000 0  550000 150000 0  600000 150000 0  650000 150000 0  700000 150000 0  750000 150000 0  800000 150000 0  850000 150000 0  900000 150000 0  950000 150000 0  1000000 150000 0  0 200000 0  50000 200000 0  100000 200000 0  150000 200000 0  200000 200000 0  250000 200000 0  300000 200000 0  350000 200000 0  400000 200000 0  450000 200000 0  500000 200000 0  550000 200000 0  600000 200000 0  650000 200000 0  700000 200000 0  750000 200000 0  800000 200000 0  850000 200000 0  900000 200000 0  950000 200000 0  1000000 200000 0  0 250000 0  50000 250000 0  100000 250000 0  150000 250000 0  200000 250000 0  250000 250000 0  300000 250000 0  350000 250000 0  400000 250000 0  450000 250000 0  500000 250000 0  550000 250000 0  600000 250000 0  650000 250000 0  700000 250000 0  750000 250000 0  800000 250000 0  850000 250000 0  900000 250000 0  950000 250000 0  1000000 250000 0  0 300000 0  50000 300000 0  100000 300000 0  150000 300000 0  200000 300000 0  250000 300000 0  300000 300000 0  350000 300000 0  400000 300000 0  450000 300000 0  500000 300000 0  550000 300000 0  600000 300000 0  650000 300000 0  700000 300000 0  750000 300000 0  800000 300000 0  850000 300000 0  900000 300000 0  950000 300000 0  1000000 300000 0  0 350000 0  50000 350000 0  100000 350000 0  150000 350000 0  200000 350000 0  250000 350000 0  300000 350000 0  350000 350000 0  400000 350000 0  450000 350000 0  500000 350000 0  550000 350000 0  600000 350000 0  650000 350000 0  700000 350000 0  750000 350000 0  800000 350000 0  850000 350000 0  900000 350000 0  950000 350000 0  1000000 350000 0  0 400000 0  50000 400000 0  100000 400000 0  150000 400000 0  200000 400000 0  250000 400000 0  300000 400000 0  350000 400000 0  400000 400000 0  450000 400000 0  500000 400000 0  550000 400000 0  600000 400000 0  650000 400000 0  700000 400000 0  750000 400000 0  800000 400000 0  850000 400000 0  900000 400000 0  950000 400000 0  1000000 400000 0  0 450000 0  50000 450000 0  100000 450000 0  150000 450000 0  200000 450000 0  250000 450000 0  300000 450000 0  350000 450000 0  400000 450000 0  450000 450000 0  500000 450000 0  550000 450000 0  600000 450000 0  650000 450000 0  700000 450000 0  750000 450000 0  800000 450000 0  850000 450000 0  900000 450000 0  950000 450000 0  1000000 450000 0  0 500000 0  50000 500000 0  100000 500000 0  150000 500000 0  200000 500000 0  250000 500000 0  300000 500000 0  350000 500000 0  400000 500000 0  450000 500000 0  500000 500000 0  550000 500000 0  600000 500000 0  650000 500000 0  700000 500000 0  750000 500000 0  800000 500000 0  850000 500000 0  900000 500000 0  950000 500000 0  1000000 500000 0  0 550000 0  50000 550000 0  100000 550000 0  150000 550000 0  200000 550000 0  250000 550000 0  300000 550000 0  350000 550000 0  400000 550000 0  450000 550000 0  500000 550000 0  550000 550000 0  600000 550000 0  650000 550000 0  700000 550000 0  750000 550000 0  800000 550000 0  850000 550000 0  900000 550000 0  950000 550000 0  1000000 550000 0  0 600000 0  50000 600000 0  100000 600000 0  150000 600000 0  200000 600000 0  250000 600000 0  300000 600000 0  350000 600000 0  400000 600000 0  450000 600000 0  500000 600000 0  550000 600000 0  600000 600000 0  650000 600000 0  700000 600000 0  750000 600000 0  800000 600000 0  850000 600000 0  900000 600000 0  950000 600000 0  1000000 600000 0  0 650000 0  50000 650000 0  100000 650000 0  150000 650000 0  200000 650000 0  250000 650000 0  300000 650000 0  350000 650000 0  400000 650000 0  450000 650000 0  500000 650000 0  550000 650000 0  600000 650000 0  650000 650000 0  700000 650000 0  750000 650000 0  800000 650000 0  850000 650000 0  900000 650000 0  950000 650000 0  1000000 650000 0  0 700000 0  50000 700000 0  100000 700000 0  150000 700000 0  200000 700000 0  250000 700000 0  300000 700000 0  350000 700000 0  400000 700000 0  450000 700000 0  500000 700000 0  550000 700000 0  600000 700000 0  650000 700000 0  700000 700000 0  750000 700000 0  800000 700000 0  850000 700000 0  900000 700000 0  950000 700000 0  1000000 700000 0  0 750000 0  50000 750000 0  100000 750000 0  150000 750000 0  200000 750000 0  250000 750000 0  300000 750000 0  350000 750000 0  400000 750000 0  450000 750000 0  500000 750000 0  550000 750000 0  600000 750000 0  650000 750000 0  700000 750000 0  750000 750000 0  800000 750000 0  850000 750000 0  900000 750000 0  950000 750000 0  1000000 750000 0  0 800000 0  50000 800000 0  100000 800000 0  150000 800000 0  200000 800000 0  250000 800000 0  300000 800000 0  350000 800000 0  400000 800000 0  450000 800000 0  500000 800000 0  550000 800000 0  600000 800000 0  650000 800000 0  700000 800000 0  750000 800000 0  800000 800000 0  850000 800000 0  900000 800000 0  950000 800000 0  1000000 800000 0  0 850000 0  50000 850000 0  100000 850000 0  150000 850000 0  200000 850000 0  250000 850000 0  300000 850000 0  350000 850000 0  400000 850000 0  450000 850000 0  500000 850000 0  550000 850000 0  600000 850000 0  650000 850000 0  700000 850000 0  750000 850000 0  800000 850000 0  850000 850000 0  900000 850000 0  950000 850000 0  1000000 850000 0  0 900000 0  50000 900000 0  100000 900000 0  150000 900000 0  200000 900000 0  250000 900000 0  300000 900000 0  350000 900000 0  400000 900000 0  450000 900000 0  500000 900000 0  550000 900000 0  600000 900000 0  650000 900000 0  700000 900000 0  750000 900000 0  800000 900000 0  850000 900000 0  900000 900000 0  950000 900000 0  1000000 900000 0  0 950000 0  50000 950000 0  100000 950000 0  150000 950000 0  200000 950000 0  250000 950000 0  300000 950000 0  350000 950000 0  400000 950000 0  450000 950000 0  500000 950000 0  550000 950000 0  600000 950000 0  650000 950000 0  700000 950000 0  750000 950000 0  800000 950000 0  850000 950000 0  900000 950000 0  950000 950000 0  1000000 950000 0  0 1000000 0  50000 1000000 0  100000 1000000 0  150000 1000000 0  200000 1000000 0  250000 1000000 0  300000 1000000 0  350000 1000000 0  400000 1000000 0  450000 1000000 0  500000 1000000 0  550000 1000000 0  600000 1000000 0  650000 1000000 0  700000 1000000 0  750000 1000000 0  800000 1000000 0  850000 1000000 0  900000 1000000 0  950000 1000000 0  1000000 1000000 0  0 1050000 0  50000 1050000 0  100000 1050000 0  150000 1050000 0  200000 1050000 0  250000 1050000 0  300000 1050000 0  350000 1050000 0  400000 1050000 0  450000 1050000 0  500000 1050000 0  550000 1050000 0  600000 1050000 0  650000 1050000 0  700000 1050000 0  750000 1050000 0  800000 1050000 0  850000 1050000 0  900000 1050000 0  950000 1050000 0  1000000 1050000 0  0 1100000 0  50000 1100000 0  100000 1100000 0  150000 1100000 0  200000 1100000 0  250000 1100000 0  300000 1100000 0  350000 1100000 0  400000 1100000 0  450000 1100000 0  500000 1100000 0  550000 1100000 0  600000 1100000 0  650000 1100000 0  700000 1100000 0  750000 1100000 0  800000 1100000 0  850000 1100000 0  900000 1100000 0  950000 1100000 0  1000000 1100000 0  0 1150000 0  50000 1150000 0  100000 1150000 0  150000 1150000 0  200000 1150000 0  250000 1150000 0  300000 1150000 0  350000 1150000 0  400000 1150000 0  450000 1150000 0  500000 1150000 0  550000 1150000 0  600000 1150000 0  650000 1150000 0  700000 1150000 0  750000 1150000 0  800000 1150000 0  850000 1150000 0  900000 1150000 0  950000 1150000 0  1000000 1150000 0  0 1200000 0  50000 1200000 0  100000 1200000 0  150000 1200000 0  200000 1200000 0  250000 1200000 0  300000 1200000 0  350000 1200000 0  400000 1200000 0  450000 1200000 0  500000 1200000 0  550000 1200000 0  600000 1200000 0  650000 1200000 0  700000 1200000 0  750000 1200000 0  800000 1200000 0  850000 1200000 0  900000 1200000 0  950000 1200000 0  1000000 1200000 0  0 1250000 0  50000 1250000 0  100000 1250000 0  150000 1250000 0  200000 1250000 0  250000 1250000 0  300000 1250000 0  350000 1250000 0  400000 1250000 0  450000 1250000 0  500000 1250000 0  550000 1250000 0  600000 1250000 0  650000 1250000 0  700000 1250000 0  750000 1250000 0  800000 1250000 0  850000 1250000 0  900000 1250000 0  950000 1250000 0  1000000 1250000 0  0 1300000 0  50000 1300000 0  100000 1300000 0  150000 1300000 0  200000 1300000 0  250000 1300000 0  300000 1300000 0  350000 1300000 0  400000 1300000 0  450000 1300000 0  500000 1300000 0  550000 1300000 0  600000 1300000 0  650000 1300000 0  700000 1300000 0  750000 1300000 0  800000 1300000 0  850000 1300000 0  900000 1300000 0  950000 1300000 0  1000000 1300000 0  0 1350000 0  50000 1350000 0  100000 1350000 0  150000 1350000 0  200000 1350000 0  250000 1350000 0  300000 1350000 0  350000 1350000 0  400000 1350000 0  450000 1350000 0  500000 1350000 0  550000 1350000 0  600000 1350000 0  650000 1350000 0  700000 135
[...]
<PointData  Scalars="f_4507"> 
<DataArray  type="Float64"  Name="f_4507"  format="ascii">-1.3050342576214077e-01  -1.6345857303575562e-02  -9.8272509950066058e-03  -8.8035018472736298e-04  5.1175164884591159e-03  9.7138895987249861e-03  1.3601314990774376e-02  1.7036826498602251e-02  2.0193380051871757e-02  2.3186022513927894e-02  2.6102371830315583e-02  2.9018588948452422e-02  3.2010789568812655e-02  3.5166369388809286e-02  3.8600468333434508e-02  4.2483666974647359e-02  4.7063427868951541e-02  5.3209062842317877e-02  6.1088632746834563e-02  6.9452362506982571e-02  2.6814993925179531e-01  -2.8626905931846591e-02  -1.6975289739225609e-02  -1.0793950187425181e-02  -4.6276936612375124e-04  5.1061259442007840e-03  9.7259987543793329e-03  1.3606933609731116e-02  1.7039878195162488e-02  2.0196065742258348e-02  2.3188970899271178e-02  2.6106103191142590e-02  2.9023598590385891e-02  3.2017699322500662e-02  3.5176251261832520e-02  3.8614596605423282e-02  4.2501505914922931e-02  4.7131693662885152e-02  5.3020416284325328e-02  6.1071648487610326e-02  7.9239180253772939e-02  8.1893078067426392e-02  -9.5922515547950896e-03  -1.0117306836060453e-02  -3.9655785604188355e-03  1.8523022690888034e-03  6.2591869106636312e-03  1.0441915557544574e-02  1.4043495694095489e-02  1.7314643986240535e-02  2.0359830439981162e-02  2.3268107774655964e-02  2.6112179591442422e-02  2.8957407319972560e-02  3.1869533598537780e-02  3.4922432048926214e-02  3.8207701947409772e-02  4.1848718916997298e-02  4.6017788378692706e-02  5.0931590149351884e-02  5.6964224125372873e-02  6.1874619104844188e-02  6.0295419551642138e-02  -1.6230108104438913e-03  -1.4434935234318761e-03  1.3272468873425324e-03  4.5665416228816971e-03  8.1769641965338691e-03  1.1637479912229912e-02  1.4813121105327254e-02  1.7810089901302017e-02  2.0657185092479727e-02  2.3409722597809778e-02  2.6116505488413464e-02  2.8824855740873623e-02  3.1582496803817466e-02  3.4439988952789505e-02  3.7452221837562027e-02  4.0675761726822871e-02  4.4151183474317034e-02  4.7845580303338145e-02  5.1374627169432946e-02  5.3670521440788002e-02  5.3990657614396392e-02  3.9012554180318827e-03  3.9357481319105322e-03  5.3378989400525234e-03  7.6130802688146714e-03  1.0310477899240347e-02  1.3056972063516756e-02  1.5785967265282908e-02  1.8452722528892303e-02  2.1049381807298321e-02  2.3597156281334762e-02  2.6119676974346834e-02  2.8643860164128936e-02  3.1196810197546165e-02  3.3803934973918079e-02  3.6484622317453599e-02  3.9241467068613908e-02  4.2034986343851048e-02  4.4725441074552785e-02  4.6991778622683056e-02  4.8324655087008436e-02  4.8261270219150255e-02  7.8096232921625233e-03  7.8166390522396885e-03  8.7254881473581083e-03  1.0313631722217982e-02  1.2311391815652599e-02  1.4524234312065586e-02  1.6833442245732879e-02  1.9164404725282903e-02  2.1492126087367273e-02  2.3810012395164240e-02  2.6121185183779618e-02  2.8433820466797714e-02  3.0756065613954157e-02  3.3091867069393321e-02  3.5434510248949391e-02  3.7755548568284378e-02  3.9986027200487870e-02  4.1990760158919026e-02  4.3553496364350061e-02  4.4403771202071819e-02  4.4380094259293824e-02  1.0779420969834230e-02  1.0781744150448238e-02  1.1415480143890131e-02  1.2575957901336010e-02  1.4121621624124269e-02  1.5917560766167543e-02  1.7859946134887107e-02  1.9882586608098465e-02  2.1946810544987233e-02  2.4030181298055280e-02  2.6121325266459279e-02  2.8213566692287854e-02  3.0300160539318537e-02  3.2369581083003904e-02  3.4399508805058772e-02  3.6348757743283611e-02  3.8147356595375055e-02  3.9688456406205309e-02  4.0832719047454898e-02  4.1434413144759714e-02  4.1417639825968293e-02  1.3097922772139588e-02  1.3097050014495713e-02  1.3570323075015676e-02  1.4463164665850204e-02  1.5691919322590665e-02  1.7166353581128297e-02  1.8809591580751104e-02  2.0562859898797081e-02  2.2383837572226922e-02  2.4243280356408901e-02  2.6120380812958654e-02  2.7998187737831304e-02  2.9859688861287866e-02  3.1683690516304049e-02  3.3440304584045365e-02  3.5086084489502810e-02  3.6559847641401549e-02  3.7781951556171971e-02  3.8662014580892787e-02  3.9115019498916610e-02  3.9101921363227758e-02  1.4931610454972204e-02  1.4929556672917257e-02  1.5300887214317094e-02  1.6014164199025724e-02  1.7017275121457998e-02  1.8249374375740961e-02  1.9652688833194161e-02  2.1177468567072404e-02  2.2783625578308774e-02  2.4439388364905262e-02  2.6118710667980785e-02  2.7798425548302093e-02  2.9455279533449598e-02  3.1062905428079886e-02  3.2588868377083843e-02  3.3992122878381818e-02  3.5221805555761411e-02  3.6218891172564709e-02  3.6922721215315715e-02  3.7280338568786389e-02  3.7270215513109571e-02  1.6385676604871266e-02  1.6383086401554666e-02  1.6685781996558666e-02  1.7274405407056697e-02  1.8114400480509284e-02  1.9162895376484048e-02  2.0375842998413985e-02  2.1711972959785053e-02  2.3134770920818042e-02  2.4612405013038925e-02  2.6116613412287281e-02  2.7620997804449772e-02  2.9099070856373851e-02  3.0522306159471355e-02  3.1858418442470240e-02  3.3070255113750148e-02  3.4115912792893006e-02  3.4950800204657469e-02  3.5532390948130786e-02  3.5825516893601431e-02  3.5817336613409571e-02  1.7530194023966848e-02  1.7527340560149374e-02  1.7782245835540212e-02  1.8282218610372682e-02  1.9002841754086796e-02  1.9912478729694792e-02  2.0976604195426522e-02  2.2160622485397952e-02  2.3431674239860631e-02  2.4759140241800259e-02  2.6114313861839426e-02  2.7469528506005134e-02  2.8797051525818740e-02  3.0067981758409853e-02  3.1251397468312375e-02  3.2314062175058583e-02  3.3221046761464264e-02  3.3937571858601030e-02  3.4432315918562460e-02  3.4680410175880069e-02  3.4673607938997993e-02  1.8413732514605128e-02  1.8410724342598071e-02  1.8631866070151760e-02  1.9068344919992146e-02  1.9701789727102365e-02  2.0507635910994196e-02  2.1457790735552085e-02  2.2522625819557444e-02  2.3672477441665393e-02  2.4878335550905333e-02  2.6111953495226062e-02  2.7345542112198147e-02  2.8551268333536037e-02  2.9700758191523215e-02  3.0764811799761961e-02  3.1713546697622531e-02  3.2517165764740945e-02  3.3147461437003409e-02  3.3580116117323720e-02  3.3796421498595845e-02  3.3790624848007322e-02  1.9070451360619477e-02  1.9067314922978026e-02  1.9264841343894723e-02  1.9656561604376715e-02  2.0227747120268980e-02  2.0958275115216290e-02  2.1824306418772726e-02  2.2799734137745914e-02  2.3857404977278167e-02  2.4969845646729587e-02  2.6109608045290902e-02  2.7249316615890615e-02  2.8361568326896042e-02  2.9418837244934222e-02  3.0393538496257911e-02  3.1258397003179700e-02  3.1987223167511819e-02  3.2556127650489292e-02  3.2945165573668445e-02  3.3139366673553369e-02  3.3134320327596979e-02  1.9524110467273023e-02  1.9520829527092366e-02  1.9702618371190538e-02  2.0064451597607270e-02  2.0593740414646899e-02  2.1273064787605888e-02  2.2081263748801681e-02  2.2994558067688214e-02  2.3987571372664569e-02  2.5034045830966106e-02  2.6107307166429283e-02  2.7180519091426950e-02  2.8226829756273383e-02  2.9219521418417712e-02  3.0132275724132844e-02  3.0939652998688744e-02  3.1617836075602632e-02  3.2145643514008691e-02  3.2505769418316829e-02  3.2685468510592133e-02  3.2680990362332220e-02  1.9790399124937113e-02  1.9786931500607879e-02  1.9959542579998234e-02  2.0304081598176076e-02  2.0809074542693793e-02  2.1458565765216344e-02  2.2232868839189172e-02  2.3109526011464168e-02  2.4064211825469386e-02  2.5071433174015514e-02  2.6105050377791407e-02  2.7138639145906539e-02  2.8145768248495084e-02  2.9100278773741550e-02  2.9976651310704053e-02  3.0750533647828291e-02  3.1399453573877391e-02  3.1903717661543173e-02  3.2247425889052481e-02  3.2419027283615356e-02  3.2414982047988615e-02  1.9878274436378119e-02  1.9874558393690622e-02  2.0043853293808069e-02  2.0382481472648796e-02  2.0879291804568188e-02  2.1518809076810950e-02  2.2281815951682320e-02  2.3146279305713259e-02  2.4088213811663511e-02  2.5082379218370428e-02  2.6102819608682166e-02  2.7123259998993843e-02  2.8117425405700842e-02  2.9059359911651161e-02  2.9923823265682093e-02  3.0686830140553567e-02  3.1326347412796399e-02  3.1823157744715842e-02  3.2161785923556598e-02  3.2331080823674030e-02  3.2327364780986544e-02  1.9790657169376169e-02  1.9786611933749382e-02  1.9958213328312272e-02  2.0301921555821504e-02  2.0806185643487272e-02  2.1455105569536257e-02  2.2228987906660461e-02  2.3105360443622918e-02  2.4059870968869232e-02  2.5067000071457769e-02  2.6100588839572912e-02  2.7134206043348805e-02  2.8141427391894951e-02  2.9096113205900165e-02  2.9972770378175192e-02  3.0747073452148086e-02  3.1396564674670752e-02  3.1901557619188475e-02  3.2246096637366391e-02  3.2418707716756701e-02  3.2415240092427543e-02  1.9524648855032516e-02  1.9520170706772706e-02  1.9699869799047989e-02  2.0059995703356079e-02  2.0587803141762059e-02  2.1265986218675880e-02  2.2073363493231687e-02  2.2986117798946732e-02  2.3978809461090982e-02  2.5025120125937404e-02  2.6098332050935012e-02  2.7171593386398171e-02  2.8218067844699712e-02  2.9211081149676105e-02  3.0124375468562704e-02  3.0932574429758556e-02  3.1611898802717614e-02  3.2141187619757226e-02  3.2503020846174069e-02  3.2684809690272251e-02  3.2681528750091580e-02  1.9071318889768051e-02  1.9066272543811609e-02  1.9260473643696530e-02  1.9649511566875579e-02  2.0218416049853017e-02  2.0947242214184977e-02  2.1812100721106693e-02  2.2786801972430257e-02  2.3844070890468371e-02  2.4956322601473707e-02  2.6096031172073406e-02  2.7235793570634697e-02  2.8348234240086125e-02  2.9405905079618343e-02  3.0381332798591641e-02  3.1247364102148081e-02  3.1977892097095471e-02  3.2549077612987844e-02  3.2940797873469825e-02  3.3138324294386540e-02  3.3135187856745109e-02  1.8415014369357802e-02  1.8409217718769261e-02  1.8625523100041397e-02  1.9058177780361611e-02  1.9688473452623961e-02  2.0492092519742214e-02  2.1440827417602715e-02  2.2504881025841288e-02  2.3654370883828362e-02  2.4860097105166176e-02  2.6093685722138209e-02  2.7327303666458913e-02  2.8533161775698847e-02  2.9683013397806771e-02  3.0747848481812178e-02  3.1698003306370112e-02  3.2503849490262117e-02  3.3137294297372354e-02  3.3573773147212792e-02  3.3794914874766512e-02  3.3791906702759431e-02  1.7532031278367350e-02  1.7525229041485277e-02  1.7773323298802855e-02  1.8268067358764108e-02  1.8984592455900794e-02  1.9891577042306274e-02  2.0954241749052350e-02  2.2137657458954699e-02  2.3408587691545697e-02  2.4736110711359154e-02  2.6091325355524799e-02  2.7446498975563921e-02  2.8773964977503536e-02  3.0045016731966252e-02  3.1229035021937763e-02  3.2293160487669573e-02  3.3202797463277672e-02  3.3923420606991828e-02  3.4423393381824374e-02  3.4678298657215230e-02  3.4675445193397790e-02  1.6388302603956073e-02  1.6380122323764155e-02  1.6673248269234726e-02  1.7254839012707929e-02  1.8089726424472190e-02  1.9135384103614799e-02  2.0347220774894519e-02  2.1683333057893158e-02  2.3106568360990544e-02  2.4584641412914533e-02  2.6089025805076896e-02  2.7593234204325211e-02  2.9070868296546065e-02  3.0493666257579100e-02  3.1829796218950261e-02  3.3042743840880254e-02  3.4091238736855135e-02  3.4931233810307855e-02  3.5519857220805966e-02  3.5822552815810003e-02  3.5819962612493414e-02  1.4935423704256292e-02  1.4925300648579444e-02  1.5282918002050078e-02  1.5986748044800863e-02  1.6983833661603890e-02  1.8213516338983254e-02  1.9616770840280909e-02  2.1142733789284690e-02  2.2750359683914794e-02  2.4407213669062112e-02  2.6086928549383302e-02  2.7766250852458801e-02  2.9422013639055285e-02  3.1028170650291658e-02  3.2552950384170005e-02  3.3956264841623320e-02  3.5188364095906421e-02  3.6191475018338866e-02  3.6904752003047575e-02  3.7276082544447496e-02  3.7274028762392594e-02  1.3103717854138427e-02  1.3090619718449631e-02  1.3543624636473277e-02  1.4423687661193792e-02  1.5645791575963876e-02  1.7119554727862283e-02  1.8765334633319371e-02  2.0521948701060427e-02  2.2345950356076366e-02  2.4207451479532783e-02  2.6085258404405304e-02  2.7962358860955005e-02  2.9821801645137008e-02  3.1642779318566884e-02  3.3396047636612934e-02  3.5039285636235866e-02  3.6513719894773734e-02  3.7742474551514443e-02  3.8635316142349156e-02  3.9108589202869248e-02  3.9107716445225371e-02  1.0787999391398359e-02  1.0771226072606910e-02  1.1372920169911510e-02  1.2517182811160701e-02  1.4058282621990457e-02  1.5856881474081486e-02  1.7806130412305898e-02  1.9836058134360457e-02  2.1905478678045608e-02  2.3992072525076090e-02  2.6084313950904527e-02  2.8175457919308453e-02  3.0258828672376479e-02  3.2323052609265254e-02  3.4345693082476765e-02  3.6288078451196505e-02  3.8084017593240101e-02  3.9629681316028675e-02  4.0790159073474920e-02  4.1423895066916981e-02  4.1426218247531038e-02  7.8255449580734403e-03  7.8018680152953960e-03  8.6521428530168271e-03  1.0214879058447209e-02  1.2219612016877660e-02  1.4450090649080542e-02  1.6771128968415042e-02  1.9113772147970869e-02  2.1449573603409794e-02  2.3771818750566016e-02  2.6084454033583990e-02  2.8395626822199260e-02  3.0713513129996255e-02  3.3041234492080580e-02  3.5372196971630680e-02  3.7681404905298227e-02  3.9894247401711561e-02  4.1892007495146724e-02  4.3480151070007168e-02  4.4389000165125959e-02  4.4396015925203078e-02  3.9443689982177170e-03  3.8809841303595553e-03  5.2138605946843008e-03  7.4801981428134377e-03  1.0170652873514253e-02  1.2964172148750624e-02  1.5721016899910560e-02  1.8401704243445796e-02  2.1008829019817470e-02  2.3561779053234529e-02  2.6085962243016521e-02  2.8608482936028499e-02  3.1156257410064871e-02  3.3752916688470802e-02  3.6419671952080256e-02  3.9148667153846656e-02  4.1895161318123424e-02  4.4592558948550000e-02  4.6867740277313059e-02  4.8269891085455659e-02  4.8304383799334383e-02  -1.7850183970270876e-03  -1.4648822234189019e-03  8.3101204793479926e-04  4.3600589140276348e-03  8.0544557430475092e-03  1.1529877490541069e-02  1.4753417379801558e-02  1.7765650264573968e-02  2.0623142413545872e-02  2.3380783476489610e-02  2.6089133728949623e-02  2.8795916619553222e-02  3.1548454124883114e-02  3.4395549316060668e-02  3.7392518112035408e-02  4.0568159305132703e-02  4.4028675020829217e-02  4.7639097594482024e-02  5.0878392330022344e-02  5.3649132740799174e-02  5.3828650027811467e-02  -8.0897803342741686e-03  -9.6689798874726503e-03  -4.7585849080063018e-03  1.2740490680118639e-03  6.1878508386702625e-03  1.0356920300365531e-02  1.3997937269953162e-02  1.7283207168436811e-02  2.0336105618825210e-02  2.3248231897390392e-02  2.6093459625920461e-02  2.8937531442706742e-02  3.1845808777381364e-02  3.4890995231121685e-02  3.8162143523266426e-02  4.1763723659817030e-02  4.5946452306697798e-02  5.0353336948272945e-02  5.6171217777784194e-02  6.2322946053430965e-02  6.1797890772163105e-02  -2.9687438850019395e-02  -2.7033541036405210e-02  -8.8660092702499624e-03  -8.1477706696512944e-04  5.0739455544760552e-03  9.7041333024390723e-03  1.3591042611939247e-02  1.7029387955530304e-02  2.0187939894862308e-02  2.3182040626977114e-02  2.6099536026220324e-02  2.9016668318091569e-02  3.2009573475104101e-02  3.5165761022199545e-02  3.8598705607630346e-02  4.2479640462981312e-02  4.7099513273158693e-02  5.2668408583482582e-02  6.2999589404781328e-02  6.9180928956582580e-02  8.0832545149225679e-02  -2.1594430003433751e-01  -1.7246723289605546e-02  -8.8829935294742809e-03  -1.0034236249569447e-03  5.1422113484101426e-03  9.7219722427149078e-03  1.3605170883928451e-02  1.7039269828553767e-02  2.0194849648550717e-02  2.3187050268910887e-02  2.6103267387047716e-02  2.9019616703435093e-02  3.2012259165491067e-02  3.5168812718760108e-02  3.8604324226587432e-02  4.2491749618635971e-02  4.7088122728900873e-02  5.3085989402086330e-02  6.2032890212362947e-02  6.8551496520942501e-02  1.8270906497959646e-01  </DataArray> 
</PointData> 
</Piece>
</UnstructuredGrid>
</VTKFile>