<?xml version="1.0"?>
<VTKFile type="UnstructuredGrid"  version="0.1"  >
<UnstructuredGrid>
<Piece  NumberOfPoints="651" NumberOfCells="1200">
<Points>
<DataArray  type="Float64"  NumberOfComponents="3"  format="ascii">0 0 0  50000 0 0  100000 0 0  150000 0 0  200000 0 0  250000 0 0  300000 0 0  350000 0 0  400000 0 0  450000 0 0  500000 0 0  550000 0 0  600000 0 0  650000 0 0  700000 0 0  750000 0 0  800000 0 0  850000 0 0  900000 0 0  950000 0 0  1000000 0 0  0 50000 0  50000 50000 0  100000 50000 0  150000 50000 0  200000 50000 0  250000 50000 0  300000 50000 0  350000 50000 0  400000 50000 0  450000 50000 0  500000 50000 0  550000 50000 0  600000 50000 0  650000 50000 0  700000 50000 0  750000 50000 0  800000 50000 0  850000 50000 0  900000 50000 0  950000 50000 0  1000000 50000 0  0 100000 0  50000 100000 0  100000 100000 0  150000 100000 0  200000 100000 0  250000 100000 0  300000 100000 0  350000 100000 0  400000 100000 0  450000 100000 0  500000 100000 0  550000 100000 0  600000 100000 0  650000 100000 0  700000 100000 0  750000 100000 0  800000 100000 0  850000 100000 0  900000 100000 0  950000 100000 0  1000000 100000 0  0 150000 0  50000 150000 0  100000 150000 0  150000 150000 0  200000 150000 0  250000 150000 0  300000 150000 0  350000 150000 0  400000 150000 0  450000 150000 0  500000 150000 0  550000 150000 0  600000 150000 0  650000 150000 0  700000 150000 0  750000 150000 0  800000 150000 0  850000 150000 0  900000 150000 0  950000 150000 0  1000000 150000 0  0 200000 0  50000 200000 0  100000 200000 0  150000 200000 0  200000 200000 0  250000 200000 0  300000 200000 0  350000 200000 0  400000 200000 0  450000 200000 0  500000 200000 0  550000 200000 0  600000 200000 0  650000 200000 0  700000 200000 0  750000 200000 0  800000 200000 0  850000 200000 0  900000 200000 0  950000 200000 0  1000000 200000 0  0 250000 0  50000 250000 0  100000 250000 0  150000 250000 0  200000 250000 0  250000 250000 0  300000 250000 0  350000 250000 0  400000 250000 0  450000 250000 0  500000 250000 0  550000 250000 0  600000 250000 0  650000 250000 0  700000 250000 0  750000 250000 0  800000 250000 0  850000 250000 0  900000 250000 0  950000 250000 0  1000000 250000 0  0 300000 0  50000 300000 0  100000 300000 0  150000 300000 0  200000 300000 0  250000 300000 0  300000 300000 0  350000 300000 0  400000 300000 0  450000 300000 0  500000 300000 0  550000 300000 0  600000 300000 0  650000 300000 0  700000 300000 0  750000 300000 0  800000 300000 0  850000 300000 0  900000 300000 0  950000 300000 0  1000000 300000 0  0 350000 0  50000 350000 0  100000 350000 0  150000 350000 0  200000 350000 0  250000 350000 0  300000 350000 0  350000 350000 0  400000 350000 0  450000 350000 0  500000 350000 0  550000 350000 0  600000 350000 0  650000 350000 0  700000 350000 0  750000 350000 0  800000 350000 0  850000 350000 0  900000 350000 0  950000 350000 0  1000000 350000 0  0 400000 0  50000 400000 0  100000 400000 0  150000 400000 0  200000 400000 0  250000 400000 0  300000 400000 0  350000 400000 0  400000 400000 0  450000 400000 0  500000 400000 0  550000 400000 0  600000 400000 0  650000 400000 0  700000 400000 0  750000 400000 0  800000 400000 0  850000 400000 0  900000 400000 0  950000 400000 0  1000000 400000 0  0 450000 0  50000 450000 0  100000 450000 0  150000 450000 0  200000 450000 0  250000 450000 0  300000 450000 0  350000 450000 0  400000 450000 0  450000 450000 0  500000 450000 0  550000 450000 0  600000 450000 0  650000 450000 0  700000 450000 0  750000 450000 0  800000 450000 0  850000 450000 0  900000 450000 0  950000 450000 0  1000000 450000 0  0 500000 0  50000 500000 0  100000 500000 0  150000 500000 0  200000 500000 0  250000 500000 0  300000 500000 0  350000 500000 0  400000 500000 0  450000 500000 0  500000 500000 0  550000 500000 0  600000 500000 0  650000 500000 0  700000 500000 0  750000 500000 0  800000 500000 0  850000 500000 0  900000 500000 0  950000 500000 0  1000000 500000 0  0 550000 0  50000 550000 0  100000 550000 0  150000 550000 0  200000 550000 0  250000 550000 0  300000 550000 0  350000 550000 0  400000 550000 0  450000 550000 0  500000 550000 0  550000 550000 0  600000 550000 0  650000 550000 0  700000 550000 0  750000 550000 0  800000 550000 0  850000 550000 0  900000 550000 0  950000 550000 0  1000000 550000 0  0 600000 0  50000 600000 0  100000 600000 0  150000 600000 0  200000 600000 0  250000 600000 0  300000 600000 0  350000 600000 0  400000 600000 0  450000 600000 0  500000 600000 0  550000 600000 0  600000 600000 0  650000 600000 0  700000 600000 0  750000 600000 0  800000 600000 0  850000 600000 0  900000 600000 0  950000 600000 0  1000000 600000 0  0 650000 0  50000 650000 0  100000 650000 0  150000 650000 0  200000 650000 0  250000 650000 0  300000 650000 0  350000 650000 0  400000 650000 0  450000 650000 0  500000 650000 0  550000 650000 0  600000 650000 0  650000 650000 0  700000 650000 0  750000 650000 0  800000 650000 0  850000 650000 0  900000 650000 0  950000 650000 0  1000000 650000 0  0 700000 0  50000 700000 0  100000 700000 0  150000 700000 0  200000 700000 0  250000 700000 0  300000 700000 0  350000 700000 0  400000 700000 0  450000 700000 0  500000 700000 0  550000 700000 0  600000 700000 0  650000 700000 0  700000 700000 0  750000 700000 0  800000 700000 0  850000 700000 0  900000 700000 0  950000 700000 0  1000000 700000 0  0 750000 0  50000 750000 0  100000 750000 0  150000 750000 0  200000 750000 0  250000 750000 0  300000 750000 0  350000 750000 0  400000 750000 0  450000 750000 0  500000 750000 0  550000 750000 0  600000 750000 0  650000 750000 0  700000 750000 0  750000 750000 0  800000 750000 0  850000 750000 0  900000 750000 0  950000 750000 0  1000000 750000 0  0 800000 0  50000 800000 0  100000 800000 0  150000 800000 0  200000 800000 0  250000 800000 0  300000 800000 0  350000 800000 0  400000 800000 0  450000 800000 0  500000 800000 0  550000 800000 0  600000 800000 0  650000 800000 0  700000 800000 0  750000 800000 0  800000 800000 0  850000 800000 0  900000 800000 0  950000 800000 0  1000000 800000 0  0 850000 0  50000 850000 0  100000 850000 0  150000 850000 0  200000 850000 0  250000 850000 0  300000 850000 0  350000 850000 0  400000 850000 0  450000 850000 0  500000 850000 0  550000 850000 0  600000 850000 0  650000 850000 0  700000 850000 0  750000 850000 0  800000 850000 0  850000 850000 0  900000 850000 0  950000 850000 0  1000000 850000 0  0 900000 0  50000 900000 0  100000 900000 0  150000 900000 0  200000 900000 0  250000 900000 0  300000 900000 0  350000 900000 0  400000 900000 0  450000 900000 0  500000 900000 0  550000 900000 0  600000 900000 0  650000 900000 0  700000 900000 0  750000 900000 0  800000 900000 0  850000 900000 0  900000 900000 0  950000 900000 0  1000000 900000 0  0 950000 0  50000 950000 0  100000 950000 0  150000 950000 0  200000 950000 0  250000 950000 0  300000 950000 0  350000 950000 0  400000 950000 0  450000 950000 0  500000 950000 0  550000 950000 0  600000 950000 0  650000 950000 0  700000 950000 0  750000 950000 0  800000 950000 0  850000 950000 0  900000 950000 0  950000 950000 0  1000000 950000 0  0 1000000 0  50000 1000000 0  100000 1000000 0  150000 1000000 0  200000 1000000 0  250000 1000000 0  300000 1000000 0  350000 1000000 0  400000 1000000 0  450000 1000000 0  500000 1000000 0  550000 1000000 0  600000 1000000 0  650000 1000000 0  700000 1000000 0  750000 1000000 0  800000 1000000 0  850000 1000000 0  900000 1000000 0  950000 1000000 0  1000000 1000000 0  0 1050000 0  50000 1050000 0  100000 1050000 0  150000 1050000 0  200000 1050000 0  250000 1050000 0  300000 1050000 0  350000 1050000 0  400000 1050000 0  450000 1050000 0  500000 1050000 0  550000 1050000 0  600000 1050000 0  650000 1050000 0  700000 1050000 0  750000 1050000 0  800000 1050000 0  850000 1050000 0  900000 1050000 0  950000 1050000 0  1000000 1050000 0  0 1100000 0  50000 1100000 0  100000 1100000 0  150000 1100000 0  200000 1100000 0  250000 1100000 0  300000 1100000 0  350000 1100000 0  400000 1100000 0  450000 1100000 0  500000 1100000 0  550000 1100000 0  600000 1100000 0  650000 1100000 0  700000 1100000 0  750000 1100000 0  800000 1100000 0  850000 1100000 0  900000 1100000 0  950000 1100000 0  1000000 1100000 0  0 1150000 0  50000 1150000 0  100000 1150000 0  150000 1150000 0  200000 1150000 0  250000 1150000 0  300000 1150000 0  350000 1150000 0  400000 1150000 0  450000 1150000 0  500000 1150000 0  550000 1150000 0  600000 1150000 0  650000 1150000 0  700000 1150000 0  750000 1150000 0  800000 1150000 0  850000 1150000 0  900000 1150000 0  950000 1150000 0  1000000 1150000 0  0 1200000 0  50000 1200000 0  100000 1200000 0  150000 1200000 0  200000 1200000 0  250000 1200000 0  300000 1200000 0  350000 1200000 0  400000 1200000 0  450000 1200000 0  500000 1200000 0  550000 1200000 0  600000 1200000 0  650000 1200000 0  700000 1200000 0  750000 1200000 0  800000 1200000 0  850000 1200000 0  900000 1200000 0  950000 1200000 0  1000000 1200000 0  0 1250000 0  50000 1250000 0  100000 1250000 0  150000 1250000 0  200000 1250000 0  250000 1250000 0  300000 1250000 0  350000 1250000 0  400000 1250000 0  450000 1250000 0  500000 1250000 0  550000 1250000 0  600000 1250000 0  650000 1250000 0  700000 1250000 0  750000 1250000 0  800000 1250000 0  850000 1250000 0  900000 1250000 0  950000 1250000 0  1000000 1250000 0  0 1300000 0  50000 1300000 0  100000 1300000 0  150000 1300000 0  200000 1300000 0  250000 1300000 0  300000 1300000 0  350000 1300000 0  400000 1300000 0  450000 1300000 0  500000 1300000 0  550000 1300000 0  600000 1300000 0  650000 1300000 0  700000 1300000 0  750000 1300000 0  800000 1300000 0  850000 1300000 0  900000 1300000 0  950000 1300000 0  1000000 1300000 0  0 1350000 0  50000 1350000 0  100000 1350000 0  150000 1350000 0  200000 1350000 0  250000 1350000 0  300000 1350000 0  350000 1350000 0  400000 1350000 0  450000 1350000 0  500000 1350000 0  550000 1350000 0  600000 1350000 0  650000 1350000 0  700000 135
[...]
<PointData  Vectors="f_4501"> 
<DataArray  type="Float64"  Name="f_4501"  NumberOfComponents="3" format="ascii">-1.1808962967503235e-09 -7.6128188933750559e-10 0.0000000000000000e+00  7.9154683103630747e-08 -6.1614284830526200e-10 0.0000000000000000e+00  7.9850459029041584e-08 -1.6070014775841565e-11 0.0000000000000000e+00  7.9821009835224306e-08 1.5149285542800159e-11 0.0000000000000000e+00  7.9886176650886674e-08 4.5504126977528190e-12 0.0000000000000000e+00  7.9908824557683820e-08 4.1077145983770384e-12 0.0000000000000000e+00  7.9921709779577198e-08 2.5005641681325086e-12 0.0000000000000000e+00  7.9929558699313472e-08 1.6047749387792363e-12 0.0000000000000000e+00  7.9934040780253431e-08 1.0004344929396457e-12 0.0000000000000000e+00  7.9936168745237079e-08 5.4574475530738728e-13 0.0000000000000000e+00  7.9936317600357836e-08 1.7112032367545245e-13 0.0000000000000000e+00  7.9934511383606498e-08 -1.7195298530891427e-13 0.0000000000000000e+00  7.9930427688285965e-08 -5.2087362231602363e-13 0.0000000000000000e+00  7.9923253305432853e-08 -8.9027433383066031e-13 0.0000000000000000e+00  7.9911137941436610e-08 -1.2210734792269587e-12 0.0000000000000000e+00  7.9891119392759204e-08 -2.1206515528690391e-12 0.0000000000000000e+00  7.9849373868409603e-08 3.9878956024043934e-12 0.0000000000000000e+00  7.9737756571601349e-08 8.7054806074308285e-12 0.0000000000000000e+00  7.9645257123990710e-08 -5.1019771950958975e-11 0.0000000000000000e+00  7.7280661769597860e-08 2.2954786406619192e-09 0.0000000000000000e+00  -3.4456612295008761e-09 2.7545749542178376e-09 0.0000000000000000e+00  -8.8013857916116266e-10 -7.3943488141903074e-10 0.0000000000000000e+00  -1.0155511794511865e-08 -1.9842982625993845e-08 0.0000000000000000e+00  3.3133439305576727e-09 -6.8767169633552438e-09 0.0000000000000000e+00  7.6529885212308548e-09 -2.9624420673920752e-09 0.0000000000000000e+00  1.0926277125873957e-08 -1.4859808184235377e-09 0.0000000000000000e+00  1.2518930442103159e-08 -8.3655015954376012e-10 0.0000000000000000e+00  1.3511193691857126e-08 -5.1763710909023836e-10 0.0000000000000000e+00  1.4130262828333129e-08 -3.2585232364877621e-10 0.0000000000000000e+00  1.4509385224215223e-08 -1.9699552573797873e-10 0.0000000000000000e+00  1.4715819798224303e-08 -9.9020175028587054e-11 0.0000000000000000e+00  1.4781195966385115e-08 -1.3993759016126557e-11 0.0000000000000000e+00  1.4715022110619449e-08 7.1040097761556968e-11 0.0000000000000000e+00  1.4507764282764851e-08 1.6903987757205704e-10 0.0000000000000000e+00  1.4127558334749850e-08 2.9787051315565901e-10 0.0000000000000000e+00  1.3508657194110622e-08 4.8907539821309230e-10 0.0000000000000000e+00  1.2519334987086907e-08 8.0915896308773385e-10 0.0000000000000000e+00  1.0890815081900038e-08 1.4324828949531205e-09 0.0000000000000000e+00  8.0829276186838647e-09 2.8851734506183358e-09 0.0000000000000000e+00  1.8331217545040784e-09 7.1104708124837734e-09 0.0000000000000000e+00  -8.2147614270293949e-09 2.0738209500896454e-08 0.0000000000000000e+00  -2.5790886442301046e-09 2.3786533934635114e-09 0.0000000000000000e+00  -1.3203282654129078e-10 -2.1348680901256517e-10 0.0000000000000000e+00  -7.8304607269300784e-09 -1.6789742613104643e-08 0.0000000000000000e+00  -1.0242311347483191e-08 -1.0854700317988441e-08 0.0000000000000000e+00  -9.2871880382088980e-09 -6.0039984224137398e-09 0.0000000000000000e+00  -7.4107441096380550e-09 -3.3290980619064152e-09 0.0000000000000000e+00  -6.2321203351257634e-09 -2.0157376157704655e-09 0.0000000000000000e+00  -5.3471072381685273e-09 -1.2691273992945377e-09 0.0000000000000000e+00  -4.7684706890109018e-09 -7.9770137020006020e-10 0.0000000000000000e+00  -4.3981659274287432e-09 -4.7004652884665648e-10 0.0000000000000000e+00  -4.1923704413391843e-09 -2.1552840914560585e-10 0.0000000000000000e+00  -4.1264128823862329e-09 7.5975433431982960e-12 0.0000000000000000e+00  -4.1925730600126212e-09 2.3077089186684788e-10 0.0000000000000000e+00  -4.3983564333434075e-09 4.8539096525656865e-10 0.0000000000000000e+00  -4.7679182666862327e-09 8.1321580427515056e-10 0.0000000000000000e+00  -5.3468696721215976e-09 1.2832301022047012e-09 0.0000000000000000e+00  -6.2093979731467774e-09 2.0283974875119788e-09 0.0000000000000000e+00  -7.4522768180478634e-09 3.3366465415606635e-09 0.0000000000000000e+00  -9.1515568970446417e-09 5.8919760647881875e-09 0.0000000000000000e+00  -1.0503204918395526e-08 1.1246372596515078e-08 0.0000000000000000e+00  -6.9286619686164509e-09 1.7740051767626363e-08 0.0000000000000000e+00  -1.6350210759091122e-10 3.0343115825835582e-10 0.0000000000000000e+00  5.5540690373874895e-12 -1.5583759294397912e-10 0.0000000000000000e+00  -3.3524603900788933e-09 -1.1411421606931970e-08 0.0000000000000000e+00  -6.6556270498595211e-09 -9.8646285187541102e-09 0.0000000000000000e+00  -7.4975256846136545e-09 -6.5416557060208221e-09 0.0000000000000000e+00  -7.2795333652768131e-09 -4.2504331385208316e-09 0.0000000000000000e+00  -6.8106334829523787e-09 -2.8002298705326609e-09 0.0000000000000000e+00  -6.3206577247667711e-09 -1.8455993581551984e-09 0.0000000000000000e+00  -5.9532116449395903e-09 -1.1967187351505163e-09 0.0000000000000000e+00  -5.6948684975572101e-09 -7.2060517879044387e-10 0.0000000000000000e+00  -5.5450719756098806e-09 -3.3870902776656606e-10 0.0000000000000000e+00  -5.4957407129652588e-09 1.3784988382557304e-12 0.0000000000000000e+00  -5.5442681022750612e-09 3.4147399467826988e-10 0.0000000000000000e+00  -5.6931485880736631e-09 7.2329944176522148e-10 0.0000000000000000e+00  -5.9491445937778819e-09 1.1992931643300702e-09 0.0000000000000000e+00  -6.3187588815689041e-09 1.8476738456106793e-09 0.0000000000000000e+00  -6.7924897602615902e-09 2.7975306760341228e-09 0.0000000000000000e+00  -7.2952236618535059e-09 4.2687463378996689e-09 0.0000000000000000e+00  -7.5200121470546715e-09 6.5975081817146599e-09 0.0000000000000000e+00  -6.5257310209084081e-09 9.8966035072249199e-09 0.0000000000000000e+00  -3.1777607965096033e-09 1.1197461159279977e-08 0.0000000000000000e+00  7.9314421297936651e-12 2.3075729770011137e-10 0.0000000000000000e+00  6.1079078255879698e-12 -1.0488603111323343e-10 0.0000000000000000e+00  -1.7393156055500711e-09 -7.9812204312214570e-09 0.0000000000000000e+00  -4.0088853216194236e-09 -7.8361165068265534e-09 0.0000000000000000e+00  -5.2657404620903735e-09 -6.0333086545546220e-09 0.0000000000000000e+00  -5.7329688703022911e-09 -4.3705833401220319e-09 0.0000000000000000e+00  -5.7559386024991714e-09 -3.0801488878166098e-09 0.0000000000000000e+00  -5.6251731618229062e-09 -2.1329172445312013e-09 0.0000000000000000e+00  -5.4699284860935767e-09 -1.4277963368541823e-09 0.0000000000000000e+00  -5.3378696964333554e-09 -8.7674754422201546e-10 0.0000000000000000e+00  -5.2543984528351317e-09 -4.1713656876847762e-10 0.0000000000000000e+00  -5.2256323413988215e-09 3.4090109090646756e-13 0.0000000000000000e+00  -5.2535935981329042e-09 4.1778717720780548e-10 0.0000000000000000e+00  -5.3364609343434135e-09 8.7726720772497217e-10 0.0000000000000000e+00  -5.4668457922859344e-09 1.4279364817162045e-09 0.0000000000000000e+00  -5.6237566655882763e-09 2.1336828936135404e-09 0.0000000000000000e+00  -5.7534346313098539e-09 3.0796068502709204e-09 0.0000000000000000e+00  -5.7277646463768847e-09 4.3660118806232020e-09 0.0000000000000000e+00  -5.2758218179377572e-09 6.0447971162911364e-09 0.0000000000000000e+00  -3.9737651506472375e-09 7.8453119690230492e-09 0.0000000000000000e+00  -1.7032104188322515e-09 7.9435008045376278e-09 0.0000000000000000e+00  -7.2417536264560568e-12 1.4779774481135513e-10 0.0000000000000000e+00  4.6616133193754278e-12 -7.4170470048720474e-11 0.0000000000000000e+00  -1.0589720423501830e-09 -5.9572896213472772e-09 0.0000000000000000e+00  -2.6435041212881365e-09 -6.2238596804999300e-09 0.0000000000000000e+00  -3.8000126096716480e-09 -5.1857165793545826e-09 0.0000000000000000e+00  -4.4485266453900855e-09 -4.0323277367791396e-09 0.0000000000000000e+00  -4.7425881806006419e-09 -3.0178949429731674e-09 0.0000000000000000e+00  -4.8450002379301443e-09 -2.1847212351749199e-09 0.0000000000000000e+00  -4.8537224595056503e-09 -1.5063984336650660e-09 0.0000000000000000e+00  -4.8305471491811069e-09 -9.4321105985190020e-10 0.0000000000000000e+00  -4.8072180533411542e-09 -4.5376418878992544e-10 0.0000000000000000e+00  -4.7977780566167994e-09 2.2398353205337046e-13 0.0000000000000000e+00  -4.8066751735284737e-09 4.5417034679365646e-10 0.0000000000000000e+00  -4.8296838595353859e-09 9.4355097117172584e-10 0.0000000000000000e+00  -4.8523512563800644e-09 1.5064789395803766e-09 0.0000000000000000e+00  -4.8434941905553637e-09 2.1847441523902274e-09 0.0000000000000000e+00  -4.7431284774502495e-09 3.0194953312315853e-09 0.0000000000000000e+00  -4.4458481676357795e-09 4.0325315364716365e-09 0.0000000000000000e+00  -3.7954014450731551e-09 5.1760755517372716e-09 0.0000000000000000e+00  -2.6366220860922556e-09 6.2129646394484438e-09 0.0000000000000000e+00  -1.0525514636688013e-09 5.9574398820671350e-09 0.0000000000000000e+00  2.2987646235520143e-12 9.5893921614204416e-11 0.0000000000000000e+00  3.4759231003438997e-12 -5.6177988057794717e-11 0.0000000000000000e+00  -7.2805632902353713e-10 -4.6105009784150144e-09 0.0000000000000000e+00  -1.8881232884402276e-09 -4.9576367694467056e-09 0.0000000000000000e+00  -2.8506450005664631e-09 -4.3272286710915999e-09 0.0000000000000000e+00  -3.5099674756844556e-09 -3.5414983069660024e-09 0.0000000000000000e+00  -3.9154288558857847e-09 -2.7717406055547056e-09 0.0000000000000000e+00  -4.1431901197429918e-09 -2.0772437176450666e-09 0.0000000000000000e+00  -4.2606722807507203e-09 -1.4698949488072797e-09 0.0000000000000000e+00  -4.3165629380651663e-09 -9.3691710634229631e-10 0.0000000000000000e+00  -4.3397492959162066e-09 -4.5541382948700309e-10 0.0000000000000000e+00  -4.3457665367032475e-09 6.5669740893829787e-14 0.0000000000000000e+00  -4.3394454822514608e-09 4.5551007134710081e-10 0.0000000000000000e+00  -4.3160190890021514e-09 9.3695372652437155e-10 0.0000000000000000e+00  -4.2600920082287573e-09 1.4698801826364613e-09 0.0000000000000000e+00  -4.1422541847339690e-09 2.0768493687388265e-09 0.0000000000000000e+00  -3.9146172258340402e-09 2.7706493873472286e-09 0.0000000000000000e+00  -3.5090489601152121e-09 3.5396113348906047e-09 0.0000000000000000e+00  -2.8485816664704124e-09 4.3229636029262218e-09 0.0000000000000000e+00  -1.8862333385445881e-09 4.9554216893459856e-09 0.0000000000000000e+00  -7.2657280079453186e-10 4.6107584253005489e-09 0.0000000000000000e+00  2.1086331043484964e-12 7.0755417207167908e-11 0.0000000000000000e+00  2.6478455315597221e-12 -4.3523292251011998e-11 0.0000000000000000e+00  -5.3961744955509952e-10 -3.6320474005679460e-09 0.0000000000000000e+00  -1.4286734102435692e-09 -3.9729478009528667e-09 0.0000000000000000e+00  -2.2231156873420694e-09 -3.5698820255017172e-09 0.0000000000000000e+00  -2.8320235420380605e-09 -3.0206495768867177e-09 0.0000000000000000e+00  -3.2620637171938094e-09 -2.4397996122110773e-09 0.0000000000000000e+00  -3.5472302357872223e-09 -1.8788213262221498e-09 0.0000000000000000e+00  -3.7266610170684413e-09 -1.3581570476708870e-09 0.0000000000000000e+00  -3.8325741856750742e-09 -8.7873365880738463e-10 0.0000000000000000e+00  -3.8874496009780118e-09 -4.3096003794080190e-10 0.0000000000000000e+00  -3.9043014092757559e-09 -6.2138171994663213e-14 0.0000000000000000e+00  -3.8872829669577894e-09 4.3081384275475750e-10 0.0000000000000000e+00  -3.8322372233639632e-09 8.7850781293759666e-10 0.0000000000000000e+00  -3.7262492257696066e-09 1.3578217453463645e-09 0.0000000000000000e+00  -3.5467301150890456e-09 1.8782703093007750e-09 0.0000000000000000e+00  -3.2613126236772631e-09 2.4384585185483252e-09 0.0000000000000000e+00  -2.8312350385762096e-09 3.0177251318613740e-09 0.0000000000000000e+00  -2.2227176745554951e-09 3.5660365955048747e-09 0.0000000000000000e+00  -1.4290203525597727e-09 3.9734318440247431e-09 0.0000000000000000e+00  -5.3916262633210824e-10 3.6342167674836646e-09 0.0000000000000000e+00  1.8805181680908547e-12 5.3813708428300829e-11 0.0000000000000000e+00  2.1150814943616239e-12 -3.4042401677085119e-11 0.0000000000000000e+00  -4.2159096406933392e-10 -2.8815385782834855e-09 0.0000000000000000e+00  -1.1306806821347675e-09 -3.1852572903797660e-09 0.0000000000000000e+00  -1.7932564818748629e-09 -2.9145397332067497e-09 0.0000000000000000e+00  -2.3366588485738576e-09 -2.5217400464945381e-09 0.0000000000000000e+00  -2.7535222392121877e-09 -2.0836570469227402e-09 0.0000000000000000e+00  -3.0561647597676165e-09 -1.6376254581291787e-09 0.0000000000000000e+00  -3.2644788308680113e-09 -1.2034681209673553e-09 0.0000000000000000e+00  -3.3979500794204965e-09 -7.8804144686481844e-10 0.0000000000000000e+00  -3.4717905118891060e-09 -3.8933963031367157e-10 0.0000000000000000e+00  -3.4953301741501085e-09 -1.5473800768192781e-13 0.0000000000000000e+00  -3.4716838169693362e-09 3.8901032855448146e-10 0.0000000000000000e+00  -3.3977412028689327e-09 7.8763671344487535e-10 0.0000000000000000e+00  -3.2641720620007100e-09 1.2028883632565043e-09 0.0000000000000000e+00  -3.0557969948742107e-09 1.6367329416179920e-09 0.0000000000000000e+00  -2.7531330389995721e-09 2.0822352308664978e-09 0.0000000000000000e+00  -2.3363946750034157e-09 2.5195142837691102e-09 0.0000000000000000e+00  -1.7934465655582191e-09 2.9121532138493588e-09 0.0000000000000000e+00  -1.1314729241846898e-09 3.1866796135289007e-09 0.0000000000000000e+00  -4.2147780220400661e-10 2.8836936525270632e-09 0.0000000000000000e+00  1.6618259193018592e-12 4.1797724066971934e-11 0.0000000000000000e+00  1.7496485942439354e-12 -2.6552284037256465e-11 0.0000000000000000e+00  -3.4302377230336125e-10 -2.2799482721198266e-09 0.0000000000000000e+00  -9.2767383284615061e-10 -2.5372930676683618e-09 0.0000000000000000e+00  -1.4896729184630495e-09 -2.3495136809628733e-09 0.0000000000000000e+00  -1.9710603074303228e-09 -2.0639453615221969e-09 0.0000000000000000e+00  -2.3603554934791894e-09 -1.7328620656594591e-09 0.0000000000000000e+00  -2.6592411931134550e-09 -1.3822962612105612e-09 0.0000000000000000e+00  -2.8763095645967710e-09 -1.0285794196666602e-09 0.0000000000000000e+00  -3.0220077313035349e-09 -6.7984385236425496e-10 0.0000000000000000e+00  -3.1054214364595388e-09 -3.3784699523069243e-10 0.0000000000000000e+00  -3.1325131496773393e-09 -2.2213881952134602e-13 0.0000000000000000e+00  -3.1053472658847796e-09 3.3737910457506457e-10 0.0000000000000000e+00  -3.0218674335860868e-09 6.7930094281051619e-10 0.0000000000000000e+00  -2.8761122073218316e-09 1.0278845927762470e-09 0.0000000000000000e+00  -2.6590144518830697e-09 1.3813265504368762e-09 0.0000000000000000e+00  -2.3601857819388920e-09 1.7314841548816649e-09 0.0000000000000000e+00  -1.9711086486085104e-09 2.0621556878833204e-09 0.0000000000000000e+00  -1.4900997799284525e-09 2.3480201280133147e-09 0.0000000000000000e+00  -9.2847771048805943e-10 2.5390868020451176e-09 0.0000000000000000e+00  -3.4301182407249861e-10 2.2819192116531063e-09 0.0000000000000000e+00  1.4551156965865103e-12 3.2696383097132679e-11 0.0000000000000000e+00  1.4925709417214990e-12 -2.0386914511181879e-11 0.0000000000000000e+00  -2.8869416537088468e-10 -1.7804245965248062e-09 0.0000000000000000e+00  -7.8516768846309174e-10 -1.9902486436910862e-09 0.0000000000000000e+00  -1.2713379552000108e-09 -1.8577154427199409e-09 0.0000000000000000e+00  -1.6998337630455761e-09 -1.6488648003056800e-09 0.0000000000000000e+00  -2.0585979003289334e-09 -1.3999446569794215e-09 0.0000000000000000e+00  -2.3443549963170420e-09 -1.1287688254507945e-09 0.0000000000000000e+00  -2.5592557970740016e-09 -8.4771160962639798e-10 0.0000000000000000e+00  -2.7078215840864487e-09 -5.6424962625001474e-10 0.0000000000000000e+00  -2.7947162176539613e-09 -2.8166160682714695e-10 0.0000000000000000e+00  -2.8232669588993059e-09 -2.7173387636254566e-13 0.0000000000000000e+00  -2.7946665952396736e-09 2.8109601146678112e-10 0.0000000000000000e+00  -2.7077288112605782e-09 5.6361404584847442e-10 0.0000000000000000e+00  -2.5591380438904929e-09 8.4694987307447017e-10 0.0000000000000000e+00  -2.3442493927053273e-09 1.1278161448360429e-09 0.0000000000000000e+00  -2.0585791050864373e-09 1.3987493336012307e-09 0.0000000000000000e+00  -1.7000158400828971e-09 1.6474874712698620e-09 0.0000000000000000e+00  -1.2717923334723233e-09 1.8567686825170257e-09 0.0000000000000000e+00  -7.8586026337997717e-10 1.9921110469534557e-09 0.0000000000000000e+00  -2.8871403868477604e-10 1.7821901016415596e-09 0.0000000000000000e+00  1.2952828931846158e-12 2.5451592940840765e-11 0.0000000000000000e+00  1.3088901217894428e-12 -1.5130216228183025e-11 0.0000000000000000e+00  -2.5054126885248327e-10 -1.3525563930926252e-09 0.0000000000000000e+00  -6.8407607140512483e-10 -1.5164698124267835e-09 0.0000000000000000e+00  -1.1138458099874390e-09 -1.4231568594230477e-09 0.0000000000000000e+00  -1.4998830113777797e-09 -1.2720906535782529e-09 0.0000000000000000e+00  -1.8306693596817434e-09 -1.0884743864471641e-09 0.0000000000000000e+00  -2.1006908566776806e-09 -8.8431406072417699e-10 0.0000000000000000e+00  -2.3085323994383316e-09 -6.6854956145080793e-10 0.0000000000000000e+00  -2.4550626617114026e-09 -4.4729510169127911e-10 0.0000000000000000e+00  -2.5419896125990618e-09 -2.2403876238591861e-10 0.0000000000000000e+00  -2.5707690373044964e-09 -3.0634171290973649e-13 0.0000000000000000e+00  -2.5419583254270428e-09 2.2340823763409969e-10 0.0000000000000000e+00  -2.4550073300416784e-09 4.4660971875900271e-10 0.0000000000000000e+00  -2.3084717283224848e-09 6.6777110486534856e-10 0.0000000000000000e+00  -2.1006604793305575e-09 8.8341080832213851e-10 0.0000000000000000e+00  -1.8307272256121553e-09 1.0874412674632949e-09 0.0000000000000000e+00  -1.5000999755167675e-09 1.2710118880680993e-09 0.0000000000000000e+00  -1.1142446337421877e-09 1.4225476622680111e-09 0.0000000000000000e+00  -6.8462486635604673e-10 1.5182983862476973e-09 0.0000000000000000e+00  -2.5056752704616750e-10 1.3541425512795192e-09 0.0000000000000000e+00  1.1746754124537267e-12 1.9455477265888290e-11 0.0000000000000000e+00  1.1782432209987453e-12 -1.0496063291825334e-11 0.0000000000000000e+00  -2.2403296657232828e-10 -9.7508154227297935e-10 0.0000000000000000e+00  -6.1336368339742319e-10 -1.0953986021694587e-09 0.0000000000000000e+00  -1.0024136392233673e-09 -1.0318053458162798e-09 0.0000000000000000e+00  -1.3562625733773014e-09 -9.2666484289030103e-10 0.0000000000000000e+00  -1.6641359756136404e-09 -7.9710051021929433e-10 0.0000000000000000e+00  -1.9195709227411527e-09 -6.5098129435164254e-10 0.0000000000000000e+00  -2.1192385989752781e-09 -4.9443724770761302e-10 0.0000000000000000e+00  -2.2618499167847714e-09 -3.3202103505926161e-10 0.0000000000000000e+00  -2.3472506008733488e-09 -1.6672633757158638e-10 0.0000000000000000e+00  -2.3756675661984657e-09 -3.2861236792887870e-13 0.0000000000000000e+00  -2.3472324274928472e-09 1.6605566544361437e-10 0.0000000000000000e+00  -2.2618206268778821e-09 3.3131095165456270e-10 0.0000000000000000e+00  -2.1192143363003868e-09 4.9366588391250046e-10 0.0000000000000000e+00  -1.9195792590354782e-09 6.5013799048118268e-10 0.0000000000000000e+00  -1.6642165174868959e-09 7.9619969565781537e-10 0.0000000000000000e+00  -1.3564569159778788e-09 9.2579034770987662e-10 0.0000000000000000e+00  -1.0027239038457654e-09 1.0313994671888187e-09 0.0000000000000000e+00  -6.1376726605545181e-10 1.0971639392681585e-09 0.0000000000000000e+00  -2.2405608997794080e-10 9.7652974832350100e-10 0.0000000000000000e+00  1.0886642698327751e-12 1.4316342853853275e-11 0.0000000000000000e+00  1.0884799386708865e-12 -6.2710431397321692e-12 0.0000000000000000e+00  -2.0654467532748045e-10 -6.3202767717513162e-10 0.0000000000000000e+00  -5.6651583680659439e-10 -7.1087395431542014e-10 0.0000000000000000e+00  -9.2801795014039812e-10 -6.7136776536807511e-10 0.0000000000000000e+00  -1.2594031385815504e-09 -6.0482741815747427e-10 0.0000000000000000e+00  -1.5505222453775861e-09 -5.2204337623707035e-10 0.000000000000000