<?xml version="1.0"?>
<VTKFile type="UnstructuredGrid"  version="0.1"  >
<UnstructuredGrid>
<Piece  NumberOfPoints="651" NumberOfCells="1200">
<Points>
<DataArray  type="Float64"  NumberOfComponents="3"  format="ascii">0 0 0  50000 0 0  100000 0 0  150000 0 0  200000 0 0  250000 0 0  300000 0 0  350000 0 0  400000 0 0  450000 0 0  500000 0 0  550000 0 0  600000 0 0  650000 0 0  700000 0 0  750000 0 0  800000 0 0  850000 0 0  900000 0 0  950000 0 0  1000000 0 0  0 50000 0  50000 50000 0  100000 50000 0  150000 50000 0  200000 50000 0  250000 50000 0  300000 50000 0  350000 50000 0  400000 50000 0  450000 50000 0  500000 50000 0  550000 50000 0  600000 50000 0  650000 50000 0  700000 50000 0  750000 50000 0  800000 50000 0  850000 50000 0  900000 50000 0  950000 50000 0  1000000 50000 0  0 100000 0  50000 100000 0  100000 100000 0  150000 100000 0  200000 100000 0  250000 100000 0  300000 100000 0  350000 100000 0  400000 100000 0  450000 100000 0  500000 100000 0  550000 100000 0  600000 100000 0  650000 100000 0  700000 100000 0  750000 100000 0  800000 100000 0  850000 100000 0  900000 100000 0  950000 100000 0  1000000 100000 0  0 150000 0  50000 150000 0  100000 150000 0  150000 150000 0  200000 150000 0  250000 150000 0  300000 150000 0  350000 150000 0  400000 150000 0  450000 150000 0  500000 150000 0  550000 150000 0  600000 150000 0  650000 150000 0  700000 150000 0  750000 150000 0  800000 150000 0  850000 150000 0  900000 150000 0  950000 150000 0  1000000 150000 0  0 200000 0  50000 200000 0  100000 200000 0  150000 200000 0  200000 200000 0  250000 200000 0  300000 200000 0  350000 200000 0  400000 200000 0  450000 200000 0  500000 200000 0  550000 200000 0  600000 200000 0  650000 200000 0  700000 200000 0  750000 200000 0  800000 200000 0  850000 200000 0  900000 200000 0  950000 200000 0  1000000 200000 0  0 250000 0  50000 250000 0  100000 250000 0  150000 250000 0  200000 250000 0  250000 250000 0  300000 250000 0  350000 250000 0  400000 250000 0  450000 250000 0  500000 250000 0  550000 250000 0  600000 250000 0  650000 250000 0  700000 250000 0  750000 250000 0  800000 250000 0  850000 250000 0  900000 250000 0  950000 250000 0  1000000 250000 0  0 300000 0  50000 300000 0  100000 300000 0  150000 300000 0  200000 300000 0  250000 300000 0  300000 300000 0  350000 300000 0  400000 300000 0  450000 300000 0  500000 300000 0  550000 300000 0  600000 300000 0  650000 300000 0  700000 300000 0  750000 300000 0  800000 300000 0  850000 300000 0  900000 300000 0  950000 300000 0  1000000 300000 0  0 350000 0  50000 350000 0  100000 350000 0  150000 350000 0  200000 350000 0  250000 350000 0  300000 350000 0  350000 350000 0  400000 350000 0  450000 350000 0  500000 350000 0  550000 350000 0  600000 350000 0  650000 350000 0  700000 350000 0  750000 350000 0  800000 350000 0  850000 350000 0  900000 350000 0  950000 350000 0  1000000 350000 0  0 400000 0  50000 400000 0  100000 400000 0  150000 400000 0  200000 400000 0  250000 400000 0  300000 400000 0  350000 400000 0  400000 400000 0  450000 400000 0  500000 400000 0  550000 400000 0  600000 400000 0  650000 400000 0  700000 400000 0  750000 400000 0  800000 400000 0  850000 400000 0  900000 400000 0  950000 400000 0  1000000 400000 0  0 450000 0  50000 450000 0  100000 450000 0  150000 450000 0  200000 450000 0  250000 450000 0  300000 450000 0  350000 450000 0  400000 450000 0  450000 450000 0  500000 450000 0  550000 450000 0  600000 450000 0  650000 450000 0  700000 450000 0  750000 450000 0  800000 450000 0  850000 450000 0  900000 450000 0  950000 450000 0  1000000 450000 0  0 500000 0  50000 500000 0  100000 500000 0  150000 500000 0  200000 500000 0  250000 500000 0  300000 500000 0  350000 500000 0  400000 500000 0  450000 500000 0  500000 500000 0  550000 500000 0  600000 500000 0  650000 500000 0  700000 500000 0  750000 500000 0  800000 500000 0  850000 500000 0  900000 500000 0  950000 500000 0  1000000 500000 0  0 550000 0  50000 550000 0  100000 550000 0  150000 550000 0  200000 550000 0  250000 550000 0  300000 550000 0  350000 550000 0  400000 550000 0  450000 550000 0  500000 550000 0  550000 550000 0  600000 550000 0  650000 550000 0  700000 550000 0  750000 550000 0  800000 550000 0  850000 550000 0  900000 550000 0  950000 550000 0  1000000 550000 0  0 600000 0  50000 600000 0  100000 600000 0  150000 600000 0  200000 600000 0  250000 600000 0  300000 600000 0  350000 600000 0  400000 600000 0  450000 600000 0  500000 600000 0  550000 600000 0  600000 600000 0  650000 600000 0  700000 600000 0  750000 600000 0  800000 600000 0  850000 600000 0  900000 600000 0  950000 600000 0  1000000 600000 0  0 650000 0  50000 650000 0  100000 650000 0  150000 650000 0  200000 650000 0  250000 650000 0  300000 650000 0  350000 650000 0  400000 650000 0  450000 650000 0  500000 650000 0  550000 650000 0  600000 650000 0  650000 650000 0  700000 650000 0  750000 650000 0  800000 650000 0  850000 650000 0  900000 650000 0  950000 650000 0  1000000 650000 0  0 700000 0  50000 700000 0  100000 700000 0  150000 700000 0  200000 700000 0  250000 700000 0  300000 700000 0  350000 700000 0  400000 700000 0  450000 700000 0  500000 700000 0  550000 700000 0  600000 700000 0  650000 700000 0  700000 700000 0  750000 700000 0  800000 700000 0  850000 700000 0  900000 700000 0  950000 700000 0  1000000 700000 0  0 750000 0  50000 750000 0  100000 750000 0  150000 750000 0  200000 750000 0  250000 750000 0  300000 750000 0  350000 750000 0  400000 750000 0  450000 750000 0  500000 750000 0  550000 750000 0  600000 750000 0  650000 750000 0  700000 750000 0  750000 750000 0  800000 750000 0  850000 750000 0  900000 750000 0  950000 750000 0  1000000 750000 0  0 800000 0  50000 800000 0  100000 800000 0  150000 800000 0  200000 800000 0  250000 800000 0  300000 800000 0  350000 800000 0  400000 800000 0  450000 800000 0  500000 800000 0  550000 800000 0  600000 800000 0  650000 800000 0  700000 800000 0  750000 800000 0  800000 800000 0  850000 800000 0  900000 800000 0  950000 800000 0  1000000 800000 0  0 850000 0  50000 850000 0  100000 850000 0  150000 850000 0  200000 850000 0  250000 850000 0  300000 850000 0  350000 850000 0  400000 850000 0  450000 850000 0  500000 850000 0  550000 850000 0  600000 850000 0  650000 850000 0  700000 850000 0  750000 850000 0  800000 850000 0  850000 850000 0  900000 850000 0  950000 850000 0  1000000 850000 0  0 900000 0  50000 900000 0  100000 900000 0  150000 900000 0  200000 900000 0  250000 900000 0  300000 900000 0  350000 900000 0  400000 900000 0  450000 900000 0  500000 900000 0  550000 900000 0  600000 900000 0  650000 900000 0  700000 900000 0  750000 900000 0  800000 900000 0  850000 900000 0  900000 900000 0  950000 900000 0  1000000 900000 0  0 950000 0  50000 950000 0  100000 950000 0  150000 950000 0  200000 950000 0  250000 950000 0  300000 950000 0  350000 950000 0  400000 950000 0  450000 950000 0  500000 950000 0  550000 950000 0  600000 950000 0  650000 950000 0  700000 950000 0  750000 950000 0  800000 950000 0  850000 950000 0  900000 950000 0  950000 950000 0  1000000 950000 0  0 1000000 0  50000 1000000 0  100000 1000000 0  150000 1000000 0  200000 1000000 0  250000 1000000 0  300000 1000000 0  350000 1000000 0  400000 1000000 0  450000 1000000 0  500000 1000000 0  550000 1000000 0  600000 1000000 0  650000 1000000 0  700000 1000000 0  750000 1000000 0  800000 1000000 0  850000 1000000 0  900000 1000000 0  950000 1000000 0  1000000 1000000 0  0 1050000 0  50000 1050000 0  100000 1050000 0  150000 1050000 0  200000 1050000 0  250000 1050000 0  300000 1050000 0  350000 1050000 0  400000 1050000 0  450000 1050000 0  500000 1050000 0  550000 1050000 0  600000 1050000 0  650000 1050000 0  700000 1050000 0  750000 1050000 0  800000 1050000 0  850000 1050000 0  900000 1050000 0  950000 1050000 0  1000000 1050000 0  0 1100000 0  50000 1100000 0  100000 1100000 0  150000 1100000 0  200000 1100000 0  250000 1100000 0  300000 1100000 0  350000 1100000 0  400000 1100000 0  450000 1100000 0  500000 1100000 0  550000 1100000 0  600000 1100000 0  650000 1100000 0  700000 1100000 0  750000 1100000 0  800000 1100000 0  850000 1100000 0  900000 1100000 0  950000 1100000 0  1000000 1100000 0  0 1150000 0  50000 1150000 0  100000 1150000 0  150000 1150000 0  200000 1150000 0  250000 1150000 0  300000 1150000 0  350000 1150000 0  400000 1150000 0  450000 1150000 0  500000 1150000 0  550000 1150000 0  600000 1150000 0  650000 1150000 0  700000 1150000 0  750000 1150000 0  800000 1150000 0  850000 1150000 0  900000 1150000 0  950000 1150000 0  1000000 1150000 0  0 1200000 0  50000 1200000 0  100000 1200000 0  150000 1200000 0  200000 1200000 0  250000 1200000 0  300000 1200000 0  350000 1200000 0  400000 1200000 0  450000 1200000 0  500000 1200000 0  550000 1200000 0  600000 1200000 0  650000 1200000 0  700000 1200000 0  750000 1200000 0  800000 1200000 0  850000 1200000 0  900000 1200000 0  950000 1200000 0  1000000 1200000 0  0 1250000 0  50000 1250000 0  100000 1250000 0  150000 1250000 0  200000 1250000 0  250000 1250000 0  300000 1250000 0  350000 1250000 0  400000 1250000 0  450000 1250000 0  500000 1250000 0  550000 1250000 0  600000 1250000 0  650000 1250000 0  700000 1250000 0  750000 1250000 0  800000 1250000 0  850000 1250000 0  900000 1250000 0  950000 1250000 0  1000000 1250000 0  0 1300000 0  50000 1300000 0  100000 1300000 0  150000 1300000 0  200000 1300000 0  250000 1300000 0  300000 1300000 0  350000 1300000 0  400000 1300000 0  450000 1300000 0  500000 1300000 0  550000 1300000 0  600000 1300000 0  650000 1300000 0  700000 1300000 0  750000 1300000 0  800000 1300000 0  850000 1300000 0  900000 1300000 0  950000 1300000 0  1000000 1300000 0  0 1350000 0  50000 1350000 0  100000 1350000 0  150000 1350000 0  200000 1350000 0  250000 1350000 0  300000 1350000 0  350000 1350000 0  400000 1350000 0  450000 1350000 0  500000 1350000 0  550000 1350000 0  600000 1350000 0  650000 1350000 0  700000 135
[...]
<PointData  Vectors="f_4501"> 
<DataArray  type="Float64"  Name="f_4501"  NumberOfComponents="3" format="ascii">-1.1861567259252157e-09 -7.9442637961088609e-10 0.0000000000000000e+00  7.9140047338654616e-08 -6.4376806419668552e-10 0.0000000000000000e+00  7.9827686366733149e-08 -3.3383782957859754e-11 0.0000000000000000e+00  7.9799107939731866e-08 6.1194520945174899e-12 0.0000000000000000e+00  7.9867262366628570e-08 -1.4642915895794611e-14 0.0000000000000000e+00  7.9892313522085031e-08 1.6127251120830708e-12 0.0000000000000000e+00  7.9906863133015878e-08 1.0503153468415177e-12 0.0000000000000000e+00  7.9915806082994085e-08 7.4868956848060546e-13 0.0000000000000000e+00  7.9920954130029136e-08 5.4458203166801353e-13 0.0000000000000000e+00  7.9923406030372839e-08 4.0121332743488430e-13 0.0000000000000000e+00  7.9923579723696589e-08 3.1029190193399757e-13 0.0000000000000000e+00  7.9921502988763952e-08 2.7030054187558266e-13 0.0000000000000000e+00  7.9916821589979424e-08 2.9724680165100832e-13 0.0000000000000000e+00  7.9908649416701738e-08 4.5921049275805313e-13 0.0000000000000000e+00  7.9895023682907164e-08 9.7201632870974655e-13 0.0000000000000000e+00  7.9872804472337898e-08 1.6158967592597166e-12 0.0000000000000000e+00  7.9828665618097288e-08 1.0569224132496991e-11 0.0000000000000000e+00  7.9715429356062466e-08 2.3594484322070410e-11 0.0000000000000000e+00  7.9629975109024371e-08 -2.5024196352179510e-11 0.0000000000000000e+00  7.7276766135057917e-08 2.3306778671613352e-09 0.0000000000000000e+00  -3.4403662390641212e-09 2.8049190527702891e-09 0.0000000000000000e+00  -8.8867323897550388e-10 -7.6285443742892169e-10 0.0000000000000000e+00  -1.1702608024171794e-08 -1.7494623672920634e-08 0.0000000000000000e+00  -4.4576131623872255e-10 -5.6737234123452293e-09 0.0000000000000000e+00  2.8200054394405166e-09 -2.5187041133951085e-09 0.0000000000000000e+00  5.5737439737931698e-09 -1.3026190466520645e-09 0.0000000000000000e+00  6.9080642023565403e-09 -7.4840141533512738e-10 0.0000000000000000e+00  7.7522625236473383e-09 -4.6987918631587150e-10 0.0000000000000000e+00  8.2825363554891547e-09 -3.0011775523324143e-10 0.0000000000000000e+00  8.6085894269953099e-09 -1.8488065873213825e-10 0.0000000000000000e+00  8.7864956547526440e-09 -9.6711385184043291e-11 0.0000000000000000e+00  8.8427904197832183e-09 -1.9913905753286825e-11 0.0000000000000000e+00  8.7854547502388889e-09 5.6938677796211673e-11 0.0000000000000000e+00  8.6064470923215749e-09 1.4528871351995203e-10 0.0000000000000000e+00  8.2790299174728228e-09 2.6080746445094613e-10 0.0000000000000000e+00  7.7484310059873692e-09 4.3076317980403861e-10 0.0000000000000000e+00  6.9061874869775096e-09 7.1158767005805162e-10 0.0000000000000000e+00  5.5347619065415294e-09 1.2461479502510556e-09 0.0000000000000000e+00  3.2271274357866116e-09 2.4495308565246205e-09 0.0000000000000000e+00  -1.8606869074241811e-09 5.8451039101380699e-09 0.0000000000000000e+00  -9.7213418907569743e-09 1.8404301419966897e-08 0.0000000000000000e+00  -2.5851219249746668e-09 2.4146254336992783e-09 0.0000000000000000e+00  -1.4087879424949706e-10 -2.2976424848939026e-10 0.0000000000000000e+00  -6.9800903630918109e-09 -1.3998204017083261e-08 0.0000000000000000e+00  -8.9503266148991282e-09 -8.7841072525616159e-09 0.0000000000000000e+00  -8.3405344407069729e-09 -4.9292386989648759e-09 0.0000000000000000e+00  -6.8522083817975368e-09 -2.7647135153862868e-09 0.0000000000000000e+00  -5.9418563521880483e-09 -1.6909358346716719e-09 0.0000000000000000e+00  -5.2378136347768274e-09 -1.0703129121967178e-09 0.0000000000000000e+00  -4.7748624504233160e-09 -6.7345754936719692e-10 0.0000000000000000e+00  -4.4769743868575975e-09 -3.9519341189366034e-10 0.0000000000000000e+00  -4.3108365452374072e-09 -1.7774508730313039e-10 0.0000000000000000e+00  -4.2574672287658151e-09 1.3511311029106361e-11 0.0000000000000000e+00  -4.3108547566422675e-09 2.0483692109524412e-10 0.0000000000000000e+00  -4.4767717859348494e-09 4.2246994618260306e-10 0.0000000000000000e+00  -4.7737520410151185e-09 7.0101657122765509e-10 0.0000000000000000e+00  -5.2363512557006525e-09 1.0968523480776671e-09 0.0000000000000000e+00  -5.9193093445759717e-09 1.7166020958708650e-09 0.0000000000000000e+00  -6.8892750367535426e-09 2.7848545546765030e-09 0.0000000000000000e+00  -8.1939386055634091e-09 4.8229594432914394e-09 0.0000000000000000e+00  -9.1889832930354354e-09 9.0662344054239327e-09 0.0000000000000000e+00  -6.0745573840928025e-09 1.5038785022988353e-08 0.0000000000000000e+00  -1.6777134004231986e-10 3.2340818548246266e-10 0.0000000000000000e+00  -2.3745829762325725e-12 -1.7322221348786451e-10 0.0000000000000000e+00  -2.8111027341953471e-09 -9.7250329854638260e-09 0.0000000000000000e+00  -5.4756706822725639e-09 -7.9933804748824999e-09 0.0000000000000000e+00  -6.1478569733261646e-09 -5.2949925741620629e-09 0.0000000000000000e+00  -5.9890620096888217e-09 -3.4785549820409271e-09 0.0000000000000000e+00  -5.6373497627827323e-09 -2.3122560142410752e-09 0.0000000000000000e+00  -5.2539836418220532e-09 -1.5341389929727722e-09 0.0000000000000000e+00  -4.9653745322865116e-09 -9.9956011788640788e-10 0.0000000000000000e+00  -4.7609323247304416e-09 -6.0422189748040123e-10 0.0000000000000000e+00  -4.6417961651373943e-09 -2.8529969581604379e-10 0.0000000000000000e+00  -4.6024067676798617e-09 -4.2952071220098529e-13 0.0000000000000000e+00  -4.6408398030738770e-09 2.8444911906591084e-10 0.0000000000000000e+00  -4.7588311933612649e-09 6.0332264714071710e-10 0.0000000000000000e+00  -4.9609628017274479e-09 9.9855762079939423e-10 0.0000000000000000e+00  -5.2508177732945219e-09 1.5325003837440656e-09 0.0000000000000000e+00  -5.6181899583485590e-09 2.3062401309849720e-09 0.0000000000000000e+00  -6.0010759054427281e-09 3.4885771894762020e-09 0.0000000000000000e+00  -6.1592673498988126e-09 5.3351466410288539e-09 0.0000000000000000e+00  -5.3753979821790336e-09 7.9788904630122530e-09 0.0000000000000000e+00  -2.7148542598984284e-09 9.5385487894411110e-09 0.0000000000000000e+00  -2.8040596539632710e-12 2.5013320393066351e-10 0.0000000000000000e+00  1.0668874625454336e-12 -1.1948312818446754e-10 0.0000000000000000e+00  -1.5088509561015269e-09 -6.8799759944195600e-09 0.0000000000000000e+00  -3.3433322147758253e-09 -6.3635870657603887e-09 0.0000000000000000e+00  -4.3277277205694540e-09 -4.8917536753908318e-09 0.0000000000000000e+00  -4.7087947322770690e-09 -3.5622937485529344e-09 0.0000000000000000e+00  -4.7346749290984567e-09 -2.5235433044802410e-09 0.0000000000000000e+00  -4.6372053813054706e-09 -1.7551300044454011e-09 0.0000000000000000e+00  -4.5182752342237379e-09 -1.1788343561466254e-09 0.0000000000000000e+00  -4.4156190730198539e-09 -7.2548176648477800e-10 0.0000000000000000e+00  -4.3502419171156757e-09 -3.4550330002094686e-10 0.0000000000000000e+00  -4.3276064702903717e-09 5.2174607453136566e-13 0.0000000000000000e+00  -4.3493823960880520e-09 3.4650268464180558e-10 0.0000000000000000e+00  -4.4139745009016856e-09 7.2630028372733981e-10 0.0000000000000000e+00  -4.5150136346960565e-09 1.1792039316559159e-09 0.0000000000000000e+00  -4.6350762622670853e-09 1.7556848428869877e-09 0.0000000000000000e+00  -4.7308961389567594e-09 2.5220153212900392e-09 0.0000000000000000e+00  -4.7018596587526872e-09 3.5551727686095892e-09 0.0000000000000000e+00  -4.3388921373962767e-09 4.8966142366824503e-09 0.0000000000000000e+00  -3.3157775891649166e-09 6.3727706416371071e-09 0.0000000000000000e+00  -1.4858629934720722e-09 6.8566650272227345e-09 0.0000000000000000e+00  -1.4134622688409565e-11 1.6429787281026410e-10 0.0000000000000000e+00  1.5445683596574494e-12 -8.5993541487079062e-11 0.0000000000000000e+00  -9.3857237621480172e-10 -5.1752395670255164e-09 0.0000000000000000e+00  -2.2354077781180279e-09 -5.0903752909395178e-09 0.0000000000000000e+00  -3.1559206776496165e-09 -4.2196590237686689e-09 0.0000000000000000e+00  -3.6753764469603436e-09 -3.2863465064088631e-09 0.0000000000000000e+00  -3.9142559264729006e-09 -2.4670212783321995e-09 0.0000000000000000e+00  -4.0014913601177829e-09 -1.7912041912575166e-09 0.0000000000000000e+00  -4.0126692014468486e-09 -1.2381058588486115e-09 0.0000000000000000e+00  -3.9969893170215457e-09 -7.7657224832146394e-10 0.0000000000000000e+00  -3.9799027375729897e-09 -3.7396616084766678e-10 0.0000000000000000e+00  -3.9728191863588492e-09 2.1660972604418102e-13 0.0000000000000000e+00  -3.9792969699015809e-09 3.7434384778285038e-10 0.0000000000000000e+00  -3.9959206847781258e-09 7.7680309972080597e-10 0.0000000000000000e+00  -4.0109846007239306e-09 1.2379372872949328e-09 0.0000000000000000e+00  -3.9995270603940356e-09 1.7907287007894660e-09 0.0000000000000000e+00  -3.9141029614075586e-09 2.4673290947129632e-09 0.0000000000000000e+00  -3.6723086760076959e-09 3.2846930683843632e-09 0.0000000000000000e+00  -3.1525748867788814e-09 4.2079260968756619e-09 0.0000000000000000e+00  -2.2319197316609792e-09 5.0796805258777074e-09 0.0000000000000000e+00  -9.3690099331933146e-10 5.1798867726147997e-09 0.0000000000000000e+00  -1.7187191051204605e-12 1.0961514321573403e-10 0.0000000000000000e+00  1.3499400445252090e-12 -6.5709659568330326e-11 0.0000000000000000e+00  -6.5301508753374852e-10 -4.0242679138246352e-09 0.0000000000000000e+00  -1.6121127912700866e-09 -4.0725920729020745e-09 0.0000000000000000e+00  -2.3853399779710528e-09 -3.5320035705523993e-09 0.0000000000000000e+00  -2.9155615730229208e-09 -2.8908308252441906e-09 0.0000000000000000e+00  -3.2436734922312708e-09 -2.2658542844609086e-09 0.0000000000000000e+00  -3.4300462075579792e-09 -1.7011080703894855e-09 0.0000000000000000e+00  -3.5276441188488613e-09 -1.2056217011587183e-09 0.0000000000000000e+00  -3.5749997718152505e-09 -7.6941386291120702e-10 0.0000000000000000e+00  -3.5951313266533551e-09 -3.7430828149544852e-10 0.0000000000000000e+00  -3.6004261431640067e-09 -1.6960063649849177e-14 0.0000000000000000e+00  -3.5947564799318268e-09 3.7422156804824795e-10 0.0000000000000000e+00  -3.5743159683666741e-09 7.6919431820247058e-10 0.0000000000000000e+00  -3.5268045985867934e-09 1.2051901989115307e-09 0.0000000000000000e+00  -3.4288694557487471e-09 1.7000882488370107e-09 0.0000000000000000e+00  -3.2427082013784705e-09 2.2640236952091313e-09 0.0000000000000000e+00  -2.9148003251669528e-09 2.8881166102547312e-09 0.0000000000000000e+00  -2.3843680969619732e-09 3.5267982274652635e-09 0.0000000000000000e+00  -1.6119551664238561e-09 4.0704137455531918e-09 0.0000000000000000e+00  -6.5373269060024947e-10 4.0276989901633830e-09 0.0000000000000000e+00  -6.4650755437939278e-13 8.1980303505040653e-11 0.0000000000000000e+00  1.0782753763284849e-12 -5.1208010113347227e-11 0.0000000000000000e+00  -4.8767295759249143e-10 -3.1803396291537297e-09 0.0000000000000000e+00  -1.2280884831438303e-09 -3.2744366820267685e-09 0.0000000000000000e+00  -1.8711223448233842e-09 -2.9221901410673219e-09 0.0000000000000000e+00  -2.3633628473955578e-09 -2.4703741885344650e-09 0.0000000000000000e+00  -2.7118600324049798e-09 -1.9962004485580893e-09 0.0000000000000000e+00  -2.9441326032928516e-09 -1.5384927580236916e-09 0.0000000000000000e+00  -3.0911071510561707e-09 -1.1131454656616231e-09 0.0000000000000000e+00  -3.1784001599093484e-09 -7.2078302647718307e-10 0.0000000000000000e+00  -3.2238513323244438e-09 -3.5372189020919784e-10 0.0000000000000000e+00  -3.2378188052422277e-09 -1.6025477865202960e-13 0.0000000000000000e+00  -3.2236314180086860e-09 3.5335975441438953e-10 0.0000000000000000e+00  -3.1779784450644988e-09 7.2029130073649194e-10 0.0000000000000000e+00  -3.0905870429903347e-09 1.1124514167273473e-09 0.0000000000000000e+00  -2.9435390846327776e-09 1.5374567219414246e-09 0.0000000000000000e+00  -2.7112090490700053e-09 1.9943427963874409e-09 0.0000000000000000e+00  -2.3629026516982955e-09 2.4671058974337302e-09 0.0000000000000000e+00  -1.8713882929188802e-09 2.9177715627953571e-09 0.0000000000000000e+00  -1.2293335065788683e-09 3.2747088550243867e-09 0.0000000000000000e+00  -4.8859288699133134e-10 3.1846779881264894e-09 0.0000000000000000e+00  -1.0339312800987704e-13 6.2902247962103253e-11 0.0000000000000000e+00  8.8641965934114939e-13 -4.0217710087047254e-11 0.0000000000000000e+00  -3.8303253318507996e-10 -2.5289325282190534e-09 0.0000000000000000e+00  -9.7673467177069561e-10 -2.6315367679094152e-09 0.0000000000000000e+00  -1.5161368944157779e-09 -2.3911468937485141e-09 0.0000000000000000e+00  -1.9575102618198057e-09 -2.0659711059052486e-09 0.0000000000000000e+00  -2.2962921405636141e-09 -1.7066968950908507e-09 0.0000000000000000e+00  -2.5428299840188180e-09 -1.3416622057648043e-09 0.0000000000000000e+00  -2.7130065962272425e-09 -9.8638479211341182e-10 0.0000000000000000e+00  -2.8223578310328552e-09 -6.4618963324565161e-10 0.0000000000000000e+00  -2.8829800383908124e-09 -3.1941067630105527e-10 0.0000000000000000e+00  -2.9023143471562298e-09 -2.6937406763518679e-13 0.0000000000000000e+00  -2.8828490910812832e-09 3.1883857513179708e-10 0.0000000000000000e+00  -2.8221110323871516e-09 6.4550734412506836e-10 0.0000000000000000e+00  -2.7126821120252900e-09 9.8549024366944858e-10 0.0000000000000000e+00  -2.5424976527103399e-09 1.3404312203325183e-09 0.0000000000000000e+00  -2.2960530088614766e-09 1.7049577026351397e-09 0.0000000000000000e+00  -1.9575234211817011e-09 2.0635193630893624e-09 0.0000000000000000e+00  -1.5167718889738221e-09 2.3882707185720538e-09 0.0000000000000000e+00  -9.7808986995872505e-10 2.6327396535819713e-09 0.0000000000000000e+00  -3.8387182029882694e-10 2.5328175961551115e-09 0.0000000000000000e+00  1.4919277852433435e-13 4.9146728254221073e-11 0.0000000000000000e+00  7.4506244416239382e-13 -3.1464709017204625e-11 0.0000000000000000e+00  -3.1291039338608197e-10 -2.0043692465515332e-09 0.0000000000000000e+00  -8.0441659670549829e-10 -2.1000042698339311e-09 0.0000000000000000e+00  -1.2639812866491341e-09 -1.9310459937535140e-09 0.0000000000000000e+00  -1.6565442052073247e-09 -1.6934909621142983e-09 0.0000000000000000e+00  -1.9738723644133842e-09 -1.4209820048157727e-09 0.0000000000000000e+00  -2.2177386595280100e-09 -1.1333234886966343e-09 0.0000000000000000e+00  -2.3950790965272684e-09 -8.4338034367126310e-10 0.0000000000000000e+00  -2.5142792315117245e-09 -5.5754931475638647e-10 0.0000000000000000e+00  -2.5825957819032611e-09 -2.7717822762238068e-10 0.0000000000000000e+00  -2.6047920733125639e-09 -3.3959540751462755e-13 0.0000000000000000e+00  -2.5825181018215279e-09 2.7647028025026808e-10 0.0000000000000000e+00  -2.5141396019420377e-09 5.5675116945483246e-10 0.0000000000000000e+00  -2.3949078268651592e-09 8.4241578120887410e-10 0.0000000000000000e+00  -2.2175895979567004e-09 1.1320949514700496e-09 0.0000000000000000e+00  -1.9738601295628549e-09 1.4194007589422783e-09 0.0000000000000000e+00  -1.6568113803188508e-09 1.6915599825260173e-09 0.0000000000000000e+00  -1.2647097833990972e-09 1.9291224883259839e-09 0.0000000000000000e+00  -8.0559651314829093e-10 2.1015909881649946e-09 0.0000000000000000e+00  -3.1358931625470193e-10 2.0077672909177094e-09 0.0000000000000000e+00  2.5133402181420334e-13 3.8606034052728687e-11 0.0000000000000000e+00  6.4092183973226150e-13 -2.4215322038655525e-11 0.0000000000000000e+00  -2.6420762095152163e-10 -1.5672404357873918e-09 0.0000000000000000e+00  -6.8291871330479396e-10 -1.6495048297675998e-09 0.0000000000000000e+00  -1.0818701703409699e-09 -1.5290020753917404e-09 0.0000000000000000e+00  -1.4324607895488020e-09 -1.3546431068928586e-09 0.0000000000000000e+00  -1.7257163062401140e-09 -1.1491914597372348e-09 0.0000000000000000e+00  -1.9593252872411215e-09 -9.2619523861455432e-10 0.0000000000000000e+00  -2.1350831108755140e-09 -6.9546758420975773e-10 0.0000000000000000e+00  -2.2566634660757785e-09 -4.6293157165795578e-10 0.0000000000000000e+00  -2.3278112344371618e-09 -2.3116254281421390e-10 0.0000000000000000e+00  -2.3511937664725748e-09 -3.8481787915393898e-13 0.0000000000000000e+00  -2.3277686849927617e-09 2.3036971637350833e-10 0.0000000000000000e+00  -2.2565915874621977e-09 4.6206794755315767e-10 0.0000000000000000e+00  -2.1350115722799259e-09 6.9448255946287905e-10 0.0000000000000000e+00  -1.9593027611159687e-09 9.2503858077449275e-10 0.0000000000000000e+00  -1.7258310744744445e-09 1.1478368205759046e-09 0.0000000000000000e+00  -1.4328097076872387e-09 1.3531463396758553e-09 0.0000000000000000e+00  -1.0825369672196355e-09 1.5276720804248647e-09 0.0000000000000000e+00  -6.8387135017993583e-10 1.6511878209467938e-09 0.0000000000000000e+00  -2.6473628972859721e-10 1.5702222915856536e-09 0.0000000000000000e+00  3.0114769706328312e-13 3.0145402467725454e-11 0.0000000000000000e+00  5.6281836769206527e-13 -1.8003877476780451e-11 0.0000000000000000e+00  -2.2990741596798743e-10 -1.1917375176904974e-09 0.0000000000000000e+00  -5.9646765258339764e-10 -1.2581485642167031e-09 0.0000000000000000e+00  -9.5011662097438636e-10 -1.1726345629927107e-09 0.0000000000000000e+00  -1.2668253764651770e-09 -1.0461806873653158e-09 0.0000000000000000e+00  -1.5378654063960905e-09 -8.9431652278715455e-10 0.0000000000000000e+00  -1.7590358868107789e-09 -7.2615311923132139e-10 0.0000000000000000e+00  -1.9292598471864895e-09 -5.4881367805532200e-10 0.0000000000000000e+00  -2.0492856044742509e-09 -3.6716382119732694e-10 0.0000000000000000e+00  -2.1205007981791709e-09 -1.8396497916728719e-10 0.0000000000000000e+00  -2.1440821785601578e-09 -4.1195058308145614e-13 0.0000000000000000e+00  -2.1204808461813964e-09 1.8312438790552619e-10 0.0000000000000000e+00  -2.0492568662394929e-09 3.6627350147396094e-10 0.0000000000000000e+00  -1.9292474304105865e-09 5.4784338833629675e-10 0.0000000000000000e+00  -1.7590796214675731e-09 7.2508263901308752e-10 0.0000000000000000e+00  -1.5380281871243861e-09 8.9315376257858404e-10 0.0000000000000000e+00  -1.2671650615318688e-09 1.0449953389577412e-09 0.0000000000000000e+00  -9.5066534097731607e-10 1.1716764869309727e-09 0.0000000000000000e+00  -5.9719816226787689e-10 1.2598196583453106e-09 0.0000000000000000e+00  -2.3030542387150610e-10 1.1943907956984835e-09 0.0000000000000000e+00  3.2727603048365450e-13 2.3097342315968098e-11 0.0000000000000000e+00  5.0338089964754456e-13 -1.2506653036641979e-11 0.0000000000000000e+00  -2.0603512130777298e-10 -8.5968959605233877e-10 0.0000000000000000e+00  -5.3587377209929834e-10 -9.0949396825640122e-10 0.0000000000000000e+00  -8.5670462431412663e-10 -8.5089941996468810e-10 0.0000000000000000e+00  -1.1476281128475347e-09 -7.6271580531988155e-10 0.0000000000000000e+00  -1.4003944879194914e-09 -6.5540223118777681e-10 0.0000000000000000e+00  -1.6099725104889187e-09 -5.3490325145683906e-10 0.0000000000000000e+00  -1.7737280984819865e-09 -4.0611984092157862e-10 0.0000000000000000e+00  -1.8906703653273442e-09 -2.7268850639948979e-10 0.0000000000000000e+00  -1.9606958024439758e-09 -1.3698967224274903e-10 0.0000000000000000e+00  -1.9839986104377903e-09 -4.2661019439865268e-13 0.0000000000000000e+00  -1.9606889534804516e-09 1.3612551107969758e-10 0.0000000000000000e+00  -1.8906655332025259e-09 2.7179306651331241e-10 0.0000000000000000e+00  -1.7737443592071514e-09 4.0517841557353179e-10 0.0000000000000000e+00  -1.6100385872770005e-09 5.3391352401738632e-10 0.0000000000000000e+00  -1.4005517353972099e-09 6.5438667174712488e-10 0.0000000000000000e+00  -1.1479089515661020e-09 7.6174180292657209e-10 0.0000000000000000e+00  -8.5711771059903517e-10 8.5017123306200805e-10 0.0000000000000000e+00  -5.3640101459898057e-10 9.1111863632725066e-10 0.0000000000000000e+00  -2.0631942405055495e-10 8.6209957804866516e-10 0.0000000000000000e+00  3.4408134523246301e-13 1.7025641945025282e-11 0.0000000000000000e+00  4.5779293863844225e-13 -7.4801838831086075e-12 0.0000000000000000e+00  -1.9027584114314449e-10 -5.5737369869620252e-10 0.0000000000000000e+00  -4.9568079952223602e-10 -5.9052120730455500e-10 0.0000000000000000e+00  -7.9425844831720602e-10 -5.5402063246096503e-10 0.0000000000000000e+00  -1.0671399240932695e-09 -4.9812554696150416e-10 0.0000000000000000e+00  -1.3065058116534218e-09 -4.2949542171179060e-10 0.0000000000