<?xml version="1.0"?>
<VTKFile type="UnstructuredGrid"  version="0.1"  >
<UnstructuredGrid>
<Piece  NumberOfPoints="651" NumberOfCells="1200">
<Points>
<DataArray  type="Float64"  NumberOfComponents="3"  format="ascii">0 0 0  50000 0 0  100000 0 0  150000 0 0  200000 0 0  250000 0 0  300000 0 0  350000 0 0  400000 0 0  450000 0 0  500000 0 0  550000 0 0  600000 0 0  650000 0 0  700000 0 0  750000 0 0  800000 0 0  850000 0 0  900000 0 0  950000 0 0  1000000 0 0  0 50000 0  50000 50000 0  100000 50000 0  150000 50000 0  200000 50000 0  250000 50000 0  300000 50000 0  350000 50000 0  400000 50000 0  450000 50000 0  500000 50000 0  550000 50000 0  600000 50000 0  650000 50000 0  700000 50000 0  750000 50000 0  800000 50000 0  850000 50000 0  900000 50000 0  950000 50000 0  1000000 50000 0  0 100000 0  50000 100000 0  100000 100000 0  150000 100000 0  200000 100000 0  250000 100000 0  300000 100000 0  350000 100000 0  400000 100000 0  450000 100000 0  500000 100000 0  550000 100000 0  600000 100000 0  650000 100000 0  700000 100000 0  750000 100000 0  800000 100000 0  850000 100000 0  900000 100000 0  950000 100000 0  1000000 100000 0  0 150000 0  50000 150000 0  100000 150000 0  150000 150000 0  200000 150000 0  250000 150000 0  300000 150000 0  350000 150000 0  400000 150000 0  450000 150000 0  500000 150000 0  550000 150000 0  600000 150000 0  650000 150000 0  700000 150000 0  750000 150000 0  800000 150000 0  850000 150000 0  900000 150000 0  950000 150000 0  1000000 150000 0  0 200000 0  50000 200000 0  100000 200000 0  150000 200000 0  200000 200000 0  250000 200000 0  300000 200000 0  350000 200000 0  400000 200000 0  450000 200000 0  500000 200000 0  550000 200000 0  600000 200000 0  650000 200000 0  700000 200000 0  750000 200000 0  800000 200000 0  850000 200000 0  900000 200000 0  950000 200000 0  1000000 200000 0  0 250000 0  50000 250000 0  100000 250000 0  150000 250000 0  200000 250000 0  250000 250000 0  300000 250000 0  350000 250000 0  400000 250000 0  450000 250000 0  500000 250000 0  550000 250000 0  600000 250000 0  650000 250000 0  700000 250000 0  750000 250000 0  800000 250000 0  850000 250000 0  900000 250000 0  950000 250000 0  1000000 250000 0  0 300000 0  50000 300000 0  100000 300000 0  150000 300000 0  200000 300000 0  250000 300000 0  300000 300000 0  350000 300000 0  400000 300000 0  450000 300000 0  500000 300000 0  550000 300000 0  600000 300000 0  650000 300000 0  700000 300000 0  750000 300000 0  800000 300000 0  850000 300000 0  900000 300000 0  950000 300000 0  1000000 300000 0  0 350000 0  50000 350000 0  100000 350000 0  150000 350000 0  200000 350000 0  250000 350000 0  300000 350000 0  350000 350000 0  400000 350000 0  450000 350000 0  500000 350000 0  550000 350000 0  600000 350000 0  650000 350000 0  700000 350000 0  750000 350000 0  800000 350000 0  850000 350000 0  900000 350000 0  950000 350000 0  1000000 350000 0  0 400000 0  50000 400000 0  100000 400000 0  150000 400000 0  200000 400000 0  250000 400000 0  300000 400000 0  350000 400000 0  400000 400000 0  450000 400000 0  500000 400000 0  550000 400000 0  600000 400000 0  650000 400000 0  700000 400000 0  750000 400000 0  800000 400000 0  850000 400000 0  900000 400000 0  950000 400000 0  1000000 400000 0  0 450000 0  50000 450000 0  100000 450000 0  150000 450000 0  200000 450000 0  250000 450000 0  300000 450000 0  350000 450000 0  400000 450000 0  450000 450000 0  500000 450000 0  550000 450000 0  600000 450000 0  650000 450000 0  700000 450000 0  750000 450000 0  800000 450000 0  850000 450000 0  900000 450000 0  950000 450000 0  1000000 450000 0  0 500000 0  50000 500000 0  100000 500000 0  150000 500000 0  200000 500000 0  250000 500000 0  300000 500000 0  350000 500000 0  400000 500000 0  450000 500000 0  500000 500000 0  550000 500000 0  600000 500000 0  650000 500000 0  700000 500000 0  750000 500000 0  800000 500000 0  850000 500000 0  900000 500000 0  950000 500000 0  1000000 500000 0  0 550000 0  50000 550000 0  100000 550000 0  150000 550000 0  200000 550000 0  250000 550000 0  300000 550000 0  350000 550000 0  400000 550000 0  450000 550000 0  500000 550000 0  550000 550000 0  600000 550000 0  650000 550000 0  700000 550000 0  750000 550000 0  800000 550000 0  850000 550000 0  900000 550000 0  950000 550000 0  1000000 550000 0  0 600000 0  50000 600000 0  100000 600000 0  150000 600000 0  200000 600000 0  250000 600000 0  300000 600000 0  350000 600000 0  400000 600000 0  450000 600000 0  500000 600000 0  550000 600000 0  600000 600000 0  650000 600000 0  700000 600000 0  750000 600000 0  800000 600000 0  850000 600000 0  900000 600000 0  950000 600000 0  1000000 600000 0  0 650000 0  50000 650000 0  100000 650000 0  150000 650000 0  200000 650000 0  250000 650000 0  300000 650000 0  350000 650000 0  400000 650000 0  450000 650000 0  500000 650000 0  550000 650000 0  600000 650000 0  650000 650000 0  700000 650000 0  750000 650000 0  800000 650000 0  850000 650000 0  900000 650000 0  950000 650000 0  1000000 650000 0  0 700000 0  50000 700000 0  100000 700000 0  150000 700000 0  200000 700000 0  250000 700000 0  300000 700000 0  350000 700000 0  400000 700000 0  450000 700000 0  500000 700000 0  550000 700000 0  600000 700000 0  650000 700000 0  700000 700000 0  750000 700000 0  800000 700000 0  850000 700000 0  900000 700000 0  950000 700000 0  1000000 700000 0  0 750000 0  50000 750000 0  100000 750000 0  150000 750000 0  200000 750000 0  250000 750000 0  300000 750000 0  350000 750000 0  400000 750000 0  450000 750000 0  500000 750000 0  550000 750000 0  600000 750000 0  650000 750000 0  700000 750000 0  750000 750000 0  800000 750000 0  850000 750000 0  900000 750000 0  950000 750000 0  1000000 750000 0  0 800000 0  50000 800000 0  100000 800000 0  150000 800000 0  200000 800000 0  250000 800000 0  300000 800000 0  350000 800000 0  400000 800000 0  450000 800000 0  500000 800000 0  550000 800000 0  600000 800000 0  650000 800000 0  700000 800000 0  750000 800000 0  800000 800000 0  850000 800000 0  900000 800000 0  950000 800000 0  1000000 800000 0  0 850000 0  50000 850000 0  100000 850000 0  150000 850000 0  200000 850000 0  250000 850000 0  300000 850000 0  350000 850000 0  400000 850000 0  450000 850000 0  500000 850000 0  550000 850000 0  600000 850000 0  650000 850000 0  700000 850000 0  750000 850000 0  800000 850000 0  850000 850000 0  900000 850000 0  950000 850000 0  1000000 850000 0  0 900000 0  50000 900000 0  100000 900000 0  150000 900000 0  200000 900000 0  250000 900000 0  300000 900000 0  350000 900000 0  400000 900000 0  450000 900000 0  500000 900000 0  550000 900000 0  600000 900000 0  650000 900000 0  700000 900000 0  750000 900000 0  800000 900000 0  850000 900000 0  900000 900000 0  950000 900000 0  1000000 900000 0  0 950000 0  50000 950000 0  100000 950000 0  150000 950000 0  200000 950000 0  250000 950000 0  300000 950000 0  350000 950000 0  400000 950000 0  450000 950000 0  500000 950000 0  550000 950000 0  600000 950000 0  650000 950000 0  700000 950000 0  750000 950000 0  800000 950000 0  850000 950000 0  900000 950000 0  950000 950000 0  1000000 950000 0  0 1000000 0  50000 1000000 0  100000 1000000 0  150000 1000000 0  200000 1000000 0  250000 1000000 0  300000 1000000 0  350000 1000000 0  400000 1000000 0  450000 1000000 0  500000 1000000 0  550000 1000000 0  600000 1000000 0  650000 1000000 0  700000 1000000 0  750000 1000000 0  800000 1000000 0  850000 1000000 0  900000 1000000 0  950000 1000000 0  1000000 1000000 0  0 1050000 0  50000 1050000 0  100000 1050000 0  150000 1050000 0  200000 1050000 0  250000 1050000 0  300000 1050000 0  350000 1050000 0  400000 1050000 0  450000 1050000 0  500000 1050000 0  550000 1050000 0  600000 1050000 0  650000 1050000 0  700000 1050000 0  750000 1050000 0  800000 1050000 0  850000 1050000 0  900000 1050000 0  950000 1050000 0  1000000 1050000 0  0 1100000 0  50000 1100000 0  100000 1100000 0  150000 1100000 0  200000 1100000 0  250000 1100000 0  300000 1100000 0  350000 1100000 0  400000 1100000 0  450000 1100000 0  500000 1100000 0  550000 1100000 0  600000 1100000 0  650000 1100000 0  700000 1100000 0  750000 1100000 0  800000 1100000 0  850000 1100000 0  900000 1100000 0  950000 1100000 0  1000000 1100000 0  0 1150000 0  50000 1150000 0  100000 1150000 0  150000 1150000 0  200000 1150000 0  250000 1150000 0  300000 1150000 0  350000 1150000 0  400000 1150000 0  450000 1150000 0  500000 1150000 0  550000 1150000 0  600000 1150000 0  650000 1150000 0  700000 1150000 0  750000 1150000 0  800000 1150000 0  850000 1150000 0  900000 1150000 0  950000 1150000 0  1000000 1150000 0  0 1200000 0  50000 1200000 0  100000 1200000 0  150000 1200000 0  200000 1200000 0  250000 1200000 0  300000 1200000 0  350000 1200000 0  400000 1200000 0  450000 1200000 0  500000 1200000 0  550000 1200000 0  600000 1200000 0  650000 1200000 0  700000 1200000 0  750000 1200000 0  800000 1200000 0  850000 1200000 0  900000 1200000 0  950000 1200000 0  1000000 1200000 0  0 1250000 0  50000 1250000 0  100000 1250000 0  150000 1250000 0  200000 1250000 0  250000 1250000 0  300000 1250000 0  350000 1250000 0  400000 1250000 0  450000 1250000 0  500000 1250000 0  550000 1250000 0  600000 1250000 0  650000 1250000 0  700000 1250000 0  750000 1250000 0  800000 1250000 0  850000 1250000 0  900000 1250000 0  950000 1250000 0  1000000 1250000 0  0 1300000 0  50000 1300000 0  100000 1300000 0  150000 1300000 0  200000 1300000 0  250000 1300000 0  300000 1300000 0  350000 1300000 0  400000 1300000 0  450000 1300000 0  500000 1300000 0  550000 1300000 0  600000 1300000 0  650000 1300000 0  700000 1300000 0  750000 1300000 0  800000 1300000 0  850000 1300000 0  900000 1300000 0  950000 1300000 0  1000000 1300000 0  0 1350000 0  50000 1350000 0  100000 1350000 0  150000 1350000 0  200000 1350000 0  250000 1350000 0  300000 1350000 0  350000 1350000 0  400000 1350000 0  450000 1350000 0  500000 1350000 0  550000 1350000 0  600000 1350000 0  650000 1350000 0  700000 135
[...]
<PointData  Vectors="f_4501"> 
<DataArray  type="Float64"  Name="f_4501"  NumberOfComponents="3" format="ascii">-1.1805517992728358e-09 -7.5934841751293907e-10 0.0000000000000000e+00  7.9155488438376998e-08 -6.1448383319244157e-10 0.0000000000000000e+00  7.9851646038247712e-08 -1.5070277928076253e-11 0.0000000000000000e+00  7.9822227848715421e-08 1.5686573049874001e-11 0.0000000000000000e+00  7.9887229615625494e-08 4.8217109846203898e-12 0.0000000000000000e+00  7.9909744651696989e-08 4.2529237251956663e-12 0.0000000000000000e+00  7.9922535884936085e-08 2.5838298789321172e-12 0.0000000000000000e+00  7.9930323150460403e-08 1.6533335005202237e-12 0.0000000000000000e+00  7.9934767704917901e-08 1.0260776910133536e-12 0.0000000000000000e+00  7.9936877407657516e-08 5.5372797867521167e-13 0.0000000000000000e+00  7.9937024842204758e-08 1.6308099582298405e-13 0.0000000000000000e+00  7.9935233810889289e-08 -1.9712988874804775e-13 0.0000000000000000e+00  7.9931183713622312e-08 -5.6744487662727676e-13 0.0000000000000000e+00  7.9924065394685939e-08 -9.6736451208953506e-13 0.0000000000000000e+00  7.9912035049921226e-08 -1.3476405346390803e-12 0.0000000000000000e+00  7.9892136905122575e-08 -2.3374205235763715e-12 0.0000000000000000e+00  7.9850520191279161e-08 3.5886936614355315e-12 0.0000000000000000e+00  7.9738967852305618e-08 7.8308865402393447e-12 0.0000000000000000e+00  7.9646053641046609e-08 -5.2441411941821431e-11 0.0000000000000000e+00  7.7281103584704943e-08 2.2933431440404838e-09 0.0000000000000000e+00  -3.4455617846223931e-09 2.7517005157305893e-09 0.0000000000000000e+00  -8.7964260654331336e-10 -7.3806351855909997e-10 0.0000000000000000e+00  -1.0065998544123920e-08 -1.9968262639727230e-08 0.0000000000000000e+00  3.5394740334084378e-09 -6.9536987511094524e-09 0.0000000000000000e+00  7.9508123476423269e-09 -2.9912880818800265e-09 0.0000000000000000e+00  1.1257569755547553e-08 -1.4977318145926527e-09 0.0000000000000000e+00  1.2866786464931178e-08 -8.4205620181830285e-10 0.0000000000000000e+00  1.3868319778803876e-08 -5.2056952497082487e-10 0.0000000000000000e+00  1.4492905606648316e-08 -3.2741953494894185e-10 0.0000000000000000e+00  1.4875304245823513e-08 -1.9772731301340047e-10 0.0000000000000000e+00  1.5083492825042925e-08 -9.9156303555958017e-11 0.0000000000000000e+00  1.5149426160129331e-08 -1.3632403971295735e-11 0.0000000000000000e+00  1.5082709031355085e-08 7.1896343340208498e-11 0.0000000000000000e+00  1.4873712800185339e-08 1.7048309554733202e-10 0.0000000000000000e+00  1.4490247479701964e-08 3.0013141926977400e-10 0.0000000000000000e+00  1.3865860398130403e-08 4.9265895607909767e-10 0.0000000000000000e+00  1.2867310998950604e-08 8.1523684693844025e-10 0.0000000000000000e+00  1.1222422103034534e-08 1.4443761051154943e-09 0.0000000000000000e+00  8.3817136631040786e-09 2.9139826565696983e-09 0.0000000000000000e+00  2.0559410601794333e-09 7.1902295794457849e-09 0.0000000000000000e+00  -8.1265496284768499e-09 2.0863186464110017e-08 0.0000000000000000e+00  -2.5785769489263848e-09 2.3764907527949008e-09 0.0000000000000000e+00  -1.3157785306587909e-10 -2.1265512143610289e-10 0.0000000000000000e+00  -7.8668164174715563e-09 -1.6959130863501281e-08 0.0000000000000000e+00  -1.0295148454214574e-08 -1.0992362439537309e-08 0.0000000000000000e+00  -9.3156492043914154e-09 -6.0751580997627337e-09 0.0000000000000000e+00  -7.4124720426706557e-09 -3.3661953069332422e-09 0.0000000000000000e+00  -6.2154129423222633e-09 -2.0366799017989636e-09 0.0000000000000000e+00  -5.3182312018403000e-09 -1.2818200587570921e-09 0.0000000000000000e+00  -4.7318213445073387e-09 -8.0557400038412869e-10 0.0000000000000000e+00  -4.3566890496461461e-09 -4.7476047342913911e-10 0.0000000000000000e+00  -4.1482546424825622e-09 -2.1789096126675367e-10 0.0000000000000000e+00  -4.0814577786398216e-09 7.2480421181243276e-12 0.0000000000000000e+00  -4.1484606774352439e-09 2.3243257956545068e-10 0.0000000000000000e+00  -4.3568866956758315e-09 4.8939736677598090e-10 0.0000000000000000e+00  -4.7312772866364334e-09 8.2036925909719951e-10 0.0000000000000000e+00  -5.3180104728558888e-09 1.2951721657655298e-09 0.0000000000000000e+00  -6.1926398687388344e-09 2.0485572487099967e-09 0.0000000000000000e+00  -7.4541104667909423e-09 3.3728374479035857e-09 0.0000000000000000e+00  -9.1805263000283069e-09 5.9634738084996115e-09 0.0000000000000000e+00  -1.0557591513444598e-08 1.1388571856520462e-08 0.0000000000000000e+00  -6.9663724873298957e-09 1.7905033316797447e-08 0.0000000000000000e+00  -1.6328689463141001e-10 3.0236007805473737e-10 0.0000000000000000e+00  5.9859701709621957e-12 -1.5492584705570598e-10 0.0000000000000000e+00  -3.3878645322720166e-09 -1.1518744392207477e-08 0.0000000000000000e+00  -6.7341449379668324e-09 -9.9890054103062364e-09 0.0000000000000000e+00  -7.5870947748595253e-09 -6.6256525628589976e-09 0.0000000000000000e+00  -7.3644302173727852e-09 -4.3021446582270830e-09 0.0000000000000000e+00  -6.8872076702617319e-09 -2.8325406921721389e-09 0.0000000000000000e+00  -6.3898078109674451e-09 -1.8661031008265443e-09 0.0000000000000000e+00  -6.0168718834236867e-09 -1.2096369586286062e-09 0.0000000000000000e+00  -5.7548246747505844e-09 -7.2821490408184538e-10 0.0000000000000000e+00  -5.6029213116100071e-09 -3.4220718203452320e-10 0.0000000000000000e+00  -5.5529087611771581e-09 1.4730558251583457e-12 0.0000000000000000e+00  -5.6021274290414415e-09 3.4516068860298314e-10 0.0000000000000000e+00  -5.7531275372391356e-09 7.3109505125968199e-10 0.0000000000000000e+00  -6.0128336936075397e-09 1.2123931267426896e-09 0.0000000000000000e+00  -6.3879756051406185e-09 1.8683567858249911e-09 0.0000000000000000e+00  -6.8691480754146299e-09 2.8300146514797311e-09 0.0000000000000000e+00  -7.3803996056390686e-09 4.3208427764529496e-09 0.0000000000000000e+00  -7.6101641920720258e-09 6.6826669529202940e-09 0.0000000000000000e+00  -6.6022621885422426e-09 1.0023812139156994e-08 0.0000000000000000e+00  -3.2093134011028230e-09 1.1302879004708186e-08 0.0000000000000000e+00  8.4481384305046134e-12 2.2977360870029169e-10 0.0000000000000000e+00  6.3998899824265080e-12 -1.0408326803126169e-10 0.0000000000000000e+00  -1.7543371868826913e-09 -8.0495455432287136e-09 0.0000000000000000e+00  -4.0526530256548952e-09 -7.9335692500056837e-09 0.0000000000000000e+00  -5.3280089575160817e-09 -6.1104686759016764e-09 0.0000000000000000e+00  -5.8011560121515771e-09 -4.4248805616866839e-09 0.0000000000000000e+00  -5.8237434683664287e-09 -3.1173619924746060e-09 0.0000000000000000e+00  -5.6905776336227186e-09 -2.1580375148571417e-09 0.0000000000000000e+00  -5.5327533338663076e-09 -1.4442849530761048e-09 0.0000000000000000e+00  -5.3986444152545539e-09 -8.8673953607155414e-10 0.0000000000000000e+00  -5.3139091168111262e-09 -4.2186067394278024e-10 0.0000000000000000e+00  -5.2847171120512992e-09 3.2926968498015783e-13 0.0000000000000000e+00  -5.3131069811286489e-09 4.2248831882303823e-10 0.0000000000000000e+00  -5.3972455895316364e-09 8.8723777584741825e-10 0.0000000000000000e+00  -5.5296829973168515e-09 1.4444063491628387e-09 0.0000000000000000e+00  -5.6891970950419601e-09 2.1588075050314592e-09 0.0000000000000000e+00  -5.8213229900186424e-09 3.1168573297340108e-09 0.0000000000000000e+00  -5.7960483574073320e-09 4.4205076229299592e-09 0.0000000000000000e+00  -5.3381220338488374e-09 6.1223564438040248e-09 0.0000000000000000e+00  -4.0169924304031423e-09 7.9427507753977861e-09 0.0000000000000000e+00  -1.7172962419202022e-09 8.0111238931507770e-09 0.0000000000000000e+00  -6.8232442306114115e-12 1.4689397589331447e-10 0.0000000000000000e+00  4.8418217894676792e-12 -7.3517969734243128e-11 0.0000000000000000e+00  -1.0665917493553385e-09 -6.0051895233708433e-09 0.0000000000000000e+00  -2.6699822802059330e-09 -6.2984958485575472e-09 0.0000000000000000e+00  -3.8425756562099191e-09 -5.2507726774926294e-09 0.0000000000000000e+00  -4.4998860141891516e-09 -4.0825168379797893e-09 0.0000000000000000e+00  -4.7976598682957058e-09 -3.0548269358120407e-09 0.0000000000000000e+00  -4.9010197706520331e-09 -2.2110077865671807e-09 0.0000000000000000e+00  -4.9095070476179678e-09 -1.5242727171106793e-09 0.0000000000000000e+00  -4.8857741788027026e-09 -9.5429135639769903e-10 0.0000000000000000e+00  -4.8619904136410754e-09 -4.5906425089620374e-10 0.0000000000000000e+00  -4.8523814945098346e-09 2.2273109726817620e-13 0.0000000000000000e+00  -4.8614515993802942e-09 4.5946853292913442e-10 0.0000000000000000e+00  -4.8849222641782029e-09 9.5463304170287510e-10 0.0000000000000000e+00  -4.9081560062261679e-09 1.5243624748817211e-09 0.0000000000000000e+00  -4.8995469931215295e-09 2.2110565560126387e-09 0.0000000000000000e+00  -4.7982485822143207e-09 3.0564939848766905e-09 0.0000000000000000e+00  -4.4972561969275835e-09 4.0828159858083411e-09 0.0000000000000000e+00  -3.8378877160500410e-09 5.2412889612318131e-09 0.0000000000000000e+00  -2.6628783297865324e-09 6.2875060803257833e-09 0.0000000000000000e+00  -1.0599198327024984e-09 6.0051315576304975e-09 0.0000000000000000e+00  2.5274815308585319e-12 9.5145830083024983e-11 0.0000000000000000e+00  3.5967262823436833e-12 -5.5650027916074177e-11 0.0000000000000000e+00  -7.3268839084844954e-10 -4.6460671293611875e-09 0.0000000000000000e+00  -1.9057639164693288e-09 -5.0156122707414998e-09 0.0000000000000000e+00  -2.8810954095536893e-09 -4.3806140900088865e-09 0.0000000000000000e+00  -3.5492214817579960e-09 -3.5852030364557171e-09 0.0000000000000000e+00  -3.9599126772623144e-09 -2.8056599765799580e-09 0.0000000000000000e+00  -4.1904389184448810e-09 -2.1024178436515935e-09 0.0000000000000000e+00  -4.3092278841295181e-09 -1.4875509721498024e-09 0.0000000000000000e+00  -4.3656585216309851e-09 -9.4809326300171998e-10 0.0000000000000000e+00  -4.3890290200836622e-09 -4.6082257922221704e-10 0.0000000000000000e+00  -4.3950875734865614e-09 6.6999738059604653e-14 0.0000000000000000e+00  -4.3887300491921974e-09 4.6092250807747645e-10 0.0000000000000000e+00  -4.3651246674009169e-09 9.4813757423883734e-10 0.0000000000000000e+00  -4.3086647565139371e-09 1.4875528787286754e-09 0.0000000000000000e+00  -4.1895246356012403e-09 2.1020523614084168e-09 0.0000000000000000e+00  -3.9591192024781322e-09 2.8046095163396950e-09 0.0000000000000000e+00  -3.5483018332535039e-09 3.5833578715706949e-09 0.0000000000000000e+00  -2.8789817920466295e-09 4.3764146342607899e-09 0.0000000000000000e+00  -1.9037782800988663e-09 5.0133468439066184e-09 0.0000000000000000e+00  -7.3110730423772138e-10 4.6462009988285347e-09 0.0000000000000000e+00  2.2665623099214447e-12 7.0134669584462319e-11 0.0000000000000000e+00  2.7360255793397662e-12 -4.3097210215750821e-11 0.0000000000000000e+00  -5.4277469850424500e-10 -3.6592820234877079e-09 0.0000000000000000e+00  -1.4413636854615292e-09 -4.0185331867174476e-09 0.0000000000000000e+00  -2.2459783617421258e-09 -3.6132309928412877e-09 0.0000000000000000e+00  -2.8627968451042281e-09 -3.0575396165745522e-09 0.0000000000000000e+00  -3.2983506621171629e-09 -2.4695258852345322e-09 0.0000000000000000e+00  -3.5870767121341045e-09 -1.9016050139923371e-09 0.0000000000000000e+00  -3.7686745363944094e-09 -1.3745423498905634e-09 0.0000000000000000e+00  -3.8758224397525862e-09 -8.8928803985647599e-10 0.0000000000000000e+00  -3.9313191302855999e-09 -4.3611997382472812e-10 0.0000000000000000e+00  -3.9483603043811388e-09 -5.8975304548043726e-14 0.0000000000000000e+00  -3.9311564306974426e-09 4.3598123228460883e-10 0.0000000000000000e+00  -3.8754926000425285e-09 8.8907284253954679e-10 0.0000000000000000e+00  -3.7682726231998844e-09 1.3742229913533108e-09 0.0000000000000000e+00  -3.5865863421390725e-09 1.9010772660328234e-09 0.0000000000000000e+00  -3.2976010998622941e-09 2.4682104262651523e-09 0.0000000000000000e+00  -2.8619981153332936e-09 3.0546330736872734e-09 0.0000000000000000e+00  -2.2455512338416421e-09 3.6094341698449683e-09 0.0000000000000000e+00  -1.4416579622164050e-09 4.0189979882896244e-09 0.0000000000000000e+00  -5.4225860274552011e-10 3.6613631551793211e-09 0.0000000000000000e+00  1.9924037202053223e-12 5.3310398060478650e-11 0.0000000000000000e+00  2.1835347662670205e-12 -3.3699902054445415e-11 0.0000000000000000e+00  -4.2390769867804469e-10 -2.9026998103057314e-09 0.0000000000000000e+00  -1.1403454729584071e-09 -3.2212924800656711e-09 0.0000000000000000e+00  -1.8111511404120493e-09 -2.9494884841923037e-09 0.0000000000000000e+00  -2.3614406578861343e-09 -2.5522419721639034e-09 0.0000000000000000e+00  -2.7835694954636393e-09 -2.1088905097889020e-09 0.0000000000000000e+00  -3.0899864492784782e-09 -1.6574306357261018e-09 0.0000000000000000e+00  -3.3008579658811906e-09 -1.2179879978026338e-09 0.0000000000000000e+00  -3.4359414814335710e-09 -7.9752593508128830e-10 0.0000000000000000e+00  -3.5106631334222973e-09 -3.9401516613466859e-10 0.0000000000000000e+00  -3.5344828748324538e-09 -1.5018766108834164e-13 0.0000000000000000e+00  -3.5105587240534596e-09 3.9369577387581367e-10 0.0000000000000000e+00  -3.4357367082254118e-09 7.9713327256500468e-10 0.0000000000000000e+00  -3.3005552669845779e-09 1.2174229940065676e-09 0.0000000000000000e+00  -3.0896208368558215e-09 1.6565545498164176e-09 0.0000000000000000e+00  -2.7831766269209810e-09 2.1074839556521630e-09 0.0000000000000000e+00  -2.3611658666475139e-09 2.5500265957375473e-09 0.0000000000000000e+00  -1.8113222997669667e-09 2.9471425164181167e-09 0.0000000000000000e+00  -1.1411039541238332e-09 3.2227031434935456e-09 0.0000000000000000e+00  -4.2375262947420186e-10 2.9047829543982464e-09 0.0000000000000000e+00  1.7464629465064155e-12 4.1390227867602855e-11 0.0000000000000000e+00  1.8052710462990841e-12 -2.6279801678182563e-11 0.0000000000000000e+00  -3.4481661289739019e-10 -2.2964282508902093e-09 0.0000000000000000e+00  -9.3536534369714720e-10 -2.5656912525787530e-09 0.0000000000000000e+00  -1.5041784200284435e-09 -2.3774034549119461e-09 0.0000000000000000e+00  -1.9915374851309276e-09 -2.0886977376652297e-09 0.0000000000000000e+00  -2.3856717702198070e-09 -1.7537149580309990e-09 0.0000000000000000e+00  -2.6882540653197701e-09 -1.3989460289122971e-09 0.0000000000000000e+00  -2.9079874306694029e-09 -1.0409637588759065e-09 0.0000000000000000e+00  -3.0554602281655753e-09 -6.8802106916164788e-10 0.0000000000000000e+00  -3.1398837479736379e-09 -3.4190433970118098e-10 0.0000000000000000e+00  -3.1673028991796632e-09 -2.1708430147070419e-13 0.0000000000000000e+00  -3.1398105705527945e-09 3.4144691526191392e-10 0.0000000000000000e+00  -3.0553214570991922e-09 6.8748963907126283e-10 0.0000000000000000e+00  -2.9077909183422663e-09 1.0402814828851862e-09 0.0000000000000000e+00  -2.6880259732355322e-09 1.3979887135260880e-09 0.0000000000000000e+00  -2.3854968187827177e-09 1.7523471161692354e-09 0.0000000000000000e+00  -1.9915771897894800e-09 2.0869156102351846e-09 0.0000000000000000e+00  -1.5045927675959991e-09 2.3759458001321596e-09 0.0000000000000000e+00  -9.3614594920151394e-10 2.5674766332029281e-09 0.0000000000000000e+00  -3.4477440710417617e-10 2.2983381535286300e-09 0.0000000000000000e+00  1.5220681047672805e-12 3.2368574798005356e-11 0.0000000000000000e+00  1.5394965447589126e-12 -2.0174556001299129e-11 0.0000000000000000e+00  -2.9014100081916006e-10 -1.7931375044141767e-09 0.0000000000000000e+00  -7.9151671473979309e-10 -2.0123415038280717e-09 0.0000000000000000e+00  -1.2834681990142753e-09 -1.8795908640839406e-09 0.0000000000000000e+00  -1.7171839448884793e-09 -1.6684980287957265e-09 0.0000000000000000e+00  -2.0803409889102056e-09 -1.4166933472757483e-09 0.0000000000000000e+00  -2.3695952476812538e-09 -1.1423057980364822e-09 0.0000000000000000e+00  -2.5871194121068891e-09 -8.5788746244785871e-10 0.0000000000000000e+00  -2.7374924685250760e-09 -5.7102258020835457e-10 0.0000000000000000e+00  -2.8254411573052349e-09 -2.8503854721768881e-10 0.0000000000000000e+00  -2.8543379418792355e-09 -2.6661020029198145e-13 0.0000000000000000e+00  -2.8253917511910971e-09 2.8448332069093982e-10 0.0000000000000000e+00  -2.7373997203529258e-09 5.7039758642018516e-10 0.0000000000000000e+00  -2.5870007726646806e-09 8.5713626440728777e-10 0.0000000000000000e+00  -2.3694871620203738e-09 1.1413628441872347e-09 0.0000000000000000e+00  -2.0803173153958980e-09 1.4155058927975810e-09 0.0000000000000000e+00  -1.7173592862100556e-09 1.6671273923829686e-09 0.0000000000000000e+00  -1.2839138452075657e-09 1.8786758748714941e-09 0.0000000000000000e+00  -7.9219267091683441e-10 2.0141967352305373e-09 0.0000000000000000e+00  -2.9013860627192164e-10 1.7948498265697049e-09 0.0000000000000000e+00  1.3502739651270163e-12 2.5191197078212494e-11 0.0000000000000000e+00  1.3498412272432526e-12 -1.4970818588037888e-11 0.0000000000000000e+00  -2.5175271806684846e-10 -1.3621250164791081e-09 0.0000000000000000e+00  -6.8949359037851561e-10 -1.5331986483089542e-09 0.0000000000000000e+00  -1.1242945602693988e-09 -1.4398094874996278e-09 0.0000000000000000e+00  -1.5149641097586539e-09 -1.2871495978984376e-09 0.0000000000000000e+00  -1.8497472771930302e-09 -1.1014312899149856e-09 0.0000000000000000e+00  -2.1230385537344042e-09 -8.9487578876376242e-10 0.0000000000000000e+00  -2.3333979057047139e-09 -6.7654857890101320e-10 0.0000000000000000e+00  -2.4817018690798162e-09 -4.5264995439798818e-10 0.0000000000000000e+00  -2.5696801284775411e-09 -2.2671801250427614e-10 0.0000000000000000e+00  -2.5988074948265267e-09 -3.0141577452739394e-13 0.0000000000000000e+00  -2.5696486456990948e-09 2.2609732554096997e-10 0.0000000000000000e+00  -2.4816459117354082e-09 4.5197426410845958e-10 0.0000000000000000e+00  -2.3333357694701967e-09 6.7577929469658848e-10 0.0000000000000000e+00  -2.1230055921695112e-09 8.9398062664360627e-10 0.0000000000000000e+00  -1.8498011201479962e-09 1.1004047882223573e-09 0.0000000000000000e+00  -1.5151760086677919e-09 1.2860770910649463e-09 0.0000000000000000e+00  -1.1246872126512855e-09 1.4392288673980545e-09 0.0000000000000000e+00  -6.9003046611083134e-10 1.5350206262515980e-09 0.0000000000000000e+00  -2.5176271459491400e-10 1.3636637285047586e-09 0.0000000000000000e+00  1.2213462955901175e-12 1.9253429478226939e-11 0.0000000000000000e+00  1.2151774161072900e-12 -1.0384542514920471e-11 0.0000000000000000e+00  -2.2508417899519967e-10 -9.8193482225662327e-10 0.0000000000000000e+00  -6.1813933691561106e-10 -1.1074279693796584e-09 0.0000000000000000e+00  -1.0116882304096170e-09 -1.0438197748997572e-09 0.0000000000000000e+00  -1.3697323107720041e-09 -9.3758472678166622e-10 0.0000000000000000e+00  -1.6812847618258661e-09 -8.0654993482953978e-10 0.0000000000000000e+00  -1.9397838218998773e-09 -6.5872836901215624e-10 0.0000000000000000e+00  -2.1418519001800675e-09 -5.0033476281589535e-10 0.0000000000000000e+00  -2.2861792415094297e-09 -3.3598476005579521e-10 0.0000000000000000e+00  -2.3726078948530522e-09 -1.6871413528091976e-10 0.0000000000000000e+00  -2.4013669201956070e-09 -3.2394680181321385e-13 0.0000000000000000e+00  -2.3725893892283546e-09 1.6805269309100613e-10 0.0000000000000000e+00  -2.2861491754236817e-09 3.3528357062710386e-10 0.0000000000000000e+00  -2.1418262202055241e-09 4.9957163167708800e-10 0.0000000000000000e+00  -1.9397900042914204e-09 6.5789226426311551e-10 0.0000000000000000e+00  -1.6813622764005541e-09 8.0565514525681711e-10 0.0000000000000000e+00  -1.3699230163873772e-09 9.3671622481254793e-10 0.0000000000000000e+00  -1.0119942391015218e-09 1.0434400342975110e-09 0.0000000000000000e+00  -6.1853464462708924e-10 1.1091870244175009e-09 0.0000000000000000e+00  -2.2509588015747203e-10 9.8333974629624024e-10 0.0000000000000000e+00  1.1295269176013317e-12 1.4166031083741815e-11 0.0000000000000000e+00  1.1229272727034186e-12 -6.2039805721810128e-12 0.0000000000000000e+00  -2.0749126670051948e-10 -6.3645458189309862e-10 0.0000000000000000e+00  -5.7087015580782374e-10 -7.1865872196377316e-10 0.0000000000000000e+00  -9.3651537321938120e-10 -6.7915584754513834e-10 0.0000000000000000e+00  -1.2717944660543852e-09 -6.1193033627166065e-10 0.0000000000000000e+00  -1.5663634458198757e-09 -5.2821209269223713e-10 0.000000000000000