<?xml version="1.0"?>
<VTKFile type="UnstructuredGrid"  version="0.1"  >
<UnstructuredGrid>
<Piece  NumberOfPoints="651" NumberOfCells="1200">
<Points>
<DataArray  type="Float64"  NumberOfComponents="3"  format="ascii">0 0 0  50000 0 0  100000 0 0  150000 0 0  200000 0 0  250000 0 0  300000 0 0  350000 0 0  400000 0 0  450000 0 0  500000 0 0  550000 0 0  600000 0 0  650000 0 0  700000 0 0  750000 0 0  800000 0 0  850000 0 0  900000 0 0  950000 0 0  1000000 0 0  0 50000 0  50000 50000 0  100000 50000 0  150000 50000 0  200000 50000 0  250000 50000 0  300000 50000 0  350000 50000 0  400000 50000 0  450000 50000 0  500000 50000 0  550000 50000 0  600000 50000 0  650000 50000 0  700000 50000 0  750000 50000 0  800000 50000 0  850000 50000 0  900000 50000 0  950000 50000 0  1000000 50000 0  0 100000 0  50000 100000 0  100000 100000 0  150000 100000 0  200000 100000 0  250000 100000 0  300000 100000 0  350000 100000 0  400000 100000 0  450000 100000 0  500000 100000 0  550000 100000 0  600000 100000 0  650000 100000 0  700000 100000 0  750000 100000 0  800000 100000 0  850000 100000 0  900000 100000 0  950000 100000 0  1000000 100000 0  0 150000 0  50000 150000 0  100000 150000 0  150000 150000 0  200000 150000 0  250000 150000 0  300000 150000 0  350000 150000 0  400000 150000 0  450000 150000 0  500000 150000 0  550000 150000 0  600000 150000 0  650000 150000 0  700000 150000 0  750000 150000 0  800000 150000 0  850000 150000 0  900000 150000 0  950000 150000 0  1000000 150000 0  0 200000 0  50000 200000 0  100000 200000 0  150000 200000 0  200000 200000 0  250000 200000 0  300000 200000 0  350000 200000 0  400000 200000 0  450000 200000 0  500000 200000 0  550000 200000 0  600000 200000 0  650000 200000 0  700000 200000 0  750000 200000 0  800000 200000 0  850000 200000 0  900000 200000 0  950000 200000 0  1000000 200000 0  0 250000 0  50000 250000 0  100000 250000 0  150000 250000 0  200000 250000 0  250000 250000 0  300000 250000 0  350000 250000 0  400000 250000 0  450000 250000 0  500000 250000 0  550000 250000 0  600000 250000 0  650000 250000 0  700000 250000 0  750000 250000 0  800000 250000 0  850000 250000 0  900000 250000 0  950000 250000 0  1000000 250000 0  0 300000 0  50000 300000 0  100000 300000 0  150000 300000 0  200000 300000 0  250000 300000 0  300000 300000 0  350000 300000 0  400000 300000 0  450000 300000 0  500000 300000 0  550000 300000 0  600000 300000 0  650000 300000 0  700000 300000 0  750000 300000 0  800000 300000 0  850000 300000 0  900000 300000 0  950000 300000 0  1000000 300000 0  0 350000 0  50000 350000 0  100000 350000 0  150000 350000 0  200000 350000 0  250000 350000 0  300000 350000 0  350000 350000 0  400000 350000 0  450000 350000 0  500000 350000 0  550000 350000 0  600000 350000 0  650000 350000 0  700000 350000 0  750000 350000 0  800000 350000 0  850000 350000 0  900000 350000 0  950000 350000 0  1000000 350000 0  0 400000 0  50000 400000 0  100000 400000 0  150000 400000 0  200000 400000 0  250000 400000 0  300000 400000 0  350000 400000 0  400000 400000 0  450000 400000 0  500000 400000 0  550000 400000 0  600000 400000 0  650000 400000 0  700000 400000 0  750000 400000 0  800000 400000 0  850000 400000 0  900000 400000 0  950000 400000 0  1000000 400000 0  0 450000 0  50000 450000 0  100000 450000 0  150000 450000 0  200000 450000 0  250000 450000 0  300000 450000 0  350000 450000 0  400000 450000 0  450000 450000 0  500000 450000 0  550000 450000 0  600000 450000 0  650000 450000 0  700000 450000 0  750000 450000 0  800000 450000 0  850000 450000 0  900000 450000 0  950000 450000 0  1000000 450000 0  0 500000 0  50000 500000 0  100000 500000 0  150000 500000 0  200000 500000 0  250000 500000 0  300000 500000 0  350000 500000 0  400000 500000 0  450000 500000 0  500000 500000 0  550000 500000 0  600000 500000 0  650000 500000 0  700000 500000 0  750000 500000 0  800000 500000 0  850000 500000 0  900000 500000 0  950000 500000 0  1000000 500000 0  0 550000 0  50000 550000 0  100000 550000 0  150000 550000 0  200000 550000 0  250000 550000 0  300000 550000 0  350000 550000 0  400000 550000 0  450000 550000 0  500000 550000 0  550000 550000 0  600000 550000 0  650000 550000 0  700000 550000 0  750000 550000 0  800000 550000 0  850000 550000 0  900000 550000 0  950000 550000 0  1000000 550000 0  0 600000 0  50000 600000 0  100000 600000 0  150000 600000 0  200000 600000 0  250000 600000 0  300000 600000 0  350000 600000 0  400000 600000 0  450000 600000 0  500000 600000 0  550000 600000 0  600000 600000 0  650000 600000 0  700000 600000 0  750000 600000 0  800000 600000 0  850000 600000 0  900000 600000 0  950000 600000 0  1000000 600000 0  0 650000 0  50000 650000 0  100000 650000 0  150000 650000 0  200000 650000 0  250000 650000 0  300000 650000 0  350000 650000 0  400000 650000 0  450000 650000 0  500000 650000 0  550000 650000 0  600000 650000 0  650000 650000 0  700000 650000 0  750000 650000 0  800000 650000 0  850000 650000 0  900000 650000 0  950000 650000 0  1000000 650000 0  0 700000 0  50000 700000 0  100000 700000 0  150000 700000 0  200000 700000 0  250000 700000 0  300000 700000 0  350000 700000 0  400000 700000 0  450000 700000 0  500000 700000 0  550000 700000 0  600000 700000 0  650000 700000 0  700000 700000 0  750000 700000 0  800000 700000 0  850000 700000 0  900000 700000 0  950000 700000 0  1000000 700000 0  0 750000 0  50000 750000 0  100000 750000 0  150000 750000 0  200000 750000 0  250000 750000 0  300000 750000 0  350000 750000 0  400000 750000 0  450000 750000 0  500000 750000 0  550000 750000 0  600000 750000 0  650000 750000 0  700000 750000 0  750000 750000 0  800000 750000 0  850000 750000 0  900000 750000 0  950000 750000 0  1000000 750000 0  0 800000 0  50000 800000 0  100000 800000 0  150000 800000 0  200000 800000 0  250000 800000 0  300000 800000 0  350000 800000 0  400000 800000 0  450000 800000 0  500000 800000 0  550000 800000 0  600000 800000 0  650000 800000 0  700000 800000 0  750000 800000 0  800000 800000 0  850000 800000 0  900000 800000 0  950000 800000 0  1000000 800000 0  0 850000 0  50000 850000 0  100000 850000 0  150000 850000 0  200000 850000 0  250000 850000 0  300000 850000 0  350000 850000 0  400000 850000 0  450000 850000 0  500000 850000 0  550000 850000 0  600000 850000 0  650000 850000 0  700000 850000 0  750000 850000 0  800000 850000 0  850000 850000 0  900000 850000 0  950000 850000 0  1000000 850000 0  0 900000 0  50000 900000 0  100000 900000 0  150000 900000 0  200000 900000 0  250000 900000 0  300000 900000 0  350000 900000 0  400000 900000 0  450000 900000 0  500000 900000 0  550000 900000 0  600000 900000 0  650000 900000 0  700000 900000 0  750000 900000 0  800000 900000 0  850000 900000 0  900000 900000 0  950000 900000 0  1000000 900000 0  0 950000 0  50000 950000 0  100000 950000 0  150000 950000 0  200000 950000 0  250000 950000 0  300000 950000 0  350000 950000 0  400000 950000 0  450000 950000 0  500000 950000 0  550000 950000 0  600000 950000 0  650000 950000 0  700000 950000 0  750000 950000 0  800000 950000 0  850000 950000 0  900000 950000 0  950000 950000 0  1000000 950000 0  0 1000000 0  50000 1000000 0  100000 1000000 0  150000 1000000 0  200000 1000000 0  250000 1000000 0  300000 1000000 0  350000 1000000 0  400000 1000000 0  450000 1000000 0  500000 1000000 0  550000 1000000 0  600000 1000000 0  650000 1000000 0  700000 1000000 0  750000 1000000 0  800000 1000000 0  850000 1000000 0  900000 1000000 0  950000 1000000 0  1000000 1000000 0  0 1050000 0  50000 1050000 0  100000 1050000 0  150000 1050000 0  200000 1050000 0  250000 1050000 0  300000 1050000 0  350000 1050000 0  400000 1050000 0  450000 1050000 0  500000 1050000 0  550000 1050000 0  600000 1050000 0  650000 1050000 0  700000 1050000 0  750000 1050000 0  800000 1050000 0  850000 1050000 0  900000 1050000 0  950000 1050000 0  1000000 1050000 0  0 1100000 0  50000 1100000 0  100000 1100000 0  150000 1100000 0  200000 1100000 0  250000 1100000 0  300000 1100000 0  350000 1100000 0  400000 1100000 0  450000 1100000 0  500000 1100000 0  550000 1100000 0  600000 1100000 0  650000 1100000 0  700000 1100000 0  750000 1100000 0  800000 1100000 0  850000 1100000 0  900000 1100000 0  950000 1100000 0  1000000 1100000 0  0 1150000 0  50000 1150000 0  100000 1150000 0  150000 1150000 0  200000 1150000 0  250000 1150000 0  300000 1150000 0  350000 1150000 0  400000 1150000 0  450000 1150000 0  500000 1150000 0  550000 1150000 0  600000 1150000 0  650000 1150000 0  700000 1150000 0  750000 1150000 0  800000 1150000 0  850000 1150000 0  900000 1150000 0  950000 1150000 0  1000000 1150000 0  0 1200000 0  50000 1200000 0  100000 1200000 0  150000 1200000 0  200000 1200000 0  250000 1200000 0  300000 1200000 0  350000 1200000 0  400000 1200000 0  450000 1200000 0  500000 1200000 0  550000 1200000 0  600000 1200000 0  650000 1200000 0  700000 1200000 0  750000 1200000 0  800000 1200000 0  850000 1200000 0  900000 1200000 0  950000 1200000 0  1000000 1200000 0  0 1250000 0  50000 1250000 0  100000 1250000 0  150000 1250000 0  200000 1250000 0  250000 1250000 0  300000 1250000 0  350000 1250000 0  400000 1250000 0  450000 1250000 0  500000 1250000 0  550000 1250000 0  600000 1250000 0  650000 1250000 0  700000 1250000 0  750000 1250000 0  800000 1250000 0  850000 1250000 0  900000 1250000 0  950000 1250000 0  1000000 1250000 0  0 1300000 0  50000 1300000 0  100000 1300000 0  150000 1300000 0  200000 1300000 0  250000 1300000 0  300000 1300000 0  350000 1300000 0  400000 1300000 0  450000 1300000 0  500000 1300000 0  550000 1300000 0  600000 1300000 0  650000 1300000 0  700000 1300000 0  750000 1300000 0  800000 1300000 0  850000 1300000 0  900000 1300000 0  950000 1300000 0  1000000 1300000 0  0 1350000 0  50000 1350000 0  100000 1350000 0  150000 1350000 0  200000 1350000 0  250000 1350000 0  300000 1350000 0  350000 1350000 0  400000 1350000 0  450000 1350000 0  500000 1350000 0  550000 1350000 0  600000 1350000 0  650000 1350000 0  700000 135
[...]
<PointData  Vectors="f_4501"> 
<DataArray  type="Float64"  Name="f_4501"  NumberOfComponents="3" format="ascii">-1.2259868541952368e-09 -8.8672544475400256e-10 0.0000000000000000e+00  7.9075387341916045e-08 -7.1226276600771639e-10 0.0000000000000000e+00  7.9745046177133500e-08 -8.0021170569947891e-11 0.0000000000000000e+00  7.9730963334217760e-08 -1.6194498795557381e-11 0.0000000000000000e+00  7.9807138531443101e-08 -1.1933470436877567e-11 0.0000000000000000e+00  7.9840456353294033e-08 -5.5060200256414790e-12 0.0000000000000000e+00  7.9859950453371836e-08 -3.2019761316984636e-12 0.0000000000000000e+00  7.9872214473335760e-08 -1.8881112433210788e-12 0.0000000000000000e+00  7.9879414247970725e-08 -9.3570140207651550e-13 0.0000000000000000e+00  7.9882858338207262e-08 -1.5015366939385713e-13 0.0000000000000000e+00  7.9883105426673920e-08 6.1234194919536936e-13 0.0000000000000000e+00  7.9880194988576560e-08 1.4803491114102008e-12 0.0000000000000000e+00  7.9873677407775780e-08 2.6196332849436651e-12 0.0000000000000000e+00  7.9862432767318792e-08 4.3167322843400598e-12 0.0000000000000000e+00  7.9844162019687761e-08 7.0752695013129393e-12 0.0000000000000000e+00  7.9814969123680929e-08 1.1851375287619412e-11 0.0000000000000000e+00  7.9761961505558021e-08 2.7727176813165503e-11 0.0000000000000000e+00  7.9641144820720846e-08 5.9045042815950033e-11 0.0000000000000000e+00  7.9564255807477431e-08 5.7970953614790942e-11 0.0000000000000000e+00  7.7273090174839209e-08 2.4206676760125218e-09 0.0000000000000000e+00  -3.3901999089334312e-09 2.9534789179666575e-09 0.0000000000000000e+00  -9.2813099730373757e-10 -8.3675100777368793e-10 0.0000000000000000e+00  -1.4136498937224198e-08 -1.0131347230465343e-08 0.0000000000000000e+00  -7.0352505063787200e-09 -3.6940520802690130e-09 0.0000000000000000e+00  -5.5500285294050532e-09 -1.5795313548504465e-09 0.0000000000000000e+00  -3.8933170952666408e-09 -8.8994885532981829e-10 0.0000000000000000e+00  -3.0654363069112092e-09 -5.2365872592019804e-10 0.0000000000000000e+00  -2.5408674693878088e-09 -3.2992687693031659e-10 0.0000000000000000e+00  -2.2057429362460506e-09 -2.1006623743656620e-10 0.0000000000000000e+00  -1.9979268949573376e-09 -1.2690170658975766e-10 0.0000000000000000e+00  -1.8842862753891206e-09 -6.2330891831051854e-11 0.0000000000000000e+00  -1.8486422722881540e-09 -5.5887820444176520e-12 0.0000000000000000e+00  -1.8861680220636678e-09 5.1367006447685020e-11 0.0000000000000000e+00  -2.0018266733398680e-09 1.1662686230080364e-10 0.0000000000000000e+00  -2.2119046371644300e-09 2.0113042501648311e-10 0.0000000000000000e+00  -2.5495588546313562e-09 3.2346885027251927e-10 0.0000000000000000e+00  -3.0778453270150035e-09 5.2129313815555111e-10 0.0000000000000000e+00  -3.9151074096609693e-09 8.8258137124774381e-10 0.0000000000000000e+00  -5.2821704105021947e-09 1.6322638900888337e-09 0.0000000000000000e+00  -8.2292333630341740e-09 3.6327987243707361e-09 0.0000000000000000e+00  -1.1803175630125018e-08 1.1417429267412858e-08 0.0000000000000000e+00  -2.5988725538224973e-09 2.5124981598786342e-09 0.0000000000000000e+00  -1.7720086356871850e-10 -2.9705679910963444e-10 0.0000000000000000e+00  -4.1603996600517347e-09 -8.2227201637713689e-09 0.0000000000000000e+00  -5.1865695003474924e-09 -5.2844161573539961e-09 0.0000000000000000e+00  -5.0215633289492088e-09 -2.9918437379139952e-09 0.0000000000000000e+00  -4.1821976087253087e-09 -1.7370935545200271e-09 0.0000000000000000e+00  -3.6610014007866485e-09 -1.0829835972449557e-09 0.0000000000000000e+00  -3.2673856481429780e-09 -6.9667165704637966e-10 0.0000000000000000e+00  -2.9978087279104549e-09 -4.4473140045974053e-10 0.0000000000000000e+00  -2.8235397451644141e-09 -2.6489031066439445e-10 0.0000000000000000e+00  -2.7255945520074516e-09 -1.2284792991497015e-10 0.0000000000000000e+00  -2.6936658532690895e-09 2.8315946915699487e-12 0.0000000000000000e+00  -2.7244035077666243e-09 1.2857442946020014e-10 0.0000000000000000e+00  -2.8207926210626907e-09 2.7077875122183570e-10 0.0000000000000000e+00  -2.9925372438700507e-09 4.5073045944722010e-10 0.0000000000000000e+00  -3.2571890020136336e-09 7.0219367430755177e-10 0.0000000000000000e+00  -3.6407604155977654e-09 1.0865776603734174e-09 0.0000000000000000e+00  -4.1728464210983981e-09 1.7272497278990221e-09 0.0000000000000000e+00  -4.8632109666147486e-09 2.8968774430678989e-09 0.0000000000000000e+00  -5.3114272657455832e-09 5.1953201616715249e-09 0.0000000000000000e+00  -3.7727080236442850e-09 9.2343102010012275e-09 0.0000000000000000e+00  -1.9198782636224881e-10 4.0082964912601600e-10 0.0000000000000000e+00  -2.7029467488117798e-11 -2.3429817423999503e-10 0.0000000000000000e+00  -1.8119803441276605e-09 -6.1330441180277647e-09 0.0000000000000000e+00  -3.3476702008873013e-09 -4.7167054889788479e-09 0.0000000000000000e+00  -3.6794266725304628e-09 -3.1707361986171751e-09 0.0000000000000000e+00  -3.6175942551491301e-09 -2.0999581052142534e-09 0.0000000000000000e+00  -3.4235036776576394e-09 -1.4170225566789172e-09 0.0000000000000000e+00  -3.2171618761159116e-09 -9.5040274663034990e-10 0.0000000000000000e+00  -3.0521289279795612e-09 -6.2259964012614034e-10 0.0000000000000000e+00  -2.9358880945787489e-09 -3.7682317834103045e-10 0.0000000000000000e+00  -2.8673107889094493e-09 -1.7659448680225285e-10 0.0000000000000000e+00  -2.8443385441171031e-09 3.2456398583483403e-12 0.0000000000000000e+00  -2.8660168961177058e-09 1.8307357647458021e-10 0.0000000000000000e+00  -2.9330418560475892e-09 3.8321442426457903e-10 0.0000000000000000e+00  -3.0471785693361622e-09 6.2860886853313508e-10 0.0000000000000000e+00  -3.2088324005645598e-09 9.5501606492743560e-10 0.0000000000000000e+00  -3.4097849931523500e-09 1.4185556280872496e-09 0.0000000000000000e+00  -3.6121502370637632e-09 2.1094315537218250e-09 0.0000000000000000e+00  -3.6835522252966245e-09 3.1588236279616321e-09 0.0000000000000000e+00  -3.2633037717755516e-09 4.6585035129341140e-09 0.0000000000000000e+00  -1.8080165336421552e-09 6.0679408581386833e-09 0.0000000000000000e+00  -4.6498420564237189e-11 3.2687990413675142e-10 0.0000000000000000e+00  -1.3098603230645442e-11 -1.6719794214481403e-10 0.0000000000000000e+00  -1.0356368805141109e-09 -4.4272968541575603e-09 0.0000000000000000e+00  -2.1091415399812634e-09 -3.8048203063979151e-09 0.0000000000000000e+00  -2.6621199640115275e-09 -2.9181337254711613e-09 0.0000000000000000e+00  -2.8808399975623345e-09 -2.1451938830656348e-09 0.0000000000000000e+00  -2.9083144523950386e-09 -1.5347633796079134e-09 0.0000000000000000e+00  -2.8589545843094431e-09 -1.0761180991300037e-09 0.0000000000000000e+00  -2.7937755056106929e-09 -7.2670794839477355e-10 0.0000000000000000e+00  -2.7373915888046451e-09 -4.4919100623683758e-10 0.0000000000000000e+00  -2.7006498764571594e-09 -2.1458418154911211e-10 0.0000000000000000e+00  -2.6876883548407388e-09 3.1364232633253686e-15 0.0000000000000000e+00  -2.6995084494563288e-09 2.1448407199422242e-10 0.0000000000000000e+00  -2.7350093633435303e-09 4.4872185711746539e-10 0.0000000000000000e+00  -2.7900404512178263e-09 7.2544987988145416e-10 0.0000000000000000e+00  -2.8539234872906407e-09 1.0732483811960242e-09 0.0000000000000000e+00  -2.9014470374625740e-09 1.5287124539973751e-09 0.0000000000000000e+00  -2.8766444877818896e-09 2.1334063517347806e-09 0.0000000000000000e+00  -2.6670328161863394e-09 2.9100577595310723e-09 0.0000000000000000e+00  -2.0973899243636668e-09 3.7851032647113521e-09 0.0000000000000000e+00  -1.0570285361539310e-09 4.4475159980125298e-09 0.0000000000000000e+00  -2.9348559656093007e-11 2.1790289850362623e-10 0.0000000000000000e+00  -7.5658515327324825e-12 -1.2413928071481513e-10 0.0000000000000000e+00  -6.7045474808589079e-10 -3.3746099183991365e-09 0.0000000000000000e+00  -1.4405738229131326e-09 -3.0697419861664378e-09 0.0000000000000000e+00  -1.9678375933234594e-09 -2.5324747306143266e-09 0.0000000000000000e+00  -2.2737307662789695e-09 -1.9823709833018617e-09 0.0000000000000000e+00  -2.4177219060480601e-09 -1.4960516006507702e-09 0.0000000000000000e+00  -2.4728785964802528e-09 -1.0909395242592048e-09 0.0000000000000000e+00  -2.4838044946403037e-09 -7.5729600452462762e-10 0.0000000000000000e+00  -2.4777173164227632e-09 -4.7656797570603393e-10 0.0000000000000000e+00  -2.4692882822828568e-09 -2.3006409377874351e-10 0.0000000000000000e+00  -2.4655214773040037e-09 -2.2155415379268828e-13 0.0000000000000000e+00  -2.4684589998253169e-09 2.2949436196530585e-10 0.0000000000000000e+00  -2.4760713024853375e-09 4.7558828786104147e-10 0.0000000000000000e+00  -2.4814511927542741e-09 7.5553052159495871e-10 0.0000000000000000e+00  -2.4701529955831110e-09 1.0880371494524809e-09 0.0000000000000000e+00  -2.4153159360695438e-09 1.4911155970832461e-09 0.0000000000000000e+00  -2.2712536241362426e-09 1.9744377700437792e-09 0.0000000000000000e+00  -1.9709403473624287e-09 2.5202768220270204e-09 0.0000000000000000e+00  -1.4440777740589710e-09 3.0543900827029315e-09 0.0000000000000000e+00  -6.8631159490321899e-10 3.3980560096437209e-09 0.0000000000000000e+00  -1.4185405244485854e-11 1.5528302547402085e-10 0.0000000000000000e+00  -5.0611040535738005e-12 -9.6255929043767943e-11 0.0000000000000000e+00  -4.7598771228354485e-10 -2.6457063817319950e-09 0.0000000000000000e+00  -1.0557011125970762e-09 -2.4769917387121352e-09 0.0000000000000000e+00  -1.5074724571737091e-09 -2.1344506887009623e-09 0.0000000000000000e+00  -1.8203477553647083e-09 -1.7484542480265522e-09 0.0000000000000000e+00  -2.0154585486663759e-09 -1.3732876300063917e-09 0.0000000000000000e+00  -2.1283445341715395e-09 -1.0340472330166971e-09 0.0000000000000000e+00  -2.1891739260689434e-09 -7.3494741589610274e-10 0.0000000000000000e+00  -2.2194926936670843e-09 -4.7009840378810274e-10 0.0000000000000000e+00  -2.2328193514838892e-09 -2.2916973911225126e-10 0.0000000000000000e+00  -2.2363364784199723e-09 -4.2586835841737516e-13 0.0000000000000000e+00  -2.2322953304457841e-09 2.2820363360130754e-10 0.0000000000000000e+00  -2.2185048479464638e-09 4.6877389619905073e-10 0.0000000000000000e+00  -2.1878705649190394e-09 7.3299625558307312e-10 0.0000000000000000e+00  -2.1270484143336668e-09 1.0311435492946889e-09 0.0000000000000000e+00  -2.0146562891900475e-09 1.3691424143787948e-09 0.0000000000000000e+00  -1.8206384034290147e-09 1.7425266440561487e-09 0.0000000000000000e+00  -1.5103800676832619e-09 2.1267347864315889e-09 0.0000000000000000e+00  -1.0593009466309576e-09 2.4689750974637513e-09 0.0000000000000000e+00  -4.8661638043663093e-10 2.6640958670037900e-09 0.0000000000000000e+00  -8.9182366584747383e-12 1.1812796124454482e-10 0.0000000000000000e+00  -3.7785833864460772e-12 -7.5795921174935791e-11 0.0000000000000000e+00  -3.6039806677525737e-10 -2.1031246386400221e-09 0.0000000000000000e+00  -8.1387580559286817e-10 -2.0029384691019992e-09 0.0000000000000000e+00  -1.1946813865942915e-09 -1.7738924806881217e-09 0.0000000000000000e+00  -1.4873376676159682e-09 -1.4986333430453238e-09 0.0000000000000000e+00  -1.6953109782775317e-09 -1.2119699138299543e-09 0.0000000000000000e+00  -1.8351817615341856e-09 -9.3545397265213317e-10 0.0000000000000000e+00  -1.9245187277700586e-09 -6.7790304485386068e-10 0.0000000000000000e+00  -1.9780766704115580e-09 -4.3964686269928783e-10 0.0000000000000000e+00  -2.0061838426945280e-09 -2.1619143295921007e-10 0.0000000000000000e+00  -2.0148058231632263e-09 -6.4881623998930948e-13 0.0000000000000000e+00  -2.0058946751511017e-09 2.1480409489667443e-10 0.0000000000000000e+00  -1.9775628738297458e-09 4.3798868561794852e-10 0.0000000000000000e+00  -1.9239231720700381e-09 6.7578197685686551e-10 0.0000000000000000e+00  -1.8347394885647957e-09 9.3267592863637394e-10 0.0000000000000000e+00  -1.6954057005304799e-09 1.2083665918045077e-09 0.0000000000000000e+00  -1.4883795881680537e-09 1.4941912035654336e-09 0.0000000000000000e+00  -1.1975356409956053e-09 1.7691055035944157e-09 0.0000000000000000e+00  -8.1688060363307420e-10 1.9986295599818503e-09 0.0000000000000000e+00  -3.6779968683846149e-10 2.1177879603194927e-09 0.0000000000000000e+00  -6.1755652123111712e-12 9.2058479332968267e-11 0.0000000000000000e+00  -2.9856210427712603e-12 -5.9954272739941190e-11 0.0000000000000000e+00  -2.8594212761668056e-10 -1.6791212571460676e-09 0.0000000000000000e+00  -6.5297082425547740e-10 -1.6164876774599733e-09 0.0000000000000000e+00  -9.7575745836935012e-10 -1.4573943805600901e-09 0.0000000000000000e+00  -1.2403624015671646e-09 -1.2573669063509002e-09 0.0000000000000000e+00  -1.4435907594842163e-09 -1.0383664108419455e-09 0.0000000000000000e+00  -1.5920624175811812e-09 -8.1658315526055060e-10 0.0000000000000000e+00  -1.6950400781223429e-09 -6.0082665884178428e-10 0.0000000000000000e+00  -1.7615229703721034e-09 -3.9403382346743183e-10 0.0000000000000000e+00  -1.7985078654188441e-09 -1.9514470901698756e-10 0.0000000000000000e+00  -1.8103054928572081e-09 -7.6493190876809474e-13 0.0000000000000000e+00  -1.7983778424267050e-09 1.9355164641061770e-10 0.0000000000000000e+00  -1.7613181598124506e-09 3.9225184333218599e-10 0.0000000000000000e+00  -1.6948734245506263e-09 5.9873630046589769e-10 0.0000000000000000e+00  -1.5921161681350721e-09 8.1407988579607288e-10 0.0000000000000000e+00  -1.4441083582464545e-09 1.0354025936097917e-09 0.0000000000000000e+00  -1.2416210509359723e-09 1.2540671794008967e-09 0.0000000000000000e+00  -9.7826536913463531e-10 1.4543003379183397e-09 0.0000000000000000e+00  -6.5530061409224843e-10 1.6140407807465844e-09 0.0000000000000000e+00  -2.9132671442735135e-10 1.6910597894392584e-09 0.0000000000000000e+00  -4.5717421615387350e-12 7.2666212714185134e-11 0.0000000000000000e+00  -2.4612903245758871e-12 -4.7158026435001715e-11 0.0000000000000000e+00  -2.3542329907321130e-10 -1.3347573489084765e-09 0.0000000000000000e+00  -5.4142970613515856e-10 -1.2942088538685608e-09 0.0000000000000000e+00  -8.1872528392745747e-10 -1.1807435970399000e-09 0.0000000000000000e+00  -1.0557114992955667e-09 -1.0334808839638704e-09 0.0000000000000000e+00  -1.2470687548067597e-09 -8.6632178981195483e-10 0.0000000000000000e+00  -1.3943536921087391e-09 -6.9076398723150093e-10 0.0000000000000000e+00  -1.5017070406499872e-09 -5.1417449549686440e-10 0.0000000000000000e+00  -1.5740333452397843e-09 -3.4015770942043702e-10 0.0000000000000000e+00  -1.6155618013536686e-09 -1.6942732265470942e-10 0.0000000000000000e+00  -1.6290701763409068e-09 -8.1535539087340443e-13 0.0000000000000000e+00  -1.6155302702605601e-09 1.6775563715567977e-10 0.0000000000000000e+00  -1.5740123600814345e-09 3.3836678855773565e-10 0.0000000000000000e+00  -1.5017819010395286e-09 5.1219749766508593e-10 0.0000000000000000e+00  -1.3946511196139525e-09 6.8856036800762470e-10 0.0000000000000000e+00  -1.2477512123677354e-09 8.6390737878376272e-10 0.0000000000000000e+00  -1.0569413710110293e-09 1.0310151129215200e-09 0.0000000000000000e+00  -8.2078204282238287e-10 1.1786663635507614e-09 0.0000000000000000e+00  -5.4317618564773561e-10 1.2927152806373002e-09 0.0000000000000000e+00  -2.3942669998423895e-10 1.3446975773109827e-09 0.0000000000000000e+00  -3.5572480125973828e-12 5.7496181592758261e-11 0.0000000000000000e+00  -2.1045973547582666e-12 -3.6443539006604365e-11 0.0000000000000000e+00  -2.0006699496873817e-10 -1.0458707073238487e-09 0.0000000000000000e+00  -4.6216755456318188e-10 -1.0191766672904008e-09 0.0000000000000000e+00  -7.0447805093553479e-10 -9.3728950084329225e-10 0.0000000000000000e+00  -9.1736073746464625e-10 -8.2860435876689208e-10 0.0000000000000000e+00  -1.0950742017625593e-09 -7.0197969684907631e-10 0.0000000000000000e+00  -1.2366639170586239e-09 -5.6538191126655269e-10 0.0000000000000000e+00  -1.3432745811296237e-09 -4.2449444048706874e-10 0.0000000000000000e+00  -1.4170964757907422e-09 -2.8270225549539281e-10 0.0000000000000000e+00  -1.4603397741985959e-09 -1.4145063626298808e-10 0.0000000000000000e+00  -1.4745718394237747e-09 -8.2624930332130559e-13 0.0000000000000000e+00  -1.4603622839379628e-09 1.3977495152998397e-10 0.0000000000000000e+00  -1.4171720675107742e-09 2.8096096885290828e-10 0.0000000000000000e+00  -1.3434630970219982e-09 4.2265851812672345e-10 0.0000000000000000e+00  -1.2370517021262946e-09 5.6344806067612760e-10 0.0000000000000000e+00  -1.0957633489672544e-09 6.9999267519107221e-10 0.0000000000000000e+00  -9.1843873557584048e-10 8.2671300956259330e-10 0.0000000000000000e+00  -7.0609760417166553e-10 9.3582973657071116e-10 0.0000000000000000e+00  -4.6345495960235247e-10 1.0181974456041950e-09 0.0000000000000000e+00  -2.0305605108196496e-10 1.0543481665470387e-09 0.0000000000000000e+00  -2.8780083920502350e-12 4.5140804815423840e-11 0.0000000000000000e+00  -1.8616258360204433e-12 -2.7181821601216720e-11 0.0000000000000000e+00  -1.7505832956956842e-10 -7.9636714633224914e-10 0.0000000000000000e+00  -4.0545988800379655e-10 -7.7895621842255383e-10 0.0000000000000000e+00  -6.2139357513323942e-10 -7.2026794024692102e-10 0.0000000000000000e+00  -8.1462642419811085e-10 -6.4114106491874926e-10 0.0000000000000000e+00  -9.7958616331671444e-10 -5.4721968437264073e-10 0.0000000000000000e+00  -1.1141025838976602e-09 -4.4392091908359262e-10 0.0000000000000000e+00  -1.2176207702588125e-09 -3.3540954183591403e-10 0.0000000000000000e+00  -1.2906268158583675e-09 -2.2449093246623468e-10 0.0000000000000000e+00  -1.3339626948463296e-09 -1.1273899534531049e-10 0.0000000000000000e+00  -1.3483320946627007e-09 -8.1556287996944339e-13 0.0000000000000000e+00  -1.3340085650605748e-09 1.1109771822650371e-10 0.0000000000000000e+00  -1.2907395248638048e-09 2.2282310714834360e-10 0.0000000000000000e+00  -1.2178406749078186e-09 3.3371082547187095e-10 0.0000000000000000e+00  -1.1144854852100886e-09 4.4220868731353515e-10 0.0000000000000000e+00  -9.8019309127207000e-10 5.4554693857130529e-10 0.0000000000000000e+00  -8.1550134773993861e-10 6.3963423903294910e-10 0.0000000000000000e+00  -6.2262118029937233e-10 7.1918508779302745e-10 0.0000000000000000e+00  -4.0639008838931140e-10 7.7826618644260878e-10 0.0000000000000000e+00  -1.7725805900375345e-10 8.0378305557085725e-10 0.0000000000000000e+00  -2.4072842466578553e-12 3.4728971695373757e-11 0.0000000000000000e+00  -1.7030635969782879e-12 -1.8927929298379666e-11 0.0000000000000000e+00  -1.5762913299345086e-10 -5.7476585097141102e-10 0.0000000000000000e+00  -3.6556770540513928e-10 -5.6403766767903109e-10 0.0000000000000000e+00  -5.6228463692389504e-10 -5.2345116055842662e-10 0.0000000000000000e+00  -7.4045927983645879e-10 -4.6813912272728966e-10 0.0000000000000000e+00  -8.9484287094348226e-10 -4.0161785577658080e-10 0.0000000000000000e+00  -1.0226965437760606e-09 -3.2745339671384256e-10 0.0000000000000000e+00  -1.1225280601302579e-09 -2.4853308006084341e-10 0.0000000000000000e+00  -1.1937986930785525e-09 -1.6696712850307035e-10 0.0000000000000000e+00  -1.2364779150755675e-09 -8.4123375183911879e-11 0.0000000000000000e+00  -1.2506962549782571e-09 -7.9630262770105595e-13 0.0000000000000000e+00  -1.2365266717263201e-09 8.2529684823105194e-11 0.0000000000000000e+00  -1.1939098293775649e-09 1.6537347757663286e-10 0.0000000000000000e+00  -1.1227272604838135e-09 2.4695056106661861e-10 0.0000000000000000e+00  -1.0230179627023253e-09 3.2590968928867966e-10 0.0000000000000000e+00  -8.9532119279274093e-10 4.0016550988516555e-10 0.0000000000000000e+00  -7.4111487873612558e-10 4.6688356525534135e-10 0.0000000000000000e+00  -5.6316491836971598e-10 5.2259780542816841e-10 0.0000000000000000e+00  -3.6621267559019233e-10 5.6351353690489271e-10 0.0000000000000000e+00  -1.5918091123485248e-10 5.8142997811041057e-10 0.0000000000000000e+00  -2.0765476846953774e-12 2.5677463084461924e-11 0.0000000000000000e+00  -1.6128326950820912e-12 -1.1341976697417510e-11 0.0000000000000000e+00  -1.4615154110941840e-10 -3.7230558838304893e-10 0.0000000000000000e+00  -3.3904918817462595e-10 -3.6678925355684675e-10 0.0000000000000000e+00  -5.2269535014444438e-10 -3.4121754996957369e-10 0.0000000000000000e+00  -6.9028161010663594e-10 -3.0612645595587646e-10 0.0000000000000000e+00  -8.3686693379848079e-10 -