<?xml version="1.0"?>
<VTKFile type="UnstructuredGrid"  version="0.1"  >
<UnstructuredGrid>
<Piece  NumberOfPoints="651" NumberOfCells="1200">
<Points>
<DataArray  type="Float64"  NumberOfComponents="3"  format="ascii">0 0 0  50000 0 0  100000 0 0  150000 0 0  200000 0 0  250000 0 0  300000 0 0  350000 0 0  400000 0 0  450000 0 0  500000 0 0  550000 0 0  600000 0 0  650000 0 0  700000 0 0  750000 0 0  800000 0 0  850000 0 0  900000 0 0  950000 0 0  1000000 0 0  0 50000 0  50000 50000 0  100000 50000 0  150000 50000 0  200000 50000 0  250000 50000 0  300000 50000 0  350000 50000 0  400000 50000 0  450000 50000 0  500000 50000 0  550000 50000 0  600000 50000 0  650000 50000 0  700000 50000 0  750000 50000 0  800000 50000 0  850000 50000 0  900000 50000 0  950000 50000 0  1000000 50000 0  0 100000 0  50000 100000 0  100000 100000 0  150000 100000 0  200000 100000 0  250000 100000 0  300000 100000 0  350000 100000 0  400000 100000 0  450000 100000 0  500000 100000 0  550000 100000 0  600000 100000 0  650000 100000 0  700000 100000 0  750000 100000 0  800000 100000 0  850000 100000 0  900000 100000 0  950000 100000 0  1000000 100000 0  0 150000 0  50000 150000 0  100000 150000 0  150000 150000 0  200000 150000 0  250000 150000 0  300000 150000 0  350000 150000 0  400000 150000 0  450000 150000 0  500000 150000 0  550000 150000 0  600000 150000 0  650000 150000 0  700000 150000 0  750000 150000 0  800000 150000 0  850000 150000 0  900000 150000 0  950000 150000 0  1000000 150000 0  0 200000 0  50000 200000 0  100000 200000 0  150000 200000 0  200000 200000 0  250000 200000 0  300000 200000 0  350000 200000 0  400000 200000 0  450000 200000 0  500000 200000 0  550000 200000 0  600000 200000 0  650000 200000 0  700000 200000 0  750000 200000 0  800000 200000 0  850000 200000 0  900000 200000 0  950000 200000 0  1000000 200000 0  0 250000 0  50000 250000 0  100000 250000 0  150000 250000 0  200000 250000 0  250000 250000 0  300000 250000 0  350000 250000 0  400000 250000 0  450000 250000 0  500000 250000 0  550000 250000 0  600000 250000 0  650000 250000 0  700000 250000 0  750000 250000 0  800000 250000 0  850000 250000 0  900000 250000 0  950000 250000 0  1000000 250000 0  0 300000 0  50000 300000 0  100000 300000 0  150000 300000 0  200000 300000 0  250000 300000 0  300000 300000 0  350000 300000 0  400000 300000 0  450000 300000 0  500000 300000 0  550000 300000 0  600000 300000 0  650000 300000 0  700000 300000 0  750000 300000 0  800000 300000 0  850000 300000 0  900000 300000 0  950000 300000 0  1000000 300000 0  0 350000 0  50000 350000 0  100000 350000 0  150000 350000 0  200000 350000 0  250000 350000 0  300000 350000 0  350000 350000 0  400000 350000 0  450000 350000 0  500000 350000 0  550000 350000 0  600000 350000 0  650000 350000 0  700000 350000 0  750000 350000 0  800000 350000 0  850000 350000 0  900000 350000 0  950000 350000 0  1000000 350000 0  0 400000 0  50000 400000 0  100000 400000 0  150000 400000 0  200000 400000 0  250000 400000 0  300000 400000 0  350000 400000 0  400000 400000 0  450000 400000 0  500000 400000 0  550000 400000 0  600000 400000 0  650000 400000 0  700000 400000 0  750000 400000 0  800000 400000 0  850000 400000 0  900000 400000 0  950000 400000 0  1000000 400000 0  0 450000 0  50000 450000 0  100000 450000 0  150000 450000 0  200000 450000 0  250000 450000 0  300000 450000 0  350000 450000 0  400000 450000 0  450000 450000 0  500000 450000 0  550000 450000 0  600000 450000 0  650000 450000 0  700000 450000 0  750000 450000 0  800000 450000 0  850000 450000 0  900000 450000 0  950000 450000 0  1000000 450000 0  0 500000 0  50000 500000 0  100000 500000 0  150000 500000 0  200000 500000 0  250000 500000 0  300000 500000 0  350000 500000 0  400000 500000 0  450000 500000 0  500000 500000 0  550000 500000 0  600000 500000 0  650000 500000 0  700000 500000 0  750000 500000 0  800000 500000 0  850000 500000 0  900000 500000 0  950000 500000 0  1000000 500000 0  0 550000 0  50000 550000 0  100000 550000 0  150000 550000 0  200000 550000 0  250000 550000 0  300000 550000 0  350000 550000 0  400000 550000 0  450000 550000 0  500000 550000 0  550000 550000 0  600000 550000 0  650000 550000 0  700000 550000 0  750000 550000 0  800000 550000 0  850000 550000 0  900000 550000 0  950000 550000 0  1000000 550000 0  0 600000 0  50000 600000 0  100000 600000 0  150000 600000 0  200000 600000 0  250000 600000 0  300000 600000 0  350000 600000 0  400000 600000 0  450000 600000 0  500000 600000 0  550000 600000 0  600000 600000 0  650000 600000 0  700000 600000 0  750000 600000 0  800000 600000 0  850000 600000 0  900000 600000 0  950000 600000 0  1000000 600000 0  0 650000 0  50000 650000 0  100000 650000 0  150000 650000 0  200000 650000 0  250000 650000 0  300000 650000 0  350000 650000 0  400000 650000 0  450000 650000 0  500000 650000 0  550000 650000 0  600000 650000 0  650000 650000 0  700000 650000 0  750000 650000 0  800000 650000 0  850000 650000 0  900000 650000 0  950000 650000 0  1000000 650000 0  0 700000 0  50000 700000 0  100000 700000 0  150000 700000 0  200000 700000 0  250000 700000 0  300000 700000 0  350000 700000 0  400000 700000 0  450000 700000 0  500000 700000 0  550000 700000 0  600000 700000 0  650000 700000 0  700000 700000 0  750000 700000 0  800000 700000 0  850000 700000 0  900000 700000 0  950000 700000 0  1000000 700000 0  0 750000 0  50000 750000 0  100000 750000 0  150000 750000 0  200000 750000 0  250000 750000 0  300000 750000 0  350000 750000 0  400000 750000 0  450000 750000 0  500000 750000 0  550000 750000 0  600000 750000 0  650000 750000 0  700000 750000 0  750000 750000 0  800000 750000 0  850000 750000 0  900000 750000 0  950000 750000 0  1000000 750000 0  0 800000 0  50000 800000 0  100000 800000 0  150000 800000 0  200000 800000 0  250000 800000 0  300000 800000 0  350000 800000 0  400000 800000 0  450000 800000 0  500000 800000 0  550000 800000 0  600000 800000 0  650000 800000 0  700000 800000 0  750000 800000 0  800000 800000 0  850000 800000 0  900000 800000 0  950000 800000 0  1000000 800000 0  0 850000 0  50000 850000 0  100000 850000 0  150000 850000 0  200000 850000 0  250000 850000 0  300000 850000 0  350000 850000 0  400000 850000 0  450000 850000 0  500000 850000 0  550000 850000 0  600000 850000 0  650000 850000 0  700000 850000 0  750000 850000 0  800000 850000 0  850000 850000 0  900000 850000 0  950000 850000 0  1000000 850000 0  0 900000 0  50000 900000 0  100000 900000 0  150000 900000 0  200000 900000 0  250000 900000 0  300000 900000 0  350000 900000 0  400000 900000 0  450000 900000 0  500000 900000 0  550000 900000 0  600000 900000 0  650000 900000 0  700000 900000 0  750000 900000 0  800000 900000 0  850000 900000 0  900000 900000 0  950000 900000 0  1000000 900000 0  0 950000 0  50000 950000 0  100000 950000 0  150000 950000 0  200000 950000 0  250000 950000 0  300000 950000 0  350000 950000 0  400000 950000 0  450000 950000 0  500000 950000 0  550000 950000 0  600000 950000 0  650000 950000 0  700000 950000 0  750000 950000 0  800000 950000 0  850000 950000 0  900000 950000 0  950000 950000 0  1000000 950000 0  0 1000000 0  50000 1000000 0  100000 1000000 0  150000 1000000 0  200000 1000000 0  250000 1000000 0  300000 1000000 0  350000 1000000 0  400000 1000000 0  450000 1000000 0  500000 1000000 0  550000 1000000 0  600000 1000000 0  650000 1000000 0  700000 1000000 0  750000 1000000 0  800000 1000000 0  850000 1000000 0  900000 1000000 0  950000 1000000 0  1000000 1000000 0  0 1050000 0  50000 1050000 0  100000 1050000 0  150000 1050000 0  200000 1050000 0  250000 1050000 0  300000 1050000 0  350000 1050000 0  400000 1050000 0  450000 1050000 0  500000 1050000 0  550000 1050000 0  600000 1050000 0  650000 1050000 0  700000 1050000 0  750000 1050000 0  800000 1050000 0  850000 1050000 0  900000 1050000 0  950000 1050000 0  1000000 1050000 0  0 1100000 0  50000 1100000 0  100000 1100000 0  150000 1100000 0  200000 1100000 0  250000 1100000 0  300000 1100000 0  350000 1100000 0  400000 1100000 0  450000 1100000 0  500000 1100000 0  550000 1100000 0  600000 1100000 0  650000 1100000 0  700000 1100000 0  750000 1100000 0  800000 1100000 0  850000 1100000 0  900000 1100000 0  950000 1100000 0  1000000 1100000 0  0 1150000 0  50000 1150000 0  100000 1150000 0  150000 1150000 0  200000 1150000 0  250000 1150000 0  300000 1150000 0  350000 1150000 0  400000 1150000 0  450000 1150000 0  500000 1150000 0  550000 1150000 0  600000 1150000 0  650000 1150000 0  700000 1150000 0  750000 1150000 0  800000 1150000 0  850000 1150000 0  900000 1150000 0  950000 1150000 0  1000000 1150000 0  0 1200000 0  50000 1200000 0  100000 1200000 0  150000 1200000 0  200000 1200000 0  250000 1200000 0  300000 1200000 0  350000 1200000 0  400000 1200000 0  450000 1200000 0  500000 1200000 0  550000 1200000 0  600000 1200000 0  650000 1200000 0  700000 1200000 0  750000 1200000 0  800000 1200000 0  850000 1200000 0  900000 1200000 0  950000 1200000 0  1000000 1200000 0  0 1250000 0  50000 1250000 0  100000 1250000 0  150000 1250000 0  200000 1250000 0  250000 1250000 0  300000 1250000 0  350000 1250000 0  400000 1250000 0  450000 1250000 0  500000 1250000 0  550000 1250000 0  600000 1250000 0  650000 1250000 0  700000 1250000 0  750000 1250000 0  800000 1250000 0  850000 1250000 0  900000 1250000 0  950000 1250000 0  1000000 1250000 0  0 1300000 0  50000 1300000 0  100000 1300000 0  150000 1300000 0  200000 1300000 0  250000 1300000 0  300000 1300000 0  350000 1300000 0  400000 1300000 0  450000 1300000 0  500000 1300000 0  550000 1300000 0  600000 1300000 0  650000 1300000 0  700000 1300000 0  750000 1300000 0  800000 1300000 0  850000 1300000 0  900000 1300000 0  950000 1300000 0  1000000 1300000 0  0 1350000 0  50000 1350000 0  100000 1350000 0  150000 1350000 0  200000 1350000 0  250000 1350000 0  300000 1350000 0  350000 1350000 0  400000 1350000 0  450000 1350000 0  500000 1350000 0  550000 1350000 0  600000 1350000 0  650000 1350000 0  700000 135
[...]
<PointData  Vectors="f_4501"> 
<DataArray  type="Float64"  Name="f_4501"  NumberOfComponents="3" format="ascii">-1.1840442001186591e-09 -7.8105918726076059e-10 0.0000000000000000e+00  7.9146214733312562e-08 -6.3282129347828336e-10 0.0000000000000000e+00  7.9837410425642719e-08 -2.6377592869889162e-11 0.0000000000000000e+00  7.9808159616074489e-08 9.7137527737974267e-12 0.0000000000000000e+00  7.9875083456085078e-08 1.8082281416402726e-12 0.0000000000000000e+00  7.9899135782782950e-08 2.6213811301030437e-12 0.0000000000000000e+00  7.9913003166258995e-08 1.6407733907330702e-12 0.0000000000000000e+00  7.9921496608661627e-08 1.0996920056977029e-12 0.0000000000000000e+00  7.9926371021201347e-08 7.3245982953288038e-13 0.0000000000000000e+00  7.9928689870227790e-08 4.6160027532416304e-13 0.0000000000000000e+00  7.9928853424445043e-08 2.5424164828575681e-13 0.0000000000000000e+00  7.9926888031738406e-08 8.9939919173892347e-14 0.0000000000000000e+00  7.9922452474503917e-08 -3.6734925620865991e-14 0.0000000000000000e+00  7.9914690794275988e-08 -9.0975138435129048e-14 0.0000000000000000e+00  7.9901685675877888e-08 8.2618655793029879e-14 0.0000000000000000e+00  7.9880383062447158e-08 1.0411999891674162e-13 0.0000000000000000e+00  7.9837252254345389e-08 7.9703018024048329e-12 0.0000000000000000e+00  7.9724777494174274e-08 1.7641253475532750e-11 0.0000000000000000e+00  7.9636546152884981e-08 -3.5858932294592682e-11 0.0000000000000000e+00  7.7277628814110391e-08 2.3167671473230148e-09 0.0000000000000000e+00  -3.4439604169945869e-09 2.7843424387296992e-09 0.0000000000000000e+00  -8.8515614839340782e-10 -7.5338508587112039e-10 0.0000000000000000e+00  -1.1082349631845852e-08 -1.8483895102981073e-08 0.0000000000000000e+00  1.0316273358109690e-09 -6.1294172931844632e-09 0.0000000000000000e+00  4.6961546752258091e-09 -2.6875385612485764e-09 0.0000000000000000e+00  7.6483239195787322e-09 -1.3728281258130996e-09 0.0000000000000000e+00  9.0812746566252529e-09 -7.8274474751798470e-10 0.0000000000000000e+00  9.9828549784303400e-09 -4.8870111186099628e-10 0.0000000000000000e+00  1.0547672860540104e-08 -3.1034717834835526e-10 0.0000000000000000e+00  1.0894444471758124e-08 -1.8976528339668395e-10 0.0000000000000000e+00  1.1083514480735969e-08 -9.7727317018349997e-11 0.0000000000000000e+00  1.1143367468893111e-08 -1.7674605265242114e-11 0.0000000000000000e+00  1.1082573532292543e-08 6.2413231129675494e-11 0.0000000000000000e+00  1.0892517673987058e-08 1.5456727531864605e-10 0.0000000000000000e+00  1.0544493450295314e-08 2.7530493176626611e-10 0.0000000000000000e+00  9.9795423942736226e-09 4.5353001844767695e-10 0.0000000000000000e+00  9.0803987257539298e-09 7.4946373776668124e-10 0.0000000000000000e+00  7.6102796559176342e-09 1.3175370576134947e-09 0.0000000000000000e+00  5.1140309598501423e-09 2.6131364639996105e-09 0.0000000000000000e+00  -4.1156444417861040e-10 6.3292752262038774e-09 0.0000000000000000e+00  -9.1217977962119849e-09 1.9384844973592188e-08 0.0000000000000000e+00  -2.5831970124470108e-09 2.4003179661994299e-09 0.0000000000000000e+00  -1.3706745022482618e-10 -2.2271893162100186e-10 0.0000000000000000e+00  -7.3692533285892713e-09 -1.5092869378490395e-08 0.0000000000000000e+00  -9.5451527498988775e-09 -9.5536797868437647e-09 0.0000000000000000e+00  -8.8101705435259929e-09 -5.3324328156248214e-09 0.0000000000000000e+00  -7.1803602486424753e-09 -2.9768855855926651e-09 0.0000000000000000e+00  -6.1720967529290143e-09 -1.8144711733207917e-09 0.0000000000000000e+00  -5.4009617800626933e-09 -1.1463056180730216e-09 0.0000000000000000e+00  -4.8951614052724942e-09 -7.2111094261333865e-10 0.0000000000000000e+00  -4.5703097058531879e-09 -4.2396449958950484e-10 0.0000000000000000e+00  -4.3893913303547635e-09 -1.9227762429688089e-10 0.0000000000000000e+00  -4.3313373331880355e-09 1.1249257058367036e-11 0.0000000000000000e+00  -4.3895118375973935e-09 2.1483870185866528e-10 0.0000000000000000e+00  -4.5703251143289478e-09 4.4668398731999266e-10 0.0000000000000000e+00  -4.8943660719954082e-09 7.4408686012379744e-10 0.0000000000000000e+00  -5.4002073711941369e-09 1.1681331979810334e-09 0.0000000000000000e+00  -6.1496006102662740e-09 1.8351789601492174e-09 0.0000000000000000e+00  -7.2198613247923582e-09 2.9929151098895734e-09 0.0000000000000000e+00  -8.6685728187766219e-09 5.2211648314429760e-09 0.0000000000000000e+00  -9.7916547675431302e-09 9.8870190631101391e-09 0.0000000000000000e+00  -6.4594024670436158e-09 1.6095049748541440e-08 0.0000000000000000e+00  -1.6589146273569809e-10 3.1494156030099709e-10 0.0000000000000000e+00  9.3032084922123561e-13 -1.6582969282647031e-10 0.0000000000000000e+00  -3.0136155199449798e-09 -1.0372414472686925e-08 0.0000000000000000e+00  -5.9126920875661726e-09 -8.6917323738006986e-09 0.0000000000000000e+00  -6.6496446020336252e-09 -5.7568603465796553e-09 0.0000000000000000e+00  -6.4709058450998485e-09 -3.7657794285726890e-09 0.0000000000000000e+00  -6.0772010484207153e-09 -2.4950992564544216e-09 0.0000000000000000e+00  -5.6550396379277558e-09 -1.6512650493979020e-09 0.0000000000000000e+00  -5.3378186109521216e-09 -1.0739232869967247e-09 0.0000000000000000e+00  -5.1136237412300131e-09 -6.4819615588163136e-10 0.0000000000000000e+00  -4.9832569080670531e-09 -3.0549072131439780e-10 0.0000000000000000e+00  -4.9402192269559520e-09 2.7462329452262045e-13 0.0000000000000000e+00  -4.9823564160973448e-09 3.0605000995909022e-10 0.0000000000000000e+00  -5.1116706816303367e-09 6.4870208489603666e-10 0.0000000000000000e+00  -5.3335022726878198e-09 1.0743307789596369e-09 0.0000000000000000e+00  -5.6524188391511651e-09 1.6511220857816305e-09 0.0000000000000000e+00  -6.0583155217176841e-09 2.4903753785367079e-09 0.0000000000000000e+00  -6.4841830605311341e-09 3.7793182886495823e-09 0.0000000000000000e+00  -6.6654852925875432e-09 5.8026402071195760e-09 0.0000000000000000e+00  -5.8022606744237558e-09 8.6948014790399041e-09 0.0000000000000000e+00  -2.8841087458030695e-09 1.0175796801093463e-08 0.0000000000000000e+00  1.9400862221254039e-12 2.4174510954375711e-10 0.0000000000000000e+00  3.1066976629884049e-12 -1.1341405346768253e-10 0.0000000000000000e+00  -1.5964005531709325e-09 -7.3091014160202075e-09 0.0000000000000000e+00  -3.5940158904773755e-09 -6.9141232876309817e-09 0.0000000000000000e+00  -4.6784530257620077e-09 -5.3141288148616788e-09 0.0000000000000000e+00  -5.0910475714860215e-09 -3.8625752085443884e-09 0.0000000000000000e+00  -5.1164903822373313e-09 -2.7308279825330341e-09 0.0000000000000000e+00  -5.0071609344846690e-09 -1.8962891116442976e-09 0.0000000000000000e+00  -4.8752183795819415e-09 -1.2720659892668310e-09 0.0000000000000000e+00  -4.7618790200877530e-09 -7.8220623642317739e-10 0.0000000000000000e+00  -4.6899428124875330e-09 -3.7238006470221750e-10 0.0000000000000000e+00  -4.6650772451561682e-09 4.7403258788959049e-13 0.0000000000000000e+00  -4.6891077960660443e-09 3.7329088219265258e-10 0.0000000000000000e+00  -4.7603453727197978e-09 7.8296103409260408e-10 0.0000000000000000e+00  -4.8720192023161885e-09 1.2724040614275168e-09 0.0000000000000000e+00  -5.0053518856434083e-09 1.8969955084358110e-09 0.0000000000000000e+00  -5.1131852159856180e-09 2.7298367920120181e-09 0.0000000000000000e+00  -5.0848569720672014e-09 3.8562912906438785e-09 0.0000000000000000e+00  -4.6888799787973091e-09 5.3216357986313256e-09 0.0000000000000000e+00  -3.5634923862722917e-09 6.9236302564328348e-09 0.0000000000000000e+00  -1.5684518548649106e-09 7.2794758096161769e-09 0.0000000000000000e+00  -1.1436352226297552e-11 1.5743228614143492e-10 0.0000000000000000e+00  2.8095031748047514e-12 -8.1083703917942725e-11 0.0000000000000000e+00  -9.8506158962345328e-10 -5.4820958214041129e-09 0.0000000000000000e+00  -2.3902638966574297e-09 -5.5156145201331848e-09 0.0000000000000000e+00  -3.3976226533866430e-09 -4.5779737980134973e-09 0.0000000000000000e+00  -3.9646097445088144e-09 -3.5631586656954923e-09 0.0000000000000000e+00  -4.2239115786216844e-09 -2.6719031868360546e-09 0.0000000000000000e+00  -4.3170419830917798e-09 -1.9378694951847727e-09 0.0000000000000000e+00  -4.3275280166993572e-09 -1.3382591948574037e-09 0.0000000000000000e+00  -4.3092391332728538e-09 -8.3884917023418267e-10 0.0000000000000000e+00  -4.2899503006446828e-09 -4.0381028820533248e-10 0.0000000000000000e+00  -4.2820264104768985e-09 2.2160974344775344e-13 0.0000000000000000e+00  -4.2893684896785449e-09 4.0420422308376282e-10 0.0000000000000000e+00  -4.3082561678275796e-09 8.3913283152460551e-10 0.0000000000000000e+00  -4.3259633862484020e-09 1.3382001034947614e-09 0.0000000000000000e+00  -4.3152337349054743e-09 1.9376010052601105e-09 0.0000000000000000e+00  -4.2240306871575513e-09 2.6727470247497934e-09 0.0000000000000000e+00  -3.9615822440447564e-09 3.5623273853788279e-09 0.0000000000000000e+00  -3.3937619705401022e-09 4.5669089671186297e-09 0.0000000000000000e+00  -2.3855469531454744e-09 5.5051306862178862e-09 0.0000000000000000e+00  -9.8142717838921407e-10 5.4847269975687563e-09 0.0000000000000000e+00  -6.7162115099466959e-14 1.0387861806165896e-10 0.0000000000000000e+00  2.2204787228347743e-12 -6.1758483858963294e-11 0.0000000000000000e+00  -6.8239076936325774e-10 -4.2554563477110653e-09 0.0000000000000000e+00  -1.7177230538387623e-09 -4.4056003085131277e-09 0.0000000000000000e+00  -2.5608773031273361e-09 -3.8274706990011311e-09 0.0000000000000000e+00  -3.1386161257507252e-09 -3.1325395629383148e-09 0.0000000000000000e+00  -3.4953626752078041e-09 -2.4539885633507919e-09 0.0000000000000000e+00  -3.6971525663864552e-09 -1.8411384560762893e-09 0.0000000000000000e+00  -3.8022274998815763e-09 -1.3041074491250025e-09 0.0000000000000000e+00  -3.8528633612634753e-09 -8.3188505097282528e-10 0.0000000000000000e+00  -3.8741984845957381e-09 -4.0456583444854835e-10 0.0000000000000000e+00  -3.8797850949525530e-09 2.8280503914417466e-14 0.0000000000000000e+00  -3.8738496169207914e-09 4.0457679467182576e-10 0.0000000000000000e+00  -3.8522297053061030e-09 8.3179360524518927e-10 0.0000000000000000e+00  -3.8014864727384034e-09 1.3038706297035925e-09 0.0000000000000000e+00  -3.6960459503426453e-09 1.8403947505083035e-09 0.0000000000000000e+00  -3.4944218027422735e-09 2.4524641423135496e-09 0.0000000000000000e+00  -3.1377737061668473e-09 3.1301871029170659e-09 0.0000000000000000e+00  -2.5594240268894524e-09 3.8226031684352963e-09 0.0000000000000000e+00  -1.7168571518520972e-09 4.4036116177872266e-09 0.0000000000000000e+00  -6.8209635859473002e-10 4.2573772205216355e-09 0.0000000000000000e+00  4.7516460142765689e-13 7.7324810675265929e-11 0.0000000000000000e+00  1.7246520792847115e-12 -4.8023954718437763e-11 0.0000000000000000e+00  -5.0817774390340840e-10 -3.3590671110535860e-09 0.0000000000000000e+00  -1.3052758980028586e-09 -3.5378349012924783e-09 0.0000000000000000e+00  -2.0044943833306362e-09 -3.1632913942170283e-09 0.0000000000000000e+00  -2.5398268976218720e-09 -2.6750301532887217e-09 0.0000000000000000e+00  -2.9184933424950748e-09 -2.1612271821375789e-09 0.0000000000000000e+00  -3.1703928899387292e-09 -1.6651715451752201e-09 0.0000000000000000e+00  -3.3294668134218031e-09 -1.2044007794532908e-09 0.0000000000000000e+00  -3.4237286536146479e-09 -7.7964077170436752e-10 0.0000000000000000e+00  -3.4727190134667225e-09 -3.8250658697929730e-10 0.0000000000000000e+00  -3.4877720575122790e-09 -1.1138914047666525e-13 0.0000000000000000e+00  -3.4725176122869123e-09 3.8225012241353215e-10 0.0000000000000000e+00  -3.4233336300056549e-09 7.7927367453333724e-10 0.0000000000000000e+00  -3.3289781034119269e-09 1.2038699906593054e-09 0.0000000000000000e+00  -3.1698226503384270e-09 1.6643498304003811e-09 0.0000000000000000e+00  -2.9177780587839939e-09 2.1595937453927086e-09 0.0000000000000000e+00  -2.5392031026691591e-09 2.6719102119059052e-09 0.0000000000000000e+00  -2.0044543459775371e-09 3.1590351655181204e-09 0.0000000000000000e+00  -1.3061645184290217e-09 3.5383220517032406e-09 0.0000000000000000e+00  -5.0846824175974395e-10 3.3623875781972355e-09 0.0000000000000000e+00  7.1191920733145101e-13 5.9134134834667142e-11 0.0000000000000000e+00  1.3944815268290371e-12 -3.7659439799197889e-11 0.0000000000000000e+00  -3.9834823458136298e-10 -2.6687926198980276e-09 0.0000000000000000e+00  -1.0362282517838298e-09 -2.8406708444252677e-09 0.0000000000000000e+00  -1.6214885679968678e-09 -2.5862422820716757e-09 0.0000000000000000e+00  -2.1006500891861461e-09 -2.2356482553735775e-09 0.0000000000000000e+00  -2.4683699505544180e-09 -1.8470220710871635e-09 0.0000000000000000e+00  -2.7357301842133747e-09 -1.4518568054617803e-09 0.0000000000000000e+00  -2.9200877736841973e-09 -1.0672326046214619e-09 0.0000000000000000e+00  -3.0384250070866473e-09 -6.9902981947631541e-10 0.0000000000000000e+00  -3.1039789174655256e-09 -3.4545921406832702e-10 0.0000000000000000e+00  -3.1248832655149415e-09 -2.1573985638955779e-13 0.0000000000000000e+00  -3.1038548398698885e-09 3.4499968632668318e-10 0.0000000000000000e+00  -3.0381868176595741e-09 6.9847370393513920e-10 0.0000000000000000e+00  -2.9197601399275564e-09 1.0664771890125284e-09 0.0000000000000000e+00  -2.7353691968246215e-09 1.4507738466164253e-09 0.0000000000000000e+00  -2.4680528393742157e-09 1.8454233986177765e-09 0.0000000000000000e+00  -2.1005323865496825e-09 2.2333022693767017e-09 0.0000000000000000e+00  -1.6219172311411693e-09 2.5835114968403603e-09 0.0000000000000000e+00  -1.0373645932617498e-09 2.8420632069698526e-09 0.0000000000000000e+00  -3.9875021445947006e-10 2.6718711517325597e-09 0.0000000000000000e+00  7.7342282043259115e-13 4.6101763826425517e-11 0.0000000000000000e+00  1.1617332174330707e-12 -2.9429701277442346e-11 0.0000000000000000e+00  -3.2493048227284515e-10 -2.1138825564694078e-09 0.0000000000000000e+00  -8.5220925917085184e-10 -2.2653611837442223e-09 0.0000000000000000e+00  -1.3500102959662985e-09 -2.0872053197001232e-09 0.0000000000000000e+00  -1.7755505282426395e-09 -1.8315396054824523e-09 0.0000000000000000e+00  -2.1195971657609314e-09 -1.5371616518150696e-09 0.0000000000000000e+00  -2.3838996947291397e-09 -1.2260588878987559e-09 0.0000000000000000e+00  -2.5760099444120451e-09 -9.1236324192994358e-10 0.0000000000000000e+00  -2.7050707395874553e-09 -6.0310335011871267e-10 0.0000000000000000e+00  -2.7790095950149545e-09 -2.9977415968880443e-10 0.0000000000000000e+00  -2.8030289731425275e-09 -2.8591717976227618e-13 0.0000000000000000e+00  -2.7789306435346859e-09 2.9917552243300179e-10 0.0000000000000000e+00  -2.7049255048757627e-09 6.0242017713221305e-10 0.0000000000000000e+00  -2.5758199815700808e-09 9.1151871725102163e-10 0.0000000000000000e+00  -2.3837082417381483e-09 1.2249441858803483e-09 0.0000000000000000e+00  -2.1195079246454973e-09 1.5356691087177260e-09 0.0000000000000000e+00  -1.7757155010062484e-09 1.8296713424154618e-09 0.0000000000000000e+00  -1.3505976135501833e-09 2.0854084490487494e-09 0.0000000000000000e+00  -8.5324585151554589e-10 2.2671158011956141e-09 0.0000000000000000e+00  -3.2529142166775859e-10 2.1166210488953466e-09 0.0000000000000000e+00  7.4950180256749977e-13 3.6157928568680991e-11 0.0000000000000000e+00  9.9500154036586253e-13 -2.2629391797197510e-11 0.0000000000000000e+00  -2.7402112009213745e-10 -1.6520846414840546e-09 0.0000000000000000e+00  -7.2267350619374027e-10 -1.7784713574415151e-09 0.0000000000000000e+00  -1.1542497955192387e-09 -1.6517756940673899e-09 0.0000000000000000e+00  -1.5338222087957877e-09 -1.4643683698163268e-09 0.0000000000000000e+00  -1.8514378305018172e-09 -1.2426571916746313e-09 0.0000000000000000e+00  -2.1044380831640990e-09 -1.0016810248576731e-09 0.0000000000000000e+00  -2.2947563985224649e-09 -7.5219128777723843e-10 0.0000000000000000e+00  -2.4263791439936031e-09 -5.0067763445926819e-10 0.0000000000000000e+00  -2.5033886903678651e-09 -2.4997184214827490e-10 0.0000000000000000e+00  -2.5286947431907296e-09 -3.3401814193749154e-13 0.0000000000000000e+00  -2.5033411230225769e-09 2.4928083983682974e-10 0.0000000000000000e+00  -2.4262945616723370e-09 4.9991563778198941e-10 0.0000000000000000e+00  -2.2946600297709301e-09 7.5130522623186838e-10 0.0000000000000000e+00  -2.1043738606695701e-09 1.0006143557187974e-09 0.0000000000000000e+00  -1.8514886631186634e-09 1.2413721569061070e-09 0.0000000000000000e+00  -1.5340935739381273e-09 1.4629234213716465e-09 0.0000000000000000e+00  -1.1548166693453354e-09 1.6505594233013370e-09 0.0000000000000000e+00  -7.2352904802262194e-10 1.7802993155936426e-09 0.0000000000000000e+00  -2.7431546393202804e-10 1.6545083871691853e-09 0.0000000000000000e+00  7.1365716113895436e-13 2.8201071593228876e-11 0.0000000000000000e+00  8.7358259347128929e-13 -1.6813447184459503e-11 0.0000000000000000e+00  -2.3820466204379490e-10 -1.2558175003212622e-09 0.0000000000000000e+00  -6.3060727900603055e-10 -1.3559847156896477e-09 0.0000000000000000e+00  -1.0127770789216523e-09 -1.2662684073794355e-09 0.0000000000000000e+00  -1.3553198002464187e-09 -1.1304825512948588e-09 0.0000000000000000e+00  -1.6486091507811930e-09 -9.6672513368653580e-10 0.0000000000000000e+00  -1.8879656883372488e-09 -7.8511362334716348e-10 0.0000000000000000e+00  -2.0721938570856031e-09 -5.9343874075219456e-10 0.0000000000000000e+00  -2.2020876377014860e-09 -3.9702275539352932e-10 0.0000000000000000e+00  -2.2791529318742229e-09 -1.9889294058072932e-10 0.0000000000000000e+00  -2.3046692825001453e-09 -3.6497882824500183e-13 0.0000000000000000e+00  -2.2791267982520883e-09 1.9814564015726789e-10 0.0000000000000000e+00  -2.2020449767867803e-09 3.9622312696722876e-10 0.0000000000000000e+00  -2.0721573421254258e-09 5.9255305806621320e-10 0.0000000000000000e+00  -1.8879734978534063e-09 7.8411659756376825e-10 0.0000000000000000e+00  -1.6487223413131761e-09 9.6561839856760724e-10 0.0000000000000000e+00  -1.3556027844160817e-09 1.1293424316491515e-09 0.0000000000000000e+00  -1.0132552170999510e-09 1.2654151819648335e-09 0.0000000000000000e+00  -6.3127114467835368e-10 1.3577840251427512e-09 0.0000000000000000e+00  -2.3843140556738073e-10 1.2579839271438477e-09 0.0000000000000000e+00  6.7965431142649779e-13 2.1588800011618620e-11 0.0000000000000000e+00  7.8488345506592090e-13 -1.1673742018740086e-11 0.0000000000000000e+00  -2.1329202883774552e-10 -9.0571322751087642e-10 0.0000000000000000e+00  -5.6612614780865659e-10 -9.7993439066977461e-10 0.0000000000000000e+00  -9.1255013237212257e-10 -9.1854993976479733e-10 0.0000000000000000e+00  -1.2269527783709589e-09 -8.2392491404575189e-10 0.0000000000000000e+00  -1.5002653739565985e-09 -7.0826872113591788e-10 0.0000000000000000e+00  -1.7269322816527608e-09 -5.7819040730029218e-10 0.0000000000000000e+00  -1.9040680029797000e-09 -4.3904385554121701e-10 0.0000000000000000e+00  -2.0305731422186058e-09 -2.9480130362138422e-10 0.0000000000000000e+00  -2.1063261548787647e-09 -1.4806795343982567e-10 0.0000000000000000e+00  -2.1315336198222653e-09 -3.8333781976392644e-13 0.0000000000000000e+00  -2.1063136086286852e-09 1.4728917324963127e-10 0.0000000000000000e+00  -2.0305561964909494e-09 2.9398749305355814e-10 0.0000000000000000e+00  -1.9040646510158704e-09 4.3817709951337387e-10 0.0000000000000000e+00  -1.7269708358450452e-09 5.7726456614902325e-10 0.0000000000000000e+00  -1.5003866470068350e-09 7.0730212052424036e-10 0.0000000000000000e+00  -1.2271938772040790e-09 8.2299250175767995e-10 0.0000000000000000e+00  -9.1291484024610025e-10 9.1791961021515566e-10 0.0000000000000000e+00  -5.6660867664242590e-10 9.8167502244205886e-10 0.0000000000000000e+00  -2.1345598132965604e-10 9.0768625176210071e-10 0.0000000000000000e+00  6.5424315647049377e-13 1.5903397919495795e-11 0.0000000000000000e+00  7.2112432232868356e-13 -6.9792674070597257e-12 0.0000000000000000e+00  -1.9684859893067438e-10 -5.8717413559648373e-10 0.0000000000000000e+00  -5.2337385779117077e-10 -6.3613163351367162e-10 0.0000000000000000e+00  -8.4557998404959814e-10 -5.9792145237288689e-10 0.0000000000000000e+00  -1.1403122712895054e-09 -5.3797480603373863e-10 0.0000000000000000e+00  -1.3989913863543054e-09 -4.6403424261113541e-10 0.0000000000000000