<?xml version="1.0"?>
<VTKFile type="UnstructuredGrid"  version="0.1"  >
<UnstructuredGrid>
<Piece  NumberOfPoints="651" NumberOfCells="1200">
<Points>
<DataArray  type="Float64"  NumberOfComponents="3"  format="ascii">0 0 0  50000 0 0  100000 0 0  150000 0 0  200000 0 0  250000 0 0  300000 0 0  350000 0 0  400000 0 0  450000 0 0  500000 0 0  550000 0 0  600000 0 0  650000 0 0  700000 0 0  750000 0 0  800000 0 0  850000 0 0  900000 0 0  950000 0 0  1000000 0 0  0 50000 0  50000 50000 0  100000 50000 0  150000 50000 0  200000 50000 0  250000 50000 0  300000 50000 0  350000 50000 0  400000 50000 0  450000 50000 0  500000 50000 0  550000 50000 0  600000 50000 0  650000 50000 0  700000 50000 0  750000 50000 0  800000 50000 0  850000 50000 0  900000 50000 0  950000 50000 0  1000000 50000 0  0 100000 0  50000 100000 0  100000 100000 0  150000 100000 0  200000 100000 0  250000 100000 0  300000 100000 0  350000 100000 0  400000 100000 0  450000 100000 0  500000 100000 0  550000 100000 0  600000 100000 0  650000 100000 0  700000 100000 0  750000 100000 0  800000 100000 0  850000 100000 0  900000 100000 0  950000 100000 0  1000000 100000 0  0 150000 0  50000 150000 0  100000 150000 0  150000 150000 0  200000 150000 0  250000 150000 0  300000 150000 0  350000 150000 0  400000 150000 0  450000 150000 0  500000 150000 0  550000 150000 0  600000 150000 0  650000 150000 0  700000 150000 0  750000 150000 0  800000 150000 0  850000 150000 0  900000 150000 0  950000 150000 0  1000000 150000 0  0 200000 0  50000 200000 0  100000 200000 0  150000 200000 0  200000 200000 0  250000 200000 0  300000 200000 0  350000 200000 0  400000 200000 0  450000 200000 0  500000 200000 0  550000 200000 0  600000 200000 0  650000 200000 0  700000 200000 0  750000 200000 0  800000 200000 0  850000 200000 0  900000 200000 0  950000 200000 0  1000000 200000 0  0 250000 0  50000 250000 0  100000 250000 0  150000 250000 0  200000 250000 0  250000 250000 0  300000 250000 0  350000 250000 0  400000 250000 0  450000 250000 0  500000 250000 0  550000 250000 0  600000 250000 0  650000 250000 0  700000 250000 0  750000 250000 0  800000 250000 0  850000 250000 0  900000 250000 0  950000 250000 0  1000000 250000 0  0 300000 0  50000 300000 0  100000 300000 0  150000 300000 0  200000 300000 0  250000 300000 0  300000 300000 0  350000 300000 0  400000 300000 0  450000 300000 0  500000 300000 0  550000 300000 0  600000 300000 0  650000 300000 0  700000 300000 0  750000 300000 0  800000 300000 0  850000 300000 0  900000 300000 0  950000 300000 0  1000000 300000 0  0 350000 0  50000 350000 0  100000 350000 0  150000 350000 0  200000 350000 0  250000 350000 0  300000 350000 0  350000 350000 0  400000 350000 0  450000 350000 0  500000 350000 0  550000 350000 0  600000 350000 0  650000 350000 0  700000 350000 0  750000 350000 0  800000 350000 0  850000 350000 0  900000 350000 0  950000 350000 0  1000000 350000 0  0 400000 0  50000 400000 0  100000 400000 0  150000 400000 0  200000 400000 0  250000 400000 0  300000 400000 0  350000 400000 0  400000 400000 0  450000 400000 0  500000 400000 0  550000 400000 0  600000 400000 0  650000 400000 0  700000 400000 0  750000 400000 0  800000 400000 0  850000 400000 0  900000 400000 0  950000 400000 0  1000000 400000 0  0 450000 0  50000 450000 0  100000 450000 0  150000 450000 0  200000 450000 0  250000 450000 0  300000 450000 0  350000 450000 0  400000 450000 0  450000 450000 0  500000 450000 0  550000 450000 0  600000 450000 0  650000 450000 0  700000 450000 0  750000 450000 0  800000 450000 0  850000 450000 0  900000 450000 0  950000 450000 0  1000000 450000 0  0 500000 0  50000 500000 0  100000 500000 0  150000 500000 0  200000 500000 0  250000 500000 0  300000 500000 0  350000 500000 0  400000 500000 0  450000 500000 0  500000 500000 0  550000 500000 0  600000 500000 0  650000 500000 0  700000 500000 0  750000 500000 0  800000 500000 0  850000 500000 0  900000 500000 0  950000 500000 0  1000000 500000 0  0 550000 0  50000 550000 0  100000 550000 0  150000 550000 0  200000 550000 0  250000 550000 0  300000 550000 0  350000 550000 0  400000 550000 0  450000 550000 0  500000 550000 0  550000 550000 0  600000 550000 0  650000 550000 0  700000 550000 0  750000 550000 0  800000 550000 0  850000 550000 0  900000 550000 0  950000 550000 0  1000000 550000 0  0 600000 0  50000 600000 0  100000 600000 0  150000 600000 0  200000 600000 0  250000 600000 0  300000 600000 0  350000 600000 0  400000 600000 0  450000 600000 0  500000 600000 0  550000 600000 0  600000 600000 0  650000 600000 0  700000 600000 0  750000 600000 0  800000 600000 0  850000 600000 0  900000 600000 0  950000 600000 0  1000000 600000 0  0 650000 0  50000 650000 0  100000 650000 0  150000 650000 0  200000 650000 0  250000 650000 0  300000 650000 0  350000 650000 0  400000 650000 0  450000 650000 0  500000 650000 0  550000 650000 0  600000 650000 0  650000 650000 0  700000 650000 0  750000 650000 0  800000 650000 0  850000 650000 0  900000 650000 0  950000 650000 0  1000000 650000 0  0 700000 0  50000 700000 0  100000 700000 0  150000 700000 0  200000 700000 0  250000 700000 0  300000 700000 0  350000 700000 0  400000 700000 0  450000 700000 0  500000 700000 0  550000 700000 0  600000 700000 0  650000 700000 0  700000 700000 0  750000 700000 0  800000 700000 0  850000 700000 0  900000 700000 0  950000 700000 0  1000000 700000 0  0 750000 0  50000 750000 0  100000 750000 0  150000 750000 0  200000 750000 0  250000 750000 0  300000 750000 0  350000 750000 0  400000 750000 0  450000 750000 0  500000 750000 0  550000 750000 0  600000 750000 0  650000 750000 0  700000 750000 0  750000 750000 0  800000 750000 0  850000 750000 0  900000 750000 0  950000 750000 0  1000000 750000 0  0 800000 0  50000 800000 0  100000 800000 0  150000 800000 0  200000 800000 0  250000 800000 0  300000 800000 0  350000 800000 0  400000 800000 0  450000 800000 0  500000 800000 0  550000 800000 0  600000 800000 0  650000 800000 0  700000 800000 0  750000 800000 0  800000 800000 0  850000 800000 0  900000 800000 0  950000 800000 0  1000000 800000 0  0 850000 0  50000 850000 0  100000 850000 0  150000 850000 0  200000 850000 0  250000 850000 0  300000 850000 0  350000 850000 0  400000 850000 0  450000 850000 0  500000 850000 0  550000 850000 0  600000 850000 0  650000 850000 0  700000 850000 0  750000 850000 0  800000 850000 0  850000 850000 0  900000 850000 0  950000 850000 0  1000000 850000 0  0 900000 0  50000 900000 0  100000 900000 0  150000 900000 0  200000 900000 0  250000 900000 0  300000 900000 0  350000 900000 0  400000 900000 0  450000 900000 0  500000 900000 0  550000 900000 0  600000 900000 0  650000 900000 0  700000 900000 0  750000 900000 0  800000 900000 0  850000 900000 0  900000 900000 0  950000 900000 0  1000000 900000 0  0 950000 0  50000 950000 0  100000 950000 0  150000 950000 0  200000 950000 0  250000 950000 0  300000 950000 0  350000 950000 0  400000 950000 0  450000 950000 0  500000 950000 0  550000 950000 0  600000 950000 0  650000 950000 0  700000 950000 0  750000 950000 0  800000 950000 0  850000 950000 0  900000 950000 0  950000 950000 0  1000000 950000 0  0 1000000 0  50000 1000000 0  100000 1000000 0  150000 1000000 0  200000 1000000 0  250000 1000000 0  300000 1000000 0  350000 1000000 0  400000 1000000 0  450000 1000000 0  500000 1000000 0  550000 1000000 0  600000 1000000 0  650000 1000000 0  700000 1000000 0  750000 1000000 0  800000 1000000 0  850000 1000000 0  900000 1000000 0  950000 1000000 0  1000000 1000000 0  0 1050000 0  50000 1050000 0  100000 1050000 0  150000 1050000 0  200000 1050000 0  250000 1050000 0  300000 1050000 0  350000 1050000 0  400000 1050000 0  450000 1050000 0  500000 1050000 0  550000 1050000 0  600000 1050000 0  650000 1050000 0  700000 1050000 0  750000 1050000 0  800000 1050000 0  850000 1050000 0  900000 1050000 0  950000 1050000 0  1000000 1050000 0  0 1100000 0  50000 1100000 0  100000 1100000 0  150000 1100000 0  200000 1100000 0  250000 1100000 0  300000 1100000 0  350000 1100000 0  400000 1100000 0  450000 1100000 0  500000 1100000 0  550000 1100000 0  600000 1100000 0  650000 1100000 0  700000 1100000 0  750000 1100000 0  800000 1100000 0  850000 1100000 0  900000 1100000 0  950000 1100000 0  1000000 1100000 0  0 1150000 0  50000 1150000 0  100000 1150000 0  150000 1150000 0  200000 1150000 0  250000 1150000 0  300000 1150000 0  350000 1150000 0  400000 1150000 0  450000 1150000 0  500000 1150000 0  550000 1150000 0  600000 1150000 0  650000 1150000 0  700000 1150000 0  750000 1150000 0  800000 1150000 0  850000 1150000 0  900000 1150000 0  950000 1150000 0  1000000 1150000 0  0 1200000 0  50000 1200000 0  100000 1200000 0  150000 1200000 0  200000 1200000 0  250000 1200000 0  300000 1200000 0  350000 1200000 0  400000 1200000 0  450000 1200000 0  500000 1200000 0  550000 1200000 0  600000 1200000 0  650000 1200000 0  700000 1200000 0  750000 1200000 0  800000 1200000 0  850000 1200000 0  900000 1200000 0  950000 1200000 0  1000000 1200000 0  0 1250000 0  50000 1250000 0  100000 1250000 0  150000 1250000 0  200000 1250000 0  250000 1250000 0  300000 1250000 0  350000 1250000 0  400000 1250000 0  450000 1250000 0  500000 1250000 0  550000 1250000 0  600000 1250000 0  650000 1250000 0  700000 1250000 0  750000 1250000 0  800000 1250000 0  850000 1250000 0  900000 1250000 0  950000 1250000 0  1000000 1250000 0  0 1300000 0  50000 1300000 0  100000 1300000 0  150000 1300000 0  200000 1300000 0  250000 1300000 0  300000 1300000 0  350000 1300000 0  400000 1300000 0  450000 1300000 0  500000 1300000 0  550000 1300000 0  600000 1300000 0  650000 1300000 0  700000 1300000 0  750000 1300000 0  800000 1300000 0  850000 1300000 0  900000 1300000 0  950000 1300000 0  1000000 1300000 0  0 1350000 0  50000 1350000 0  100000 1350000 0  150000 1350000 0  200000 1350000 0  250000 1350000 0  300000 1350000 0  350000 1350000 0  400000 1350000 0  450000 1350000 0  500000 1350000 0  550000 1350000 0  600000 1350000 0  650000 1350000 0  700000 135
[...]
<PointData  Vectors="f_4501"> 
<DataArray  type="Float64"  Name="f_4501"  NumberOfComponents="3" format="ascii">-1.1833112733010578e-09 -7.7624498586298407e-10 0.0000000000000000e+00  7.9148331509127759e-08 -6.2881265466493525e-10 0.0000000000000000e+00  7.9840736652575943e-08 -2.3858636042890003e-11 0.0000000000000000e+00  7.9811350115966432e-08 1.1025221158331326e-11 0.0000000000000000e+00  7.9877837039760110e-08 2.4704776379760025e-12 0.0000000000000000e+00  7.9901539728870506e-08 2.9835981086269409e-12 0.0000000000000000e+00  7.9915164795804471e-08 1.8515030240588951e-12 0.0000000000000000e+00  7.9923499058595784e-08 1.2241212958087915e-12 0.0000000000000000e+00  7.9928276574022537e-08 7.9870879759899129e-13 0.0000000000000000e+00  7.9930548287902030e-08 4.8256890894428296e-13 0.0000000000000000e+00  7.9930708233308862e-08 2.3393471987206756e-13 0.0000000000000000e+00  7.9928782214952508e-08 2.5540001704274147e-14 0.0000000000000000e+00  7.9924433645725566e-08 -1.5579870314418377e-13 0.0000000000000000e+00  7.9916817185959372e-08 -2.8726867140705103e-13 0.0000000000000000e+00  7.9904031879863142e-08 -2.3616504478922068e-13 0.0000000000000000e+00  7.9883050231729855e-08 -4.3881187545156145e-13 0.0000000000000000e+00  7.9840268026714901e-08 7.0171247107737284e-12 0.0000000000000000e+00  7.9728033173775187e-08 1.5474110878791248e-11 0.0000000000000000e+00  7.9638769516256879e-08 -3.9649243053716918e-11 0.0000000000000000e+00  7.7278145566453120e-08 2.3116702342902729e-09 0.0000000000000000e+00  -3.4448018062753769e-09 2.7770273834839799e-09 0.0000000000000000e+00  -8.8392930053760924e-10 -7.4999269014892560e-10 0.0000000000000000e+00  -1.0856190049304389e-08 -1.8827037878526670e-08 0.0000000000000000e+00  1.5791963899895518e-09 -6.3038815512199161e-09 0.0000000000000000e+00  5.3984302009308408e-09 -2.7513806993086932e-09 0.0000000000000000e+00  8.4254835508554574e-09 -1.3992715214493522e-09 0.0000000000000000e+00  9.8957387824029079e-09 -7.9546673651604719e-10 0.0000000000000000e+00  1.0818729481402845e-08 -4.9559453912789955e-10 0.0000000000000000e+00  1.1396398059881765e-08 -3.1405512287792676e-10 0.0000000000000000e+00  1.1750854032525695e-08 -1.9150168543006094e-10 0.0000000000000000e+00  1.1944056058857607e-08 -9.8043102883832247e-11 0.0000000000000000e+00  1.2005224539204967e-08 -1.6797898469199401e-11 0.0000000000000000e+00  1.1943150316751478e-08 6.4475488509290683e-11 0.0000000000000000e+00  1.1749002733894545e-08 1.5802738062406826e-10 0.0000000000000000e+00  1.1393334822010729e-08 2.8069205065282420e-10 0.0000000000000000e+00  1.0815604105399867e-08 4.6198992060189206e-10 0.0000000000000000e+00  9.8951902275216900e-09 7.6359038973438996e-10 0.0000000000000000e+00  8.3879479179114748e-09 1.3444498025798582e-09 0.0000000000000000e+00  5.8196442963775793e-09 2.6758025774382027e-09 0.0000000000000000e+00  1.2645161711773826e-10 6.5129108237120536e-09 0.0000000000000000e+00  -8.9015979042099276e-09 1.9726004956724507e-08 0.0000000000000000e+00  -2.5823606043396252e-09 2.3951096624125704e-09 0.0000000000000000e+00  -1.3577688061204619e-10 -2.2034500684894528e-10 0.0000000000000000e+00  -7.4954806920696636e-09 -1.5498617296135565e-08 0.0000000000000000e+00  -9.7383285025837265e-09 -9.8523098024464088e-09 0.0000000000000000e+00  -8.9540766397762304e-09 -5.4870723488864218e-09 0.0000000000000000e+00  -7.2685437828337927e-09 -3.0582315342907791e-09 0.0000000000000000e+00  -6.2217411840141950e-09 -1.8613665186385953e-09 0.0000000000000000e+00  -5.4245807394244505e-09 -1.1750460102806444e-09 0.0000000000000000e+00  -4.9021311182494053e-09 -7.3909201977463959e-10 0.0000000000000000e+00  -4.5668512456891286e-09 -4.3481169891493745e-10 0.0000000000000000e+00  -4.3802208653996772e-09 -1.9776673357853028e-10 0.0000000000000000e+00  -4.3203538480052377e-09 1.0368230882200623e-11 0.0000000000000000e+00  -4.3803691829372769e-09 2.1856268892059290e-10 0.0000000000000000e+00  -4.5669260973628341e-09 4.5575428058174330e-10 0.0000000000000000e+00  -4.9014205082972373e-09 7.6027537370491005e-10 0.0000000000000000e+00  -5.4240105221535672e-09 1.1950261600301962e-09 0.0000000000000000e+00  -6.1992322421138199e-09 1.8801439614235348e-09 0.0000000000000000e+00  -7.3087049278304831e-09 3.0723975082645541e-09 0.0000000000000000e+00  -8.8140806095309583e-09 5.3748778411634000e-09 0.0000000000000000e+00  -9.9880389743353491e-09 1.0201844553325359e-08 0.0000000000000000e+00  -6.5863382262771959e-09 1.6487283218144463e-08 0.0000000000000000e+00  -1.6527268715832756e-10 3.1203702962518357e-10 0.0000000000000000e+00  2.0876959894982109e-12 -1.6328943599131928e-10 0.0000000000000000e+00  -3.0918797941445574e-09 -1.0615892552146216e-08 0.0000000000000000e+00  -6.0829344166949858e-09 -8.9611875133360244e-09 0.0000000000000000e+00  -6.8442314555639362e-09 -5.9360856124938983e-09 0.0000000000000000e+00  -6.6572009442283490e-09 -3.8767518555053908e-09 0.0000000000000000e+00  -6.2467347857475460e-09 -2.5653449790387735e-09 0.0000000000000000e+00  -5.8093202137134820e-09 -1.6961197484503514e-09 0.0000000000000000e+00  -5.4808034021985706e-09 -1.1023263639673817e-09 0.0000000000000000e+00  -5.2488797587981702e-09 -6.6496079114992162e-10 0.0000000000000000e+00  -5.1141157484601073e-09 -3.1317623428843822e-10 0.0000000000000000e+00  -5.0696518288382300e-09 5.5263307695950868e-13 0.0000000000000000e+00  -5.1132374340492798e-09 3.1429160403391867e-10 0.0000000000000000e+00  -5.2469826257806695e-09 6.6601996565238018e-10 0.0000000000000000e+00  -5.4765375682631915e-09 1.1032852134241379e-09 0.0000000000000000e+00  -5.8068824255500284e-09 1.6965513349504270e-09 0.0000000000000000e+00  -6.2280023240731176e-09 2.5611296492182292e-09 0.0000000000000000e+00  -6.6709924606367468e-09 3.8915575292963912e-09 0.0000000000000000e+00  -6.8617499409020458e-09 5.9840574214313176e-09 0.0000000000000000e+00  -5.9680904806104546e-09 8.9711226221651556e-09 0.0000000000000000e+00  -2.9506291733709732e-09 1.0415386319056236e-08 0.0000000000000000e+00  3.5145083478645848e-12 2.3891427853510893e-10 0.0000000000000000e+00  3.8392984033032556e-12 -1.1128700411770400e-10 0.0000000000000000e+00  -1.6295667359613526e-09 -7.4684381471220626e-09 0.0000000000000000e+00  -3.6898646582620133e-09 -7.1263499771053466e-09 0.0000000000000000e+00  -4.8135197743512361e-09 -5.4781269350753757e-09 0.0000000000000000e+00  -5.2384640036776079e-09 -3.9787656993743266e-09 0.0000000000000000e+00  -5.2635284053985804e-09 -2.8108905039396976e-09 0.0000000000000000e+00  -5.1494541620144720e-09 -1.9506592132353519e-09 0.0000000000000000e+00  -5.0123196150164414e-09 -1.3079117896088443e-09 0.0000000000000000e+00  -4.8947715292384947e-09 -8.0399317438116810e-10 0.0000000000000000e+00  -4.8202448260591322e-09 -3.8270135326962695e-10 0.0000000000000000e+00  -4.7945008723953127e-09 4.4372880470670331e-13 0.0000000000000000e+00  -4.8194176662197106e-09 3.8355351351187233e-10 0.0000000000000000e+00  -4.8932725844109993e-09 8.0469684778579069e-10 0.0000000000000000e+00  -5.0091466791864318e-09 1.3082093054522224e-09 0.0000000000000000e+00  -5.1477474111002954e-09 1.9513896142292855e-09 0.0000000000000000e+00  -5.2604081073044761e-09 2.8100340998518852e-09 0.0000000000000000e+00  -5.2325238371927130e-09 3.9728429993307131e-09 0.0000000000000000e+00  -4.8237553979604370e-09 5.4865955766403044e-09 0.0000000000000000e+00  -3.6583104712922631e-09 7.1358092734883408e-09 0.0000000000000000e+00  -1.5998090859639287e-09 7.4366905850276815e-09 0.0000000000000000e+00  -1.0434060750007669e-11 1.5502575842012413e-10 0.0000000000000000e+00  3.2621509954510333e-12 -7.9361552073825859e-11 0.0000000000000000e+00  -1.0024358461877103e-09 -5.5953698137734888e-09 0.0000000000000000e+00  -2.4491061808526726e-09 -5.6790184463374560e-09 0.0000000000000000e+00  -3.4903422473306539e-09 -4.7168063687726519e-09 0.0000000000000000e+00  -4.0758559245482183e-09 -3.6703843200518780e-09 0.0000000000000000e+00  -4.3430991424349276e-09 -2.7511068470916142e-09 0.0000000000000000e+00  -4.4384222836928402e-09 -1.9944718124101752e-09 0.0000000000000000e+00  -4.4485728384894585e-09 -1.3768592170538657e-09 0.0000000000000000e+00  -4.4292188636436781e-09 -8.6282889100400208e-10 0.0000000000000000e+00  -4.4090405022327570e-09 -4.1529442258454900e-10 0.0000000000000000e+00  -4.4007801574318706e-09 2.2358347685539235e-13 0.0000000000000000e+00  -4.4084677030406893e-09 4.1569429420203912e-10 0.0000000000000000e+00  -4.4282657119126246e-09 8.6313034378474955e-10 0.0000000000000000e+00  -4.4470532878928375e-09 1.3768388670045839e-09 0.0000000000000000e+00  -4.4366805859009052e-09 1.9942767661938506e-09 0.0000000000000000e+00  -4.3433130121374106e-09 2.7521429112087407e-09 0.0000000000000000e+00  -4.0728837879283045e-09 3.6698207871736819e-09 0.0000000000000000e+00  -3.4863044404142043e-09 4.7060469001911723e-09 0.0000000000000000e+00  -2.4438920955312611e-09 5.6685232322556776e-09 0.0000000000000000e+00  -9.9809811662760739e-10 5.5973401211305302e-09 0.0000000000000000e+00  5.1534796279879421e-13 1.0187941300632098e-10 0.0000000000000000e+00  2.5295462668914463e-12 -6.0370414927343384e-11 0.0000000000000000e+00  -6.9324328966319527e-10 -4.3404364084122561e-09 0.0000000000000000e+00  -1.7575830284242264e-09 -4.5332617627351187e-09 0.0000000000000000e+00  -2.6279393555628365e-09 -3.9417959625938183e-09 0.0000000000000000e+00  -3.2242075838557787e-09 -3.2260763216458944e-09 0.0000000000000000e+00  -3.5920633055740458e-09 -2.5267244964606508e-09 0.0000000000000000e+00  -3.7998081382399387e-09 -1.8952285439817989e-09 0.0000000000000000e+00  -3.9077483778011245e-09 -1.3421189078913651e-09 0.0000000000000000e+00  -3.9596187190556651e-09 -8.5598085937284622e-10 0.0000000000000000e+00  -3.9813976976553371e-09 -4.1623371514133753e-10 0.0000000000000000e+00  -3.9870898049176492e-09 4.1104013143174202e-14 0.0000000000000000e+00  -3.9810590551917619e-09 4.1627287710771647e-10 0.0000000000000000e+00  -3.9590049752805627e-09 8.5592832245838928e-10 0.0000000000000000e+00  -3.9070445269393700e-09 1.3419442253753867e-09 0.0000000000000000e+00  -3.7987349183115583e-09 1.8945781261300393e-09 0.0000000000000000e+00  -3.5911442578032073e-09 2.5253078205063190e-09 0.0000000000000000e+00  -3.2233391760035089e-09 3.2238444956598678e-09 0.0000000000000000e+00  -2.6263232494470495e-09 3.9370630949561986e-09 0.0000000000000000e+00  -1.7564617280801810e-09 4.5312706587154028e-09 0.0000000000000000e+00  -6.9262536110886862e-10 4.3418869529879125e-09 0.0000000000000000e+00  8.7567058122220259e-13 7.5689827082762247e-11 0.0000000000000000e+00  1.9529865608267511e-12 -4.6904921466356828e-11 0.0000000000000000e+00  -5.1569930040643641e-10 -3.4245790460344820e-09 0.0000000000000000e+00  -1.3342703436527446e-09 -3.6386262108839589e-09 0.0000000000000000e+00  -2.0552616237399548e-09 -3.2564332475655102e-09 0.0000000000000000e+00  -2.6073495975176496e-09 -2.7541498054014695e-09 0.0000000000000000e+00  -2.9977304498328250e-09 -2.2250107673836888e-09 0.0000000000000000e+00  -3.2572320626698375e-09 -1.7141116985175839e-09 0.0000000000000000e+00  -3.4209748395898417e-09 -1.2396380573623817e-09 0.0000000000000000e+00  -3.5179170359691665e-09 -8.0235899768236493e-10 0.0000000000000000e+00  -3.5682648313367665e-09 -3.9361620747154808e-10 0.0000000000000000e+00  -3.5837335421512855e-09 -9.6724420156906116e-14 0.0000000000000000e+00  -3.5680710359065124e-09 3.9339196618577544e-10 0.0000000000000000e+00  -3.5175338761547267e-09 8.0203132879856524e-10 0.0000000000000000e+00  -3.4205010962063428e-09 1.2391601133490547e-09 0.0000000000000000e+00  -3.2566745683970480e-09 1.7133611072686128e-09 0.0000000000000000e+00  -2.9969988060471059e-09 2.2234532148132567e-09 0.0000000000000000e+00  -2.6066762532322521e-09 2.7510800876593516e-09 0.0000000000000000e+00  -2.0551240361648007e-09 3.2522598247542563e-09 0.0000000000000000e+00  -1.3350277778877686e-09 3.6391468640235615e-09 0.0000000000000000e+00  -5.1578822691264557e-10 3.4275788388479236e-09 0.0000000000000000e+00  1.0005134004650252e-12 5.7810606579761734e-11 0.0000000000000000e+00  1.5733177680770802e-12 -3.6760219895430168e-11 0.0000000000000000e+00  -4.0393637602910815e-10 -2.7199500807007558e-09 0.0000000000000000e+00  -1.0584965268028632e-09 -2.9205919538746186e-09 0.0000000000000000e+00  -1.6614793314077241e-09 -2.6615277304220892e-09 0.0000000000000000e+00  -2.1553005781354475e-09 -2.3011918301603850e-09 0.0000000000000000e+00  -2.5342403611915120e-09 -1.9012300475810771e-09 0.0000000000000000e+00  -2.8096645964823969e-09 -1.4944185937884663e-09 0.0000000000000000e+00  -2.9995055526911353e-09 -1.0984524313790647e-09 0.0000000000000000e+00  -3.1213118825103876e-09 -7.1943108673116861e-10 0.0000000000000000e+00  -3.1887675313532934e-09 -3.5551653200084922e-10 0.0000000000000000e+00  -3.2102769566169669e-09 -1.9866679783267337e-13 0.0000000000000000e+00  -3.1886467857279303e-09 3.5509312920985029e-10 0.0000000000000000e+00  -3.1210788549894895e-09 7.1891611613834393e-10 0.0000000000000000e+00  -2.9991798533146466e-09 1.0977434987671814e-09 0.0000000000000000e+00  -2.8092975410151905e-09 1.4933854370308992e-09 0.0000000000000000e+00  -2.5339003999356274e-09 1.8996778471004031e-09 0.0000000000000000e+00  -2.1551415015804573e-09 2.2988785278212002e-09 0.0000000000000000e+00  -1.6618424554091407e-09 2.6588673662227637e-09 0.0000000000000000e+00  -1.0595504113380446e-09 2.9220182630852442e-09 0.0000000000000000e+00  -4.0419841120758005e-10 2.7227730965675833e-09 0.0000000000000000e+00  9.9351814675341175e-13 4.5031644292863016e-11 0.0000000000000000e+00  1.3080102028203140e-12 -2.8714382537989288e-11 0.0000000000000000e+00  -3.2929759560845015e-10 -2.1538755192037439e-09 0.0000000000000000e+00  -8.7004788541472333e-10 -2.3284904003843737e-09 0.0000000000000000e+00  -1.3825941270288163e-09 -2.1474097792341747e-09 0.0000000000000000e+00  -1.8209021699003365e-09 -1.8848228719233023e-09 0.0000000000000000e+00  -2.1752930948304231e-09 -1.5820160793759203e-09 0.0000000000000000e+00  -2.4475045426759244e-09 -1.2618653974144860e-09 0.0000000000000000e+00  -2.6453266284263961e-09 -9.3899825641162729e-10 0.0000000000000000e+00  -2.7781978003740067e-09 -6.2069176022263311e-10 0.0000000000000000e+00  -2.8543078816643026e-09 -3.0849945810861078e-10 0.0000000000000000e+00  -2.8790313089698702e-09 -2.6851257039688969e-13 0.0000000000000000e+00  -2.8542292742245088e-09 3.0793634872427300e-10 0.0000000000000000e+00  -2.7780521423669674e-09 6.2004630284669814e-10 0.0000000000000000e+00  -2.6451324001607943e-09 9.3819351778805370e-10 0.0000000000000000e+00  -2.4473011882325096e-09 1.2607888127772643e-09 0.0000000000000000e+00  -2.1751801566850603e-09 1.5805532779505244e-09 0.0000000000000000e+00  -1.8210344822595007e-09 1.8829747784006864e-09 0.0000000000000000e+00  -1.3831369497794130e-09 2.1456746667214171e-09 0.0000000000000000e+00  -8.7102945195644032e-10 2.3302767857070876e-09 0.0000000000000000e+00  -3.2955703166948188e-10 2.1564035971939809e-09 0.0000000000000000e+00  9.2473650140667329e-13 3.5297409520288004e-11 0.0000000000000000e+00  1.1190449278951431e-12 -2.2071921975466976e-11 0.0000000000000000e+00  -2.7757412012781569e-10 -1.6830292169352867e-09 0.0000000000000000e+00  -7.3747800395190563e-10 -1.8276707750073367e-09 0.0000000000000000e+00  -1.1816138134001228e-09 -1.6990743501270379e-09 0.0000000000000000e+00  -1.5723883360619261e-09 -1.5066925114262204e-09 0.0000000000000000e+00  -1.8994225635459172e-09 -1.2787241206459286e-09 0.0000000000000000e+00  -2.1599204307555143e-09 -1.0308167073528522e-09 0.0000000000000000e+00  -2.3558669609990941e-09 -7.7408780351989503e-10 0.0000000000000000e+00  -2.4913701180823918e-09 -5.1524955990382636e-10 0.0000000000000000e+00  -2.5706441391367191e-09 -2.5723459238355684e-10 0.0000000000000000e+00  -2.5966933859854791e-09 -3.1731739384033814e-13 0.0000000000000000e+00  -2.5705954158850640e-09 2.5657713411955926e-10 0.0000000000000000e+00  -2.4912822465250366e-09 5.1452117620145726e-10 0.0000000000000000e+00  -2.3557635071664058e-09 7.7323461259594494e-10 0.0000000000000000e+00  -2.1598436751945097e-09 1.0297800663437724e-09 0.0000000000000000e+00  -1.8994534058922808e-09 1.2774624113214775e-09 0.0000000000000000e+00  -1.5726348568196321e-09 1.5052645943918203e-09 0.0000000000000000e+00  -1.1821493735660424e-09 1.6979131782145771e-09 0.0000000000000000e+00  -7.3829555917094096e-10 1.8295262938768574e-09 0.0000000000000000e+00  -2.7779372807665251e-10 1.6852738551780722e-09 0.0000000000000000e+00  8.5842389992915430e-13 2.7517599049661390e-11 0.0000000000000000e+00  9.8227280152514295e-13 -1.6395001236751162e-11 0.0000000000000000e+00  -2.4119996871270320e-10 -1.2791649325904873e-09 0.0000000000000000e+00  -6.4329644167728861e-10 -1.3932878200299184e-09 0.0000000000000000e+00  -1.0364308390663767e-09 -1.3023202663078928e-09 0.0000000000000000e+00  -1.3889452232480381e-09 -1.1629834880432264e-09 0.0000000000000000e+00  -1.6908268228419584e-09 -9.9465427937125993e-10 0.0000000000000000e+00  -1.9372083045508740e-09 -8.0786316566106783e-10 0.0000000000000000e+00  -2.1268460611785903e-09 -6.1066063835216978e-10 0.0000000000000000e+00  -2.2605513747159868e-09 -4.0854790524926656e-10 0.0000000000000000e+00  -2.3398761691033491e-09 -2.0465645464894687e-10 0.0000000000000000e+00  -2.3661400257782143e-09 -3.4941236596499069e-13 0.0000000000000000e+00  -2.3398482961837516e-09 2.0394010941692550e-10 0.0000000000000000e+00  -2.2605046651986290e-09 4.0777845491531936e-10 0.0000000000000000e+00  -2.1268022607849004e-09 6.0980317351346760e-10 0.0000000000000000e+00  -1.9372050060510142e-09 8.0689071465105507e-10 0.0000000000000000e+00  -1.6909243554150789e-09 9.9356644939012451e-10 0.0000000000000000e+00  -1.3892099652076347e-09 1.1618585081241216e-09 0.0000000000000000e+00  -1.0368869014714931e-09 1.3015172575193257e-09 0.0000000000000000e+00  -6.4393380293645637e-10 1.3951113944490266e-09 0.0000000000000000e+00  -2.4137211037660055e-10 1.2811743762559011e-09 0.0000000000000000e+00  8.0308343147772307e-13 2.1058503802830808e-11 0.0000000000000000e+00  8.8321627516325277e-13 -1.1380970826936651e-11 0.0000000000000000e+00  -2.1590562226466373e-10 -9.2246784952963569e-10 0.0000000000000000e+00  -5.7735293028030008e-10 -1.0067824667411956e-09 0.0000000000000000e+00  -9.3360559629959087e-10 -9.4458575630413973e-10 0.0000000000000000e+00  -1.2570609795947653e-09 -8.4751369093865096e-10 0.0000000000000000e+00  -1.5383002614928080e-09 -7.2865314293686019e-10 0.0000000000000000e+00  -1.7715626983592577e-09 -5.9488780125156027e-10 0.0000000000000000e+00  -1.9538634506762470e-09 -4.5174732794657770e-10 0.0000000000000000e+00  -2.0840603590669923e-09 -3.0333528465235330e-10 0.0000000000000000e+00  -2.1620246514659772e-09 -1.5234484493032010e-10 0.0000000000000000e+00  -2.1879676122655701e-09 -3.6891527111001086e-13 0.0000000000000000e+00  -2.1620103938770687e-09 1.5159453644897570e-10 0.0000000000000000e+00  -2.0840397306200306e-09 3.0254873548990408e-10 0.0000000000000000e+00  -1.9538540222929566e-09 4.5090556506789642e-10 0.0000000000000000e+00  -1.7715926299744488e-09 5.9398346094136086e-10 0.0000000000000000e+00  -1.5384101064553114e-09 7.2770324954428374e-10 0.0000000000000000e+00  -1.2572892358281609e-09 8.4659539960224414e-10 0.0000000000000000e+00  -9.3395517295199992e-10 9.4400186020521282e-10 0.0000000000000000e+00  -5.7781744256555066e-10 1.0085448349589646e-09 0.0000000000000000e+00  -2.1603121576209356e-10 9.2429948669087368e-10 0.0000000000000000e+00  7.6271848617326232e-13 1.5508893618524475e-11 0.0000000000000000e+00  8.1303103281065839e-13 -6.8031979047534971e-12 0.0000000000000000e+00  -1.9921174367055353e-10 -5.9801485371508824e-10 0.0000000000000000e+00  -5.3363866252488626e-10 -6.5351372427343640e-10 0.0000000000000000e+00  -8.6491216863889375e-10 -6.1481093546208170e-10 0.0000000000000000e+00  -1.1680624499513541e-09 -5.5332785215515387e-10 0.0000000000000000e+00  -1.4341869862566446e-09 -4.7734868035502967e-10 0.0000000000000000