<?xml version="1.0"?>
<VTKFile type="UnstructuredGrid"  version="0.1"  >
<UnstructuredGrid>
<Piece  NumberOfPoints="651" NumberOfCells="1200">
<Points>
<DataArray  type="Float64"  NumberOfComponents="3"  format="ascii">0 0 0  50000 0 0  100000 0 0  150000 0 0  200000 0 0  250000 0 0  300000 0 0  350000 0 0  400000 0 0  450000 0 0  500000 0 0  550000 0 0  600000 0 0  650000 0 0  700000 0 0  750000 0 0  800000 0 0  850000 0 0  900000 0 0  950000 0 0  1000000 0 0  0 50000 0  50000 50000 0  100000 50000 0  150000 50000 0  200000 50000 0  250000 50000 0  300000 50000 0  350000 50000 0  400000 50000 0  450000 50000 0  500000 50000 0  550000 50000 0  600000 50000 0  650000 50000 0  700000 50000 0  750000 50000 0  800000 50000 0  850000 50000 0  900000 50000 0  950000 50000 0  1000000 50000 0  0 100000 0  50000 100000 0  100000 100000 0  150000 100000 0  200000 100000 0  250000 100000 0  300000 100000 0  350000 100000 0  400000 100000 0  450000 100000 0  500000 100000 0  550000 100000 0  600000 100000 0  650000 100000 0  700000 100000 0  750000 100000 0  800000 100000 0  850000 100000 0  900000 100000 0  950000 100000 0  1000000 100000 0  0 150000 0  50000 150000 0  100000 150000 0  150000 150000 0  200000 150000 0  250000 150000 0  300000 150000 0  350000 150000 0  400000 150000 0  450000 150000 0  500000 150000 0  550000 150000 0  600000 150000 0  650000 150000 0  700000 150000 0  750000 150000 0  800000 150000 0  850000 150000 0  900000 150000 0  950000 150000 0  1000000 150000 0  0 200000 0  50000 200000 0  100000 200000 0  150000 200000 0  200000 200000 0  250000 200000 0  300000 200000 0  350000 200000 0  400000 200000 0  450000 200000 0  500000 200000 0  550000 200000 0  600000 200000 0  650000 200000 0  700000 200000 0  750000 200000 0  800000 200000 0  850000 200000 0  900000 200000 0  950000 200000 0  1000000 200000 0  0 250000 0  50000 250000 0  100000 250000 0  150000 250000 0  200000 250000 0  250000 250000 0  300000 250000 0  350000 250000 0  400000 250000 0  450000 250000 0  500000 250000 0  550000 250000 0  600000 250000 0  650000 250000 0  700000 250000 0  750000 250000 0  800000 250000 0  850000 250000 0  900000 250000 0  950000 250000 0  1000000 250000 0  0 300000 0  50000 300000 0  100000 300000 0  150000 300000 0  200000 300000 0  250000 300000 0  300000 300000 0  350000 300000 0  400000 300000 0  450000 300000 0  500000 300000 0  550000 300000 0  600000 300000 0  650000 300000 0  700000 300000 0  750000 300000 0  800000 300000 0  850000 300000 0  900000 300000 0  950000 300000 0  1000000 300000 0  0 350000 0  50000 350000 0  100000 350000 0  150000 350000 0  200000 350000 0  250000 350000 0  300000 350000 0  350000 350000 0  400000 350000 0  450000 350000 0  500000 350000 0  550000 350000 0  600000 350000 0  650000 350000 0  700000 350000 0  750000 350000 0  800000 350000 0  850000 350000 0  900000 350000 0  950000 350000 0  1000000 350000 0  0 400000 0  50000 400000 0  100000 400000 0  150000 400000 0  200000 400000 0  250000 400000 0  300000 400000 0  350000 400000 0  400000 400000 0  450000 400000 0  500000 400000 0  550000 400000 0  600000 400000 0  650000 400000 0  700000 400000 0  750000 400000 0  800000 400000 0  850000 400000 0  900000 400000 0  950000 400000 0  1000000 400000 0  0 450000 0  50000 450000 0  100000 450000 0  150000 450000 0  200000 450000 0  250000 450000 0  300000 450000 0  350000 450000 0  400000 450000 0  450000 450000 0  500000 450000 0  550000 450000 0  600000 450000 0  650000 450000 0  700000 450000 0  750000 450000 0  800000 450000 0  850000 450000 0  900000 450000 0  950000 450000 0  1000000 450000 0  0 500000 0  50000 500000 0  100000 500000 0  150000 500000 0  200000 500000 0  250000 500000 0  300000 500000 0  350000 500000 0  400000 500000 0  450000 500000 0  500000 500000 0  550000 500000 0  600000 500000 0  650000 500000 0  700000 500000 0  750000 500000 0  800000 500000 0  850000 500000 0  900000 500000 0  950000 500000 0  1000000 500000 0  0 550000 0  50000 550000 0  100000 550000 0  150000 550000 0  200000 550000 0  250000 550000 0  300000 550000 0  350000 550000 0  400000 550000 0  450000 550000 0  500000 550000 0  550000 550000 0  600000 550000 0  650000 550000 0  700000 550000 0  750000 550000 0  800000 550000 0  850000 550000 0  900000 550000 0  950000 550000 0  1000000 550000 0  0 600000 0  50000 600000 0  100000 600000 0  150000 600000 0  200000 600000 0  250000 600000 0  300000 600000 0  350000 600000 0  400000 600000 0  450000 600000 0  500000 600000 0  550000 600000 0  600000 600000 0  650000 600000 0  700000 600000 0  750000 600000 0  800000 600000 0  850000 600000 0  900000 600000 0  950000 600000 0  1000000 600000 0  0 650000 0  50000 650000 0  100000 650000 0  150000 650000 0  200000 650000 0  250000 650000 0  300000 650000 0  350000 650000 0  400000 650000 0  450000 650000 0  500000 650000 0  550000 650000 0  600000 650000 0  650000 650000 0  700000 650000 0  750000 650000 0  800000 650000 0  850000 650000 0  900000 650000 0  950000 650000 0  1000000 650000 0  0 700000 0  50000 700000 0  100000 700000 0  150000 700000 0  200000 700000 0  250000 700000 0  300000 700000 0  350000 700000 0  400000 700000 0  450000 700000 0  500000 700000 0  550000 700000 0  600000 700000 0  650000 700000 0  700000 700000 0  750000 700000 0  800000 700000 0  850000 700000 0  900000 700000 0  950000 700000 0  1000000 700000 0  0 750000 0  50000 750000 0  100000 750000 0  150000 750000 0  200000 750000 0  250000 750000 0  300000 750000 0  350000 750000 0  400000 750000 0  450000 750000 0  500000 750000 0  550000 750000 0  600000 750000 0  650000 750000 0  700000 750000 0  750000 750000 0  800000 750000 0  850000 750000 0  900000 750000 0  950000 750000 0  1000000 750000 0  0 800000 0  50000 800000 0  100000 800000 0  150000 800000 0  200000 800000 0  250000 800000 0  300000 800000 0  350000 800000 0  400000 800000 0  450000 800000 0  500000 800000 0  550000 800000 0  600000 800000 0  650000 800000 0  700000 800000 0  750000 800000 0  800000 800000 0  850000 800000 0  900000 800000 0  950000 800000 0  1000000 800000 0  0 850000 0  50000 850000 0  100000 850000 0  150000 850000 0  200000 850000 0  250000 850000 0  300000 850000 0  350000 850000 0  400000 850000 0  450000 850000 0  500000 850000 0  550000 850000 0  600000 850000 0  650000 850000 0  700000 850000 0  750000 850000 0  800000 850000 0  850000 850000 0  900000 850000 0  950000 850000 0  1000000 850000 0  0 900000 0  50000 900000 0  100000 900000 0  150000 900000 0  200000 900000 0  250000 900000 0  300000 900000 0  350000 900000 0  400000 900000 0  450000 900000 0  500000 900000 0  550000 900000 0  600000 900000 0  650000 900000 0  700000 900000 0  750000 900000 0  800000 900000 0  850000 900000 0  900000 900000 0  950000 900000 0  1000000 900000 0  0 950000 0  50000 950000 0  100000 950000 0  150000 950000 0  200000 950000 0  250000 950000 0  300000 950000 0  350000 950000 0  400000 950000 0  450000 950000 0  500000 950000 0  550000 950000 0  600000 950000 0  650000 950000 0  700000 950000 0  750000 950000 0  800000 950000 0  850000 950000 0  900000 950000 0  950000 950000 0  1000000 950000 0  0 1000000 0  50000 1000000 0  100000 1000000 0  150000 1000000 0  200000 1000000 0  250000 1000000 0  300000 1000000 0  350000 1000000 0  400000 1000000 0  450000 1000000 0  500000 1000000 0  550000 1000000 0  600000 1000000 0  650000 1000000 0  700000 1000000 0  750000 1000000 0  800000 1000000 0  850000 1000000 0  900000 1000000 0  950000 1000000 0  1000000 1000000 0  0 1050000 0  50000 1050000 0  100000 1050000 0  150000 1050000 0  200000 1050000 0  250000 1050000 0  300000 1050000 0  350000 1050000 0  400000 1050000 0  450000 1050000 0  500000 1050000 0  550000 1050000 0  600000 1050000 0  650000 1050000 0  700000 1050000 0  750000 1050000 0  800000 1050000 0  850000 1050000 0  900000 1050000 0  950000 1050000 0  1000000 1050000 0  0 1100000 0  50000 1100000 0  100000 1100000 0  150000 1100000 0  200000 1100000 0  250000 1100000 0  300000 1100000 0  350000 1100000 0  400000 1100000 0  450000 1100000 0  500000 1100000 0  550000 1100000 0  600000 1100000 0  650000 1100000 0  700000 1100000 0  750000 1100000 0  800000 1100000 0  850000 1100000 0  900000 1100000 0  950000 1100000 0  1000000 1100000 0  0 1150000 0  50000 1150000 0  100000 1150000 0  150000 1150000 0  200000 1150000 0  250000 1150000 0  300000 1150000 0  350000 1150000 0  400000 1150000 0  450000 1150000 0  500000 1150000 0  550000 1150000 0  600000 1150000 0  650000 1150000 0  700000 1150000 0  750000 1150000 0  800000 1150000 0  850000 1150000 0  900000 1150000 0  950000 1150000 0  1000000 1150000 0  0 1200000 0  50000 1200000 0  100000 1200000 0  150000 1200000 0  200000 1200000 0  250000 1200000 0  300000 1200000 0  350000 1200000 0  400000 1200000 0  450000 1200000 0  500000 1200000 0  550000 1200000 0  600000 1200000 0  650000 1200000 0  700000 1200000 0  750000 1200000 0  800000 1200000 0  850000 1200000 0  900000 1200000 0  950000 1200000 0  1000000 1200000 0  0 1250000 0  50000 1250000 0  100000 1250000 0  150000 1250000 0  200000 1250000 0  250000 1250000 0  300000 1250000 0  350000 1250000 0  400000 1250000 0  450000 1250000 0  500000 1250000 0  550000 1250000 0  600000 1250000 0  650000 1250000 0  700000 1250000 0  750000 1250000 0  800000 1250000 0  850000 1250000 0  900000 1250000 0  950000 1250000 0  1000000 1250000 0  0 1300000 0  50000 1300000 0  100000 1300000 0  150000 1300000 0  200000 1300000 0  250000 1300000 0  300000 1300000 0  350000 1300000 0  400000 1300000 0  450000 1300000 0  500000 1300000 0  550000 1300000 0  600000 1300000 0  650000 1300000 0  700000 1300000 0  750000 1300000 0  800000 1300000 0  850000 1300000 0  900000 1300000 0  950000 1300000 0  1000000 1300000 0  0 1350000 0  50000 1350000 0  100000 1350000 0  150000 1350000 0  200000 1350000 0  250000 1350000 0  300000 1350000 0  350000 1350000 0  400000 1350000 0  450000 1350000 0  500000 1350000 0  550000 1350000 0  600000 1350000 0  650000 1350000 0  700000 135
[...]
<PointData  Vectors="f_4501"> 
<DataArray  type="Float64"  Name="f_4501"  NumberOfComponents="3" format="ascii">-1.1877917046220487e-09 -8.0355288422528736e-10 0.0000000000000000e+00  7.9135525611856048e-08 -6.5108280981300258e-10 0.0000000000000000e+00  7.9820649239421269e-08 -3.8164729888098991e-11 0.0000000000000000e+00  7.9792775673234118e-08 3.7093523882951927e-12 0.0000000000000000e+00  7.9861776922891179e-08 -1.2467094157339237e-12 0.0000000000000000e+00  7.9887535267991908e-08 9.2070451971954462e-13 0.0000000000000000e+00  7.9902557648228893e-08 6.4244009326294460e-13 0.0000000000000000e+00  7.9911813701183354e-08 5.0407451013018507e-13 0.0000000000000000e+00  7.9917152397679331e-08 4.1263603108820852e-13 0.0000000000000000e+00  7.9919696919219980e-08 3.5775971850801476e-13 0.0000000000000000e+00  7.9919877641339924e-08 3.4781990298637058e-13 0.0000000000000000e+00  7.9917723250681203e-08 3.9421755218536550e-13 0.0000000000000000e+00  7.9912870488116607e-08 5.2753362822614206e-13 0.0000000000000000e+00  7.9904412138839352e-08 8.3858774185328786e-13 0.0000000000000000e+00  7.9890354214912200e-08 1.5823053668654607e-12 0.0000000000000000e+00  7.9867489910670172e-08 2.6504209409548903e-12 0.0000000000000000e+00  7.9822626908354023e-08 1.2309461417631508e-11 0.0000000000000000e+00  7.9708797974213363e-08 2.7582636170813691e-11 0.0000000000000000e+00  7.9625121792230209e-08 -1.7383347964562687e-11 0.0000000000000000e+00  7.7276545031262677e-08 2.3399971980311469e-09 0.0000000000000000e+00  -3.4369751637378230e-09 2.8191978253589489e-09 0.0000000000000000e+00  -8.9122852251539612e-10 -7.6940236224735410e-10 0.0000000000000000e+00  -1.2112270099032825e-08 -1.6792254531158814e-08 0.0000000000000000e+00  -1.4070208903943681e-09 -5.3884973551429902e-09 0.0000000000000000e+00  1.6109643832045488e-09 -2.4094063265760123e-09 0.0000000000000000e+00  4.2363788333571301e-09 -1.2570697086607187e-09 0.0000000000000000e+00  5.5073448700012926e-09 -7.2560483998934489e-10 0.0000000000000000e+00  6.3140213698740073e-09 -4.5716414658938098e-10 0.0000000000000000e+00  6.8216381766480224e-09 -2.9307090662982157e-10 0.0000000000000000e+00  7.1340563516059986e-09 -1.8138116635236029e-10 0.0000000000000000e+00  7.3045971713799542e-09 -9.5792324702272085e-11 0.0000000000000000e+00  7.3585407909881790e-09 -2.1172355755878457e-11 0.0000000000000000e+00  7.3034853603116709e-09 5.3516935047921140e-11 0.0000000000000000e+00  7.1317604768334689e-09 1.3933192158327523e-10 0.0000000000000000e+00  6.8179035569061021e-09 2.5139229298137990e-10 0.0000000000000000e+00  6.3098309768867297e-09 4.1590815789200681e-10 0.0000000000000000e+00  5.5046865091749166e-09 6.8690275765233462e-10 0.0000000000000000e+00  4.1971919462877932e-09 1.2001234817705898e-09 0.0000000000000000e+00  2.0094466552812518e-09 2.3456455128794402e-09 0.0000000000000000e+00  -2.8013416940049211e-09 5.5380424795123997e-09 0.0000000000000000e+00  -1.0113125813286798e-08 1.7711657833270941e-08 0.0000000000000000e+00  -2.5861986642241511e-09 2.4243021136073897e-09 0.0000000000000000e+00  -1.4367989422427916e-10 -2.3497107618871236e-10 0.0000000000000000e+00  -6.6887076208423225e-09 -1.3281916781405307e-08 0.0000000000000000e+00  -8.5103712041139685e-09 -8.3068629565803191e-09 0.0000000000000000e+00  -7.9774869016488114e-09 -4.6741084424767295e-09 0.0000000000000000e+00  -6.5755860805722629e-09 -2.6307059555541504e-09 0.0000000000000000e+00  -5.7248813538438812e-09 -1.6120400207698337e-09 0.0000000000000000e+00  -5.0626451310360918e-09 -1.0216111152653896e-09 0.0000000000000000e+00  -4.6262771250895710e-09 -6.4288955326405625e-10 0.0000000000000000e+00  -4.3452202656145570e-09 -3.7677293854930460e-10 0.0000000000000000e+00  -4.1883174474799631e-09 -1.6852741869930850e-10 0.0000000000000000e+00  -4.1378689757906006e-09 1.4779000921035912e-11 0.0000000000000000e+00  -4.1882461893543633e-09 1.9815774225217208e-10 0.0000000000000000e+00  -4.3448281788714472e-09 4.0660057834594868e-10 0.0000000000000000e+00  -4.6248892329146849e-09 6.7300375101946444e-10 0.0000000000000000e+00  -5.0605385575396081e-09 1.0507808485871929e-09 0.0000000000000000e+00  -5.7022738418001619e-09 1.6404975810052098e-09 0.0000000000000000e+00  -6.6104398116683302e-09 2.6525630611079821e-09 0.0000000000000000e+00  -7.8270897677727489e-09 4.5729186396606712e-09 0.0000000000000000e+00  -8.7443550451959536e-09 8.5494992329954964e-09 0.0000000000000000e+00  -5.7930104261184199e-09 1.4347659892698777e-08 0.0000000000000000e+00  -1.6921684408627279e-10 3.2955935913988534e-10 0.0000000000000000e+00  -4.6978400308566982e-12 -1.7853861748582009e-10 0.0000000000000000e+00  -2.6847567150610518e-09 -9.3050512981403849e-09 0.0000000000000000e+00  -5.2052100933808917e-09 -7.5557275647738229e-09 0.0000000000000000e+00  -5.8348414125094347e-09 -5.0074079484215574e-09 0.0000000000000000e+00  -5.6878558888034344e-09 -3.2983910882385147e-09 0.0000000000000000e+00  -5.3613036987498811e-09 -2.1968749548534057e-09 0.0000000000000000e+00  -5.0018352910572713e-09 -1.4599033509013894e-09 0.0000000000000000e+00  -4.7306689043171621e-09 -9.5225888211016168e-10 0.0000000000000000e+00  -4.5384239101558921e-09 -5.7615859731731511e-10 0.0000000000000000e+00  -4.4262162425727532e-09 -2.7235064072449757e-10 0.0000000000000000e+00  -4.3890809145770497e-09 -7.8481412671644917e-13 0.0000000000000000e+00  -4.4252262257242137e-09 2.7078757580341365e-10 0.0000000000000000e+00  -4.5362300346382946e-09 5.7454815717511061e-10 0.0000000000000000e+00  -4.7262307080490236e-09 9.5053447331465032e-10 0.0000000000000000e+00  -4.9982537716704853e-09 1.4574751503426582e-09 0.0000000000000000e+00  -5.3421252901983525e-09 2.1901903696191872e-09 0.0000000000000000e+00  -5.6990417695008445e-09 3.3063026821519149e-09 0.0000000000000000e+00  -5.8437147732518131e-09 5.0437842427889780e-09 0.0000000000000000e+00  -5.1096971667817759e-09 7.5309892877807933e-09 0.0000000000000000e+00  -2.6103269996834077e-09 9.1254285080839004e-09 0.0000000000000000e+00  -6.3423795238045572e-12 2.5630352839779493e-10 0.0000000000000000e+00  -3.3030291657878734e-13 -1.2376017523329409e-10 0.0000000000000000e+00  -1.4524697398436328e-09 -6.5977266068070126e-09 0.0000000000000000e+00  -3.1843527009897577e-09 -6.0187101322030290e-09 0.0000000000000000e+00  -4.1075838127909849e-09 -4.6285332587517931e-09 0.0000000000000000e+00  -4.4690586003287603e-09 -3.3744491951125601e-09 0.0000000000000000e+00  -4.4948529899058937e-09 -2.3936261488938061e-09 0.0000000000000000e+00  -4.4045229701615660e-09 -1.6663739190627225e-09 0.0000000000000000e+00  -4.2934216929378533e-09 -1.1200927285930123e-09 0.0000000000000000e+00  -4.1973093966667141e-09 -6.8970735200571123e-10 0.0000000000000000e+00  -4.1359361102185609e-09 -3.2856053745881893e-10 0.0000000000000000e+00  -4.1146648237064858e-09 5.0853956221525592e-13 0.0000000000000000e+00  -4.1350568586349130e-09 3.2952774206545589e-10 0.0000000000000000e+00  -4.1955792200979427e-09 6.9047420461710679e-10 0.0000000000000000e+00  -4.2901275227069375e-09 1.1203882317857331e-09 0.0000000000000000e+00  -4.4021409496935988e-09 1.6667213104294952e-09 0.0000000000000000e+00  -4.4907811906207248e-09 2.3915729947881372e-09 0.0000000000000000e+00  -4.4616158767665932e-09 3.3668545214504985e-09 0.0000000000000000e+00  -4.1192515136395361e-09 4.6316451497205609e-09 0.0000000000000000e+00  -3.1590792580348110e-09 6.0270901901569310e-09 0.0000000000000000e+00  -1.4331874414589665e-09 6.5789767183959068e-09 0.0000000000000000e+00  -1.5895839911041123e-11 1.6912810111630539e-10 0.0000000000000000e+00  6.7299153590767179e-13 -8.9450613023401001e-11 0.0000000000000000e+00  -9.0813671304666228e-10 -4.9720239825251883e-09 0.0000000000000000e+00  -2.1363335661374944e-09 -4.8227650189100204e-09 0.0000000000000000e+00  -3.0030463241787312e-09 -3.9958112157321787e-09 0.0000000000000000e+00  -3.4930726422096873e-09 -3.1134169769280299e-09 0.0000000000000000e+00  -3.7192852323809657e-09 -2.3387058105096452e-09 0.0000000000000000e+00  -3.8026395324562638e-09 -1.6991732554309180e-09 0.0000000000000000e+00  -3.8141295863922149e-09 -1.1751570447501291e-09 0.0000000000000000e+00  -3.7999771389941844e-09 -7.3738801825890397e-10 0.0000000000000000e+00  -3.7841974322557891e-09 -3.5517431885317218e-10 0.0000000000000000e+00  -3.7776171095996506e-09 2.1386528500038841e-13 0.0000000000000000e+00  -3.7835753754218655e-09 3.5554144381900407e-10 0.0000000000000000e+00  -3.7988475871423857e-09 7.3758088683715383e-10 0.0000000000000000e+00  -3.8123664718553822e-09 1.1749147563992103e-09 0.0000000000000000e+00  -3.8005948660002715e-09 1.6985508556426119e-09 0.0000000000000000e+00  -3.7189188343812992e-09 2.3386509778764187e-09 0.0000000000000000e+00  -3.4900617222306663e-09 3.1111328980116885e-09 0.0000000000000000e+00  -3.0001196674359892e-09 3.9837790948963198e-09 0.0000000000000000e+00  -2.1335643887058872e-09 4.8117683158351040e-09 0.0000000000000000e+00  -9.0779367697349728e-10 4.9781923357895144e-09 0.0000000000000000e+00  -2.8803839909228675e-12 1.1368568199033777e-10 0.0000000000000000e+00  7.4498105872528480e-13 -6.8487325641083045e-11 0.0000000000000000e+00  -6.3353317116482048e-10 -3.8704449614757617e-09 0.0000000000000000e+00  -1.5440511884324172e-09 -3.8624836547389223e-09 0.0000000000000000e+00  -2.2738462241371170e-09 -3.3471480699990110e-09 0.0000000000000000e+00  -2.7746084194421463e-09 -2.7396431814474527e-09 0.0000000000000000e+00  -3.0848562295728563e-09 -2.1480424229567414e-09 0.0000000000000000e+00  -3.2615735338615295e-09 -1.6133211970502639e-09 0.0000000000000000e+00  -3.3544405574982012e-09 -1.1438251560635760e-09 0.0000000000000000e+00  -3.3996797295905797e-09 -7.3018460930268407e-10 0.0000000000000000e+00  -3.4190163469302481e-09 -3.5530207446977277e-10 0.0000000000000000e+00  -3.4241145086027303e-09 -5.3261932565606975e-14 0.0000000000000000e+00  -3.4186256189037613e-09 3.5513765802186983e-10 0.0000000000000000e+00  -3.3989646696615846e-09 7.2986620595870609e-10 0.0000000000000000e+00  -3.3535377620655018e-09 1.1432468106091925e-09 0.0000000000000000e+00  -3.2603633274692614e-09 1.6121083827038631e-09 0.0000000000000000e+00  -3.0839056219290289e-09 2.1459970755892534e-09 0.0000000000000000e+00  -2.7739067926410661e-09 2.7366600328607746e-09 0.0000000000000000e+00  -2.2732145118802794e-09 3.3417343994107078e-09 0.0000000000000000e+00  -1.5443559874791201e-09 3.8600080734349544e-09 0.0000000000000000e+00  -6.3502537157936746e-10 3.8750640389362233e-09 0.0000000000000000e+00  -1.4211842812158453e-12 8.5254006991049178e-11 0.0000000000000000e+00  6.2654685116498927e-13 -5.3445371606197151e-11 0.0000000000000000e+00  -4.7396380491799308e-10 -3.0610469854501695e-09 0.0000000000000000e+00  -1.1780740754699404e-09 -3.1078866147726771e-09 0.0000000000000000e+00  -1.7860518032325718e-09 -2.7710527170806984e-09 0.0000000000000000e+00  -2.2514919962098934e-09 -2.3422057314651223e-09 0.0000000000000000e+00  -2.5811936917421958e-09 -1.8928197643121854e-09 0.0000000000000000e+00  -2.8012009703021664e-09 -1.4590961152162649e-09 0.0000000000000000e+00  -2.9405845094100269e-09 -1.0559170164030752e-09 0.0000000000000000e+00  -3.0234868372559795e-09 -6.8385512001729524e-10 0.0000000000000000e+00  -3.0667011451111737e-09 -3.3566072236259079e-10 0.0000000000000000e+00  -3.0799814111751232e-09 -1.9984780108173519e-13 0.0000000000000000e+00  -3.0664706393005547e-09 3.3521424481537206e-10 0.0000000000000000e+00  -3.0230512696450650e-09 6.8326652825507915e-10 0.0000000000000000e+00  -2.9400493182711874e-09 1.0550988933767939e-09 0.0000000000000000e+00  -2.8006013509289139e-09 1.4578999899754127e-09 0.0000000000000000e+00  -2.5805986695522885e-09 1.8907994360407824e-09 0.0000000000000000e+00  -2.2511601970579807e-09 2.3388310315569563e-09 0.0000000000000000e+00  -1.7865531491368339e-09 2.7665793696130272e-09 0.0000000000000000e+00  -1.1795520078466460e-09 3.1079089027216326e-09 0.0000000000000000e+00  -4.7537211806056257e-10 3.0661809632636092e-09 0.0000000000000000e+00  -6.7148782054842662e-13 6.5551678660204288e-11 0.0000000000000000e+00  5.2998813545276018e-13 -4.2015052123833107e-11 0.0000000000000000e+00  -3.7273070652812959e-10 -2.4353609642123994e-09 0.0000000000000000e+00  -9.3802760746543342e-10 -2.4990954014134870e-09 0.0000000000000000e+00  -1.4487224393564949e-09 -2.2686905020898355e-09 0.0000000000000000e+00  -1.8665291362174661e-09 -1.9596088066976935e-09 0.0000000000000000e+00  -2.1872517717611106e-09 -1.6187371050625499e-09 0.0000000000000000e+00  -2.4207770138481779e-09 -1.2725761462897709e-09 0.0000000000000000e+00  -2.5820747022145939e-09 -9.3568459173109938e-10 0.0000000000000000e+00  -2.6857893635690454e-09 -6.1304712224719450e-10 0.0000000000000000e+00  -2.7433142026695354e-09 -3.0307306711533194e-10 0.0000000000000000e+00  -2.7616617636909073e-09 -3.1046615712346854e-13 0.0000000000000000e+00  -2.7431802319106251e-09 3.0241535335513674e-10 0.0000000000000000e+00  -2.6855408354380102e-09 6.1227030935993926e-10 0.0000000000000000e+00  -2.5817583258262061e-09 9.3468776770476819e-10 0.0000000000000000e+00  -2.4204720030757804e-09 1.2712368119960479e-09 0.0000000000000000e+00  -2.1870756843539289e-09 1.6168923960488466e-09 0.0000000000000000e+00  -1.8666433699506665e-09 1.9570730308129723e-09 0.0000000000000000e+00  -1.4495178328059174e-09 2.2657564933528088e-09 0.0000000000000000e+00  -9.3952117185093958e-10 2.5000892801235215e-09 0.0000000000000000e+00  -3.7390905262124862e-10 2.4398731110123973e-09 0.0000000000000000e+00  -2.8798613830603668e-13 5.1286520955031179e-11 0.0000000000000000e+00  4.5190953660916821e-13 -3.2894379248528512e-11 0.0000000000000000e+00  -3.0478628844058392e-10 -1.9309683176155460e-09 0.0000000000000000e+00  -7.7322274379407310e-10 -1.9951670546448488e-09 0.0000000000000000e+00  -1.2087906361584381e-09 -1.8329215626208248e-09 0.0000000000000000e+00  -1.5807380400861852e-09 -1.6068731511399488e-09 0.0000000000000000e+00  -1.8813623366670228e-09 -1.3481068893881031e-09 0.0000000000000000e+00  -2.1124459657264592e-09 -1.0751601705472438e-09 0.0000000000000000e+00  -2.2805405660720170e-09 -8.0011424087203387e-10 0.0000000000000000e+00  -2.3935622658783312e-09 -5.2897727002876335e-10 0.0000000000000000e+00  -2.4583534999234397e-09 -2.6300804739176739e-10 0.0000000000000000e+00  -2.4794066762077416e-09 -3.8009291368999409e-13 0.0000000000000000e+00  -2.4582782099521000e-09 2.6221774432069124e-10 0.0000000000000000e+00  -2.3934295735797780e-09 5.2809324585254565e-10 0.0000000000000000e+00  -2.2803868514945661e-09 7.9906096030692885e-10 0.0000000000000000e+00  -2.1123324834884255e-09 1.0738481002517658e-09 0.0000000000000000e+00  -1.8814103398876100e-09 1.3464595093625134e-09 0.0000000000000000e+00  -1.5810831221864569e-09 1.6048932324654504e-09 0.0000000000000000e+00  -1.2096294287757421e-09 1.8309482223494445e-09 0.0000000000000000e+00  -7.7449063124119888e-10 1.9965723611338037e-09 0.0000000000000000e+00  -3.0571225031886222e-10 1.9348764482301201e-09 0.0000000000000000e+00  -9.8434914696988639e-14 4.0325991455756540e-11 0.0000000000000000e+00  3.9123792064230789e-13 -2.5329485822106604e-11 0.0000000000000000e+00  -2.5754872687089908e-10 -1.5102922891854120e-09 0.0000000000000000e+00  -6.5690321373815679e-10 -1.5676691313160345e-09 0.0000000000000000e+00  -1.0353380899904316e-09 -1.4517891177847204e-09 0.0000000000000000e+00  -1.3677748077661064e-09 -1.2857442924419999e-09 0.0000000000000000e+00  -1.6457765028999683e-09 -1.0905285823111675e-09 0.0000000000000000e+00  -1.8672431176608541e-09 -8.7883049206977822e-10 0.0000000000000000e+00  -2.0338808151068900e-09 -6.5988070882827143e-10 0.0000000000000000e+00  -2.1491683605183693e-09 -4.3925325146260655e-10 0.0000000000000000e+00  -2.2166419761635467e-09 -2.1936626262365152e-10 0.0000000000000000e+00  -2.2388190723797793e-09 -4.2273038592241443e-13 0.0000000000000000e+00  -2.2166041086606576e-09 2.1849757063761827e-10 0.0000000000000000e+00  -2.1491076292201889e-09 4.3831410007578011e-10 0.0000000000000000e+00  -2.0338298323569697e-09 6.5882239675671803e-10 0.0000000000000000e+00  -1.8672539899817085e-09 8.7760753942058142e-10 0.0000000000000000e+00  -1.6459407734052926e-09 1.0891223209142447e-09 0.0000000000000000e+00  -1.3681827731060219e-09 1.2842082148237411e-09 0.0000000000000000e+00  -1.0360833843355565e-09 1.4504137624084399e-09 0.0000000000000000e+00  -6.5791380458290467e-10 1.5691957608105572e-09 0.0000000000000000e+00  -2.5825965240223314e-10 1.5137037786521116e-09 0.0000000000000000e+00  1.0821876690644805e-14 3.1511342020932803e-11 0.0000000000000000e+00  3.4328840736380731e-13 -1.8840191085770080e-11 0.0000000000000000e+00  -2.2425896186054773e-10 -1.1486767358722659e-09 0.0000000000000000e+00  -5.7407803191046147e-10 -1.1960281499543050e-09 0.0000000000000000e+00  -9.0976258091222335e-10 -1.1137075795215245e-09 0.0000000000000000e+00  -1.2102626699020811e-09 -9.9321374786189433e-10 0.0000000000000000e+00  -1.4673509033239655e-09 -8.4884667104551274e-10 0.0000000000000000e+00  -1.6771208515592695e-09 -6.8914251328359929e-10 0.0000000000000000e+00  -1.8385660536118173e-09 -5.2080884127888977e-10 0.0000000000000000e+00  -1.9524052399420839e-09 -3.4842935413474605e-10 0.0000000000000000e+00  -2.0199526588132875e-09 -1.7460183439458532e-10 0.0000000000000000e+00  -2.0423212168087700e-09 -4.4676899164389501e-13 0.0000000000000000e+00  -2.0199378797701112e-09 1.7369215805253020e-10 0.0000000000000000e+00  -1.9523878895862567e-09 3.4747201952945380e-10 0.0000000000000000e+00  -1.8385727848264460e-09 5.1977611020025523e-10 0.0000000000000000e+00  -1.6771927271050594e-09 6.8801791288383809e-10 0.0000000000000000e+00  -1.4675518170294693e-09 8.4764241747754861e-10 0.0000000000000000e+00  -1.2106454416661677e-09 9.9199461031573511e-10 0.0000000000000000e+00  -9.1036692124126967e-10 1.1127065418653939e-09 0.0000000000000000e+00  -5.7484734154626762e-10 1.1975608479377436e-09 0.0000000000000000e+00  -2.2479024809573710e-10 1.1517033578203796e-09 0.0000000000000000e+00  7.8756034650460439e-14 2.4157099334567590e-11 0.0000000000000000e+00  3.0425298531842094e-13 -1.3091804680494957e-11 0.0000000000000000e+00  -2.0108193101525898e-10 -8.2873307413635193e-10 0.0000000000000000e+00  -5.1599818687137832e-10 -8.6475088146130754e-10 0.0000000000000000e+00  -8.2068894552653938e-10 -8.0830171858549779e-10 0.0000000000000000e+00  -1.0968618843665253e-09 -7.2424042441703888e-10 0.0000000000000000e+00  -1.3367292568791168e-09 -6.2219062625149438e-10 0.0000000000000000e+00  -1.5355837357730230e-09 -5.0772207919723170e-10 0.0000000000000000e+00  -1.6909449940908838e-09 -3.8545290225665980e-10 0.0000000000000000e+00  -1.8018883022197294e-09 -2.5881183225762719e-10 0.0000000000000000e+00  -1.8683210208481468e-09 -1.3004061431642360e-10 0.0000000000000000e+00  -1.8904294113619778e-09 -4.5854547842104868e-13 0.0000000000000000e+00  -1.8683187267500851e-09 1.2911346602026552e-10 0.0000000000000000e+00  -1.8018930696941815e-09 2.5785623543515367e-10 0.0000000000000000e+00  -1.6909765697484597e-09 3.8445653840774358e-10 0.0000000000000000e+00  -1.5356711641046333e-09 5.0668554573654834e-10 0.0000000000000000e+00  -1.3369140447124267e-09 6.2113917823825342e-10 0.0000000000000000e+00  -1.0971728227854170e-09 7.2323576930743130e-10 0.0000000000000000e+00  -8.2114019014899957e-10 8.0753253933416112e-10 0.0000000000000000e+00  -5.1655093099291571e-10 8.6624997619658125e-10 0.0000000000000000e+00  -2.0145992584241467e-10 8.3147718473224048e-10 0.0000000000000000e+00  1.2496966589691630e-13 1.7814012402290237e-11 0.0000000000000000e+00  2.7134670369094453e-13 -7.8321045234700207e-12 0.0000000000000000e+00  -1.8578111816359359e-10 -5.3731229746863396e-10 0.0000000000000000e+00  -4.7746202203621605e-10 -5.6154706064203259e-10 0.0000000000000000e+00  -7.6112575391665918e-10 -5.2636519890132313e-10 0.0000000000000000e+00  -1.0202662569235194e-09 -4.7306899625835933e-10 0.0000000000000000e+00  -1.2474964422518757e-09 -4.0779160927649209e-10 0.0000000