<?xml version="1.0"?>
<VTKFile type="UnstructuredGrid"  version="0.1"  >
<UnstructuredGrid>
<Piece  NumberOfPoints="651" NumberOfCells="1200">
<Points>
<DataArray  type="Float64"  NumberOfComponents="3"  format="ascii">0 0 0  50000 0 0  100000 0 0  150000 0 0  200000 0 0  250000 0 0  300000 0 0  350000 0 0  400000 0 0  450000 0 0  500000 0 0  550000 0 0  600000 0 0  650000 0 0  700000 0 0  750000 0 0  800000 0 0  850000 0 0  900000 0 0  950000 0 0  1000000 0 0  0 50000 0  50000 50000 0  100000 50000 0  150000 50000 0  200000 50000 0  250000 50000 0  300000 50000 0  350000 50000 0  400000 50000 0  450000 50000 0  500000 50000 0  550000 50000 0  600000 50000 0  650000 50000 0  700000 50000 0  750000 50000 0  800000 50000 0  850000 50000 0  900000 50000 0  950000 50000 0  1000000 50000 0  0 100000 0  50000 100000 0  100000 100000 0  150000 100000 0  200000 100000 0  250000 100000 0  300000 100000 0  350000 100000 0  400000 100000 0  450000 100000 0  500000 100000 0  550000 100000 0  600000 100000 0  650000 100000 0  700000 100000 0  750000 100000 0  800000 100000 0  850000 100000 0  900000 100000 0  950000 100000 0  1000000 100000 0  0 150000 0  50000 150000 0  100000 150000 0  150000 150000 0  200000 150000 0  250000 150000 0  300000 150000 0  350000 150000 0  400000 150000 0  450000 150000 0  500000 150000 0  550000 150000 0  600000 150000 0  650000 150000 0  700000 150000 0  750000 150000 0  800000 150000 0  850000 150000 0  900000 150000 0  950000 150000 0  1000000 150000 0  0 200000 0  50000 200000 0  100000 200000 0  150000 200000 0  200000 200000 0  250000 200000 0  300000 200000 0  350000 200000 0  400000 200000 0  450000 200000 0  500000 200000 0  550000 200000 0  600000 200000 0  650000 200000 0  700000 200000 0  750000 200000 0  800000 200000 0  850000 200000 0  900000 200000 0  950000 200000 0  1000000 200000 0  0 250000 0  50000 250000 0  100000 250000 0  150000 250000 0  200000 250000 0  250000 250000 0  300000 250000 0  350000 250000 0  400000 250000 0  450000 250000 0  500000 250000 0  550000 250000 0  600000 250000 0  650000 250000 0  700000 250000 0  750000 250000 0  800000 250000 0  850000 250000 0  900000 250000 0  950000 250000 0  1000000 250000 0  0 300000 0  50000 300000 0  100000 300000 0  150000 300000 0  200000 300000 0  250000 300000 0  300000 300000 0  350000 300000 0  400000 300000 0  450000 300000 0  500000 300000 0  550000 300000 0  600000 300000 0  650000 300000 0  700000 300000 0  750000 300000 0  800000 300000 0  850000 300000 0  900000 300000 0  950000 300000 0  1000000 300000 0  0 350000 0  50000 350000 0  100000 350000 0  150000 350000 0  200000 350000 0  250000 350000 0  300000 350000 0  350000 350000 0  400000 350000 0  450000 350000 0  500000 350000 0  550000 350000 0  600000 350000 0  650000 350000 0  700000 350000 0  750000 350000 0  800000 350000 0  850000 350000 0  900000 350000 0  950000 350000 0  1000000 350000 0  0 400000 0  50000 400000 0  100000 400000 0  150000 400000 0  200000 400000 0  250000 400000 0  300000 400000 0  350000 400000 0  400000 400000 0  450000 400000 0  500000 400000 0  550000 400000 0  600000 400000 0  650000 400000 0  700000 400000 0  750000 400000 0  800000 400000 0  850000 400000 0  900000 400000 0  950000 400000 0  1000000 400000 0  0 450000 0  50000 450000 0  100000 450000 0  150000 450000 0  200000 450000 0  250000 450000 0  300000 450000 0  350000 450000 0  400000 450000 0  450000 450000 0  500000 450000 0  550000 450000 0  600000 450000 0  650000 450000 0  700000 450000 0  750000 450000 0  800000 450000 0  850000 450000 0  900000 450000 0  950000 450000 0  1000000 450000 0  0 500000 0  50000 500000 0  100000 500000 0  150000 500000 0  200000 500000 0  250000 500000 0  300000 500000 0  350000 500000 0  400000 500000 0  450000 500000 0  500000 500000 0  550000 500000 0  600000 500000 0  650000 500000 0  700000 500000 0  750000 500000 0  800000 500000 0  850000 500000 0  900000 500000 0  950000 500000 0  1000000 500000 0  0 550000 0  50000 550000 0  100000 550000 0  150000 550000 0  200000 550000 0  250000 550000 0  300000 550000 0  350000 550000 0  400000 550000 0  450000 550000 0  500000 550000 0  550000 550000 0  600000 550000 0  650000 550000 0  700000 550000 0  750000 550000 0  800000 550000 0  850000 550000 0  900000 550000 0  950000 550000 0  1000000 550000 0  0 600000 0  50000 600000 0  100000 600000 0  150000 600000 0  200000 600000 0  250000 600000 0  300000 600000 0  350000 600000 0  400000 600000 0  450000 600000 0  500000 600000 0  550000 600000 0  600000 600000 0  650000 600000 0  700000 600000 0  750000 600000 0  800000 600000 0  850000 600000 0  900000 600000 0  950000 600000 0  1000000 600000 0  0 650000 0  50000 650000 0  100000 650000 0  150000 650000 0  200000 650000 0  250000 650000 0  300000 650000 0  350000 650000 0  400000 650000 0  450000 650000 0  500000 650000 0  550000 650000 0  600000 650000 0  650000 650000 0  700000 650000 0  750000 650000 0  800000 650000 0  850000 650000 0  900000 650000 0  950000 650000 0  1000000 650000 0  0 700000 0  50000 700000 0  100000 700000 0  150000 700000 0  200000 700000 0  250000 700000 0  300000 700000 0  350000 700000 0  400000 700000 0  450000 700000 0  500000 700000 0  550000 700000 0  600000 700000 0  650000 700000 0  700000 700000 0  750000 700000 0  800000 700000 0  850000 700000 0  900000 700000 0  950000 700000 0  1000000 700000 0  0 750000 0  50000 750000 0  100000 750000 0  150000 750000 0  200000 750000 0  250000 750000 0  300000 750000 0  350000 750000 0  400000 750000 0  450000 750000 0  500000 750000 0  550000 750000 0  600000 750000 0  650000 750000 0  700000 750000 0  750000 750000 0  800000 750000 0  850000 750000 0  900000 750000 0  950000 750000 0  1000000 750000 0  0 800000 0  50000 800000 0  100000 800000 0  150000 800000 0  200000 800000 0  250000 800000 0  300000 800000 0  350000 800000 0  400000 800000 0  450000 800000 0  500000 800000 0  550000 800000 0  600000 800000 0  650000 800000 0  700000 800000 0  750000 800000 0  800000 800000 0  850000 800000 0  900000 800000 0  950000 800000 0  1000000 800000 0  0 850000 0  50000 850000 0  100000 850000 0  150000 850000 0  200000 850000 0  250000 850000 0  300000 850000 0  350000 850000 0  400000 850000 0  450000 850000 0  500000 850000 0  550000 850000 0  600000 850000 0  650000 850000 0  700000 850000 0  750000 850000 0  800000 850000 0  850000 850000 0  900000 850000 0  950000 850000 0  1000000 850000 0  0 900000 0  50000 900000 0  100000 900000 0  150000 900000 0  200000 900000 0  250000 900000 0  300000 900000 0  350000 900000 0  400000 900000 0  450000 900000 0  500000 900000 0  550000 900000 0  600000 900000 0  650000 900000 0  700000 900000 0  750000 900000 0  800000 900000 0  850000 900000 0  900000 900000 0  950000 900000 0  1000000 900000 0  0 950000 0  50000 950000 0  100000 950000 0  150000 950000 0  200000 950000 0  250000 950000 0  300000 950000 0  350000 950000 0  400000 950000 0  450000 950000 0  500000 950000 0  550000 950000 0  600000 950000 0  650000 950000 0  700000 950000 0  750000 950000 0  800000 950000 0  850000 950000 0  900000 950000 0  950000 950000 0  1000000 950000 0  0 1000000 0  50000 1000000 0  100000 1000000 0  150000 1000000 0  200000 1000000 0  250000 1000000 0  300000 1000000 0  350000 1000000 0  400000 1000000 0  450000 1000000 0  500000 1000000 0  550000 1000000 0  600000 1000000 0  650000 1000000 0  700000 1000000 0  750000 1000000 0  800000 1000000 0  850000 1000000 0  900000 1000000 0  950000 1000000 0  1000000 1000000 0  0 1050000 0  50000 1050000 0  100000 1050000 0  150000 1050000 0  200000 1050000 0  250000 1050000 0  300000 1050000 0  350000 1050000 0  400000 1050000 0  450000 1050000 0  500000 1050000 0  550000 1050000 0  600000 1050000 0  650000 1050000 0  700000 1050000 0  750000 1050000 0  800000 1050000 0  850000 1050000 0  900000 1050000 0  950000 1050000 0  1000000 1050000 0  0 1100000 0  50000 1100000 0  100000 1100000 0  150000 1100000 0  200000 1100000 0  250000 1100000 0  300000 1100000 0  350000 1100000 0  400000 1100000 0  450000 1100000 0  500000 1100000 0  550000 1100000 0  600000 1100000 0  650000 1100000 0  700000 1100000 0  750000 1100000 0  800000 1100000 0  850000 1100000 0  900000 1100000 0  950000 1100000 0  1000000 1100000 0  0 1150000 0  50000 1150000 0  100000 1150000 0  150000 1150000 0  200000 1150000 0  250000 1150000 0  300000 1150000 0  350000 1150000 0  400000 1150000 0  450000 1150000 0  500000 1150000 0  550000 1150000 0  600000 1150000 0  650000 1150000 0  700000 1150000 0  750000 1150000 0  800000 1150000 0  850000 1150000 0  900000 1150000 0  950000 1150000 0  1000000 1150000 0  0 1200000 0  50000 1200000 0  100000 1200000 0  150000 1200000 0  200000 1200000 0  250000 1200000 0  300000 1200000 0  350000 1200000 0  400000 1200000 0  450000 1200000 0  500000 1200000 0  550000 1200000 0  600000 1200000 0  650000 1200000 0  700000 1200000 0  750000 1200000 0  800000 1200000 0  850000 1200000 0  900000 1200000 0  950000 1200000 0  1000000 1200000 0  0 1250000 0  50000 1250000 0  100000 1250000 0  150000 1250000 0  200000 1250000 0  250000 1250000 0  300000 1250000 0  350000 1250000 0  400000 1250000 0  450000 1250000 0  500000 1250000 0  550000 1250000 0  600000 1250000 0  650000 1250000 0  700000 1250000 0  750000 1250000 0  800000 1250000 0  850000 1250000 0  900000 1250000 0  950000 1250000 0  1000000 1250000 0  0 1300000 0  50000 1300000 0  100000 1300000 0  150000 1300000 0  200000 1300000 0  250000 1300000 0  300000 1300000 0  350000 1300000 0  400000 1300000 0  450000 1300000 0  500000 1300000 0  550000 1300000 0  600000 1300000 0  650000 1300000 0  700000 1300000 0  750000 1300000 0  800000 1300000 0  850000 1300000 0  900000 1300000 0  950000 1300000 0  1000000 1300000 0  0 1350000 0  50000 1350000 0  100000 1350000 0  150000 1350000 0  200000 1350000 0  250000 1350000 0  300000 1350000 0  350000 1350000 0  400000 1350000 0  450000 1350000 0  500000 1350000 0  550000 1350000 0  600000 1350000 0  650000 1350000 0  700000 135
[...]
<PointData  Vectors="f_4501"> 
<DataArray  type="Float64"  Name="f_4501"  NumberOfComponents="3" format="ascii">-1.2107142170139783e-09 -8.6546202830060011e-10 0.0000000000000000e+00  7.9094594967552280e-08 -6.9743226367234844e-10 0.0000000000000000e+00  7.9765821239614133e-08 -6.9797702761125923e-11 0.0000000000000000e+00  7.9747246586586461e-08 -1.1503099028726027e-11 0.0000000000000000e+00  7.9821754252946742e-08 -9.3189421014679062e-12 0.0000000000000000e+00  7.9852942299620708e-08 -3.8571749645853440e-12 0.0000000000000000e+00  7.9871271192311477e-08 -2.2115746173001996e-12 0.0000000000000000e+00  7.9882754612620188e-08 -1.2595644749978067e-12 0.0000000000000000e+00  7.9889462611002667e-08 -5.7127996430092976e-13 0.0000000000000000e+00  7.9892668923917730e-08 -2.7089076283385159e-15 0.0000000000000000e+00  7.9892898861552707e-08 5.5970217602192659e-13 0.0000000000000000e+00  7.9890187794863473e-08 1.2149115330597658e-12 0.0000000000000000e+00  7.9884108771261665e-08 2.0937284512423717e-12 0.0000000000000000e+00  7.9873600682376792e-08 3.4391133897258697e-12 0.0000000000000000e+00  7.9856445148554832e-08 5.7125725144114007e-12 0.0000000000000000e+00  7.9828921061255290e-08 9.5661179720100164e-12 0.0000000000000000e+00  7.9778251047333100e-08 2.3787622672054140e-11 0.0000000000000000e+00  7.9659378647267658e-08 5.1975406890913168e-11 0.0000000000000000e+00  7.9582840333526364e-08 3.8182956626046895e-11 0.0000000000000000e+00  7.7275849010276632e-08 2.4005189677405417e-09 0.0000000000000000e+00  -3.4025629225333234e-09 2.9192277388567337e-09 0.0000000000000000e+00  -9.1558353660973223e-10 -8.1784443274354564e-10 0.0000000000000000e+00  -1.4042349938982609e-08 -1.1779373167526538e-08 0.0000000000000000e+00  -6.2506412894013967e-09 -4.0016913079186241e-09 0.0000000000000000e+00  -4.4829480659432780e-09 -1.7625434500529303e-09 0.0000000000000000e+00  -2.6084152581858121e-09 -9.7910751423969212e-10 0.0000000000000000e+00  -1.6889417631666399e-09 -5.7584009098818153e-10 0.0000000000000000e+00  -1.1029733998552089e-09 -3.6577765188046792e-10 0.0000000000000000e+00  -7.2975208933137936e-10 -2.3599412055625914e-10 0.0000000000000000e+00  -4.9873601146126624e-10 -1.4626351234817788e-10 0.0000000000000000e+00  -3.7243742929065704e-10 -7.6812631262404662e-11 0.0000000000000000e+00  -3.3270074142194683e-10 -1.5903900142874675e-11 0.0000000000000000e+00  -3.7411022697439258e-10 4.5180141314140872e-11 0.0000000000000000e+00  -5.0220545007116572e-10 1.1519393647595851e-10 0.0000000000000000e+00  -7.3519704098242985e-10 2.0599406408880668e-10 0.0000000000000000e+00  -1.1102422456334845e-09 3.3776267767592262e-10 0.0000000000000000e+00  -1.6990067065590525e-09 5.5156396567889514e-10 0.0000000000000000e+00  -2.6379026934749431e-09 9.4571835809703941e-10 0.0000000000000000e+00  -4.1715473873051240e-09 1.7761038879180652e-09 0.0000000000000000e+00  -7.4956820135938193e-09 3.9821565848386818e-09 0.0000000000000000e+00  -1.1827125863964346e-08 1.2916647036839168e-08 0.0000000000000000e+00  -2.5939700471946437e-09 2.4896379401179796e-09 0.0000000000000000e+00  -1.6726749529248563e-10 -2.7890120674168697e-10 0.0000000000000000e+00  -4.6790913473896929e-09 -9.2536577845473544e-09 0.0000000000000000e+00  -5.7624653717972564e-09 -5.8851606909841178e-09 0.0000000000000000e+00  -5.5669805022064115e-09 -3.3177462180237015e-09 0.0000000000000000e+00  -4.6071653898831130e-09 -1.9160079317681759e-09 0.0000000000000000e+00  -4.0315923267732573e-09 -1.1874885408110637e-09 0.0000000000000000e+00  -3.5858596061688662e-09 -7.5976049705659838e-10 0.0000000000000000e+00  -3.2839673773819437e-09 -4.8148922749752619e-10 0.0000000000000000e+00  -3.0890933162494196e-09 -2.8350376291050220e-10 0.0000000000000000e+00  -2.9797090312286385e-09 -1.2743231626795677e-10 0.0000000000000000e+00  -2.9441968191505564e-09 1.0520113469497271e-11 0.0000000000000000e+00  -2.9787987817868946e-09 1.4854249187533856e-10 0.0000000000000000e+00  -3.0869472674275589e-09 3.0480021171354499e-10 0.0000000000000000e+00  -3.2797575993865040e-09 5.0294466841045152e-10 0.0000000000000000e+00  -3.5774754145370128e-09 7.8069051125341636e-10 0.0000000000000000e+00  -4.0103916229294639e-09 1.2071471255006689e-09 0.0000000000000000e+00  -4.6124556351744178e-09 1.9221043747119343e-09 0.0000000000000000e+00  -5.4013672351476126e-09 3.2383188083592148e-09 0.0000000000000000e+00  -5.9366237861589155e-09 5.8528527564761026e-09 0.0000000000000000e+00  -4.0868826570980801e-09 1.0344482393863999e-08 0.0000000000000000e+00  -1.8418387458546055e-10 3.8011830550911677e-10 0.0000000000000000e+00  -2.1265343765381876e-11 -2.1914717329908434e-10 0.0000000000000000e+00  -2.0010721686545311e-09 -6.8372791491373457e-09 0.0000000000000000e+00  -3.7494524144238358e-09 -5.2740335845059506e-09 0.0000000000000000e+00  -4.1312004131189026e-09 -3.5296140232368536e-09 0.0000000000000000e+00  -4.0527209321913899e-09 -2.3404324023814115e-09 0.0000000000000000e+00  -3.8370171223445269e-09 -1.5762238422133084e-09 0.0000000000000000e+00  -3.6010368777818333e-09 -1.0552856608069936e-09 0.0000000000000000e+00  -3.4155820175065412e-09 -6.9114532603611413e-10 0.0000000000000000e+00  -3.2848926011365025e-09 -4.1880125456075086e-10 0.0000000000000000e+00  -3.2078891930772522e-09 -1.9729277154990143e-10 0.0000000000000000e+00  -3.1821898306823736e-09 1.4757600042506321e-12 0.0000000000000000e+00  -3.2066894813307371e-09 2.0023746072536994e-10 0.0000000000000000e+00  -3.2822382566508778e-09 4.2168165372461443e-10 0.0000000000000000e+00  -3.4110047961266769e-09 6.9373268797771601e-10 0.0000000000000000e+00  -3.5937707331148274e-09 1.0566209078162901e-09 0.0000000000000000e+00  -3.8217238385381684e-09 1.5738710057854676e-09 0.0000000000000000e+00  -4.0529726652178513e-09 2.3484489177855372e-09 0.0000000000000000e+00  -4.1370884748905381e-09 3.5310676093000371e-09 0.0000000000000000e+00  -3.6576603473834115e-09 5.2187781853532964e-09 0.0000000000000000e+00  -1.9956810826803966e-09 6.7333912965517550e-09 0.0000000000000000e+00  -3.5332469645646430e-11 3.0684787629891957e-10 0.0000000000000000e+00  -9.8587298819879393e-12 -1.5542037347004300e-10 0.0000000000000000e+00  -1.1278618473592483e-09 -4.9099804683628018e-09 0.0000000000000000e+00  -2.3298854663791372e-09 -4.2364507750742577e-09 0.0000000000000000e+00  -2.9550934452315666e-09 -3.2567322009379162e-09 0.0000000000000000e+00  -3.2046712195680375e-09 -2.3902087992522492e-09 0.0000000000000000e+00  -3.2308570546557108e-09 -1.7076805917824520e-09 0.0000000000000000e+00  -3.1741763927247385e-09 -1.1953881612619056e-09 0.0000000000000000e+00  -3.1003940482763491e-09 -8.0660169958944101e-10 0.0000000000000000e+00  -3.0366115732880501e-09 -4.9830078964555779e-10 0.0000000000000000e+00  -2.9951633149917359e-09 -2.3801923752373149e-10 0.0000000000000000e+00  -2.9806256868593688e-09 -1.2453827793772450e-13 0.0000000000000000e+00  -2.9940902289115568e-09 2.3767595364428310e-10 0.0000000000000000e+00  -3.0343600789840648e-09 4.9762927677494239e-10 0.0000000000000000e+00  -3.0968691215281522e-09 8.0526197152581555e-10 0.0000000000000000e+00  -3.1697457383307787e-09 1.1927932026689722e-09 0.0000000000000000e+00  -3.2247151761018378e-09 1.7016680808969491e-09 0.0000000000000000e+00  -3.1984413277157547e-09 2.3791984160559621e-09 0.0000000000000000e+00  -2.9628727948355758e-09 3.2511828031743325e-09 0.0000000000000000e+00  -2.3182363634199431e-09 4.2255182058478621e-09 0.0000000000000000e+00  -1.1420551502324464e-09 4.9213439513266301e-09 0.0000000000000000e+00  -2.6159772459474155e-11 2.0462333745453367e-10 0.0000000000000000e+00  -5.4226572837374465e-12 -1.1483700836136708e-10 0.0000000000000000e+00  -7.2458472831899216e-10 -3.7345274221554718e-09 0.0000000000000000e+00  -1.5858765789763658e-09 -3.4169783004859370e-09 0.0000000000000000e+00  -2.1786995533814815e-09 -2.8236383887647758e-09 0.0000000000000000e+00  -2.5205516643346662e-09 -2.2080803771491325e-09 0.0000000000000000e+00  -2.6809876927722095e-09 -1.6642875263394539e-09 0.0000000000000000e+00  -2.7417959512784289e-09 -1.2129458819719348e-09 0.0000000000000000e+00  -2.7532876325531927e-09 -8.4134705258871848e-10 0.0000000000000000e+00  -2.7458635642951105e-09 -5.2912519115444717e-10 0.0000000000000000e+00  -2.7361209684217049e-09 -2.5525972135966883e-10 0.0000000000000000e+00  -2.7318577899175967e-09 -4.0267667562760917e-14 0.0000000000000000e+00  -2.7353491659049777e-09 2.5506955006523476e-10 0.0000000000000000e+00  -2.7443301130860293e-09 5.2858007658641369e-10 0.0000000000000000e+00  -2.7510715815404685e-09 8.4012018966859289e-10 0.0000000000000000e+00  -2.7393522363553054e-09 1.2107716624817109e-09 0.0000000000000000e+00  -2.6788832795399208e-09 1.6608609746741404e-09 0.0000000000000000e+00  -2.5179467962843111e-09 2.2012784383567964e-09 0.0000000000000000e+00  -2.1806187278587290e-09 2.8115135886669360e-09 0.0000000000000000e+00  -1.5880192587593855e-09 3.4027517850917439e-09 0.0000000000000000e+00  -7.3569864022981289e-10 3.7532884125524011e-09 0.0000000000000000e+00  -1.1313991524654433e-11 1.4408086830910431e-10 0.0000000000000000e+00  -3.5465958717387204e-12 -8.8829532804416143e-11 0.0000000000000000e+00  -5.1252743924585060e-10 -2.9238071952877907e-09 0.0000000000000000e+00  -1.1592867139417756e-09 -2.7528674261654336e-09 0.0000000000000000e+00  -1.6655557173626946e-09 -2.3764559013638746e-09 0.0000000000000000e+00  -2.0151189433225556e-09 -1.9463679081077240e-09 0.0000000000000000e+00  -2.2328017155696825e-09 -1.5282311685606849e-09 0.0000000000000000e+00  -2.3585776287669218e-09 -1.1501119293231923e-09 0.0000000000000000e+00  -2.4259250749617559e-09 -8.1706710775209119e-10 0.0000000000000000e+00  -2.4593587772399969e-09 -5.2238895991994775e-10 0.0000000000000000e+00  -2.4739863308920672e-09 -2.5453512111715209e-10 0.0000000000000000e+00  -2.4778607523527951e-09 -3.1444741198271001e-13 0.0000000000000000e+00  -2.4734980796393239e-09 2.5380739346431035e-10 0.0000000000000000e+00  -2.4584367137789478e-09 5.2135315886123480e-10 0.0000000000000000e+00  -2.4247047473717221e-09 8.1547132608231753e-10 0.0000000000000000e+00  -2.3572838477425976e-09 1.1477002199543053e-09 0.0000000000000000e+00  -2.2320614816038679e-09 1.5246646156455969e-09 0.0000000000000000e+00  -2.0151098057526338e-09 1.9412202383484726e-09 0.0000000000000000e+00  -1.6674878860857858e-09 2.3694334653311843e-09 0.0000000000000000e+00  -1.1620497401784981e-09 2.7461994241926230e-09 0.0000000000000000e+00  -5.2048139962286921e-10 2.9385040498806484e-09 0.0000000000000000e+00  -6.9415802395723230e-12 1.0929867722461517e-10 0.0000000000000000e+00  -2.6222525715540067e-12 -6.9818313766072231e-11 0.0000000000000000e+00  -3.8711423324624037e-10 -2.3217081146333470e-09 0.0000000000000000e+00  -8.9185825673792915e-10 -2.2237853905268418e-09 0.0000000000000000e+00  -1.3175962072276853e-09 -1.9735249552950602e-09 0.0000000000000000e+00  -1.6443417517926142e-09 -1.6674821178165019e-09 0.0000000000000000e+00  -1.8763634568020974e-09 -1.3483051383960442e-09 0.0000000000000000e+00  -2.0321860236206269e-09 -1.0404264401257151e-09 0.0000000000000000e+00  -2.1315564842151086e-09 -7.5374240293356716e-10 0.0000000000000000e+00  -2.1910301804726580e-09 -4.8868175676105447e-10 0.0000000000000000e+00  -2.2222136586783532e-09 -2.4018211021477774e-10 0.0000000000000000e+00  -2.2317872743270623e-09 -5.3256353954477667e-13 0.0000000000000000e+00  -2.2219377195140753e-09 2.3903872375457866e-10 0.0000000000000000e+00  -2.1905376636009700e-09 4.8729959189978488e-10 0.0000000000000000e+00  -2.1309638949510246e-09 7.5195674623593432e-10 0.0000000000000000e+00  -2.0316965444639387e-09 1.0380266555446896e-09 0.0000000000000000e+00  -1.8762905143244299e-09 1.3451048467283912e-09 0.0000000000000000e+00  -1.6450144434649111e-09 1.6633619362434956e-09 0.0000000000000000e+00  -1.3198664973423721e-09 1.9690163825027333e-09 0.0000000000000000e+00  -8.9451726486864769e-10 2.2205938002082564e-09 0.0000000000000000e+00  -3.9279607439433739e-10 2.3337440252441431e-09 0.0000000000000000e+00  -4.7256041829437143e-12 8.4963049649714162e-11 0.0000000000000000e+00  -2.0570587737528970e-12 -5.5158605563416544e-11 0.0000000000000000e+00  -3.0655311885956447e-10 -1.8522966483464615e-09 0.0000000000000000e+00  -7.1442682362266115e-10 -1.7934281704828266e-09 0.0000000000000000e+00  -1.0746435168759341e-09 -1.6203304093223225e-09 0.0000000000000000e+00  -1.3696709596117868e-09 -1.3982856994745447e-09 0.0000000000000000e+00  -1.5962141535032157e-09 -1.1547494484207660e-09 0.0000000000000000e+00  -1.7616204940244356e-09 -9.0802774755933083e-10 0.0000000000000000e+00  -1.8762441341292907e-09 -6.6800501806196101e-10 0.0000000000000000e+00  -1.9501946529060932e-09 -4.3798418333489778e-10 0.0000000000000000e+00  -1.9913097232288203e-09 -2.1679723052960482e-10 0.0000000000000000e+00  -2.0044261806779910e-09 -6.4409818909269489e-13 0.0000000000000000e+00  -1.9911771499858305e-09 2.1545189379652700e-10 0.0000000000000000e+00  -1.9499761581467723e-09 4.3646879555254228e-10 0.0000000000000000e+00  -1.8760389500409675e-09 6.6620466893949651e-10 0.0000000000000000e+00  -1.7615774281282888e-09 9.0583409594055844e-10 0.0000000000000000e+00  -1.5965503230999094e-09 1.1520709697018311e-09 0.0000000000000000e+00  -1.3706189898017122e-09 1.3951663757224134e-09 0.0000000000000000e+00  -1.0767346909717597e-09 1.6173771658729141e-09 0.0000000000000000e+00  -7.1658427242392014e-10 1.7918749527925455e-09 0.0000000000000000e+00  -3.1073628034846987e-10 1.8622014430720494e-09 0.0000000000000000e+00  -3.4433981623416614e-12 6.6948249483888977e-11 0.0000000000000000e+00  -1.6889649528981613e-12 -4.3346572236547563e-11 0.0000000000000000e+00  -2.5201348182338016e-10 -1.4716746739448980e-09 0.0000000000000000e+00  -5.9167583277336051e-10 -1.4350582422077531e-09 0.0000000000000000e+00  -9.0067169792725731e-10 -1.3120221277015270e-09 0.0000000000000000e+00  -1.1645875751342602e-09 -1.1487539613153248e-09 0.0000000000000000e+00  -1.3777098907022988e-09 -9.6306428867121093e-10 0.0000000000000000e+00  -1.5417182963176072e-09 -7.6792129103745605e-10 0.0000000000000000e+00  -1.6612108152543691e-09 -5.7156575419064444e-10 0.0000000000000000e+00  -1.7416837632776340e-09 -3.7805332368676431e-10 0.0000000000000000e+00  -1.7878758043141993e-09 -1.8819730888458457e-10 0.0000000000000000e+00  -1.8028966694695505e-09 -7.0000837173879998e-13 0.0000000000000000e+00  -1.7878319877141732e-09 1.8675909690494456e-10 0.0000000000000000e+00  -1.7416326639089468e-09 3.7650187833214786e-10 0.0000000000000000e+00  -1.6612252737991755e-09 5.6983390786753958e-10 0.0000000000000000e+00  -1.5419094481187712e-09 7.6595758219803570e-10 0.0000000000000000e+00  -1.3782300294731815e-09 9.6085664095270636e-10 0.0000000000000000e+00  -1.1655740449077727e-09 1.1464072302951629e-09 0.0000000000000000e+00  -9.0242492156109193e-10 1.3100410291797218e-09 0.0000000000000000e+00  -5.9332818159138498e-10 1.4343089442530540e-09 0.0000000000000000e+00  -2.5513861424016124e-10 1.4799587468308413e-09 0.0000000000000000e+00  -2.6425409118507152e-12 5.2906026782483037e-11 0.0000000000000000e+00  -1.4412315679771603e-12 -3.3474324182185073e-11 0.0000000000000000e+00  -2.1389578675902294e-10 -1.1527652973534374e-09 0.0000000000000000e+00  -5.0456898970322569e-10 -1.1295756070464480e-09 0.0000000000000000e+00  -7.7425827260362193e-10 -1.0410349867696703e-09 0.0000000000000000e+00  -1.0110935355432457e-09 -9.2065068804640494e-10 0.0000000000000000e+00  -1.2088571564669998e-09 -7.8010094792672196e-10 0.0000000000000000e+00  -1.3664286285328532e-09 -6.2835872310139519e-10 0.0000000000000000e+00  -1.4850535979268414e-09 -4.7176878857463825e-10 0.0000000000000000e+00  -1.5671802988438160e-09 -3.1413224420640085e-10 0.0000000000000000e+00  -1.6152791522196091e-09 -1.5708028298350015e-10 0.0000000000000000e+00  -1.6311028225268767e-09 -7.1925768639277148e-13 0.0000000000000000e+00  -1.6152856842421293e-09 1.5561854687978581e-10 0.0000000000000000e+00  -1.5672199676994442e-09 3.1260392786394324e-10 0.0000000000000000e+00  -1.4851793192593205e-09 4.7014024868964620e-10 0.0000000000000000e+00  -1.3667186002210096e-09 6.2661682979866041e-10 0.0000000000000000e+00  -1.2094111485094743e-09 7.7827077401853405e-10 0.0000000000000000e+00  -1.0119863871376045e-09 9.1884430011312535e-10 0.0000000000000000e+00  -7.7565829257299257e-10 1.0396519377576484e-09 0.0000000000000000e+00  -5.0580507363887504e-10 1.1292402858761452e-09 0.0000000000000000e+00  -2.1623426776361987e-10 1.1598487135620167e-09 0.0000000000000000e+00  -2.1116655802710755e-12 4.1498571973471201e-11 0.0000000000000000e+00  -1.2743305043958655e-12 -2.4953528072243382e-11 0.0000000000000000e+00  -1.8695119551038097e-10 -8.7760707779881744e-10 0.0000000000000000e+00  -4.4230934559055347e-10 -8.6300484048807799e-10 0.0000000000000000e+00  -6.8240802033596291e-10 -7.9970793911783829e-10 0.0000000000000000e+00  -8.9720408117802786e-10 -7.1212189152350152e-10 0.0000000000000000e+00  -1.0806411735424603e-09 -6.0792990545938435e-10 0.0000000000000000e+00  -1.2302515141063984e-09 -4.9323162764028376e-10 0.0000000000000000e+00  -1.3453850092996187e-09 -3.7266762245809754e-10 0.0000000000000000e+00  -1.4265794595289685e-09 -2.4938354630373042e-10 0.0000000000000000e+00  -1.4747710499348922e-09 -1.2515044930755684e-10 0.0000000000000000e+00  -1.4907437367222088e-09 -7.1756683819881700e-13 0.0000000000000000e+00  -1.4748010486654595e-09 1.2370372382384961e-10 0.0000000000000000e+00  -1.4266582486453170e-09 2.4790514897333210e-10 0.0000000000000000e+00  -1.3455492718689154e-09 3.7114763322529751e-10 0.0000000000000000e+00  -1.2305533527024633e-09 4.9167899978037310e-10 0.0000000000000000e+00  -1.0811426178296035e-09 6.0638343690168795e-10 0.0000000000000000e+00  -8.9794233856552311e-10 7.1068124293002863e-10 0.0000000000000000e+00  -6.8347886319770632e-10 7.9869146092189884e-10 0.0000000000000000e+00  -4.4321236122985351e-10 8.6288766339428780e-10 0.0000000000000000e+00  -1.8867430741486889e-10 8.8381388702509387e-10 0.0000000000000000e+00  -1.7461574213091367e-12 3.1904467266773445e-11 0.0000000000000000e+00  -1.1674930265914994e-12 -1.7369045370298444e-11 0.0000000000000000e+00  -1.6817153949666743e-10 -6.3342057998932386e-10 0.0000000000000000e+00  -3.9854003435912306e-10 -6.2468462789529477e-10 0.0000000000000000e+00  -6.1710037205974162e-10 -5.8102049390535680e-10 0.0000000000000000e+00  -8.1502720003863012e-10 -5.1982141206390356e-10 0.0000000000000000e+00  -9.8660000996700638e-10 -4.4605042335031354e-10 0.0000000000000000e+00  -1.1287255495786478e-09 -3.6372684543888446e-10 0.0000000000000000e+00  -1.2397118026928383e-09 -2.7606197190733349e-10 0.0000000000000000e+00  -1.3189496567668475e-09 -1.8541918109842480e-10 0.0000000000000000e+00  -1.3663983411704362e-09 -9.3335446372540026e-11 0.0000000000000000e+00  -1.3821999125648047e-09 -7.0630303109180500e-13 0.0000000000000000e+00  -1.3664338060785822e-09 9.1919521372149545e-11 0.0000000000000000e+00  -1.3190331272162109e-09 1.8399623746718083e-10 0.0000000000000000e+00  -1.2398672581487195e-09 2.7463735583703032e-10 0.0000000000000000e+00  -1.1289858061291465e-09 3.6232127634112136e-10 0.0000000000000000e+00  -9.8700164418451716e-10 4.4470572837251445e-10 0.0000000000000000e+00  -8.1558671984885708e-10 5.1862178085918514e-10 0.0000000000000000e+00  -6.1787271024034367e-10 5.8022771995131892e-10 0.0000000000000000e+00  -3.9917121496868616e-10 6.2468331047594640e-10 0.0000000000000000e+00  -1.6938801652171092e-10 6.3900411607452240e-10 0.0000000000000000e+00  -1.4899247554491344e-12 2.3576868123912527e-11 0.0000000000000000e+00  -1.1095264997319135e-12 -1.0404500516331681e-11 0.0000000000000000e+00  -1.5579106522390947e-10 -4.1047262935722510e-10 0.0000000000000000e+00  -3.6945516339887628e-10 -4.0607727804912088e-10 0.0000000000000000e+00  -5.7337096724272716e-10 -3.7865735146227484e-10 0.0000000000000000e+00  -7.5944615319682023e-10 -3.3983896078335990e-10 0.0000000000000000e+00  -9.2227947285361043e-10 