<?xml version="1.0"?>
<VTKFile type="UnstructuredGrid"  version="0.1"  >
<UnstructuredGrid>
<Piece  NumberOfPoints="651" NumberOfCells="1200">
<Points>
<DataArray  type="Float64"  NumberOfComponents="3"  format="ascii">0 0 0  50000 0 0  100000 0 0  150000 0 0  200000 0 0  250000 0 0  300000 0 0  350000 0 0  400000 0 0  450000 0 0  500000 0 0  550000 0 0  600000 0 0  650000 0 0  700000 0 0  750000 0 0  800000 0 0  850000 0 0  900000 0 0  950000 0 0  1000000 0 0  0 50000 0  50000 50000 0  100000 50000 0  150000 50000 0  200000 50000 0  250000 50000 0  300000 50000 0  350000 50000 0  400000 50000 0  450000 50000 0  500000 50000 0  550000 50000 0  600000 50000 0  650000 50000 0  700000 50000 0  750000 50000 0  800000 50000 0  850000 50000 0  900000 50000 0  950000 50000 0  1000000 50000 0  0 100000 0  50000 100000 0  100000 100000 0  150000 100000 0  200000 100000 0  250000 100000 0  300000 100000 0  350000 100000 0  400000 100000 0  450000 100000 0  500000 100000 0  550000 100000 0  600000 100000 0  650000 100000 0  700000 100000 0  750000 100000 0  800000 100000 0  850000 100000 0  900000 100000 0  950000 100000 0  1000000 100000 0  0 150000 0  50000 150000 0  100000 150000 0  150000 150000 0  200000 150000 0  250000 150000 0  300000 150000 0  350000 150000 0  400000 150000 0  450000 150000 0  500000 150000 0  550000 150000 0  600000 150000 0  650000 150000 0  700000 150000 0  750000 150000 0  800000 150000 0  850000 150000 0  900000 150000 0  950000 150000 0  1000000 150000 0  0 200000 0  50000 200000 0  100000 200000 0  150000 200000 0  200000 200000 0  250000 200000 0  300000 200000 0  350000 200000 0  400000 200000 0  450000 200000 0  500000 200000 0  550000 200000 0  600000 200000 0  650000 200000 0  700000 200000 0  750000 200000 0  800000 200000 0  850000 200000 0  900000 200000 0  950000 200000 0  1000000 200000 0  0 250000 0  50000 250000 0  100000 250000 0  150000 250000 0  200000 250000 0  250000 250000 0  300000 250000 0  350000 250000 0  400000 250000 0  450000 250000 0  500000 250000 0  550000 250000 0  600000 250000 0  650000 250000 0  700000 250000 0  750000 250000 0  800000 250000 0  850000 250000 0  900000 250000 0  950000 250000 0  1000000 250000 0  0 300000 0  50000 300000 0  100000 300000 0  150000 300000 0  200000 300000 0  250000 300000 0  300000 300000 0  350000 300000 0  400000 300000 0  450000 300000 0  500000 300000 0  550000 300000 0  600000 300000 0  650000 300000 0  700000 300000 0  750000 300000 0  800000 300000 0  850000 300000 0  900000 300000 0  950000 300000 0  1000000 300000 0  0 350000 0  50000 350000 0  100000 350000 0  150000 350000 0  200000 350000 0  250000 350000 0  300000 350000 0  350000 350000 0  400000 350000 0  450000 350000 0  500000 350000 0  550000 350000 0  600000 350000 0  650000 350000 0  700000 350000 0  750000 350000 0  800000 350000 0  850000 350000 0  900000 350000 0  950000 350000 0  1000000 350000 0  0 400000 0  50000 400000 0  100000 400000 0  150000 400000 0  200000 400000 0  250000 400000 0  300000 400000 0  350000 400000 0  400000 400000 0  450000 400000 0  500000 400000 0  550000 400000 0  600000 400000 0  650000 400000 0  700000 400000 0  750000 400000 0  800000 400000 0  850000 400000 0  900000 400000 0  950000 400000 0  1000000 400000 0  0 450000 0  50000 450000 0  100000 450000 0  150000 450000 0  200000 450000 0  250000 450000 0  300000 450000 0  350000 450000 0  400000 450000 0  450000 450000 0  500000 450000 0  550000 450000 0  600000 450000 0  650000 450000 0  700000 450000 0  750000 450000 0  800000 450000 0  850000 450000 0  900000 450000 0  950000 450000 0  1000000 450000 0  0 500000 0  50000 500000 0  100000 500000 0  150000 500000 0  200000 500000 0  250000 500000 0  300000 500000 0  350000 500000 0  400000 500000 0  450000 500000 0  500000 500000 0  550000 500000 0  600000 500000 0  650000 500000 0  700000 500000 0  750000 500000 0  800000 500000 0  850000 500000 0  900000 500000 0  950000 500000 0  1000000 500000 0  0 550000 0  50000 550000 0  100000 550000 0  150000 550000 0  200000 550000 0  250000 550000 0  300000 550000 0  350000 550000 0  400000 550000 0  450000 550000 0  500000 550000 0  550000 550000 0  600000 550000 0  650000 550000 0  700000 550000 0  750000 550000 0  800000 550000 0  850000 550000 0  900000 550000 0  950000 550000 0  1000000 550000 0  0 600000 0  50000 600000 0  100000 600000 0  150000 600000 0  200000 600000 0  250000 600000 0  300000 600000 0  350000 600000 0  400000 600000 0  450000 600000 0  500000 600000 0  550000 600000 0  600000 600000 0  650000 600000 0  700000 600000 0  750000 600000 0  800000 600000 0  850000 600000 0  900000 600000 0  950000 600000 0  1000000 600000 0  0 650000 0  50000 650000 0  100000 650000 0  150000 650000 0  200000 650000 0  250000 650000 0  300000 650000 0  350000 650000 0  400000 650000 0  450000 650000 0  500000 650000 0  550000 650000 0  600000 650000 0  650000 650000 0  700000 650000 0  750000 650000 0  800000 650000 0  850000 650000 0  900000 650000 0  950000 650000 0  1000000 650000 0  0 700000 0  50000 700000 0  100000 700000 0  150000 700000 0  200000 700000 0  250000 700000 0  300000 700000 0  350000 700000 0  400000 700000 0  450000 700000 0  500000 700000 0  550000 700000 0  600000 700000 0  650000 700000 0  700000 700000 0  750000 700000 0  800000 700000 0  850000 700000 0  900000 700000 0  950000 700000 0  1000000 700000 0  0 750000 0  50000 750000 0  100000 750000 0  150000 750000 0  200000 750000 0  250000 750000 0  300000 750000 0  350000 750000 0  400000 750000 0  450000 750000 0  500000 750000 0  550000 750000 0  600000 750000 0  650000 750000 0  700000 750000 0  750000 750000 0  800000 750000 0  850000 750000 0  900000 750000 0  950000 750000 0  1000000 750000 0  0 800000 0  50000 800000 0  100000 800000 0  150000 800000 0  200000 800000 0  250000 800000 0  300000 800000 0  350000 800000 0  400000 800000 0  450000 800000 0  500000 800000 0  550000 800000 0  600000 800000 0  650000 800000 0  700000 800000 0  750000 800000 0  800000 800000 0  850000 800000 0  900000 800000 0  950000 800000 0  1000000 800000 0  0 850000 0  50000 850000 0  100000 850000 0  150000 850000 0  200000 850000 0  250000 850000 0  300000 850000 0  350000 850000 0  400000 850000 0  450000 850000 0  500000 850000 0  550000 850000 0  600000 850000 0  650000 850000 0  700000 850000 0  750000 850000 0  800000 850000 0  850000 850000 0  900000 850000 0  950000 850000 0  1000000 850000 0  0 900000 0  50000 900000 0  100000 900000 0  150000 900000 0  200000 900000 0  250000 900000 0  300000 900000 0  350000 900000 0  400000 900000 0  450000 900000 0  500000 900000 0  550000 900000 0  600000 900000 0  650000 900000 0  700000 900000 0  750000 900000 0  800000 900000 0  850000 900000 0  900000 900000 0  950000 900000 0  1000000 900000 0  0 950000 0  50000 950000 0  100000 950000 0  150000 950000 0  200000 950000 0  250000 950000 0  300000 950000 0  350000 950000 0  400000 950000 0  450000 950000 0  500000 950000 0  550000 950000 0  600000 950000 0  650000 950000 0  700000 950000 0  750000 950000 0  800000 950000 0  850000 950000 0  900000 950000 0  950000 950000 0  1000000 950000 0  0 1000000 0  50000 1000000 0  100000 1000000 0  150000 1000000 0  200000 1000000 0  250000 1000000 0  300000 1000000 0  350000 1000000 0  400000 1000000 0  450000 1000000 0  500000 1000000 0  550000 1000000 0  600000 1000000 0  650000 1000000 0  700000 1000000 0  750000 1000000 0  800000 1000000 0  850000 1000000 0  900000 1000000 0  950000 1000000 0  1000000 1000000 0  0 1050000 0  50000 1050000 0  100000 1050000 0  150000 1050000 0  200000 1050000 0  250000 1050000 0  300000 1050000 0  350000 1050000 0  400000 1050000 0  450000 1050000 0  500000 1050000 0  550000 1050000 0  600000 1050000 0  650000 1050000 0  700000 1050000 0  750000 1050000 0  800000 1050000 0  850000 1050000 0  900000 1050000 0  950000 1050000 0  1000000 1050000 0  0 1100000 0  50000 1100000 0  100000 1100000 0  150000 1100000 0  200000 1100000 0  250000 1100000 0  300000 1100000 0  350000 1100000 0  400000 1100000 0  450000 1100000 0  500000 1100000 0  550000 1100000 0  600000 1100000 0  650000 1100000 0  700000 1100000 0  750000 1100000 0  800000 1100000 0  850000 1100000 0  900000 1100000 0  950000 1100000 0  1000000 1100000 0  0 1150000 0  50000 1150000 0  100000 1150000 0  150000 1150000 0  200000 1150000 0  250000 1150000 0  300000 1150000 0  350000 1150000 0  400000 1150000 0  450000 1150000 0  500000 1150000 0  550000 1150000 0  600000 1150000 0  650000 1150000 0  700000 1150000 0  750000 1150000 0  800000 1150000 0  850000 1150000 0  900000 1150000 0  950000 1150000 0  1000000 1150000 0  0 1200000 0  50000 1200000 0  100000 1200000 0  150000 1200000 0  200000 1200000 0  250000 1200000 0  300000 1200000 0  350000 1200000 0  400000 1200000 0  450000 1200000 0  500000 1200000 0  550000 1200000 0  600000 1200000 0  650000 1200000 0  700000 1200000 0  750000 1200000 0  800000 1200000 0  850000 1200000 0  900000 1200000 0  950000 1200000 0  1000000 1200000 0  0 1250000 0  50000 1250000 0  100000 1250000 0  150000 1250000 0  200000 1250000 0  250000 1250000 0  300000 1250000 0  350000 1250000 0  400000 1250000 0  450000 1250000 0  500000 1250000 0  550000 1250000 0  600000 1250000 0  650000 1250000 0  700000 1250000 0  750000 1250000 0  800000 1250000 0  850000 1250000 0  900000 1250000 0  950000 1250000 0  1000000 1250000 0  0 1300000 0  50000 1300000 0  100000 1300000 0  150000 1300000 0  200000 1300000 0  250000 1300000 0  300000 1300000 0  350000 1300000 0  400000 1300000 0  450000 1300000 0  500000 1300000 0  550000 1300000 0  600000 1300000 0  650000 1300000 0  700000 1300000 0  750000 1300000 0  800000 1300000 0  850000 1300000 0  900000 1300000 0  950000 1300000 0  1000000 1300000 0  0 1350000 0  50000 1350000 0  100000 1350000 0  150000 1350000 0  200000 1350000 0  250000 1350000 0  300000 1350000 0  350000 1350000 0  400000 1350000 0  450000 1350000 0  500000 1350000 0  550000 1350000 0  600000 1350000 0  650000 1350000 0  700000 135
[...]
<PointData  Vectors="f_4501"> 
<DataArray  type="Float64"  Name="f_4501"  NumberOfComponents="3" format="ascii">-1.1826087515097938e-09 -7.7168987469944249e-10 0.0000000000000000e+00  7.9150295600551259e-08 -6.2498863862768748e-10 0.0000000000000000e+00  7.9843795903563576e-08 -2.1479803849999019e-11 0.0000000000000000e+00  7.9814332972127011e-08 1.2273518727005297e-11 0.0000000000000000e+00  7.9880411142160127e-08 3.1000976551077671e-12 0.0000000000000000e+00  7.9903787694350567e-08 3.3259880923622805e-12 0.0000000000000000e+00  7.9917185316873791e-08 2.0500089921171185e-12 0.0000000000000000e+00  7.9925370311364998e-08 1.3409478159993981e-12 0.0000000000000000e+00  7.9930056962818466e-08 8.6076326525819359e-13 0.0000000000000000e+00  7.9932284470216314e-08 5.0209421617520743e-13 0.0000000000000000e+00  7.9932441020179053e-08 2.1473493550810449e-13 0.0000000000000000e+00  7.9930551891349448e-08 -3.5040907863475102e-14 0.0000000000000000e+00  7.9926284848572134e-08 -2.6776971593364612e-13 0.0000000000000000e+00  7.9918804475367760e-08 -4.7200537335812300e-13 0.0000000000000000e+00  7.9906225284483371e-08 -5.3696994497444163e-13 0.0000000000000000e+00  7.9885542506062095e-08 -9.5168608926588512e-13 0.0000000000000000e+00  7.9843083346285855e-08 6.1059510976421088e-12 0.0000000000000000e+00  7.9731057497841665e-08 1.3416655096160667e-11 0.0000000000000000e+00  7.9640809280708016e-08 -4.3177860943363253e-11 0.0000000000000000e+00  7.7278755779747110e-08 2.3067999707436408e-09 0.0000000000000000e+00  -3.4453550308416904e-09 2.7701494023821460e-09 0.0000000000000000e+00  -8.8277699458702303e-10 -7.4678433627976365e-10 0.0000000000000000e+00  -1.0642026977382945e-08 -1.9144683107060500e-08 0.0000000000000000e+00  2.1028770930102266e-09 -6.4736042559681480e-09 0.0000000000000000e+00  6.0741280401919365e-09 -2.8134965371190968e-09 0.0000000000000000e+00  9.1738832476778724e-09 -1.4249148890745152e-09 0.0000000000000000e+00  1.0680344562068813e-08 -8.0770980798490539e-10 0.0000000000000000e+00  1.1623975881519936e-08 -5.0219576047029841e-10 0.0000000000000000e+00  1.2214010315630611e-08 -3.1759455501956376e-10 0.0000000000000000e+00  1.2575848395598589e-08 -1.9315127942448437e-10 0.0000000000000000e+00  1.2773015585544621e-08 -9.8334409710945946e-11 0.0000000000000000e+00  1.2835445715253702e-08 -1.5950472266676446e-11 0.0000000000000000e+00  1.2772142902238259e-08 6.6455202165081241e-11 0.0000000000000000e+00  1.2574067779906424e-08 1.6134410582328528e-10 0.0000000000000000e+00  1.2211056499088388e-08 2.8585669372259578e-10 0.0000000000000000e+00  1.1621028456774254e-08 4.7011150929243265e-10 0.0000000000000000e+00  1.0680094097231200e-08 7.7719345234195102e-10 0.0000000000000000e+00  9.1369044918670845e-09 1.3705279465268607e-09 0.0000000000000000e+00  6.4982529791949874e-09 2.7371103532431601e-09 0.0000000000000000e+00  6.4141331412104299e-10 6.6907678979769882e-09 0.0000000000000000e+00  -8.6923803522484662e-09 2.0042182797155707e-08 0.0000000000000000e+00  -2.5814812100907842e-09 2.3901469538159549e-09 0.0000000000000000e+00  -1.3459474084901879e-10 -2.1817556803382222e-10 0.0000000000000000e+00  -7.6070527996686366e-09 -1.5887304778737749e-08 0.0000000000000000e+00  -9.9082776046809713e-09 -1.0145562246495673e-08 0.0000000000000000e+00  -9.0750461457662489e-09 -5.6384040350972994e-09 0.0000000000000000e+00  -7.3343034673015476e-09 -3.1377358549716933e-09 0.0000000000000000e+00  -6.2493454006930743e-09 -1.9069546614316354e-09 0.0000000000000000e+00  -5.4265863610229560e-09 -1.2029186378505864e-09 0.0000000000000000e+00  -4.8877579508466494e-09 -7.5649911518978947e-10 0.0000000000000000e+00  -4.5422427965635707e-09 -4.4529907864744171e-10 0.0000000000000000e+00  -4.3500085535505110e-09 -2.0306814255593008e-10 0.0000000000000000e+00  -4.2883617213119474e-09 9.5219323593329485e-12 0.0000000000000000e+00  -4.3501785965573900e-09 2.2216823902360287e-10 0.0000000000000000e+00  -4.5423640717422386e-09 4.6453350238851579e-10 0.0000000000000000e+00  -4.8871126636757346e-09 7.7595633740741362e-10 0.0000000000000000e+00  -5.4261556977441528e-09 1.2211155380646546e-09 0.0000000000000000e+00  -6.2268020055202335e-09 1.9238741546047602e-09 0.0000000000000000e+00  -7.3749889669570426e-09 3.1499955694102020e-09 0.0000000000000000e+00  -8.9364708835803285e-09 5.5257802641595855e-09 0.0000000000000000e+00  -1.0161212362363496e-08 1.0509248389570546e-08 0.0000000000000000e+00  -6.6994281668247975e-09 1.6863608453905225e-08 0.0000000000000000e+00  -1.6471125412221054e-10 3.0935300392948965e-10 0.0000000000000000e+00  3.1648508716932913e-12 -1.6094848066988392e-10 0.0000000000000000e+00  -3.1685120565925216e-09 -1.0851691884150117e-08 0.0000000000000000e+00  -6.2504055307367527e-09 -9.2254171519028939e-09 0.0000000000000000e+00  -7.0353840294518151e-09 -6.1124230150398694e-09 0.0000000000000000e+00  -6.8398233626108129e-09 -3.9857451626865269e-09 0.0000000000000000e+00  -6.4126261464754000e-09 -2.6341162009710757e-09 0.0000000000000000e+00  -5.9600752943900364e-09 -1.7399638312327090e-09 0.0000000000000000e+00  -5.6203424697453687e-09 -1.1300531298379536e-09 0.0000000000000000e+00  -5.3807757727420058e-09 -6.8131500038578726e-10 0.0000000000000000e+00  -5.2416626399884667e-09 -3.2067431519358780e-10 0.0000000000000000e+00  -5.1957892535858921e-09 8.1540901745708519e-13 0.0000000000000000e+00  -5.2408062235502686e-09 3.2231498649120298e-10 0.0000000000000000e+00  -5.3789323328018253e-09 6.8289606384511383e-10 0.0000000000000000e+00  -5.6161312608402417e-09 1.1315301771027003e-09 0.0000000000000000e+00  -5.9578059677353194e-09 1.7409299184116693e-09 0.0000000000000000e+00  -6.3940577629574065e-09 2.6303825316175460e-09 0.0000000000000000e+00  -6.8541428721322841e-09 4.0017033424012151e-09 0.0000000000000000e+00  -7.0544763829209268e-09 6.1626034931255721e-09 0.0000000000000000e+00  -6.1311298165272163e-09 9.2420066138308682e-09 0.0000000000000000e+00  -3.0164981771361111e-09 1.0647324664639367e-08 0.0000000000000000e+00  4.9364150985132168e-12 2.3632853658451729e-10 0.0000000000000000e+00  4.5313709986298796e-12 -1.0930409269196080e-10 0.0000000000000000e+00  -1.6618482468388750e-09 -7.6216559210840164e-09 0.0000000000000000e+00  -3.7834753252687696e-09 -7.3342546303677158e-09 0.0000000000000000e+00  -4.9458438975529176e-09 -5.6396045897961300e-09 0.0000000000000000e+00  -5.3830168704068490e-09 -4.0929580211652106e-09 0.0000000000000000e+00  -5.4075973401265838e-09 -2.8894864425845320e-09 0.0000000000000000e+00  -5.2887706523166780e-09 -2.0039528959503851e-09 0.0000000000000000e+00  -5.1464519794347195e-09 -1.3430119128238502e-09 0.0000000000000000e+00  -5.0247258827091705e-09 -8.2531280790994406e-10 0.0000000000000000e+00  -4.9476251795670932e-09 -3.9279800853929613e-10 0.0000000000000000e+00  -4.9210098742478588e-09 4.1211631512353383e-13 0.0000000000000000e+00  -4.9468051017655710e-09 3.9358851583197028e-10 0.0000000000000000e+00  -5.0232571198919986e-09 8.2596115635419794e-10 0.0000000000000000e+00  -5.1433053108964103e-09 1.3432632849557062e-09 0.0000000000000000e+00  -5.2871557966702950e-09 2.0046975402368947e-09 0.0000000000000000e+00  -5.4046584605194922e-09 2.8887373792400990e-09 0.0000000000000000e+00  -5.3773045862789673e-09 4.0874101998963209e-09 0.0000000000000000e+00  -4.9559574767887706e-09 5.6489853254265974e-09 0.0000000000000000e+00  -3.7509187534083040e-09 7.3436311868603602e-09 0.0000000000000000e+00  -1.6303004019565212e-09 7.5879882359386098e-09 0.0000000000000000e+00  -9.4731718882132090e-12 1.5278361880336791e-10 0.0000000000000000e+00  3.6892479153385978e-12 -7.7755123070325184e-11 0.0000000000000000e+00  -1.0192202421895367e-09 -5.7039406455406497e-09 0.0000000000000000e+00  -2.5063873439148881e-09 -5.8388585665164789e-09 0.0000000000000000e+00  -3.5810609037859990e-09 -4.8533545515170701e-09 0.0000000000000000e+00  -4.1848513875266819e-09 -3.7758195581980809e-09 0.0000000000000000e+00  -4.4599097676638151e-09 -2.8289092606173860e-09 0.0000000000000000e+00  -4.5573456773116328e-09 -2.0500190777732211e-09 0.0000000000000000e+00  -4.5671278722159709e-09 -1.4147126595030003e-09 0.0000000000000000e+00  -4.5466968096939325e-09 -8.8633255591465681e-10 0.0000000000000000e+00  -4.5256240816704614e-09 -4.2654690168041037e-10 0.0000000000000000e+00  -4.5170270817993195e-09 2.2501929842175616e-13 0.0000000000000000e+00  -4.5250600802371688e-09 4.2695142486577299e-10 0.0000000000000000e+00  -4.5457714194791883e-09 8.8664919884707317e-10 0.0000000000000000e+00  -4.5656520922802187e-09 1.4147271343072380e-09 0.0000000000000000e+00  -4.5556713731890885e-09 2.0498926342502812e-09 0.0000000000000000e+00  -4.4602160222362685e-09 2.8301240869543272e-09 0.0000000000000000e+00  -4.1819506640489321e-09 3.7754980751172870e-09 0.0000000000000000e+00  -3.5768531860319046e-09 4.8429116782159437e-09 0.0000000000000000e+00  -2.5006809343834392e-09 5.8283024510104646e-09 0.0000000000000000e+00  -1.0142274095123482e-09 5.7053187427440853e-09 0.0000000000000000e+00  1.0618433149854392e-12 1.0002064392502359e-10 0.0000000000000000e+00  2.8198766140210167e-12 -5.9074438799264519e-11 0.0000000000000000e+00  -7.0365949502703469e-10 -4.4216910388854311e-09 0.0000000000000000e+00  -1.7962335447008347e-09 -4.6579690271617793e-09 0.0000000000000000e+00  -2.6933895948424030e-09 -4.0541494146035891e-09 0.0000000000000000e+00  -3.3079454688951301e-09 -3.3180069544020663e-09 0.0000000000000000e+00  -3.6867374481654259e-09 -2.5981758560091753e-09 0.0000000000000000e+00  -3.9003269475006061e-09 -1.9483381183733392e-09 0.0000000000000000e+00  -4.0110677097463635e-09 -1.3794237286763663e-09 0.0000000000000000e+00  -4.0641323638873194e-09 -8.7962047897102524e-10 0.0000000000000000e+00  -4.0863357508810901e-09 -4.2767919804878270e-10 0.0000000000000000e+00  -4.0921275031910432e-09 5.1152633543397066e-14 0.0000000000000000e+00  -4.0860072197795213e-09 4.2774087336280544e-10 0.0000000000000000e+00  -4.0635385554534233e-09 8.7960042296921139e-10 0.0000000000000000e+00  -4.0104000340067839e-09 1.3793032777452342e-09 0.0000000000000000e+00  -3.8992899696928754e-09 1.9477714941898096e-09 0.0000000000000000e+00  -3.6858449119898586e-09 2.5968598678832925e-09 0.0000000000000000e+00  -3.3070557294454922e-09 3.3158846771492971e-09 0.0000000000000000e+00  -2.6916270684953131e-09 4.0495510788469286e-09 0.0000000000000000e+00  -1.7948734418764429e-09 4.6559430075308604e-09 0.0000000000000000e+00  -7.0275612838422126e-10 4.4227346199063462e-09 0.0000000000000000e+00  1.2529503048288013e-12 7.4163739294100654e-11 0.0000000000000000e+00  2.1668766350854144e-12 -4.5859887784846895e-11 0.0000000000000000e+00  -5.2288987238479188e-10 -3.4871198213434913e-09 0.0000000000000000e+00  -1.3623106518166173e-09 -3.7369869243775617e-09 0.0000000000000000e+00  -2.1047092591614257e-09 -3.3478920672828850e-09 0.0000000000000000e+00  -2.6733074503391579e-09 -2.8318699071155123e-09 0.0000000000000000e+00  -3.0752225414600770e-09 -2.2876584242121517e-09 0.0000000000000000e+00  -3.3421996104178214e-09 -1.7621679366660531e-09 0.0000000000000000e+00  -3.5105235937437343e-09 -1.2742292812246897e-09 0.0000000000000000e+00  -3.6100912034288910e-09 -8.2465576264175789e-10 0.0000000000000000e+00  -3.6617665289045911e-09 -4.0451915931870028e-10 0.0000000000000000e+00  -3.6776413209231768e-09 -8.4381377403648160e-14 0.0000000000000000e+00  -3.6615804180351974e-09 4.0432233084846541e-10 0.0000000000000000e+00  -3.6097205345096381e-09 8.2436253604657937e-10 0.0000000000000000e+00  -3.5100661221547122e-09 1.2737982803315938e-09 0.0000000000000000e+00  -3.3416565332379603e-09 1.7614816143067547e-09 0.0000000000000000e+00  -3.0744795622902456e-09 2.2861700010088731e-09 0.0000000000000000e+00  -2.6725925672966197e-09 2.8288460178236174e-09 0.0000000000000000e+00  -2.1044856392660609e-09 3.3438080165161503e-09 0.0000000000000000e+00  -1.3629431987772770e-09 3.7375184435320792e-09 0.0000000000000000e+00  -5.2280012064256694e-10 3.4898397077473748e-09 0.0000000000000000e+00  1.2711053605633698e-12 5.6574994744374462e-11 0.0000000000000000e+00  1.7404981793965389e-12 -3.5920402445719568e-11 0.0000000000000000e+00  -4.0926274359255913e-10 -2.7687297464838435e-09 0.0000000000000000e+00  -1.0799890068720912e-09 -2.9985284130265887e-09 0.0000000000000000e+00  -1.7003709558138076e-09 -2.7354072270393945e-09 0.0000000000000000e+00  -2.2086197448869010e-09 -2.3655466272235869e-09 0.0000000000000000e+00  -2.5985984174511969e-09 -1.9544571878443197e-09 0.0000000000000000e+00  -2.8819514967552116e-09 -1.5362067020613736e-09 0.0000000000000000e+00  -3.0771793251088972e-09 -1.1291009083677920e-09 0.0000000000000000e+00  -3.2023907258472232e-09 -7.3945713964460157e-10 0.0000000000000000e+00  -3.2717117471929467e-09 -3.6538889301090417e-10 0.0000000000000000e+00  -3.2938145075692146e-09 -1.8375698303801755e-13 0.0000000000000000e+00  -3.2715946482203185e-09 3.6499720202796352e-10 0.0000000000000000e+00  -3.2021636989796160e-09 7.3897869706139503e-10 0.0000000000000000e+00  -3.0768571962302393e-09 1.1284339042050692e-09 0.0000000000000000e+00  -2.8815811582962909e-09 1.5352187389459624e-09 0.0000000000000000e+00  -2.5982397967803403e-09 1.9529469431238893e-09 0.0000000000000000e+00  -2.2084246960465746e-09 2.3632618956359412e-09 0.0000000000000000e+00  -1.7006764540052485e-09 2.7328218866823796e-09 0.0000000000000000e+00  -1.0809637247597399e-09 2.9999705640414733e-09 0.0000000000000000e+00  -4.0940098449170821e-10 2.7713288895538432e-09 0.0000000000000000e+00  1.1994799896598411e-12 4.4032283985877909e-11 0.0000000000000000e+00  1.4445450843028340e-12 -2.8046303839584184e-11 0.0000000000000000e+00  -3.3345034647001281e-10 -2.1919751837862201e-09 0.0000000000000000e+00  -8.8723811056783518e-10 -2.3900179923741353e-09 0.0000000000000000e+00  -1.4142433937989007e-09 -2.2064598625155891e-09 0.0000000000000000e+00  -1.8651033189929026e-09 -1.9371168789930310e-09 0.0000000000000000e+00  -2.2296636667058834e-09 -1.6260450611050842e-09 0.0000000000000000e+00  -2.5096486799116313e-09 -1.2970147768156107e-09 0.0000000000000000e+00  -2.7130825077696937e-09 -9.6514418754075015e-10 0.0000000000000000e+00  -2.8496956693197181e-09 -6.3795687105641795e-10 0.0000000000000000e+00  -2.9279372802442553e-09 -3.1706484003875909e-10 0.0000000000000000e+00  -2.9533518857572317e-09 -2.5310406251394128e-13 0.0000000000000000e+00  -2.9278594538894790e-09 3.1653325349981611e-10 0.0000000000000000e+00  -2.8495505128395869e-09 6.3734507970837135e-10 0.0000000000000000e+00  -2.7128856226690435e-09 9.6437519878638878e-10 0.0000000000000000e+00  -2.5094359229379429e-09 1.2959726709602330e-09 0.0000000000000000e+00  -2.2295305942701183e-09 1.6246093411923693e-09 0.0000000000000000e+00  -1.8652070866076050e-09 1.9352869990019418e-09 0.0000000000000000e+00  -1.4147473212236497e-09 2.2047907429534291e-09 0.0000000000000000e+00  -8.8816639982662008e-10 2.3918208441282878e-09 0.0000000000000000e+00  -3.3362012356532334e-10 2.1943179488325654e-09 0.0000000000000000e+00  1.0884863206659448e-12 3.4493714961056557e-11 0.0000000000000000e+00  1.2346888581205656e-12 -2.1551265357571528e-11 0.0000000000000000e+00  -2.8094616857340088e-10 -1.7124877566846110e-09 0.0000000000000000e+00  -7.5172611594616177e-10 -1.8756018334702064e-09 0.0000000000000000e+00  -1.2081659892968288e-09 -1.7454475952512211e-09 0.0000000000000000e+00  -1.6099431366785771e-09 -1.5482163698697257e-09 0.0000000000000000e+00  -1.9462299866966203e-09 -1.3141176045793569e-09 0.0000000000000000e+00  -2.2140934511799417e-09 -1.0594120592931237e-09 0.0000000000000000e+00  -2.4155681823528093e-09 -7.9557951282436803e-10 0.0000000000000000e+00  -2.5548820594688891e-09 -5.2955266334847546e-10 0.0000000000000000e+00  -2.6363795881641367e-09 -2.6436405681228301e-10 0.0000000000000000e+00  -2.6631586438230504e-09 -3.0238471013270028e-13 0.0000000000000000e+00  -2.6363301374342346e-09 2.6373663314601963e-10 0.0000000000000000e+00  -2.5547917989931167e-09 5.2885447315241587e-10 0.0000000000000000e+00  -2.4154590706660521e-09 7.9475593923236332e-10 0.0000000000000000e+00  -2.2140062140835700e-09 1.0584025367611414e-09 0.0000000000000000e+00  -1.9462436169753385e-09 1.3128771016670620e-09 0.0000000000000000e+00  -1.6101678805408590e-09 1.5468040081428864e-09 0.0000000000000000e+00  -1.2086742544935925e-09 1.7443451422973535e-09 0.0000000000000000e+00  -7.5250655904195972e-10 1.8774717363358885e-09 0.0000000000000000e+00  -2.8109978032714041e-10 1.7145739859565652e-09 0.0000000000000000e+00  9.9352005476964299e-13 2.6879242832036467e-11 0.0000000000000000e+00  1.0835082706165008e-12 -1.6004189171252980e-11 0.0000000000000000e+00  -2.4403811155831173e-10 -1.3013784119151804e-09 0.0000000000000000e+00  -6.5549569014826932e-10 -1.4296180018116375e-09 0.0000000000000000e+00  -1.0593635347738051e-09 -1.3376557338612722e-09 0.0000000000000000e+00  -1.4216646553720367e-09 -1.1948608818913521e-09 0.0000000000000000e+00  -1.7319815862345195e-09 -1.0220553530620682e-09 0.0000000000000000e+00  -1.9852607419952744e-09 -8.3018661908061526e-10 0.0000000000000000e+00  -2.1802100531401475e-09 -6.2756185715077200e-10 0.0000000000000000e+00  -2.3176576622868065e-09 -4.1985941265269796e-10 0.0000000000000000e+00  -2.3992008445380193e-09 -2.1031389547011921e-10 0.0000000000000000e+00  -2.4261986841583611e-09 -3.3541606849198013e-13 0.0000000000000000e+00  -2.3991715972132084e-09 2.0962540676244680e-10 0.0000000000000000e+00  -2.3176076613563671e-09 4.1911717375666309e-10 0.0000000000000000e+00  -2.1801601432707758e-09 6.2672988594288857e-10 0.0000000000000000e+00  -1.9852479491526417e-09 8.2923642193575566e-10 0.0000000000000000e+00  -1.7320655320886527e-09 1.0209848245804066e-09 0.0000000000000000e+00  -1.4219133476516801e-09 1.1937499002887759e-09 0.0000000000000000e+00  -1.0598003621044825e-09 1.3369060100569767e-09 0.0000000000000000e+00  -6.5610695962131612e-10 1.4314541038761089e-09 0.0000000000000000e+00  -2.4416204444661475e-10 1.3032485544771241e-09 0.0000000000000000e+00  9.1814371519407544e-13 2.0563206549466523e-11 0.0000000000000000e+00  9.7473928760131704e-13 -1.1107536263531960e-11 0.0000000000000000e+00  -2.1837881905117996e-10 -9.3840131344354548e-10 0.0000000000000000e+00  -5.8813685124748052e-10 -1.0329248896658340e-09 0.0000000000000000e+00  -9.5400533393586967e-10 -9.7009804602607998e-10 0.0000000000000000e+00  -1.2863402267471051e-09 -8.7064493272008154e-10 0.0000000000000000e+00  -1.5753572164739450e-09 -7.4864836714126925e-10 0.0000000000000000e+00  -1.8150926963909533e-09 -6.1126994535347378e-10 0.0000000000000000e+00  -2.0024630201888928e-09 -4.6421279817535528e-10 0.0000000000000000e+00  -2.1362836246032837e-09 -3.1171038005541768e-10 0.0000000000000000e+00  -2.2164184880203845e-09 -1.5654284353709959e-10 0.0000000000000000e+00  -2.2430834834644221e-09 -3.5589437560029948e-13 0.0000000000000000e+00  -2.2164028018251471e-09 1.5581824931473700e-10 0.0000000000000000e+00  -2.1362598909593156e-09 3.1094847992834015e-10 0.0000000000000000e+00  -2.0024483940083860e-09 4.6339367140354057e-10 0.0000000000000000e+00  -1.8151151813142319e-09 6.1038514522892677e-10 0.0000000000000000e+00  -1.5754570983621648e-09 7.4771386725956973e-10 0.0000000000000000e+00  -1.2865571466048356e-09 8.6973980212506709e-10 0.0000000000000000e+00  -9.5434171905181987e-10 9.6956324999577260e-10 0.0000000000000000e+00  -5.8858352239358226e-10 1.0346982696149502e-09 0.0000000000000000e+00  -2.1847054837391167e-10 9.4010718663042608e-10 0.0000000000000000e+00  8.6375079490121598e-13 1.5140424959221713e-11 0.0000000000000000e+00  8.9853112214084703e-13 -6.6387598681119570e-12 0.0000000000000000e+00  -2.0144578537268424e-10 -6.0832011756635910e-10 0.0000000000000000e+00  -5.4349201948826022e-10 -6.7043749850699828e-10 0.0000000000000000e+00  -8.8363278827718575e-10 -6.3135769586965959e-10 0.0000000000000000e+00  -1.1950362953058268e-09 -5.6838087581753230e-10 0.0000000000000000e+00  -1.4684633254101295e-09 -4.9040719676356879e-10 0.000000000000000