<?xml version="1.0"?>
<VTKFile type="UnstructuredGrid"  version="0.1"  >
<UnstructuredGrid>
<Piece  NumberOfPoints="651" NumberOfCells="1200">
<Points>
<DataArray  type="Float64"  NumberOfComponents="3"  format="ascii">0 0 0  50000 0 0  100000 0 0  150000 0 0  200000 0 0  250000 0 0  300000 0 0  350000 0 0  400000 0 0  450000 0 0  500000 0 0  550000 0 0  600000 0 0  650000 0 0  700000 0 0  750000 0 0  800000 0 0  850000 0 0  900000 0 0  950000 0 0  1000000 0 0  0 50000 0  50000 50000 0  100000 50000 0  150000 50000 0  200000 50000 0  250000 50000 0  300000 50000 0  350000 50000 0  400000 50000 0  450000 50000 0  500000 50000 0  550000 50000 0  600000 50000 0  650000 50000 0  700000 50000 0  750000 50000 0  800000 50000 0  850000 50000 0  900000 50000 0  950000 50000 0  1000000 50000 0  0 100000 0  50000 100000 0  100000 100000 0  150000 100000 0  200000 100000 0  250000 100000 0  300000 100000 0  350000 100000 0  400000 100000 0  450000 100000 0  500000 100000 0  550000 100000 0  600000 100000 0  650000 100000 0  700000 100000 0  750000 100000 0  800000 100000 0  850000 100000 0  900000 100000 0  950000 100000 0  1000000 100000 0  0 150000 0  50000 150000 0  100000 150000 0  150000 150000 0  200000 150000 0  250000 150000 0  300000 150000 0  350000 150000 0  400000 150000 0  450000 150000 0  500000 150000 0  550000 150000 0  600000 150000 0  650000 150000 0  700000 150000 0  750000 150000 0  800000 150000 0  850000 150000 0  900000 150000 0  950000 150000 0  1000000 150000 0  0 200000 0  50000 200000 0  100000 200000 0  150000 200000 0  200000 200000 0  250000 200000 0  300000 200000 0  350000 200000 0  400000 200000 0  450000 200000 0  500000 200000 0  550000 200000 0  600000 200000 0  650000 200000 0  700000 200000 0  750000 200000 0  800000 200000 0  850000 200000 0  900000 200000 0  950000 200000 0  1000000 200000 0  0 250000 0  50000 250000 0  100000 250000 0  150000 250000 0  200000 250000 0  250000 250000 0  300000 250000 0  350000 250000 0  400000 250000 0  450000 250000 0  500000 250000 0  550000 250000 0  600000 250000 0  650000 250000 0  700000 250000 0  750000 250000 0  800000 250000 0  850000 250000 0  900000 250000 0  950000 250000 0  1000000 250000 0  0 300000 0  50000 300000 0  100000 300000 0  150000 300000 0  200000 300000 0  250000 300000 0  300000 300000 0  350000 300000 0  400000 300000 0  450000 300000 0  500000 300000 0  550000 300000 0  600000 300000 0  650000 300000 0  700000 300000 0  750000 300000 0  800000 300000 0  850000 300000 0  900000 300000 0  950000 300000 0  1000000 300000 0  0 350000 0  50000 350000 0  100000 350000 0  150000 350000 0  200000 350000 0  250000 350000 0  300000 350000 0  350000 350000 0  400000 350000 0  450000 350000 0  500000 350000 0  550000 350000 0  600000 350000 0  650000 350000 0  700000 350000 0  750000 350000 0  800000 350000 0  850000 350000 0  900000 350000 0  950000 350000 0  1000000 350000 0  0 400000 0  50000 400000 0  100000 400000 0  150000 400000 0  200000 400000 0  250000 400000 0  300000 400000 0  350000 400000 0  400000 400000 0  450000 400000 0  500000 400000 0  550000 400000 0  600000 400000 0  650000 400000 0  700000 400000 0  750000 400000 0  800000 400000 0  850000 400000 0  900000 400000 0  950000 400000 0  1000000 400000 0  0 450000 0  50000 450000 0  100000 450000 0  150000 450000 0  200000 450000 0  250000 450000 0  300000 450000 0  350000 450000 0  400000 450000 0  450000 450000 0  500000 450000 0  550000 450000 0  600000 450000 0  650000 450000 0  700000 450000 0  750000 450000 0  800000 450000 0  850000 450000 0  900000 450000 0  950000 450000 0  1000000 450000 0  0 500000 0  50000 500000 0  100000 500000 0  150000 500000 0  200000 500000 0  250000 500000 0  300000 500000 0  350000 500000 0  400000 500000 0  450000 500000 0  500000 500000 0  550000 500000 0  600000 500000 0  650000 500000 0  700000 500000 0  750000 500000 0  800000 500000 0  850000 500000 0  900000 500000 0  950000 500000 0  1000000 500000 0  0 550000 0  50000 550000 0  100000 550000 0  150000 550000 0  200000 550000 0  250000 550000 0  300000 550000 0  350000 550000 0  400000 550000 0  450000 550000 0  500000 550000 0  550000 550000 0  600000 550000 0  650000 550000 0  700000 550000 0  750000 550000 0  800000 550000 0  850000 550000 0  900000 550000 0  950000 550000 0  1000000 550000 0  0 600000 0  50000 600000 0  100000 600000 0  150000 600000 0  200000 600000 0  250000 600000 0  300000 600000 0  350000 600000 0  400000 600000 0  450000 600000 0  500000 600000 0  550000 600000 0  600000 600000 0  650000 600000 0  700000 600000 0  750000 600000 0  800000 600000 0  850000 600000 0  900000 600000 0  950000 600000 0  1000000 600000 0  0 650000 0  50000 650000 0  100000 650000 0  150000 650000 0  200000 650000 0  250000 650000 0  300000 650000 0  350000 650000 0  400000 650000 0  450000 650000 0  500000 650000 0  550000 650000 0  600000 650000 0  650000 650000 0  700000 650000 0  750000 650000 0  800000 650000 0  850000 650000 0  900000 650000 0  950000 650000 0  1000000 650000 0  0 700000 0  50000 700000 0  100000 700000 0  150000 700000 0  200000 700000 0  250000 700000 0  300000 700000 0  350000 700000 0  400000 700000 0  450000 700000 0  500000 700000 0  550000 700000 0  600000 700000 0  650000 700000 0  700000 700000 0  750000 700000 0  800000 700000 0  850000 700000 0  900000 700000 0  950000 700000 0  1000000 700000 0  0 750000 0  50000 750000 0  100000 750000 0  150000 750000 0  200000 750000 0  250000 750000 0  300000 750000 0  350000 750000 0  400000 750000 0  450000 750000 0  500000 750000 0  550000 750000 0  600000 750000 0  650000 750000 0  700000 750000 0  750000 750000 0  800000 750000 0  850000 750000 0  900000 750000 0  950000 750000 0  1000000 750000 0  0 800000 0  50000 800000 0  100000 800000 0  150000 800000 0  200000 800000 0  250000 800000 0  300000 800000 0  350000 800000 0  400000 800000 0  450000 800000 0  500000 800000 0  550000 800000 0  600000 800000 0  650000 800000 0  700000 800000 0  750000 800000 0  800000 800000 0  850000 800000 0  900000 800000 0  950000 800000 0  1000000 800000 0  0 850000 0  50000 850000 0  100000 850000 0  150000 850000 0  200000 850000 0  250000 850000 0  300000 850000 0  350000 850000 0  400000 850000 0  450000 850000 0  500000 850000 0  550000 850000 0  600000 850000 0  650000 850000 0  700000 850000 0  750000 850000 0  800000 850000 0  850000 850000 0  900000 850000 0  950000 850000 0  1000000 850000 0  0 900000 0  50000 900000 0  100000 900000 0  150000 900000 0  200000 900000 0  250000 900000 0  300000 900000 0  350000 900000 0  400000 900000 0  450000 900000 0  500000 900000 0  550000 900000 0  600000 900000 0  650000 900000 0  700000 900000 0  750000 900000 0  800000 900000 0  850000 900000 0  900000 900000 0  950000 900000 0  1000000 900000 0  0 950000 0  50000 950000 0  100000 950000 0  150000 950000 0  200000 950000 0  250000 950000 0  300000 950000 0  350000 950000 0  400000 950000 0  450000 950000 0  500000 950000 0  550000 950000 0  600000 950000 0  650000 950000 0  700000 950000 0  750000 950000 0  800000 950000 0  850000 950000 0  900000 950000 0  950000 950000 0  1000000 950000 0  0 1000000 0  50000 1000000 0  100000 1000000 0  150000 1000000 0  200000 1000000 0  250000 1000000 0  300000 1000000 0  350000 1000000 0  400000 1000000 0  450000 1000000 0  500000 1000000 0  550000 1000000 0  600000 1000000 0  650000 1000000 0  700000 1000000 0  750000 1000000 0  800000 1000000 0  850000 1000000 0  900000 1000000 0  950000 1000000 0  1000000 1000000 0  0 1050000 0  50000 1050000 0  100000 1050000 0  150000 1050000 0  200000 1050000 0  250000 1050000 0  300000 1050000 0  350000 1050000 0  400000 1050000 0  450000 1050000 0  500000 1050000 0  550000 1050000 0  600000 1050000 0  650000 1050000 0  700000 1050000 0  750000 1050000 0  800000 1050000 0  850000 1050000 0  900000 1050000 0  950000 1050000 0  1000000 1050000 0  0 1100000 0  50000 1100000 0  100000 1100000 0  150000 1100000 0  200000 1100000 0  250000 1100000 0  300000 1100000 0  350000 1100000 0  400000 1100000 0  450000 1100000 0  500000 1100000 0  550000 1100000 0  600000 1100000 0  650000 1100000 0  700000 1100000 0  750000 1100000 0  800000 1100000 0  850000 1100000 0  900000 1100000 0  950000 1100000 0  1000000 1100000 0  0 1150000 0  50000 1150000 0  100000 1150000 0  150000 1150000 0  200000 1150000 0  250000 1150000 0  300000 1150000 0  350000 1150000 0  400000 1150000 0  450000 1150000 0  500000 1150000 0  550000 1150000 0  600000 1150000 0  650000 1150000 0  700000 1150000 0  750000 1150000 0  800000 1150000 0  850000 1150000 0  900000 1150000 0  950000 1150000 0  1000000 1150000 0  0 1200000 0  50000 1200000 0  100000 1200000 0  150000 1200000 0  200000 1200000 0  250000 1200000 0  300000 1200000 0  350000 1200000 0  400000 1200000 0  450000 1200000 0  500000 1200000 0  550000 1200000 0  600000 1200000 0  650000 1200000 0  700000 1200000 0  750000 1200000 0  800000 1200000 0  850000 1200000 0  900000 1200000 0  950000 1200000 0  1000000 1200000 0  0 1250000 0  50000 1250000 0  100000 1250000 0  150000 1250000 0  200000 1250000 0  250000 1250000 0  300000 1250000 0  350000 1250000 0  400000 1250000 0  450000 1250000 0  500000 1250000 0  550000 1250000 0  600000 1250000 0  650000 1250000 0  700000 1250000 0  750000 1250000 0  800000 1250000 0  850000 1250000 0  900000 1250000 0  950000 1250000 0  1000000 1250000 0  0 1300000 0  50000 1300000 0  100000 1300000 0  150000 1300000 0  200000 1300000 0  250000 1300000 0  300000 1300000 0  350000 1300000 0  400000 1300000 0  450000 1300000 0  500000 1300000 0  550000 1300000 0  600000 1300000 0  650000 1300000 0  700000 1300000 0  750000 1300000 0  800000 1300000 0  850000 1300000 0  900000 1300000 0  950000 1300000 0  1000000 1300000 0  0 1350000 0  50000 1350000 0  100000 1350000 0  150000 1350000 0  200000 1350000 0  250000 1350000 0  300000 1350000 0  350000 1350000 0  400000 1350000 0  450000 1350000 0  500000 1350000 0  550000 1350000 0  600000 1350000 0  650000 1350000 0  700000 135
[...]
<PointData  Vectors="f_4501"> 
<DataArray  type="Float64"  Name="f_4501"  NumberOfComponents="3" format="ascii">-1.2655532260737386e-09 -9.2592898820122222e-10 0.0000000000000000e+00  7.9033041563817959e-08 -7.3862682970745249e-10 0.0000000000000000e+00  7.9706130267566651e-08 -9.7464661780182253e-11 0.0000000000000000e+00  7.9701087405926873e-08 -2.3980297585287790e-11 0.0000000000000000e+00  7.9779770705074715e-08 -1.6458206574235294e-11 0.0000000000000000e+00  7.9817276217392582e-08 -8.4720157651499677e-12 0.0000000000000000e+00  7.9838977998710820e-08 -4.9704158616893183e-12 0.0000000000000000e+00  7.9852649761799202e-08 -3.0079269586580174e-12 0.0000000000000000e+00  7.9860746836463612e-08 -1.5932930258793817e-12 0.0000000000000000e+00  7.9864631136940630e-08 -4.2028259204332968e-13 0.0000000000000000e+00  7.9864910873106777e-08 7.0448734686403667e-13 0.0000000000000000e+00  7.9861632606116481e-08 1.9588443750451567e-12 0.0000000000000000e+00  7.9854301066737873e-08 3.5632583704613381e-12 0.0000000000000000e+00  7.9841682281536737e-08 5.8584824748566434e-12 0.0000000000000000e+00  7.9821343866596706e-08 9.4437720433279174e-12 0.0000000000000000e+00  7.9789095955157392e-08 1.6011311761827679e-11 0.0000000000000000e+00  7.9731530622052756e-08 3.5077305053715860e-11 0.0000000000000000e+00  7.9606996205880918e-08 7.0161714939410863e-11 0.0000000000000000e+00  7.9524977553505367e-08 9.3673543819924682e-11 0.0000000000000000e+00  7.7260617885522938e-08 2.4581545393138580e-09 0.0000000000000000e+00  -3.3733136803844769e-09 3.0146250210973602e-09 0.0000000000000000e+00  -9.5781180031732259e-10 -8.7471289105860995e-10 0.0000000000000000e+00  -1.3367503461463472e-08 -7.4696502564220287e-09 0.0000000000000000e+00  -7.2592771489747317e-09 -3.2240371467269190e-09 0.0000000000000000e+00  -6.1306400279762705e-09 -1.2991471818556611e-09 0.0000000000000000e+00  -4.8257220964426804e-09 -7.3183495675740972e-10 0.0000000000000000e+00  -4.1363779355375009e-09 -4.2506365983251298e-10 0.0000000000000000e+00  -3.7047167422044164e-09 -2.5738410828666101e-10 0.0000000000000000e+00  -3.4284848673536566e-09 -1.5317565629441199e-10 0.0000000000000000e+00  -3.2567984152600857e-09 -8.0551178663742019e-11 0.0000000000000000e+00  -3.1628976716144387e-09 -2.3892605107562146e-11 0.0000000000000000e+00  -3.1336537647165868e-09 2.6076938539162823e-11 0.0000000000000000e+00  -3.1651586554954094e-09 7.6333292675175961e-11 0.0000000000000000e+00  -3.2615156212555597e-09 1.3392538776662337e-10 0.0000000000000000e+00  -3.4360694385247537e-09 2.0838641203234288e-10 0.0000000000000000e+00  -3.7156725521815779e-09 3.1584920228468351e-10 0.0000000000000000e+00  -4.1503552338869914e-09 4.8842465501447154e-10 0.0000000000000000e+00  -4.8345236963499774e-09 7.9855698300703207e-10 0.0000000000000000e+00  -5.9644886823281257e-09 1.4352229770127757e-09 0.0000000000000000e+00  -8.3426683890955965e-09 3.1539208939720144e-09 0.0000000000000000e+00  -1.0759256092001816e-08 9.0820978051169521e-09 0.0000000000000000e+00  -2.6136095639162297e-09 2.5564569210897472e-09 0.0000000000000000e+00  -1.9740078242433834e-10 -3.3301347123500415e-10 0.0000000000000000e+00  -3.5274888826243204e-09 -6.7292786838531662e-09 0.0000000000000000e+00  -4.6322611610143485e-09 -4.3657941137951050e-09 0.0000000000000000e+00  -4.4336062681134815e-09 -2.5387558043063353e-09 0.0000000000000000e+00  -3.7901145990772582e-09 -1.4804676236051591e-09 0.0000000000000000e+00  -3.3422686751847759e-09 -9.3446692976530296e-10 0.0000000000000000e+00  -3.0204169240291109e-09 -6.0937440396338037e-10 0.0000000000000000e+00  -2.7977259448319393e-09 -3.9664837225044949e-10 0.0000000000000000e+00  -2.6531410571765811e-09 -2.4413176212848295e-10 0.0000000000000000e+00  -2.5716679814640685e-09 -1.2331441890820429e-10 0.0000000000000000e+00  -2.5449137550494571e-09 -1.6252105041252262e-11 0.0000000000000000e+00  -2.5700983310701027e-09 9.0862882345459478e-11 0.0000000000000000e+00  -2.6495716607106908e-09 2.1180728422855786e-10 0.0000000000000000e+00  -2.7910614500172741e-09 3.6437866366096787e-10 0.0000000000000000e+00  -3.0084778262063491e-09 5.7658204474125490e-10 0.0000000000000000e+00  -3.3224305564082702e-09 8.9881906725097918e-10 0.0000000000000000e+00  -3.7563398232405788e-09 1.4311897916865510e-09 0.0000000000000000e+00  -4.3039675098935934e-09 2.3901366478915691e-09 0.0000000000000000e+00  -4.6393778633168104e-09 4.2480453875851554e-09 0.0000000000000000e+00  -3.5548700592149622e-09 7.5092363038817573e-09 0.0000000000000000e+00  -2.0992892054132619e-10 4.4222822671903029e-10 0.0000000000000000e+00  -3.7384234256448691e-11 -2.6258690342032505e-10 0.0000000000000000e+00  -1.5236031175901239e-09 -5.0330853546438426e-09 0.0000000000000000e+00  -2.7525113376644479e-09 -3.9141163939766240e-09 0.0000000000000000e+00  -3.0503582619207592e-09 -2.6481953347442850e-09 0.0000000000000000e+00  -2.9997057145440698e-09 -1.7550582439226408e-09 0.0000000000000000e+00  -2.8369265172241418e-09 -1.1838438685699577e-09 0.0000000000000000e+00  -2.6704723054341602e-09 -7.9636055627780061e-10 0.0000000000000000e+00  -2.5351316508355912e-09 -5.2214776597561939e-10 0.0000000000000000e+00  -2.4393725391094170e-09 -3.1568915010798317e-10 0.0000000000000000e+00  -2.3827474432607200e-09 -1.4707164061912350e-10 0.0000000000000000e+00  -2.3636275189976649e-09 4.5711159278224740e-12 0.0000000000000000e+00  -2.3812289025804575e-09 1.5618543712859776e-10 0.0000000000000000e+00  -2.4360340509205478e-09 3.2465308974474904e-10 0.0000000000000000e+00  -2.5292863940410638e-09 5.3058698379451457e-10 0.0000000000000000e+00  -2.6609619301985750e-09 8.0330991349297145e-10 0.0000000000000000e+00  -2.8237345436252465e-09 1.1883807425512659e-09 0.0000000000000000e+00  -2.9854684740650741e-09 1.7582031486886610e-09 0.0000000000000000e+00  -3.0395262860508114e-09 2.6177799663024490e-09 0.0000000000000000e+00  -2.7007049170282143e-09 3.8477379990911361e-09 0.0000000000000000e+00  -1.5514716495684606e-09 5.0378943693398049e-09 0.0000000000000000e+00  -6.7152834419051472e-11 3.6503233772758592e-10 0.0000000000000000e+00  -1.8884341968074948e-11 -1.8952151582942675e-10 0.0000000000000000e+00  -8.8840398452740175e-10 -3.6723008053293775e-09 0.0000000000000000e+00  -1.7736878116820671e-09 -3.1801627257528551e-09 0.0000000000000000e+00  -2.2211135331234350e-09 -2.4296529181379643e-09 0.0000000000000000e+00  -2.3985875910169440e-09 -1.7865190062825168e-09 0.0000000000000000e+00  -2.4254899325228715e-09 -1.2808255172546116e-09 0.0000000000000000e+00  -2.3866330784101267e-09 -8.9978430004369260e-10 0.0000000000000000e+00  -2.3337324320979073e-09 -6.0826084687319275e-10 0.0000000000000000e+00  -2.2877080477497874e-09 -3.7599708152551943e-10 0.0000000000000000e+00  -2.2575993885499819e-09 -1.7926537431560257e-10 0.0000000000000000e+00  -2.2468590134376317e-09 8.5826938481454076e-13 0.0000000000000000e+00  -2.2563258291254220e-09 1.8085349955944198e-10 0.0000000000000000e+00  -2.2850451673750038e-09 3.7713567073934266e-10 0.0000000000000000e+00  -2.3294887713426735e-09 6.0841262067203364e-10 0.0000000000000000e+00  -2.3807194705187687e-09 8.9805450289420550e-10 0.0000000000000000e+00  -2.4179240300151604e-09 1.2757558738757518e-09 0.0000000000000000e+00  -2.3955443789632117e-09 1.7749827520735311e-09 0.0000000000000000e+00  -2.2231456335600827e-09 2.4149453299936099e-09 0.0000000000000000e+00  -1.7606735181432798e-09 3.1478319084432869e-09 0.0000000000000000e+00  -9.1641620213496583e-10 3.7066374964463473e-09 0.0000000000000000e+00  -3.5743095531246448e-11 2.4357786580988246e-10 0.0000000000000000e+00  -1.1495751975975631e-11 -1.4161108075817715e-10 0.0000000000000000e+00  -5.8287763216147955e-10 -2.8089674805673446e-09 0.0000000000000000e+00  -1.2214687058640115e-09 -2.5645444366135836e-09 0.0000000000000000e+00  -1.6542257329929293e-09 -2.1094467031897393e-09 0.0000000000000000e+00  -1.9063250303146524e-09 -1.6526365749594151e-09 0.0000000000000000e+00  -2.0270722323322162e-09 -1.2493968680193207e-09 0.0000000000000000e+00  -2.0740217098657562e-09 -9.1200450110990964e-10 0.0000000000000000e+00  -2.0838754729729731e-09 -6.3369195790127503e-10 0.0000000000000000e+00  -2.0794644120564328e-09 -3.9913007586226565e-10 0.0000000000000000e+00  -2.0728111568683130e-09 -1.9284929623423699e-10 0.0000000000000000e+00  -2.0697175597632208e-09 -3.7639357273340947e-13 0.0000000000000000e+00  -2.0718836933466580e-09 1.9194077242030155e-10 0.0000000000000000e+00  -2.0776235338513578e-09 3.9771499551629428e-10 0.0000000000000000e+00  -2.0812185517380102e-09 6.3131237573770241e-10 0.0000000000000000e+00  -2.0707753920758744e-09 9.0805994174571609e-10 0.0000000000000000e+00  -2.0243329426649957e-09 1.2426511161138536e-09 0.0000000000000000e+00  -1.9047767807993636e-09 1.6430729363906324e-09 0.0000000000000000e+00  -1.6577087052666601e-09 2.0960974622212956e-09 0.0000000000000000e+00  -1.2255652580236669e-09 2.5475439147202246e-09 0.0000000000000000e+00  -6.0529918389574661e-10 2.8399104370722081e-09 0.0000000000000000e+00  -1.9155399823848343e-11 1.7623840606778916e-10 0.0000000000000000e+00  -7.8351868529520744e-12 -1.1012317772866818e-10 0.0000000000000000e+00  -4.1650419988115157e-10 -2.2065460828110524e-09 0.0000000000000000e+00  -8.9850680934895766e-10 -2.0733333840245340e-09 0.0000000000000000e+00  -1.2716136951980245e-09 -1.7812486690950626e-09 0.0000000000000000e+00  -1.5312086498742157e-09 -1.4589908599957763e-09 0.0000000000000000e+00  -1.6935626695077314e-09 -1.1466307595550261e-09 0.0000000000000000e+00  -1.7877668219159232e-09 -8.6404864604613479e-10 0.0000000000000000e+00  -1.8389128589922960e-09 -6.1453798577313341e-10 0.0000000000000000e+00  -1.8645652259136276e-09 -3.9335901828327489e-10 0.0000000000000000e+00  -1.8759075412552323e-09 -1.9195642417306721e-10 0.0000000000000000e+00  -1.8788700773463691e-09 -6.5030498037281516e-13 0.0000000000000000e+00  -1.8753217930726914e-09 1.9051505455741895e-10 0.0000000000000000e+00  -1.8634635623177111e-09 3.9148054448822007e-10 0.0000000000000000e+00  -1.8374628024659936e-09 6.1189049193439294e-10 0.0000000000000000e+00  -1.7863777205884571e-09 8.6019941621774621e-10 0.0000000000000000e+00  -1.6927345022583819e-09 1.1413230965403697e-09 0.0000000000000000e+00  -1.5319987027268231e-09 1.4517848556340062e-09 0.0000000000000000e+00  -1.2757635295593993e-09 1.7722981825759710e-09 0.0000000000000000e+00  -9.0341474282249990e-10 2.0640077925513700e-09 0.0000000000000000e+00  -4.3182286028821747e-10 2.2309826710126918e-09 0.0000000000000000e+00  -1.2468784497875116e-11 1.3469189870367983e-10 0.0000000000000000e+00  -5.8908930910088056e-12 -8.6949550965290261e-11 0.0000000000000000e+00  -3.1659057901837648e-10 -1.7567589075913249e-09 0.0000000000000000e+00  -6.9483027262466986e-10 -1.6790514504522411e-09 0.0000000000000000e+00  -1.0104186111230523e-09 -1.4821912226700938e-09 0.0000000000000000e+00  -1.2535544085430319e-09 -1.2514963567011793e-09 0.0000000000000000e+00  -1.4266626564767834e-09 -1.0122966804706232e-09 0.0000000000000000e+00  -1.5432406957477591e-09 -7.8163461447190763e-10 0.0000000000000000e+00  -1.6178924727000810e-09 -5.6670742337636492e-10 0.0000000000000000e+00  -1.6627538963083794e-09 -3.6773047532878106e-10 0.0000000000000000e+00  -1.6863231789409345e-09 -1.8101104060148493e-10 0.0000000000000000e+00  -1.6935347359908732e-09 -8.5905504043098206e-13 0.0000000000000000e+00  -1.6860083774394741e-09 1.7918455035322385e-10 0.0000000000000000e+00  -1.6622016278912676e-09 3.6557623049439226e-10 0.0000000000000000e+00  -1.6172851590953410e-09 5.6399758554179142e-10 0.0000000000000000e+00  -1.5428668772328664e-09 7.7818169505046753e-10 0.0000000000000000e+00  -1.4269807064096379e-09 1.0079542905784742e-09 0.0000000000000000e+00  -1.2552180749462857e-09 1.2463353382546857e-09 0.0000000000000000e+00  -1.0141804451292835e-09 1.4765597963258985e-09 0.0000000000000000e+00  -6.9858942490262997e-10 1.6736062376189616e-09 0.0000000000000000e+00  -3.2717280152686874e-10 1.7759730899353121e-09 0.0000000000000000e+00  -8.8351500202635763e-12 1.0532775148218858e-10 0.0000000000000000e+00  -4.6870523121353333e-12 -6.8903623437001062e-11 0.0000000000000000e+00  -2.5194428097349982e-10 -1.4041302472360962e-09 0.0000000000000000e+00  -5.5878063472943040e-10 -1.3565778935470921e-09 0.0000000000000000e+00  -8.2699638449578819e-10 -1.2189054549321216e-09 0.0000000000000000e+00  -1.0472064609606808e-09 -1.0507974853793936e-09 0.0000000000000000e+00  -1.2165017212335088e-09 -8.6774327394960289e-10 0.0000000000000000e+00  -1.3402753190894670e-09 -6.8251343131295011e-10 0.0000000000000000e+00  -1.4262218515271401e-09 -5.0232445436273393e-10 0.0000000000000000e+00  -1.4817711173013495e-09 -3.2958435712008089e-10 0.0000000000000000e+00  -1.5126953179460830e-09 -1.6340449880285822e-10 0.0000000000000000e+00  -1.5225554992362850e-09 -9.7687517527480654e-13 0.0000000000000000e+00  -1.5125675931258253e-09 1.6137603404077873e-10 0.0000000000000000e+00  -1.4815846657392730e-09 3.2733494717154515e-10 0.0000000000000000e+00  -1.4261180683461441e-09 4.9972548874058501e-10 0.0000000000000000e+00  -1.3404795272732430e-09 6.7947311361664636e-10 0.0000000000000000e+00  -1.2173208045872766e-09 8.6426811296870408e-10 0.0000000000000000e+00  -1.0490079509857073e-09 1.0470781542261380e-09 0.0000000000000000e+00  -8.3013577383425476e-10 1.2152527397942191e-09 0.0000000000000000e+00  -5.6152648450447547e-10 1.3531796610915651e-09 0.0000000000000000e+00  -2.5955070968826784e-10 1.4195990058785154e-09 0.0000000000000000e+00  -6.6470525802575930e-12 8.3341402841304594e-11 0.0000000000000000e+00  -3.8811219269342652e-12 -5.4268494186204974e-11 0.0000000000000000e+00  -2.0794320003170133e-10 -1.1169922624517216e-09 0.0000000000000000e+00  -4.6418362969092100e-10 -1.0870308372797485e-09 0.0000000000000000e+00  -6.9509234263983133e-10 -9.8831147169399993e-10 0.0000000000000000e+00  -8.9265683088050899e-10 -8.6428773804957520e-10 0.0000000000000000e+00  -1.0522435826810370e-09 -7.2436184856867587e-10 0.0000000000000000e+00  -1.1750991053905412e-09 -5.7757986585891468e-10 0.0000000000000000e+00  -1.2646998313170687e-09 -4.2999777216719930e-10 0.0000000000000000e+00  -1.3250997215718958e-09 -2.8458407496765788e-10 0.0000000000000000e+00  -1.3597963089904576e-09 -1.4191623043736846e-10 0.0000000000000000e+00  -1.3710878033300081e-09 -1.0195553462767687e-12 0.0000000000000000e+00  -1.3597840097831043e-09 1.3983134107153183e-10 0.0000000000000000e+00  -1.3251274596347373e-09 2.8236802290593822e-10 0.0000000000000000e+00  -1.2648726414206816e-09 4.2758535236685251e-10 0.0000000000000000e+00  -1.1755724273267702e-09 5.7494936157046506e-10 0.0000000000000000e+00  -1.0532071251582314e-09 7.2157567127003703e-10 0.0000000000000000e+00  -8.9431713713903181e-10 8.6154460161082952e-10 0.0000000000000000e+00  -6.9760454573845487e-10 9.8582373720708083e-10 0.0000000000000000e+00  -4.6617670550423394e-10 1.0847358602188965e-09 0.0000000000000000e+00  -2.1355797624253621e-10 1.1298010723424076e-09 0.0000000000000000e+00  -5.2397524494910791e-12 6.6060868911893949e-11 0.0000000000000000e+00  -3.3262065940585453e-12 -4.1980806980095075e-11 0.0000000000000000e+00  -1.7708565814361015e-10 -8.7563304199362873e-10 0.0000000000000000e+00  -3.9681783993283322e-10 -8.5660570016402576e-10 0.0000000000000000e+00  -5.9894889976675693e-10 -7.8505030449456029e-10 0.0000000000000000e+00  -7.7668371277501625e-10 -6.9336828420724061e-10 0.0000000000000000e+00  -9.2506074432910722e-10 -5.8725316203941548e-10 0.0000000000000000e+00  -1.0432615838328350e-09 -4.7294497337318777e-10 0.0000000000000000e+00  -1.1322817831556682e-09 -3.5512932330274722e-10 0.0000000000000000e+00  -1.1939406637263917e-09 -2.3659988381496321e-10 0.0000000000000000e+00  -1.2300700607165493e-09 -1.1854176518259388e-10 0.0000000000000000e+00  -1.2419707346409131e-09 -1.0165625852979593e-12 0.0000000000000000e+00  -1.2301189199414348e-09 1.1648504441263485e-10 0.0000000000000000e+00  -1.1940755855195225e-09 2.3447843283241209e-10 0.0000000000000000e+00  -1.1325751996009475e-09 3.5292129097877750e-10 0.0000000000000000e+00  -1.0438140685013331e-09 4.7066566667942388e-10 0.0000000000000000e+00  -9.2598573517761568e-10 5.8498138468253806e-10 0.0000000000000000e+00  -7.7809191341696387e-10 6.9127393445246236e-10 0.0000000000000000e+00  -6.0089882886970931e-10 7.8325971931620994e-10 0.0000000000000000e+00  -3.9825806272337597e-10 8.5492936462709843e-10 0.0000000000000000e+00  -1.8126262836741563e-10 8.8652939387016861e-10 0.0000000000000000e+00  -4.2883787865754306e-12 5.1934610968958220e-11 0.0000000000000000e+00  -2.9442728555392759e-12 -3.1336383883666758e-11 0.0000000000000000e+00  -1.5524092142706258e-10 -6.6684622401228117e-10 0.0000000000000000e+00  -3.4855027442637355e-10 -6.5507357326645122e-10 0.0000000000000000e+00  -5.2893918729793899e-10 -6.0360600457969209e-10 0.0000000000000000e+00  -6.9046905488121699e-10 -5.3677504271857294e-10 0.0000000000000000e+00  -8.2833892565850755e-10 -4.5800346778604119e-10 0.0000000000000000e+00  -9.4072846269554327e-10 -3.7150508335177513e-10 0.0000000000000000e+00  -1.0272185318839590e-09 -2.8072038086392152e-10 0.0000000000000000e+00  -1.0882209051628727e-09 -1.8796936495765677e-10 0.0000000000000000e+00  -1.1244384665596656e-09 -9.4546551286177459e-11 0.0000000000000000e+00  -1.1364582719216596e-09 -9.9077269571199180e-13 0.0000000000000000e+00  -1.1245108607485697e-09 9.2557132810363695e-11 0.0000000000000000e+00  -1.0883906250867131e-09 1.8596141436987332e-10 0.0000000000000000e+00  -1.0275326293779258e-09 2.7869909419009090e-10 0.0000000000000000e+00  -9.4124928056949020e-10 3.6950382712887007e-10 0.0000000000000000e+00  -8.2913119315431837e-10 4.5610047843298825e-10 0.0000000000000000e+00  -6.9158925030341073e-10 5.3510706109041043e-10 0.0000000000000000e+00  -5.3040317513504936e-10 6.0223889112876756e-10 0.0000000000000000e+00  -3.4957638659730440e-10 6.5375868653408002e-10 0.0000000000000000e+00  -1.5830891674423370e-10 6.7636577511070862e-10 0.0000000000000000e+00  -3.6252061451026056e-12 3.9996111486040550e-11 0.0000000000000000e+00  -2.6911913156465748e-12 -2.1833999626944739e-11 0.0000000000000000e+00  -1.4002471619843756e-10 -4.8116639483290390e-10 0.0000000000000000e+00  -3.1456308423738093e-10 -4.7457505895728450e-10 0.0000000000000000e+00  -4.7909132241160706e-10 -4.3886939693386085e-10 0.0000000000000000e+00  -6.2818187958787711e-10 -3.9210703289961568e-10 0.0000000000000000e+00  -7.5732242370201163e-10 -3.3628981683370115e-10 0.0000000000000000e+00  -8.6422392347761777e-10 -2.7416278433077621e-10 0.0000000000000000e+00  -9.4768297240939098e-10 -2.0811408491991420e-10 0.0000000000000000e+00  -1.0072625709286330e-09 -1.3989169382897868e-10 0.0000000000000000e+00  -1.0429441132215074e-09 -7.0622735585281639e-11 0.0000000000000000e+00  -1.0548405151309819e-09 -9.5795139188337422e-13 0.0000000000000000e+00  -1.0430153022399078e-09 6.8709395004819627e-11 0.0000000000000000e+00  -1.0074206275803182e-09 1.3799004422378651e-10 0.0000000000000000e+00  -9.4795682520021382e-10 2.0624521426689435e-10 0.0000000000000000e+00  -8.6465024985290204e-10 2.7236802041287845e-10 0.0000000000000000e+00  -7.5793631623964419e-10 3.3464120902056745e-10 0.0000000000000000e+00  -6.2901065681575709e-10 3.9071448204276056e-10 0.0000000000000000e+00  -4.8013436325138142e-10 4.3776050897216785e-10 0.0000000000000000e+00  -3.1526733386388868e-10 4.7347624995166592e-10 0.0000000000000000e+00  -1.4218653644787009e-10 4.8971466702791791e-10 0.0000000000000000e+00  -3.1583048544127399e-12 2.9593863576302942e-11 0.0000000000000000e+00  -2.5420319942673404e-12 -1.3089482624779614e-11 0.0000000000000000e+00  -1.3003097451254925e-10 -3.1134528041688314e-10 0.0000000000000000e+00  -2.9195914319208656e-10 -3.0878324069320486e-10 0.0000000000000000e+00  -4.4569427787671534e-10 -2.8620874917788375e-10 0.0000000000000000e+00  -5.8602771110134645e-10 -2.5651609444628079e-10 0.0000000000000000e+00  -7.0872251840747204e-10 -