<?xml version="1.0"?>
<VTKFile type="UnstructuredGrid"  version="0.1"  >
<UnstructuredGrid>
<Piece  NumberOfPoints="651" NumberOfCells="1200">
<Points>
<DataArray  type="Float64"  NumberOfComponents="3"  format="ascii">0 0 0  50000 0 0  100000 0 0  150000 0 0  200000 0 0  250000 0 0  300000 0 0  350000 0 0  400000 0 0  450000 0 0  500000 0 0  550000 0 0  600000 0 0  650000 0 0  700000 0 0  750000 0 0  800000 0 0  850000 0 0  900000 0 0  950000 0 0  1000000 0 0  0 50000 0  50000 50000 0  100000 50000 0  150000 50000 0  200000 50000 0  250000 50000 0  300000 50000 0  350000 50000 0  400000 50000 0  450000 50000 0  500000 50000 0  550000 50000 0  600000 50000 0  650000 50000 0  700000 50000 0  750000 50000 0  800000 50000 0  850000 50000 0  900000 50000 0  950000 50000 0  1000000 50000 0  0 100000 0  50000 100000 0  100000 100000 0  150000 100000 0  200000 100000 0  250000 100000 0  300000 100000 0  350000 100000 0  400000 100000 0  450000 100000 0  500000 100000 0  550000 100000 0  600000 100000 0  650000 100000 0  700000 100000 0  750000 100000 0  800000 100000 0  850000 100000 0  900000 100000 0  950000 100000 0  1000000 100000 0  0 150000 0  50000 150000 0  100000 150000 0  150000 150000 0  200000 150000 0  250000 150000 0  300000 150000 0  350000 150000 0  400000 150000 0  450000 150000 0  500000 150000 0  550000 150000 0  600000 150000 0  650000 150000 0  700000 150000 0  750000 150000 0  800000 150000 0  850000 150000 0  900000 150000 0  950000 150000 0  1000000 150000 0  0 200000 0  50000 200000 0  100000 200000 0  150000 200000 0  200000 200000 0  250000 200000 0  300000 200000 0  350000 200000 0  400000 200000 0  450000 200000 0  500000 200000 0  550000 200000 0  600000 200000 0  650000 200000 0  700000 200000 0  750000 200000 0  800000 200000 0  850000 200000 0  900000 200000 0  950000 200000 0  1000000 200000 0  0 250000 0  50000 250000 0  100000 250000 0  150000 250000 0  200000 250000 0  250000 250000 0  300000 250000 0  350000 250000 0  400000 250000 0  450000 250000 0  500000 250000 0  550000 250000 0  600000 250000 0  650000 250000 0  700000 250000 0  750000 250000 0  800000 250000 0  850000 250000 0  900000 250000 0  950000 250000 0  1000000 250000 0  0 300000 0  50000 300000 0  100000 300000 0  150000 300000 0  200000 300000 0  250000 300000 0  300000 300000 0  350000 300000 0  400000 300000 0  450000 300000 0  500000 300000 0  550000 300000 0  600000 300000 0  650000 300000 0  700000 300000 0  750000 300000 0  800000 300000 0  850000 300000 0  900000 300000 0  950000 300000 0  1000000 300000 0  0 350000 0  50000 350000 0  100000 350000 0  150000 350000 0  200000 350000 0  250000 350000 0  300000 350000 0  350000 350000 0  400000 350000 0  450000 350000 0  500000 350000 0  550000 350000 0  600000 350000 0  650000 350000 0  700000 350000 0  750000 350000 0  800000 350000 0  850000 350000 0  900000 350000 0  950000 350000 0  1000000 350000 0  0 400000 0  50000 400000 0  100000 400000 0  150000 400000 0  200000 400000 0  250000 400000 0  300000 400000 0  350000 400000 0  400000 400000 0  450000 400000 0  500000 400000 0  550000 400000 0  600000 400000 0  650000 400000 0  700000 400000 0  750000 400000 0  800000 400000 0  850000 400000 0  900000 400000 0  950000 400000 0  1000000 400000 0  0 450000 0  50000 450000 0  100000 450000 0  150000 450000 0  200000 450000 0  250000 450000 0  300000 450000 0  350000 450000 0  400000 450000 0  450000 450000 0  500000 450000 0  550000 450000 0  600000 450000 0  650000 450000 0  700000 450000 0  750000 450000 0  800000 450000 0  850000 450000 0  900000 450000 0  950000 450000 0  1000000 450000 0  0 500000 0  50000 500000 0  100000 500000 0  150000 500000 0  200000 500000 0  250000 500000 0  300000 500000 0  350000 500000 0  400000 500000 0  450000 500000 0  500000 500000 0  550000 500000 0  600000 500000 0  650000 500000 0  700000 500000 0  750000 500000 0  800000 500000 0  850000 500000 0  900000 500000 0  950000 500000 0  1000000 500000 0  0 550000 0  50000 550000 0  100000 550000 0  150000 550000 0  200000 550000 0  250000 550000 0  300000 550000 0  350000 550000 0  400000 550000 0  450000 550000 0  500000 550000 0  550000 550000 0  600000 550000 0  650000 550000 0  700000 550000 0  750000 550000 0  800000 550000 0  850000 550000 0  900000 550000 0  950000 550000 0  1000000 550000 0  0 600000 0  50000 600000 0  100000 600000 0  150000 600000 0  200000 600000 0  250000 600000 0  300000 600000 0  350000 600000 0  400000 600000 0  450000 600000 0  500000 600000 0  550000 600000 0  600000 600000 0  650000 600000 0  700000 600000 0  750000 600000 0  800000 600000 0  850000 600000 0  900000 600000 0  950000 600000 0  1000000 600000 0  0 650000 0  50000 650000 0  100000 650000 0  150000 650000 0  200000 650000 0  250000 650000 0  300000 650000 0  350000 650000 0  400000 650000 0  450000 650000 0  500000 650000 0  550000 650000 0  600000 650000 0  650000 650000 0  700000 650000 0  750000 650000 0  800000 650000 0  850000 650000 0  900000 650000 0  950000 650000 0  1000000 650000 0  0 700000 0  50000 700000 0  100000 700000 0  150000 700000 0  200000 700000 0  250000 700000 0  300000 700000 0  350000 700000 0  400000 700000 0  450000 700000 0  500000 700000 0  550000 700000 0  600000 700000 0  650000 700000 0  700000 700000 0  750000 700000 0  800000 700000 0  850000 700000 0  900000 700000 0  950000 700000 0  1000000 700000 0  0 750000 0  50000 750000 0  100000 750000 0  150000 750000 0  200000 750000 0  250000 750000 0  300000 750000 0  350000 750000 0  400000 750000 0  450000 750000 0  500000 750000 0  550000 750000 0  600000 750000 0  650000 750000 0  700000 750000 0  750000 750000 0  800000 750000 0  850000 750000 0  900000 750000 0  950000 750000 0  1000000 750000 0  0 800000 0  50000 800000 0  100000 800000 0  150000 800000 0  200000 800000 0  250000 800000 0  300000 800000 0  350000 800000 0  400000 800000 0  450000 800000 0  500000 800000 0  550000 800000 0  600000 800000 0  650000 800000 0  700000 800000 0  750000 800000 0  800000 800000 0  850000 800000 0  900000 800000 0  950000 800000 0  1000000 800000 0  0 850000 0  50000 850000 0  100000 850000 0  150000 850000 0  200000 850000 0  250000 850000 0  300000 850000 0  350000 850000 0  400000 850000 0  450000 850000 0  500000 850000 0  550000 850000 0  600000 850000 0  650000 850000 0  700000 850000 0  750000 850000 0  800000 850000 0  850000 850000 0  900000 850000 0  950000 850000 0  1000000 850000 0  0 900000 0  50000 900000 0  100000 900000 0  150000 900000 0  200000 900000 0  250000 900000 0  300000 900000 0  350000 900000 0  400000 900000 0  450000 900000 0  500000 900000 0  550000 900000 0  600000 900000 0  650000 900000 0  700000 900000 0  750000 900000 0  800000 900000 0  850000 900000 0  900000 900000 0  950000 900000 0  1000000 900000 0  0 950000 0  50000 950000 0  100000 950000 0  150000 950000 0  200000 950000 0  250000 950000 0  300000 950000 0  350000 950000 0  400000 950000 0  450000 950000 0  500000 950000 0  550000 950000 0  600000 950000 0  650000 950000 0  700000 950000 0  750000 950000 0  800000 950000 0  850000 950000 0  900000 950000 0  950000 950000 0  1000000 950000 0  0 1000000 0  50000 1000000 0  100000 1000000 0  150000 1000000 0  200000 1000000 0  250000 1000000 0  300000 1000000 0  350000 1000000 0  400000 1000000 0  450000 1000000 0  500000 1000000 0  550000 1000000 0  600000 1000000 0  650000 1000000 0  700000 1000000 0  750000 1000000 0  800000 1000000 0  850000 1000000 0  900000 1000000 0  950000 1000000 0  1000000 1000000 0  0 1050000 0  50000 1050000 0  100000 1050000 0  150000 1050000 0  200000 1050000 0  250000 1050000 0  300000 1050000 0  350000 1050000 0  400000 1050000 0  450000 1050000 0  500000 1050000 0  550000 1050000 0  600000 1050000 0  650000 1050000 0  700000 1050000 0  750000 1050000 0  800000 1050000 0  850000 1050000 0  900000 1050000 0  950000 1050000 0  1000000 1050000 0  0 1100000 0  50000 1100000 0  100000 1100000 0  150000 1100000 0  200000 1100000 0  250000 1100000 0  300000 1100000 0  350000 1100000 0  400000 1100000 0  450000 1100000 0  500000 1100000 0  550000 1100000 0  600000 1100000 0  650000 1100000 0  700000 1100000 0  750000 1100000 0  800000 1100000 0  850000 1100000 0  900000 1100000 0  950000 1100000 0  1000000 1100000 0  0 1150000 0  50000 1150000 0  100000 1150000 0  150000 1150000 0  200000 1150000 0  250000 1150000 0  300000 1150000 0  350000 1150000 0  400000 1150000 0  450000 1150000 0  500000 1150000 0  550000 1150000 0  600000 1150000 0  650000 1150000 0  700000 1150000 0  750000 1150000 0  800000 1150000 0  850000 1150000 0  900000 1150000 0  950000 1150000 0  1000000 1150000 0  0 1200000 0  50000 1200000 0  100000 1200000 0  150000 1200000 0  200000 1200000 0  250000 1200000 0  300000 1200000 0  350000 1200000 0  400000 1200000 0  450000 1200000 0  500000 1200000 0  550000 1200000 0  600000 1200000 0  650000 1200000 0  700000 1200000 0  750000 1200000 0  800000 1200000 0  850000 1200000 0  900000 1200000 0  950000 1200000 0  1000000 1200000 0  0 1250000 0  50000 1250000 0  100000 1250000 0  150000 1250000 0  200000 1250000 0  250000 1250000 0  300000 1250000 0  350000 1250000 0  400000 1250000 0  450000 1250000 0  500000 1250000 0  550000 1250000 0  600000 1250000 0  650000 1250000 0  700000 1250000 0  750000 1250000 0  800000 1250000 0  850000 1250000 0  900000 1250000 0  950000 1250000 0  1000000 1250000 0  0 1300000 0  50000 1300000 0  100000 1300000 0  150000 1300000 0  200000 1300000 0  250000 1300000 0  300000 1300000 0  350000 1300000 0  400000 1300000 0  450000 1300000 0  500000 1300000 0  550000 1300000 0  600000 1300000 0  650000 1300000 0  700000 1300000 0  750000 1300000 0  800000 1300000 0  850000 1300000 0  900000 1300000 0  950000 1300000 0  1000000 1300000 0  0 1350000 0  50000 1350000 0  100000 1350000 0  150000 1350000 0  200000 1350000 0  250000 1350000 0  300000 1350000 0  350000 1350000 0  400000 1350000 0  450000 1350000 0  500000 1350000 0  550000 1350000 0  600000 1350000 0  650000 1350000 0  700000 135
[...]
<PointData  Vectors="f_4501"> 
<DataArray  type="Float64"  Name="f_4501"  NumberOfComponents="3" format="ascii">-1.1929326447293236e-09 -8.2518663969633874e-10 0.0000000000000000e+00  7.9123484614297472e-08 -6.6790334431697851e-10 0.0000000000000000e+00  7.9802772459391651e-08 -4.9429302644944751e-11 0.0000000000000000e+00  7.9777323690067294e-08 -1.8443263310839707e-12 0.0000000000000000e+00  7.9848319231529885e-08 -4.1283733762482673e-12 0.0000000000000000e+00  7.9875844233343505e-08 -7.3351299308896272e-13 0.0000000000000000e+00  7.9892005352466242e-08 -3.3984200346931720e-13 0.0000000000000000e+00  7.9902022256011708e-08 -9.2777738582061259e-14 0.0000000000000000e+00  7.9907825037204827e-08 8.6436765441825257e-14 0.0000000000000000e+00  7.9910594551913039e-08 2.4559888777502538e-13 0.0000000000000000e+00  7.9910792259854389e-08 4.3190564889178320e-13 0.0000000000000000e+00  7.9908448833683325e-08 6.8738160234447407e-13 0.0000000000000000e+00  7.9903179184107586e-08 1.0771216404263086e-12 0.0000000000000000e+00  7.9894024577130129e-08 1.7460525115842004e-12 0.0000000000000000e+00  7.9878915543215695e-08 3.0345122237433849e-12 0.0000000000000000e+00  7.9854470790078947e-08 5.0991716107103674e-12 0.0000000000000000e+00  7.9807762286457721e-08 1.6357871362181714e-11 0.0000000000000000e+00  7.9692335688485420e-08 3.6691783662990780e-11 0.0000000000000000e+00  7.9612288018859941e-08 1.4106590854464048e-12 0.0000000000000000e+00  7.7276637598281292e-08 2.3616123612136731e-09 0.0000000000000000e+00  -3.4265635463353642e-09 2.8537172784108324e-09 0.0000000000000000e+00  -8.9808952420509598e-10 -7.8538804727834367e-10 0.0000000000000000e+00  -1.2996216408321312e-08 -1.5063346063104711e-08 0.0000000000000000e+00  -3.4758637101672603e-09 -4.7997552165177584e-09 0.0000000000000000e+00  -9.7424566417188803e-10 -2.1655617589209107e-09 0.0000000000000000e+00  1.3668902614462779e-09 -1.1551435167527774e-09 0.0000000000000000e+00  2.4998747471978883e-09 -6.7287566386483624e-10 0.0000000000000000e+00  3.2227044484031421e-09 -4.2677818547126070e-10 0.0000000000000000e+00  3.6795242136579925e-09 -2.7551370244765778e-10 0.0000000000000000e+00  3.9612618256320208e-09 -1.7192313856843340e-10 0.0000000000000000e+00  4.1151764191832944e-09 -9.2257018928300545e-11 0.0000000000000000e+00  4.1637998596156288e-09 -2.2652817026594572e-11 0.0000000000000000e+00  4.1138842739386160e-09 4.7056099424391172e-11 0.0000000000000000e+00  3.9585780237079042e-09 1.2706018784207435e-10 0.0000000000000000e+00  3.6752300188410302e-09 2.3124667585809055e-10 0.0000000000000000e+00  3.2176088099424997e-09 3.8348895458334378e-10 0.0000000000000000e+00  2.4949831280418535e-09 6.3264078674700326e-10 0.0000000000000000e+00  1.3287755683766785e-09 1.0996431560533765e-09 0.0000000000000000e+00  -6.0045780409389825e-10 2.1210897485509054e-09 0.0000000000000000e+00  -4.8185164810175902e-09 4.8913314763957928e-09 0.0000000000000000e+00  -1.0941440955874886e-08 1.6024144349830045e-08 0.0000000000000000e+00  -2.5884493706156937e-09 2.4470981502473499e-09 0.0000000000000000e+00  -1.5099680597826415e-10 -2.4863702426680599e-10 0.0000000000000000e+00  -5.9557967920979455e-09 -1.1701543543808032e-08 0.0000000000000000e+00  -7.4400804812911415e-09 -7.3159301254240629e-09 0.0000000000000000e+00  -7.0637497529888319e-09 -4.1281008985515287e-09 0.0000000000000000e+00  -5.8395536438766571e-09 -2.3448502854345057e-09 0.0000000000000000e+00  -5.1089686139119813e-09 -1.4421068482291584e-09 0.0000000000000000e+00  -4.5345821937239910e-09 -9.1647806573396923e-10 0.0000000000000000e+00  -4.1534866092421763e-09 -5.7714173868638449e-10 0.0000000000000000e+00  -3.9077049190778310e-09 -3.3756555872080750e-10 0.0000000000000000e+00  -3.7701897223425165e-09 -1.4953819222779828e-10 0.0000000000000000e+00  -3.7258535234952011e-09 1.6249703689541114e-11 0.0000000000000000e+00  -3.7698550506663710e-09 1.8211329818955685e-10 0.0000000000000000e+00  -3.9067608327319675e-09 3.7035126424917076e-10 0.0000000000000000e+00  -4.1512661979883711e-09 6.1018852193512996e-10 0.0000000000000000e+00  -4.5305021904551235e-09 9.4874619325571138e-10 0.0000000000000000e+00  -5.0863889757852917e-09 1.4738554392804232e-09 0.0000000000000000e+00  -5.8670769639194548e-09 2.3666840646501085e-09 0.0000000000000000e+00  -6.9042458590326733e-09 4.0410013677041343e-09 0.0000000000000000e+00  -7.6624677625093503e-09 7.4564626001980280e-09 0.0000000000000000e+00  -5.1141412096177206e-09 1.2813061600746833e-08 0.0000000000000000e+00  -1.7330436105795087e-10 3.4545514191198841e-10 0.0000000000000000e+00  -1.0370752333390323e-11 -1.9192122940159862e-10 0.0000000000000000e+00  -2.4175568987130930e-09 -8.3714021015276687e-09 0.0000000000000000e+00  -4.6364796038844343e-09 -6.6316727965664314e-09 0.0000000000000000e+00  -5.1691266890220019e-09 -4.4049223100250018e-09 0.0000000000000000e+00  -5.0475413638623685e-09 -2.9155266651040648e-09 0.0000000000000000e+00  -4.7705046508006400e-09 -1.9502959432875242e-09 0.0000000000000000e+00  -4.4610156996868619e-09 -1.3002218897999559e-09 0.0000000000000000e+00  -4.2254669599265443e-09 -8.4994703841451448e-10 0.0000000000000000e+00  -4.0585733003590888e-09 -5.1506868948917908e-10 0.0000000000000000e+00  -3.9607715320477941e-09 -2.4379924034451385e-10 0.0000000000000000e+00  -3.9283242548648945e-09 -9.4220650354713715e-13 0.0000000000000000e+00  -3.9597103687837843e-09 2.4191602938973388e-10 0.0000000000000000e+00  -4.0561933509285488e-09 5.1313762517557562e-10 0.0000000000000000e+00  -4.2210496084735897e-09 8.4785845802211693e-10 0.0000000000000000e+00  -4.4562657576016780e-09 1.2972555688428434e-09 0.0000000000000000e+00  -4.7519776838309629e-09 1.9432176735820804e-09 0.0000000000000000e+00  -5.0562486612834208e-09 2.9206205760397627e-09 0.0000000000000000e+00  -5.1745620839304998e-09 4.4311624914951413e-09 0.0000000000000000e+00  -4.5452530972329443e-09 6.5893597300866285e-09 0.0000000000000000e+00  -2.3850851274601805e-09 8.2108511947867542e-09 0.0000000000000000e+00  -1.5601432749694478e-11 2.7233042177233221e-10 0.0000000000000000e+00  -3.6552683725071522e-12 -1.3431516295032989e-10 0.0000000000000000e+00  -1.3283747210206213e-09 -5.9624254594999169e-09 0.0000000000000000e+00  -2.8439404055278310e-09 -5.2929736995381558e-09 0.0000000000000000e+00  -3.6429066383057998e-09 -4.0744017331154732e-09 0.0000000000000000e+00  -3.9620883231458422e-09 -2.9776887701983538e-09 0.0000000000000000e+00  -3.9872833957719405e-09 -2.1184719461686911e-09 0.0000000000000000e+00  -3.9113332920705133e-09 -1.4777961638446559e-09 0.0000000000000000e+00  -3.8159656715421959e-09 -9.9495808898131427e-10 0.0000000000000000e+00  -3.7333175663156633e-09 -6.1343256829972404e-10 0.0000000000000000e+00  -3.6801687745138305e-09 -2.9248662022914110e-10 0.0000000000000000e+00  -3.6616948787860064e-09 3.1413646734944700e-13 0.0000000000000000e+00  -3.6792307291813266e-09 2.9304904990459655e-10 0.0000000000000000e+00  -3.7313760949254930e-09 6.1374591964871231e-10 0.0000000000000000e+00  -3.8126183440779591e-09 9.9474955107850410e-10 0.0000000000000000e+00  -3.9082562858346784e-09 1.4772533379946559e-09 0.0000000000000000e+00  -3.9825545789816677e-09 2.1147925846822114e-09 0.0000000000000000e+00  -3.9538747460630372e-09 2.9690158005012897e-09 0.0000000000000000e+00  -3.6548632462947236e-09 4.0738149519835596e-09 0.0000000000000000e+00  -2.8247651969703878e-09 5.2970539089095765e-09 0.0000000000000000e+00  -1.3199865067118308e-09 5.9546919000634427e-09 0.0000000000000000e+00  -1.9788592043511204e-11 1.8099901728693098e-10 0.0000000000000000e+00  -1.4219789311560210e-12 -9.7964583151236746e-11 0.0000000000000000e+00  -8.3962698894604943e-10 -4.5106116730524046e-09 0.0000000000000000e+00  -1.9209281679991947e-09 -4.2555434789601030e-09 0.0000000000000000e+00  -2.6754172811208588e-09 -3.5233580389673424e-09 0.0000000000000000e+00  -3.1043850552063996e-09 -2.7485856864614234e-09 0.0000000000000000e+00  -3.3041101006203095e-09 -2.0672444069631346e-09 0.0000000000000000e+00  -3.3787199465101714e-09 -1.5040194104177035e-09 0.0000000000000000e+00  -3.3905774719546296e-09 -1.0414062287831311e-09 0.0000000000000000e+00  -3.3793912216168435e-09 -6.5403139228228360e-10 0.0000000000000000e+00  -3.3661995041241055e-09 -3.1517381831317009e-10 0.0000000000000000e+00  -3.3606196547462894e-09 1.9097101978641911e-13 0.0000000000000000e+00  -3.3655338765998815e-09 3.1548000300323052e-10 0.0000000000000000e+00  -3.3781128711475859e-09 6.5409588596834521e-10 0.0000000000000000e+00  -3.3886383571417611e-09 1.0409583021120384e-09 0.0000000000000000e+00  -3.3765529689370176e-09 1.5029908691464453e-09 0.0000000000000000e+00  -3.3031194774523476e-09 2.0662760397578856e-09 0.0000000000000000e+00  -3.1016218356065201e-09 2.7446543265663767e-09 0.0000000000000000e+00  -2.6738941956744197e-09 3.5110466030001406e-09 0.0000000000000000e+00  -1.9197225613162295e-09 4.2435361580673139e-09 0.0000000000000000e+00  -8.4257255980747717e-10 4.5207977064715977e-09 0.0000000000000000e+00  -5.7481392025354157e-12 1.2380465027404117e-10 0.0000000000000000e+00  -7.2187765855681075e-13 -7.5318248457566822e-11 0.0000000000000000e+00  -5.8902298918193283e-10 -3.5193348607402152e-09 0.0000000000000000e+00  -1.3948676461981433e-09 -3.4159219665412917e-09 0.0000000000000000e+00  -2.0337554104829972e-09 -2.9564129940396660e-09 0.0000000000000000e+00  -2.4729171044029638e-09 -2.4202235009228126e-09 0.0000000000000000e+00  -2.7455724632241584e-09 -1.8987879955453284e-09 0.0000000000000000e+00  -2.9018751105662836e-09 -1.4273099700058169e-09 0.0000000000000000e+00  -2.9846023197493550e-09 -1.0127603692009128e-09 0.0000000000000000e+00  -3.0252195395026664e-09 -6.4690268917832138e-10 0.0000000000000000e+00  -3.0427671982960784e-09 -3.1493446723131495e-10 0.0000000000000000e+00  -3.0474128393916580e-09 -1.4365899937489154e-13 0.0000000000000000e+00  -3.0423426940137953e-09 3.1457622114970576e-10 0.0000000000000000e+00  -3.0244330284368674e-09 6.4633892803038541e-10 0.0000000000000000e+00  -2.9835662512622047e-09 1.0118170515466689e-09 0.0000000000000000e+00  -2.9006120550340949e-09 1.4256654377790129e-09 0.0000000000000000e+00  -2.7447282794696524e-09 1.8962209357422337e-09 0.0000000000000000e+00  -2.4723892713626690e-09 2.4165395844647593e-09 0.0000000000000000e+00  -2.0339428907631386e-09 2.9505171787548807e-09 0.0000000000000000e+00  -1.3961282072488174e-09 3.4122639566960692e-09 0.0000000000000000e+00  -5.9254263423087491e-10 3.5271770211028536e-09 0.0000000000000000e+00  -3.2936331638684304e-12 9.3310367179960701e-11 0.0000000000000000e+00  -4.7627511486773268e-13 -5.8944757165245992e-11 0.0000000000000000e+00  -4.4234066524706102e-10 -2.7877733450910499e-09 0.0000000000000000e+00  -1.0677650597012559e-09 -2.7529700825768721e-09 0.0000000000000000e+00  -1.6019861814765897e-09 -2.4507909081584454e-09 0.0000000000000000e+00  -2.0111944129094229e-09 -2.0709812809646710e-09 0.0000000000000000e+00  -2.3013697120282771e-09 -1.6739822032698939e-09 0.0000000000000000e+00  -2.4954900137451469e-09 -1.2909362134661216e-09 0.0000000000000000e+00  -2.6187936987986986e-09 -9.3462243060256457e-10 0.0000000000000000e+00  -2.6923364453568478e-09 -6.0554848568112855e-10 0.0000000000000000e+00  -2.7307660662224425e-09 -2.9735765046902099e-10 0.0000000000000000e+00  -2.7425743313897346e-09 -3.0896601425426960e-13 0.0000000000000000e+00  -2.7305160253383336e-09 2.9668192763464242e-10 0.0000000000000000e+00  -2.6918776740652939e-09 6.0469923817535767e-10 0.0000000000000000e+00  -2.6182322917766955e-09 9.3348039952363898e-10 0.0000000000000000e+00  -2.4949064799111191e-09 1.2893248415796781e-09 0.0000000000000000e+00  -2.3009358662602186e-09 1.6715556958512176e-09 0.0000000000000000e+00  -2.0111956802620347e-09 2.0673525057797904e-09 0.0000000000000000e+00  -1.6030979681998044e-09 2.4463199099028639e-09 0.0000000000000000e+00  -1.0697375760881128e-09 2.7520943695880880e-09 0.0000000000000000e+00  -4.4507805022089241e-10 2.7950751805413813e-09 0.0000000000000000e+00  -2.0516946674335709e-12 7.2068049095210383e-11 0.0000000000000000e+00  -3.4399606378147573e-13 -4.6431665044812981e-11 0.0000000000000000e+00  -3.4880085066882447e-10 -2.2204204919808874e-09 0.0000000000000000e+00  -8.5224965532085761e-10 -2.2163417234260221e-09 0.0000000000000000e+00  -1.3022969666769227e-09 -2.0087927119786217e-09 0.0000000000000000e+00  -1.6704910966189779e-09 -1.7342727995254660e-09 0.0000000000000000e+00  -1.9531689792822552e-09 -1.4324081809908250e-09 0.0000000000000000e+00  -2.1592315716206383e-09 -1.1261968137352717e-09 0.0000000000000000e+00  -2.3017476853724101e-09 -8.2823007855252377e-10 0.0000000000000000e+00  -2.3935143881721809e-09 -5.4278815385438163e-10 0.0000000000000000e+00  -2.4444633032824813e-09 -2.6844224637399004e-10 0.0000000000000000e+00  -2.4607148967663531e-09 -4.1889224088702367e-13 0.0000000000000000e+00  -2.4443264552976370e-09 2.6756003824906650e-10 0.0000000000000000e+00  -2.3932711930496359e-09 5.4176777486346257e-10 0.0000000000000000e+00  -2.3014640517777035e-09 8.2697076598149011e-10 0.0000000000000000e+00  -2.1590072134241461e-09 1.1245796302925511e-09 0.0000000000000000e+00  -1.9531617872813715e-09 1.4302865170150617e-09 0.0000000000000000e+00  -1.6708743867184806e-09 1.7315187172389306e-09 0.0000000000000000e+00  -1.3035238480386849e-09 2.0058271781781601e-09 0.0000000000000000e+00  -8.5402827669630431e-10 2.2166109734173543e-09 0.0000000000000000e+00  -3.5090584417815117e-10 2.2266324730760616e-09 0.0000000000000000e+00  -1.3575722246677136e-12 5.6546757449422442e-11 0.0000000000000000e+00  -2.6917115208837236e-13 -3.6407307372779751e-11 0.0000000000000000e+00  -2.8580858064283902e-10 -1.7620069870954190e-09 0.0000000000000000e+00  -7.0383513767549756e-10 -1.7710446416832361e-09 0.0000000000000000e+00  -1.0885517618719963e-09 -1.6243929685957790e-09 0.0000000000000000e+00  -1.4169724737314531e-09 -1.4231630061023633e-09 0.0000000000000000e+00  -1.6823281530511851e-09 -1.1936045683444015e-09 0.0000000000000000e+00  -1.8864032827018570e-09 -9.5186096766311575e-10 0.0000000000000000e+00  -2.0349447037907581e-09 -7.0839479830155289e-10 0.0000000000000000e+00  -2.1348854947187769e-09 -4.6840791673815054e-10 0.0000000000000000e+00  -2.1922073642921311e-09 -2.3297589010519654e-10 0.0000000000000000e+00  -2.2108382883082885e-09 -4.8534504429864896e-13 0.0000000000000000e+00  -2.1921410262085487e-09 2.3197191409492040e-10 0.0000000000000000e+00  -2.1347766518299139e-09 4.6730276705628171e-10 0.0000000000000000e+00  -2.0348433925753631e-09 7.0711580458858855e-10 0.0000000000000000e+00  -1.8863889057918837e-09 9.5033568613565586e-10 0.0000000000000000e+00  -1.6825347825696984e-09 1.1917804398344943e-09 0.0000000000000000e+00  -1.4175228148547364e-09 1.4210532346766613e-09 0.0000000000000000e+00  -1.0896889967432525e-09 1.6223926715182258e-09 0.0000000000000000e+00  -7.0527554177621140e-10 1.7718288601822403e-09 0.0000000000000000e+00  -2.8741078304341415e-10 1.7672932179827138e-09 0.0000000000000000e+00  -9.5702251751507320e-13 4.4552769601776525e-11 0.0000000000000000e+00  -2.2449149400486088e-13 -2.8067109804643635e-11 0.0000000000000000e+00  -2.4192203200510242e-10 -1.3789852477598962e-09 0.0000000000000000e+00  -5.9885693796482008e-10 -1.3925441870831216e-09 0.0000000000000000e+00  -9.3370968050238390e-10 -1.2875279416756683e-09 0.0000000000000000e+00  -1.2277233499376668e-09 -1.1394780120304783e-09 0.0000000000000000e+00  -1.4734536124670549e-09 -9.6606386226908805e-10 0.0000000000000000e+00  -1.6692296013573950e-09 -7.7836953458861947e-10 0.0000000000000000e+00  -1.8165659835010187e-09 -5.8441559335833295e-10 0.0000000000000000e+00  -1.9185290382951368e-09 -3.8904889270863495e-10 0.0000000000000000e+00  -1.9782202453882351e-09 -1.9436353889390090e-10 0.0000000000000000e+00  -1.9978446708358500e-09 -5.2054882164826433e-13 0.0000000000000000e+00  -1.9781962769175313e-09 1.9329924765180326e-10 0.0000000000000000e+00  -1.9185001927241901e-09 3.8791529023271098e-10 0.0000000000000000e+00  -1.8165719107822758e-09 5.8316913669021210e-10 0.0000000000000000e+00  -1.6693312702391424e-09 7.7697683091198139e-10 0.0000000000000000e+00  -1.4737479199711623e-09 9.6452202713741311e-10 0.0000000000000000e+00  -1.2282865742041874e-09 1.1378421592807728e-09 0.0000000000000000e+00  -9.3466808481392271e-10 1.2861263638163941e-09 0.0000000000000000e+00  -5.9997554431283701e-10 1.3935350807334475e-09 0.0000000000000000e+00  -2.4313257961725855e-10 1.3835537672768491e-09 0.0000000000000000e+00  -7.0362617189777818e-13 3.4867750232048620e-11 0.0000000000000000e+00  -1.9917371049628073e-13 -2.0895080837283448e-11 0.0000000000000000e+00  -2.1095334189432246e-10 -1.0492562297120288e-09 0.0000000000000000e+00  -5.2399439784604508e-10 -1.0629979904104970e-09 0.0000000000000000e+00  -8.2144512566618375e-10 -9.8824323215704137e-10 0.0000000000000000e+00  -1.0875704684304740e-09 -8.8068672030349996e-10 0.0000000000000000e+00  -1.3150907131416854e-09 -7.5231388854126753e-10 0.0000000000000000e+00  -1.5007064687840382e-09 -6.1060457703175023e-10 0.0000000000000000e+00  -1.6435539947800712e-09 -4.6140064329081692e-10 0.0000000000000000e+00  -1.7442852630048634e-09 -3.0869741902989919e-10 0.0000000000000000e+00  -1.8040611562121227e-09 -1.5475356399521186e-10 0.0000000000000000e+00  -1.8238607884453704e-09 -5.3615997373607953e-13 0.0000000000000000e+00  -1.8040607931265920e-09 1.5366662260986266e-10 0.0000000000000000e+00  -1.7442991387041769e-09 3.0756827794530005e-10 0.0000000000000000e+00  -1.6436121873010177e-09 4.6020778168448806e-10 0.0000000000000000e+00  -1.5008535135038121e-09 6.0934078625940975e-10 0.0000000000000000e+00  -1.3153914959476178e-09 7.5100018805906827e-10 0.0000000000000000e+00  -1.0880666734322358e-09 8.7938330730611271e-10 0.0000000000000000e+00  -8.2220104321209286e-10 9.8721352781184233e-10 0.0000000000000000e+00  -5.2483269385913797e-10 1.0640565716651774e-09 0.0000000000000000e+00  -2.1185023497735085e-10 1.0532856642558890e-09 0.0000000000000000e+00  -5.3421381677623880e-13 2.6761032216776979e-11 0.0000000000000000e+00  -1.8854577175149997e-13 -1.4529568670447827e-11 0.0000000000000000e+00  -1.8937895998966080e-10 -7.5717935753340057e-10 0.0000000000000000e+00  -4.7144548604571130e-10 -7.6889321170554804e-10 0.0000000000000000e+00  -7.4173525491131964e-10 -7.1754518540436282e-10 0.0000000000000000e+00  -9.8657568218289811e-10 -6.4245478052663682e-10 0.0000000000000000e+00  -1.1990668558484640e-09 -5.5164786547012485e-10 0.0000000000000000e+00  -1.3751734759359379e-09 -4.5001949646745794e-10 0.0000000000000000e+00  -1.5127336186805036e-09 -3.4159769550987088e-10 0.0000000000000000e+00  -1.6109567253752118e-09 -2.2937628930438495e-10 0.0000000000000000e+00  -1.6697722617599738e-09 -1.1530876296426320e-10 0.0000000000000000e+00  -1.6893491475211373e-09 -5.4032078787394694e-13 0.0000000000000000e+00  -1.6697822851479304e-09 1.1422034961014126e-10 0.0000000000000000e+00  -1.6109872699599587e-09 2.2826671137814975e-10 0.0000000000000000e+00  -1.5128058722870370e-09 3.4046073499450860e-10 0.0000000000000000e+00  -1.3753175397062526e-09 4.4886304769402195e-10 0.0000000000000000e+00  -1.1993235933577861e-09 5.5050238669720152e-10 0.0000000000000000e+00  -9.8696577204372272e-10 6.4137464084285426e-10 0.0000000000000000e+00  -7.4229068946956557e-10 7.1674536960528987e-10 0.0000000000000000e+00  -4.7204175439175478e-10 7.6996160501812219e-10 0.0000000000000000e+00  -1.9001408996406024e-10 7.6081920180207202e-10 0.0000000000000000e+00  -4.1648580466015828e-13 1.9751065133354828e-11 0.0000000000000000e+00  -1.9054795390247868e-13 -8.6968114789477179e-12 0.0000000000000000e+00  -1.7513856075036544e-10 -4.9089422583186613e-10 0.0000000000000000e+00  -4.3655829839164622e-10 -4.9947000822899201e-10 0.0000000000000000e+00  -6.8840256513879519e-10 -4.6741161643206533e-10 0.0000000000000000e+00  -9.1832024337036894e-10 -4.1978706775753190e-10 0.0000000000000000e+00  -1.1197661493003038e-09 -3.6167703276288