<?xml version="1.0"?>
<VTKFile type="UnstructuredGrid"  version="0.1"  >
<UnstructuredGrid>
<Piece  NumberOfPoints="651" NumberOfCells="1200">
<Points>
<DataArray  type="Float64"  NumberOfComponents="3"  format="ascii">0 0 0  50000 0 0  100000 0 0  150000 0 0  200000 0 0  250000 0 0  300000 0 0  350000 0 0  400000 0 0  450000 0 0  500000 0 0  550000 0 0  600000 0 0  650000 0 0  700000 0 0  750000 0 0  800000 0 0  850000 0 0  900000 0 0  950000 0 0  1000000 0 0  0 50000 0  50000 50000 0  100000 50000 0  150000 50000 0  200000 50000 0  250000 50000 0  300000 50000 0  350000 50000 0  400000 50000 0  450000 50000 0  500000 50000 0  550000 50000 0  600000 50000 0  650000 50000 0  700000 50000 0  750000 50000 0  800000 50000 0  850000 50000 0  900000 50000 0  950000 50000 0  1000000 50000 0  0 100000 0  50000 100000 0  100000 100000 0  150000 100000 0  200000 100000 0  250000 100000 0  300000 100000 0  350000 100000 0  400000 100000 0  450000 100000 0  500000 100000 0  550000 100000 0  600000 100000 0  650000 100000 0  700000 100000 0  750000 100000 0  800000 100000 0  850000 100000 0  900000 100000 0  950000 100000 0  1000000 100000 0  0 150000 0  50000 150000 0  100000 150000 0  150000 150000 0  200000 150000 0  250000 150000 0  300000 150000 0  350000 150000 0  400000 150000 0  450000 150000 0  500000 150000 0  550000 150000 0  600000 150000 0  650000 150000 0  700000 150000 0  750000 150000 0  800000 150000 0  850000 150000 0  900000 150000 0  950000 150000 0  1000000 150000 0  0 200000 0  50000 200000 0  100000 200000 0  150000 200000 0  200000 200000 0  250000 200000 0  300000 200000 0  350000 200000 0  400000 200000 0  450000 200000 0  500000 200000 0  550000 200000 0  600000 200000 0  650000 200000 0  700000 200000 0  750000 200000 0  800000 200000 0  850000 200000 0  900000 200000 0  950000 200000 0  1000000 200000 0  0 250000 0  50000 250000 0  100000 250000 0  150000 250000 0  200000 250000 0  250000 250000 0  300000 250000 0  350000 250000 0  400000 250000 0  450000 250000 0  500000 250000 0  550000 250000 0  600000 250000 0  650000 250000 0  700000 250000 0  750000 250000 0  800000 250000 0  850000 250000 0  900000 250000 0  950000 250000 0  1000000 250000 0  0 300000 0  50000 300000 0  100000 300000 0  150000 300000 0  200000 300000 0  250000 300000 0  300000 300000 0  350000 300000 0  400000 300000 0  450000 300000 0  500000 300000 0  550000 300000 0  600000 300000 0  650000 300000 0  700000 300000 0  750000 300000 0  800000 300000 0  850000 300000 0  900000 300000 0  950000 300000 0  1000000 300000 0  0 350000 0  50000 350000 0  100000 350000 0  150000 350000 0  200000 350000 0  250000 350000 0  300000 350000 0  350000 350000 0  400000 350000 0  450000 350000 0  500000 350000 0  550000 350000 0  600000 350000 0  650000 350000 0  700000 350000 0  750000 350000 0  800000 350000 0  850000 350000 0  900000 350000 0  950000 350000 0  1000000 350000 0  0 400000 0  50000 400000 0  100000 400000 0  150000 400000 0  200000 400000 0  250000 400000 0  300000 400000 0  350000 400000 0  400000 400000 0  450000 400000 0  500000 400000 0  550000 400000 0  600000 400000 0  650000 400000 0  700000 400000 0  750000 400000 0  800000 400000 0  850000 400000 0  900000 400000 0  950000 400000 0  1000000 400000 0  0 450000 0  50000 450000 0  100000 450000 0  150000 450000 0  200000 450000 0  250000 450000 0  300000 450000 0  350000 450000 0  400000 450000 0  450000 450000 0  500000 450000 0  550000 450000 0  600000 450000 0  650000 450000 0  700000 450000 0  750000 450000 0  800000 450000 0  850000 450000 0  900000 450000 0  950000 450000 0  1000000 450000 0  0 500000 0  50000 500000 0  100000 500000 0  150000 500000 0  200000 500000 0  250000 500000 0  300000 500000 0  350000 500000 0  400000 500000 0  450000 500000 0  500000 500000 0  550000 500000 0  600000 500000 0  650000 500000 0  700000 500000 0  750000 500000 0  800000 500000 0  850000 500000 0  900000 500000 0  950000 500000 0  1000000 500000 0  0 550000 0  50000 550000 0  100000 550000 0  150000 550000 0  200000 550000 0  250000 550000 0  300000 550000 0  350000 550000 0  400000 550000 0  450000 550000 0  500000 550000 0  550000 550000 0  600000 550000 0  650000 550000 0  700000 550000 0  750000 550000 0  800000 550000 0  850000 550000 0  900000 550000 0  950000 550000 0  1000000 550000 0  0 600000 0  50000 600000 0  100000 600000 0  150000 600000 0  200000 600000 0  250000 600000 0  300000 600000 0  350000 600000 0  400000 600000 0  450000 600000 0  500000 600000 0  550000 600000 0  600000 600000 0  650000 600000 0  700000 600000 0  750000 600000 0  800000 600000 0  850000 600000 0  900000 600000 0  950000 600000 0  1000000 600000 0  0 650000 0  50000 650000 0  100000 650000 0  150000 650000 0  200000 650000 0  250000 650000 0  300000 650000 0  350000 650000 0  400000 650000 0  450000 650000 0  500000 650000 0  550000 650000 0  600000 650000 0  650000 650000 0  700000 650000 0  750000 650000 0  800000 650000 0  850000 650000 0  900000 650000 0  950000 650000 0  1000000 650000 0  0 700000 0  50000 700000 0  100000 700000 0  150000 700000 0  200000 700000 0  250000 700000 0  300000 700000 0  350000 700000 0  400000 700000 0  450000 700000 0  500000 700000 0  550000 700000 0  600000 700000 0  650000 700000 0  700000 700000 0  750000 700000 0  800000 700000 0  850000 700000 0  900000 700000 0  950000 700000 0  1000000 700000 0  0 750000 0  50000 750000 0  100000 750000 0  150000 750000 0  200000 750000 0  250000 750000 0  300000 750000 0  350000 750000 0  400000 750000 0  450000 750000 0  500000 750000 0  550000 750000 0  600000 750000 0  650000 750000 0  700000 750000 0  750000 750000 0  800000 750000 0  850000 750000 0  900000 750000 0  950000 750000 0  1000000 750000 0  0 800000 0  50000 800000 0  100000 800000 0  150000 800000 0  200000 800000 0  250000 800000 0  300000 800000 0  350000 800000 0  400000 800000 0  450000 800000 0  500000 800000 0  550000 800000 0  600000 800000 0  650000 800000 0  700000 800000 0  750000 800000 0  800000 800000 0  850000 800000 0  900000 800000 0  950000 800000 0  1000000 800000 0  0 850000 0  50000 850000 0  100000 850000 0  150000 850000 0  200000 850000 0  250000 850000 0  300000 850000 0  350000 850000 0  400000 850000 0  450000 850000 0  500000 850000 0  550000 850000 0  600000 850000 0  650000 850000 0  700000 850000 0  750000 850000 0  800000 850000 0  850000 850000 0  900000 850000 0  950000 850000 0  1000000 850000 0  0 900000 0  50000 900000 0  100000 900000 0  150000 900000 0  200000 900000 0  250000 900000 0  300000 900000 0  350000 900000 0  400000 900000 0  450000 900000 0  500000 900000 0  550000 900000 0  600000 900000 0  650000 900000 0  700000 900000 0  750000 900000 0  800000 900000 0  850000 900000 0  900000 900000 0  950000 900000 0  1000000 900000 0  0 950000 0  50000 950000 0  100000 950000 0  150000 950000 0  200000 950000 0  250000 950000 0  300000 950000 0  350000 950000 0  400000 950000 0  450000 950000 0  500000 950000 0  550000 950000 0  600000 950000 0  650000 950000 0  700000 950000 0  750000 950000 0  800000 950000 0  850000 950000 0  900000 950000 0  950000 950000 0  1000000 950000 0  0 1000000 0  50000 1000000 0  100000 1000000 0  150000 1000000 0  200000 1000000 0  250000 1000000 0  300000 1000000 0  350000 1000000 0  400000 1000000 0  450000 1000000 0  500000 1000000 0  550000 1000000 0  600000 1000000 0  650000 1000000 0  700000 1000000 0  750000 1000000 0  800000 1000000 0  850000 1000000 0  900000 1000000 0  950000 1000000 0  1000000 1000000 0  0 1050000 0  50000 1050000 0  100000 1050000 0  150000 1050000 0  200000 1050000 0  250000 1050000 0  300000 1050000 0  350000 1050000 0  400000 1050000 0  450000 1050000 0  500000 1050000 0  550000 1050000 0  600000 1050000 0  650000 1050000 0  700000 1050000 0  750000 1050000 0  800000 1050000 0  850000 1050000 0  900000 1050000 0  950000 1050000 0  1000000 1050000 0  0 1100000 0  50000 1100000 0  100000 1100000 0  150000 1100000 0  200000 1100000 0  250000 1100000 0  300000 1100000 0  350000 1100000 0  400000 1100000 0  450000 1100000 0  500000 1100000 0  550000 1100000 0  600000 1100000 0  650000 1100000 0  700000 1100000 0  750000 1100000 0  800000 1100000 0  850000 1100000 0  900000 1100000 0  950000 1100000 0  1000000 1100000 0  0 1150000 0  50000 1150000 0  100000 1150000 0  150000 1150000 0  200000 1150000 0  250000 1150000 0  300000 1150000 0  350000 1150000 0  400000 1150000 0  450000 1150000 0  500000 1150000 0  550000 1150000 0  600000 1150000 0  650000 1150000 0  700000 1150000 0  750000 1150000 0  800000 1150000 0  850000 1150000 0  900000 1150000 0  950000 1150000 0  1000000 1150000 0  0 1200000 0  50000 1200000 0  100000 1200000 0  150000 1200000 0  200000 1200000 0  250000 1200000 0  300000 1200000 0  350000 1200000 0  400000 1200000 0  450000 1200000 0  500000 1200000 0  550000 1200000 0  600000 1200000 0  650000 1200000 0  700000 1200000 0  750000 1200000 0  800000 1200000 0  850000 1200000 0  900000 1200000 0  950000 1200000 0  1000000 1200000 0  0 1250000 0  50000 1250000 0  100000 1250000 0  150000 1250000 0  200000 1250000 0  250000 1250000 0  300000 1250000 0  350000 1250000 0  400000 1250000 0  450000 1250000 0  500000 1250000 0  550000 1250000 0  600000 1250000 0  650000 1250000 0  700000 1250000 0  750000 1250000 0  800000 1250000 0  850000 1250000 0  900000 1250000 0  950000 1250000 0  1000000 1250000 0  0 1300000 0  50000 1300000 0  100000 1300000 0  150000 1300000 0  200000 1300000 0  250000 1300000 0  300000 1300000 0  350000 1300000 0  400000 1300000 0  450000 1300000 0  500000 1300000 0  550000 1300000 0  600000 1300000 0  650000 1300000 0  700000 1300000 0  750000 1300000 0  800000 1300000 0  850000 1300000 0  900000 1300000 0  950000 1300000 0  1000000 1300000 0  0 1350000 0  50000 1350000 0  100000 1350000 0  150000 1350000 0  200000 1350000 0  250000 1350000 0  300000 1350000 0  350000 1350000 0  400000 1350000 0  450000 1350000 0  500000 1350000 0  550000 1350000 0  600000 1350000 0  650000 1350000 0  700000 135
[...]
<PointData  Vectors="f_4501"> 
<DataArray  type="Float64"  Name="f_4501"  NumberOfComponents="3" format="ascii">-1.2332066971213576e-09 -8.9507559675604198e-10 0.0000000000000000e+00  7.9067086210141327e-08 -7.1797509692486304e-10 0.0000000000000000e+00  7.9736769767405739e-08 -8.3903041197058908e-11 0.0000000000000000e+00  7.9724551845870613e-08 -1.7951105899780056e-11 0.0000000000000000e+00  7.9801331732188128e-08 -1.2930743989364471e-11 0.0000000000000000e+00  7.9835518099379199e-08 -6.1478586754230755e-12 0.0000000000000000e+00  7.9855474721818616e-08 -3.5867843952898631e-12 0.0000000000000000e+00  7.9868042909224996e-08 -2.1330258510402999e-12 0.0000000000000000e+00  7.9875436113774841e-08 -1.0790731540469252e-12 0.0000000000000000e+00  7.9878974292243978e-08 -2.0916232487505624e-13 0.0000000000000000e+00  7.9879228214876632e-08 6.3152741430071995e-13 0.0000000000000000e+00  7.9876239169053536e-08 1.5828537978816947e-12 0.0000000000000000e+00  7.9869548368695192e-08 2.8237312846132621e-12 0.0000000000000000e+00  7.9858011883345051e-08 4.6549541042329207e-12 0.0000000000000000e+00  7.9839299683760614e-08 7.5954837541140688e-12 0.0000000000000000e+00  7.9809449432096717e-08 1.2738038691341091e-11 0.0000000000000000e+00  7.9755491125180044e-08 2.9282992311146349e-11 0.0000000000000000e+00  7.9633897441062914e-08 6.1625355662161543e-11 0.0000000000000000e+00  7.9556405884137372e-08 6.5711073577407265e-11 0.0000000000000000e+00  7.7271316651644839e-08 2.4285748334770419e-09 0.0000000000000000e+00  -3.3858138587952488e-09 2.9667381856335981e-09 0.0000000000000000e+00  -9.3375282770776837e-10 -8.4451933079416526e-10 0.0000000000000000e+00  -1.4074052702022387e-08 -9.5182036657686193e-09 0.0000000000000000e+00  -7.2106364903553404e-09 -3.5863857528650285e-09 0.0000000000000000e+00  -5.8181773867396238e-09 -1.5137622020277152e-09 0.0000000000000000e+00  -4.2418874414807268e-09 -8.5551316801084521e-10 0.0000000000000000e+00  -3.4464818349586065e-09 -5.0288976683216204e-10 0.0000000000000000e+00  -2.9438718136211635e-09 -3.1512028403437533e-10 0.0000000000000000e+00  -2.6225220830888329e-09 -1.9887473707779393e-10 0.0000000000000000e+00  -2.4231190681228195e-09 -1.1812814124605828e-10 0.0000000000000000e+00  -2.3140704552083673e-09 -5.5363344693838666e-11 0.0000000000000000e+00  -2.2799132811756602e-09 -1.6506419676180533e-13 0.0000000000000000e+00  -2.3160337288579831e-09 5.5262137456208174e-11 0.0000000000000000e+00  -2.4271913661355605e-09 1.1876693235245476e-10 0.0000000000000000e+00  -2.6289870884215666e-09 2.0096038975128894e-10 0.0000000000000000e+00  -2.9531228014122867e-09 3.1986626344603385e-10 0.0000000000000000e+00  -3.4595446734028082e-09 5.1187807526571626e-10 0.0000000000000000e+00  -4.2604445660671802e-09 8.6123048493382516e-10 0.0000000000000000e+00  -5.5697849772782276e-09 1.5830741353439439e-09 0.0000000000000000e+00  -8.3837021766854349e-09 3.5150660897501399e-09 0.0000000000000000e+00  -1.1687969184938869e-08 1.0870511235898765e-08 0.0000000000000000e+00  -2.6013388581095142e-09 2.5216215493061997e-09 0.0000000000000000e+00  -1.8132395309494170e-10 -3.0450185783908903e-10 0.0000000000000000e+00  -3.9926097098747178e-09 -7.8632966715389329e-09 0.0000000000000000e+00  -5.0205105589426416e-09 -5.0701981812130445e-09 0.0000000000000000e+00  -4.8563989491092567e-09 -2.8809053767534268e-09 0.0000000000000000e+00  -4.0617271819336691e-09 -1.6749456765139076e-09 0.0000000000000000e+00  -3.5583833183934748e-09 -1.0469339779989458e-09 0.0000000000000000e+00  -3.1825201391722599e-09 -6.7520513118742481e-10 0.0000000000000000e+00  -2.9242029311033215e-09 -4.3257920016182163e-10 0.0000000000000000e+00  -2.7570709549202384e-09 -2.5919381117138797e-10 0.0000000000000000e+00  -2.6630884291897935e-09 -1.2215485432460600e-10 0.0000000000000000e+00  -2.6324022066804951e-09 -8.5910544643021489e-13 0.0000000000000000e+00  -2.6617996208764562e-09 1.2049724230606073e-10 0.0000000000000000e+00  -2.7541116015817064e-09 2.5768878878984940e-10 0.0000000000000000e+00  -2.9185584716953297e-09 4.3116895556564939e-10 0.0000000000000000e+00  -3.1717823792068337e-09 6.7331943404384691e-10 0.0000000000000000e+00  -3.5384134168458928e-09 1.0428867757113742e-09 0.0000000000000000e+00  -4.0466413321347471e-09 1.6576067099167365e-09 0.0000000000000000e+00  -4.7028291252415439e-09 2.7764007974107653e-09 0.0000000000000000e+00  -5.1220340044508864e-09 4.9671166171258985e-09 0.0000000000000000e+00  -3.6932139319224958e-09 8.8328123919157324e-09 0.0000000000000000e+00  -1.9545029880297988e-10 4.0933980211548975e-10 0.0000000000000000e+00  -2.9272871426809986e-11 -2.4031866828196450e-10 0.0000000000000000e+00  -1.7437209253202315e-09 -5.8772002430452329e-09 0.0000000000000000e+00  -3.2040200312555011e-09 -4.5233508756686481e-09 0.0000000000000000e+00  -3.5227715122921850e-09 -3.0456707331118146e-09 0.0000000000000000e+00  -3.4654738326850100e-09 -2.0164147966244194e-09 0.0000000000000000e+00  -3.2787234723977298e-09 -1.3610764979049905e-09 0.0000000000000000e+00  -3.0823766415597874e-09 -9.1349151359013997e-10 0.0000000000000000e+00  -2.9244761345269851e-09 -5.9846803330981383e-10 0.0000000000000000e+00  -2.8131984475793036e-09 -3.6205122133270782e-10 0.0000000000000000e+00  -2.7475225765971663e-09 -1.6933579613103982e-10 0.0000000000000000e+00  -2.7254881489930930e-09 3.8105526122574726e-12 0.0000000000000000e+00  -2.7461857227145288e-09 1.7694188221240951e-10 0.0000000000000000e+00  -2.8102589781308690e-09 3.6955755324220375e-10 0.0000000000000000e+00  -2.9193407743581366e-09 6.0555859680655137e-10 0.0000000000000000e+00  -3.0737222977200461e-09 9.1915278363828646e-10 0.0000000000000000e+00  -3.2654003654848079e-09 1.3639007015335441e-09 0.0000000000000000e+00  -3.4578690803815695e-09 2.0256391997008541e-09 0.0000000000000000e+00  -3.5250143981858099e-09 3.0290454438361514e-09 0.0000000000000000e+00  -3.1248323073885292e-09 4.4638581818829684e-09 0.0000000000000000e+00  -1.7421005945547523e-09 5.8276927301962148e-09 0.0000000000000000e+00  -5.0930981013126952e-11 3.3494381837297786e-10 0.0000000000000000e+00  -1.4355388395549523e-11 -1.7190811460157521e-10 0.0000000000000000e+00  -1.0018054274941843e-09 -4.2519794175517682e-09 0.0000000000000000e+00  -2.0303359853281691e-09 -3.6548909617736772e-09 0.0000000000000000e+00  -2.5578274151384860e-09 -2.8003758142677874e-09 0.0000000000000000e+00  -2.7660179094289504e-09 -2.0594066943678184e-09 0.0000000000000000e+00  -2.7937990445316882e-09 -1.4740607196892163e-09 0.0000000000000000e+00  -2.7469485046313411e-09 -1.0341197409752032e-09 0.0000000000000000e+00  -2.6847421275380253e-09 -6.9853170875089920e-10 0.0000000000000000e+00  -2.6308821734839361e-09 -4.3181721034370693e-10 0.0000000000000000e+00  -2.5957564360610855e-09 -2.0624009083566391e-10 0.0000000000000000e+00  -2.5833365965083251e-09 1.3925382161118774e-13 0.0000000000000000e+00  -2.5945883686979166e-09 2.0640757316763997e-10 0.0000000000000000e+00  -2.6284458004276733e-09 4.3159865038843866e-10 0.0000000000000000e+00  -2.6809059777784608e-09 6.9747598072527613e-10 0.0000000000000000e+00  -2.7417084737949591e-09 1.0313609387269482e-09 0.0000000000000000e+00  -2.7867049064354017e-09 1.4681765318484683e-09 0.0000000000000000e+00  -2.7624611866081741e-09 2.0475106456689385e-09 0.0000000000000000e+00  -2.5618374754471266e-09 2.7911331345927154e-09 0.0000000000000000e+00  -2.0181271602843707e-09 3.6319971002626565e-09 0.0000000000000000e+00  -1.0249355622416283e-09 4.2754165731532095e-09 0.0000000000000000e+00  -3.0629569833583939e-11 2.2325952168541208e-10 0.0000000000000000e+00  -8.4079413812784784e-12 -1.2783947366992259e-10 0.0000000000000000e+00  -6.5047351051011644e-10 -3.2434642503305703e-09 0.0000000000000000e+00  -1.3889074158405072e-09 -2.9486393130372061e-09 0.0000000000000000e+00  -1.8934302897761968e-09 -2.4308711814662399e-09 0.0000000000000000e+00  -2.1866040553751842e-09 -1.9033891579245368e-09 0.0000000000000000e+00  -2.3249118324176600e-09 -1.4371243207503249e-09 0.0000000000000000e+00  -2.3781201654564447e-09 -1.0481774645040134e-09 0.0000000000000000e+00  -2.3888013250710092e-09 -7.2779795038620936e-10 0.0000000000000000e+00  -2.3831458753356322e-09 -4.5810701499462914e-10 0.0000000000000000e+00  -2.3751581189391216e-09 -2.2120747140636814e-10 0.0000000000000000e+00  -2.3715583651520235e-09 -2.8111600215600283e-13 0.0000000000000000e+00  -2.3743073408171117e-09 2.2051219927643632e-10 0.0000000000000000e+00  -2.3814581063369587e-09 4.5698048175394723e-10 0.0000000000000000e+00  -2.3863895896699546e-09 7.2584549745958239e-10 0.0000000000000000e+00  -2.3752720196902437e-09 1.0450048376231483e-09 0.0000000000000000e+00  -2.3224298012604079e-09 1.4316641331313902e-09 0.0000000000000000e+00  -2.1842552834079723e-09 1.8950774310415515e-09 0.0000000000000000e+00  -1.8967832282427312e-09 2.4185472350600404e-09 0.0000000000000000e+00  -1.3927258599727853e-09 2.9328778070844748e-09 0.0000000000000000e+00  -6.6800166637372081e-10 3.2686727095580448e-09 0.0000000000000000e+00  -1.5278463682377986e-11 1.5973275281504811e-10 0.0000000000000000e+00  -5.6557197150929563e-12 -9.9202576318086170e-11 0.0000000000000000e+00  -4.6244740842517434e-10 -2.5440937775720797e-09 0.0000000000000000e+00  -1.0187091184764492e-09 -2.3805073328752244e-09 0.0000000000000000e+00  -1.4515410670150184e-09 -2.0498262881694906e-09 0.0000000000000000e+00  -1.7516519803913335e-09 -1.6791782929587279e-09 0.0000000000000000e+00  -1.9389030686805235e-09 -1.3190457203101113e-09 0.0000000000000000e+00  -2.0472824942753203e-09 -9.9339457686281304e-10 0.0000000000000000e+00  -2.1058140953256456e-09 -7.0616222697024481e-10 0.0000000000000000e+00  -2.1350265005069868e-09 -4.5176197564227039e-10 0.0000000000000000e+00  -2.1478874294450868e-09 -2.2027726665838670e-10 0.0000000000000000e+00  -2.1512751762117031e-09 -4.7409813085260666e-13 0.0000000000000000e+00  -2.1473497042858535e-09 2.1920876724876506e-10 0.0000000000000000e+00  -2.1340142009302534e-09 4.5031707364343072e-10 0.0000000000000000e+00  -2.1044785482291417e-09 7.0406381713001322e-10 0.0000000000000000e+00  -2.0459786186491686e-09 9.9028334803136830e-10 0.0000000000000000e+00  -1.9380768879442585e-09 1.3146589843943584e-09 0.0000000000000000e+00  -1.7520539113551162e-09 1.6729574118300044e-09 0.0000000000000000e+00  -1.4547916235084972e-09 2.0418399156786345e-09 0.0000000000000000e+00  -1.0226269142102853e-09 2.3720771069611739e-09 0.0000000000000000e+00  -4.7413408173271278e-10 2.5638849945943792e-09 0.0000000000000000e+00  -9.6906774326581482e-12 1.2163978852246368e-10 0.0000000000000000e+00  -4.2324782227993073e-12 -7.8167550565696498e-11 0.0000000000000000e+00  -3.5045471565221075e-10 -2.0231136899460163e-09 0.0000000000000000e+00  -7.8593448851130531e-10 -1.9256109217865251e-09 0.0000000000000000e+00  -1.1510732905358383e-09 -1.7040442631635930e-09 0.0000000000000000e+00  -1.4318470042431057e-09 -1.4395039381450820e-09 0.0000000000000000e+00  -1.6314450477800568e-09 -1.1642127686551859e-09 0.0000000000000000e+00  -1.7657362115905670e-09 -8.9867038974704904e-10 0.0000000000000000e+00  -1.8515573476689806e-09 -6.5132126540319930e-10 0.0000000000000000e+00  -1.9030399802577371e-09 -4.2245630929101854e-10 0.0000000000000000e+00  -1.9300646994020101e-09 -2.0778131420548128e-10 0.0000000000000000e+00  -1.9383511172899066e-09 -6.9408213419094628e-13 0.0000000000000000e+00  -1.9297701884868090e-09 2.0629918252370791e-10 0.0000000000000000e+00  -1.9025176438672158e-09 4.2069118272269736e-10 0.0000000000000000e+00  -1.8509613796964505e-09 6.4907099815852878e-10 0.0000000000000000e+00  -1.7653101732320400e-09 8.9574819307430819e-10 0.0000000000000000e+00  -1.6315950674127532e-09 1.1604513898817302e-09 0.0000000000000000e+00  -1.4330309642297441e-09 1.4349196475812380e-09 0.0000000000000000e+00  -1.1541450971634944e-09 1.6991003997139231e-09 0.0000000000000000e+00  -7.8908768577615477e-10 1.9209473369864758e-09 0.0000000000000000e+00  -3.5854506834398847e-10 2.0387962340112519e-09 0.0000000000000000e+00  -6.7471789526121541e-12 9.4875879080093022e-11 0.0000000000000000e+00  -3.3508826265590443e-12 -6.1857009097145841e-11 0.0000000000000000e+00  -2.7824566321613922e-10 -1.6156602127286764e-09 0.0000000000000000e+00  -6.3090253737548486e-10 -1.5544786970137185e-09 0.0000000000000000e+00  -9.4060638945351379e-10 -1.4003279008361528e-09 0.0000000000000000e+00  -1.1945780512349819e-09 -1.2079743212606292e-09 0.0000000000000000e+00  -1.3896674328407855e-09 -9.9757547432620285e-10 0.0000000000000000e+00  -1.5322203462655699e-09 -7.8453293165726349e-10 0.0000000000000000e+00  -1.6311220518228491e-09 -5.7727971566856766e-10 0.0000000000000000e+00  -1.6949889849524662e-09 -3.7862797316579192e-10 0.0000000000000000e+00  -1.7305256122461350e-09 -1.8755603626502894e-10 0.0000000000000000e+00  -1.7418603816174909e-09 -8.1149249098089035e-13 0.0000000000000000e+00  -1.7303963037322691e-09 1.8586743983730794e-10 0.0000000000000000e+00  -1.6947890135788561e-09 3.7674306441919936e-10 0.0000000000000000e+00  -1.6309697506465150e-09 5.7507778697500445e-10 0.0000000000000000e+00  -1.5323096337455266e-09 7.8191116657958633e-10 0.0000000000000000e+00  -1.3902536778168852e-09 9.9450193261220385e-10 0.0000000000000000e+00  -1.1959575997196308e-09 1.2045964666856678e-09 0.0000000000000000e+00  -9.4326464308452435e-10 1.3971407291050257e-09 0.0000000000000000e+00  -6.3330700374006636e-10 1.5517419816279589e-09 0.0000000000000000e+00  -2.8410861854737217e-10 1.6283848210120477e-09 0.0000000000000000e+00  -5.0162676125397356e-12 7.4935083812129506e-11 0.0000000000000000e+00  -2.7655953157758868e-12 -4.8669941019032692e-11 0.0000000000000000e+00  -2.2921403529474693e-10 -1.2845384520759131e-09 0.0000000000000000e+00  -5.2335566596833150e-10 -1.2448101911479006e-09 0.0000000000000000e+00  -7.8954921153962375e-10 -1.1347272164879761e-09 0.0000000000000000e+00  -1.0171069724074876e-09 -9.9304891198410923e-10 0.0000000000000000e+00  -1.2008545547181105e-09 -8.3239799523933654e-10 0.0000000000000000e+00  -1.3422892997296301e-09 -6.6371336946906492e-10 0.0000000000000000e+00  -1.4453938118375788e-09 -4.9405515395061952e-10 0.0000000000000000e+00  -1.5148670256383618e-09 -3.2687369926948937e-10 0.0000000000000000e+00  -1.5547614958634987e-09 -1.6284948699223063e-10 0.0000000000000000e+00  -1.5677398591247695e-09 -8.6006899874649292e-13 0.0000000000000000e+00  -1.5547345056764158e-09 1.6108727343126639e-10 0.0000000000000000e+00  -1.5148572272784304e-09 3.2498982116520260e-10 0.0000000000000000e+00  -1.4454911732801417e-09 4.9198283521922117e-10 0.0000000000000000e+00  -1.3426267319085274e-09 6.6141651014561526e-10 0.0000000000000000e+00  -1.2015992661084371e-09 8.2990370509452902e-10 0.0000000000000000e+00  -1.0184319556850181e-09 9.9053232182270663e-10 0.0000000000000000e+00  -7.9171502791934196e-10 1.1325837847946340e-09 0.0000000000000000e+00  -5.2514391131643866e-10 1.2430747478102738e-09 0.0000000000000000e+00  -2.3356550104298802e-10 1.2951181018548958e-09 0.0000000000000000e+00  -3.9175399367012528e-12 5.9317181185990103e-11 0.0000000000000000e+00  -2.3661855202670764e-12 -3.7621142960173363e-11 0.0000000000000000e+00  -1.9488177739031348e-10 -1.0066348072308324e-09 0.0000000000000000e+00  -4.4689373041152909e-10 -9.8043399406541330e-10 0.0000000000000000e+00  -6.7960092644832387e-10 -9.0090240168264677e-10 0.0000000000000000e+00  -8.8408646092467030e-10 -7.9630184101946015e-10 0.0000000000000000e+00  -1.0547808970942895e-09 -6.7457384713143603e-10 0.0000000000000000e+00  -1.1907744317844396e-09 -5.4329570272677819e-10 0.0000000000000000e+00  -1.2931772706228545e-09 -4.0791810721165959e-10 0.0000000000000000e+00  -1.3640900737369039e-09 -2.7168335168624787e-10 0.0000000000000000e+00  -1.4056321633804098e-09 -1.3597316448755689e-10 0.0000000000000000e+00  -1.4193066477064032e-09 -8.6781066222022301e-13 0.0000000000000000e+00  -1.4056606750830966e-09 1.3421433278659124e-10 0.0000000000000000e+00  -1.3641791603663024e-09 2.6985918175384774e-10 0.0000000000000000e+00  -1.2933895133015253e-09 4.0600123161985497e-10 0.0000000000000000e+00  -1.1911992131661916e-09 5.4128682632890166e-10 0.0000000000000000e+00  -1.0555219522700285e-09 6.7252585024428150e-10 0.0000000000000000e+00  -8.8523709441338018e-10 7.9437383959124111e-10 0.0000000000000000e+00  -6.8129959302201219e-10 8.9938944870792327e-10 0.0000000000000000e+00  -4.4820530631145574e-10 9.7924534553968401e-10 0.0000000000000000e+00  -1.9812818357118513e-10 1.0156513128643856e-09 0.0000000000000000e+00  -3.1800291286554142e-12 4.6585523304536402e-11 0.0000000000000000e+00  -2.0933517586465015e-12 -2.8065482399022718e-11 0.0000000000000000e+00  -1.7059228607011334e-10 -7.6652978459554199e-10 0.0000000000000000e+00  -3.9217058235891030e-10 -7.4944672300538560e-10 0.0000000000000000e+00  -5.9961798042521627e-10 -6.9239388739959395e-10 0.0000000000000000e+00  -7.8528321784614108e-10 -6.1622073656621741e-10 0.0000000000000000e+00  -9.4376733906083969e-10 -5.2591409348713064e-10 0.0000000000000000e+00  -1.0729936962725053e-09 -4.2662247226386994e-10 0.0000000000000000e+00  -1.1724410278074302e-09 -3.2234256628562789e-10 0.0000000000000000e+00  -1.2425773386538572e-09 -2.1576279572426249e-10 0.0000000000000000e+00  -1.2842114395563556e-09 -1.0838923409940897e-10 0.0000000000000000e+00  -1.2980190375686148e-09 -8.5371776038617240e-13 0.0000000000000000e+00  -1.2842633020723894e-09 1.0667217375301378e-10 0.0000000000000000e+00  -1.2427028911841491e-09 2.1402105103103447e-10 0.0000000000000000e+00  -1.1726820674924186e-09 3.2057390086545670e-10 0.0000000000000000e+00  -1.0734074010015403e-09 4.2484768474131174e-10 0.0000000000000000e+00  -9.4441491857067269e-10 5.2419217556956731e-10 0.0000000000000000e+00  -7.8621191106767650e-10 6.1468517449993115e-10 0.0000000000000000e+00  -6.0090214510060440e-10 6.9126517189735951e-10 0.0000000000000000e+00  -3.9311474110756441e-10 7.4856989189794312e-10 0.0000000000000000e+00  -1.7298041950090237e-10 7.7441394512446971e-10 0.0000000000000000e+00  -2.6680293843919072e-12 3.5849179161547878e-11 0.0000000000000000e+00  -1.9144872878546920e-12 -1.9546090269836198e-11 0.0000000000000000e+00  -1.5366554101586527e-10 -5.5321233060610494e-10 0.0000000000000000e+00  -3.5366564736624182e-10 -5.4273633670594642e-10 0.0000000000000000e+00  -5.4270429587033711e-10 -5.0324601032735528e-10 0.0000000000000000e+00  -7.1394108486603458e-10 -4.4998858987056902e-10 0.0000000000000000e+00  -8.6229500906256439e-10 -3.8602040300319652e-10 0.0000000000000000e+00  -9.8514282917229078e-10 -3.1472571909253682e-10 0.0000000000000000e+00  -1.0810624052977007e-09 -2.3887681697234800e-10 0.0000000000000000e+00  -1.1495393396610277e-09 -1.6049677508239905e-10 0.0000000000000000e+00  -1.1905462700280827e-09 -8.0895104134720132e-11 0.0000000000000000e+00  -1.2042096135884032e-09 -8.3142282400706926e-13 0.0000000000000000e+00  -1.1906000661392132e-09 7.9232004065274426e-11 0.0000000000000000e+00  -1.1496609881148726e-09 1.5883635069121370e-10 0.0000000000000000e+00  -1.0812782791329451e-09 2.3723235293874704e-10 0.0000000000000000e+00  -9.8548758344172487e-10 3.1312778009937512e-10 0.0000000000000000e+00  -8.6280298104992101e-10 3.8452617680376238e-10 0.0000000000000000e+00  -7.1463456115953722e-10 4.4870876208132472e-10 0.0000000000000000e+00  -5.4362351593514606e-10 5.0235124132458931e-10 0.0000000000000000e+00  -3.5431850482978725e-10 5.4204124912050777e-10 0.0000000000000000e+00  -1.5534980645201366e-10 5.6029537838909441e-10 0.0000000000000000e+00  -2.3080552993759325e-12 2.6510481953561319e-11 0.0000000000000000e+00  -1.8115948295161130e-12 -1.1713711837812068e-11 0.0000000000000000e+00  -1.4252443613916155e-10 -3.5827343206547896e-10 0.0000000000000000e+00  -3.2806607063534363e-10 -3.5298512495744790e-10 0.0000000000000000e+00  -5.0458211931914098e-10 -3.2807683761166891e-10 0.0000000000000000e+00  -6.6567037717448718e-10 -2.9428459306052651e-10 0.0000000000000000e+00  -8.0655228485476633e-10 