<?xml version="1.0"?>
<VTKFile type="UnstructuredGrid"  version="0.1"  >
<UnstructuredGrid>
<Piece  NumberOfPoints="651" NumberOfCells="1200">
<Points>
<DataArray  type="Float64"  NumberOfComponents="3"  format="ascii">0 0 0  50000 0 0  100000 0 0  150000 0 0  200000 0 0  250000 0 0  300000 0 0  350000 0 0  400000 0 0  450000 0 0  500000 0 0  550000 0 0  600000 0 0  650000 0 0  700000 0 0  750000 0 0  800000 0 0  850000 0 0  900000 0 0  950000 0 0  1000000 0 0  0 50000 0  50000 50000 0  100000 50000 0  150000 50000 0  200000 50000 0  250000 50000 0  300000 50000 0  350000 50000 0  400000 50000 0  450000 50000 0  500000 50000 0  550000 50000 0  600000 50000 0  650000 50000 0  700000 50000 0  750000 50000 0  800000 50000 0  850000 50000 0  900000 50000 0  950000 50000 0  1000000 50000 0  0 100000 0  50000 100000 0  100000 100000 0  150000 100000 0  200000 100000 0  250000 100000 0  300000 100000 0  350000 100000 0  400000 100000 0  450000 100000 0  500000 100000 0  550000 100000 0  600000 100000 0  650000 100000 0  700000 100000 0  750000 100000 0  800000 100000 0  850000 100000 0  900000 100000 0  950000 100000 0  1000000 100000 0  0 150000 0  50000 150000 0  100000 150000 0  150000 150000 0  200000 150000 0  250000 150000 0  300000 150000 0  350000 150000 0  400000 150000 0  450000 150000 0  500000 150000 0  550000 150000 0  600000 150000 0  650000 150000 0  700000 150000 0  750000 150000 0  800000 150000 0  850000 150000 0  900000 150000 0  950000 150000 0  1000000 150000 0  0 200000 0  50000 200000 0  100000 200000 0  150000 200000 0  200000 200000 0  250000 200000 0  300000 200000 0  350000 200000 0  400000 200000 0  450000 200000 0  500000 200000 0  550000 200000 0  600000 200000 0  650000 200000 0  700000 200000 0  750000 200000 0  800000 200000 0  850000 200000 0  900000 200000 0  950000 200000 0  1000000 200000 0  0 250000 0  50000 250000 0  100000 250000 0  150000 250000 0  200000 250000 0  250000 250000 0  300000 250000 0  350000 250000 0  400000 250000 0  450000 250000 0  500000 250000 0  550000 250000 0  600000 250000 0  650000 250000 0  700000 250000 0  750000 250000 0  800000 250000 0  850000 250000 0  900000 250000 0  950000 250000 0  1000000 250000 0  0 300000 0  50000 300000 0  100000 300000 0  150000 300000 0  200000 300000 0  250000 300000 0  300000 300000 0  350000 300000 0  400000 300000 0  450000 300000 0  500000 300000 0  550000 300000 0  600000 300000 0  650000 300000 0  700000 300000 0  750000 300000 0  800000 300000 0  850000 300000 0  900000 300000 0  950000 300000 0  1000000 300000 0  0 350000 0  50000 350000 0  100000 350000 0  150000 350000 0  200000 350000 0  250000 350000 0  300000 350000 0  350000 350000 0  400000 350000 0  450000 350000 0  500000 350000 0  550000 350000 0  600000 350000 0  650000 350000 0  700000 350000 0  750000 350000 0  800000 350000 0  850000 350000 0  900000 350000 0  950000 350000 0  1000000 350000 0  0 400000 0  50000 400000 0  100000 400000 0  150000 400000 0  200000 400000 0  250000 400000 0  300000 400000 0  350000 400000 0  400000 400000 0  450000 400000 0  500000 400000 0  550000 400000 0  600000 400000 0  650000 400000 0  700000 400000 0  750000 400000 0  800000 400000 0  850000 400000 0  900000 400000 0  950000 400000 0  1000000 400000 0  0 450000 0  50000 450000 0  100000 450000 0  150000 450000 0  200000 450000 0  250000 450000 0  300000 450000 0  350000 450000 0  400000 450000 0  450000 450000 0  500000 450000 0  550000 450000 0  600000 450000 0  650000 450000 0  700000 450000 0  750000 450000 0  800000 450000 0  850000 450000 0  900000 450000 0  950000 450000 0  1000000 450000 0  0 500000 0  50000 500000 0  100000 500000 0  150000 500000 0  200000 500000 0  250000 500000 0  300000 500000 0  350000 500000 0  400000 500000 0  450000 500000 0  500000 500000 0  550000 500000 0  600000 500000 0  650000 500000 0  700000 500000 0  750000 500000 0  800000 500000 0  850000 500000 0  900000 500000 0  950000 500000 0  1000000 500000 0  0 550000 0  50000 550000 0  100000 550000 0  150000 550000 0  200000 550000 0  250000 550000 0  300000 550000 0  350000 550000 0  400000 550000 0  450000 550000 0  500000 550000 0  550000 550000 0  600000 550000 0  650000 550000 0  700000 550000 0  750000 550000 0  800000 550000 0  850000 550000 0  900000 550000 0  950000 550000 0  1000000 550000 0  0 600000 0  50000 600000 0  100000 600000 0  150000 600000 0  200000 600000 0  250000 600000 0  300000 600000 0  350000 600000 0  400000 600000 0  450000 600000 0  500000 600000 0  550000 600000 0  600000 600000 0  650000 600000 0  700000 600000 0  750000 600000 0  800000 600000 0  850000 600000 0  900000 600000 0  950000 600000 0  1000000 600000 0  0 650000 0  50000 650000 0  100000 650000 0  150000 650000 0  200000 650000 0  250000 650000 0  300000 650000 0  350000 650000 0  400000 650000 0  450000 650000 0  500000 650000 0  550000 650000 0  600000 650000 0  650000 650000 0  700000 650000 0  750000 650000 0  800000 650000 0  850000 650000 0  900000 650000 0  950000 650000 0  1000000 650000 0  0 700000 0  50000 700000 0  100000 700000 0  150000 700000 0  200000 700000 0  250000 700000 0  300000 700000 0  350000 700000 0  400000 700000 0  450000 700000 0  500000 700000 0  550000 700000 0  600000 700000 0  650000 700000 0  700000 700000 0  750000 700000 0  800000 700000 0  850000 700000 0  900000 700000 0  950000 700000 0  1000000 700000 0  0 750000 0  50000 750000 0  100000 750000 0  150000 750000 0  200000 750000 0  250000 750000 0  300000 750000 0  350000 750000 0  400000 750000 0  450000 750000 0  500000 750000 0  550000 750000 0  600000 750000 0  650000 750000 0  700000 750000 0  750000 750000 0  800000 750000 0  850000 750000 0  900000 750000 0  950000 750000 0  1000000 750000 0  0 800000 0  50000 800000 0  100000 800000 0  150000 800000 0  200000 800000 0  250000 800000 0  300000 800000 0  350000 800000 0  400000 800000 0  450000 800000 0  500000 800000 0  550000 800000 0  600000 800000 0  650000 800000 0  700000 800000 0  750000 800000 0  800000 800000 0  850000 800000 0  900000 800000 0  950000 800000 0  1000000 800000 0  0 850000 0  50000 850000 0  100000 850000 0  150000 850000 0  200000 850000 0  250000 850000 0  300000 850000 0  350000 850000 0  400000 850000 0  450000 850000 0  500000 850000 0  550000 850000 0  600000 850000 0  650000 850000 0  700000 850000 0  750000 850000 0  800000 850000 0  850000 850000 0  900000 850000 0  950000 850000 0  1000000 850000 0  0 900000 0  50000 900000 0  100000 900000 0  150000 900000 0  200000 900000 0  250000 900000 0  300000 900000 0  350000 900000 0  400000 900000 0  450000 900000 0  500000 900000 0  550000 900000 0  600000 900000 0  650000 900000 0  700000 900000 0  750000 900000 0  800000 900000 0  850000 900000 0  900000 900000 0  950000 900000 0  1000000 900000 0  0 950000 0  50000 950000 0  100000 950000 0  150000 950000 0  200000 950000 0  250000 950000 0  300000 950000 0  350000 950000 0  400000 950000 0  450000 950000 0  500000 950000 0  550000 950000 0  600000 950000 0  650000 950000 0  700000 950000 0  750000 950000 0  800000 950000 0  850000 950000 0  900000 950000 0  950000 950000 0  1000000 950000 0  0 1000000 0  50000 1000000 0  100000 1000000 0  150000 1000000 0  200000 1000000 0  250000 1000000 0  300000 1000000 0  350000 1000000 0  400000 1000000 0  450000 1000000 0  500000 1000000 0  550000 1000000 0  600000 1000000 0  650000 1000000 0  700000 1000000 0  750000 1000000 0  800000 1000000 0  850000 1000000 0  900000 1000000 0  950000 1000000 0  1000000 1000000 0  0 1050000 0  50000 1050000 0  100000 1050000 0  150000 1050000 0  200000 1050000 0  250000 1050000 0  300000 1050000 0  350000 1050000 0  400000 1050000 0  450000 1050000 0  500000 1050000 0  550000 1050000 0  600000 1050000 0  650000 1050000 0  700000 1050000 0  750000 1050000 0  800000 1050000 0  850000 1050000 0  900000 1050000 0  950000 1050000 0  1000000 1050000 0  0 1100000 0  50000 1100000 0  100000 1100000 0  150000 1100000 0  200000 1100000 0  250000 1100000 0  300000 1100000 0  350000 1100000 0  400000 1100000 0  450000 1100000 0  500000 1100000 0  550000 1100000 0  600000 1100000 0  650000 1100000 0  700000 1100000 0  750000 1100000 0  800000 1100000 0  850000 1100000 0  900000 1100000 0  950000 1100000 0  1000000 1100000 0  0 1150000 0  50000 1150000 0  100000 1150000 0  150000 1150000 0  200000 1150000 0  250000 1150000 0  300000 1150000 0  350000 1150000 0  400000 1150000 0  450000 1150000 0  500000 1150000 0  550000 1150000 0  600000 1150000 0  650000 1150000 0  700000 1150000 0  750000 1150000 0  800000 1150000 0  850000 1150000 0  900000 1150000 0  950000 1150000 0  1000000 1150000 0  0 1200000 0  50000 1200000 0  100000 1200000 0  150000 1200000 0  200000 1200000 0  250000 1200000 0  300000 1200000 0  350000 1200000 0  400000 1200000 0  450000 1200000 0  500000 1200000 0  550000 1200000 0  600000 1200000 0  650000 1200000 0  700000 1200000 0  750000 1200000 0  800000 1200000 0  850000 1200000 0  900000 1200000 0  950000 1200000 0  1000000 1200000 0  0 1250000 0  50000 1250000 0  100000 1250000 0  150000 1250000 0  200000 1250000 0  250000 1250000 0  300000 1250000 0  350000 1250000 0  400000 1250000 0  450000 1250000 0  500000 1250000 0  550000 1250000 0  600000 1250000 0  650000 1250000 0  700000 1250000 0  750000 1250000 0  800000 1250000 0  850000 1250000 0  900000 1250000 0  950000 1250000 0  1000000 1250000 0  0 1300000 0  50000 1300000 0  100000 1300000 0  150000 1300000 0  200000 1300000 0  250000 1300000 0  300000 1300000 0  350000 1300000 0  400000 1300000 0  450000 1300000 0  500000 1300000 0  550000 1300000 0  600000 1300000 0  650000 1300000 0  700000 1300000 0  750000 1300000 0  800000 1300000 0  850000 1300000 0  900000 1300000 0  950000 1300000 0  1000000 1300000 0  0 1350000 0  50000 1350000 0  100000 1350000 0  150000 1350000 0  200000 1350000 0  250000 1350000 0  300000 1350000 0  350000 1350000 0  400000 1350000 0  450000 1350000 0  500000 1350000 0  550000 1350000 0  600000 1350000 0  650000 1350000 0  700000 135
[...]
<PointData  Vectors="f_4501"> 
<DataArray  type="Float64"  Name="f_4501"  NumberOfComponents="3" format="ascii">-1.1819216956470711e-09 -7.6736927537916872e-10 0.0000000000000000e+00  7.9152130676972979e-08 -6.2133437784470030e-10 0.0000000000000000e+00  7.9846617562583230e-08 -1.9229022649044895e-11 0.0000000000000000e+00  7.9817128721063961e-08 1.3463638400304504e-11 0.0000000000000000e+00  7.9882824302124236e-08 3.7001309288328080e-12 0.0000000000000000e+00  7.9905895615213507e-08 3.6505554708308909e-12 0.0000000000000000e+00  7.9919079250368154e-08 2.2375372675125184e-12 0.0000000000000000e+00  7.9927123882769116e-08 1.4509793427738735e-12 0.0000000000000000e+00  7.9931725092833778e-08 9.1908884481123720e-13 0.0000000000000000e+00  7.9933911027598955e-08 5.2036395794536349e-13 0.0000000000000000e+00  7.9934064373035203e-08 1.9657202926410252e-13 0.0000000000000000e+00  7.9932209898857620e-08 -9.2146792348274378e-14 0.0000000000000000e+00  7.9928019470203344e-08 -3.7331842385192750e-13 0.0000000000000000e+00  7.9920666968815769e-08 -6.4630087199504174e-13 0.0000000000000000e+00  7.9908281554882446e-08 -8.2151405288742440e-13 0.0000000000000000e+00  7.9887877742265081e-08 -1.4374157575668739e-12 0.0000000000000000e+00  7.9845718959076528e-08 5.2329325346398585e-12 0.0000000000000000e+00  7.9733874592876209e-08 1.1461432681782205e-11 0.0000000000000000e+00  7.9642690010406707e-08 -4.6471250900251085e-11 0.0000000000000000e+00  7.7279455234123013e-08 2.3021344040845252e-09 0.0000000000000000e+00  -3.4456494027380259e-09 2.7636617758197034e-09 0.0000000000000000e+00  -8.8168550177925071e-10 -7.4373840492436673e-10 0.0000000000000000e+00  -1.0439330961633086e-08 -1.9439341300477516e-08 0.0000000000000000e+00  2.6035185201688827e-09 -6.6384970046045861e-09 0.0000000000000000e+00  6.7241171925425644e-09 -2.8740829462470015e-09 0.0000000000000000e+00  9.8946037330403958e-09 -1.4498313579188978e-09 0.0000000000000000e+00  1.1436248538887546e-08 -8.1952685747577971e-10 0.0000000000000000e+00  1.2399813879858535e-08 -5.0854005266288020e-10 0.0000000000000000e+00  1.3001767592006603e-08 -3.2098956889345459e-10 0.0000000000000000e+00  1.3370709533013592e-08 -1.9473076575015563e-10 0.0000000000000000e+00  1.3571688435299970e-08 -9.8612290565896720e-11 0.0000000000000000e+00  1.3635330735113260e-08 -1.5138463240203317e-11 0.0000000000000000e+00  1.3570846948532393e-08 6.8351095268954630e-11 0.0000000000000000e+00  1.3368995442969041e-08 1.6452167027227553e-10 0.0000000000000000e+00  1.2998917302721195e-08 2.9081013014803153e-10 0.0000000000000000e+00  1.2397036230632536e-08 4.7791631782517868e-10 0.0000000000000000e+00  1.1436273081762269e-08 7.9031167673613945e-10 0.0000000000000000e+00  9.8582159799934266e-09 1.3958355902271163e-09 0.0000000000000000e+00  7.1507914117292063e-09 2.7971793530190147e-09 0.0000000000000000e+00  1.1340728923677253e-09 6.8628847729768288e-09 0.0000000000000000e+00  -8.4937735477148420e-09 2.0335743492037318e-08 0.0000000000000000e+00  -2.5805575699889883e-09 2.3854039469675816e-09 0.0000000000000000e+00  -1.3350795022550079e-10 -2.1618483049634963e-10 0.0000000000000000e+00  -7.7053138787585405e-09 -1.6259759750552917e-08 0.0000000000000000e+00  -1.0056649225173431e-08 -1.0433360982844581e-08 0.0000000000000000e+00  -9.1746155913137228e-09 -5.7867050888957755e-09 0.0000000000000000e+00  -7.3791888815605412e-09 -3.2155011984277094e-09 0.0000000000000000e+00  -6.2564672528634370e-09 -1.9513183836101939e-09 0.0000000000000000e+00  -5.4085165823818375e-09 -1.2299737146326337e-09 0.0000000000000000e+00  -4.8535731213280782e-09 -7.7336218436782475e-10 0.0000000000000000e+00  -4.4980085533024187e-09 -4.5544199852048046e-10 0.0000000000000000e+00  -4.3002747542351014e-09 -2.0818532021335624e-10 0.0000000000000000e+00  -4.2368803184186794e-09 8.7175370768522843e-12 0.0000000000000000e+00  -4.3004612186398726e-09 2.2567319720626587e-10 0.0000000000000000e+00  -4.4981648457111972e-09 4.7305149113344863e-10 0.0000000000000000e+00  -4.8529760618649483e-09 7.9117455265375523e-10 0.0000000000000000e+00  -5.4081872050463829e-09 1.2464665245697154e-09 0.0000000000000000e+00  -6.2338677848416893e-09 1.9664652113085837e-09 0.0000000000000000e+00  -7.4202841964836999e-09 3.2258519662425381e-09 0.0000000000000000e+00  -9.0373094266733714e-09 5.6740711771206181e-09 0.0000000000000000e+00  -1.0312797991660212e-08 1.0809399408679955e-08 0.0000000000000000e+00  -6.7997625220553881e-09 1.7224844287786012e-08 0.0000000000000000e+00  -1.6419794467691252e-10 3.0686095165666788e-10 0.0000000000000000e+00  4.1693418573048828e-12 -1.5878592209278773e-10 0.0000000000000000e+00  -3.2434390372325543e-09 -1.1080428654036660e-08 0.0000000000000000e+00  -6.4149103389236507e-09 -9.4846596709130930e-09 0.0000000000000000e+00  -7.2230126139009599e-09 -6.2860331491446372e-09 0.0000000000000000e+00  -7.0186692005256785e-09 -4.0928978426824480e-09 0.0000000000000000e+00  -6.5747709824828863e-09 -2.7015137740091146e-09 0.0000000000000000e+00  -6.1071847944722885e-09 -1.7828686076342840e-09 0.0000000000000000e+00  -5.7563122977557811e-09 -1.1571527860565201e-09 0.0000000000000000e+00  -5.5091812302766606e-09 -6.9729103029342983e-10 0.0000000000000000e+00  -5.3657636834780903e-09 -3.2800285733361563e-10 0.0000000000000000e+00  -5.3184963948188271e-09 1.0580799314699638e-12 0.0000000000000000e+00  -5.3649287351286831e-09 3.3012832367376841e-10 0.0000000000000000e+00  -5.5073890942613097e-09 6.9935289021591918e-10 0.0000000000000000e+00  -5.7521581485626744e-09 1.1591053482858968e-09 0.0000000000000000e+00  -6.1050716134590470e-09 1.7843195899526680e-09 0.0000000000000000e+00  -6.5563719284867937e-09 2.6982258679611629e-09 0.0000000000000000e+00  -7.0335298866460444e-09 4.1098874378557046e-09 0.0000000000000000e+00  -7.2435585179780982e-09 6.3384541561606553e-09 0.0000000000000000e+00  -6.2912739857296657e-09 9.5076365208848412e-09 0.0000000000000000e+00  -3.0816419188107310e-09 1.0872214081616430e-08 0.0000000000000000e+00  6.2230681591745601e-12 2.3395905068198580e-10 0.0000000000000000e+00  5.1867124215213129e-12 -1.0745063849360044e-10 0.0000000000000000e+00  -1.6933458427318618e-09 -7.7692763433929043e-09 0.0000000000000000e+00  -3.8750314428251231e-09 -7.5379924831793669e-09 0.0000000000000000e+00  -5.0755917249856695e-09 -5.7987282163221881e-09 0.0000000000000000e+00  -5.5248765693031159e-09 -4.2052923501992372e-09 0.0000000000000000e+00  -5.5488769385385807e-09 -2.9667087711392954e-09 0.0000000000000000e+00  -5.4252861943353853e-09 -2.0562395144800421e-09 0.0000000000000000e+00  -5.2777913351375462e-09 -1.3774131179706244e-09 0.0000000000000000e+00  -5.1519144248543567e-09 -8.4619346498418625e-10 0.0000000000000000e+00  -5.0722549817977120e-09 -4.0268246738046483e-10 0.0000000000000000e+00  -5.0447748632725505e-09 3.8151279741963094e-13 0.0000000000000000e+00  -5.0714413625750582e-09 4.0341300253484074e-10 0.0000000000000000e+00  -5.1504720015127964e-09 8.4678707023518865e-10 0.0000000000000000e+00  -5.2746706434698584e-09 1.3776176128564428e-09 0.0000000000000000e+00  -5.4237551365969833e-09 2.0569934626629790e-09 0.0000000000000000e+00  -5.5461154207806754e-09 2.9660493130378606e-09 0.0000000000000000e+00  -5.5193751919031609e-09 4.2001300986090698e-09 0.0000000000000000e+00  -5.0856494020139291e-09 5.8089779691640986e-09 0.0000000000000000e+00  -3.8414700972207794e-09 7.5472815717563416e-09 0.0000000000000000e+00  -1.6599966813015676e-09 7.7338697658651593e-09 0.0000000000000000e+00  -8.5520888141884912e-12 1.5068989493978184e-10 0.0000000000000000e+00  4.0934276067265084e-12 -7.6252402985227853e-11 0.0000000000000000e+00  -1.0354741126066772e-09 -5.8082053436019349e-09 0.0000000000000000e+00  -2.5622255789652205e-09 -5.9952900884048873e-09 0.0000000000000000e+00  -3.6699238637974914e-09 -4.9877755950894259e-09 0.0000000000000000e+00  -4.2917606220270449e-09 -3.8795834753384623e-09 0.0000000000000000e+00  -4.5745104092522706e-09 -2.9054071119255606e-09 0.0000000000000000e+00  -4.6739863819562196e-09 -2.1045824458514904e-09 0.0000000000000000e+00  -4.6833680095148405e-09 -1.4518699628126057e-09 0.0000000000000000e+00  -4.6618480160178266e-09 -9.0939215826778165e-10 0.0000000000000000e+00  -4.6398761904218167e-09 -4.3758349616599117e-10 0.0000000000000000e+00  -4.6309422682198210e-09 2.2554601088977258e-13 0.0000000000000000e+00  -4.6393207896192248e-09 4.3799067361607696e-10 0.0000000000000000e+00  -4.6609486055394148e-09 9.0972084523422423e-10 0.0000000000000000e+00  -4.6819348434994085e-09 1.4519146833229241e-09 0.0000000000000000e+00  -4.6723796353257579e-09 2.1045196544780977e-09 0.0000000000000000e+00  -4.5749090440070049e-09 2.9067867406555419e-09 0.0000000000000000e+00  -4.2889431181732057e-09 3.8794836064204972e-09 0.0000000000000000e+00  -3.6655512419378838e-09 4.9776543272781665e-09 0.0000000000000000e+00  -2.5560372427359660e-09 5.9846279460921961e-09 0.0000000000000000e+00  -1.0298747395935997e-09 5.8090522037494180e-09 0.0000000000000000e+00  1.5768850285431578e-12 9.8287173553081554e-11 0.0000000000000000e+00  3.0934252617874592e-12 -5.7861018121786358e-11 0.0000000000000000e+00  -7.1368169173936235e-10 -4.4995335597451082e-09 0.0000000000000000e+00  -1.8337622784841025e-09 -4.7798506034763142e-09 0.0000000000000000e+00  -2.7573358478228650e-09 -4.1646620191470484e-09 0.0000000000000000e+00  -3.3899544368272522e-09 -3.4084409240942531e-09 0.0000000000000000e+00  -3.7795233707713067e-09 -2.6684306794517453e-09 0.0000000000000000e+00  -3.9988538791147340e-09 -2.0005339582587680e-09 0.0000000000000000e+00  -4.1123341310849301e-09 -1.4160695132324170e-09 0.0000000000000000e+00  -4.1665554403590701e-09 -9.0283454102816827e-10 0.0000000000000000e+00  -4.1891649070248098e-09 -4.3891716288935339e-10 0.0000000000000000e+00  -4.1950507657009751e-09 5.8654562255755856e-14 0.0000000000000000e+00  -4.1888463623236868e-09 4.3899613710021037e-10 0.0000000000000000e+00  -4.1659816012974144e-09 9.0284107687412956e-10 0.0000000000000000e+00  -4.1117018384611150e-09 1.4159961176723218e-09 0.0000000000000000e+00  -3.9978556999066113e-09 2.0000422406032633e-09 0.0000000000000000e+00  -3.7786610197471833e-09 2.6672089772319682e-09 0.0000000000000000e+00  -3.3890487178389374e-09 3.4064186712956854e-09 0.0000000000000000e+00  -2.7554424218311196e-09 4.1601977564601456e-09 0.0000000000000000e+00  -1.8321792940068392e-09 4.7777637182361692e-09 0.0000000000000000e+00  -7.1252573098580741e-10 4.5002262240540440e-09 0.0000000000000000e+00  1.6092672715413948e-12 7.2735386272699009e-11 0.0000000000000000e+00  2.3678365140060428e-12 -4.4881188655709747e-11 0.0000000000000000e+00  -5.2978126028653778e-10 -3.5469396207770987e-09 0.0000000000000000e+00  -1.3894658284098077e-09 -3.8330252193336611e-09 0.0000000000000000e+00  -2.1529260216094933e-09 -3.4377803546239584e-09 0.0000000000000000e+00  -2.7378061437320597e-09 -2.9082858483988757e-09 0.0000000000000000e+00  -3.1510876020444693e-09 -2.3492480121606342e-09 0.0000000000000000e+00  -3.4254222158547778e-09 -1.8094003931484697e-09 0.0000000000000000e+00  -3.5982456301699284e-09 -1.3082181682906997e-09 0.0000000000000000e+00  -3.7003872595477895e-09 -8.4655953589315821e-10 0.0000000000000000e+00  -3.7533621271734748e-09 -4.1522931830431210e-10 0.0000000000000000e+00  -3.7696340059846749e-09 -7.4110665968191607e-14 0.0000000000000000e+00  -3.7531837656476437e-09 4.1505559856806972e-10 0.0000000000000000e+00  -3.7000296695055740e-09 8.4629626543070961e-10 0.0000000000000000e+00  -3.5978056315986595e-09 1.3078288794232235e-09 0.0000000000000000e+00  -3.4248951522245142e-09 1.8087722383934366e-09 0.0000000000000000e+00  -3.1503380589669711e-09 2.3478226070096442e-09 0.0000000000000000e+00  -2.7370569867920940e-09 2.9053040182339512e-09 0.0000000000000000e+00  -2.1526263283651505e-09 3.4337900783577805e-09 0.0000000000000000e+00  -1.3899796317752235e-09 3.8335488982247760e-09 0.0000000000000000e+00  -5.2953271361527735e-10 3.5494157012885044e-09 0.0000000000000000e+00  1.5255667245242143e-12 5.5418169318555361e-11 0.0000000000000000e+00  1.8972463224443537e-12 -3.5133834036313580e-11 0.0000000000000000e+00  -4.1435249434471385e-10 -2.8153322541484563e-09 0.0000000000000000e+00  -1.1007617817824608e-09 -3.0745693225163218e-09 0.0000000000000000e+00  -1.7382370964239420e-09 -2.8079739018011653e-09 0.0000000000000000e+00  -2.2606971875065463e-09 -2.4287929528035280e-09 0.0000000000000000e+00  -2.6615462966813020e-09 -2.0067704782207615e-09 0.0000000000000000e+00  -2.9527023396367730e-09 -1.5772739047615003e-09 0.0000000000000000e+00  -3.1532270765510073e-09 -1.1592169304237494e-09 0.0000000000000000e+00  -3.2817838435871324e-09 -7.5913342572321952e-10 0.0000000000000000e+00  -3.3529362556135118e-09 -3.7508880783081983e-10 0.0000000000000000e+00  -3.3756213904379815e-09 -1.7081906419921284e-13 0.0000000000000000e+00  -3.3528231050715152e-09 3.7472479710009337e-10 0.0000000000000000e+00  -3.2815635727850344e-09 7.5868730317899712e-10 0.0000000000000000e+00  -3.1529100420172001e-09 1.1585876721845803e-09 0.0000000000000000e+00  -2.9523312894695349e-09 1.5763269437665223e-09 0.0000000000000000e+00  -2.6611728509513143e-09 2.0052982096847447e-09 0.0000000000000000e+00  -2.2604711135058263e-09 2.4265335550085821e-09 0.0000000000000000e+00  -1.7384919214960055e-09 2.8054667729405598e-09 0.0000000000000000e+00  -1.1016608044972054e-09 3.0760123871761560e-09 0.0000000000000000e+00  -4.1438106751091162e-10 2.8177355161705249e-09 0.0000000000000000e+00  1.3927974285251443e-12 4.3096342443483282e-11 0.0000000000000000e+00  1.5723627548949913e-12 -2.7420570699244856e-11 0.0000000000000000e+00  -3.3740939724156740e-10 -2.2283416079945541e-09 0.0000000000000000e+00  -9.0382690988661686e-10 -2.4500163041254233e-09 0.0000000000000000e+00  -1.4450206481269083e-09 -2.2644318347299191e-09 0.0000000000000000e+00  -1.9082311850473862e-09 -1.9884883411216069e-09 0.0000000000000000e+00  -2.2827981730069144e-09 -1.6693049337612803e-09 0.0000000000000000e+00  -2.5704307329770556e-09 -1.3315518305155189e-09 0.0000000000000000e+00  -2.7793830299107650e-09 -9.9083430650931596e-10 0.0000000000000000e+00  -2.9196744195090368e-09 -6.5492063160242376e-10 0.0000000000000000e+00  -3.0000105459098177e-09 -3.2548112296203629e-10 0.0000000000000000e+00  -3.0261043250276533e-09 -2.3950522065314379e-13 0.0000000000000000e+00  -2.9999339053016152e-09 3.2497743732043244e-10 0.0000000000000000e+00  -2.9195306208467629e-09 6.5433884252897469e-10 0.0000000000000000e+00  -2.7791849601566147e-09 9.9009741831028260e-10 0.0000000000000000e+00  -2.5702108484253747e-09 1.3305409002779802e-09 0.0000000000000000e+00  -2.2826482322952934e-09 1.6678939222897830e-09 0.0000000000000000e+00  -1.9083101973848611e-09 1.9866752323870531e-09 0.0000000000000000e+00  -1.4454905890658272e-09 2.2628316792618709e-09 0.0000000000000000e+00  -9.0470386454875999e-10 2.4518230010214200e-09 0.0000000000000000e+00  -3.3749984858279469e-10 2.2305212204858296e-09 0.0000000000000000e+00  1.2419550443135732e-12 3.3740954315240786e-11 0.0000000000000000e+00  1.3428190106019201e-12 -2.1063607743045740e-11 0.0000000000000000e+00  -2.8415476072658129e-10 -1.7405861223271405e-09 0.0000000000000000e+00  -7.6545826648830046e-10 -1.9223220502431231e-09 0.0000000000000000e+00  -1.2339606838968031e-09 -1.7909564691489422e-09 0.0000000000000000e+00  -1.6465544231866185e-09 -1.5889937713971057e-09 0.0000000000000000e+00  -1.9919392967574303e-09 -1.3488835031747753e-09 0.0000000000000000e+00  -2.2670454010218933e-09 -1.0875038668124005e-09 0.0000000000000000e+00  -2.4739551461455146e-09 -8.1669393928180826e-10 0.0000000000000000e+00  -2.6170148025552243e-09 -5.4360519795739987e-10 0.0000000000000000e+00  -2.7006976528388583e-09 -2.7136926139626575e-10 0.0000000000000000e+00  -2.7281940386724012e-09 -2.8905245476157196e-13 0.0000000000000000e+00  -2.7006478675394301e-09 2.7076869600909812e-10 0.0000000000000000e+00  -2.6169229783943007e-09 5.4293411448504536e-10 0.0000000000000000e+00  -2.4738416872700787e-09 8.1589705298111730e-10 0.0000000000000000e+00  -2.2669495537619973e-09 1.0865188345131316e-09 0.0000000000000000e+00  -1.9919382492690564e-09 1.3476623202348348e-09 0.0000000000000000e+00  -1.6467601974756969e-09 1.5875958988394663e-09 0.0000000000000000e+00  -1.2344451561500334e-09 1.7899152481343223e-09 0.0000000000000000e+00  -7.6620265437729982e-10 1.9241954436528159e-09 0.0000000000000000e+00  -2.8424999186542854e-10 1.7425321950674102e-09 0.0000000000000000e+00  1.1199613964873850e-12 2.6281325697518346e-11 0.0000000000000000e+00  1.1780764880924824e-12 -1.5638147848862480e-11 0.0000000000000000e+00  -2.4673432755206562e-10 -1.3225541521750630e-09 0.0000000000000000e+00  -6.6724072968905754e-10 -1.4650194490570284e-09 0.0000000000000000e+00  -1.0816234887944834e-09 -1.3723220378066140e-09 0.0000000000000000e+00  -1.4535388322956176e-09 -1.2261565692422185e-09 0.0000000000000000e+00  -1.7721448796423117e-09 -1.0489642382129918e-09 0.0000000000000000e+00  -2.0322031422385670e-09 -8.5211294929090932e-10 0.0000000000000000e+00  -2.2323726616643933e-09 -6.4416418617601788e-10 0.0000000000000000e+00  -2.3734980516558902e-09 -4.3097178043026542e-10 0.0000000000000000e+00  -2.4572213062679978e-09 -2.1587244007355258e-10 0.0000000000000000e+00  -2.4849405225390033e-09 -3.2283838070169910e-13 0.0000000000000000e+00  -2.4571910178155941e-09 2.1520900817417218e-10 0.0000000000000000e+00  -2.3734454511165612e-09 4.3025407387380781e-10 0.0000000000000000e+00  -2.2323177188315757e-09 6.4335525523030135e-10 0.0000000000000000e+00  -2.0321823250729940e-09 8.5118291848382677e-10 0.0000000000000000e+00  -1.7722171248070386e-09 1.0479095999776798e-09 0.0000000000000000e+00  -1.4537734775484141e-09 1.2250587943286036e-09 0.0000000000000000e+00  -1.0820435464324867e-09 1.3716276918231412e-09 0.0000000000000000e+00  -6.6782647790442942e-10 1.4668583527759990e-09 0.0000000000000000e+00  -2.4681562014131880e-10 1.3243005758999817e-09 0.0000000000000000e+00  1.0257168171830929e-12 2.0099280120943068e-11 0.0000000000000000e+00  1.0601728754463271e-12 -1.0851434852910903e-11 0.0000000000000000e+00  -2.2072525942610276e-10 -9.5358342170888945e-10 0.0000000000000000e+00  -5.9851028196628921e-10 -1.0583936599822606e-09 0.0000000000000000e+00  -9.7379332566279194e-10 -9.9512135336619681e-10 0.0000000000000000e+00  -1.3148460958690367e-09 -8.9334927379301858e-10 0.0000000000000000e+00  -1.6115019355375426e-09 -7.6828080343065270e-10 0.0000000000000000e+00  -1.8575963229535092e-09 -6.2735824710214659e-10 0.0000000000000000e+00  -2.0499472590434580e-09 -4.7645642023875659e-10 0.0000000000000000e+00  -2.1873281242990715e-09 -3.1993736171820433e-10 0.0000000000000000e+00  -2.2695956196729200e-09 -1.6066727671981125e-10 0.0000000000000000e+00  -2.2969701030579281e-09 -3.4413781537815266e-13 0.0000000000000000e+00  -2.2695787635372272e-09 1.5996591017247835e-10 0.0000000000000000e+00  -2.1873018125006469e-09 3.1919775699126085e-10 0.0000000000000000e+00  -2.0499282370095698e-09 4.7565780926405136e-10 0.0000000000000000e+00  -1.8576124299234192e-09 6.2649122129788395e-10 0.0000000000000000e+00  -1.6115931865927051e-09 7.6736053950124954e-10 0.0000000000000000e+00  -1.3150530543960068e-09 8.9245664948980503e-10 0.0000000000000000e+00  -9.7411819816758297e-10 9.9463744557811145e-10 0.0000000000000000e+00  -5.9893941097694307e-10 1.0601691524102128e-09 0.0000000000000000e+00  -2.2078703814832618e-10 9.5517729130413433e-10 0.0000000000000000e+00  9.5812571060425130e-13 1.4795293112909695e-11 0.0000000000000000e+00  9.7830298925448349e-13 -6.4847482229447502e-12 0.0000000000000000e+00  -2.0356328163052025e-10 -6.1813555244076682e-10 0.0000000000000000e+00  -5.5296408012794457e-10 -6.8692359043763718e-10 0.0000000000000000e+00  -9.0178288580467105e-10 -6.4758443037750800e-10 0.0000000000000000e+00  -1.2212858656323785e-09 -5.8315391498014732e-10 0.0000000000000000e+00  -1.5018821437708331e-09 -5.0322713323196398e-10 0.000000000000000