<?xml version="1.0"?>
<VTKFile type="UnstructuredGrid"  version="0.1"  >
<UnstructuredGrid>
<Piece  NumberOfPoints="651" NumberOfCells="1200">
<Points>
<DataArray  type="Float64"  NumberOfComponents="3"  format="ascii">0 0 0  50000 0 0  100000 0 0  150000 0 0  200000 0 0  250000 0 0  300000 0 0  350000 0 0  400000 0 0  450000 0 0  500000 0 0  550000 0 0  600000 0 0  650000 0 0  700000 0 0  750000 0 0  800000 0 0  850000 0 0  900000 0 0  950000 0 0  1000000 0 0  0 50000 0  50000 50000 0  100000 50000 0  150000 50000 0  200000 50000 0  250000 50000 0  300000 50000 0  350000 50000 0  400000 50000 0  450000 50000 0  500000 50000 0  550000 50000 0  600000 50000 0  650000 50000 0  700000 50000 0  750000 50000 0  800000 50000 0  850000 50000 0  900000 50000 0  950000 50000 0  1000000 50000 0  0 100000 0  50000 100000 0  100000 100000 0  150000 100000 0  200000 100000 0  250000 100000 0  300000 100000 0  350000 100000 0  400000 100000 0  450000 100000 0  500000 100000 0  550000 100000 0  600000 100000 0  650000 100000 0  700000 100000 0  750000 100000 0  800000 100000 0  850000 100000 0  900000 100000 0  950000 100000 0  1000000 100000 0  0 150000 0  50000 150000 0  100000 150000 0  150000 150000 0  200000 150000 0  250000 150000 0  300000 150000 0  350000 150000 0  400000 150000 0  450000 150000 0  500000 150000 0  550000 150000 0  600000 150000 0  650000 150000 0  700000 150000 0  750000 150000 0  800000 150000 0  850000 150000 0  900000 150000 0  950000 150000 0  1000000 150000 0  0 200000 0  50000 200000 0  100000 200000 0  150000 200000 0  200000 200000 0  250000 200000 0  300000 200000 0  350000 200000 0  400000 200000 0  450000 200000 0  500000 200000 0  550000 200000 0  600000 200000 0  650000 200000 0  700000 200000 0  750000 200000 0  800000 200000 0  850000 200000 0  900000 200000 0  950000 200000 0  1000000 200000 0  0 250000 0  50000 250000 0  100000 250000 0  150000 250000 0  200000 250000 0  250000 250000 0  300000 250000 0  350000 250000 0  400000 250000 0  450000 250000 0  500000 250000 0  550000 250000 0  600000 250000 0  650000 250000 0  700000 250000 0  750000 250000 0  800000 250000 0  850000 250000 0  900000 250000 0  950000 250000 0  1000000 250000 0  0 300000 0  50000 300000 0  100000 300000 0  150000 300000 0  200000 300000 0  250000 300000 0  300000 300000 0  350000 300000 0  400000 300000 0  450000 300000 0  500000 300000 0  550000 300000 0  600000 300000 0  650000 300000 0  700000 300000 0  750000 300000 0  800000 300000 0  850000 300000 0  900000 300000 0  950000 300000 0  1000000 300000 0  0 350000 0  50000 350000 0  100000 350000 0  150000 350000 0  200000 350000 0  250000 350000 0  300000 350000 0  350000 350000 0  400000 350000 0  450000 350000 0  500000 350000 0  550000 350000 0  600000 350000 0  650000 350000 0  700000 350000 0  750000 350000 0  800000 350000 0  850000 350000 0  900000 350000 0  950000 350000 0  1000000 350000 0  0 400000 0  50000 400000 0  100000 400000 0  150000 400000 0  200000 400000 0  250000 400000 0  300000 400000 0  350000 400000 0  400000 400000 0  450000 400000 0  500000 400000 0  550000 400000 0  600000 400000 0  650000 400000 0  700000 400000 0  750000 400000 0  800000 400000 0  850000 400000 0  900000 400000 0  950000 400000 0  1000000 400000 0  0 450000 0  50000 450000 0  100000 450000 0  150000 450000 0  200000 450000 0  250000 450000 0  300000 450000 0  350000 450000 0  400000 450000 0  450000 450000 0  500000 450000 0  550000 450000 0  600000 450000 0  650000 450000 0  700000 450000 0  750000 450000 0  800000 450000 0  850000 450000 0  900000 450000 0  950000 450000 0  1000000 450000 0  0 500000 0  50000 500000 0  100000 500000 0  150000 500000 0  200000 500000 0  250000 500000 0  300000 500000 0  350000 500000 0  400000 500000 0  450000 500000 0  500000 500000 0  550000 500000 0  600000 500000 0  650000 500000 0  700000 500000 0  750000 500000 0  800000 500000 0  850000 500000 0  900000 500000 0  950000 500000 0  1000000 500000 0  0 550000 0  50000 550000 0  100000 550000 0  150000 550000 0  200000 550000 0  250000 550000 0  300000 550000 0  350000 550000 0  400000 550000 0  450000 550000 0  500000 550000 0  550000 550000 0  600000 550000 0  650000 550000 0  700000 550000 0  750000 550000 0  800000 550000 0  850000 550000 0  900000 550000 0  950000 550000 0  1000000 550000 0  0 600000 0  50000 600000 0  100000 600000 0  150000 600000 0  200000 600000 0  250000 600000 0  300000 600000 0  350000 600000 0  400000 600000 0  450000 600000 0  500000 600000 0  550000 600000 0  600000 600000 0  650000 600000 0  700000 600000 0  750000 600000 0  800000 600000 0  850000 600000 0  900000 600000 0  950000 600000 0  1000000 600000 0  0 650000 0  50000 650000 0  100000 650000 0  150000 650000 0  200000 650000 0  250000 650000 0  300000 650000 0  350000 650000 0  400000 650000 0  450000 650000 0  500000 650000 0  550000 650000 0  600000 650000 0  650000 650000 0  700000 650000 0  750000 650000 0  800000 650000 0  850000 650000 0  900000 650000 0  950000 650000 0  1000000 650000 0  0 700000 0  50000 700000 0  100000 700000 0  150000 700000 0  200000 700000 0  250000 700000 0  300000 700000 0  350000 700000 0  400000 700000 0  450000 700000 0  500000 700000 0  550000 700000 0  600000 700000 0  650000 700000 0  700000 700000 0  750000 700000 0  800000 700000 0  850000 700000 0  900000 700000 0  950000 700000 0  1000000 700000 0  0 750000 0  50000 750000 0  100000 750000 0  150000 750000 0  200000 750000 0  250000 750000 0  300000 750000 0  350000 750000 0  400000 750000 0  450000 750000 0  500000 750000 0  550000 750000 0  600000 750000 0  650000 750000 0  700000 750000 0  750000 750000 0  800000 750000 0  850000 750000 0  900000 750000 0  950000 750000 0  1000000 750000 0  0 800000 0  50000 800000 0  100000 800000 0  150000 800000 0  200000 800000 0  250000 800000 0  300000 800000 0  350000 800000 0  400000 800000 0  450000 800000 0  500000 800000 0  550000 800000 0  600000 800000 0  650000 800000 0  700000 800000 0  750000 800000 0  800000 800000 0  850000 800000 0  900000 800000 0  950000 800000 0  1000000 800000 0  0 850000 0  50000 850000 0  100000 850000 0  150000 850000 0  200000 850000 0  250000 850000 0  300000 850000 0  350000 850000 0  400000 850000 0  450000 850000 0  500000 850000 0  550000 850000 0  600000 850000 0  650000 850000 0  700000 850000 0  750000 850000 0  800000 850000 0  850000 850000 0  900000 850000 0  950000 850000 0  1000000 850000 0  0 900000 0  50000 900000 0  100000 900000 0  150000 900000 0  200000 900000 0  250000 900000 0  300000 900000 0  350000 900000 0  400000 900000 0  450000 900000 0  500000 900000 0  550000 900000 0  600000 900000 0  650000 900000 0  700000 900000 0  750000 900000 0  800000 900000 0  850000 900000 0  900000 900000 0  950000 900000 0  1000000 900000 0  0 950000 0  50000 950000 0  100000 950000 0  150000 950000 0  200000 950000 0  250000 950000 0  300000 950000 0  350000 950000 0  400000 950000 0  450000 950000 0  500000 950000 0  550000 950000 0  600000 950000 0  650000 950000 0  700000 950000 0  750000 950000 0  800000 950000 0  850000 950000 0  900000 950000 0  950000 950000 0  1000000 950000 0  0 1000000 0  50000 1000000 0  100000 1000000 0  150000 1000000 0  200000 1000000 0  250000 1000000 0  300000 1000000 0  350000 1000000 0  400000 1000000 0  450000 1000000 0  500000 1000000 0  550000 1000000 0  600000 1000000 0  650000 1000000 0  700000 1000000 0  750000 1000000 0  800000 1000000 0  850000 1000000 0  900000 1000000 0  950000 1000000 0  1000000 1000000 0  0 1050000 0  50000 1050000 0  100000 1050000 0  150000 1050000 0  200000 1050000 0  250000 1050000 0  300000 1050000 0  350000 1050000 0  400000 1050000 0  450000 1050000 0  500000 1050000 0  550000 1050000 0  600000 1050000 0  650000 1050000 0  700000 1050000 0  750000 1050000 0  800000 1050000 0  850000 1050000 0  900000 1050000 0  950000 1050000 0  1000000 1050000 0  0 1100000 0  50000 1100000 0  100000 1100000 0  150000 1100000 0  200000 1100000 0  250000 1100000 0  300000 1100000 0  350000 1100000 0  400000 1100000 0  450000 1100000 0  500000 1100000 0  550000 1100000 0  600000 1100000 0  650000 1100000 0  700000 1100000 0  750000 1100000 0  800000 1100000 0  850000 1100000 0  900000 1100000 0  950000 1100000 0  1000000 1100000 0  0 1150000 0  50000 1150000 0  100000 1150000 0  150000 1150000 0  200000 1150000 0  250000 1150000 0  300000 1150000 0  350000 1150000 0  400000 1150000 0  450000 1150000 0  500000 1150000 0  550000 1150000 0  600000 1150000 0  650000 1150000 0  700000 1150000 0  750000 1150000 0  800000 1150000 0  850000 1150000 0  900000 1150000 0  950000 1150000 0  1000000 1150000 0  0 1200000 0  50000 1200000 0  100000 1200000 0  150000 1200000 0  200000 1200000 0  250000 1200000 0  300000 1200000 0  350000 1200000 0  400000 1200000 0  450000 1200000 0  500000 1200000 0  550000 1200000 0  600000 1200000 0  650000 1200000 0  700000 1200000 0  750000 1200000 0  800000 1200000 0  850000 1200000 0  900000 1200000 0  950000 1200000 0  1000000 1200000 0  0 1250000 0  50000 1250000 0  100000 1250000 0  150000 1250000 0  200000 1250000 0  250000 1250000 0  300000 1250000 0  350000 1250000 0  400000 1250000 0  450000 1250000 0  500000 1250000 0  550000 1250000 0  600000 1250000 0  650000 1250000 0  700000 1250000 0  750000 1250000 0  800000 1250000 0  850000 1250000 0  900000 1250000 0  950000 1250000 0  1000000 1250000 0  0 1300000 0  50000 1300000 0  100000 1300000 0  150000 1300000 0  200000 1300000 0  250000 1300000 0  300000 1300000 0  350000 1300000 0  400000 1300000 0  450000 1300000 0  500000 1300000 0  550000 1300000 0  600000 1300000 0  650000 1300000 0  700000 1300000 0  750000 1300000 0  800000 1300000 0  850000 1300000 0  900000 1300000 0  950000 1300000 0  1000000 1300000 0  0 1350000 0  50000 1350000 0  100000 1350000 0  150000 1350000 0  200000 1350000 0  250000 1350000 0  300000 1350000 0  350000 1350000 0  400000 1350000 0  450000 1350000 0  500000 1350000 0  550000 1350000 0  600000 1350000 0  650000 1350000 0  700000 135
[...]
<PointData  Vectors="f_4501"> 
<DataArray  type="Float64"  Name="f_4501"  NumberOfComponents="3" format="ascii">-1.1891491006821253e-09 -8.1020327269770093e-10 0.0000000000000000e+00  7.9132038011149907e-08 -6.5633078680994421e-10 0.0000000000000000e+00  7.9815327121394749e-08 -4.1640875193329647e-11 0.0000000000000000e+00  7.9788089044854409e-08 1.9774490941775493e-12 0.0000000000000000e+00  7.9857706930220720e-08 -2.1384082215570160e-12 0.0000000000000000e+00  7.9883994395634499e-08 4.1434811028493135e-13 0.0000000000000000e+00  7.9899364352088888e-08 3.4275494335994502e-13 0.0000000000000000e+00  7.9908851605946969e-08 3.2316190245376282e-13 0.0000000000000000e+00  7.9914331159014838e-08 3.1443565117668076e-13 0.0000000000000000e+00  7.9916944049362918e-08 3.2474600327100588e-13 0.0000000000000000e+00  7.9917129947441429e-08 3.7452718399102342e-13 0.0000000000000000e+00  7.9914918168804870e-08 4.8459384137891520e-13 0.0000000000000000e+00  7.9909938808746614e-08 6.9612857872189823e-13 0.0000000000000000e+00  7.9901269032999522e-08 1.1165527604727963e-12 0.0000000000000000e+00  7.9886891932185521e-08 2.0281809732536696e-12 0.0000000000000000e+00  7.9863548889191942e-08 3.4044216227242871e-12 0.0000000000000000e+00  7.9818138551222842e-08 1.3563633305742165e-11 0.0000000000000000e+00  7.9703845017125078e-08 3.0438991811342501e-11 0.0000000000000000e+00  7.9621382399328076e-08 -1.1701964609624249e-11 0.0000000000000000e+00  7.7276511252264263e-08 2.3467085002360261e-09 0.0000000000000000e+00  -3.4340937503093412e-09 2.8297157319020313e-09 0.0000000000000000e+00  -8.9320125762594739e-10 -7.7423701358899112e-10 0.0000000000000000e+00  -1.2399429760030183e-08 -1.6269001661433489e-08 0.0000000000000000e+00  -2.0773237873181139e-09 -5.1944113617484533e-09 0.0000000000000000e+00  7.7172790870531901e-10 -2.3323214856226610e-09 0.0000000000000000e+00  3.3069150540882976e-09 -1.2249209253799361e-09 0.0000000000000000e+00  4.5336682337445894e-09 -7.0923894908590276e-10 0.0000000000000000e+00  5.3138148593111513e-09 -4.4789587326693575e-10 0.0000000000000000e+00  5.8053834469123667e-09 -2.8783662463614555e-10 0.0000000000000000e+00  6.1081240767223971e-09 -1.7868250336238043e-10 0.0000000000000000e+00  6.2734282889037172e-09 -9.4943606679277770e-11 0.0000000000000000e+00  6.3256983361473284e-09 -2.1887720978867388e-11 0.0000000000000000e+00  6.2722630319427409e-09 5.1248123991689672e-11 0.0000000000000000e+00  6.1057125542589110e-09 1.3524687965283166e-10 0.0000000000000000e+00  5.8014797043897251e-09 2.4483856455216216e-10 0.0000000000000000e+00  5.3093568477537350e-09 4.0548977537080376e-10 0.0000000000000000e+00  4.5303818707957706e-09 6.6955488383679947e-10 0.0000000000000000e+00  3.2678169492899563e-09 1.1679458362589640e-09 0.0000000000000000e+00  1.1632466946832049e-09 2.2735134818211834e-09 0.0000000000000000e+00  -3.4560959431593413e-09 5.3269550760347877e-09 0.0000000000000000e+00  -1.0385230959985556e-08 1.7198046612559468e-08 0.0000000000000000e+00  -2.5869119383916140e-09 2.4313240045384404e-09 0.0000000000000000e+00  -1.4582615759554414e-10 -2.3897292157626590e-10 0.0000000000000000e+00  -6.4674354963267969e-09 -1.2777748045260338e-08 0.0000000000000000e+00  -8.1811271818735195e-09 -7.9821776195148172e-09 0.0000000000000000e+00  -7.7002426555126888e-09 -4.4977028029742093e-09 0.0000000000000000e+00  -6.3567109855782764e-09 -2.5382389830118818e-09 0.0000000000000000e+00  -5.5460179607874042e-09 -1.5572641375778070e-09 0.0000000000000000e+00  -4.9123879332147327e-09 -9.8774419411301766e-10 0.0000000000000000e+00  -4.4941218617492721e-09 -6.2165385251522929e-10 0.0000000000000000e+00  -4.2245762118215578e-09 -3.6402627225079692e-10 0.0000000000000000e+00  -4.0739942505438320e-09 -1.6223131456470443e-10 0.0000000000000000e+00  -4.0255416287482447e-09 1.5493732833341714e-11 0.0000000000000000e+00  -4.0738489139452365e-09 1.9329271071675137e-10 0.0000000000000000e+00  -4.2240280881033769e-09 3.9529150588346516e-10 0.0000000000000000e+00  -4.4925027250566064e-09 6.5320244312221699e-10 0.0000000000000000e+00  -4.9097357158879425e-09 1.0184000954942258e-09 0.0000000000000000e+00  -5.5233805599985570e-09 1.5873042061658562e-09 0.0000000000000000e+00  -6.3896406286054591e-09 2.5607181012184251e-09 0.0000000000000000e+00  -7.5469751281115975e-09 4.4007655687715923e-09 0.0000000000000000e+00  -8.4118171267365891e-09 8.1943042206084074e-09 0.0000000000000000e+00  -5.5833139334981143e-09 1.3860211561343652e-08 0.0000000000000000e+00  -1.7036702398978863e-10 3.3424450709149964e-10 0.0000000000000000e+00  -6.4195615136778557e-12 -1.8254068226817709e-10 0.0000000000000000e+00  -2.5981828838384264e-09 -9.0091975622062914e-09 0.0000000000000000e+00  -5.0206100648979560e-09 -7.2553468647199743e-09 0.0000000000000000e+00  -5.6198398678568139e-09 -4.8108545396321769e-09 0.0000000000000000e+00  -5.4809146907986460e-09 -3.1744229018755791e-09 0.0000000000000000e+00  -5.1710419042823576e-09 -2.1172203431993511e-09 0.0000000000000000e+00  -4.8278592112155120e-09 -1.4084825923663090e-09 0.0000000000000000e+00  -4.5684476769849745e-09 -9.1940416000864804e-10 0.0000000000000000e+00  -4.3845016795384435e-09 -5.5660733047296419e-10 0.0000000000000000e+00  -4.2770068287075684e-09 -2.6327768625524521e-10 0.0000000000000000e+00  -4.2414054774779224e-09 -9.4693897373370686e-13 0.0000000000000000e+00  -4.2759940380070138e-09 2.6138876147215393e-10 0.0000000000000000e+00  -4.3822453943324649e-09 5.5467132781400942e-10 0.0000000000000000e+00  -4.5640070198197017e-09 9.1734324002062856e-10 0.0000000000000000e+00  -4.8239467356372547e-09 1.4056664515041143e-09 0.0000000000000000e+00  -5.1519551398010353e-09 2.1102132857872211e-09 0.0000000000000000e+00  -5.4914481480112005e-09 3.1810916451246549e-09 0.0000000000000000e+00  -5.6272420498952822e-09 4.8443485864956492e-09 0.0000000000000000e+00  -4.9273885367458334e-09 7.2241871577866713e-09 0.0000000000000000e+00  -2.5384328374421790e-09 8.8348603143784516e-09 0.0000000000000000e+00  -9.0639990550183226e-12 2.6102338356397902e-10 0.0000000000000000e+00  -1.3506061295040530e-12 -1.2694320849964521e-10 0.0000000000000000e+00  -1.4129498017203612e-09 -6.3973902977487259e-09 0.0000000000000000e+00  -3.0743862129166277e-09 -5.7823281315299549e-09 0.0000000000000000e+00  -3.9564686273907539e-09 -4.4482838795703154e-09 0.0000000000000000e+00  -4.3044249475752936e-09 -3.2455517301086153e-09 0.0000000000000000e+00  -4.3300472191539758e-09 -2.3043618294492675e-09 0.0000000000000000e+00  -4.2444950808770579e-09 -1.6052754441202177e-09 0.0000000000000000e+00  -4.1386236845568356e-09 -1.0796003261119063e-09 0.0000000000000000e+00  -4.0469399833085430e-09 -6.6503504329119795e-10 0.0000000000000000e+00  -3.9882716227326922e-09 -3.1688365637023936e-10 0.0000000000000000e+00  -3.9679218719691133e-09 4.7167322060216047e-13 0.0000000000000000e+00  -3.9873761317606554e-09 3.1777247880818118e-10 0.0000000000000000e+00  -4.0451446440539534e-09 6.6570858950176006e-10 0.0000000000000000e+00  -4.1353105652528184e-09 1.0797867366135457e-09 0.0000000000000000e+00  -4.2419117996918637e-09 1.6054075690867801e-09 0.0000000000000000e+00  -4.3257720955745005e-09 2.3018514260064851e-09 0.0000000000000000e+00  -4.2966540752988394e-09 3.2376326427891776e-09 0.0000000000000000e+00  -3.9684016415267789e-09 4.4501793761630753e-09 0.0000000000000000e+00  -3.0509214965002031e-09 5.7897540038201660e-09 0.0000000000000000e+00  -1.3966813609849302e-09 6.3820263471465725e-09 0.0000000000000000e+00  -1.7134844077817421e-11 1.7271573994918642e-10 0.0000000000000000e+00  3.3405639506503627e-14 -9.2021316386878104e-11 0.0000000000000000e+00  -8.8655393487505195e-10 -4.8271210355868316e-09 0.0000000000000000e+00  -2.0672948453969079e-09 -4.6386770997307865e-09 0.0000000000000000e+00  -2.8973305006219130e-09 -3.8422970931286869e-09 0.0000000000000000e+00  -3.3673356427038356e-09 -2.9948459390946591e-09 0.0000000000000000e+00  -3.5849097897128557e-09 -2.2505826713751878e-09 0.0000000000000000e+00  -3.6655046933784337e-09 -1.6358913901075837e-09 0.0000000000000000e+00  -3.6771580071793772e-09 -1.1318250768804697e-09 0.0000000000000000e+00  -3.6640075619975774e-09 -7.1039694587535353e-10 0.0000000000000000e+00  -3.6490936916013447e-09 -3.4222464514183030e-10 0.0000000000000000e+00  -3.6428480117467525e-09 2.1075590813080599e-13 0.0000000000000000e+00  -3.6484592361404567e-09 3.4258135703774735e-10 0.0000000000000000e+00  -3.6628326316574179e-09 7.1055871091991771e-10 0.0000000000000000e+00  -3.6753391686571671e-09 1.1315272655914906e-09 0.0000000000000000e+00  -3.6634140877313034e-09 1.6351553103062390e-09 0.0000000000000000e+00  -3.5843679115100315e-09 2.2502610263768082e-09 0.0000000000000000e+00  -3.3643943713035345e-09 2.9920721545138546e-09 0.0000000000000000e+00  -2.8947683915278171e-09 3.8301214373507384e-09 0.0000000000000000e+00  -2.0650103911179168e-09 4.6274038624821326e-09 0.0000000000000000e+00  -8.8718349185299683e-10 4.8344662898672429e-09 0.0000000000000000e+00  -3.7454549807871284e-12 1.1672799984024684e-10 0.0000000000000000e+00  2.9882383560655190e-13 -7.0551064937689459e-11 0.0000000000000000e+00  -6.1960590739880801e-10 -3.7604446152663260e-09 0.0000000000000000e+00  -1.4964140353839833e-09 -3.7177288361046836e-09 0.0000000000000000e+00  -2.1965531803395762e-09 -3.2202672167574778e-09 0.0000000000000000e+00  -2.6772127693820525e-09 -2.6358949755815340e-09 0.0000000000000000e+00  -2.9752239723182131e-09 -2.0671359715336781e-09 0.0000000000000000e+00  -3.1453134099713612e-09 -1.5529862339324718e-09 0.0000000000000000e+00  -3.2349089325429314e-09 -1.1013308804905017e-09 0.0000000000000000e+00  -3.2786683207776740e-09 -7.0319452710200369e-10 0.0000000000000000e+00  -3.2974403041198564e-09 -3.4222265551765136e-10 0.0000000000000000e+00  -3.3023971051906601e-09 -8.0971617053853338e-14 0.0000000000000000e+00  -3.2970387644127516e-09 3.4199896398754680e-10 0.0000000000000000e+00  -3.2779312245351461e-09 7.0280126409469036e-10 0.0000000000000000e+00  -3.2339624272857054e-09 1.1006413846803523e-09 0.0000000000000000e+00  -3.1440837825008106e-09 1.5516355160088032e-09 0.0000000000000000e+00  -2.9742981572224690e-09 2.0649316765485706e-09 0.0000000000000000e+00  -2.6765580533708506e-09 2.6327053915373963e-09 0.0000000000000000e+00  -2.1961709185046901e-09 3.2147070975024525e-09 0.0000000000000000e+00  -1.4970353227886803e-09 3.7149553933963139e-09 0.0000000000000000e+00  -6.2169624072605368e-10 3.7659994852971643e-09 0.0000000000000000e+00  -1.9909156972987247e-12 8.7686913637203312e-11 0.0000000000000000e+00  2.9218291315796855e-13 -5.5107202210357967e-11 0.0000000000000000e+00  -4.6411269030957229e-10 -2.9755717174767700e-09 0.0000000000000000e+00  -1.1429488779141583e-09 -2.9929776051359022e-09 0.0000000000000000e+00  -1.7269207089699471e-09 -2.6671768531772162e-09 0.0000000000000000e+00  -2.1740388527791768e-09 -2.2541788920472674e-09 0.0000000000000000e+00  -2.4908755123110976e-09 -1.8218044003992071e-09 0.0000000000000000e+00  -2.7024705338607916e-09 -1.4045397785672316e-09 0.0000000000000000e+00  -2.8366366147383323e-09 -1.0165780596467484e-09 0.0000000000000000e+00  -2.9165114262185271e-09 -6.5846377010445767e-10 0.0000000000000000e+00  -2.9581804231193750e-09 -3.2324137660623305e-10 0.0000000000000000e+00  -2.9709855564706312e-09 -2.3142503574256156e-13 0.0000000000000000e+00  -2.9579431509848106e-09 3.2272819144497284e-10 0.0000000000000000e+00  -2.9160675280440233e-09 6.5779921176395443e-10 0.0000000000000000e+00  -2.8360924278967756e-09 1.0156641366962247e-09 0.0000000000000000e+00  -2.7018714394023534e-09 1.4032205953294746e-09 0.0000000000000000e+00  -2.4903260655257003e-09 1.8196616949280695e-09 0.0000000000000000e+00  -2.1738062514872406e-09 2.2507257301442181e-09 0.0000000000000000e+00  -1.7276039517036905e-09 2.6626883590890406e-09 0.0000000000000000e+00  -1.1445887273378398e-09 2.9927670785405796e-09 0.0000000000000000e+00  -4.6590542107250301e-10 2.9813325744359878e-09 0.0000000000000000e+00  -1.0909554719382356e-12 6.7520292204658420e-11 0.0000000000000000e+00  2.6553888239760214e-13 -4.3349880192802617e-11 0.0000000000000000e+00  -3.6529985573086902e-10 -2.3682152810655405e-09 0.0000000000000000e+00  -9.1077297327977541e-10 -2.4076280477457807e-09 0.0000000000000000e+00  -1.4017660723611077e-09 -2.1844557337310986e-09 0.0000000000000000e+00  -1.8034320298602691e-09 -1.8865141588074722e-09 0.0000000000000000e+00  -2.1117809768854435e-09 -1.5582912471239379e-09 0.0000000000000000e+00  -2.3363819040211350e-09 -1.2250945229545308e-09 0.0000000000000000e+00  -2.4915825892054222e-09 -9.0083366719954012e-10 0.0000000000000000e+00  -2.5914223015273220e-09 -5.9026242540841602e-10 0.0000000000000000e+00  -2.6468160574427608e-09 -2.9184182248725087e-10 0.0000000000000000e+00  -2.6644844636194106e-09 -3.4231594163994509e-13 0.0000000000000000e+00  -2.6466806044537431e-09 2.9111799967909260e-10 0.0000000000000000e+00  -2.5911742225033836e-09 5.8941329926151864e-10 0.0000000000000000e+00  -2.4912745583621504e-09 8.9975902168113777e-10 0.0000000000000000e+00  -2.3360996939966727e-09 1.2236728360465180e-09 0.0000000000000000e+00  -2.1116544917482634e-09 1.5563650495904179e-09 0.0000000000000000e+00  -1.8036250217768527e-09 1.8839127993607457e-09 0.0000000000000000e+00  -1.4026873280200581e-09 2.1814984488974053e-09 0.0000000000000000e+00  -9.1236082995915301e-10 2.4084311957766971e-09 0.0000000000000000e+00  -3.6674529457198251e-10 2.3732200298182615e-09 0.0000000000000000e+00  -6.1198847971108291e-13 5.2875991543849703e-11 0.0000000000000000e+00  2.3403331890840177e-13 -3.3956123400105281e-11 0.0000000000000000e+00  -2.9890835628797172e-10 -1.8782367974001065e-09 0.0000000000000000e+00  -7.5121362106953433e-10 -1.9227109078704678e-09 0.0000000000000000e+00  -1.1702854175702740e-09 -1.7653762870521020e-09 0.0000000000000000e+00  -1.5280910618698443e-09 -1.5473110894326075e-09 0.0000000000000000e+00  -1.8172565199873458e-09 -1.2980045966702828e-09 0.0000000000000000e+00  -2.0395681194670129e-09 -1.0351747382432157e-09 0.0000000000000000e+00  -2.2013146671252827e-09 -7.7037010051430888e-10 0.0000000000000000e+00  -2.3100917614986687e-09 -5.0933481370006352e-10 0.0000000000000000e+00  -2.3724600503641893e-09 -2.5326761726567931e-10 0.0000000000000000e+00  -2.3927275407350874e-09 -4.1122341151087146e-13 0.0000000000000000e+00  -2.3723870982922102e-09 2.5241405170889177e-10 0.0000000000000000e+00  -2.3099654211885691e-09 5.0838511858006250e-10 0.0000000000000000e+00  -2.2011756802253127e-09 7.6924942835612510e-10 0.0000000000000000e+00  -2.0394832528051046e-09 1.0337992488340989e-09 0.0000000000000000e+00  -1.8173513761299738e-09 1.2963059138313521e-09 0.0000000000000000e+00  -1.5284963997178112e-09 1.5452928059736327e-09 0.0000000000000000e+00  -1.1712109440956264e-09 1.7633830433615283e-09 0.0000000000000000e+00  -7.5253996542400412e-10 1.9239518462000145e-09 0.0000000000000000e+00  -3.0002907789399401e-10 1.8825447371385639e-09 0.0000000000000000e+00  -3.5808747952295578e-13 4.1603387292341488e-11 0.0000000000000000e+00  2.0540937977698053e-13 -2.6156911830023684e-11 0.0000000000000000e+00  -2.5271888688671882e-10 -1.4693435395300606e-09 0.0000000000000000e+00  -6.3851719542372482e-10 -1.5110791063675952e-09 0.0000000000000000e+00  -1.0028298085527089e-09 -1.3986083625968472e-09 0.0000000000000000e+00  -1.3227969930261787e-09 -1.2383427264804100e-09 0.0000000000000000e+00  -1.5903234218255447e-09 -1.0501810909003194e-09 0.0000000000000000e+00  -1.8034513301944999e-09 -8.4625946612556702e-10 0.0000000000000000e+00  -1.9638248325526522e-09 -6.3541146179690406e-10 0.0000000000000000e+00  -2.0747889479916457e-09 -4.2297349778372477e-10 0.0000000000000000e+00  -2.1397377953057724e-09 -2.1125729462502013e-10 0.0000000000000000e+00  -2.1610866567488006e-09 -4.5173954078851442e-13 0.0000000000000000e+00  -2.1397038433501155e-09 2.1033058901111517e-10 0.0000000000000000e+00  -2.0747373252515483e-09 4.2197664057176099e-10 0.0000000000000000e+00  -1.9637902923691112e-09 6.3429725317726135e-10 0.0000000000000000e+00  -1.8034885997941188e-09 8.4498607533179609e-10 0.0000000000000000e+00  -1.5905260840201631e-09 1.0487351017806648e-09 0.0000000000000000e+00  -1.3232505890675010e-09 1.2367765056618630e-09 0.0000000000000000e+00  -1.0036369777722798e-09 1.3972145329716740e-09 0.0000000000000000e+00  -6.3956537298881236e-10 1.5124640601474173e-09 0.0000000000000000e+00  -2.5357360962953779e-10 1.4730911006474745e-09 0.0000000000000000e+00  -2.0500137591632871e-13 3.2525761384450781e-11 0.0000000000000000e+00  1.7972297406853828e-13 -1.9461271102863480e-11 0.0000000000000000e+00  -2.2015360568212275e-10 -1.1176911004188324e-09 0.0000000000000000e+00  -5.5823262690350643e-10 -1.1530545998827452e-09 0.0000000000000000e+00  -8.8153883495121456e-10 -1.0731031462924666e-09 0.0000000000000000e+00  -1.1708935107287902e-09 -9.5675869381788548e-10 0.0000000000000000e+00  -1.4183917016267591e-09 -8.1756272793784864e-10 0.0000000000000000e+00  -1.6203266015758044e-09 -6.6368497181514171e-10 0.0000000000000000e+00  -1.7757388173152875e-09 -5.0154918444909324e-10 0.0000000000000000e+00  -1.8853261281775855e-09 -3.3554696247337079e-10 0.0000000000000000e+00  -1.9503527151314611e-09 -1.6816497436281130e-10 0.0000000000000000e+00  -1.9718878636285422e-09 -4.7332621330110180e-13 0.0000000000000000e+00  -1.9503420925946639e-09 1.6720262468991068e-10 0.0000000000000000e+00  -1.8853178381906613e-09 3.3453857047295954e-10 0.0000000000000000e+00  -1.7757605896265592e-09 5.0046888594053809e-10 0.0000000000000000e+00  -1.6204204813981689e-09 6.6251912020004475e-10 0.0000000000000000e+00  -1.4186221180803013e-09 8.1632647497070253e-10 0.0000000000000000e+00  -1.1713095867336925e-09 9.5551386589250109e-10 0.0000000000000000e+00  -8.8218711345025210e-10 1.0720838475079958e-09 0.0000000000000000e+00  -5.5902655240008545e-10 1.1544619147157039e-09 0.0000000000000000e+00  -2.2079008434770280e-10 1.1210092751113449e-09 0.0000000000000000e+00  -1.0622261940584194e-13 2.4944114361165266e-11 0.0000000000000000e+00  1.5576553981098837e-13 -1.3526362884619930e-11 0.0000000000000000e+00  -1.9747600466089223e-10 -8.0644394856154426e-10 0.0000000000000000e+00  -5.0191607295077217e-10 -8.3379127266881526e-10 0.0000000000000000e+00  -7.9547677738480238e-10 -7.7893876360243749e-10 0.0000000000000000e+00  -1.0614981834885799e-09 -6.9775139265482117e-10 0.0000000000000000e+00  -1.2924923053353274e-09 -5.9933451841935009e-10 0.0000000000000000e+00  -1.4839721070307617e-09 -4.8902160775219218e-10 0.0000000000000000e+00  -1.6335614683734314e-09 -3.7123737676037615e-10 0.0000000000000000e+00  -1.7403801477303620e-09 -2.4926875165557079e-10 0.0000000000000000e+00  -1.8043428080470877e-09 -1.2526316313547625e-10 0.0000000000000000e+00  -1.8256301631713517e-09 -4.8286094403207542e-13 0.0000000000000000e+00  -1.8043441048743109e-09 1.2428806312171466e-10 0.0000000000000000e+00  -1.7403924519166314e-09 2.4826737127474926e-10 0.0000000000000000e+00  -1.6336049865478181e-09 3.7019921976161773e-10 0.0000000000000000e+00  -1.4840761599865510e-09 4.8794949276008246e-10 0.0000000000000000e+00  -1.2926983635681329e-09 5.9825551857066143e-10 0.0000000000000000e+00  -1.0618323629370045e-09 6.9672359588065002e-10 0.0000000000000000e+00  -7.9595819499141628e-10 7.7815153587902318e-10 0.0000000000000000e+00  -5.0248469415131769e-10 8.3517650951504558e-10 0.0000000000000000e+00  -1.9792796681647189e-10 8.0944866012986245e-10 0.0000000000000000e+00  -3.8287639025330534e-14 1.8399478244501268e-11 0.0000000000000000e+00  1.3223713109430865e-13 -8.0934579503141079e-12 0.0000000000000000e+00  -1.8250511911289760e-10 -5.2285987455022866e-10 0.0000000000000000e+00  -4.6454265186551722e-10 -5.4149794746645064e-10 0.0000000000000000e+00  -7.3791626188868170e-10 -5.0729640228505903e-10 0.0000000000000000e+00  -9.8759395546278919e-10 -4.5581489498958940e-10 0.0000000000000000e+00  -1.2064710795065883e-09 -3.9285250200493765e-10 0.0000