<?xml version="1.0"?>
<VTKFile type="UnstructuredGrid"  version="0.1"  >
<UnstructuredGrid>
<Piece  NumberOfPoints="651" NumberOfCells="1200">
<Points>
<DataArray  type="Float64"  NumberOfComponents="3"  format="ascii">0 0 0  50000 0 0  100000 0 0  150000 0 0  200000 0 0  250000 0 0  300000 0 0  350000 0 0  400000 0 0  450000 0 0  500000 0 0  550000 0 0  600000 0 0  650000 0 0  700000 0 0  750000 0 0  800000 0 0  850000 0 0  900000 0 0  950000 0 0  1000000 0 0  0 50000 0  50000 50000 0  100000 50000 0  150000 50000 0  200000 50000 0  250000 50000 0  300000 50000 0  350000 50000 0  400000 50000 0  450000 50000 0  500000 50000 0  550000 50000 0  600000 50000 0  650000 50000 0  700000 50000 0  750000 50000 0  800000 50000 0  850000 50000 0  900000 50000 0  950000 50000 0  1000000 50000 0  0 100000 0  50000 100000 0  100000 100000 0  150000 100000 0  200000 100000 0  250000 100000 0  300000 100000 0  350000 100000 0  400000 100000 0  450000 100000 0  500000 100000 0  550000 100000 0  600000 100000 0  650000 100000 0  700000 100000 0  750000 100000 0  800000 100000 0  850000 100000 0  900000 100000 0  950000 100000 0  1000000 100000 0  0 150000 0  50000 150000 0  100000 150000 0  150000 150000 0  200000 150000 0  250000 150000 0  300000 150000 0  350000 150000 0  400000 150000 0  450000 150000 0  500000 150000 0  550000 150000 0  600000 150000 0  650000 150000 0  700000 150000 0  750000 150000 0  800000 150000 0  850000 150000 0  900000 150000 0  950000 150000 0  1000000 150000 0  0 200000 0  50000 200000 0  100000 200000 0  150000 200000 0  200000 200000 0  250000 200000 0  300000 200000 0  350000 200000 0  400000 200000 0  450000 200000 0  500000 200000 0  550000 200000 0  600000 200000 0  650000 200000 0  700000 200000 0  750000 200000 0  800000 200000 0  850000 200000 0  900000 200000 0  950000 200000 0  1000000 200000 0  0 250000 0  50000 250000 0  100000 250000 0  150000 250000 0  200000 250000 0  250000 250000 0  300000 250000 0  350000 250000 0  400000 250000 0  450000 250000 0  500000 250000 0  550000 250000 0  600000 250000 0  650000 250000 0  700000 250000 0  750000 250000 0  800000 250000 0  850000 250000 0  900000 250000 0  950000 250000 0  1000000 250000 0  0 300000 0  50000 300000 0  100000 300000 0  150000 300000 0  200000 300000 0  250000 300000 0  300000 300000 0  350000 300000 0  400000 300000 0  450000 300000 0  500000 300000 0  550000 300000 0  600000 300000 0  650000 300000 0  700000 300000 0  750000 300000 0  800000 300000 0  850000 300000 0  900000 300000 0  950000 300000 0  1000000 300000 0  0 350000 0  50000 350000 0  100000 350000 0  150000 350000 0  200000 350000 0  250000 350000 0  300000 350000 0  350000 350000 0  400000 350000 0  450000 350000 0  500000 350000 0  550000 350000 0  600000 350000 0  650000 350000 0  700000 350000 0  750000 350000 0  800000 350000 0  850000 350000 0  900000 350000 0  950000 350000 0  1000000 350000 0  0 400000 0  50000 400000 0  100000 400000 0  150000 400000 0  200000 400000 0  250000 400000 0  300000 400000 0  350000 400000 0  400000 400000 0  450000 400000 0  500000 400000 0  550000 400000 0  600000 400000 0  650000 400000 0  700000 400000 0  750000 400000 0  800000 400000 0  850000 400000 0  900000 400000 0  950000 400000 0  1000000 400000 0  0 450000 0  50000 450000 0  100000 450000 0  150000 450000 0  200000 450000 0  250000 450000 0  300000 450000 0  350000 450000 0  400000 450000 0  450000 450000 0  500000 450000 0  550000 450000 0  600000 450000 0  650000 450000 0  700000 450000 0  750000 450000 0  800000 450000 0  850000 450000 0  900000 450000 0  950000 450000 0  1000000 450000 0  0 500000 0  50000 500000 0  100000 500000 0  150000 500000 0  200000 500000 0  250000 500000 0  300000 500000 0  350000 500000 0  400000 500000 0  450000 500000 0  500000 500000 0  550000 500000 0  600000 500000 0  650000 500000 0  700000 500000 0  750000 500000 0  800000 500000 0  850000 500000 0  900000 500000 0  950000 500000 0  1000000 500000 0  0 550000 0  50000 550000 0  100000 550000 0  150000 550000 0  200000 550000 0  250000 550000 0  300000 550000 0  350000 550000 0  400000 550000 0  450000 550000 0  500000 550000 0  550000 550000 0  600000 550000 0  650000 550000 0  700000 550000 0  750000 550000 0  800000 550000 0  850000 550000 0  900000 550000 0  950000 550000 0  1000000 550000 0  0 600000 0  50000 600000 0  100000 600000 0  150000 600000 0  200000 600000 0  250000 600000 0  300000 600000 0  350000 600000 0  400000 600000 0  450000 600000 0  500000 600000 0  550000 600000 0  600000 600000 0  650000 600000 0  700000 600000 0  750000 600000 0  800000 600000 0  850000 600000 0  900000 600000 0  950000 600000 0  1000000 600000 0  0 650000 0  50000 650000 0  100000 650000 0  150000 650000 0  200000 650000 0  250000 650000 0  300000 650000 0  350000 650000 0  400000 650000 0  450000 650000 0  500000 650000 0  550000 650000 0  600000 650000 0  650000 650000 0  700000 650000 0  750000 650000 0  800000 650000 0  850000 650000 0  900000 650000 0  950000 650000 0  1000000 650000 0  0 700000 0  50000 700000 0  100000 700000 0  150000 700000 0  200000 700000 0  250000 700000 0  300000 700000 0  350000 700000 0  400000 700000 0  450000 700000 0  500000 700000 0  550000 700000 0  600000 700000 0  650000 700000 0  700000 700000 0  750000 700000 0  800000 700000 0  850000 700000 0  900000 700000 0  950000 700000 0  1000000 700000 0  0 750000 0  50000 750000 0  100000 750000 0  150000 750000 0  200000 750000 0  250000 750000 0  300000 750000 0  350000 750000 0  400000 750000 0  450000 750000 0  500000 750000 0  550000 750000 0  600000 750000 0  650000 750000 0  700000 750000 0  750000 750000 0  800000 750000 0  850000 750000 0  900000 750000 0  950000 750000 0  1000000 750000 0  0 800000 0  50000 800000 0  100000 800000 0  150000 800000 0  200000 800000 0  250000 800000 0  300000 800000 0  350000 800000 0  400000 800000 0  450000 800000 0  500000 800000 0  550000 800000 0  600000 800000 0  650000 800000 0  700000 800000 0  750000 800000 0  800000 800000 0  850000 800000 0  900000 800000 0  950000 800000 0  1000000 800000 0  0 850000 0  50000 850000 0  100000 850000 0  150000 850000 0  200000 850000 0  250000 850000 0  300000 850000 0  350000 850000 0  400000 850000 0  450000 850000 0  500000 850000 0  550000 850000 0  600000 850000 0  650000 850000 0  700000 850000 0  750000 850000 0  800000 850000 0  850000 850000 0  900000 850000 0  950000 850000 0  1000000 850000 0  0 900000 0  50000 900000 0  100000 900000 0  150000 900000 0  200000 900000 0  250000 900000 0  300000 900000 0  350000 900000 0  400000 900000 0  450000 900000 0  500000 900000 0  550000 900000 0  600000 900000 0  650000 900000 0  700000 900000 0  750000 900000 0  800000 900000 0  850000 900000 0  900000 900000 0  950000 900000 0  1000000 900000 0  0 950000 0  50000 950000 0  100000 950000 0  150000 950000 0  200000 950000 0  250000 950000 0  300000 950000 0  350000 950000 0  400000 950000 0  450000 950000 0  500000 950000 0  550000 950000 0  600000 950000 0  650000 950000 0  700000 950000 0  750000 950000 0  800000 950000 0  850000 950000 0  900000 950000 0  950000 950000 0  1000000 950000 0  0 1000000 0  50000 1000000 0  100000 1000000 0  150000 1000000 0  200000 1000000 0  250000 1000000 0  300000 1000000 0  350000 1000000 0  400000 1000000 0  450000 1000000 0  500000 1000000 0  550000 1000000 0  600000 1000000 0  650000 1000000 0  700000 1000000 0  750000 1000000 0  800000 1000000 0  850000 1000000 0  900000 1000000 0  950000 1000000 0  1000000 1000000 0  0 1050000 0  50000 1050000 0  100000 1050000 0  150000 1050000 0  200000 1050000 0  250000 1050000 0  300000 1050000 0  350000 1050000 0  400000 1050000 0  450000 1050000 0  500000 1050000 0  550000 1050000 0  600000 1050000 0  650000 1050000 0  700000 1050000 0  750000 1050000 0  800000 1050000 0  850000 1050000 0  900000 1050000 0  950000 1050000 0  1000000 1050000 0  0 1100000 0  50000 1100000 0  100000 1100000 0  150000 1100000 0  200000 1100000 0  250000 1100000 0  300000 1100000 0  350000 1100000 0  400000 1100000 0  450000 1100000 0  500000 1100000 0  550000 1100000 0  600000 1100000 0  650000 1100000 0  700000 1100000 0  750000 1100000 0  800000 1100000 0  850000 1100000 0  900000 1100000 0  950000 1100000 0  1000000 1100000 0  0 1150000 0  50000 1150000 0  100000 1150000 0  150000 1150000 0  200000 1150000 0  250000 1150000 0  300000 1150000 0  350000 1150000 0  400000 1150000 0  450000 1150000 0  500000 1150000 0  550000 1150000 0  600000 1150000 0  650000 1150000 0  700000 1150000 0  750000 1150000 0  800000 1150000 0  850000 1150000 0  900000 1150000 0  950000 1150000 0  1000000 1150000 0  0 1200000 0  50000 1200000 0  100000 1200000 0  150000 1200000 0  200000 1200000 0  250000 1200000 0  300000 1200000 0  350000 1200000 0  400000 1200000 0  450000 1200000 0  500000 1200000 0  550000 1200000 0  600000 1200000 0  650000 1200000 0  700000 1200000 0  750000 1200000 0  800000 1200000 0  850000 1200000 0  900000 1200000 0  950000 1200000 0  1000000 1200000 0  0 1250000 0  50000 1250000 0  100000 1250000 0  150000 1250000 0  200000 1250000 0  250000 1250000 0  300000 1250000 0  350000 1250000 0  400000 1250000 0  450000 1250000 0  500000 1250000 0  550000 1250000 0  600000 1250000 0  650000 1250000 0  700000 1250000 0  750000 1250000 0  800000 1250000 0  850000 1250000 0  900000 1250000 0  950000 1250000 0  1000000 1250000 0  0 1300000 0  50000 1300000 0  100000 1300000 0  150000 1300000 0  200000 1300000 0  250000 1300000 0  300000 1300000 0  350000 1300000 0  400000 1300000 0  450000 1300000 0  500000 1300000 0  550000 1300000 0  600000 1300000 0  650000 1300000 0  700000 1300000 0  750000 1300000 0  800000 1300000 0  850000 1300000 0  900000 1300000 0  950000 1300000 0  1000000 1300000 0  0 1350000 0  50000 1350000 0  100000 1350000 0  150000 1350000 0  200000 1350000 0  250000 1350000 0  300000 1350000 0  350000 1350000 0  400000 1350000 0  450000 1350000 0  500000 1350000 0  550000 1350000 0  600000 1350000 0  650000 1350000 0  700000 135
[...]
<PointData  Vectors="f_4501"> 
<DataArray  type="Float64"  Name="f_4501"  NumberOfComponents="3" format="ascii">-1.2040886731465225e-09 -8.5361623156303010e-10 0.0000000000000000e+00  7.9104078006994609e-08 -6.8896373765728934e-10 0.0000000000000000e+00  7.9777090639559197e-08 -6.3921595195427217e-11 0.0000000000000000e+00  7.9756230901742557e-08 -8.7618756349973858e-12 0.0000000000000000e+00  7.9829745092996140e-08 -7.8206857532735126e-12 0.0000000000000000e+00  7.9859803763516665e-08 -2.9351939542048204e-12 0.0000000000000000e+00  7.9877489837096134e-08 -1.6578160428015193e-12 0.0000000000000000e+00  7.9888537921628607e-08 -9.1079551243317159e-13 0.0000000000000000e+00  7.9894974937876357e-08 -3.7189143536297774e-13 0.0000000000000000e+00  7.9898050637212988e-08 7.5454949134576851e-14 0.0000000000000000e+00  7.9898271075354521e-08 5.2641325081314210e-13 0.0000000000000000e+00  7.9895669886049528e-08 1.0632293381371534e-12 0.0000000000000000e+00  7.9889832539190293e-08 1.7971041542838590e-12 0.0000000000000000e+00  7.9879729128175614e-08 2.9433366063472972e-12 0.0000000000000000e+00  7.9863186061763106e-08 4.9340340265473981e-12 0.0000000000000000e+00  7.9836581836403151e-08 8.2707147278097782e-12 0.0000000000000000e+00  7.9787147040137532e-08 2.1603177780701758e-11 0.0000000000000000e+00  7.9669330132335031e-08 4.7730509309673237e-11 0.0000000000000000e+00  7.9592285078952329e-08 2.7209091816258685e-11 0.0000000000000000e+00  7.7276508306990733e-08 2.3892139878681062e-09 0.0000000000000000e+00  -3.4098213767634243e-09 2.8999464697183809e-09 0.0000000000000000e+00  -9.0965322927884716e-10 -8.0786346614373640e-10 0.0000000000000000e+00  -1.3840563645840144e-08 -1.2735614584146700e-08 0.0000000000000000e+00  -5.6023791309298915e-09 -4.2018399318229182e-09 0.0000000000000000e+00  -3.6469300353792571e-09 -1.8738712961678946e-09 0.0000000000000000e+00  -1.6428049214940232e-09 -1.0297050367447752e-09 0.0000000000000000e+00  -6.6620404325909414e-10 -6.0451574221257646e-10 0.0000000000000000e+00  -4.2683911169669818e-11 -3.8457992550432655e-10 0.0000000000000000e+00  3.5360575671894645e-10 -2.4882822150641624e-10 0.0000000000000000e+00  5.9863992093209138e-10 -1.5520091036049993e-10 0.0000000000000000e+00  7.3258196024998795e-10 -8.2867873981705060e-11 0.0000000000000000e+00  7.7478480585219330e-10 -1.9501630256096990e-11 0.0000000000000000e+00  7.3102512407170494e-10 4.4018750624429044e-11 0.0000000000000000e+00  5.9540622499953693e-10 1.1684650287951602e-10 0.0000000000000000e+00  3.4852178227370074e-10 2.1139808223272900e-10 0.0000000000000000e+00  -4.9228426219452429e-11 3.4884722342543424e-10 0.0000000000000000e+00  -6.7471902868187357e-10 5.7233428135626070e-10 0.0000000000000000e+00  -1.6757626381403234e-09 9.8638024804909239e-10 0.0000000000000000e+00  -3.3147351308700874e-09 1.8678267932937303e-09 0.0000000000000000e+00  -6.8757527484771386e-09 4.2127555526106201e-09 0.0000000000000000e+00  -1.1680874909800724e-08 1.3805885901647242e-08 0.0000000000000000e+00  -2.5919537701032598e-09 2.4770614735634919e-09 0.0000000000000000e+00  -1.6212341439759806e-10 -2.6938820244518775e-10 0.0000000000000000e+00  -5.0223539933110285e-09 -9.9048851947932006e-09 0.0000000000000000e+00  -6.1834142102075837e-09 -6.2604872527887345e-09 0.0000000000000000e+00  -5.9513944683377652e-09 -3.5289210097693820e-09 0.0000000000000000e+00  -4.9198567948164911e-09 -2.0293534093932489e-09 0.0000000000000000e+00  -4.3067790978884999e-09 -1.2543263737875081e-09 0.0000000000000000e+00  -3.8274521042236854e-09 -8.0062090045780202e-10 0.0000000000000000e+00  -3.5049813393463741e-09 -5.0596140995787247e-10 0.0000000000000000e+00  -3.2968992943385660e-09 -2.9675372162337536e-10 0.0000000000000000e+00  -3.1801946026551470e-09 -1.3203054258856418e-10 0.0000000000000000e+00  -3.1423894455079892e-09 1.3475310383517795e-11 0.0000000000000000e+00  -3.1794540136642894e-09 1.5905407984964373e-10 0.0000000000000000e+00  -3.2951101374772472e-09 3.2397528018753587e-10 0.0000000000000000e+00  -3.5013877221981640e-09 5.3337275345788270e-10 0.0000000000000000e+00  -3.8202912278126368e-09 8.2744962686374634e-10 0.0000000000000000e+00  -4.2850221315375070e-09 1.2802259308490313e-09 0.0000000000000000e+00  -4.9327313787637580e-09 2.0421350498422875e-09 0.0000000000000000e+00  -5.7851130689122719e-09 3.4518705091257478e-09 0.0000000000000000e+00  -6.3775150246232265e-09 6.2721022532201820e-09 0.0000000000000000e+00  -4.3357143466173142e-09 1.1019511160750579e-08 0.0000000000000000e+00  -1.8047606366550970e-10 3.6926048217206477e-10 0.0000000000000000e+00  -1.8042206404604870e-11 -2.1089157755156228e-10 0.0000000000000000e+00  -2.1153059982428977e-09 -7.2617354528375934e-09 0.0000000000000000e+00  -3.9931098987193425e-09 -5.6293374136240447e-09 0.0000000000000000e+00  -4.4128544751560707e-09 -3.7580074430115021e-09 0.0000000000000000e+00  -4.3226365908462895e-09 -2.4926659736467997e-09 0.0000000000000000e+00  -4.0922693160820605e-09 -1.6759013195206173e-09 0.0000000000000000e+00  -3.8370700095840155e-09 -1.1208082299989838e-09 0.0000000000000000e+00  -3.6386381606831906e-09 -7.3384595292807974e-10 0.0000000000000000e+00  -3.4986100087870766e-09 -4.4486212262568807e-10 0.0000000000000000e+00  -3.4161968394168553e-09 -2.1006592343063990e-10 0.0000000000000000e+00  -3.3887450307198286e-09 4.9882592178420771e-13 0.0000000000000000e+00  -3.4150416308643420e-09 2.1105896523900950e-10 0.0000000000000000e+00  -3.4960390419589565e-09 4.4579901085215411e-10 0.0000000000000000e+00  -3.6341790880629918e-09 7.3453639627391201e-10 0.0000000000000000e+00  -3.8305207109995218e-09 1.1203551627813596e-09 0.0000000000000000e+00  -4.0759121892600637e-09 1.6715297038612314e-09 0.0000000000000000e+00  -4.3258685535133608e-09 2.4992590147190905e-09 0.0000000000000000e+00  -4.4184715555995049e-09 3.7672358246103684e-09 0.0000000000000000e+00  -3.9004775364681823e-09 5.5762079835420496e-09 0.0000000000000000e+00  -2.1077771930800596e-09 7.1382071762693693e-09 0.0000000000000000e+00  -2.9276062645407417e-11 2.9614681012762106e-10 0.0000000000000000e+00  -8.0379175103715721e-12 -1.4903140984627763e-10 0.0000000000000000e+00  -1.1831382781245866e-09 -5.2012018717092431e-09 0.0000000000000000e+00  -2.4667817098509057e-09 -4.5119006683476625e-09 0.0000000000000000e+00  -3.1372459436387553e-09 -3.4716562135839327e-09 0.0000000000000000e+00  -3.4060969057936358e-09 -2.5449436458468656e-09 0.0000000000000000e+00  -3.4316159043322833e-09 -1.8164061507995110e-09 0.0000000000000000e+00  -3.3701165050309837e-09 -1.2702139609851994e-09 0.0000000000000000e+00  -3.2908029364497885e-09 -8.5662450029000484e-10 0.0000000000000000e+00  -3.2221982231812207e-09 -5.2894553539302740e-10 0.0000000000000000e+00  -3.1777194614518018e-09 -2.5255377323529571e-10 0.0000000000000000e+00  -3.1621669048387500e-09 -5.6769238848588410e-14 0.0000000000000000e+00  -3.1766862466262014e-09 2.5235352153385738e-10 0.0000000000000000e+00  -3.2200239724380358e-09 5.2843890287080864e-10 0.0000000000000000e+00  -3.2873574241221878e-09 8.5550598583485228e-10 0.0000000000000000e+00  -3.3660634707399679e-09 1.2681040473916481e-09 0.0000000000000000e+00  -3.4259162588986983e-09 1.8107980883043680e-09 0.0000000000000000e+00  -3.3988369292626446e-09 2.5345977271640497e-09 0.0000000000000000e+00  -3.1466907598952666e-09 3.4674082388226194e-09 0.0000000000000000e+00  -2.4539969997081300e-09 4.5059211727958979e-09 0.0000000000000000e+00  -1.1914312258478031e-09 5.2072381397333499e-09 0.0000000000000000e+00  -2.4368111700036840e-11 1.9746636684878510e-10 0.0000000000000000e+00  -4.2349392978660858e-12 -1.0975656507335936e-10 0.0000000000000000e+00  -7.5674152521787429e-10 -3.9506132962496095e-09 0.0000000000000000e+00  -1.6759688410979451e-09 -3.6372163798100611e-09 0.0000000000000000e+00  -2.3107530675055214e-09 -3.0079068678869118e-09 0.0000000000000000e+00  -2.6752607211044499e-09 -2.3505735605180643e-09 0.0000000000000000e+00  -2.8461074674519916e-09 -1.7705008727350230e-09 0.0000000000000000e+00  -2.9105589838584621e-09 -1.2898470994120125e-09 0.0000000000000000e+00  -2.9222791356010811e-09 -8.9425993170415478e-10 0.0000000000000000e+00  -2.9139372916634045e-09 -5.6218552342804563e-10 0.0000000000000000e+00  -2.9033270167938468e-09 -2.7110918978379341e-10 0.0000000000000000e+00  -2.8987353390455640e-09 5.5002325505591585e-14 0.0000000000000000e+00  -2.9025882704559696e-09 2.7111949790591823e-10 0.0000000000000000e+00  -2.9124729564098524e-09 5.6187233018203038e-10 0.0000000000000000e+00  -2.9201384623024829e-09 8.9332059553643121e-10 0.0000000000000000e+00  -2.9082310750105399e-09 1.2880614478147558e-09 0.0000000000000000e+00  -2.8442666555152643e-09 1.7679085346995911e-09 0.0000000000000000e+00  -2.6726493386414665e-09 2.3445274569209776e-09 0.0000000000000000e+00  -2.3117181586580211e-09 2.9957211270794303e-09 0.0000000000000000e+00  -1.6771152506894573e-09 3.6236458187591989e-09 0.0000000000000000e+00  -7.6517537069541828e-10 3.9667550840833730e-09 0.0000000000000000e+00  -9.6753657991420095e-12 1.3796124770882801e-10 0.0000000000000000e+00  -2.7068903206032711e-12 -8.4765179451208940e-11 0.0000000000000000e+00  -5.3409755984478476e-10 -3.0902032219063153e-09 0.0000000000000000e+00  -1.2230966616826519e-09 -2.9273768026426928e-09 0.0000000000000000e+00  -1.7640559094041547e-09 -2.5293507377969158e-09 0.0000000000000000e+00  -2.1370027981759506e-09 -2.0713084744030518e-09 0.0000000000000000e+00  -2.3690510856709820e-09 -1.6260092041818767e-09 0.0000000000000000e+00  -2.5029288690375996e-09 -1.2233155396636912e-09 0.0000000000000000e+00  -2.5743636736329088e-09 -8.6880320220150390e-10 0.0000000000000000e+00  -2.6097279814343332e-09 -5.5532091930409850e-10 0.0000000000000000e+00  -2.6251538011339395e-09 -2.7051270922128840e-10 0.0000000000000000e+00  -2.6292435000884978e-09 -2.6083313416722277e-13 0.0000000000000000e+00  -2.6246852064680309e-09 2.6990081403134568e-10 0.0000000000000000e+00  -2.6088451479784850e-09 5.5443119457782332e-10 0.0000000000000000e+00  -2.5731915507086129e-09 8.6739653828885770e-10 0.0000000000000000e+00  -2.5016358878988237e-09 1.2211446020102910e-09 0.0000000000000000e+00  -2.3683177308461027e-09 1.6227442796023972e-09 0.0000000000000000e+00  -2.1368232337262586e-09 2.0666024403790476e-09 0.0000000000000000e+00  -1.7654370805456690e-09 2.5226974393920613e-09 0.0000000000000000e+00  -1.2254105438358230e-09 2.9215927216804767e-09 0.0000000000000000e+00  -5.4064469211065102e-10 3.1028282573109175e-09 0.0000000000000000e+00  -5.8487149136301093e-12 1.0447955265168885e-10 0.0000000000000000e+00  -1.9821281011060724e-12 -6.6547259848058813e-11 0.0000000000000000e+00  -4.0279085911339211e-10 -2.4522164916567794e-09 0.0000000000000000e+00  -9.3970326247398887e-10 -2.3632940318803949e-09 0.0000000000000000e+00  -1.3939273639097632e-09 -2.0995349246617514e-09 0.0000000000000000e+00  -1.7423033699809368e-09 -1.7739934254615089e-09 0.0000000000000000e+00  -1.9895906634200419e-09 -1.4342861088833428e-09 0.0000000000000000e+00  -2.1554952768919709e-09 -1.1065961814126564e-09 0.0000000000000000e+00  -2.2611873582714402e-09 -8.0153632368760338e-10 0.0000000000000000e+00  -2.3243864335104661e-09 -5.1957295512106277e-10 0.0000000000000000e+00  -2.3574975822204408e-09 -2.5529612987736589e-10 0.0000000000000000e+00  -2.3676664476556817e-09 -4.6682329741047334e-13 0.0000000000000000e+00  -2.3572288344530938e-09 2.5429059200004605e-10 0.0000000000000000e+00  -2.3239045826258765e-09 5.1834763076992644e-10 0.0000000000000000e+00  -2.2606004668186386e-09 7.9994036036806671e-10 0.0000000000000000e+00  -2.1549761418303200e-09 1.1044195072785726e-09 0.0000000000000000e+00  -1.9894111549270654e-09 1.4313119522140266e-09 0.0000000000000000e+00  -1.7427725856006258e-09 1.7700284682610465e-09 0.0000000000000000e+00  -1.3958619705685749e-09 2.0950922042864097e-09 0.0000000000000000e+00  -9.4217885184052090e-10 2.3608041964389664e-09 0.0000000000000000e+00  -4.0755606545068903e-10 2.4628032397799941e-09 0.0000000000000000e+00  -3.9270332170703344e-12 8.1082596932447080e-11 0.0000000000000000e+00  -1.5445459110348226e-12 -5.2534006189657849e-11 0.0000000000000000e+00  -3.1859754168707722e-10 -1.9555467119789729e-09 0.0000000000000000e+00  -7.5202866986343880e-10 -1.9050721247384064e-09 0.0000000000000000e+00  -1.1359065495386243e-09 -1.7230404340538450e-09 0.0000000000000000e+00  -1.4501781760091855e-09 -1.4870775451976541e-09 0.0000000000000000e+00  -1.6914830568234145e-09 -1.2280993742659673e-09 0.0000000000000000e+00  -1.8675966590295989e-09 -9.6566230116319674e-10 0.0000000000000000e+00  -1.9895743779521170e-09 -7.1033985533119270e-10 0.0000000000000000e+00  -2.0682322511528990e-09 -4.6567935446443076e-10 0.0000000000000000e+00  -2.1119485018982673e-09 -2.3044319755711484e-10 0.0000000000000000e+00  -2.1258946133906671e-09 -5.7637730697713515e-13 0.0000000000000000e+00  -2.1118141774238452e-09 2.2923680119805396e-10 0.0000000000000000e+00  -2.0680058472619661e-09 4.6431269717215647e-10 0.0000000000000000e+00  -1.9893463374960414e-09 7.0870233681727755e-10 0.0000000000000000e+00  -1.8674981661367054e-09 9.6364271645165875e-10 0.0000000000000000e+00  -1.6917166974130812e-09 1.2255842350159377e-09 0.0000000000000000e+00  -1.4509550036861900e-09 1.4840569357232245e-09 0.0000000000000000e+00  -1.1377482771949335e-09 1.7201074495747599e-09 0.0000000000000000e+00  -7.5408964760617655e-10 1.9040715335896818e-09 0.0000000000000000e+00  -3.2213424013472298e-10 1.9643238025495184e-09 0.0000000000000000e+00  -2.8205844492043220e-12 6.3819277042699614e-11 0.0000000000000000e+00  -1.2634706225169949e-12 -4.1260032315109453e-11 0.0000000000000000e+00  -2.6167983612170903e-10 -1.5532125107104167e-09 0.0000000000000000e+00  -6.2235147008296400e-10 -1.5238453109574736e-09 0.0000000000000000e+00  -9.5133996260547476e-10 -1.3946955988274413e-09 0.0000000000000000e+00  -1.2322572647520962e-09 -1.2213290154839211e-09 0.0000000000000000e+00  -1.4591374165309440e-09 -1.0240018011853256e-09 0.0000000000000000e+00  -1.6337083603718382e-09 -8.1653335562352867e-10 0.0000000000000000e+00  -1.7608635494036375e-09 -6.0772669482325889e-10 0.0000000000000000e+00  -1.8464754902963575e-09 -4.0193150815337153e-10 0.0000000000000000e+00  -1.8956074053612159e-09 -2.0002794011246940e-10 0.0000000000000000e+00  -1.9115818009083608e-09 -6.3565692910903290e-13 0.0000000000000000e+00  -1.8955566117450678e-09 1.9871985843056547e-10 0.0000000000000000e+00  -1.8464069305123447e-09 4.0051357710324831e-10 0.0000000000000000e+00  -1.7608432610477222e-09 6.0613079940744328e-10 0.0000000000000000e+00  -1.6338386561245044e-09 8.1470245669994980e-10 0.0000000000000000e+00  -1.4595654704545244e-09 1.0219103746430223e-09 0.0000000000000000e+00  -1.2331103396541963e-09 1.2190482841662093e-09 0.0000000000000000e+00  -9.5291255929890115e-10 1.3927256062707111e-09 0.0000000000000000e+00  -6.2395115442256970e-10 1.5235577066716446e-09 0.0000000000000000e+00  -2.6433079863028600e-10 1.5605791874875999e-09 0.0000000000000000e+00  -2.1380506289486708e-12 5.0393722829167878e-11 0.0000000000000000e+00  -1.0761454811485046e-12 -3.1848583480801860e-11 0.0000000000000000e+00  -2.2193389424376686e-10 -1.2163637761770949e-09 0.0000000000000000e+00  -5.3040873518166084e-10 -1.1991181322379558e-09 0.0000000000000000e+00  -8.1733461348507484e-10 -1.1063227967727046e-09 0.0000000000000000e+00  -1.0692674630289497e-09 -9.7856555950713698e-10 0.0000000000000000e+00  -1.2796856993900933e-09 -8.2928360267588696e-10 0.0000000000000000e+00  -1.4473400406740801e-09 -6.6802088501113318e-10 0.0000000000000000e+00  -1.5735434208573608e-09 -5.0154721048462451e-10 0.0000000000000000e+00  -1.6609075284711568e-09 -3.3393354382244571e-10 0.0000000000000000e+00  -1.7120678237574864e-09 -1.6693108725376076e-10 0.0000000000000000e+00  -1.7288950993869425e-09 -6.5967624694927513e-13 0.0000000000000000e+00  -1.7120652118942463e-09 1.6558850737138475e-10 0.0000000000000000e+00  -1.6609266682413295e-09 3.3252362507292706e-10 0.0000000000000000e+00  -1.5736333707546879e-09 5.0003352767903696e-10 0.0000000000000000e+00  -1.4475741004663041e-09 6.6638480229555845e-10 0.0000000000000000e+00  -1.2801630842079732e-09 8.2754087368501773e-10 0.0000000000000000e+00  -1.0700592899241331e-09 9.7680597514322841e-10 0.0000000000000000e+00  -8.1860467713690498e-10 1.1049478020227338e-09 0.0000000000000000e+00  -5.3161697563701710e-10 1.1991822718859745e-09 0.0000000000000000e+00  -2.2392090582110219e-10 1.2226767638725339e-09 0.0000000000000000e+00  -1.6895512901413357e-12 3.9504679262072382e-11 0.0000000000000000e+00  -9.5138829148085645e-13 -2.3733362206153727e-11 0.0000000000000000e+00  -1.9385041058745268e-10 -9.2590463992577850e-10 0.0000000000000000e+00  -4.6473241270507689e-10 -9.1592093917244046e-10 0.0000000000000000e+00  -7.2002326378654634e-10 -8.4967414077720863e-10 0.0000000000000000e+00  -9.4839273163073532e-10 -7.5675946096157250e-10 0.0000000000000000e+00  -1.1434761967163329e-09 -6.4613420709021607e-10 0.0000000000000000e+00  -1.3025992883995014e-09 -5.2427611707990081e-10 0.0000000000000000e+00  -1.4250537932484610e-09 -3.9613074441758173e-10 0.0000000000000000e+00  -1.5114093689909724e-09 -2.6506365783704681e-10 0.0000000000000000e+00  -1.5626613904906273e-09 -1.3297259952914363e-10 0.0000000000000000e+00  -1.5796448312144779e-09 -6.6311092996169439e-13 0.0000000000000000e+00  -1.5626823339035367e-09 1.3163391795413458e-10 0.0000000000000000e+00  -1.5114688391808080e-09 2.6369026695497111e-10 0.0000000000000000e+00  -1.4251864568413118e-09 3.9470943191508056e-10 0.0000000000000000e+00  -1.3028550358884281e-09 5.2281124183545817e-10 0.0000000000000000e+00  -1.1439181513906146e-09 6.4465816493298970e-10 0.0000000000000000e+00  -9.4905663547273437e-10 7.5535554581016992e-10 0.0000000000000000e+00  -7.2100139857669981e-10 8.4866484350419660e-10 0.0000000000000000e+00  -4.6562127985195649e-10 9.1615839700608044e-10 0.0000000000000000e+00  -1.9531598790466013e-10 9.3144418180054250e-10 0.0000000000000000e+00  -1.3824028535359246e-12 3.0357990642820609e-11 0.0000000000000000e+00  -8.7320666307214571e-13 -1.6515389143211123e-11 0.0000000000000000e+00  -1.7427793612289540e-10 -6.6826813652103013e-10 0.0000000000000000e+00  -4.1857997522753785e-10 -6.6285295798006888e-10 0.0000000000000000e+00  -6.5085812385734148e-10 -6.1721818107436237e-10 0.0000000000000000e+00  -8.6120530404241751e-10 -5.5230996894372241e-10 0.0000000000000000e+00  -1.0436007359990971e-09 -4.7400188315900929e-10 0.0000000000000000e+00  -1.1947127250995801e-09 -3.8655739555748901e-10 0.0000000000000000e+00  -1.3127243880127127e-09 -2.9339488700321840e-10 0.0000000000000000e+00  -1.3969808533307887e-09 -1.9704112043890002e-10 0.0000000000000000e+00  -1.4474340679108753e-09 -9.9141513546342152e-11 0.0000000000000000e+00  -1.4642332636106525e-09 -6.5641284836851322e-13 0.0000000000000000e+00  -1.4474619655884834e-09 9.7824070854984145e-11 0.0000000000000000e+00  -1.3970485937983348e-09 1.9571254963669111e-10 0.0000000000000000e+00  -1.3128550651039557e-09 2.9205721124080210e-10 0.0000000000000000e+00  -1.1949383447137105e-09 3.8522763763448260e-10 0.0000000000000000e+00  -1.0439592935138789e-09 4.7271736046366247e-10 0.0000000000000000e+00  -8.6171267292361861e-10 5.5114176068002084e-10 0.0000000000000000e+00  -6.5156660290358883e-10 6.1643274956767815e-10 0.0000000000000000e+00  -4.1920434914359132e-10 6.6317462045429555e-10 0.0000000000000000e+00  -1.7531319743028999e-10 6.7325584597903051e-10 0.0000000000000000e+00  -1.1674387352316230e-12 2.2426632748121382e-11 0.0000000000000000e+00  -8.3311179114898347e-13 -9.8911146809720248e-12 0.0000000000000000e+00  -1.6136856874393968e-10 -4.3313339057222063e-10 0.0000000000000000e+00  -3.8791893652696885e-10 -4.3079756335094251e-10 0.0000000000000000e+00  -6.0455429859219358e-10 -4.0219553114539597e-10 0.0000000000000000e+00  -8.0224672953528260e-10 -3.6102571098168054e-10 0.0000000000000000e+00  -9.7530163285061055e-10 -3.108964