<?xml version="1.0"?>
<VTKFile type="UnstructuredGrid"  version="0.1"  >
<UnstructuredGrid>
<Piece  NumberOfPoints="651" NumberOfCells="1200">
<Points>
<DataArray  type="Float64"  NumberOfComponents="3"  format="ascii">0 0 0  50000 0 0  100000 0 0  150000 0 0  200000 0 0  250000 0 0  300000 0 0  350000 0 0  400000 0 0  450000 0 0  500000 0 0  550000 0 0  600000 0 0  650000 0 0  700000 0 0  750000 0 0  800000 0 0  850000 0 0  900000 0 0  950000 0 0  1000000 0 0  0 50000 0  50000 50000 0  100000 50000 0  150000 50000 0  200000 50000 0  250000 50000 0  300000 50000 0  350000 50000 0  400000 50000 0  450000 50000 0  500000 50000 0  550000 50000 0  600000 50000 0  650000 50000 0  700000 50000 0  750000 50000 0  800000 50000 0  850000 50000 0  900000 50000 0  950000 50000 0  1000000 50000 0  0 100000 0  50000 100000 0  100000 100000 0  150000 100000 0  200000 100000 0  250000 100000 0  300000 100000 0  350000 100000 0  400000 100000 0  450000 100000 0  500000 100000 0  550000 100000 0  600000 100000 0  650000 100000 0  700000 100000 0  750000 100000 0  800000 100000 0  850000 100000 0  900000 100000 0  950000 100000 0  1000000 100000 0  0 150000 0  50000 150000 0  100000 150000 0  150000 150000 0  200000 150000 0  250000 150000 0  300000 150000 0  350000 150000 0  400000 150000 0  450000 150000 0  500000 150000 0  550000 150000 0  600000 150000 0  650000 150000 0  700000 150000 0  750000 150000 0  800000 150000 0  850000 150000 0  900000 150000 0  950000 150000 0  1000000 150000 0  0 200000 0  50000 200000 0  100000 200000 0  150000 200000 0  200000 200000 0  250000 200000 0  300000 200000 0  350000 200000 0  400000 200000 0  450000 200000 0  500000 200000 0  550000 200000 0  600000 200000 0  650000 200000 0  700000 200000 0  750000 200000 0  800000 200000 0  850000 200000 0  900000 200000 0  950000 200000 0  1000000 200000 0  0 250000 0  50000 250000 0  100000 250000 0  150000 250000 0  200000 250000 0  250000 250000 0  300000 250000 0  350000 250000 0  400000 250000 0  450000 250000 0  500000 250000 0  550000 250000 0  600000 250000 0  650000 250000 0  700000 250000 0  750000 250000 0  800000 250000 0  850000 250000 0  900000 250000 0  950000 250000 0  1000000 250000 0  0 300000 0  50000 300000 0  100000 300000 0  150000 300000 0  200000 300000 0  250000 300000 0  300000 300000 0  350000 300000 0  400000 300000 0  450000 300000 0  500000 300000 0  550000 300000 0  600000 300000 0  650000 300000 0  700000 300000 0  750000 300000 0  800000 300000 0  850000 300000 0  900000 300000 0  950000 300000 0  1000000 300000 0  0 350000 0  50000 350000 0  100000 350000 0  150000 350000 0  200000 350000 0  250000 350000 0  300000 350000 0  350000 350000 0  400000 350000 0  450000 350000 0  500000 350000 0  550000 350000 0  600000 350000 0  650000 350000 0  700000 350000 0  750000 350000 0  800000 350000 0  850000 350000 0  900000 350000 0  950000 350000 0  1000000 350000 0  0 400000 0  50000 400000 0  100000 400000 0  150000 400000 0  200000 400000 0  250000 400000 0  300000 400000 0  350000 400000 0  400000 400000 0  450000 400000 0  500000 400000 0  550000 400000 0  600000 400000 0  650000 400000 0  700000 400000 0  750000 400000 0  800000 400000 0  850000 400000 0  900000 400000 0  950000 400000 0  1000000 400000 0  0 450000 0  50000 450000 0  100000 450000 0  150000 450000 0  200000 450000 0  250000 450000 0  300000 450000 0  350000 450000 0  400000 450000 0  450000 450000 0  500000 450000 0  550000 450000 0  600000 450000 0  650000 450000 0  700000 450000 0  750000 450000 0  800000 450000 0  850000 450000 0  900000 450000 0  950000 450000 0  1000000 450000 0  0 500000 0  50000 500000 0  100000 500000 0  150000 500000 0  200000 500000 0  250000 500000 0  300000 500000 0  350000 500000 0  400000 500000 0  450000 500000 0  500000 500000 0  550000 500000 0  600000 500000 0  650000 500000 0  700000 500000 0  750000 500000 0  800000 500000 0  850000 500000 0  900000 500000 0  950000 500000 0  1000000 500000 0  0 550000 0  50000 550000 0  100000 550000 0  150000 550000 0  200000 550000 0  250000 550000 0  300000 550000 0  350000 550000 0  400000 550000 0  450000 550000 0  500000 550000 0  550000 550000 0  600000 550000 0  650000 550000 0  700000 550000 0  750000 550000 0  800000 550000 0  850000 550000 0  900000 550000 0  950000 550000 0  1000000 550000 0  0 600000 0  50000 600000 0  100000 600000 0  150000 600000 0  200000 600000 0  250000 600000 0  300000 600000 0  350000 600000 0  400000 600000 0  450000 600000 0  500000 600000 0  550000 600000 0  600000 600000 0  650000 600000 0  700000 600000 0  750000 600000 0  800000 600000 0  850000 600000 0  900000 600000 0  950000 600000 0  1000000 600000 0  0 650000 0  50000 650000 0  100000 650000 0  150000 650000 0  200000 650000 0  250000 650000 0  300000 650000 0  350000 650000 0  400000 650000 0  450000 650000 0  500000 650000 0  550000 650000 0  600000 650000 0  650000 650000 0  700000 650000 0  750000 650000 0  800000 650000 0  850000 650000 0  900000 650000 0  950000 650000 0  1000000 650000 0  0 700000 0  50000 700000 0  100000 700000 0  150000 700000 0  200000 700000 0  250000 700000 0  300000 700000 0  350000 700000 0  400000 700000 0  450000 700000 0  500000 700000 0  550000 700000 0  600000 700000 0  650000 700000 0  700000 700000 0  750000 700000 0  800000 700000 0  850000 700000 0  900000 700000 0  950000 700000 0  1000000 700000 0  0 750000 0  50000 750000 0  100000 750000 0  150000 750000 0  200000 750000 0  250000 750000 0  300000 750000 0  350000 750000 0  400000 750000 0  450000 750000 0  500000 750000 0  550000 750000 0  600000 750000 0  650000 750000 0  700000 750000 0  750000 750000 0  800000 750000 0  850000 750000 0  900000 750000 0  950000 750000 0  1000000 750000 0  0 800000 0  50000 800000 0  100000 800000 0  150000 800000 0  200000 800000 0  250000 800000 0  300000 800000 0  350000 800000 0  400000 800000 0  450000 800000 0  500000 800000 0  550000 800000 0  600000 800000 0  650000 800000 0  700000 800000 0  750000 800000 0  800000 800000 0  850000 800000 0  900000 800000 0  950000 800000 0  1000000 800000 0  0 850000 0  50000 850000 0  100000 850000 0  150000 850000 0  200000 850000 0  250000 850000 0  300000 850000 0  350000 850000 0  400000 850000 0  450000 850000 0  500000 850000 0  550000 850000 0  600000 850000 0  650000 850000 0  700000 850000 0  750000 850000 0  800000 850000 0  850000 850000 0  900000 850000 0  950000 850000 0  1000000 850000 0  0 900000 0  50000 900000 0  100000 900000 0  150000 900000 0  200000 900000 0  250000 900000 0  300000 900000 0  350000 900000 0  400000 900000 0  450000 900000 0  500000 900000 0  550000 900000 0  600000 900000 0  650000 900000 0  700000 900000 0  750000 900000 0  800000 900000 0  850000 900000 0  900000 900000 0  950000 900000 0  1000000 900000 0  0 950000 0  50000 950000 0  100000 950000 0  150000 950000 0  200000 950000 0  250000 950000 0  300000 950000 0  350000 950000 0  400000 950000 0  450000 950000 0  500000 950000 0  550000 950000 0  600000 950000 0  650000 950000 0  700000 950000 0  750000 950000 0  800000 950000 0  850000 950000 0  900000 950000 0  950000 950000 0  1000000 950000 0  0 1000000 0  50000 1000000 0  100000 1000000 0  150000 1000000 0  200000 1000000 0  250000 1000000 0  300000 1000000 0  350000 1000000 0  400000 1000000 0  450000 1000000 0  500000 1000000 0  550000 1000000 0  600000 1000000 0  650000 1000000 0  700000 1000000 0  750000 1000000 0  800000 1000000 0  850000 1000000 0  900000 1000000 0  950000 1000000 0  1000000 1000000 0  0 1050000 0  50000 1050000 0  100000 1050000 0  150000 1050000 0  200000 1050000 0  250000 1050000 0  300000 1050000 0  350000 1050000 0  400000 1050000 0  450000 1050000 0  500000 1050000 0  550000 1050000 0  600000 1050000 0  650000 1050000 0  700000 1050000 0  750000 1050000 0  800000 1050000 0  850000 1050000 0  900000 1050000 0  950000 1050000 0  1000000 1050000 0  0 1100000 0  50000 1100000 0  100000 1100000 0  150000 1100000 0  200000 1100000 0  250000 1100000 0  300000 1100000 0  350000 1100000 0  400000 1100000 0  450000 1100000 0  500000 1100000 0  550000 1100000 0  600000 1100000 0  650000 1100000 0  700000 1100000 0  750000 1100000 0  800000 1100000 0  850000 1100000 0  900000 1100000 0  950000 1100000 0  1000000 1100000 0  0 1150000 0  50000 1150000 0  100000 1150000 0  150000 1150000 0  200000 1150000 0  250000 1150000 0  300000 1150000 0  350000 1150000 0  400000 1150000 0  450000 1150000 0  500000 1150000 0  550000 1150000 0  600000 1150000 0  650000 1150000 0  700000 1150000 0  750000 1150000 0  800000 1150000 0  850000 1150000 0  900000 1150000 0  950000 1150000 0  1000000 1150000 0  0 1200000 0  50000 1200000 0  100000 1200000 0  150000 1200000 0  200000 1200000 0  250000 1200000 0  300000 1200000 0  350000 1200000 0  400000 1200000 0  450000 1200000 0  500000 1200000 0  550000 1200000 0  600000 1200000 0  650000 1200000 0  700000 1200000 0  750000 1200000 0  800000 1200000 0  850000 1200000 0  900000 1200000 0  950000 1200000 0  1000000 1200000 0  0 1250000 0  50000 1250000 0  100000 1250000 0  150000 1250000 0  200000 1250000 0  250000 1250000 0  300000 1250000 0  350000 1250000 0  400000 1250000 0  450000 1250000 0  500000 1250000 0  550000 1250000 0  600000 1250000 0  650000 1250000 0  700000 1250000 0  750000 1250000 0  800000 1250000 0  850000 1250000 0  900000 1250000 0  950000 1250000 0  1000000 1250000 0  0 1300000 0  50000 1300000 0  100000 1300000 0  150000 1300000 0  200000 1300000 0  250000 1300000 0  300000 1300000 0  350000 1300000 0  400000 1300000 0  450000 1300000 0  500000 1300000 0  550000 1300000 0  600000 1300000 0  650000 1300000 0  700000 1300000 0  750000 1300000 0  800000 1300000 0  850000 1300000 0  900000 1300000 0  950000 1300000 0  1000000 1300000 0  0 1350000 0  50000 1350000 0  100000 1350000 0  150000 1350000 0  200000 1350000 0  250000 1350000 0  300000 1350000 0  350000 1350000 0  400000 1350000 0  450000 1350000 0  500000 1350000 0  550000 1350000 0  600000 1350000 0  650000 1350000 0  700000 135
[...]
<PointData  Vectors="f_4501"> 
<DataArray  type="Float64"  Name="f_4501"  NumberOfComponents="3" format="ascii">-1.2199775577185300e-09 -8.7907434070256414e-10 0.0000000000000000e+00  7.9082621961687945e-08 -7.0697619444578566e-10 0.0000000000000000e+00  7.9752583326667013e-08 -7.6395474521513905e-11 0.0000000000000000e+00  7.9736836124591064e-08 -1.4541650741335154e-11 0.0000000000000000e+00  7.9812430753063891e-08 -1.1004655820021866e-11 0.0000000000000000e+00  7.9844967903562560e-08 -4.9145500611219865e-12 0.0000000000000000e+00  7.9864040859944157e-08 -2.8468740332549005e-12 0.0000000000000000e+00  7.9876024693059180e-08 -1.6622751296122031e-12 0.0000000000000000e+00  7.9883047105767813e-08 -8.0410457436701770e-13 0.0000000000000000e+00  7.9886405249597136e-08 -9.6378936371875270e-14 0.0000000000000000e+00  7.9886646136465695e-08 5.9421898336683484e-13 0.0000000000000000e+00  7.9883807641848127e-08 1.3857000252681865e-12 0.0000000000000000e+00  7.9877448388884544e-08 2.4313993889815281e-12 0.0000000000000000e+00  7.9866470037172868e-08 4.0032932670789317e-12 0.0000000000000000e+00  7.9848602428217958e-08 6.5908926558708424e-12 0.0000000000000000e+00  7.9820011647705537e-08 1.1034374276226149e-11 0.0000000000000000e+00  7.9767860579727347e-08 2.6306199667156291e-11 0.0000000000000000e+00  7.9647749498780105e-08 5.6583338625115060e-11 0.0000000000000000e+00  7.9571179917061428e-08 5.0853252246092605e-11 0.0000000000000000e+00  7.7274352979405007e-08 2.4134278913714538e-09 0.0000000000000000e+00  -3.3944872190289511e-09 2.9412266446573496e-09 0.0000000000000000e+00  -9.2332547824127224e-10 -8.2980109315392456e-10 0.0000000000000000e+00  -1.4144032195200845e-08 -1.0711496225281700e-08 0.0000000000000000e+00  -6.8093184890451539e-09 -3.7984334152218524e-09 0.0000000000000000e+00  -5.2302858390425093e-09 -1.6428232113237640e-09 0.0000000000000000e+00  -3.4973531028453411e-09 -9.2179488090258092e-10 0.0000000000000000e+00  -2.6380516756529591e-09 -5.4255125358581176e-10 0.0000000000000000e+00  -2.0922939949117060e-09 -3.4313954039319750e-10 0.0000000000000000e+00  -1.7439581620924488e-09 -2.1982709655595213e-10 0.0000000000000000e+00  -1.5280874821624395e-09 -1.3436623327868145e-10 0.0000000000000000e+00  -1.4100514624459679e-09 -6.8084927528928616e-11 0.0000000000000000e+00  -1.3729852703923035e-09 -9.8816024254937452e-12 0.0000000000000000e+00  -1.4118581963498498e-09 4.8521541031875827e-11 0.0000000000000000e+00  -1.5318310864934662e-09 1.1544592968708961e-10 0.0000000000000000e+00  -1.7498516405825152e-09 2.0214776886077929e-10 0.0000000000000000e+00  -2.1004648155098626e-09 3.2776473569791158e-10 0.0000000000000000e+00  -2.6497141820488420e-09 5.3113761842561818e-10 0.0000000000000000e+00  -3.5220631383825270e-09 9.0384213317649042e-10 0.0000000000000000e+00  -4.9457790614722216e-09 1.6809335523094076e-09 0.0000000000000000e+00  -8.0218794590860193e-09 3.7497889631922422e-09 0.0000000000000000e+00  -1.1855930212504360e-08 1.1940312846789748e-08 0.0000000000000000e+00  -2.5968941336498279e-09 2.5042191190538994e-09 0.0000000000000000e+00  -1.7352848795376660e-10 -2.9037994522949511e-10 0.0000000000000000e+00  -4.3318740637052304e-09 -8.5739706907096419e-09 0.0000000000000000e+00  -5.3674886975776575e-09 -5.4908808051016292e-09 0.0000000000000000e+00  -5.1964605742187848e-09 -3.1016236934636463e-09 0.0000000000000000e+00  -4.3148647749599243e-09 -1.7979669624705433e-09 0.0000000000000000e+00  -3.7757469016596483e-09 -1.1184074741520891e-09 0.0000000000000000e+00  -3.3645506865034380e-09 -7.1792455438019828e-10 0.0000000000000000e+00  -3.0839763953606020e-09 -4.5695208589373251e-10 0.0000000000000000e+00  -2.9027166859805082e-09 -2.7087005340939765e-10 0.0000000000000000e+00  -2.8008894182993185e-09 -1.2399668379095971e-10 0.0000000000000000e+00  -2.7677442242143301e-09 5.9123367490037373e-12 0.0000000000000000e+00  -2.7997947235092209e-09 1.3588715829249526e-10 0.0000000000000000e+00  -2.9001773619006493e-09 2.8293134267492643e-10 0.0000000000000000e+00  -3.0790728607491656e-09 4.6914015752549218e-10 0.0000000000000000e+00  -3.3549376325450958e-09 7.2962610532540780e-10 0.0000000000000000e+00  -3.7551916177701758e-09 1.1284116800903654e-09 0.0000000000000000e+00  -4.3108382323302866e-09 1.7944085459824625e-09 0.0000000000000000e+00  -5.0346289967684073e-09 3.0138275176343311e-09 0.0000000000000000e+00  -5.5119474272478164e-09 5.4187353249432422e-09 0.0000000000000000e+00  -3.8664268661652285e-09 9.6190703122301409e-09 0.0000000000000000e+00  -1.8900954571445832e-10 3.9320955315464723e-10 0.0000000000000000e+00  -2.4961946678465932e-11 -2.2880922537009422e-10 0.0000000000000000e+00  -1.8775753143836305e-09 -6.3777773605546090e-09 0.0000000000000000e+00  -3.4865907521044131e-09 -4.9060515779964143e-09 0.0000000000000000e+00  -3.8335178659626303e-09 -3.2928618933245006e-09 0.0000000000000000e+00  -3.7664860765794719e-09 -2.1817874400965650e-09 0.0000000000000000e+00  -3.5651767069608705e-09 -1.4714827748780910e-09 0.0000000000000000e+00  -3.3488772403363153e-09 -9.8630794686087609e-10 0.0000000000000000e+00  -3.1768858904697665e-09 -6.4607873391434236e-10 0.0000000000000000e+00  -3.0557619128593787e-09 -3.9120888575517251e-10 0.0000000000000000e+00  -2.9843315607281320e-09 -1.8368846624116577e-10 0.0000000000000000e+00  -2.9604363383157341e-09 2.6428027645650511e-12 0.0000000000000000e+00  -2.9830739977120910e-09 1.8896409690136964e-10 0.0000000000000000e+00  -3.0529922560718594e-09 3.9640640317515731e-10 0.0000000000000000e+00  -3.1720897398703912e-09 6.5092621767894750e-10 0.0000000000000000e+00  -3.3408915888844682e-09 9.8980162463770661e-10 0.0000000000000000e+00  -3.5509718273313233e-09 1.4716632119166448e-09 0.0000000000000000e+00  -3.7630901954563938e-09 2.1910258623925916e-09 0.0000000000000000e+00  -3.8387335482150724e-09 3.2855774391164937e-09 0.0000000000000000e+00  -3.3985861927476311e-09 4.8489088576534373e-09 0.0000000000000000e+00  -1.8727475153276838e-09 6.2984238108164112e-09 0.0000000000000000e+00  -4.2451564126978270e-11 3.1957333483459571e-10 0.0000000000000000e+00  -1.1938447853482364e-11 -1.6292003963996368e-10 0.0000000000000000e+00  -1.0678108837373830e-09 -4.5949889525006263e-09 0.0000000000000000e+00  -2.1851273251140193e-09 -3.9514912025771345e-09 0.0000000000000000e+00  -2.7628620981601406e-09 -3.0333404472507808e-09 0.0000000000000000e+00  -2.9920514058243576e-09 -2.2287950748376543e-09 0.0000000000000000e+00  -3.0191101332156591e-09 -1.5938533037616852e-09 0.0000000000000000e+00  -2.9672853644743986e-09 -1.1169272945891365e-09 0.0000000000000000e+00  -2.8991898730477749e-09 -7.5406512700446103e-10 0.0000000000000000e+00  -2.8403139640901649e-09 -4.6603245326424004e-10 0.0000000000000000e+00  -2.8019806556471162e-09 -2.2264482302713831e-10 0.0000000000000000e+00  -2.7884858916738221e-09 -8.1208309401425652e-14 0.0000000000000000e+00  -2.8008635145909185e-09 2.2238030070062051e-10 0.0000000000000000e+00  -2.8379792183405599e-09 4.6541399342204799e-10 0.0000000000000000e+00  -2.8955394311500605e-09 7.5270258408181849e-10 0.0000000000000000e+00  -2.9624585768784818e-09 1.1140607956133762e-09 0.0000000000000000e+00  -3.0124840938068578e-09 1.5877262191087776e-09 0.0000000000000000e+00  -2.9871563670772156e-09 2.2172082737805305e-09 0.0000000000000000e+00  -2.7687336133990125e-09 3.0262327211994900e-09 0.0000000000000000e+00  -2.1736543134163298e-09 3.9348530998423589e-09 0.0000000000000000e+00  -1.0871214953380487e-09 4.6121308212717342e-09 0.0000000000000000e+00  -2.8195236726423765e-11 2.1306248632243863e-10 0.0000000000000000e+00  -6.7938961995980179e-12 -1.2076936241771814e-10 0.0000000000000000e+00  -6.8939630793751419e-10 -3.4998654379026465e-09 0.0000000000000000e+00  -1.4905212910101717e-09 -3.1879961827126835e-09 0.0000000000000000e+00  -2.0400441612375088e-09 -2.6316887448121917e-09 0.0000000000000000e+00  -2.3582526358035932e-09 -2.0593769000059514e-09 0.0000000000000000e+00  -2.5078315945205742e-09 -1.5534626162613370e-09 0.0000000000000000e+00  -2.5648991929590786e-09 -1.1325936393180065e-09 0.0000000000000000e+00  -2.5760435191533030e-09 -7.8600860112738899e-10 0.0000000000000000e+00  -2.5695170403908541e-09 -4.9452865815509542e-10 0.0000000000000000e+00  -2.5606484415499825e-09 -2.3867603063327117e-10 0.0000000000000000e+00  -2.5567154573069595e-09 -1.5884471969091598e-13 0.0000000000000000e+00  -2.5598393902998010e-09 2.3823771080177875e-10 0.0000000000000000e+00  -2.5679102030109537e-09 4.9370005646331300e-10 0.0000000000000000e+00  -2.5737409911520152e-09 7.8443162633491467e-10 0.0000000000000000e+00  -2.5622828411926573e-09 1.1299510362448671e-09 0.0000000000000000e+00  -2.5055122899492111e-09 1.5490522024740259e-09 0.0000000000000000e+00  -2.3557003766169459e-09 2.0518198373909584e-09 0.0000000000000000e+00  -2.0428113810403499e-09 2.6195537815398406e-09 0.0000000000000000e+00  -1.4936220590803740e-09 3.1730380812019738e-09 0.0000000000000000e+00  -7.0360452387663809e-10 3.5216462289328821e-09 0.0000000000000000e+00  -1.3165738440378827e-11 1.5122673541333679e-10 0.0000000000000000e+00  -4.5157803548549740e-12 -9.3568363002398344e-11 0.0000000000000000e+00  -4.8880065649315926e-10 -2.7426194484269076e-09 0.0000000000000000e+00  -1.0913914474861995e-09 -2.5710616862700692e-09 0.0000000000000000e+00  -1.5616927693849260e-09 -2.2169869574869003e-09 0.0000000000000000e+00  -1.8870429566858017e-09 -1.8159821131054017e-09 0.0000000000000000e+00  -2.0898332212120970e-09 -1.4261588324967091e-09 0.0000000000000000e+00  -2.2071193916735788e-09 -1.0736607821730954e-09 0.0000000000000000e+00  -2.2701795456090263e-09 -7.6298703144650177e-10 0.0000000000000000e+00  -2.3015689655600494e-09 -4.8795587710525083e-10 0.0000000000000000e+00  -2.3153443788935327e-09 -2.3783112084327695e-10 0.0000000000000000e+00  -2.3189855336371022e-09 -3.8355373073628408e-13 0.0000000000000000e+00  -2.3148331535533749e-09 2.3695519294077572e-10 0.0000000000000000e+00  -2.3006041037943310e-09 4.8673891582652739e-10 0.0000000000000000e+00  -2.2689058543240810e-09 7.6116703776695326e-10 0.0000000000000000e+00  -2.2058259844301208e-09 1.0709419854511764e-09 0.0000000000000000e+00  -2.0890560611911939e-09 1.4222280726913258e-09 0.0000000000000000e+00  -1.8872282429185768e-09 1.8103309493975796e-09 0.0000000000000000e+00  -1.5642605832893090e-09 2.2095214561619782e-09 0.0000000000000000e+00  -1.0946904758587673e-09 2.5634852138528429e-09 0.0000000000000000e+00  -4.9845536903435773e-10 2.7596937538644889e-09 0.0000000000000000e+00  -8.2070666696133326e-12 1.1492911677053197e-10 0.0000000000000000e+00  -3.3621506162960200e-12 -7.3632631071388461e-11 0.0000000000000000e+00  -3.6978713411255238e-10 -2.1793625290700299e-09 0.0000000000000000e+00  -8.4078819806491073e-10 -2.0782855659088546e-09 0.0000000000000000e+00  -1.2368967047738983e-09 -1.8419979071002886e-09 0.0000000000000000e+00  -1.5411599641196880e-09 -1.5562587384352559e-09 0.0000000000000000e+00  -1.7573186434643052e-09 -1.2585046939271224e-09 0.0000000000000000e+00  -1.9026300978463742e-09 -9.7129033895748476e-10 0.0000000000000000e+00  -1.9953928151884366e-09 -7.0379651458613411e-10 0.0000000000000000e+00  -2.0509711656721692e-09 -4.5639066284357052e-10 0.0000000000000000e+00  -2.0801308439866643e-09 -2.2438328749308419e-10 0.0000000000000000e+00  -2.0890787017224510e-09 -6.0718925743562693e-13 0.0000000000000000e+00  -2.0798465010366485e-09 2.2308325274154476e-10 0.0000000000000000e+00  -2.0504652071266564e-09 4.5483107474327747e-10 0.0000000000000000e+00  -1.9947976449802353e-09 7.0179518527543827e-10 0.0000000000000000e+00  -1.9021718714019464e-09 9.6864589360221301e-10 0.0000000000000000e+00  -1.7573574242906997e-09 1.2550462036423297e-09 0.0000000000000000e+00  -1.5420694941393355e-09 1.5519392977800128e-09 0.0000000000000000e+00  -1.2395446617820164e-09 1.8373334618005365e-09 0.0000000000000000e+00  -8.4366379962994031e-10 2.0743478819190702e-09 0.0000000000000000e+00  -3.7656183994998129e-10 2.1930820798703988e-09 0.0000000000000000e+00  -5.6522219957119517e-12 8.9489856856293312e-11 0.0000000000000000e+00  -2.6508521904990235e-12 -5.8218744452762574e-11 0.0000000000000000e+00  -2.9319726954706968e-10 -1.7395547284229184e-09 0.0000000000000000e+00  -6.7420268666368229e-10 -1.6768818364588630e-09 0.0000000000000000e+00  -1.0097522499269414e-09 -1.5130093102517329e-09 0.0000000000000000e+00  -1.2847294499294421e-09 -1.3054818610926923e-09 0.0000000000000000e+00  -1.4959026454342223e-09 -1.0781018198926817e-09 0.0000000000000000e+00  -1.6501483304333197e-09 -8.4780382793324624e-10 0.0000000000000000e+00  -1.7570992236382757e-09 -6.2376342336166517e-10 0.0000000000000000e+00  -1.8261312401796398e-09 -4.0904012392229337e-10 0.0000000000000000e+00  -1.8645265865292915e-09 -2.0253722917264805e-10 0.0000000000000000e+00  -1.8767748104572175e-09 -7.2174520084615082e-13 0.0000000000000000e+00  -1.8643957702523483e-09 2.0103271945998927e-10 0.0000000000000000e+00  -1.8259216757136482e-09 4.0735357043860655e-10 0.0000000000000000e+00  -1.7569190541309616e-09 6.2177661701781902e-10 0.0000000000000000e+00  -1.6501680816171960e-09 8.4541091511303487e-10 0.0000000000000000e+00  -1.4963557902101331e-09 1.0752395365589768e-09 0.0000000000000000e+00  -1.2858763762695520e-09 1.3022492572899877e-09 0.0000000000000000e+00  -1.0121155207734407e-09 1.5099824154889863e-09 0.0000000000000000e+00  -6.7646856820905169e-10 1.6747345525983884e-09 0.0000000000000000e+00  -2.9814549250526131e-10 1.7507643490530877e-09 0.0000000000000000e+00  -4.1647620977612511e-12 7.0596837537166576e-11 0.0000000000000000e+00  -2.1826383915044407e-12 -4.5778830228071233e-11 0.0000000000000000e+00  -2.4126965397714097e-10 -1.3825588408201289e-09 0.0000000000000000e+00  -5.5880357127925731e-10 -1.3423024600950207e-09 0.0000000000000000e+00  -8.4691868300995972e-10 -1.2255707735407936e-09 0.0000000000000000e+00  -1.0930937740931786e-09 -1.0728526414800543e-09 0.0000000000000000e+00  -1.2918730921359312e-09 -8.9935927143347282e-10 0.0000000000000000e+00  -1.4448625513837577e-09 -7.1711052583746514e-10 0.0000000000000000e+00  -1.5563577105276404e-09 -5.3377096934805252e-10 0.0000000000000000e+00  -1.6314643862044555e-09 -3.5309699350622938e-10 0.0000000000000000e+00  -1.6745848672626162e-09 -1.7583540516811266e-10 0.0000000000000000e+00  -1.6886095778038307e-09 -7.7401708280551486e-13 0.0000000000000000e+00  -1.6745490071779558e-09 1.7424741582357109e-10 0.0000000000000000e+00  -1.6314328142865154e-09 3.5139194414669965e-10 0.0000000000000000e+00  -1.5564112831481509e-09 5.3188200187692311e-10 0.0000000000000000e+00  -1.4451223630646895e-09 7.1499303962320127e-10 0.0000000000000000e+00  -1.2924976926892807e-09 8.9701872002348713e-10 0.0000000000000000e+00  -1.0942359471262245e-09 1.0704307814164893e-09 0.0000000000000000e+00  -8.4887014672431249e-10 1.2235403349351001e-09 0.0000000000000000e+00  -5.6051492318359707e-10 1.3410584136076898e-09 0.0000000000000000e+00  -2.4495470321819541e-10 1.3919055956833651e-09 0.0000000000000000e+00  -3.2273205380549242e-12 5.5835103558867567e-11 0.0000000000000000e+00  -1.8651650825081349e-12 -3.5369197830907182e-11 0.0000000000000000e+00  -2.0494463747723927e-10 -1.0832039908056174e-09 0.0000000000000000e+00  -4.7683918670690184e-10 -1.0568839212831462e-09 0.0000000000000000e+00  -7.2850113427920320e-10 -9.7272535408861478e-10 0.0000000000000000e+00  -9.4956211348866966e-10 -8.6005111208903298e-10 0.0000000000000000e+00  -1.1341170618471131e-09 -7.2866360782999692e-10 0.0000000000000000e+00  -1.2811608330669598e-09 -5.8688970424166507e-10 0.0000000000000000e+00  -1.3918719679462251e-09 -4.4063820395422498e-10 0.0000000000000000e+00  -1.4685285071665866e-09 -2.9343452307478296e-10 0.0000000000000000e+00  -1.5134292972230614e-09 -1.4678669664825232e-10 0.0000000000000000e+00  -1.5282046484285332e-09 -7.8787106658773106e-13 0.0000000000000000e+00  -1.5134461567806689e-09 1.4518776415392778e-10 0.0000000000000000e+00  -1.4685913929921788e-09 2.9176969388934299e-10 0.0000000000000000e+00  -1.3920382206075313e-09 4.3887684501371356e-10 0.0000000000000000e+00  -1.2815139506040866e-09 5.8502493611414660e-10 0.0000000000000000e+00  -1.1347580217325980e-09 7.2673280029844014e-10 0.0000000000000000e+00  -9.5057327988510367e-10 8.5819124121937109e-10 0.0000000000000000e+00  -7.3004439174246176e-10 9.7130311079480636e-10 0.0000000000000000e+00  -4.7810697703937139e-10 1.0561206000801505e-09 0.0000000000000000e+00  -2.0769802564361714e-10 1.0911814679488900e-09 0.0000000000000000e+00  -2.6014932415175539e-12 4.3822858846349424e-11 0.0000000000000000e+00  -1.6495872514315749e-12 -2.6375599553506669e-11 0.0000000000000000e+00  -1.7925625536773397e-10 -8.2474890871511510e-10 0.0000000000000000e+00  -4.1821776385268219e-10 -8.0766982872206554e-10 0.0000000000000000e+00  -6.4240996841453437e-10 -7.4740747995826538e-10 0.0000000000000000e+00  -8.4300918461644923e-10 -6.6539599024820425e-10 0.0000000000000000e+00  -1.0142771553595016e-09 -5.6796018548392451e-10 0.0000000000000000e+00  -1.1539468754409633e-09 -4.6076385458789622e-10 0.0000000000000000e+00  -1.2614306469625362e-09 -3.4813415400763030e-10 0.0000000000000000e+00  -1.3372322645513408e-09 -2.3299146161860922e-10 0.0000000000000000e+00  -1.3822259310220496e-09 -1.1697640727177605e-10 0.0000000000000000e+00  -1.3971426590330371e-09 -7.8037671309320863e-13 0.0000000000000000e+00  -1.3822661771376573e-09 1.1540500148837689e-10 0.0000000000000000e+00  -1.3373329393675479e-09 2.3139172292079335e-10 0.0000000000000000e+00  -1.2616307839724864e-09 3.4649977396490865e-10 0.0000000000000000e+00  -1.1543009842176507e-09 4.5910912941535999e-10 0.0000000000000000e+00  -1.0148464096249087e-09 5.6633271986218103e-10 0.0000000000000000e+00  -8.4383471370890753e-10 6.6391371450552502e-10 0.0000000000000000e+00  -6.4358306367946547e-10 7.4635703877267309e-10 0.0000000000000000e+00  -4.1913720073889500e-10 8.0717207740379219e-10 0.0000000000000000e+00  -1.8128336953590671e-10 8.3173086354573160e-10 0.0000000000000000e+00  -2.1686400107530535e-12 3.3706987404174165e-11 0.0000000000000000e+00  -1.5096502918206072e-12 -1.8363921046961880e-11 0.0000000000000000e+00  -1.6135253751802300e-10 -5.9526251799086031e-10 0.0000000000000000e+00  -3.7698849361449840e-10 -5.8476011253158485e-10 0.0000000000000000e+00  -5.8117389981880378e-10 -5.4312140984366654e-10 0.0000000000000000e+00  -7.6609903207222650e-10 -4.8580225713340875e-10 0.0000000000000000e+00  -9.2635368896027151e-10 -4.1679947211634068e-10 0.0000000000000000e+00  -1.0590818307466793e-09 -3.3984455108361342e-10 0.0000000000000000e+00  -1.1627228650932060e-09 -2.5793562388191929e-10 0.0000000000000000e+00  -1.2367142501832572e-09 -1.7326852452057427e-10 0.0000000000000000e+00  -1.2810221602707824e-09 -8.7268391915203921e-11 0.0000000000000000e+00  -1.2957810875212966e-09 -7.6395396387311109e-13 0.0000000000000000e+00  -1.2810661992637979e-09 8.5738613102321583e-11 0.0000000000000000e+00  -1.2368155584833577e-09 1.7173629994905909e-10 0.0000000000000000e+00  -1.1629065021910023e-09 2.5641000780761935e-10 0.0000000000000000e+00  -1.0593814853121906e-09 3.3835065261371612e-10 0.0000000000000000e+00  -9.2680457833535452e-10 4.1538570169055686e-10 0.0000000000000000e+00  -7.6671987369973244e-10 4.8456740703148148e-10 0.0000000000000000e+00  -5.8201665156024719e-10 5.4229744140967205e-10 0.0000000000000000e+00  -3.7762774864584162e-10 5.8441166338610003e-10 0.0000000000000000e+00  -1.6278289859189784e-10 6.0153864177955058e-10 0.0000000000000000e+00  -1.8647298623995604e-12 2.4917443499980878e-11 0.0000000000000000e+00  -1.4310369183406778e-12 -1.1002800271386621e-11 0.0000000000000000e+00  -1.4955742911808513e-10 -3.8564626216526891e-10 0.0000000000000000e+00  -3.4958462129197531e-10 -3.8021542059972882e-10 0.0000000000000000e+00  -5.4016347165878093e-10 -3.5401028450845214e-10 0.0000000000000000e+00  -7.1407035521902349e-10 -3.1764930215797279e-10 0.0000000000000000e+00  -8.6620712315479442e-10 