<?xml version="1.0"?>
<VTKFile type="UnstructuredGrid"  version="0.1"  >
<UnstructuredGrid>
<Piece  NumberOfPoints="651" NumberOfCells="1200">
<Points>
<DataArray  type="Float64"  NumberOfComponents="3"  format="ascii">0 0 0  50000 0 0  100000 0 0  150000 0 0  200000 0 0  250000 0 0  300000 0 0  350000 0 0  400000 0 0  450000 0 0  500000 0 0  550000 0 0  600000 0 0  650000 0 0  700000 0 0  750000 0 0  800000 0 0  850000 0 0  900000 0 0  950000 0 0  1000000 0 0  0 50000 0  50000 50000 0  100000 50000 0  150000 50000 0  200000 50000 0  250000 50000 0  300000 50000 0  350000 50000 0  400000 50000 0  450000 50000 0  500000 50000 0  550000 50000 0  600000 50000 0  650000 50000 0  700000 50000 0  750000 50000 0  800000 50000 0  850000 50000 0  900000 50000 0  950000 50000 0  1000000 50000 0  0 100000 0  50000 100000 0  100000 100000 0  150000 100000 0  200000 100000 0  250000 100000 0  300000 100000 0  350000 100000 0  400000 100000 0  450000 100000 0  500000 100000 0  550000 100000 0  600000 100000 0  650000 100000 0  700000 100000 0  750000 100000 0  800000 100000 0  850000 100000 0  900000 100000 0  950000 100000 0  1000000 100000 0  0 150000 0  50000 150000 0  100000 150000 0  150000 150000 0  200000 150000 0  250000 150000 0  300000 150000 0  350000 150000 0  400000 150000 0  450000 150000 0  500000 150000 0  550000 150000 0  600000 150000 0  650000 150000 0  700000 150000 0  750000 150000 0  800000 150000 0  850000 150000 0  900000 150000 0  950000 150000 0  1000000 150000 0  0 200000 0  50000 200000 0  100000 200000 0  150000 200000 0  200000 200000 0  250000 200000 0  300000 200000 0  350000 200000 0  400000 200000 0  450000 200000 0  500000 200000 0  550000 200000 0  600000 200000 0  650000 200000 0  700000 200000 0  750000 200000 0  800000 200000 0  850000 200000 0  900000 200000 0  950000 200000 0  1000000 200000 0  0 250000 0  50000 250000 0  100000 250000 0  150000 250000 0  200000 250000 0  250000 250000 0  300000 250000 0  350000 250000 0  400000 250000 0  450000 250000 0  500000 250000 0  550000 250000 0  600000 250000 0  650000 250000 0  700000 250000 0  750000 250000 0  800000 250000 0  850000 250000 0  900000 250000 0  950000 250000 0  1000000 250000 0  0 300000 0  50000 300000 0  100000 300000 0  150000 300000 0  200000 300000 0  250000 300000 0  300000 300000 0  350000 300000 0  400000 300000 0  450000 300000 0  500000 300000 0  550000 300000 0  600000 300000 0  650000 300000 0  700000 300000 0  750000 300000 0  800000 300000 0  850000 300000 0  900000 300000 0  950000 300000 0  1000000 300000 0  0 350000 0  50000 350000 0  100000 350000 0  150000 350000 0  200000 350000 0  250000 350000 0  300000 350000 0  350000 350000 0  400000 350000 0  450000 350000 0  500000 350000 0  550000 350000 0  600000 350000 0  650000 350000 0  700000 350000 0  750000 350000 0  800000 350000 0  850000 350000 0  900000 350000 0  950000 350000 0  1000000 350000 0  0 400000 0  50000 400000 0  100000 400000 0  150000 400000 0  200000 400000 0  250000 400000 0  300000 400000 0  350000 400000 0  400000 400000 0  450000 400000 0  500000 400000 0  550000 400000 0  600000 400000 0  650000 400000 0  700000 400000 0  750000 400000 0  800000 400000 0  850000 400000 0  900000 400000 0  950000 400000 0  1000000 400000 0  0 450000 0  50000 450000 0  100000 450000 0  150000 450000 0  200000 450000 0  250000 450000 0  300000 450000 0  350000 450000 0  400000 450000 0  450000 450000 0  500000 450000 0  550000 450000 0  600000 450000 0  650000 450000 0  700000 450000 0  750000 450000 0  800000 450000 0  850000 450000 0  900000 450000 0  950000 450000 0  1000000 450000 0  0 500000 0  50000 500000 0  100000 500000 0  150000 500000 0  200000 500000 0  250000 500000 0  300000 500000 0  350000 500000 0  400000 500000 0  450000 500000 0  500000 500000 0  550000 500000 0  600000 500000 0  650000 500000 0  700000 500000 0  750000 500000 0  800000 500000 0  850000 500000 0  900000 500000 0  950000 500000 0  1000000 500000 0  0 550000 0  50000 550000 0  100000 550000 0  150000 550000 0  200000 550000 0  250000 550000 0  300000 550000 0  350000 550000 0  400000 550000 0  450000 550000 0  500000 550000 0  550000 550000 0  600000 550000 0  650000 550000 0  700000 550000 0  750000 550000 0  800000 550000 0  850000 550000 0  900000 550000 0  950000 550000 0  1000000 550000 0  0 600000 0  50000 600000 0  100000 600000 0  150000 600000 0  200000 600000 0  250000 600000 0  300000 600000 0  350000 600000 0  400000 600000 0  450000 600000 0  500000 600000 0  550000 600000 0  600000 600000 0  650000 600000 0  700000 600000 0  750000 600000 0  800000 600000 0  850000 600000 0  900000 600000 0  950000 600000 0  1000000 600000 0  0 650000 0  50000 650000 0  100000 650000 0  150000 650000 0  200000 650000 0  250000 650000 0  300000 650000 0  350000 650000 0  400000 650000 0  450000 650000 0  500000 650000 0  550000 650000 0  600000 650000 0  650000 650000 0  700000 650000 0  750000 650000 0  800000 650000 0  850000 650000 0  900000 650000 0  950000 650000 0  1000000 650000 0  0 700000 0  50000 700000 0  100000 700000 0  150000 700000 0  200000 700000 0  250000 700000 0  300000 700000 0  350000 700000 0  400000 700000 0  450000 700000 0  500000 700000 0  550000 700000 0  600000 700000 0  650000 700000 0  700000 700000 0  750000 700000 0  800000 700000 0  850000 700000 0  900000 700000 0  950000 700000 0  1000000 700000 0  0 750000 0  50000 750000 0  100000 750000 0  150000 750000 0  200000 750000 0  250000 750000 0  300000 750000 0  350000 750000 0  400000 750000 0  450000 750000 0  500000 750000 0  550000 750000 0  600000 750000 0  650000 750000 0  700000 750000 0  750000 750000 0  800000 750000 0  850000 750000 0  900000 750000 0  950000 750000 0  1000000 750000 0  0 800000 0  50000 800000 0  100000 800000 0  150000 800000 0  200000 800000 0  250000 800000 0  300000 800000 0  350000 800000 0  400000 800000 0  450000 800000 0  500000 800000 0  550000 800000 0  600000 800000 0  650000 800000 0  700000 800000 0  750000 800000 0  800000 800000 0  850000 800000 0  900000 800000 0  950000 800000 0  1000000 800000 0  0 850000 0  50000 850000 0  100000 850000 0  150000 850000 0  200000 850000 0  250000 850000 0  300000 850000 0  350000 850000 0  400000 850000 0  450000 850000 0  500000 850000 0  550000 850000 0  600000 850000 0  650000 850000 0  700000 850000 0  750000 850000 0  800000 850000 0  850000 850000 0  900000 850000 0  950000 850000 0  1000000 850000 0  0 900000 0  50000 900000 0  100000 900000 0  150000 900000 0  200000 900000 0  250000 900000 0  300000 900000 0  350000 900000 0  400000 900000 0  450000 900000 0  500000 900000 0  550000 900000 0  600000 900000 0  650000 900000 0  700000 900000 0  750000 900000 0  800000 900000 0  850000 900000 0  900000 900000 0  950000 900000 0  1000000 900000 0  0 950000 0  50000 950000 0  100000 950000 0  150000 950000 0  200000 950000 0  250000 950000 0  300000 950000 0  350000 950000 0  400000 950000 0  450000 950000 0  500000 950000 0  550000 950000 0  600000 950000 0  650000 950000 0  700000 950000 0  750000 950000 0  800000 950000 0  850000 950000 0  900000 950000 0  950000 950000 0  1000000 950000 0  0 1000000 0  50000 1000000 0  100000 1000000 0  150000 1000000 0  200000 1000000 0  250000 1000000 0  300000 1000000 0  350000 1000000 0  400000 1000000 0  450000 1000000 0  500000 1000000 0  550000 1000000 0  600000 1000000 0  650000 1000000 0  700000 1000000 0  750000 1000000 0  800000 1000000 0  850000 1000000 0  900000 1000000 0  950000 1000000 0  1000000 1000000 0  0 1050000 0  50000 1050000 0  100000 1050000 0  150000 1050000 0  200000 1050000 0  250000 1050000 0  300000 1050000 0  350000 1050000 0  400000 1050000 0  450000 1050000 0  500000 1050000 0  550000 1050000 0  600000 1050000 0  650000 1050000 0  700000 1050000 0  750000 1050000 0  800000 1050000 0  850000 1050000 0  900000 1050000 0  950000 1050000 0  1000000 1050000 0  0 1100000 0  50000 1100000 0  100000 1100000 0  150000 1100000 0  200000 1100000 0  250000 1100000 0  300000 1100000 0  350000 1100000 0  400000 1100000 0  450000 1100000 0  500000 1100000 0  550000 1100000 0  600000 1100000 0  650000 1100000 0  700000 1100000 0  750000 1100000 0  800000 1100000 0  850000 1100000 0  900000 1100000 0  950000 1100000 0  1000000 1100000 0  0 1150000 0  50000 1150000 0  100000 1150000 0  150000 1150000 0  200000 1150000 0  250000 1150000 0  300000 1150000 0  350000 1150000 0  400000 1150000 0  450000 1150000 0  500000 1150000 0  550000 1150000 0  600000 1150000 0  650000 1150000 0  700000 1150000 0  750000 1150000 0  800000 1150000 0  850000 1150000 0  900000 1150000 0  950000 1150000 0  1000000 1150000 0  0 1200000 0  50000 1200000 0  100000 1200000 0  150000 1200000 0  200000 1200000 0  250000 1200000 0  300000 1200000 0  350000 1200000 0  400000 1200000 0  450000 1200000 0  500000 1200000 0  550000 1200000 0  600000 1200000 0  650000 1200000 0  700000 1200000 0  750000 1200000 0  800000 1200000 0  850000 1200000 0  900000 1200000 0  950000 1200000 0  1000000 1200000 0  0 1250000 0  50000 1250000 0  100000 1250000 0  150000 1250000 0  200000 1250000 0  250000 1250000 0  300000 1250000 0  350000 1250000 0  400000 1250000 0  450000 1250000 0  500000 1250000 0  550000 1250000 0  600000 1250000 0  650000 1250000 0  700000 1250000 0  750000 1250000 0  800000 1250000 0  850000 1250000 0  900000 1250000 0  950000 1250000 0  1000000 1250000 0  0 1300000 0  50000 1300000 0  100000 1300000 0  150000 1300000 0  200000 1300000 0  250000 1300000 0  300000 1300000 0  350000 1300000 0  400000 1300000 0  450000 1300000 0  500000 1300000 0  550000 1300000 0  600000 1300000 0  650000 1300000 0  700000 1300000 0  750000 1300000 0  800000 1300000 0  850000 1300000 0  900000 1300000 0  950000 1300000 0  1000000 1300000 0  0 1350000 0  50000 1350000 0  100000 1350000 0  150000 1350000 0  200000 1350000 0  250000 1350000 0  300000 1350000 0  350000 1350000 0  400000 1350000 0  450000 1350000 0  500000 1350000 0  550000 1350000 0  600000 1350000 0  650000 1350000 0  700000 135
[...]
<PointData  Vectors="f_4501"> 
<DataArray  type="Float64"  Name="f_4501"  NumberOfComponents="3" format="ascii">-1.1812388609986926e-09 -7.6326173862690387e-10 0.0000000000000000e+00  7.9153856231944556e-08 -6.1783669620738991e-10 0.0000000000000000e+00  7.9849226955325516e-08 -1.7095655433176900e-11 0.0000000000000000e+00  7.9819755167128555e-08 1.4600007262029141e-11 0.0000000000000000e+00  7.9885092503034041e-08 4.2732281857200452e-12 0.0000000000000000e+00  7.9907877270830666e-08 3.9590320135958955e-12 0.0000000000000000e+00  7.9920859138821219e-08 2.4151651678704024e-12 0.0000000000000000e+00  7.9928771446686508e-08 1.5549085765402607e-12 0.0000000000000000e+00  7.9933292110636352e-08 9.7408089756391769e-13 0.0000000000000000e+00  7.9935438851337868e-08 5.3753252201413010e-13 0.0000000000000000e+00  7.9935589163861832e-08 1.7937648328880054e-13 0.0000000000000000e+00  7.9933767325944295e-08 -1.4608485501288086e-13 0.0000000000000000e+00  7.9929649074416899e-08 -4.7303584458472813e-13 0.0000000000000000e+00  7.9922417026361356e-08 -8.1113337609898763e-13 0.0000000000000000e+00  7.9910214222160623e-08 -1.0912981435582025e-12 0.0000000000000000e+00  7.9890071390965741e-08 -1.8985698308037156e-12 0.0000000000000000e+00  7.9848192739257199e-08 4.3947879621516969e-12 0.0000000000000000e+00  7.9736505324208596e-08 9.6016056618949645e-12 0.0000000000000000e+00  7.9644432321864090e-08 -4.9552405271041158e-11 0.0000000000000000e+00  7.7280239385561517e-08 2.2976543921103029e-09 0.0000000000000000e+00  -3.4457107336093929e-09 2.7575239369692156e-09 0.0000000000000000e+00  -8.8064372191694826e-10 -7.4083664421213326e-10 0.0000000000000000e+00  -1.0247521448187061e-08 -1.9713219070495213e-08 0.0000000000000000e+00  3.0820573968905536e-09 -6.7985254373064944e-09 0.0000000000000000e+00  7.3493482850009196e-09 -2.9333023271381892e-09 0.0000000000000000e+00  1.0588781290889267e-08 -1.4740848017548982e-09 0.0000000000000000e+00  1.2164656559447712e-08 -8.3096283342289869e-10 0.0000000000000000e+00  1.3147505724433750e-08 -5.1465653882899717e-10 0.0000000000000000e+00  1.3760966337059517e-08 -3.2425939137429053e-10 0.0000000000000000e+00  1.4136755371392977e-08 -1.9625285960097507e-10 0.0000000000000000e+00  1.4341404498248426e-08 -9.8884476259256884e-11 0.0000000000000000e+00  1.4406213375054804e-08 -1.4365271226711926e-11 0.0000000000000000e+00  1.4340592577866802e-08 7.0164049554059143e-11 0.0000000000000000e+00  1.4135104189985495e-08 1.6756580792441894e-10 0.0000000000000000e+00  1.3758214406683845e-08 2.9556433255814121e-10 0.0000000000000000e+00  1.3144890526962741e-08 4.8542540170508604e-10 0.0000000000000000e+00  1.2164938073074317e-08 8.0298150037576035e-10 0.0000000000000000e+00  1.0553007071204318e-08 1.4204328922393602e-09 0.0000000000000000e+00  7.7782656463729682e-09 2.8561092550555907e-09 0.0000000000000000e+00  1.6052808299995242e-09 7.0293370751706126e-09 0.0000000000000000e+00  -8.3053272089743991e-09 2.0608788166428297e-08 0.0000000000000000e+00  -2.5795893680151070e-09 2.3808583293432879e-09 0.0000000000000000e+00  -1.3250545716529051e-10 -2.1435091082497794e-10 0.0000000000000000e+00  -7.7915163758988183e-09 -1.6616780027160656e-08 0.0000000000000000e+00  -1.0185077764425969e-08 -1.0715643117834903e-08 0.0000000000000000e+00  -9.2543174983475876e-09 -5.9322191310552538e-09 0.0000000000000000e+00  -7.4047434748550636e-09 -3.2916239721220549e-09 0.0000000000000000e+00  -6.2446543848345597e-09 -1.9945357631862279e-09 0.0000000000000000e+00  -5.3719014346760780e-09 -1.2562590924197829e-09 0.0000000000000000e+00  -4.8010998061071727e-09 -7.8971087064613177e-10 0.0000000000000000e+00  -4.4356649915348560e-09 -4.6525686814430572e-10 0.0000000000000000e+00  -4.2325322981716971e-09 -2.1312391871456564e-10 0.0000000000000000e+00  -4.1674215009699815e-09 7.9590093407283159e-12 0.0000000000000000e+00  -4.2327305617262992e-09 2.2909116724054122e-10 0.0000000000000000e+00  -4.4358463217450627e-09 4.8133269180401249e-10 0.0000000000000000e+00  -4.8005358983815281e-09 8.0596800675409901e-10 0.0000000000000000e+00  -5.3716404960651792e-09 1.2711356029423413e-09 0.0000000000000000e+00  -6.2219779710677342e-09 2.0080013472182074e-09 0.0000000000000000e+00  -7.4461515322567993e-09 3.3000943040451457e-09 0.0000000000000000e+00  -9.1181547202084912e-09 5.8199206431100451e-09 0.0000000000000000e+00  -1.0444403963104435e-08 1.1102456518267590e-08 0.0000000000000000e+00  -6.8884051813370819e-09 1.7571749748741619e-08 0.0000000000000000e+00  -1.6372522773535814e-10 3.0453679148569562e-10 0.0000000000000000e+00  5.1077779217777849e-12 -1.5678364385735119e-10 0.0000000000000000e+00  -3.3165820327892504e-09 -1.1302628961202625e-08 0.0000000000000000e+00  -6.5762305927192707e-09 -9.7391264745707749e-09 0.0000000000000000e+00  -7.4069737613822373e-09 -6.4570642574435528e-09 0.0000000000000000e+00  -7.1935933246578644e-09 -4.1983295236182711e-09 0.0000000000000000e+00  -6.7330213513204756e-09 -2.7676281342579701e-09 0.0000000000000000e+00  -6.2504885893136569e-09 -1.8248966261685144e-09 0.0000000000000000e+00  -5.8885494441402055e-09 -1.1836681928985045e-09 0.0000000000000000e+00  -5.6339266129245638e-09 -7.1291642777853540e-10 0.0000000000000000e+00  -5.4862464847321760e-09 -3.3517647537171148e-10 0.0000000000000000e+00  -5.4375997891533199e-09 1.2777622829611886e-12 0.0000000000000000e+00  -5.4854324263711884e-09 3.3774048077174186e-10 0.0000000000000000e+00  -5.6321832737271664e-09 7.1541224080551175e-10 0.0000000000000000e+00  -5.8844533602913996e-09 1.1860480097858488e-09 0.0000000000000000e+00  -6.2485207707391936e-09 1.8267775440139377e-09 0.0000000000000000e+00  -6.7147928272465893e-09 2.7647440296266277e-09 0.0000000000000000e+00  -7.2090054083444139e-09 4.2162303744549431e-09 0.0000000000000000e+00  -7.4288455492693641e-09 6.5117635221810414e-09 0.0000000000000000e+00  -6.4483746583710574e-09 9.7681843659407368e-09 0.0000000000000000e+00  -3.1459542097720491e-09 1.1090579454125542e-08 0.0000000000000000e+00  7.3893471130444954e-12 2.3178115406084943e-10 0.0000000000000000e+00  5.8086020401831373e-12 -1.0571401185665687e-10 0.0000000000000000e+00  -1.7241492064718508e-09 -7.9117665023530509e-09 0.0000000000000000e+00  -3.9647048156993682e-09 -7.7377148754941238e-09 0.0000000000000000e+00  -5.2029274528660091e-09 -5.9556414068338167e-09 0.0000000000000000e+00  -5.6642054058476016e-09 -4.3158951484657910e-09 0.0000000000000000e+00  -5.6875386772144923e-09 -3.0426416980635940e-09 0.0000000000000000e+00  -5.5591690455149560e-09 -2.1075819825782136e-09 0.0000000000000000e+00  -5.4065057746208031e-09 -1.4111578790330283e-09 0.0000000000000000e+00  -5.2765021566801361e-09 -8.6666108948664693e-10 0.0000000000000000e+00  -5.1942981659263030e-09 -4.1236637607977523e-10 0.0000000000000000e+00  -5.1659592973523950e-09 3.5354702527332962e-13 0.0000000000000000e+00  -5.1934904974079201e-09 4.1304191300730154e-10 0.0000000000000000e+00  -5.2750828589720584e-09 8.6720392036722192e-10 0.0000000000000000e+00  -5.4034105640632208e-09 1.4113182662365989e-09 0.0000000000000000e+00  -5.5577155858473785e-09 2.1083436453283351e-09 0.0000000000000000e+00  -5.6849500297844229e-09 3.0420617893867060e-09 0.0000000000000000e+00  -5.6589037801764648e-09 4.3111256853809335e-09 0.0000000000000000e+00  -5.2129881401025669e-09 5.9667243691851709e-09 0.0000000000000000e+00  -3.9301137769565243e-09 7.7469338719651916e-09 0.0000000000000000e+00  -1.6889711270273681e-09 7.8747818184189590e-09 0.0000000000000000e+00  -7.6692757004099679e-12 1.4873072301877059e-10 0.0000000000000000e+00  4.4769619052540988e-12 -7.4843020937158846e-11 0.0000000000000000e+00  -1.0512493864214335e-09 -5.9085167281257331e-09 0.0000000000000000e+00  -2.6167259276173226e-09 -6.1484574788534743e-09 0.0000000000000000e+00  -3.7570582247975427e-09 -5.1202077310806611e-09 0.0000000000000000e+00  -4.3967292280525270e-09 -3.9817834507494431e-09 0.0000000000000000e+00  -4.6870496430632065e-09 -2.9806870479946233e-09 0.0000000000000000e+00  -4.7884987574213509e-09 -2.1582260311132004e-09 0.0000000000000000e+00  -4.7974484342048279e-09 -1.4883763963608736e-09 0.0000000000000000e+00  -4.7748277988137083e-09 -9.3203645291597516e-10 0.0000000000000000e+00  -4.7519522579219631e-09 -4.4841836835889059e-10 0.0000000000000000e+00  -4.7426810603382835e-09 2.2485662370630758e-13 0.0000000000000000e+00  -4.7514052571937160e-09 4.4882560798283682e-10 0.0000000000000000e+00  -4.7739528158748459e-09 9.3237358918437016e-10 0.0000000000000000e+00  -4.7960568267646450e-09 1.4884463008300121e-09 0.0000000000000000e+00  -4.7869592770661474e-09 2.1582217205310183e-09 0.0000000000000000e+00  -4.6875421593901047e-09 2.9822173488845032e-09 0.0000000000000000e+00  -4.3940030349447583e-09 3.9818892319868989e-09 0.0000000000000000e+00  -3.7525252984538280e-09 5.1104076810136482e-09 0.0000000000000000e+00  -2.6100706616853527e-09 6.1376490590707674e-09 0.0000000000000000e+00  -1.0450910870461925e-09 5.9088867748152526e-09 0.0000000000000000e+00  2.0643387768948593e-12 9.6665986014010692e-11 0.0000000000000000e+00  3.3518844228485882e-12 -5.6721927775122563e-11 0.0000000000000000e+00  -7.2334705524349912e-10 -4.5742426590819796e-09 0.0000000000000000e+00  -1.8702484466440134e-09 -4.8990271275339269e-09 0.0000000000000000e+00  -2.8198751631623722e-09 -4.2734494340577379e-09 0.0000000000000000e+00  -3.4703461876890839e-09 -3.4974766642557266e-09 0.0000000000000000e+00  -3.8705447164982042e-09 -2.7375681989490703e-09 0.0000000000000000e+00  -4.0955188381573126e-09 -2.0518759055708601e-09 0.0000000000000000e+00  -4.2116808424687016e-09 -1.4520990530766893e-09 0.0000000000000000e+00  -4.2670234488136463e-09 -9.2565053912840375e-10 0.0000000000000000e+00  -4.2900216570392807e-09 -4.4996094994955698e-10 0.0000000000000000e+00  -4.2959963645091207e-09 6.3855383008740879e-14 0.0000000000000000e+00  -4.2897129667464396e-09 4.5005251034243010e-10 0.0000000000000000e+00  -4.2664696018830121e-09 9.2567834472851190e-10 0.0000000000000000e+00  -4.2110833405814979e-09 1.4520662294743142e-09 0.0000000000000000e+00  -4.0945616743106650e-09 2.0514509635299839e-09 0.0000000000000000e+00  -3.8697155303068467e-09 2.7364348805933913e-09 0.0000000000000000e+00  -3.4694303874080738e-09 3.4955463448690934e-09 0.0000000000000000e+00  -2.8178651677190702e-09 4.2691183132105216e-09 0.0000000000000000e+00  -1.8684573882534947e-09 4.8968589217146959e-09 0.0000000000000000e+00  -7.2196658350862358e-10 4.5746339904825066e-09 0.0000000000000000e+00  1.9465713327284876e-12 7.1395147494894913e-11 0.0000000000000000e+00  2.5571741239872454e-12 -4.3962210550309095e-11 0.0000000000000000e+00  -5.3640135101889466e-10 -3.6042608693078534e-09 0.0000000000000000e+00  -1.4157980828825043e-09 -3.9268422987457795e-09 0.0000000000000000e+00  -2.1999917091268074e-09 -3.5261973808717714e-09 0.0000000000000000e+00  -2.8009406960760966e-09 -2.9834833160633044e-09 0.0000000000000000e+00  -3.2254317186315958e-09 -2.4098494742006860e-09 0.0000000000000000e+00  -3.5070136914956563e-09 -1.8558631462283414e-09 0.0000000000000000e+00  -3.6842601032192512e-09 -1.3416440273994311e-09 0.0000000000000000e+00  -3.7889275396649690e-09 -8.6809592300408688e-10 0.0000000000000000e+00  -3.8431756801645123e-09 -4.2575916565657822e-10 0.0000000000000000e+00  -3.8598361893163290e-09 -6.5701555483419786e-14 0.0000000000000000e+00  -3.8430051240651747e-09 4.2560468434939742e-10 0.0000000000000000e+00  -3.7885835742704119e-09 8.6785854269916970e-10 0.0000000000000000e+00  -3.6838386624703160e-09 1.3412917915241824e-09 0.0000000000000000e+00  -3.5065042034117763e-09 1.8552876772776786e-09 0.0000000000000000e+00  -3.2246800896294535e-09 2.4084815515460705e-09 0.0000000000000000e+00  -2.8001638116417039e-09 2.9805404028686300e-09 0.0000000000000000e+00  -2.1996245568211961e-09 3.5223033859819091e-09 0.0000000000000000e+00  -1.4161991613141757e-09 3.9273427843015292e-09 0.0000000000000000e+00  -5.3601138737319158e-10 3.6065252038066757e-09 0.0000000000000000e+00  1.7655256623298059e-12 5.4332251104615537e-11 0.0000000000000000e+00  2.0446191342040618e-12 -3.4395204520720338e-11 0.0000000000000000e+00  -4.1922767856076417e-10 -2.8599359233410342e-09 0.0000000000000000e+00  -1.1208653792531556e-09 -3.1487979650220535e-09 0.0000000000000000e+00  -1.7751439249118254e-09 -2.8793100211699259e-09 0.0000000000000000e+00  -2.3116133320671461e-09 -2.4910030036692006e-09 0.0000000000000000e+00  -2.7231757526943010e-09 -2.0582301380399406e-09 0.0000000000000000e+00  -3.0220172353282390e-09 -1.6176676228898082e-09 0.0000000000000000e+00  -3.2277547745061736e-09 -1.1888354500199460e-09 0.0000000000000000e+00  -3.3596010821320259e-09 -7.7848281315023474e-10 0.0000000000000000e+00  -3.4325530543911365e-09 -3.8462751844724608e-10 0.0000000000000000e+00  -3.4558103052816032e-09 -1.5968115161412933e-13 0.0000000000000000e+00  -3.4324441392821090e-09 3.8428750202769767e-10 0.0000000000000000e+00  -3.3593882501149427e-09 7.7806517233161057e-10 0.0000000000000000e+00  -3.2274442512009305e-09 1.1882400896252026e-09 0.0000000000000000e+00  -3.0216478298896271e-09 1.6167578430975689e-09 0.0000000000000000e+00  -2.7227909894217887e-09 2.0567923098427935e-09 0.0000000000000000e+00  -2.3113607908536100e-09 2.4887664940287378e-09 0.0000000000000000e+00  -1.7753542069338905e-09 2.8768830430609852e-09 0.0000000000000000e+00  -1.1216923011618610e-09 3.1502297518310666e-09 0.0000000000000000e+00  -4.1915897928558958e-10 2.8621681137934709e-09 0.0000000000000000e+00  1.5747541966586699e-12 4.2217488838561385e-11 0.0000000000000000e+00  1.6923484537759737e-12 -2.6832959395546329e-11 0.0000000000000000e+00  -3.4119284739098629e-10 -2.2631170179270394e-09 0.0000000000000000e+00  -9.1985658161118677e-10 -2.5085529279800353e-09 0.0000000000000000e+00  -1.4749820889124478e-09 -2.3213931084267719e-09 0.0000000000000000e+00  -1.9503550818588898e-09 -2.0389972414624865e-09 0.0000000000000000e+00  -2.3347767845435577e-09 -1.7118463371110552e-09 0.0000000000000000e+00  -2.6299392536936856e-09 -1.3655168117305823e-09 0.0000000000000000e+00  -2.8443228827585956e-09 -1.0160985072657278e-09 0.0000000000000000e+00  -2.9882328986434588e-09 -6.7160276577372608e-10 0.0000000000000000e+00  -3.0706289366783132e-09 -3.3375803084903887e-10 0.0000000000000000e+00  -3.0973906634997712e-09 -2.2754875907523792e-13 0.0000000000000000e+00  -3.0705538554975969e-09 3.3327896477419919e-10 0.0000000000000000e+00  -2.9880912491025572e-09 6.7104766062944246e-10 0.0000000000000000e+00  -2.8441249753117357e-09 1.0153904190146798e-09 0.0000000000000000e+00  -2.6297143168310014e-09 1.3645340545718102e-09 0.0000000000000000e+00  -2.3346129681498098e-09 1.7104578891393271e-09 0.0000000000000000e+00  -1.9504128313269880e-09 2.0371999185340598e-09 0.0000000000000000e+00  -1.4754223466548357e-09 2.3198637658480901e-09 0.0000000000000000e+00  -9.2068427974005840e-10 2.5103531472073823e-09 0.0000000000000000e+00  -3.4121300983708137e-10 2.2651530845988614e-09 0.0000000000000000e+00  1.3861816152787824e-12 3.3034045306503533e-11 0.0000000000000000e+00  1.4442002016804273e-12 -2.0605657549402164e-11 0.0000000000000000e+00  -2.8721521604192968e-10 -1.7674361359267375e-09 0.0000000000000000e+00  -7.7871084366594734e-10 -1.9678851505851463e-09 0.0000000000000000e+00  -1.2590467343187301e-09 -1.8356549382592948e-09 0.0000000000000000e+00  -1.6822830707096721e-09 -1.6290730988800713e-09 0.0000000000000000e+00  -2.0366215991660564e-09 -1.3830630264565233e-09 0.0000000000000000e+00  -2.3188555222798954e-09 -1.1151251771433273e-09 0.0000000000000000e+00  -2.5311132319737382e-09 -8.3745581703300769e-10 0.0000000000000000e+00  -2.6778579971935092e-09 -5.5742356915922096e-10 0.0000000000000000e+00  -2.7636904823730948e-09 -2.7825831828520790e-10 0.0000000000000000e+00  -2.7918925333881503e-09 -2.7717184237006233e-13 0.0000000000000000e+00  -2.7636407222180158e-09 2.7768173065894528e-10 0.0000000000000000e+00  -2.6777653651072141e-09 5.5677679825718456e-10 0.0000000000000000e+00  -2.5309966298752315e-09 8.3668297228180051e-10 0.0000000000000000e+00  -2.3187527742869725e-09 1.1141622588683947e-09 0.0000000000000000e+00  -2.0366081850048896e-09 1.3818594712472624e-09 0.0000000000000000e+00  -1.6824724484152550e-09 1.6276890246052650e-09 0.0000000000000000e+00  -1.2595104644047222e-09 1.8346764858141625e-09 0.0000000000000000e+00  -7.7942036987133048e-10 1.9697530970599949e-09 0.0000000000000000e+00  -2.8725872036096604e-10 1.7692581865684778e-09 0.0000000000000000e+00  1.2386253230662867e-12 2.5719811937524933e-11 0.0000000000000000e+00  1.2666573723726679e-12 -1.5294406347243209e-11 0.0000000000000000e+00  -2.4930195557746898e-10 -1.3427776215402518e-09 0.0000000000000000e+00  -6.7856369169904126e-10 -1.4995334339881666e-09 0.0000000000000000e+00  -1.1032541108643748e-09 -1.4063609406818042e-09 0.0000000000000000e+00  -1.4846222726635474e-09 -1.2569081574688848e-09 0.0000000000000000e+00  -1.8113808398649452e-09 -1.0754131854269879e-09 0.0000000000000000e+00  -2.0781074593335478e-09 -8.7366818074220197e-10 0.0000000000000000e+00  -2.2834118511821431e-09 -6.6048720516590402e-10 0.0000000000000000e+00  -2.4281547501715482e-09 -4.4189804149831184e-10 0.0000000000000000e+00  -2.5140222747545270e-09 -2.2133853890851910e-10 0.0000000000000000e+00  -2.5424510854011679e-09 -3.1154484792600499e-13 0.0000000000000000e+00  -2.5139912498048026e-09 2.2069762901277401e-10 0.0000000000000000e+00  -2.4281001822592527e-09 4.4120244248225497e-10 0.0000000000000000e+00  -2.2833528607489896e-09 6.5969909960648540e-10 0.0000000000000000e+00  -2.0780799582971326e-09 8.7275643422760876e-10 0.0000000000000000e+00  -1.8114431018061673e-09 1.0743731806405523e-09 0.0000000000000000e+00  -1.4848447043118784e-09 1.2558231151788822e-09 0.0000000000000000e+00  -1.1036595377951893e-09 1.4057232082412813e-09 0.0000000000000000e+00  -6.7912461138981614e-10 1.5013671383655087e-09 0.0000000000000000e+00  -2.4934547115278786e-10 1.3444140935396706e-09 0.0000000000000000e+00  1.1265640141900012e-12 1.9663593946474277e-11 0.0000000000000000e+00  1.1401389554326686e-12 -1.0610937529413185e-11 0.0000000000000000e+00  -2.2295688255346272e-10 -9.6807617064934436e-10 0.0000000000000000e+00  -6.0850234649266874e-10 -1.0832186748060159e-09 0.0000000000000000e+00  -9.9300907870268395e-10 -1.0196862290339157e-09 0.0000000000000000e+00  -1.3426284720880598e-09 -9.1565425155767058e-10 0.0000000000000000e+00  -1.6467933977161125e-09 -7.8757418809961991e-10 0.0000000000000000e+00  -1.8991400572976344e-09 -6.4317193912768306e-10 0.0000000000000000e+00  -2.0963884880570679e-09 -4.8849270985528270e-10 0.0000000000000000e+00  -2.2372703459880336e-09 -3.2802591021111498e-10 0.0000000000000000e+00  -2.3216350229365210e-09 -1.6472293334442064e-10 0.0000000000000000e+00  -2.3497072692276579e-09 -3.3352442055824843e-13 0.0000000000000000e+00  -2.3216172336465124e-09 1.6404254688464577e-10 0.0000000000000000e+00  -2.2372419372548245e-09 3.2730647517241726e-10 0.0000000000000000e+00  -2.0963658025087410e-09 4.8771270273543386e-10 0.0000000000000000e+00  -1.8991507589115350e-09 6.4232109396108041e-10 0.0000000000000000e+00  -1.6468772295175399e-09 7.8666712703976385e-10 0.0000000000000000e+00  -1.3428267275925807e-09 9.1477375634888199e-10 0.0000000000000000e+00  -9.9332389105874713e-10 1.0192542269440683e-09 0.0000000000000000e+00  -6.0891432951502398e-10 1.0849889462424854e-09 0.0000000000000000e+00  -2.2299212734584490e-10 9.6957018865322921e-10 0.0000000000000000e+00  1.0465214800983981e-12 1.4471169276587730e-11 0.0000000000000000e+00  1.0529322588581014e-12 -6.3401229136296188e-12 0.0000000000000000e+00  -2.0557522323274160e-10 -6.2750167215968695e-10 0.0000000000000000e+00  -5.6208196586932273e-10 -7.0299129515200596e-10 0.0000000000000000e+00  -9.1939932889544025e-10 -6.6351121235888815e-10 0.0000000000000000e+00  -1.2468578869497468e-09 -5.9766498121470474e-10 0.0000000000000000e+00  -1.5344988661214305e-09 -5.1582407738125667e-10 0.000000000000000