<?xml version="1.0"?>
<VTKFile type="UnstructuredGrid"  version="0.1"  >
<UnstructuredGrid>
<Piece  NumberOfPoints="651" NumberOfCells="1200">
<Points>
<DataArray  type="Float64"  NumberOfComponents="3"  format="ascii">0 0 0  50000 0 0  100000 0 0  150000 0 0  200000 0 0  250000 0 0  300000 0 0  350000 0 0  400000 0 0  450000 0 0  500000 0 0  550000 0 0  600000 0 0  650000 0 0  700000 0 0  750000 0 0  800000 0 0  850000 0 0  900000 0 0  950000 0 0  1000000 0 0  0 50000 0  50000 50000 0  100000 50000 0  150000 50000 0  200000 50000 0  250000 50000 0  300000 50000 0  350000 50000 0  400000 50000 0  450000 50000 0  500000 50000 0  550000 50000 0  600000 50000 0  650000 50000 0  700000 50000 0  750000 50000 0  800000 50000 0  850000 50000 0  900000 50000 0  950000 50000 0  1000000 50000 0  0 100000 0  50000 100000 0  100000 100000 0  150000 100000 0  200000 100000 0  250000 100000 0  300000 100000 0  350000 100000 0  400000 100000 0  450000 100000 0  500000 100000 0  550000 100000 0  600000 100000 0  650000 100000 0  700000 100000 0  750000 100000 0  800000 100000 0  850000 100000 0  900000 100000 0  950000 100000 0  1000000 100000 0  0 150000 0  50000 150000 0  100000 150000 0  150000 150000 0  200000 150000 0  250000 150000 0  300000 150000 0  350000 150000 0  400000 150000 0  450000 150000 0  500000 150000 0  550000 150000 0  600000 150000 0  650000 150000 0  700000 150000 0  750000 150000 0  800000 150000 0  850000 150000 0  900000 150000 0  950000 150000 0  1000000 150000 0  0 200000 0  50000 200000 0  100000 200000 0  150000 200000 0  200000 200000 0  250000 200000 0  300000 200000 0  350000 200000 0  400000 200000 0  450000 200000 0  500000 200000 0  550000 200000 0  600000 200000 0  650000 200000 0  700000 200000 0  750000 200000 0  800000 200000 0  850000 200000 0  900000 200000 0  950000 200000 0  1000000 200000 0  0 250000 0  50000 250000 0  100000 250000 0  150000 250000 0  200000 250000 0  250000 250000 0  300000 250000 0  350000 250000 0  400000 250000 0  450000 250000 0  500000 250000 0  550000 250000 0  600000 250000 0  650000 250000 0  700000 250000 0  750000 250000 0  800000 250000 0  850000 250000 0  900000 250000 0  950000 250000 0  1000000 250000 0  0 300000 0  50000 300000 0  100000 300000 0  150000 300000 0  200000 300000 0  250000 300000 0  300000 300000 0  350000 300000 0  400000 300000 0  450000 300000 0  500000 300000 0  550000 300000 0  600000 300000 0  650000 300000 0  700000 300000 0  750000 300000 0  800000 300000 0  850000 300000 0  900000 300000 0  950000 300000 0  1000000 300000 0  0 350000 0  50000 350000 0  100000 350000 0  150000 350000 0  200000 350000 0  250000 350000 0  300000 350000 0  350000 350000 0  400000 350000 0  450000 350000 0  500000 350000 0  550000 350000 0  600000 350000 0  650000 350000 0  700000 350000 0  750000 350000 0  800000 350000 0  850000 350000 0  900000 350000 0  950000 350000 0  1000000 350000 0  0 400000 0  50000 400000 0  100000 400000 0  150000 400000 0  200000 400000 0  250000 400000 0  300000 400000 0  350000 400000 0  400000 400000 0  450000 400000 0  500000 400000 0  550000 400000 0  600000 400000 0  650000 400000 0  700000 400000 0  750000 400000 0  800000 400000 0  850000 400000 0  900000 400000 0  950000 400000 0  1000000 400000 0  0 450000 0  50000 450000 0  100000 450000 0  150000 450000 0  200000 450000 0  250000 450000 0  300000 450000 0  350000 450000 0  400000 450000 0  450000 450000 0  500000 450000 0  550000 450000 0  600000 450000 0  650000 450000 0  700000 450000 0  750000 450000 0  800000 450000 0  850000 450000 0  900000 450000 0  950000 450000 0  1000000 450000 0  0 500000 0  50000 500000 0  100000 500000 0  150000 500000 0  200000 500000 0  250000 500000 0  300000 500000 0  350000 500000 0  400000 500000 0  450000 500000 0  500000 500000 0  550000 500000 0  600000 500000 0  650000 500000 0  700000 500000 0  750000 500000 0  800000 500000 0  850000 500000 0  900000 500000 0  950000 500000 0  1000000 500000 0  0 550000 0  50000 550000 0  100000 550000 0  150000 550000 0  200000 550000 0  250000 550000 0  300000 550000 0  350000 550000 0  400000 550000 0  450000 550000 0  500000 550000 0  550000 550000 0  600000 550000 0  650000 550000 0  700000 550000 0  750000 550000 0  800000 550000 0  850000 550000 0  900000 550000 0  950000 550000 0  1000000 550000 0  0 600000 0  50000 600000 0  100000 600000 0  150000 600000 0  200000 600000 0  250000 600000 0  300000 600000 0  350000 600000 0  400000 600000 0  450000 600000 0  500000 600000 0  550000 600000 0  600000 600000 0  650000 600000 0  700000 600000 0  750000 600000 0  800000 600000 0  850000 600000 0  900000 600000 0  950000 600000 0  1000000 600000 0  0 650000 0  50000 650000 0  100000 650000 0  150000 650000 0  200000 650000 0  250000 650000 0  300000 650000 0  350000 650000 0  400000 650000 0  450000 650000 0  500000 650000 0  550000 650000 0  600000 650000 0  650000 650000 0  700000 650000 0  750000 650000 0  800000 650000 0  850000 650000 0  900000 650000 0  950000 650000 0  1000000 650000 0  0 700000 0  50000 700000 0  100000 700000 0  150000 700000 0  200000 700000 0  250000 700000 0  300000 700000 0  350000 700000 0  400000 700000 0  450000 700000 0  500000 700000 0  550000 700000 0  600000 700000 0  650000 700000 0  700000 700000 0  750000 700000 0  800000 700000 0  850000 700000 0  900000 700000 0  950000 700000 0  1000000 700000 0  0 750000 0  50000 750000 0  100000 750000 0  150000 750000 0  200000 750000 0  250000 750000 0  300000 750000 0  350000 750000 0  400000 750000 0  450000 750000 0  500000 750000 0  550000 750000 0  600000 750000 0  650000 750000 0  700000 750000 0  750000 750000 0  800000 750000 0  850000 750000 0  900000 750000 0  950000 750000 0  1000000 750000 0  0 800000 0  50000 800000 0  100000 800000 0  150000 800000 0  200000 800000 0  250000 800000 0  300000 800000 0  350000 800000 0  400000 800000 0  450000 800000 0  500000 800000 0  550000 800000 0  600000 800000 0  650000 800000 0  700000 800000 0  750000 800000 0  800000 800000 0  850000 800000 0  900000 800000 0  950000 800000 0  1000000 800000 0  0 850000 0  50000 850000 0  100000 850000 0  150000 850000 0  200000 850000 0  250000 850000 0  300000 850000 0  350000 850000 0  400000 850000 0  450000 850000 0  500000 850000 0  550000 850000 0  600000 850000 0  650000 850000 0  700000 850000 0  750000 850000 0  800000 850000 0  850000 850000 0  900000 850000 0  950000 850000 0  1000000 850000 0  0 900000 0  50000 900000 0  100000 900000 0  150000 900000 0  200000 900000 0  250000 900000 0  300000 900000 0  350000 900000 0  400000 900000 0  450000 900000 0  500000 900000 0  550000 900000 0  600000 900000 0  650000 900000 0  700000 900000 0  750000 900000 0  800000 900000 0  850000 900000 0  900000 900000 0  950000 900000 0  1000000 900000 0  0 950000 0  50000 950000 0  100000 950000 0  150000 950000 0  200000 950000 0  250000 950000 0  300000 950000 0  350000 950000 0  400000 950000 0  450000 950000 0  500000 950000 0  550000 950000 0  600000 950000 0  650000 950000 0  700000 950000 0  750000 950000 0  800000 950000 0  850000 950000 0  900000 950000 0  950000 950000 0  1000000 950000 0  0 1000000 0  50000 1000000 0  100000 1000000 0  150000 1000000 0  200000 1000000 0  250000 1000000 0  300000 1000000 0  350000 1000000 0  400000 1000000 0  450000 1000000 0  500000 1000000 0  550000 1000000 0  600000 1000000 0  650000 1000000 0  700000 1000000 0  750000 1000000 0  800000 1000000 0  850000 1000000 0  900000 1000000 0  950000 1000000 0  1000000 1000000 0  0 1050000 0  50000 1050000 0  100000 1050000 0  150000 1050000 0  200000 1050000 0  250000 1050000 0  300000 1050000 0  350000 1050000 0  400000 1050000 0  450000 1050000 0  500000 1050000 0  550000 1050000 0  600000 1050000 0  650000 1050000 0  700000 1050000 0  750000 1050000 0  800000 1050000 0  850000 1050000 0  900000 1050000 0  950000 1050000 0  1000000 1050000 0  0 1100000 0  50000 1100000 0  100000 1100000 0  150000 1100000 0  200000 1100000 0  250000 1100000 0  300000 1100000 0  350000 1100000 0  400000 1100000 0  450000 1100000 0  500000 1100000 0  550000 1100000 0  600000 1100000 0  650000 1100000 0  700000 1100000 0  750000 1100000 0  800000 1100000 0  850000 1100000 0  900000 1100000 0  950000 1100000 0  1000000 1100000 0  0 1150000 0  50000 1150000 0  100000 1150000 0  150000 1150000 0  200000 1150000 0  250000 1150000 0  300000 1150000 0  350000 1150000 0  400000 1150000 0  450000 1150000 0  500000 1150000 0  550000 1150000 0  600000 1150000 0  650000 1150000 0  700000 1150000 0  750000 1150000 0  800000 1150000 0  850000 1150000 0  900000 1150000 0  950000 1150000 0  1000000 1150000 0  0 1200000 0  50000 1200000 0  100000 1200000 0  150000 1200000 0  200000 1200000 0  250000 1200000 0  300000 1200000 0  350000 1200000 0  400000 1200000 0  450000 1200000 0  500000 1200000 0  550000 1200000 0  600000 1200000 0  650000 1200000 0  700000 1200000 0  750000 1200000 0  800000 1200000 0  850000 1200000 0  900000 1200000 0  950000 1200000 0  1000000 1200000 0  0 1250000 0  50000 1250000 0  100000 1250000 0  150000 1250000 0  200000 1250000 0  250000 1250000 0  300000 1250000 0  350000 1250000 0  400000 1250000 0  450000 1250000 0  500000 1250000 0  550000 1250000 0  600000 1250000 0  650000 1250000 0  700000 1250000 0  750000 1250000 0  800000 1250000 0  850000 1250000 0  900000 1250000 0  950000 1250000 0  1000000 1250000 0  0 1300000 0  50000 1300000 0  100000 1300000 0  150000 1300000 0  200000 1300000 0  250000 1300000 0  300000 1300000 0  350000 1300000 0  400000 1300000 0  450000 1300000 0  500000 1300000 0  550000 1300000 0  600000 1300000 0  650000 1300000 0  700000 1300000 0  750000 1300000 0  800000 1300000 0  850000 1300000 0  900000 1300000 0  950000 1300000 0  1000000 1300000 0  0 1350000 0  50000 1350000 0  100000 1350000 0  150000 1350000 0  200000 1350000 0  250000 1350000 0  300000 1350000 0  350000 1350000 0  400000 1350000 0  450000 1350000 0  500000 1350000 0  550000 1350000 0  600000 1350000 0  650000 1350000 0  700000 135
[...]
<PointData  Vectors="f_4501"> 
<DataArray  type="Float64"  Name="f_4501"  NumberOfComponents="3" format="ascii">-1.4043091622697152e-09 -1.0255680844438754e-09 0.0000000000000000e+00  7.8905149967449601e-08 -7.9992804451070512e-10 0.0000000000000000e+00  7.9620360956528291e-08 -1.2725416094658209e-10 0.0000000000000000e+00  7.9639128113921157e-08 -3.5130262797829635e-11 0.0000000000000000e+00  7.9718257782691456e-08 -2.4956549978054258e-11 0.0000000000000000e+00  7.9764758249345928e-08 -1.5067050156671901e-11 0.0000000000000000e+00  7.9792038291402981e-08 -8.9075310634390478e-12 0.0000000000000000e+00  7.9808988251712920e-08 -5.2797107513278482e-12 0.0000000000000000e+00  7.9819059711078346e-08 -2.8065042049332917e-12 0.0000000000000000e+00  7.9823906355463045e-08 -8.1043790745386387e-13 0.0000000000000000e+00  7.9824246218080179e-08 1.0730532788637074e-12 0.0000000000000000e+00  7.9820128001202149e-08 3.1289551511634074e-12 0.0000000000000000e+00  7.9810959715731653e-08 5.7029371457411729e-12 0.0000000000000000e+00  7.9795351164918622e-08 9.3983641812881506e-12 0.0000000000000000e+00  7.9770739116963960e-08 1.5532050641723576e-11 0.0000000000000000e+00  7.9732044056604277e-08 2.7194560523363769e-11 0.0000000000000000e+00  7.9663024972941335e-08 5.0677243437419801e-11 0.0000000000000000e+00  7.9528254892306148e-08 8.0651103318195751e-11 0.0000000000000000e+00  7.9411336529348221e-08 1.6166223404420732e-10 0.0000000000000000e+00  7.7174306674141424e-08 2.5647569505818144e-09 0.0000000000000000e+00  -3.3938099114494811e-09 3.1613551576786523e-09 0.0000000000000000e+00  -1.0554824435775397e-09 -9.7828719287696957e-10 0.0000000000000000e+00  -8.0765270237825708e-09 -3.4672651380155251e-09 0.0000000000000000e+00  -3.5636554884141749e-09 -2.2331809246814625e-09 0.0000000000000000e+00  -2.7529315256166408e-09 -8.3030551065378056e-10 0.0000000000000000e+00  -2.0057904402741680e-09 -4.0299153636114186e-10 0.0000000000000000e+00  -1.5527452527787261e-09 -1.8992242303890529e-10 0.0000000000000000e+00  -1.2649515634190152e-09 -6.7919935322721173e-11 0.0000000000000000e+00  -1.0803257773161459e-09 9.6487456882183389e-12 0.0000000000000000e+00  -9.6555976954014665e-10 6.4322290131455512e-11 0.0000000000000000e+00  -9.0297580103232867e-10 1.0736174044660254e-10 0.0000000000000000e+00  -8.8393139489889803e-10 1.4562541544317312e-10 0.0000000000000000e+00  -9.0589153459898643e-10 1.8434324369325102e-10 0.0000000000000000e+00  -9.7160673371692722e-10 2.2885197868729140e-10 0.0000000000000000e+00  -1.0899081769716733e-09 2.8638302750940240e-10 0.0000000000000000e+00  -1.2786297055646159e-09 3.6908540225019270e-10 0.0000000000000000e+00  -1.5717207005407565e-09 5.0084506231207672e-10 0.0000000000000000e+00  -2.0350815850192050e-09 7.3569060476127493e-10 0.0000000000000000e+00  -2.7999363520281383e-09 1.2203400611693005e-09 0.0000000000000000e+00  -4.1444570970259870e-09 2.4587489426425917e-09 0.0000000000000000e+00  -4.7375428163716743e-09 5.6295150749381950e-09 0.0000000000000000e+00  -2.6924263924512069e-09 2.6879360869017738e-09 0.0000000000000000e+00  -2.4755201379187373e-10 -4.1826779610044944e-10 0.0000000000000000e+00  -2.7830573663811805e-09 -4.5835865466276446e-09 0.0000000000000000e+00  -4.0271651638963894e-09 -2.8748459159857205e-09 0.0000000000000000e+00  -3.6955733055708117e-09 -1.8564694523686020e-09 0.0000000000000000e+00  -3.3477890952354031e-09 -1.1069224055038080e-09 0.0000000000000000e+00  -3.0293599138027182e-09 -7.1514316216888854e-10 0.0000000000000000e+00  -2.8049196855136879e-09 -4.8174471028102347e-10 0.0000000000000000e+00  -2.6500676632943705e-09 -3.2832080255353199e-10 0.0000000000000000e+00  -2.5491561822258862e-09 -2.1774812344281473e-10 0.0000000000000000e+00  -2.4920688650716453e-09 -1.2977569005741186e-10 0.0000000000000000e+00  -2.4731206241808559e-09 -5.1606848239584431e-11 0.0000000000000000e+00  -2.4903766006133197e-09 2.6640998511778783e-11 0.0000000000000000e+00  -2.5453463698616357e-09 1.1481412081299672e-10 0.0000000000000000e+00  -2.6431184058407523e-09 2.2552864097678787e-10 0.0000000000000000e+00  -2.7927528149061983e-09 3.7836998431967909e-10 0.0000000000000000e+00  -3.0068821718780001e-09 6.0802114371665261e-10 0.0000000000000000e+00  -3.2957448086333435e-09 9.8226269269540718e-10 0.0000000000000000e+00  -3.6378223194653913e-09 1.6443762349417821e-09 0.0000000000000000e+00  -3.8615799264043498e-09 2.8835602959026043e-09 0.0000000000000000e+00  -3.2456183508123506e-09 4.7527333964624511e-09 0.0000000000000000e+00  -2.5884393044366974e-10 5.5229099969582736e-10 0.0000000000000000e+00  -5.8013383181178820e-11 -3.2429961852889621e-10 0.0000000000000000e+00  -1.1117558181466105e-09 -3.3023688050328841e-09 0.0000000000000000e+00  -2.0122539223836885e-09 -2.7370748254445544e-09 0.0000000000000000e+00  -2.3259002529284614e-09 -1.8695150878968435e-09 0.0000000000000000e+00  -2.2642080713903519e-09 -1.2674840581797137e-09 0.0000000000000000e+00  -2.1548228791793858e-09 -8.5430428760551046e-10 0.0000000000000000e+00  -2.0393299162619161e-09 -5.7851097277421527e-10 0.0000000000000000e+00  -1.9457812887675013e-09 -3.8321095306662039e-10 0.0000000000000000e+00  -1.8791672530219805e-09 -2.3549161389017135e-10 0.0000000000000000e+00  -1.8394973263392022e-09 -1.1443310635032874e-10 0.0000000000000000e+00  -1.8257906805095727e-09 -5.3798812522242105e-12 0.0000000000000000e+00  -1.8374988642960316e-09 1.0360153300241120e-10 0.0000000000000000e+00  -1.8748268130002059e-09 2.2435796686777801e-10 0.0000000000000000e+00  -1.9383392504303051e-09 3.7122008493628859e-10 0.0000000000000000e+00  -2.0274137494717915e-09 5.6430269471612776e-10 0.0000000000000000e+00  -2.1357998758475937e-09 8.3435261722897370e-10 0.0000000000000000e+00  -2.2397127235017182e-09 1.2292322371162564e-09 0.0000000000000000e+00  -2.2683998244993565e-09 1.8160492315533679e-09 0.0000000000000000e+00  -2.0483006270700317e-09 2.6386655291436341e-09 0.0000000000000000e+00  -1.3456151751070494e-09 3.3906975896515126e-09 0.0000000000000000e+00  -1.0502101376509132e-10 4.4997526684368486e-10 0.0000000000000000e+00  -3.0476195290615292e-11 -2.4035433566203098e-10 0.0000000000000000e+00  -6.4444821654766319e-10 -2.4554748522196485e-09 0.0000000000000000e+00  -1.2625528674368968e-09 -2.2406459259382230e-09 0.0000000000000000e+00  -1.5884187239137065e-09 -1.7248256601853857e-09 0.0000000000000000e+00  -1.7199209468734586e-09 -1.2623205247854813e-09 0.0000000000000000e+00  -1.7354131073303936e-09 -9.0941176817848821e-10 0.0000000000000000e+00  -1.7110538881591364e-09 -6.3996543765578903e-10 0.0000000000000000e+00  -1.6752992001110032e-09 -4.3343475725637672e-10 0.0000000000000000e+00  -1.6437523969641516e-09 -2.6830472866738672e-10 0.0000000000000000e+00  -1.6228752509564901e-09 -1.2803986250425655e-10 0.0000000000000000e+00  -1.6151679976549447e-09 5.4130160822496807e-13 0.0000000000000000e+00  -1.6212183122418526e-09 1.2894251938871188e-10 0.0000000000000000e+00  -1.6402774158746217e-09 2.6858444190953755e-10 0.0000000000000000e+00  -1.6697135250678260e-09 4.3237203254343798e-10 0.0000000000000000e+00  -1.7030643516841245e-09 6.3622608475100738e-10 0.0000000000000000e+00  -1.7257500491516851e-09 9.0007735389605950e-10 0.0000000000000000e+00  -1.7069881606305081e-09 1.2462130343523599e-09 0.0000000000000000e+00  -1.5879022293420391e-09 1.6888236920183640e-09 0.0000000000000000e+00  -1.2780774773745169e-09 2.1985954592272630e-09 0.0000000000000000e+00  -7.2342689908866131e-10 2.5218113315782155e-09 0.0000000000000000e+00  -5.5085656392593884e-11 3.0521009639176342e-10 0.0000000000000000e+00  -2.0189309990421787e-11 -1.8178850659282306e-10 0.0000000000000000e+00  -4.3095379583609539e-10 -1.8956195860842508e-09 0.0000000000000000e+00  -8.7979258308955757e-10 -1.8103343245047027e-09 0.0000000000000000e+00  -1.1811836801894973e-09 -1.4933867474174083e-09 0.0000000000000000e+00  -1.3569152958485381e-09 -1.1699661335939637e-09 0.0000000000000000e+00  -1.4440741619577434e-09 -8.8451028575268711e-10 0.0000000000000000e+00  -1.4779401485893330e-09 -6.4704901061651393e-10 0.0000000000000000e+00  -1.4860690013313601e-09 -4.5009797753339273e-10 0.0000000000000000e+00  -1.4836626695554474e-09 -2.8372456062381317e-10 0.0000000000000000e+00  -1.4792863771025697e-09 -1.3713744007134880e-10 0.0000000000000000e+00  -1.4770276096180029e-09 -2.5990741726393981e-13 0.0000000000000000e+00  -1.4780789658682172e-09 1.3640116945796902e-10 0.0000000000000000e+00  -1.4812406158142420e-09 2.8228310302802030e-10 0.0000000000000000e+00  -1.4824946500870222e-09 4.4728001805363189e-10 0.0000000000000000e+00  -1.4735964928362090e-09 6.4185692422003935e-10 0.0000000000000000e+00  -1.4395717425818949e-09 8.7600173933946533e-10 0.0000000000000000e+00  -1.3555155312973908e-09 1.1554985727903362e-09 0.0000000000000000e+00  -1.1852662931606457e-09 1.4734164990104930e-09 0.0000000000000000e+00  -8.9033304547552699e-10 1.7933570127922654e-09 0.0000000000000000e+00  -4.7020554163169736e-10 1.9407918648770535e-09 0.0000000000000000e+00  -3.1418279843720491e-11 2.2353933807635115e-10 0.0000000000000000e+00  -1.4158778817632943e-11 -1.4173946288370011e-10 0.0000000000000000e+00  -3.1227878417318014e-10 -1.4953926070410347e-09 0.0000000000000000e+00  -6.5227773280637211e-10 -1.4665984351712732e-09 0.0000000000000000e+00  -9.1311652877714085e-10 -1.2623734807930977e-09 0.0000000000000000e+00  -1.0944105911083714e-09 -1.0332504346031778e-09 0.0000000000000000e+00  -1.2092013689297263e-09 -8.1254085907274963e-10 0.0000000000000000e+00  -1.2764264568313323e-09 -6.1277081013707617e-10 0.0000000000000000e+00  -1.3131003843684494e-09 -4.3632493409980887e-10 0.0000000000000000e+00  -1.3316925024112858e-09 -2.7959974356036416e-10 0.0000000000000000e+00  -1.3399332975608718e-09 -1.3671796227306813e-10 0.0000000000000000e+00  -1.3419846349703888e-09 -9.5117211776955620e-13 0.0000000000000000e+00  -1.3391647397121482e-09 1.3461759829794957e-10 0.0000000000000000e+00  -1.3302352841536670e-09 2.7687794082551095e-10 0.0000000000000000e+00  -1.3111748581518710e-09 4.3249204996607412e-10 0.0000000000000000e+00  -1.2744884601643525e-09 6.0729420994408509e-10 0.0000000000000000e+00  -1.2082989104926327e-09 8.0476759221556462e-10 0.0000000000000000e+00  -1.0959913817313854e-09 1.0230243051106856e-09 0.0000000000000000e+00  -9.1826976482460675e-10 1.2503436260829860e-09 0.0000000000000000e+00  -6.6100719493582928e-10 1.4588793404257097e-09 0.0000000000000000e+00  -3.3696606603953082e-10 1.5288166264792736e-09 0.0000000000000000e+00  -2.0531545967836184e-11 1.7221467976157768e-10 0.0000000000000000e+00  -1.0617908030310166e-11 -1.1218875224397722e-10 0.0000000000000000e+00  -2.3940415471198147e-10 -1.1934702899814596e-09 0.0000000000000000e+00  -5.0716137374295012e-10 -1.1900376731180461e-09 0.0000000000000000e+00  -7.2869029021540480e-10 -1.0520116828978889e-09 0.0000000000000000e+00  -8.9926754043293800e-10 -8.8722874294240398e-10 0.0000000000000000e+00  -1.0213803418708328e-09 -7.1766811198036843e-10 0.0000000000000000e+00  -1.1039781166482965e-09 -5.5445646263334583e-10 0.0000000000000000e+00  -1.1570507580674622e-09 -4.0231418998311071e-10 0.0000000000000000e+00  -1.1890196440971411e-09 -2.6136350626663124e-10 0.0000000000000000e+00  -1.2058239238080748e-09 -1.2900572340563399e-10 0.0000000000000000e+00  -1.2109065664250897e-09 -1.2886045926572391e-12 0.0000000000000000e+00  -1.2054150064526170e-09 1.2627554395003836e-10 0.0000000000000000e+00  -1.1883059973012705e-09 2.5817184089456567e-10 0.0000000000000000e+00  -1.1562744476554028e-09 3.9835225656058127e-10 0.0000000000000000e+00  -1.1035843862673933e-09 5.4944877966177840e-10 0.0000000000000000e+00  -1.0220678066466986e-09 7.1148637095999237e-10 0.0000000000000000e+00  -9.0184594789722488e-10 8.8004797627786847e-10 0.0000000000000000e+00  -7.3364519742129728e-10 1.0445205283374153e-09 0.0000000000000000e+00  -5.1378037376269122e-10 1.1861426936210865e-09 0.0000000000000000e+00  -2.5640104447202185e-10 1.2196097477447622e-09 0.0000000000000000e+00  -1.4677926283547891e-11 1.3542737677061079e-10 0.0000000000000000e+00  -8.4336805183653567e-12 -8.9102898756265618e-11 0.0000000000000000e+00  -1.9166720366097637e-10 -9.5545965811834263e-10 0.0000000000000000e+00  -4.0955332492176528e-10 -9.6303813789963044e-10 0.0000000000000000e+00  -5.9843300677236249e-10 -8.6632236227308615e-10 0.0000000000000000e+00  -7.5337610962097817e-10 -7.4573370233232891e-10 0.0000000000000000e+00  -8.7290581915485502e-10 -6.1561716867557486e-10 0.0000000000000000e+00  -9.6047107077408007e-10 -4.8434401516871393e-10 0.0000000000000000e+00  -1.0213910588624750e-09 -3.5669845230361688e-10 0.0000000000000000e+00  -1.0608190369976832e-09 -2.3430678167791454e-10 0.0000000000000000e+00  -1.0827778029793865e-09 -1.1653863516834931e-10 0.0000000000000000e+00  -1.0897577899151534e-09 -1.4353830493273713e-12 0.0000000000000000e+00  -1.0826244298461494e-09 1.1356513145673556e-10 0.0000000000000000e+00  -1.0606092891750886e-09 2.3103205517214586e-10 0.0000000000000000e+00  -1.0213301992499694e-09 3.5295480070046775e-10 0.0000000000000000e+00  -9.6089207829608790e-10 4.8003551480686791e-10 0.0000000000000000e+00  -8.7424568843676491e-10 6.1079633818412114e-10 0.0000000000000000e+00  -7.5608734195050084e-10 7.4063282298721741e-10 0.0000000000000000e+00  -6.0260353531804701e-10 8.6139664925548545e-10 0.0000000000000000e+00  -4.1436862590081423e-10 9.6094402500853861e-10 0.0000000000000000e+00  -2.0387832981289855e-10 9.7656867089951894e-10 0.0000000000000000e+00  -1.1179092982600127e-11 1.0751392401941879e-10 0.0000000000000000e+00  -6.9948799946097625e-12 -7.0301357314677761e-11 0.0000000000000000e+00  -1.5896751081062489e-10 -7.6086230729994563e-10 0.0000000000000000e+00  -3.4134590455925276e-10 -7.7266175749974949e-10 0.0000000000000000e+00  -5.0438976642465486e-10 -7.0325213921466505e-10 0.0000000000000000e+00  -6.4373882017033304e-10 -6.1397877880466418e-10 0.0000000000000000e+00  -7.5655655975998362e-10 -5.1430194371477862e-10 0.0000000000000000e+00  -8.4349642122446668e-10 -4.1012750726947512e-10 0.0000000000000000e+00  -9.0696162214894422e-10 -3.0549506750690016e-10 0.0000000000000000e+00  -9.4977997777557021e-10 -2.0242739627703420e-10 0.0000000000000000e+00  -9.7438987225125374e-10 -1.0131544360925801e-10 0.0000000000000000e+00  -9.8240196658600592e-10 -1.4732251179830810e-12 0.0000000000000000e+00  -9.7439606202242753e-10 9.8309027851891284e-11 0.0000000000000000e+00  -9.4986786613378633e-10 1.9925220182623115e-10 0.0000000000000000e+00  -9.0728364126359291e-10 3.0207815472831481e-10 0.0000000000000000e+00  -8.4427440431090913e-10 4.0646784592277142e-10 0.0000000000000000e+00  -7.5805622771105303e-10 5.1050265302186465e-10 0.0000000000000000e+00  -6.4618428785101229e-10 6.1023765486075278e-10 0.0000000000000000e+00  -5.0770464849776282e-10 6.9981737021064293e-10 0.0000000000000000e+00  -3.4482336715240316e-10 7.7146440237057080e-10 0.0000000000000000e+00  -1.6794625039577071e-10 7.7837520685322692e-10 0.0000000000000000e+00  -8.9188236976079288e-12 8.5412455044943302e-11 0.0000000000000000e+00  -6.0068968513686890e-12 -5.4458218857463647e-11 0.0000000000000000e+00  -1.3596209464556297e-10 -5.9674106998082974e-10 0.0000000000000000e+00  -2.9260059832609838e-10 -6.0946449328204373e-10 0.0000000000000000e+00  -4.3564454171970701e-10 -5.5917525286358313e-10 0.0000000000000000e+00  -5.6127862061576307e-10 -4.9300793697671820e-10 0.0000000000000000e+00  -6.6631896435444092e-10 -4.1728959734663366e-10 0.0000000000000000e+00  -7.5003070237052558e-10 -3.3607058497838399e-10 0.0000000000000000e+00  -8.1310099802798076e-10 -2.5248038404382553e-10 0.0000000000000000e+00  -8.5680636476144856e-10 -1.6843348128102796e-10 0.0000000000000000e+00  -8.8242988075780043e-10 -8.4744992763065232e-11 0.0000000000000000e+00  -8.9088624503146526e-10 -1.4497538844986838e-12 0.0000000000000000e+00  -8.8251946651464418e-10 8.1817874630033961e-11 0.0000000000000000e+00  -8.5703894101922093e-10 1.6543361614004453e-10 0.0000000000000000e+00  -8.1357918615560904e-10 2.4939441996247986e-10 0.0000000000000000e+00  -7.5089465155818733e-10 3.3293960474238575e-10 0.0000000000000000e+00  -6.6772012491319720e-10 4.1422210298169214e-10 0.0000000000000000e+00  -5.6331767174272452e-10 4.9014546729080833e-10 0.0000000000000000e+00  -4.3819721931405646e-10 5.5663233990063147e-10 0.0000000000000000e+00  -2.9510791287795204e-10 6.0872744416792746e-10 0.0000000000000000e+00  -1.4261178622780326e-10 6.1165600878473472e-10 0.0000000000000000e+00  -7.3786302079167426e-12 6.7261496487290166e-11 0.0000000000000000e+00  -5.3228721286757155e-12 -4.0693525224973923e-11 0.0000000000000000e+00  -1.1966636029295333e-10 -4.5436977625441199e-10 0.0000000000000000e+00  -2.5759413556952600e-10 -4.6640775853956785e-10 0.0000000000000000e+00  -3.8548623302278171e-10 -4.3031047757318919e-10 0.0000000000000000e+00  -4.9987887743763849e-10 -3.8198570855459981e-10 0.0000000000000000e+00  -5.9761312176020065e-10 -3.2571144742715795e-10 0.0000000000000000e+00  -6.7728450902475570e-10 -2.6420281641399609e-10 0.0000000000000000e+00  -7.3859900910616988e-10 -1.9975557115642993e-10 0.0000000000000000e+00  -7.8185387779876926e-10 -1.3396389031900828e-10 0.0000000000000000e+00  -8.0754668452466013e-10 -6.7722010782278325e-11 0.0000000000000000e+00  -8.1609420805500820e-10 -1.3977868386085600e-12 0.0000000000000000e+00  -8.0766572327044004e-10 6.4920990029485522e-11 0.0000000000000000e+00  -7.8212687884937360e-10 1.3115450182237127e-10 0.0000000000000000e+00  -7.3909088333328172e-10 1.9695870590427670e-10 0.0000000000000000e+00  -6.7807898454750618e-10 2.6147682483199334e-10 0.0000000000000000e+00  -5.9879219093457346e-10 3.2315367457541889e-10 0.0000000000000000e+00  -5.0148133749586071e-10 3.7969067750687545e-10 0.0000000000000000e+00  -3.8739051189321163e-10 4.2831161911935485e-10 0.0000000000000000e+00  -2.5938099147571276e-10 4.6591184820102886e-10 0.0000000000000000e+00  -1.2453282478525854e-10 4.6741231214718095e-10 0.0000000000000000e+00  -6.2979010715363269e-12 5.1867294948816746e-11 0.0000000000000000e+00  -4.8640871221556301e-12 -2.8377018815291995e-11 0.0000000000000000e+00  -1.0834602577250120e-10 -3.2745544937932986e-10 0.0000000000000000e+00  -2.3291739484630228e-10 -3.3804868188001242e-10 0.0000000000000000e+00  -3.4973273828179206e-10 -3.1312521559198635e-10 0.0000000000000000e+00  -4.5547794329461229e-10 -2.7926794006526826e-10 0.0000000000000000e+00  -5.4713066934979875e-10 -2.3936449184717690e-10 0.0000000000000000e+00  -6.2297898956002077e-10 -1.9516847032441025e-10 0.0000000000000000e+00  -6.8218317855259607e-10 -1.4826775973842979e-10 0.0000000000000000e+00  -7.2444838047761991e-10 -9.9864688752611156e-11 0.0000000000000000e+00  -7.4976900074146989e-10 -5.0739492291208904e-11 0.0000000000000000e+00  -7.5823016710869575e-10 -1.3397980091261509e-12 0.0000000000000000e+00  -7.4988200718181050e-10 4.8068614654384589e-11 0.0000000000000000e+00  -7.2469574005477397e-10 9.7225697948294486e-11 0.0000000000000000e+00  -6.8260351230115962e-10 1.4570035198634394e-10 0.0000000000000000e+00  -6.2361963048939269e-10 1.9273652547866817e-10 0.0000000000000000e+00  -5.4803368525684712e-10 2.3715179438034963e-10 0.0000000000000000e+00  -4.5665373813857854e-10 2.7733592358072701e-10 0.0000000000000000e+00  -3.5108302928522149e-10 3.1145992698459370e-10 0.0000000000000000e+00  -2.3414543760274514e-10 3.3768029242084711e-10 0.0000000000000000e+00  -1.1176623223352525e-10 3.3917705809106561e-10 0.0000000000000000e+00  -5.5349040628470016e-12 3.8415237211144635e-11 0.0000000000000000e+00  -4.5865308330137770e-12 -1.7023211932639454e-11 0.0000000000000000e+00  -1.0097534460972014e-10 -2.1115113227882441e-10 0.0000000000000000e+00  -2.1651207379158893e-10 -2.1998266675355988e-10 0.0000000000000000e+00  -3.2577634693485961e-10 -2.0439847009570637e-10 0.0000000000000000e+00  -4.2542525937280031e-10 -1.8288554879307365e-10 0.0000000000000000e+00  -5.1257892661489527e-10 -1.