<?xml version="1.0"?>
<VTKFile type="UnstructuredGrid"  version="0.1"  >
<UnstructuredGrid>
<Piece  NumberOfPoints="651" NumberOfCells="1200">
<Points>
<DataArray  type="Float64"  NumberOfComponents="3"  format="ascii">0 0 0  50000 0 0  100000 0 0  150000 0 0  200000 0 0  250000 0 0  300000 0 0  350000 0 0  400000 0 0  450000 0 0  500000 0 0  550000 0 0  600000 0 0  650000 0 0  700000 0 0  750000 0 0  800000 0 0  850000 0 0  900000 0 0  950000 0 0  1000000 0 0  0 50000 0  50000 50000 0  100000 50000 0  150000 50000 0  200000 50000 0  250000 50000 0  300000 50000 0  350000 50000 0  400000 50000 0  450000 50000 0  500000 50000 0  550000 50000 0  600000 50000 0  650000 50000 0  700000 50000 0  750000 50000 0  800000 50000 0  850000 50000 0  900000 50000 0  950000 50000 0  1000000 50000 0  0 100000 0  50000 100000 0  100000 100000 0  150000 100000 0  200000 100000 0  250000 100000 0  300000 100000 0  350000 100000 0  400000 100000 0  450000 100000 0  500000 100000 0  550000 100000 0  600000 100000 0  650000 100000 0  700000 100000 0  750000 100000 0  800000 100000 0  850000 100000 0  900000 100000 0  950000 100000 0  1000000 100000 0  0 150000 0  50000 150000 0  100000 150000 0  150000 150000 0  200000 150000 0  250000 150000 0  300000 150000 0  350000 150000 0  400000 150000 0  450000 150000 0  500000 150000 0  550000 150000 0  600000 150000 0  650000 150000 0  700000 150000 0  750000 150000 0  800000 150000 0  850000 150000 0  900000 150000 0  950000 150000 0  1000000 150000 0  0 200000 0  50000 200000 0  100000 200000 0  150000 200000 0  200000 200000 0  250000 200000 0  300000 200000 0  350000 200000 0  400000 200000 0  450000 200000 0  500000 200000 0  550000 200000 0  600000 200000 0  650000 200000 0  700000 200000 0  750000 200000 0  800000 200000 0  850000 200000 0  900000 200000 0  950000 200000 0  1000000 200000 0  0 250000 0  50000 250000 0  100000 250000 0  150000 250000 0  200000 250000 0  250000 250000 0  300000 250000 0  350000 250000 0  400000 250000 0  450000 250000 0  500000 250000 0  550000 250000 0  600000 250000 0  650000 250000 0  700000 250000 0  750000 250000 0  800000 250000 0  850000 250000 0  900000 250000 0  950000 250000 0  1000000 250000 0  0 300000 0  50000 300000 0  100000 300000 0  150000 300000 0  200000 300000 0  250000 300000 0  300000 300000 0  350000 300000 0  400000 300000 0  450000 300000 0  500000 300000 0  550000 300000 0  600000 300000 0  650000 300000 0  700000 300000 0  750000 300000 0  800000 300000 0  850000 300000 0  900000 300000 0  950000 300000 0  1000000 300000 0  0 350000 0  50000 350000 0  100000 350000 0  150000 350000 0  200000 350000 0  250000 350000 0  300000 350000 0  350000 350000 0  400000 350000 0  450000 350000 0  500000 350000 0  550000 350000 0  600000 350000 0  650000 350000 0  700000 350000 0  750000 350000 0  800000 350000 0  850000 350000 0  900000 350000 0  950000 350000 0  1000000 350000 0  0 400000 0  50000 400000 0  100000 400000 0  150000 400000 0  200000 400000 0  250000 400000 0  300000 400000 0  350000 400000 0  400000 400000 0  450000 400000 0  500000 400000 0  550000 400000 0  600000 400000 0  650000 400000 0  700000 400000 0  750000 400000 0  800000 400000 0  850000 400000 0  900000 400000 0  950000 400000 0  1000000 400000 0  0 450000 0  50000 450000 0  100000 450000 0  150000 450000 0  200000 450000 0  250000 450000 0  300000 450000 0  350000 450000 0  400000 450000 0  450000 450000 0  500000 450000 0  550000 450000 0  600000 450000 0  650000 450000 0  700000 450000 0  750000 450000 0  800000 450000 0  850000 450000 0  900000 450000 0  950000 450000 0  1000000 450000 0  0 500000 0  50000 500000 0  100000 500000 0  150000 500000 0  200000 500000 0  250000 500000 0  300000 500000 0  350000 500000 0  400000 500000 0  450000 500000 0  500000 500000 0  550000 500000 0  600000 500000 0  650000 500000 0  700000 500000 0  750000 500000 0  800000 500000 0  850000 500000 0  900000 500000 0  950000 500000 0  1000000 500000 0  0 550000 0  50000 550000 0  100000 550000 0  150000 550000 0  200000 550000 0  250000 550000 0  300000 550000 0  350000 550000 0  400000 550000 0  450000 550000 0  500000 550000 0  550000 550000 0  600000 550000 0  650000 550000 0  700000 550000 0  750000 550000 0  800000 550000 0  850000 550000 0  900000 550000 0  950000 550000 0  1000000 550000 0  0 600000 0  50000 600000 0  100000 600000 0  150000 600000 0  200000 600000 0  250000 600000 0  300000 600000 0  350000 600000 0  400000 600000 0  450000 600000 0  500000 600000 0  550000 600000 0  600000 600000 0  650000 600000 0  700000 600000 0  750000 600000 0  800000 600000 0  850000 600000 0  900000 600000 0  950000 600000 0  1000000 600000 0  0 650000 0  50000 650000 0  100000 650000 0  150000 650000 0  200000 650000 0  250000 650000 0  300000 650000 0  350000 650000 0  400000 650000 0  450000 650000 0  500000 650000 0  550000 650000 0  600000 650000 0  650000 650000 0  700000 650000 0  750000 650000 0  800000 650000 0  850000 650000 0  900000 650000 0  950000 650000 0  1000000 650000 0  0 700000 0  50000 700000 0  100000 700000 0  150000 700000 0  200000 700000 0  250000 700000 0  300000 700000 0  350000 700000 0  400000 700000 0  450000 700000 0  500000 700000 0  550000 700000 0  600000 700000 0  650000 700000 0  700000 700000 0  750000 700000 0  800000 700000 0  850000 700000 0  900000 700000 0  950000 700000 0  1000000 700000 0  0 750000 0  50000 750000 0  100000 750000 0  150000 750000 0  200000 750000 0  250000 750000 0  300000 750000 0  350000 750000 0  400000 750000 0  450000 750000 0  500000 750000 0  550000 750000 0  600000 750000 0  650000 750000 0  700000 750000 0  750000 750000 0  800000 750000 0  850000 750000 0  900000 750000 0  950000 750000 0  1000000 750000 0  0 800000 0  50000 800000 0  100000 800000 0  150000 800000 0  200000 800000 0  250000 800000 0  300000 800000 0  350000 800000 0  400000 800000 0  450000 800000 0  500000 800000 0  550000 800000 0  600000 800000 0  650000 800000 0  700000 800000 0  750000 800000 0  800000 800000 0  850000 800000 0  900000 800000 0  950000 800000 0  1000000 800000 0  0 850000 0  50000 850000 0  100000 850000 0  150000 850000 0  200000 850000 0  250000 850000 0  300000 850000 0  350000 850000 0  400000 850000 0  450000 850000 0  500000 850000 0  550000 850000 0  600000 850000 0  650000 850000 0  700000 850000 0  750000 850000 0  800000 850000 0  850000 850000 0  900000 850000 0  950000 850000 0  1000000 850000 0  0 900000 0  50000 900000 0  100000 900000 0  150000 900000 0  200000 900000 0  250000 900000 0  300000 900000 0  350000 900000 0  400000 900000 0  450000 900000 0  500000 900000 0  550000 900000 0  600000 900000 0  650000 900000 0  700000 900000 0  750000 900000 0  800000 900000 0  850000 900000 0  900000 900000 0  950000 900000 0  1000000 900000 0  0 950000 0  50000 950000 0  100000 950000 0  150000 950000 0  200000 950000 0  250000 950000 0  300000 950000 0  350000 950000 0  400000 950000 0  450000 950000 0  500000 950000 0  550000 950000 0  600000 950000 0  650000 950000 0  700000 950000 0  750000 950000 0  800000 950000 0  850000 950000 0  900000 950000 0  950000 950000 0  1000000 950000 0  0 1000000 0  50000 1000000 0  100000 1000000 0  150000 1000000 0  200000 1000000 0  250000 1000000 0  300000 1000000 0  350000 1000000 0  400000 1000000 0  450000 1000000 0  500000 1000000 0  550000 1000000 0  600000 1000000 0  650000 1000000 0  700000 1000000 0  750000 1000000 0  800000 1000000 0  850000 1000000 0  900000 1000000 0  950000 1000000 0  1000000 1000000 0  0 1050000 0  50000 1050000 0  100000 1050000 0  150000 1050000 0  200000 1050000 0  250000 1050000 0  300000 1050000 0  350000 1050000 0  400000 1050000 0  450000 1050000 0  500000 1050000 0  550000 1050000 0  600000 1050000 0  650000 1050000 0  700000 1050000 0  750000 1050000 0  800000 1050000 0  850000 1050000 0  900000 1050000 0  950000 1050000 0  1000000 1050000 0  0 1100000 0  50000 1100000 0  100000 1100000 0  150000 1100000 0  200000 1100000 0  250000 1100000 0  300000 1100000 0  350000 1100000 0  400000 1100000 0  450000 1100000 0  500000 1100000 0  550000 1100000 0  600000 1100000 0  650000 1100000 0  700000 1100000 0  750000 1100000 0  800000 1100000 0  850000 1100000 0  900000 1100000 0  950000 1100000 0  1000000 1100000 0  0 1150000 0  50000 1150000 0  100000 1150000 0  150000 1150000 0  200000 1150000 0  250000 1150000 0  300000 1150000 0  350000 1150000 0  400000 1150000 0  450000 1150000 0  500000 1150000 0  550000 1150000 0  600000 1150000 0  650000 1150000 0  700000 1150000 0  750000 1150000 0  800000 1150000 0  850000 1150000 0  900000 1150000 0  950000 1150000 0  1000000 1150000 0  0 1200000 0  50000 1200000 0  100000 1200000 0  150000 1200000 0  200000 1200000 0  250000 1200000 0  300000 1200000 0  350000 1200000 0  400000 1200000 0  450000 1200000 0  500000 1200000 0  550000 1200000 0  600000 1200000 0  650000 1200000 0  700000 1200000 0  750000 1200000 0  800000 1200000 0  850000 1200000 0  900000 1200000 0  950000 1200000 0  1000000 1200000 0  0 1250000 0  50000 1250000 0  100000 1250000 0  150000 1250000 0  200000 1250000 0  250000 1250000 0  300000 1250000 0  350000 1250000 0  400000 1250000 0  450000 1250000 0  500000 1250000 0  550000 1250000 0  600000 1250000 0  650000 1250000 0  700000 1250000 0  750000 1250000 0  800000 1250000 0  850000 1250000 0  900000 1250000 0  950000 1250000 0  1000000 1250000 0  0 1300000 0  50000 1300000 0  100000 1300000 0  150000 1300000 0  200000 1300000 0  250000 1300000 0  300000 1300000 0  350000 1300000 0  400000 1300000 0  450000 1300000 0  500000 1300000 0  550000 1300000 0  600000 1300000 0  650000 1300000 0  700000 1300000 0  750000 1300000 0  800000 1300000 0  850000 1300000 0  900000 1300000 0  950000 1300000 0  1000000 1300000 0  0 1350000 0  50000 1350000 0  100000 1350000 0  150000 1350000 0  200000 1350000 0  250000 1350000 0  300000 1350000 0  350000 1350000 0  400000 1350000 0  450000 1350000 0  500000 1350000 0  550000 1350000 0  600000 1350000 0  650000 1350000 0  700000 135
[...]
<PointData  Scalars="f_1519"> 
<DataArray  type="Float64"  Name="f_1519"  format="ascii">-5.8051101356194881e+00  -5.2817247883306289e+00  -4.7012082824659247e+00  -4.0818668485282892e+00  -3.4428440055425753e+00  -2.7901001503376808e+00  -2.1268578378449265e+00  -1.4555746759082668e+00  -7.7846228612567436e-01  -9.7665756586954422e-02  5.8466531272108524e-01  1.2663435410917383e+00  1.9451173509954527e+00  2.6186280187921738e+00  3.2843197035389209e+00  3.9392482302275225e+00  4.5796783341548659e+00  5.2001899663848361e+00  5.7910764642942913e+00  6.3275708808973237e+00  6.6756272580069798e+00  -5.4733188680568885e+00  -5.2349096893205784e+00  -4.6914145006872410e+00  -4.0804005646939432e+00  -3.4434393098840861e+00  -2.7911890976274734e+00  -2.1279556941356339e+00  -1.4564834152776658e+00  -7.7907723485501856e-01  -9.7917246780249934e-02  5.8483447605145122e-01  1.2669910419182688e+00  1.9463139824080602e+00  2.6204742893066002e+00  3.2869642011416498e+00  3.9428706020570417e+00  4.5842207543996905e+00  5.2038306297733259e+00  5.7836137170088602e+00  6.2671065312404739e+00  6.4760830745046327e+00  -5.0901974154071334e+00  -4.9737336055230648e+00  -4.5645557331455642e+00  -4.0181826213331862e+00  -3.4113731631917839e+00  -2.7740519513590161e+00  -2.1186579546009634e+00  -1.4514660645053235e+00  -7.7644650501476065e-01  -9.6665156985675918e-02  5.8516410771889582e-01  1.2664291310560611e+00  1.9444635781078916e+00  2.6163732020761330e+00  3.2787194081334499e+00  3.9268074415649061e+00  4.5529489454605665e+00  5.1420932426235382e+00  5.6611465557337182e+00  6.0365027851544886e+00  6.1316573386659581e+00  -4.7235397227708331e+00  -4.6542039093594179e+00  -4.3466986108308054e+00  -3.8819178651982793e+00  -3.3274098217969601e+00  -2.7221110741053249e+00  -2.0865091965897293e+00  -1.4318984744948018e+00  -7.6524738906270040e-01  -9.1491239709553238e-02  5.8536283544908918e-01  1.2616473723172017e+00  1.9336336544436836e+00  2.5971137508931124e+00  3.2467573994945962e+00  3.8749147002740489e+00  4.4692626805198996e+00  5.0082943132595901e+00  5.4537054467412593e+00  5.7422148624701608e+00  5.7969334112767097e+00  -4.3771177841767317e+00  -4.3287722728314550e+00  -4.0875016640351065e+00  -3.6940671755437671e+00  -3.1973579951623274e+00  -2.6340552962019577e+00  -2.0279905530013242e+00  -1.3942669265854009e+00  -7.4289135994174049e-01  -8.1083595524377980e-02  5.8536004623609350e-01  1.2512180402404087e+00  1.9112100859535117e+00  2.5593561135455083e+00  3.1881125812821369e+00  3.7870225632209489e+00  4.3405625470962983e+00  4.8250064810032347e+00  5.2050867530270013e+00  5.4345465946129297e+00  5.4732712885308699e+00  -4.0524108742719811e+00  -4.0151035129831261e+00  -3.8173492605823043e+00  -3.4800296436731557e+00  -3.0367108116474171e+00  -2.5178020813173698e+00  -1.9465584593185403e+00  -1.3397633679149528e+00  -7.0960869032220741e-01  -6.5397633214746689e-02  5.8519449579767024e-01  1.2351993757396846e+00  1.8776037422715417e+00  2.5046009826211439e+00  3.1066910628465392e+00  3.6714930678821540e+00  4.1822264919095540e+00  4.6161422145195754e+00  4.9440502678897262e+00  5.1339033836027710e+00  5.1647723010448390e+00  -3.7515174035672376e+00  -3.7208719984782039e+00  -3.5529314137908434e+00  -3.2586493376822951e+00  -2.8610866375560966e+00  -2.3843113064723807e+00  -1.8491853060534345e+00  -1.2725106817407099e+00  -6.6761996670516532e-01  -4.5362691301176129e-02  5.8494233157843389e-01  1.2146841752734321e+00  1.8352259157370305e+00  2.4371804570442968e+00  3.0096234611293142e+00  3.5392200135326739e+00  4.0093711905231508e+00  4.3997688278371712e+00  4.6872578582392839e+00  4.8496728037397281e+00  4.8758472297617628e+00  -3.4766658700143251e+00  -3.4504526659498436e+00  -3.3038369618417711e+00  -3.0426272858689321e+00  -2.6830675529887524e+00  -2.2440587020850331e+00  -1.7436661621074310e+00  -1.1978087689952437e+00  -6.2013604815373269e-01  -2.2452497488141872e-02  5.8467558176260270e-01  1.1912884634044503e+00  1.7874177458607892e+00  2.3624816899870873e+00  2.9046876274345306e+00  3.4004856967890906e+00  3.8342230570153446e+00  4.1883225178975030e+00  4.4445436961771376e+00  4.5871836415802596e+00  4.6101763648156426e+00  -3.2298893896270053e+00  -3.2068209743343128e+00  -3.0759905991332781e+00  -2.8404243294024778e+00  -2.5119914666701604e+00  -2.1057242320067568e+00  -1.6371365901666275e+00  -1.1209320223004067e+00  -5.7056579502210902e-01  1.6926372129774376e-03  5.8444525880141218e-01  1.1667466062344214e+00  1.7376548263695715e+00  2.2857913175313214e+00  2.7989473141859653e+00  3.2638087683752861e+00  3.6659348346486516e+00  3.9902098977106895e+00  4.2220746968557279e+00  4.3499918035068683e+00  4.3706737904118960e+00  -3.0129104947749816e+00  -2.9921653721703247e+00  -2.8732856982297479e+00  -2.6577365542544671e+00  -2.3545632707048325e+00  -1.9760104806941199e+00  -1.5354968294362368e+00  -1.0465019898035206e+00  -5.2203257674730053e-01  2.5519823545704704e-02  5.8427947142965508e-01  1.1426591610807568e+00  1.6890821800754694e+00  2.2117101555914971e+00  2.6982322462659103e+00  3.1357886146454192e+00  3.5111310039569799e+00  3.8111530065592327e+00  4.0239469862133728e+00  4.1406720342495964e+00  4.1596182128400994e+00  -2.8271211376683056e+00  -2.8081301592823489e+00  -2.6983824569548425e+00  -2.4984447574364030e+00  -2.2155213050939788e+00  -1.8598869268754421e+00  -1.4433351484746499e+00  -9.7826509397953176e-01  -4.7715232949041364e-01  4.7696098035823184e-02  5.8418804137408575e-01  1.1203722931614335e+00  1.6443107161589996e+00  2.1439539601839535e+00  2.6070770798467078e+00  3.0213376037090280e+00  3.3745269695087505e+00  3.6550892061959286e+00  3.8529879253395509e+00  3.9611438948150823e+00  3.9787741811582604e+00  -2.6736019585962638e+00  -2.6559415013801360e+00  -2.5531282952217906e+00  -2.3652065623803682e+00  -2.0981739357572287e+00  -1.7609340814028305e+00  -1.3640693332138496e+00  -9.1909710611758666e-01  -4.3798231184673847e-01  6.7152895759944903e-02  5.8416843619286252e-01  1.1009457103755700e+00  1.6053788390718751e+00  2.0853678737023484e+00  2.5288632003482041e+00  2.9240100496891155e+00  3.2594392738337818e+00  3.5247434079290421e+00  3.7111847610218742e+00  3.8128407191599205e+00  3.8294871914888136e+00  -2.5531568741701425e+00  -2.5364905335523944e+00  -2.4388004891120101e+00  -2.2598305952916262e+00  -2.0047946067375677e+00  -1.6816635537050066e+00  -1.3001533998487065e+00  -8.7110834099710588e-01  -4.0605989601012543e-01  8.3079186832596560e-02  5.8421075998403404e-01  1.0851690849155289e+00  1.5737990078829052e+00  2.0380351105453434e+00  2.4660218175278978e+00  2.8463109979795682e+00  3.1681662566827669e+00  3.4219939585562020e+00  3.5999343727436024e+00  3.6968172130066339e+00  3.7127600901922913e+00  -2.4663512434003101e+00  -2.4503957749416618e+00  -2.3562578832871490e+00  -2.1835183142144192e+00  -1.9369019086330992e+00  -1.6237766460915797e+00  -1.2532774588720901e+00  -8.3577564573344887e-01  -3.8247611338957110e-01  9.4891541679892250e-02  5.8430123167233294e-01  1.0735982924721035e+00  1.5506355162559526e+00  2.0034096073456578e+00  2.4202299931007238e+00  2.7899473037468843e+00  3.1022602134133317e+00  3.3481111882426502e+00  3.5202005891665396e+00  3.6138270055512574e+00  3.6293157220921435e+00  -2.4135467029746098e+00  -2.3980509581180462e+00  -2.3060398855770536e+00  -2.1370215856576236e+00  -1.8954519950763664e+00  -1.5883564873409695e+00  -1.2245312352175597e+00  -8.1406310997241194e-01  -3.6795150034078844e-01  1.0219923429939169e-01  5.8442430009846524e-01  1.0665939624590119e+00  1.5365823156947609e+00  1.9824361997449249e+00  2.3925709625766438e+00  2.7560148897754209e+00  3.0627154815656361e+00  3.3039140316434912e+00  3.4726176573721736e+00  3.5643805701658398e+00  3.5796472214952439e+00  -2.3949281309460333e+00  -2.3796592122420033e+00  -2.2884298036601236e+00  -2.1207421166656566e+00  -1.8809635105338067e+00  -1.5759987549480554e+00  -1.2145217103814325e+00  -8.0651421014737612e-01  -3.6289738095423568e-01  1.0477456777984143e-01  5.8456375606471167e-01  1.0643529443495692e+00  1.5320248930836455e+00  1.9756417222767788e+00  2.3836492225108339e+00  2.7451262670774628e+00  3.0500910226632083e+00  3.2898696287950719e+00  3.4575573157895398e+00  3.5487867243714204e+00  3.5640556430754566e+00  -2.4105197093658224e+00  -2.3952530580364200e+00  -2.3034901452427587e+00  -2.1347865195140869e+00  -1.8935879694362328e+00  -1.5868873776460244e+00  -1.2234434504472473e+00  -8.1330868761552655e-01  -3.6745480356535937e-01  1.0253354967040126e-01  5.8470321203096332e-01  1.0669282778300317e+00  1.5370790124702056e+00  1.9831906221018134e+00  2.3936587473469615e+00  2.7574839994703768e+00  3.0645795072057824e+00  3.3061490977870429e+00  3.4751673977064930e+00  3.5671784702474971e+00  3.5826742151040589e+00  -2.4601882099627166e+00  -2.4446994934218393e+00  -2.3510730770371278e+00  -2.1789836761132397e+00  -1.9331327012839319e+00  -1.6208197916175027e+00  -1.2511024809713378e+00  -8.3428209521626151e-01  -3.8150800412654506e-01  9.5529219657320918e-02  5.8482628045710650e-01  1.0742359704495450e+00  1.5516036255190007e+00  2.0049031578628718e+00  2.4224049710015176e+00  2.7929041582210083e+00  3.1060294207625336e+00  3.3526458263438519e+00  3.5253853954166159e+00  3.6195232870711513e+00  3.6354787555297907e+00  -2.5436325780628457e+00  -2.5276897008771879e+00  -2.4308068606141631e+00  -2.2528664464267587e+00  -1.9990387445533444e+00  -1.6771834858501600e+00  -1.2968943053984880e+00  -8.6890759841592957e-01  -4.0467149575347516e-01  8.3958427213911974e-02  5.8491675214542937e-01  1.0860483252968671e+00  1.5751874081395805e+00  2.0402358531265437e+00  2.4692809119781507e+00  2.8507910658344580e+00  3.1739221188670390e+00  3.4289581074210980e+00  3.6079280012414827e+00  3.7056180456818595e+00  3.7222843862996080e+00  -2.6603596793593560e+00  -2.6437132070304679e+00  -2.5420572488924180e+00  -2.3556158957995974e+00  -2.0903117617043421e+00  -1.7548825375596842e+00  -1.3597356882187666e+00  -9.1624036157290778e-01  -4.3625132694241842e-01  6.8181801753896251e-02  5.8495907593662189e-01  1.1019746163695445e+00  1.6071098239762238e+00  2.0882246182470494e+00  2.5331968453433080e+00  2.9300615935322885e+00  3.2673014478867115e+00  3.5343340745098462e+00  3.7222558073512522e+00  3.8250690135095824e+00  3.8427294707257151e+00  -2.8096466690287731e+00  -2.7920163826855990e+00  -2.6838604132100690e+00  -2.4859616940664684e+00  -2.2053994573792779e+00  -1.8522100915795416e+00  -1.4379495677172260e+00  -9.7482644805447016e-01  -4.7518320402949921e-01  4.8755218968071168e-02  5.8493947075543373e-01  1.1214314140936992e+00  1.6462798416199376e+00  2.1473926061090483e+00  2.6124626606041690e+00  3.0290144390049560e+00  3.3846488172234768e+00  3.6675722695658846e+00  3.8675099690843164e+00  3.9772576714118033e+00  3.9962486497977570e+00  -2.9904907007105681e+00  -2.9715445221200820e+00  -2.8548194740838535e+00  -2.6420254944297259e+00  -2.3420034918274744e+00  -1.9666611025158995e+00  -1.5291047341363904e+00  -1.0425826434619709e+00  -5.1995466794592848e-01  2.6468351048799098e-02  5.8484804069991403e-01  1.1436076885838669e+00  1.6911600888768725e+00  2.2156295019330989e+00  2.7046243415658209e+00  3.1451379928236878e+00  3.5236907828343718e+00  3.8268640663839708e+00  4.0424132103592338e+00  4.1612928842997894e+00  4.1820380069044294e+00  -3.2015462782823549e+00  -3.1808642913773379e+00  -3.0529471847261878e+00  -2.8210823855811444e+00  -2.4968073225191083e+00  -2.0946812562457340e+00  -1.6298198020564065e+00  -1.1166638054017424e+00  -5.6852731423997549e-01  2.3809058951852233e-03  5.8468225332820645e-01  1.1674348749166490e+00  1.7396933071517371e+00  2.2900595344300370e+00  2.8062641022962507e+00  3.2748517441363543e+00  3.6811189787997272e+00  4.0095518415320131e+00  4.2451181112627792e+00  4.3759484864638019e+00  4.3990169017564975e+00  -3.4410488526860679e+00  -3.4180561294506751e+00  -3.2754161840475602e+00  -3.0191950057679358e+00  -2.6650955448857587e+00  -2.2313581846594910e+00  -1.7355601153049178e+00  -1.1933541778574606e+00  -6.1829023373115011e-01  -2.2160951274798613e-02  5.8445193036706045e-01  1.1915800096178133e+00  1.7892635602834039e+00  2.3669362811249064e+00  2.9127936742370806e+00  3.4131862142146563e+00  3.8521950651183583e+00  4.2117547979984975e+00  4.4729644739713050e+00  4.6195801780793806e+00  4.6457933821438617e+00  -3.7067197176321609e+00  -3.6805452916101276e+00  -3.5181303461097047e+00  -3.2306413157075906e+00  -2.8402436783935374e+00  -2.3700925014030347e+00  -1.8404959489996500e+00  -1.2680529449146127e+00  -6.6609840360733596e-01  -4.5556663143728519e-02  5.8418518055127844e-01  1.2144902034308918e+00  1.8367474788348783e+00  2.4416381938704048e+00  3.0183128181831158e+00  3.5534388186020305e+00  4.0302141496857393e+00  4.4277768498119210e+00  4.7220589259204351e+00  4.8899995106077823e+00  4.9206449156968208e+00  -3.9956447889152082e+00  -3.9647758714731491e+00  -3.7749227557600902e+00  -3.4470147023899407e+00  -3.0130989797798975e+00  -2.5023655557524900e+00  -1.9375635507168334e+00  -1.3354734704914055e+00  -7.0847623014179950e-01  -6.6071863609940093e-02  5.8393301633208738e-01  1.2345251453445074e+00  1.8787362024519667e+00  2.5088908800446945e+00  3.1156859714482636e+00  3.6869295934470787e+00  4.2058383237771073e+00  4.6491571558028335e+00  4.9864767727119439e+00  5.1842310251127559e+00  5.2215383864016083e+00  -4.3041437764011983e+00  -4.2654190824832616e+00  -4.0359592408973182e+00  -3.6558789688735507e+00  -3.1714350349665992e+00  -2.6178950510912529e+00  -2.0189850691523987e+00  -1.3902286014157388e+00  -7.4208257382373688e-01  -8.2090528110632055e-02  5.8376746589369577e-01  1.2502111076541695e+00  1.9120188720715259e+00  2.5633944387151737e+00  3.1971180651310873e+00  3.8031828083317198e+00  4.3664855072920554e+00  4.8631946876734755e+00  5.2566291761648047e+00  5.4978997849611346e+00  5.5462452963064051e+00  -4.6278058991470035e+00  -4.5730873503404501e+00  -4.2845779346115469e+00  -3.8391668011298714e+00  -3.3001351683901765e+00  -2.7057871881443143e+00  -2.0776298873648287e+00  -1.4279862387633253e+00  -7.6450614231388769e-01  -9.2519860187403366e-02  5.8376467668071885e-01  1.2606187518393663e+00  1.9343749011925029e+00  2.6010259866246006e+00  3.2556367087195386e+00  3.8912385862351280e+00  4.4965373339267378e+00  5.0510453773280268e+00  5.5158261229605419e+00  5.8233314214891410e+00  5.8926672349005473e+00  -4.9625298265362234e+00  -4.8673752730247317e+00  -4.4920190436039844e+00  -3.9729657304938062e+00  -3.3838214333308447e+00  -2.7576799294351617e+00  -2.1095918960036752e+00  -1.4472456899463351e+00  -7.7533606597809412e-01  -9.7301618926253219e-02  5.8396340441092554e-01  1.2657926691154999e+00  1.9455740171445810e+00  2.6205935766351294e+00  3.2877854667307798e+00  3.9431794634888262e+00  4.5805006753215780e+00  5.1873101334629572e+00  5.7336832452753157e+00  6.1428611176527959e+00  6.2593249275368912e+00  -5.3069555623749114e+00  -5.0979790191107490e+00  -4.6144862048791691e+00  -4.0347031176436197e+00  -3.4150932422699634e+00  -2.7737430899272897e+00  -2.1178366890118694e+00  -1.4513467771768005e+00  -7.7718647027825294e-01  -9.7863529788454431e-02  5.8429303607837013e-01  1.2670447589100777e+00  1.9482047469848438e+00  2.6256109274074872e+00  3.2970832062654507e+00  3.9603166097572702e+00  4.6125668220138811e+00  5.2495280768237160e+00  5.8605420128170156e+00  6.4040372014503255e+00  6.6424463801866400e+00  -5.5064997458772540e+00  -5.1584433687675952e+00  -4.6219489521645807e+00  -4.0310624542551228e+00  -3.4105508220251322e+00  -2.7701207180977705e+00  -2.1151921914091387e+00  -1.4495005066623774e+00  -7.7598983886564266e-01  -9.7216028961918902e-02  5.8446219940873989e-01  1.2667932687167769e+00  1.9475897982555033e+00  2.6247021880380910e+00  3.2959853499747491e+00  3.9592276624674771e+00  4.6119715176723721e+00  5.2509943606580762e+00  5.8703357945956904e+00  6.4508523004603919e+00  6.9742376477492432e+00  </DataArray> 
</PointData> 
</Piece>
</UnstructuredGrid>
</VTKFile>