<?xml version="1.0"?>
<VTKFile type="UnstructuredGrid"  version="0.1"  >
<UnstructuredGrid>
<Piece  NumberOfPoints="651" NumberOfCells="1200">
<Points>
<DataArray  type="Float64"  NumberOfComponents="3"  format="ascii">0 0 0  50000 0 0  100000 0 0  150000 0 0  200000 0 0  250000 0 0  300000 0 0  350000 0 0  400000 0 0  450000 0 0  500000 0 0  550000 0 0  600000 0 0  650000 0 0  700000 0 0  750000 0 0  800000 0 0  850000 0 0  900000 0 0  950000 0 0  1000000 0 0  0 50000 0  50000 50000 0  100000 50000 0  150000 50000 0  200000 50000 0  250000 50000 0  300000 50000 0  350000 50000 0  400000 50000 0  450000 50000 0  500000 50000 0  550000 50000 0  600000 50000 0  650000 50000 0  700000 50000 0  750000 50000 0  800000 50000 0  850000 50000 0  900000 50000 0  950000 50000 0  1000000 50000 0  0 100000 0  50000 100000 0  100000 100000 0  150000 100000 0  200000 100000 0  250000 100000 0  300000 100000 0  350000 100000 0  400000 100000 0  450000 100000 0  500000 100000 0  550000 100000 0  600000 100000 0  650000 100000 0  700000 100000 0  750000 100000 0  800000 100000 0  850000 100000 0  900000 100000 0  950000 100000 0  1000000 100000 0  0 150000 0  50000 150000 0  100000 150000 0  150000 150000 0  200000 150000 0  250000 150000 0  300000 150000 0  350000 150000 0  400000 150000 0  450000 150000 0  500000 150000 0  550000 150000 0  600000 150000 0  650000 150000 0  700000 150000 0  750000 150000 0  800000 150000 0  850000 150000 0  900000 150000 0  950000 150000 0  1000000 150000 0  0 200000 0  50000 200000 0  100000 200000 0  150000 200000 0  200000 200000 0  250000 200000 0  300000 200000 0  350000 200000 0  400000 200000 0  450000 200000 0  500000 200000 0  550000 200000 0  600000 200000 0  650000 200000 0  700000 200000 0  750000 200000 0  800000 200000 0  850000 200000 0  900000 200000 0  950000 200000 0  1000000 200000 0  0 250000 0  50000 250000 0  100000 250000 0  150000 250000 0  200000 250000 0  250000 250000 0  300000 250000 0  350000 250000 0  400000 250000 0  450000 250000 0  500000 250000 0  550000 250000 0  600000 250000 0  650000 250000 0  700000 250000 0  750000 250000 0  800000 250000 0  850000 250000 0  900000 250000 0  950000 250000 0  1000000 250000 0  0 300000 0  50000 300000 0  100000 300000 0  150000 300000 0  200000 300000 0  250000 300000 0  300000 300000 0  350000 300000 0  400000 300000 0  450000 300000 0  500000 300000 0  550000 300000 0  600000 300000 0  650000 300000 0  700000 300000 0  750000 300000 0  800000 300000 0  850000 300000 0  900000 300000 0  950000 300000 0  1000000 300000 0  0 350000 0  50000 350000 0  100000 350000 0  150000 350000 0  200000 350000 0  250000 350000 0  300000 350000 0  350000 350000 0  400000 350000 0  450000 350000 0  500000 350000 0  550000 350000 0  600000 350000 0  650000 350000 0  700000 350000 0  750000 350000 0  800000 350000 0  850000 350000 0  900000 350000 0  950000 350000 0  1000000 350000 0  0 400000 0  50000 400000 0  100000 400000 0  150000 400000 0  200000 400000 0  250000 400000 0  300000 400000 0  350000 400000 0  400000 400000 0  450000 400000 0  500000 400000 0  550000 400000 0  600000 400000 0  650000 400000 0  700000 400000 0  750000 400000 0  800000 400000 0  850000 400000 0  900000 400000 0  950000 400000 0  1000000 400000 0  0 450000 0  50000 450000 0  100000 450000 0  150000 450000 0  200000 450000 0  250000 450000 0  300000 450000 0  350000 450000 0  400000 450000 0  450000 450000 0  500000 450000 0  550000 450000 0  600000 450000 0  650000 450000 0  700000 450000 0  750000 450000 0  800000 450000 0  850000 450000 0  900000 450000 0  950000 450000 0  1000000 450000 0  0 500000 0  50000 500000 0  100000 500000 0  150000 500000 0  200000 500000 0  250000 500000 0  300000 500000 0  350000 500000 0  400000 500000 0  450000 500000 0  500000 500000 0  550000 500000 0  600000 500000 0  650000 500000 0  700000 500000 0  750000 500000 0  800000 500000 0  850000 500000 0  900000 500000 0  950000 500000 0  1000000 500000 0  0 550000 0  50000 550000 0  100000 550000 0  150000 550000 0  200000 550000 0  250000 550000 0  300000 550000 0  350000 550000 0  400000 550000 0  450000 550000 0  500000 550000 0  550000 550000 0  600000 550000 0  650000 550000 0  700000 550000 0  750000 550000 0  800000 550000 0  850000 550000 0  900000 550000 0  950000 550000 0  1000000 550000 0  0 600000 0  50000 600000 0  100000 600000 0  150000 600000 0  200000 600000 0  250000 600000 0  300000 600000 0  350000 600000 0  400000 600000 0  450000 600000 0  500000 600000 0  550000 600000 0  600000 600000 0  650000 600000 0  700000 600000 0  750000 600000 0  800000 600000 0  850000 600000 0  900000 600000 0  950000 600000 0  1000000 600000 0  0 650000 0  50000 650000 0  100000 650000 0  150000 650000 0  200000 650000 0  250000 650000 0  300000 650000 0  350000 650000 0  400000 650000 0  450000 650000 0  500000 650000 0  550000 650000 0  600000 650000 0  650000 650000 0  700000 650000 0  750000 650000 0  800000 650000 0  850000 650000 0  900000 650000 0  950000 650000 0  1000000 650000 0  0 700000 0  50000 700000 0  100000 700000 0  150000 700000 0  200000 700000 0  250000 700000 0  300000 700000 0  350000 700000 0  400000 700000 0  450000 700000 0  500000 700000 0  550000 700000 0  600000 700000 0  650000 700000 0  700000 700000 0  750000 700000 0  800000 700000 0  850000 700000 0  900000 700000 0  950000 700000 0  1000000 700000 0  0 750000 0  50000 750000 0  100000 750000 0  150000 750000 0  200000 750000 0  250000 750000 0  300000 750000 0  350000 750000 0  400000 750000 0  450000 750000 0  500000 750000 0  550000 750000 0  600000 750000 0  650000 750000 0  700000 750000 0  750000 750000 0  800000 750000 0  850000 750000 0  900000 750000 0  950000 750000 0  1000000 750000 0  0 800000 0  50000 800000 0  100000 800000 0  150000 800000 0  200000 800000 0  250000 800000 0  300000 800000 0  350000 800000 0  400000 800000 0  450000 800000 0  500000 800000 0  550000 800000 0  600000 800000 0  650000 800000 0  700000 800000 0  750000 800000 0  800000 800000 0  850000 800000 0  900000 800000 0  950000 800000 0  1000000 800000 0  0 850000 0  50000 850000 0  100000 850000 0  150000 850000 0  200000 850000 0  250000 850000 0  300000 850000 0  350000 850000 0  400000 850000 0  450000 850000 0  500000 850000 0  550000 850000 0  600000 850000 0  650000 850000 0  700000 850000 0  750000 850000 0  800000 850000 0  850000 850000 0  900000 850000 0  950000 850000 0  1000000 850000 0  0 900000 0  50000 900000 0  100000 900000 0  150000 900000 0  200000 900000 0  250000 900000 0  300000 900000 0  350000 900000 0  400000 900000 0  450000 900000 0  500000 900000 0  550000 900000 0  600000 900000 0  650000 900000 0  700000 900000 0  750000 900000 0  800000 900000 0  850000 900000 0  900000 900000 0  950000 900000 0  1000000 900000 0  0 950000 0  50000 950000 0  100000 950000 0  150000 950000 0  200000 950000 0  250000 950000 0  300000 950000 0  350000 950000 0  400000 950000 0  450000 950000 0  500000 950000 0  550000 950000 0  600000 950000 0  650000 950000 0  700000 950000 0  750000 950000 0  800000 950000 0  850000 950000 0  900000 950000 0  950000 950000 0  1000000 950000 0  0 1000000 0  50000 1000000 0  100000 1000000 0  150000 1000000 0  200000 1000000 0  250000 1000000 0  300000 1000000 0  350000 1000000 0  400000 1000000 0  450000 1000000 0  500000 1000000 0  550000 1000000 0  600000 1000000 0  650000 1000000 0  700000 1000000 0  750000 1000000 0  800000 1000000 0  850000 1000000 0  900000 1000000 0  950000 1000000 0  1000000 1000000 0  0 1050000 0  50000 1050000 0  100000 1050000 0  150000 1050000 0  200000 1050000 0  250000 1050000 0  300000 1050000 0  350000 1050000 0  400000 1050000 0  450000 1050000 0  500000 1050000 0  550000 1050000 0  600000 1050000 0  650000 1050000 0  700000 1050000 0  750000 1050000 0  800000 1050000 0  850000 1050000 0  900000 1050000 0  950000 1050000 0  1000000 1050000 0  0 1100000 0  50000 1100000 0  100000 1100000 0  150000 1100000 0  200000 1100000 0  250000 1100000 0  300000 1100000 0  350000 1100000 0  400000 1100000 0  450000 1100000 0  500000 1100000 0  550000 1100000 0  600000 1100000 0  650000 1100000 0  700000 1100000 0  750000 1100000 0  800000 1100000 0  850000 1100000 0  900000 1100000 0  950000 1100000 0  1000000 1100000 0  0 1150000 0  50000 1150000 0  100000 1150000 0  150000 1150000 0  200000 1150000 0  250000 1150000 0  300000 1150000 0  350000 1150000 0  400000 1150000 0  450000 1150000 0  500000 1150000 0  550000 1150000 0  600000 1150000 0  650000 1150000 0  700000 1150000 0  750000 1150000 0  800000 1150000 0  850000 1150000 0  900000 1150000 0  950000 1150000 0  1000000 1150000 0  0 1200000 0  50000 1200000 0  100000 1200000 0  150000 1200000 0  200000 1200000 0  250000 1200000 0  300000 1200000 0  350000 1200000 0  400000 1200000 0  450000 1200000 0  500000 1200000 0  550000 1200000 0  600000 1200000 0  650000 1200000 0  700000 1200000 0  750000 1200000 0  800000 1200000 0  850000 1200000 0  900000 1200000 0  950000 1200000 0  1000000 1200000 0  0 1250000 0  50000 1250000 0  100000 1250000 0  150000 1250000 0  200000 1250000 0  250000 1250000 0  300000 1250000 0  350000 1250000 0  400000 1250000 0  450000 1250000 0  500000 1250000 0  550000 1250000 0  600000 1250000 0  650000 1250000 0  700000 1250000 0  750000 1250000 0  800000 1250000 0  850000 1250000 0  900000 1250000 0  950000 1250000 0  1000000 1250000 0  0 1300000 0  50000 1300000 0  100000 1300000 0  150000 1300000 0  200000 1300000 0  250000 1300000 0  300000 1300000 0  350000 1300000 0  400000 1300000 0  450000 1300000 0  500000 1300000 0  550000 1300000 0  600000 1300000 0  650000 1300000 0  700000 1300000 0  750000 1300000 0  800000 1300000 0  850000 1300000 0  900000 1300000 0  950000 1300000 0  1000000 1300000 0  0 1350000 0  50000 1350000 0  100000 1350000 0  150000 1350000 0  200000 1350000 0  250000 1350000 0  300000 1350000 0  350000 1350000 0  400000 1350000 0  450000 1350000 0  500000 1350000 0  550000 1350000 0  600000 1350000 0  650000 1350000 0  700000 135
[...]
<PointData  Scalars="f_1519"> 
<DataArray  type="Float64"  Name="f_1519"  format="ascii">-9.1814846017625147e+00  -8.3795630651469217e+00  -7.4895984431997409e+00  -6.5399143764399907e+00  -5.5599521815064570e+00  -4.5588817807569448e+00  -3.5416631642092780e+00  -2.5120781483426282e+00  -1.4735287854888834e+00  -4.2931385503008529e-01  6.1726145952274691e-01  1.6628340562704746e+00  2.7039419410225092e+00  3.7369577319654308e+00  4.7579495355479535e+00  5.7623851949361375e+00  6.7445085728383933e+00  7.6959539970177175e+00  8.6017219088177530e+00  9.4236331948997289e+00  9.9563317006360510e+00  -8.6733988844008092e+00  -8.3084469295957764e+00  -7.4750238075651074e+00  -6.5379719082645664e+00  -5.5610853085044729e+00  -4.5607174045583214e+00  -3.5434753463239677e+00  -2.5135729391085291e+00  -1.4745512653638384e+00  -4.2976040718508490e-01  6.1747689323375410e-01  1.6637995603999354e+00  2.7057670645198293e+00  3.7397994791307188e+00  4.7620418253111039e+00  5.7680156901999222e+00  6.7516133304515931e+00  7.7017895542530681e+00  8.5907400481466141e+00  9.3317079844735176e+00  9.6510566285884387e+00  -8.0867698699794577e+00  -7.9086962693964491e+00  -7.2812868636937793e+00  -6.4432406455322155e+00  -5.5124556587244147e+00  -4.5348633432816339e+00  -3.5295449466591799e+00  -2.5061237982406173e+00  -1.4706897643945500e+00  -4.2794734337442852e-01  6.1793767734914817e-01  1.6629547889482603e+00  2.7030099819620945e+00  3.7336594508752343e+00  4.7496241607818428e+00  5.7436972025865467e+00  6.7040755711081941e+00  7.6076491643192234e+00  8.4035930944552408e+00  8.9788615746487608e+00  9.1238749109797990e+00  -7.5253494384706903e+00  -7.4194448536419797e+00  -6.9479714012570293e+00  -6.2350296200224680e+00  -5.3843644967550484e+00  -4.4557698445119192e+00  -3.4806914585051243e+00  -2.4764569995198138e+00  -1.4537552658515500e+00  -4.2015645311911332e-01  6.1819213821911967e-01  1.6556634920127649e+00  2.6865360866781911e+00  3.7043528097539524e+00  4.7009340091373195e+00  5.6645392477660872e+00  6.5762528715108806e+00  7.4030545837438115e+00  8.0861242972349228e+00  8.5282822854956137e+00  8.6115253810767367e+00  -6.9949043321972972e+00  -6.9211045693468547e+00  -6.5511950587628043e+00  -5.9476633800333998e+00  -5.1855927467220599e+00  -4.3213211580823341e+00  -3.3914397811167403e+00  -2.4191292395815180e+00  -1.4197437920548144e+00  -4.0435935144026219e-01  6.1813221362314130e-01  1.6397205019385614e+00  2.6523043437845777e+00  3.6467080883832859e+00  4.6113556950657602e+00  5.5301977473699537e+00  6.3794040007264741e+00  7.1225453137706269e+00  7.7054630763255947e+00  8.0571237232861268e+00  8.1160015615990346e+00  -6.4976901359871162e+00  -6.4407518502820542e+00  -6.1375528087830080e+00  -5.6200686388893955e+00  -4.9398483417028967e+00  -4.1436006756498287e+00  -3.2670382733422261e+00  -2.3359275546623981e+00  -1.3689805304961296e+00  -3.8047274354477334e-01  6.1781954744989442e-01  1.6152050711032047e+00  2.6009230929162719e+00  3.5629943967913937e+00  4.4868391484108807e+00  5.3534529534076807e+00  6.1370734053028446e+00  6.8027683987031775e+00  7.3057093880736659e+00  7.5966835534043975e+00  7.6436194997291222e+00  -6.0369179374762894e+00  -5.9901459629243208e+00  -5.7326389531103201e+00  -5.2811412623236667e+00  -4.6710680819534494e+00  -3.9393910075303369e+00  -3.1181517291609819e+00  -2.2331498540453785e+00  -1.3048523434977459e+00  -3.4991103366030457e-01  6.1737348689587823e-01  1.5837876386818632e+00  2.5360776252662998e+00  3.4598372043944594e+00  4.3382986997164519e+00  5.1509911210344219e+00  5.8724282238374821e+00  6.4714229857684851e+00  6.9124115755170337e+00  7.1613548297378973e+00  7.2011634496559580e+00  -5.6160028889232132e+00  -5.5759901299492700e+00  -5.3511575892830665e+00  -4.9503604338583882e+00  -4.3985453381378692e+00  -3.7247495202434493e+00  -2.9567226508261171e+00  -2.1189114853603535e+00  -1.2322729437842870e+00  -3.1492765774116049e-01  6.1690662846534250e-01  1.5479441431088281e+00  2.4628856629972362e+00  3.3454894527529371e+00  4.1776529426910427e+00  4.9385729236746032e+00  5.6042132283191988e+00  6.1475777213612801e+00  6.5406475745545496e+00  6.7593060880766442e+00  6.7942877037756437e+00  -5.2380632493536678e+00  -5.2028447950693675e+00  -5.0021943941996216e+00  -4.6407038256329560e+00  -4.1366026160570870e+00  -3.5129872643502202e+00  -2.7936909206175549e+00  -2.0012965522315280e+00  -1.1564655042423413e+00  -2.7803481483170217e-01  6.1649863491128110e-01  1.5103337741213263e+00  2.3866750755774602e+00  3.2280555551164296e+00  4.0157317918058633e+00  4.7292604300769296e+00  5.3464639672919354e+00  5.8441240011472591e+00  6.1998728756748562e+00  6.3959890286434549e+00  6.4274670842769730e+00  -4.9057425974868822e+00  -4.8740659541804803e+00  -4.6917209760057341e+00  -4.3609096633370799e+00  -3.8955259790477257e+00  -3.3143859696020463e+00  -2.6381062459190923e+00  -1.8873923637466892e+00  -1.0822189683595094e+00  -2.4161288643942713e-01  6.1619335402989139e-01  1.4734113559684661e+00  2.3122689135694259e+00  3.1145911705336702e+00  3.8614759562258936e+00  4.5331752538028969e+00  5.1093407747502164e+00  5.5698376650976114e+00  5.8963688833903545e+00  6.0753523972683903e+00  6.1042003593614718e+00  -4.6211784756710683e+00  -4.5921767211164823e+00  -4.4238187369166830e+00  -4.1169325757344524e+00  -3.6825860540773530e+00  -3.1365706424539921e+00  -2.4970081771227353e+00  -1.7829463253551543e+00  -1.0135460633520417e+00  -2.0770635234135426e-01  6.1600603026627521e-01  1.4392418581860549e+00  2.2436720868012219e+00  3.0107960252434971e+00  3.7218414969762925e+00  4.3578530428217963e+00  4.9000771653419468e+00  5.3307584547180538e+00  5.6344724107610045e+00  5.8003412511420400e+00  5.8271971393181126e+00  -4.3860314540015892e+00  -4.3590598794825093e+00  -4.2013232414375326e+00  -3.9128514588684546e+00  -3.5028604339919700e+00  -2.9850363839571510e+00  -2.3756418190627686e+00  -1.6923715033492013e+00  -9.5360366613986713e-01  -1.7795495819420501e-01  6.1593255513102918e-01  1.4094509104601034e+00  2.1840117903634910e+00  2.9210351128461087e+00  3.6020162574108356e+00  4.2087470685679031e+00  4.7237616320822386e+00  5.1310670928575819e+00  5.4172325105493302e+00  5.5731554954285372e+00  5.5985239526746859e+00  -4.2015377974437316e+00  -4.1760847918228192e+00  -4.0261959458259939e+00  -3.7514431028068760e+00  -3.3598392601678611e+00  -2.8636387708845716e+00  -2.2777741831974256e+00  -1.6189072263315469e+00  -9.0475166397110418e-01  -1.5360383033765299e-01  6.1595725111953392e-01  1.3852498333318883e+00  2.1356085193785508e+00  2.8485048397734634e+00  3.5057307599950893e+00  4.0897012719127259e+00  4.5839210133171688e+00  4.9736460206502926e+00  5.2467930236827041e+00  5.3954144465651934e+00  5.4197213661503323e+00  -4.0685676934708086e+00  -4.0442027106146599e+00  -3.8997565335211726e+00  -3.6345528581807511e+00  -3.2558545606534999e+00  -2.7749901887541073e+00  -2.2060003551032277e+00  -1.5648211098274378e+00  -8.6866538253297143e-01  -1.3554913064099899e-01  6.1605830402176476e-01  1.3674911490443442e+00  2.1000951501560037e+00  2.7954361715107701e+00  3.4355585249819600e+00  4.0033350282917892e+00  4.4829376065657405e+00  4.8604449407301376e+00  5.1246334830400073e+00  5.2682754259455127e+00  5.2918999330904368e+00  -3.9876784335725963e+00  -3.9640198246848142e+00  -3.8228344675528083e+00  -3.5633361199318299e+00  -3.1923752145949931e+00  -2.7207543512208185e+00  -2.1619940908055630e+00  -1.5315939691817619e+00  -8.4645170262359537e-01  -1.2439142441891721e-01  6.1621107573228262e-01  1.3567276820069298e+00  2.0785361934031403e+00  2.7632787905252454e+00  3.3931617761529926e+00  3.9513301605570903e+00  4.4223374423823811e+00  4.7927207993733472e+00  5.0517275367247771e+00  5.1925223428375604e+00  5.2158171937908495e+00  -3.9591555812032135e+00  -3.9358494647958953e+00  -3.7958659279009224e+00  -3.5384106799721473e+00  -3.1701984515117854e+00  -2.7018466972651054e+00  -2.1466881410675147e+00  -1.5200610245200838e+00  -8.3874293543256884e-01  -1.2048110253745190e-01  6.1638985736984853e-01  1.3532608172771363e+00  2.0715226501722528e+00  2.7528407392597605e+00  3.3794678558071940e+00  3.9346264120047931e+00  4.4029781662514731e+00  4.7711903947118746e+00  5.0286456426406509e+00  5.1686291795356345e+00  5.1919352959429625e+00  -3.9830374790511081e+00  -3.9597426280978203e+00  -3.8189478219850552e+00  -3.5599410846336488e+00  -3.1895577276427018e+00  -2.7185504458174394e+00  -2.1603820614133338e+00  -1.5304990757855819e+00  -8.4575647866347636e-01  -1.2394796726724208e-01  6.1656863900742487e-01  1.3571711391586210e+00  2.0792314173632898e+00  2.7643736839214368e+00  3.3947738055452459e+00  3.9535340659605125e+00  4.4251549293347034e+00  4.7961158346715544e+00  5.0556141822925840e+00  5.1967995394246236e+00  5.2204581483123977e+00  -4.0591202183506825e+00  -4.0354957112057814e+00  -3.8918537683002818e+00  -3.6276652259904205e+00  -3.2501578918260576e+00  -2.7705553135521583e+00  -2.2027788102423203e+00  -1.5626564567711068e+00  -8.6731543541633238e-01  -1.3471143430464053e-01  6.1672141071796149e-01  1.3683288453807239e+00  2.1014450972726881e+00  2.7976008245671546e+00  3.4387800698429554e+00  4.0077699034938350e+00  4.4886342753932338e+00  4.8673325729204979e+00  5.1325362482609993e+00  5.2769824253545368e+00  5.3013474082106669e+00  -4.1869416514105406e+00  -4.1626347318253947e+00  -4.0140133089429222e+00  -3.7408663059105041e+00  -3.3511412985774403e+00  -2.8569215571730484e+00  -2.2729510452554074e+00  -1.6157251250337734e+00  -9.0282880463883852e-01  -1.5247011859215817e-01  6.1682246362023263e-01  1.3863835450774236e+00  2.1375313787108645e+00  2.8516869410712906e+00  3.5105538979371751e+00  4.0964184856243353e+00  4.5926189749076709e+00  4.9842228175466898e+00  5.2589756605658149e+00  5.4088645065626313e+00  5.4343175121835445e+00  -4.3657442379348801e+00  -4.3403757806887411e+00  -4.1844527958095359e+00  -3.8982873781178164e+00  -3.4909819173424843e+00  -2.9759673538281799e+00  -2.3692365426711155e+00  -1.6882553981063797e+00  -9.5123207562373846e-01  -1.7667119572033202e-01  6.1684715960877068e-01  1.4107346729340167e+00  2.1863833808796729e+00  2.9251512180889718e+00  3.6084215338025265e+00  4.2178160986969049e+00  4.7356401487317772e+00  5.1456311736082627e+00  5.4341029561773118e+00  5.5918395942222556e+00  5.6188111687413498e+00  -4.5944174245782561e+00  -4.5675615364021827e+00  -4.4016926960211622e+00  -4.0979787399782523e+00  -3.6672974506021419e+00  -3.1250733280819780e+00  -2.4890617822364871e+00  -1.7780163105036995e+00  -1.0108923720614020e+00  -2.0646214344622302e-01  6.1677368447358050e-01  1.4404860670812174e+00  2.2463257780919057e+00  3.0157260400950086e+00  3.7297878918625917e+00  4.3693503571938255e+00  4.9153657688171650e+00  5.3497122904742440e+00  5.6565984516564729e+00  5.8249564358562314e+00  5.8539581904108129e+00  -4.8714206446215407e+00  -4.8425726825285036e+00  -4.6635891686504660e+00  -4.3370579503577504e+00  -3.8765610600103670e+00  -3.3003955390630191e+00  -2.6286962414860273e+00  -1.8818114557938057e+00  -1.0794891988295459e+00  -2.4063164122856068e-01  6.1658636071003747e-01  1.4743926011793638e+00  2.3149986830994451e+00  3.1201720784866467e+00  3.8708859606590589e+00  4.5471656843419783e+00  5.1283056937876044e+00  5.5936893780769044e+00  5.9245006907455382e+00  6.1068456689202426e+00  6.1385223122265966e+00  -5.1946873695370313e+00  -5.1632093139035353e+00  -4.9670931609349269e+00  -4.6113442864073324e+00  -4.1136842525520301e+00  -3.4964807153370101e+00  -2.7829520770659437e+00  -1.9952758403764808e+00  -1.1538953608374867e+00  -2.7755405938133981e-01  6.1628107982872216e-01  1.5108145295717204e+00  2.3892452189823601e+00  3.2340762669715621e+00  4.0264706353575761e+00  4.7457669790901962e+00  5.3693823307970163e+00  5.8734835403728303e+00  6.2349741089394497e+00  6.4356245098091627e+00  6.4708429640934755e+00  -5.5615079890356585e+00  -5.5265263733366421e+00  -5.3078678598145714e+00  -4.9147980066213242e+00  -4.3714335135792242e+00  -3.7057932089346179e+00  -2.9448732279510450e+00  -2.1127097380129096e+00  -1.2301059482571906e+00  -3.1516442836877090e-01  6.1587308627472981e-01  1.5477073724812440e+00  2.4650526585243639e+00  3.3516912001004191e+00  4.1895023655661614e+00  4.9575292349834577e+00  5.6313250528778562e+00  6.1831401485982989e+00  6.5839373040229230e+00  6.8087698446891425e+00  6.8487826036630866e+00  -5.9683837349159559e+00  -5.9285751149978978e+00  -5.6796318607770839e+00  -5.2386432710285309e+00  -4.6396485090974613e+00  -3.9182114062943691e+00  -3.1055189849763716e+00  -2.2270574896543409e+00  -1.3032979105261668e+00  -3.5100792394172575e-01  6.1540622784426624e-01  1.5826907484004535e+00  2.5376320582378860e+00  3.4659295687854792e+00  4.3509314439010609e+00  5.1721707222703719e+00  5.9038477966934959e+00  6.5139209770636732e+00  6.9654186678502672e+00  7.2229256776642474e+00  7.2696976522162320e+00  -6.4108397849890828e+00  -6.3639038386643776e+00  -6.0729296733336291e+00  -5.5699886839631523e+00  -4.9042936905627714e+00  -4.1206732386675951e+00  -3.2540594336707236e+00  -2.3302146820511842e+00  -1.3681433781760646e+00  -3.8242535636300545e-01  6.1496016729031844e-01  1.6132524582849861e+00  2.6017602452363375e+00  3.5687072694025761e+00  4.4998179880823725e+00  5.3763803903899676e+00  6.1726280564430196e+00  6.8528483536294784e+00  7.3703325235230226e+00  7.6735315650220794e+00  7.7304698507271468e+00  -6.8832218468589303e+00  -6.8243440085460305e+00  -6.4726833615854691e+00  -5.8897655990305298e+00  -5.1466242859863458e+00  -4.2974180326298219e+00  -3.3785759803255591e+00  -2.4139283736430368e+00  -1.4195246290443229e+00  -4.0694078719831173e-01  6.1464750111712041e-01  1.6371390661805196e+00  2.6525235067950588e+00  3.6519089543217373e+00  4.6242194958569502e+00  5.5541008728225689e+00  6.4183724614622371e+00  7.1804430947735431e+00  7.7839747735029441e+00  8.1538842840869616e+00  8.2276840469373997e+00  -7.3787456663365756e+00  -7.2955025707554375e+00  -6.8533445824947705e+00  -6.1702748690036664e+00  -5.3434731567707203e+00  -4.4317595330258985e+00  -3.4681542943970673e+00  -2.4715730950136821e+00  -1.4537563719379032e+00  -4.2288377727248500e-01  6.1458757652116536e-01  1.6529361678594019e+00  2.6865349805918126e+00  3.7092367142600646e+00  4.7134711732454075e+00  5.6885495592522188e+00  6.6171442114953116e+00  7.4678093347626753e+00  8.1807511159972357e+00  8.6522245683821737e+00  8.7581291532108700e+00  -7.8910951962395961e+00  -7.7460818599085091e+00  -7.1708133797150548e+00  -6.3748694495790641e+00  -5.4712958563680507e+00  -4.5109174878463447e+00  -3.5168444460415964e+00  -2.5008797361349488e+00  -1.4702302672218133e+00  -4.3017507420797030e-01  6.1484203739115373e-01  1.6607270581147271e+00  2.7034694791348342e+00  3.7389035129808716e+00  4.7623246613994690e+00  5.7676430580219398e+00  6.7452353734646966e+00  7.6760203602724637e+00  8.5140665784340008e+00  9.1414759841366546e+00  9.3195495847197254e+00  -8.4182769138482758e+00  -8.0989282697333422e+00  -7.3579603334065382e+00  -6.4690098395129558e+00  -5.5188336157114479e+00  -4.5352359754597122e+00  -3.5292621105708495e+00  -2.5070197643904426e+00  -1.4729873497795363e+00  -4.3101984565963725e-01  6.1530282150654847e-01  1.6625401219253906e+00  2.7073309801041345e+00  3.7463526538488168e+00  4.7762550610642487e+00  5.7934971192985802e+00  6.7938650232447477e+00  7.7707516230048110e+00  8.7078035223053742e+00  9.5412266443360156e+00  9.9061785991410574e+00  -8.7235519858958810e+00  -8.1908534801595589e+00  -7.3689421940776452e+00  -6.4631742822775990e+00  -5.5117288580982366e+00  -4.5296054801959311e+00  -3.5251698208077009e+00  -2.5041780172251582e+00  -1.4711622262822137e+00  -4.3005434153016997e-01  6.1551825521756198e-01  1.6620935697703811e+00  2.7063085002291847e+00  3.7448578630829186e+00  4.7744428789495688e+00  5.7916614954972037e+00  6.7927318962467362e+00  7.7726940911802593e+00  8.7223781579399784e+00  9.6123427798871734e+00  1.0414264316502768e+01  </DataArray> 
</PointData> 
</Piece>
</UnstructuredGrid>
</VTKFile>