<?xml version="1.0"?>
<VTKFile type="UnstructuredGrid"  version="0.1"  >
<UnstructuredGrid>
<Piece  NumberOfPoints="651" NumberOfCells="1200">
<Points>
<DataArray  type="Float64"  NumberOfComponents="3"  format="ascii">0 0 0  50000 0 0  100000 0 0  150000 0 0  200000 0 0  250000 0 0  300000 0 0  350000 0 0  400000 0 0  450000 0 0  500000 0 0  550000 0 0  600000 0 0  650000 0 0  700000 0 0  750000 0 0  800000 0 0  850000 0 0  900000 0 0  950000 0 0  1000000 0 0  0 50000 0  50000 50000 0  100000 50000 0  150000 50000 0  200000 50000 0  250000 50000 0  300000 50000 0  350000 50000 0  400000 50000 0  450000 50000 0  500000 50000 0  550000 50000 0  600000 50000 0  650000 50000 0  700000 50000 0  750000 50000 0  800000 50000 0  850000 50000 0  900000 50000 0  950000 50000 0  1000000 50000 0  0 100000 0  50000 100000 0  100000 100000 0  150000 100000 0  200000 100000 0  250000 100000 0  300000 100000 0  350000 100000 0  400000 100000 0  450000 100000 0  500000 100000 0  550000 100000 0  600000 100000 0  650000 100000 0  700000 100000 0  750000 100000 0  800000 100000 0  850000 100000 0  900000 100000 0  950000 100000 0  1000000 100000 0  0 150000 0  50000 150000 0  100000 150000 0  150000 150000 0  200000 150000 0  250000 150000 0  300000 150000 0  350000 150000 0  400000 150000 0  450000 150000 0  500000 150000 0  550000 150000 0  600000 150000 0  650000 150000 0  700000 150000 0  750000 150000 0  800000 150000 0  850000 150000 0  900000 150000 0  950000 150000 0  1000000 150000 0  0 200000 0  50000 200000 0  100000 200000 0  150000 200000 0  200000 200000 0  250000 200000 0  300000 200000 0  350000 200000 0  400000 200000 0  450000 200000 0  500000 200000 0  550000 200000 0  600000 200000 0  650000 200000 0  700000 200000 0  750000 200000 0  800000 200000 0  850000 200000 0  900000 200000 0  950000 200000 0  1000000 200000 0  0 250000 0  50000 250000 0  100000 250000 0  150000 250000 0  200000 250000 0  250000 250000 0  300000 250000 0  350000 250000 0  400000 250000 0  450000 250000 0  500000 250000 0  550000 250000 0  600000 250000 0  650000 250000 0  700000 250000 0  750000 250000 0  800000 250000 0  850000 250000 0  900000 250000 0  950000 250000 0  1000000 250000 0  0 300000 0  50000 300000 0  100000 300000 0  150000 300000 0  200000 300000 0  250000 300000 0  300000 300000 0  350000 300000 0  400000 300000 0  450000 300000 0  500000 300000 0  550000 300000 0  600000 300000 0  650000 300000 0  700000 300000 0  750000 300000 0  800000 300000 0  850000 300000 0  900000 300000 0  950000 300000 0  1000000 300000 0  0 350000 0  50000 350000 0  100000 350000 0  150000 350000 0  200000 350000 0  250000 350000 0  300000 350000 0  350000 350000 0  400000 350000 0  450000 350000 0  500000 350000 0  550000 350000 0  600000 350000 0  650000 350000 0  700000 350000 0  750000 350000 0  800000 350000 0  850000 350000 0  900000 350000 0  950000 350000 0  1000000 350000 0  0 400000 0  50000 400000 0  100000 400000 0  150000 400000 0  200000 400000 0  250000 400000 0  300000 400000 0  350000 400000 0  400000 400000 0  450000 400000 0  500000 400000 0  550000 400000 0  600000 400000 0  650000 400000 0  700000 400000 0  750000 400000 0  800000 400000 0  850000 400000 0  900000 400000 0  950000 400000 0  1000000 400000 0  0 450000 0  50000 450000 0  100000 450000 0  150000 450000 0  200000 450000 0  250000 450000 0  300000 450000 0  350000 450000 0  400000 450000 0  450000 450000 0  500000 450000 0  550000 450000 0  600000 450000 0  650000 450000 0  700000 450000 0  750000 450000 0  800000 450000 0  850000 450000 0  900000 450000 0  950000 450000 0  1000000 450000 0  0 500000 0  50000 500000 0  100000 500000 0  150000 500000 0  200000 500000 0  250000 500000 0  300000 500000 0  350000 500000 0  400000 500000 0  450000 500000 0  500000 500000 0  550000 500000 0  600000 500000 0  650000 500000 0  700000 500000 0  750000 500000 0  800000 500000 0  850000 500000 0  900000 500000 0  950000 500000 0  1000000 500000 0  0 550000 0  50000 550000 0  100000 550000 0  150000 550000 0  200000 550000 0  250000 550000 0  300000 550000 0  350000 550000 0  400000 550000 0  450000 550000 0  500000 550000 0  550000 550000 0  600000 550000 0  650000 550000 0  700000 550000 0  750000 550000 0  800000 550000 0  850000 550000 0  900000 550000 0  950000 550000 0  1000000 550000 0  0 600000 0  50000 600000 0  100000 600000 0  150000 600000 0  200000 600000 0  250000 600000 0  300000 600000 0  350000 600000 0  400000 600000 0  450000 600000 0  500000 600000 0  550000 600000 0  600000 600000 0  650000 600000 0  700000 600000 0  750000 600000 0  800000 600000 0  850000 600000 0  900000 600000 0  950000 600000 0  1000000 600000 0  0 650000 0  50000 650000 0  100000 650000 0  150000 650000 0  200000 650000 0  250000 650000 0  300000 650000 0  350000 650000 0  400000 650000 0  450000 650000 0  500000 650000 0  550000 650000 0  600000 650000 0  650000 650000 0  700000 650000 0  750000 650000 0  800000 650000 0  850000 650000 0  900000 650000 0  950000 650000 0  1000000 650000 0  0 700000 0  50000 700000 0  100000 700000 0  150000 700000 0  200000 700000 0  250000 700000 0  300000 700000 0  350000 700000 0  400000 700000 0  450000 700000 0  500000 700000 0  550000 700000 0  600000 700000 0  650000 700000 0  700000 700000 0  750000 700000 0  800000 700000 0  850000 700000 0  900000 700000 0  950000 700000 0  1000000 700000 0  0 750000 0  50000 750000 0  100000 750000 0  150000 750000 0  200000 750000 0  250000 750000 0  300000 750000 0  350000 750000 0  400000 750000 0  450000 750000 0  500000 750000 0  550000 750000 0  600000 750000 0  650000 750000 0  700000 750000 0  750000 750000 0  800000 750000 0  850000 750000 0  900000 750000 0  950000 750000 0  1000000 750000 0  0 800000 0  50000 800000 0  100000 800000 0  150000 800000 0  200000 800000 0  250000 800000 0  300000 800000 0  350000 800000 0  400000 800000 0  450000 800000 0  500000 800000 0  550000 800000 0  600000 800000 0  650000 800000 0  700000 800000 0  750000 800000 0  800000 800000 0  850000 800000 0  900000 800000 0  950000 800000 0  1000000 800000 0  0 850000 0  50000 850000 0  100000 850000 0  150000 850000 0  200000 850000 0  250000 850000 0  300000 850000 0  350000 850000 0  400000 850000 0  450000 850000 0  500000 850000 0  550000 850000 0  600000 850000 0  650000 850000 0  700000 850000 0  750000 850000 0  800000 850000 0  850000 850000 0  900000 850000 0  950000 850000 0  1000000 850000 0  0 900000 0  50000 900000 0  100000 900000 0  150000 900000 0  200000 900000 0  250000 900000 0  300000 900000 0  350000 900000 0  400000 900000 0  450000 900000 0  500000 900000 0  550000 900000 0  600000 900000 0  650000 900000 0  700000 900000 0  750000 900000 0  800000 900000 0  850000 900000 0  900000 900000 0  950000 900000 0  1000000 900000 0  0 950000 0  50000 950000 0  100000 950000 0  150000 950000 0  200000 950000 0  250000 950000 0  300000 950000 0  350000 950000 0  400000 950000 0  450000 950000 0  500000 950000 0  550000 950000 0  600000 950000 0  650000 950000 0  700000 950000 0  750000 950000 0  800000 950000 0  850000 950000 0  900000 950000 0  950000 950000 0  1000000 950000 0  0 1000000 0  50000 1000000 0  100000 1000000 0  150000 1000000 0  200000 1000000 0  250000 1000000 0  300000 1000000 0  350000 1000000 0  400000 1000000 0  450000 1000000 0  500000 1000000 0  550000 1000000 0  600000 1000000 0  650000 1000000 0  700000 1000000 0  750000 1000000 0  800000 1000000 0  850000 1000000 0  900000 1000000 0  950000 1000000 0  1000000 1000000 0  0 1050000 0  50000 1050000 0  100000 1050000 0  150000 1050000 0  200000 1050000 0  250000 1050000 0  300000 1050000 0  350000 1050000 0  400000 1050000 0  450000 1050000 0  500000 1050000 0  550000 1050000 0  600000 1050000 0  650000 1050000 0  700000 1050000 0  750000 1050000 0  800000 1050000 0  850000 1050000 0  900000 1050000 0  950000 1050000 0  1000000 1050000 0  0 1100000 0  50000 1100000 0  100000 1100000 0  150000 1100000 0  200000 1100000 0  250000 1100000 0  300000 1100000 0  350000 1100000 0  400000 1100000 0  450000 1100000 0  500000 1100000 0  550000 1100000 0  600000 1100000 0  650000 1100000 0  700000 1100000 0  750000 1100000 0  800000 1100000 0  850000 1100000 0  900000 1100000 0  950000 1100000 0  1000000 1100000 0  0 1150000 0  50000 1150000 0  100000 1150000 0  150000 1150000 0  200000 1150000 0  250000 1150000 0  300000 1150000 0  350000 1150000 0  400000 1150000 0  450000 1150000 0  500000 1150000 0  550000 1150000 0  600000 1150000 0  650000 1150000 0  700000 1150000 0  750000 1150000 0  800000 1150000 0  850000 1150000 0  900000 1150000 0  950000 1150000 0  1000000 1150000 0  0 1200000 0  50000 1200000 0  100000 1200000 0  150000 1200000 0  200000 1200000 0  250000 1200000 0  300000 1200000 0  350000 1200000 0  400000 1200000 0  450000 1200000 0  500000 1200000 0  550000 1200000 0  600000 1200000 0  650000 1200000 0  700000 1200000 0  750000 1200000 0  800000 1200000 0  850000 1200000 0  900000 1200000 0  950000 1200000 0  1000000 1200000 0  0 1250000 0  50000 1250000 0  100000 1250000 0  150000 1250000 0  200000 1250000 0  250000 1250000 0  300000 1250000 0  350000 1250000 0  400000 1250000 0  450000 1250000 0  500000 1250000 0  550000 1250000 0  600000 1250000 0  650000 1250000 0  700000 1250000 0  750000 1250000 0  800000 1250000 0  850000 1250000 0  900000 1250000 0  950000 1250000 0  1000000 1250000 0  0 1300000 0  50000 1300000 0  100000 1300000 0  150000 1300000 0  200000 1300000 0  250000 1300000 0  300000 1300000 0  350000 1300000 0  400000 1300000 0  450000 1300000 0  500000 1300000 0  550000 1300000 0  600000 1300000 0  650000 1300000 0  700000 1300000 0  750000 1300000 0  800000 1300000 0  850000 1300000 0  900000 1300000 0  950000 1300000 0  1000000 1300000 0  0 1350000 0  50000 1350000 0  100000 1350000 0  150000 1350000 0  200000 1350000 0  250000 1350000 0  300000 1350000 0  350000 1350000 0  400000 1350000 0  450000 1350000 0  500000 1350000 0  550000 1350000 0  600000 1350000 0  650000 1350000 0  700000 135
[...]
<PointData  Scalars="f_1519"> 
<DataArray  type="Float64"  Name="f_1519"  format="ascii">-3.9858159244801072e+00  -3.6098118829853445e+00  -3.1930634790459163e+00  -2.7485645919822579e+00  -2.2900068572096672e+00  -1.8216507965346052e+00  -1.3457980752041667e+00  -8.6420402126620954e-01  -3.7844865568565744e-01  1.0993521167656478e-01  5.9941134786883354e-01  1.0884164257648126e+00  1.5753412355481351e+00  2.0585001092046209e+00  2.5360668770003238e+00  3.0059389081372161e+00  3.4654512729794265e+00  3.9107434146216180e+00  4.3349104150685731e+00  4.7202850053490879e+00  4.9705713672705345e+00  -3.7475942271447851e+00  -3.5760799206141658e+00  -3.1860005922772898e+00  -2.7475360015947250e+00  -2.2904898734782999e+00  -1.8225039647364831e+00  -1.3466643284556159e+00  -8.6493600656844993e-01  -3.7896821777441814e-01  1.0967973706173050e-01  5.9946166609981577e-01  1.0888136928053940e+00  1.5761350442591624e+00  2.0597601267323782e+00  2.5378953578143402e+00  3.0084569716657699e+00  3.4686028557043462e+00  3.9131930833927733e+00  4.3292854174082196e+00  4.6764531078895741e+00  4.8269801958106768e+00  -3.4724299799743177e+00  -3.3884708478820085e+00  -3.0947369313126583e+00  -2.7027062357971299e+00  -2.2673550963176012e+00  -1.8101318288579276e+00  -1.3399572699259032e+00  -8.6133216332405593e-01  -3.7710320200049136e-01  1.1053256614132657e-01  5.9963122345899544e-01  1.0883221483870580e+00  1.5746959674418366e+00  2.0566797732181454e+00  2.5318101036509373e+00  2.9967226958222755e+00  3.4459077646410998e+00  3.8685812816173488e+00  4.2410360603026538e+00  4.5105449878422332e+00  4.5792890851366881e+00  -3.2090795473021854e+00  -3.1589815077917343e+00  -2.9381810062136600e+00  -2.6046951271280041e+00  -2.2069065130200403e+00  -1.7727076364029339e+00  -1.3167829253282897e+00  -8.4723100296866705e-01  -3.6904938250272379e-01  1.1422287834620533e-01  5.9971288511437582e-01  1.0847917096278012e+00  1.5667866596126379e+00  2.0426814049864670e+00  2.5086548492048113e+00  2.9592231023094153e+00  3.3855535955609475e+00  3.7722344221487645e+00  4.0918223460124024e+00  4.2989816326966741e+00  4.3385883272621841e+00  -2.9602603546795603e+00  -2.9252608233917243e+00  -2.7519824245657083e+00  -2.4696818027474472e+00  -2.1133787004552058e+00  -1.7093458614973052e+00  -1.2746579402805043e+00  -8.2014027640384535e-01  -3.5296750232263979e-01  1.2168340607994543e-01  5.9965610811995895e-01  1.0772065929482750e+00  1.5505488847905542e+00  2.0153954624593320e+00  2.4663382232731030e+00  2.8958813420852652e+00  3.2928991122171247e+00  3.6403904979324455e+00  3.9130885649201046e+00  4.0778529421400895e+00  4.1059032258494330e+00  -2.7270414846232232e+00  -2.6999912951090970e+00  -2.5579432051789022e+00  -2.3159031898295348e+00  -1.9979153275340740e+00  -1.6257581429504862e+00  -1.2160898482490574e+00  -7.8093670069066201e-01  -3.2903741191653280e-01  1.3293844898201532e-01  5.9948777824351462e-01  1.0656142232633596e+00  1.5262893385545693e+00  1.9759162505176189e+00  2.4076847710776561e+00  2.8127208729110964e+00  3.1789992886593215e+00  3.4902205800086237e+00  3.7254736270970970e+00  3.8617981415889213e+00  3.8841629048302599e+00  -2.5109328674944296e+00  -2.4886851294108037e+00  -2.3680394578082806e+00  -2.1568817313417123e+00  -1.8717307156232477e+00  -1.5298215645836786e+00  -1.1460960941962612e+00  -7.3259155299565093e-01  -2.9886214146839762e-01  1.4731559622285859e-01  5.9926132571636503e-01  1.0508017705158799e+00  1.4957450571028110e+00  1.9273619652782066e+00  2.3378222072130908e+00  2.7175691257520778e+00  3.0547089794418363e+00  3.3346929042880760e+00  3.5409348408719650e+00  3.6575548038785390e+00  3.6765214769596710e+00  -2.3135353149961144e+00  -2.2944851103517179e+00  -2.1891522559337231e+00  -2.0017301789180553e+00  -1.7438539651585874e+00  -1.4290568804532253e+00  -1.0702760371566871e+00  -6.7891418868910069e-01  -2.6475101966848863e-01  1.6375393509848943e-01  5.9902734172860328e-01  1.0339300629771653e+00  1.4613166950360772e+00  1.8736026325344461e+00  2.2623362598348513e+00  2.6178080741605716e+00  2.9288036332536866e+00  3.1827322122088275e+00  3.3665299984924646e+00  3.4689479224197295e+00  3.4856136335231049e+00  -2.1363079869242103e+00  -2.1195280862786818e+00  -2.0255332476655488e+00  -1.8565184220030284e+00  -1.6209843036140039e+00  -1.3296924643850090e+00  -9.9375131275592565e-01  -6.2369160920608557e-01  -2.2915247817344273e-01  1.8107466131164018e-01  5.9882159459760609e-01  1.0162437769426484e+00  1.4254991421687839e+00  1.8184330133334976e+00  2.1862966792786009e+00  2.5195508156492763e+00  2.8078506767931426e+00  3.0403704031176790e+00  3.2066844449245755e+00  3.2985290177529785e+00  3.3135262493452515e+00  -1.9804863513532360e+00  -1.9653849308671991e+00  -1.8799760532833767e+00  -1.7253324224286559e+00  -1.5079310584209273e+00  -1.2365363495486883e+00  -9.2075504144892417e-01  -5.7024017713810826e-01  -1.9430831099713453e-01  1.9816277972043039e-01  5.9866367093896478e-01  9.9889101154988458e-01  1.3905488325879458e+00  1.7651540421482348e+00  2.1138858832376535e+00  2.4275316323700191e+00  2.6966021653083856e+00  2.9117121577208249e+00  3.0643365816442891e+00  3.1481443994275899e+00  3.1618908298486521e+00  -1.8470682326209218e+00  -1.8332352835727728e+00  -1.7543890297890192e+00  -1.6109555762785990e+00  -1.4080923992630430e+00  -1.1531525454812153e+00  -8.5457810878596974e-01  -5.2124729316812601e-01  -1.6209527822847067e-01  2.1406171962621379e-01  5.9856022693006317e-01  9.8283707877187476e-01  1.3583383355329741e+00  1.7164307509070378e+00  2.0483561526243728e+00  2.3452735494888022e+00  2.5984397172295757e+00  2.7995809896218460e+00  2.9415136311689287e+00  3.0191694615117943e+00  3.0319700365422673e+00  -1.7368279221830760e+00  -1.7239583565537429e+00  -1.6500970997973956e+00  -1.5152936617573820e+00  -1.3238405843389052e+00  -1.0821084481942831e+00  -7.9767134505503445e-01  -4.7877528174394030e-01  -1.3398888106785850e-01  2.2800492180012330e-01  5.9850917658077873e-01  9.6884167466163451e-01  1.3303291961529775e+00  1.6743031609510719e+00  1.9921319439649712e+00  2.2753248819210889e+00  2.5157409853537427e+00  2.7059301241295874e+00  2.8396395403267265e+00  2.9126302828148489e+00  2.9247258953143493e+00  -1.6503412219873965e+00  -1.6381928643234112e+00  -1.5680160489496888e+00  -1.4396434233448374e+00  -1.2568055480183911e+00  -1.0252047292561146e+00  -7.5179418177308932e-01  -4.4433724050327439e-01  -1.1109151570255794e-01  2.3941070901801145e-01  5.9850321767804693e-01  9.5747075919526747e-01  1.3076055665715416e+00  1.6402645708582313e+00  1.9469559392207463e+00  2.2194810891796459e+00  2.4501530374776452e+00  2.6321052727993548e+00  2.7597144761491821e+00  2.8292811383720804e+00  2.8408747353671302e+00  -1.5880130132888126e+00  -1.5763820381775577e+00  -1.5087615632992766e+00  -1.3848661935408695e+00  -1.2080759392622189e+00  -9.8366100086325758e-01  -7.1815822640091109e-01  -4.1899193908610877e-01  -9.4185420963684430e-02  2.4786068774850961e-01  5.9853229082264658e-01  9.4912260980464214e-01  1.2909301397790576e+00  1.6153569073840897e+00  1.9140298861583385e+00  2.1789651086371444e+00  2.4027878091968380e+00  2.5790159911750492e+00  2.7024279425455724e+00  2.7696603885903874e+00  2.7809322919016282e+00  -1.5501023989627702e+00  -1.5388081175153880e+00  -1.4727204047619724e+00  -1.3515010479611853e+00  -1.1783372431997823e+00  -9.5825373682311343e-01  -6.9754467252107288e-01  -4.0343052722519424e-01  -8.3787190537498613e-02  2.5307464492779619e-01  5.9858507625655344e-01  9.4405550933826377e-01  1.2808000584711940e+00  1.6002570512491485e+00  1.8941297411603590e+00  2.1545618296343898e+00  2.3743571823486458e+00  2.5472482055762122e+00  2.6682332018455512e+00  2.7341322228967710e+00  2.7452499263965850e+00  -1.5367421614933576e+00  -1.5256169990094912e+00  -1.4600959610170883e+00  -1.3398362179159098e+00  -1.1679614587952298e+00  -9.4941009876874194e-01  -6.9038874584873622e-01  -3.9804269272251225e-01  -8.0191786797341971e-02  2.5488922552889004e-01  5.9864978255618939e-01  9.4241033958347853e-01  1.2774913519097109e+00  1.5953422578348762e+00  1.8876883109610949e+00  2.1467096638811021e+00  2.3652610239075895e+00  2.5371357830282792e+00  2.6573955261294562e+00  2.7229165641218604e+00  2.7340417266057302e+00  -1.5479503612842145e+00  -1.5368326577844007e+00  -1.4709336367331816e+00  -1.3499486404638481e+00  -1.1770576172362832e+00  -9.5726226452202989e-01  -6.9683017604799879e-01  -4.0295748613678362e-01  -8.3500493358827449e-02  2.5324405577410841e-01  5.9871448885582967e-01  9.4422492018458226e-01  1.2810867556498737e+00  1.6007300923375603e+00  1.8948442376334342e+00  2.1555533019354769e+00  2.3756368083121528e+00  2.5488006130735585e+00  2.6700199698743572e+00  2.7361076826277775e+00  2.7474019640751592e+00  -1.5836327267892580e+00  -1.5723608234780202e+00  -1.5051283774332078e+00  -1.3817164260626824e+00  -1.2054882440844781e+00  -9.8166554352479196e-01  -7.1673032104598100e-01  -4.1805734227172642e-01  -9.3630574666685298e-02  2.4817695530773939e-01  5.9876727428974486e-01  9.4943887736388022e-01  1.2914849860760693e+00  1.6162915041984891e+00  1.9154577915132904e+00  2.1809605659756386e+00  2.4053755043746046e+00  2.5821657586532543e+00  2.7060611284116809e+00  2.7736816032899752e+00  2.7853125784012240e+00  -1.6435751702547441e+00  -1.6319815732596941e+00  -1.5624149110367991e+00  -1.4348057076869700e+00  -1.2528534723652702e+00  -1.0221815240672787e+00  -7.4965637410837427e-01  -4.4296500574585551e-01  -1.1030600145915484e-01  2.3982880591712530e-01  5.9879634743436183e-01  9.5788885609439733e-01  1.3083910808149608e+00  1.6416368056156649e+00  1.9490937468854823e+00  2.2225042943685112e+00  2.4541051131308000e+00  2.6369429884572471e+00  2.7653156140620982e+00  2.8354924294358201e+00  2.8476407870998059e+00  -1.7274263302019535e+00  -1.7153307177024555e+00  -1.6423399752143311e+00  -1.5086305590171989e+00  -1.3184414202413550e+00  -1.0780253168087071e+00  -7.9483237885258096e-01  -4.7700359583867791e-01  -1.3302963104057253e-01  2.2845789045077680e-01  5.9879038853164535e-01  9.6929464331230331e-01  1.3312884461802819e+00  1.6760748468563496e+00  1.9949709101674391e+00  2.2794080133066896e+00  2.5211401494513290e+00  2.7125932268697999e+00  2.8473966649098053e+00  2.9212579216661463e+00  2.9341274872954810e+00  -1.8346704714298503e+00  -1.8218698963993794e+00  -1.7442140660565137e+00  -1.6022814245094401e+00  -1.4011401521171638e+00  -1.1479739843763819e+00  -8.5105658751195279e-01  -5.1913118579461681e-01  -1.6103877042053913e-01  2.1446248634056536e-01  5.9873933818238723e-01  9.8323784548623661e-01  1.3593948433409220e+00  1.7185468582805721e+00  2.0518776738984150e+00  2.3504521105936580e+00  2.6053919643754813e+00  2.8082551413910264e+00  2.9516885949014395e+00  3.0305348486851855e+00  3.0443677977333325e+00  -1.9645912647362036e+00  -1.9508448343151508e+00  -1.8670370165318495e+00  -1.7144125926083871e+00  -1.4993026001959471e+00  -1.2302320672575739e+00  -9.1658631812520608e-01  -5.6785447703578429e-01  -1.9324926747548052e-01  1.9840855356259035e-01  5.9863589417352059e-01  9.9913678539205564e-01  1.3916078761096222e+00  1.7675397422505972e+00  2.1180546065614130e+00  2.4338359146611661e+00  2.7052306235333927e+00  2.9226319875411018e+00  3.0772756183958121e+00  3.1626844959796219e+00  3.1777859164656501e+00  -2.1162266842327928e+00  -2.1012294526405255e+00  -2.0093848798121186e+00  -1.8430708380052152e+00  -1.6105511116806788e+00  -1.3222512505368038e+00  -9.8899711416612313e-01  -6.2113344822100747e-01  -2.2819957705627983e-01  1.8105578816986373e-01  5.9847797051491547e-01  1.0162249038008866e+00  1.4264520432859717e+00  1.8209911743186111e+00  2.1910508778684470e+00  2.5269920294975128e+00  2.8182838687264895e+00  3.0538179871154965e+00  3.2228328127779942e+00  3.3168276513911197e+00  3.3336075520366508e+00  -2.2883140684106262e+00  -2.2716483573072455e+00  -2.1692304333799832e+00  -1.9854326470963488e+00  -1.7315040681411942e+00  -1.4205085090480680e+00  -1.0650366947223373e+00  -6.7630306742192103e-01  -2.6401712992354037e-01  1.6336950213537937e-01  5.9827222338395047e-01  1.0335456300140708e+00  1.4620505847810505e+00  1.8762137538016563e+00  2.2675756022692326e+00  2.6263564455657513e+00  2.9411535302711025e+00  3.1990297440305473e+00  3.3864518210461969e+00  3.4917846754641855e+00  3.5108348801085816e+00  -2.4792219118471710e+00  -2.4602552387660408e+00  -2.3436352757594761e+00  -2.1373933391755835e+00  -1.8574094143293194e+00  -1.5202695606395453e+00  -1.1405226421005408e+00  -7.3006240016564117e-01  -2.9844549199023535e-01  1.4649779459670231e-01  5.9803823939622447e-01  1.0499839688897337e+00  1.4961617065809902e+00  1.9298911181082288e+00  2.3433956593088316e+00  2.7271211296962288e+00  3.0690302807357908e+00  3.3541812964542408e+00  3.5653390229207877e+00  3.6859846945232992e+00  3.7082324326069251e+00  -2.6868633397177364e+00  -2.6644985764763991e+00  -2.5281740619845676e+00  -2.2929210148960921e+00  -1.9816997235467722e+00  -1.6154213077985422e+00  -1.2103852059650757e+00  -7.7861668540501450e-01  -3.2898977344196051e-01  1.3168534184925343e-01  5.9781178686910796e-01  1.0643611161306086e+00  1.5263369770291597e+00  1.9782362658032737e+00  2.4133894133616569e+00  2.8230577080630774e+00  3.1952148926466513e+00  3.5132027549420992e+00  3.7552427702914430e+00  3.8972908602216259e+00  3.9243410497357480e+00  -2.9086036607368819e+00  -2.8805533770275376e+00  -2.7157889998075446e+00  -2.4430909328198811e+00  -2.0955995471045448e+00  -1.6985817769726832e+00  -1.2690386581604962e+00  -8.1809589734670340e-01  -3.5324931967792012e-01  1.2009297216435930e-01  5.9764345699268617e-01  1.0756161590327014e+00  1.5502670674352843e+00  2.0174398415164805e+00  2.4719575053931337e+00  2.9066454266099337e+00  3.3106782655678098e+00  3.6669813678600343e+00  3.9492819896782829e+00  4.1225603885042830e+00  4.1575599197921145e+00  -3.1412887621496099e+00  -3.1016820675840981e+00  -2.8945227808998202e+00  -2.5749348570361730e+00  -2.1882540304483467e+00  -1.7619235371968034e+00  -1.3113552840921818e+00  -8.4538183987382387e-01  -3.6948709449998807e-01  1.1250785548485043e-01  5.9758667999828319e-01  1.0830766867664567e+00  1.5663489476153813e+00  2.0445305680813188e+00  2.5140824904409498e+00  2.9700072015155854e+00  3.4042060781326762e+00  3.8019946922406165e+00  4.1354805713262559e+00  4.3562810729043164e+00  4.4063791124147658e+00  -3.3819895200240917e+00  -3.3132454227296257e+00  -3.0437364951900538e+00  -2.6712817165047422e+00  -2.2486081995284941e+00  -1.7994231307096551e+00  -1.3345105385382985e+00  -8.5938020810549320e-01  -3.7739640232918303e-01  1.0897741672560121e-01  5.9766834165367333e-01  1.0867669989713435e+00  1.5744027671131617e+00  2.0586317284367150e+00  2.5372568350385678e+00  3.0074313939705850e+00  3.4646546614302469e+00  3.9000058009097525e+00  4.2920364964252702e+00  4.5857704129946040e+00  4.6697295450869261e+00  -3.6296806306980862e+00  -3.4791535427769795e+00  -3.1319858522956388e+00  -2.7158935182801796e+00  -2.2713032905917379e+00  -1.8111574065531424e+00  -1.3405957927016987e+00  -8.6246056161972673e-01  -3.7883547914650340e-01  1.0848587230726939e-01  5.9783789901285267e-01  1.0876198280509419e+00  1.5762677828870910e+00  2.0622355716811192e+00  2.5439638935682809e+00  3.0198035298491375e+00  3.4877894385909483e+00  3.9448355667073551e+00  4.3833001573899164e+00  4.7733794857267728e+00  4.9448937922573943e+00  -3.7732718021579381e+00  -3.5229854402364911e+00  -3.1376108499559829e+00  -2.7134438495090207e+00  -2.2681517078668136e+00  -1.8086393430245886e+00  -1.3387673118876811e+00  -8.6120054409197011e-01  -3.7804167043547415e-01  1.0888313934785419e-01  5.9788821724383800e-01  1.0873643534361042e+00  1.5757482207983329e+00  2.0615035863788802e+00  2.5430976403168359e+00  3.0189503616472577e+00  3.4873064223223182e+00  3.9458641570948938e+00  4.3903630441585380e+00  4.8071114480979631e+00  5.1831154895927218e+00  </DataArray> 
</PointData> 
</Piece>
</UnstructuredGrid>
</VTKFile>