<?xml version="1.0"?>
<VTKFile type="UnstructuredGrid"  version="0.1"  >
<UnstructuredGrid>
<Piece  NumberOfPoints="651" NumberOfCells="1200">
<Points>
<DataArray  type="Float64"  NumberOfComponents="3"  format="ascii">0 0 0  50000 0 0  100000 0 0  150000 0 0  200000 0 0  250000 0 0  300000 0 0  350000 0 0  400000 0 0  450000 0 0  500000 0 0  550000 0 0  600000 0 0  650000 0 0  700000 0 0  750000 0 0  800000 0 0  850000 0 0  900000 0 0  950000 0 0  1000000 0 0  0 50000 0  50000 50000 0  100000 50000 0  150000 50000 0  200000 50000 0  250000 50000 0  300000 50000 0  350000 50000 0  400000 50000 0  450000 50000 0  500000 50000 0  550000 50000 0  600000 50000 0  650000 50000 0  700000 50000 0  750000 50000 0  800000 50000 0  850000 50000 0  900000 50000 0  950000 50000 0  1000000 50000 0  0 100000 0  50000 100000 0  100000 100000 0  150000 100000 0  200000 100000 0  250000 100000 0  300000 100000 0  350000 100000 0  400000 100000 0  450000 100000 0  500000 100000 0  550000 100000 0  600000 100000 0  650000 100000 0  700000 100000 0  750000 100000 0  800000 100000 0  850000 100000 0  900000 100000 0  950000 100000 0  1000000 100000 0  0 150000 0  50000 150000 0  100000 150000 0  150000 150000 0  200000 150000 0  250000 150000 0  300000 150000 0  350000 150000 0  400000 150000 0  450000 150000 0  500000 150000 0  550000 150000 0  600000 150000 0  650000 150000 0  700000 150000 0  750000 150000 0  800000 150000 0  850000 150000 0  900000 150000 0  950000 150000 0  1000000 150000 0  0 200000 0  50000 200000 0  100000 200000 0  150000 200000 0  200000 200000 0  250000 200000 0  300000 200000 0  350000 200000 0  400000 200000 0  450000 200000 0  500000 200000 0  550000 200000 0  600000 200000 0  650000 200000 0  700000 200000 0  750000 200000 0  800000 200000 0  850000 200000 0  900000 200000 0  950000 200000 0  1000000 200000 0  0 250000 0  50000 250000 0  100000 250000 0  150000 250000 0  200000 250000 0  250000 250000 0  300000 250000 0  350000 250000 0  400000 250000 0  450000 250000 0  500000 250000 0  550000 250000 0  600000 250000 0  650000 250000 0  700000 250000 0  750000 250000 0  800000 250000 0  850000 250000 0  900000 250000 0  950000 250000 0  1000000 250000 0  0 300000 0  50000 300000 0  100000 300000 0  150000 300000 0  200000 300000 0  250000 300000 0  300000 300000 0  350000 300000 0  400000 300000 0  450000 300000 0  500000 300000 0  550000 300000 0  600000 300000 0  650000 300000 0  700000 300000 0  750000 300000 0  800000 300000 0  850000 300000 0  900000 300000 0  950000 300000 0  1000000 300000 0  0 350000 0  50000 350000 0  100000 350000 0  150000 350000 0  200000 350000 0  250000 350000 0  300000 350000 0  350000 350000 0  400000 350000 0  450000 350000 0  500000 350000 0  550000 350000 0  600000 350000 0  650000 350000 0  700000 350000 0  750000 350000 0  800000 350000 0  850000 350000 0  900000 350000 0  950000 350000 0  1000000 350000 0  0 400000 0  50000 400000 0  100000 400000 0  150000 400000 0  200000 400000 0  250000 400000 0  300000 400000 0  350000 400000 0  400000 400000 0  450000 400000 0  500000 400000 0  550000 400000 0  600000 400000 0  650000 400000 0  700000 400000 0  750000 400000 0  800000 400000 0  850000 400000 0  900000 400000 0  950000 400000 0  1000000 400000 0  0 450000 0  50000 450000 0  100000 450000 0  150000 450000 0  200000 450000 0  250000 450000 0  300000 450000 0  350000 450000 0  400000 450000 0  450000 450000 0  500000 450000 0  550000 450000 0  600000 450000 0  650000 450000 0  700000 450000 0  750000 450000 0  800000 450000 0  850000 450000 0  900000 450000 0  950000 450000 0  1000000 450000 0  0 500000 0  50000 500000 0  100000 500000 0  150000 500000 0  200000 500000 0  250000 500000 0  300000 500000 0  350000 500000 0  400000 500000 0  450000 500000 0  500000 500000 0  550000 500000 0  600000 500000 0  650000 500000 0  700000 500000 0  750000 500000 0  800000 500000 0  850000 500000 0  900000 500000 0  950000 500000 0  1000000 500000 0  0 550000 0  50000 550000 0  100000 550000 0  150000 550000 0  200000 550000 0  250000 550000 0  300000 550000 0  350000 550000 0  400000 550000 0  450000 550000 0  500000 550000 0  550000 550000 0  600000 550000 0  650000 550000 0  700000 550000 0  750000 550000 0  800000 550000 0  850000 550000 0  900000 550000 0  950000 550000 0  1000000 550000 0  0 600000 0  50000 600000 0  100000 600000 0  150000 600000 0  200000 600000 0  250000 600000 0  300000 600000 0  350000 600000 0  400000 600000 0  450000 600000 0  500000 600000 0  550000 600000 0  600000 600000 0  650000 600000 0  700000 600000 0  750000 600000 0  800000 600000 0  850000 600000 0  900000 600000 0  950000 600000 0  1000000 600000 0  0 650000 0  50000 650000 0  100000 650000 0  150000 650000 0  200000 650000 0  250000 650000 0  300000 650000 0  350000 650000 0  400000 650000 0  450000 650000 0  500000 650000 0  550000 650000 0  600000 650000 0  650000 650000 0  700000 650000 0  750000 650000 0  800000 650000 0  850000 650000 0  900000 650000 0  950000 650000 0  1000000 650000 0  0 700000 0  50000 700000 0  100000 700000 0  150000 700000 0  200000 700000 0  250000 700000 0  300000 700000 0  350000 700000 0  400000 700000 0  450000 700000 0  500000 700000 0  550000 700000 0  600000 700000 0  650000 700000 0  700000 700000 0  750000 700000 0  800000 700000 0  850000 700000 0  900000 700000 0  950000 700000 0  1000000 700000 0  0 750000 0  50000 750000 0  100000 750000 0  150000 750000 0  200000 750000 0  250000 750000 0  300000 750000 0  350000 750000 0  400000 750000 0  450000 750000 0  500000 750000 0  550000 750000 0  600000 750000 0  650000 750000 0  700000 750000 0  750000 750000 0  800000 750000 0  850000 750000 0  900000 750000 0  950000 750000 0  1000000 750000 0  0 800000 0  50000 800000 0  100000 800000 0  150000 800000 0  200000 800000 0  250000 800000 0  300000 800000 0  350000 800000 0  400000 800000 0  450000 800000 0  500000 800000 0  550000 800000 0  600000 800000 0  650000 800000 0  700000 800000 0  750000 800000 0  800000 800000 0  850000 800000 0  900000 800000 0  950000 800000 0  1000000 800000 0  0 850000 0  50000 850000 0  100000 850000 0  150000 850000 0  200000 850000 0  250000 850000 0  300000 850000 0  350000 850000 0  400000 850000 0  450000 850000 0  500000 850000 0  550000 850000 0  600000 850000 0  650000 850000 0  700000 850000 0  750000 850000 0  800000 850000 0  850000 850000 0  900000 850000 0  950000 850000 0  1000000 850000 0  0 900000 0  50000 900000 0  100000 900000 0  150000 900000 0  200000 900000 0  250000 900000 0  300000 900000 0  350000 900000 0  400000 900000 0  450000 900000 0  500000 900000 0  550000 900000 0  600000 900000 0  650000 900000 0  700000 900000 0  750000 900000 0  800000 900000 0  850000 900000 0  900000 900000 0  950000 900000 0  1000000 900000 0  0 950000 0  50000 950000 0  100000 950000 0  150000 950000 0  200000 950000 0  250000 950000 0  300000 950000 0  350000 950000 0  400000 950000 0  450000 950000 0  500000 950000 0  550000 950000 0  600000 950000 0  650000 950000 0  700000 950000 0  750000 950000 0  800000 950000 0  850000 950000 0  900000 950000 0  950000 950000 0  1000000 950000 0  0 1000000 0  50000 1000000 0  100000 1000000 0  150000 1000000 0  200000 1000000 0  250000 1000000 0  300000 1000000 0  350000 1000000 0  400000 1000000 0  450000 1000000 0  500000 1000000 0  550000 1000000 0  600000 1000000 0  650000 1000000 0  700000 1000000 0  750000 1000000 0  800000 1000000 0  850000 1000000 0  900000 1000000 0  950000 1000000 0  1000000 1000000 0  0 1050000 0  50000 1050000 0  100000 1050000 0  150000 1050000 0  200000 1050000 0  250000 1050000 0  300000 1050000 0  350000 1050000 0  400000 1050000 0  450000 1050000 0  500000 1050000 0  550000 1050000 0  600000 1050000 0  650000 1050000 0  700000 1050000 0  750000 1050000 0  800000 1050000 0  850000 1050000 0  900000 1050000 0  950000 1050000 0  1000000 1050000 0  0 1100000 0  50000 1100000 0  100000 1100000 0  150000 1100000 0  200000 1100000 0  250000 1100000 0  300000 1100000 0  350000 1100000 0  400000 1100000 0  450000 1100000 0  500000 1100000 0  550000 1100000 0  600000 1100000 0  650000 1100000 0  700000 1100000 0  750000 1100000 0  800000 1100000 0  850000 1100000 0  900000 1100000 0  950000 1100000 0  1000000 1100000 0  0 1150000 0  50000 1150000 0  100000 1150000 0  150000 1150000 0  200000 1150000 0  250000 1150000 0  300000 1150000 0  350000 1150000 0  400000 1150000 0  450000 1150000 0  500000 1150000 0  550000 1150000 0  600000 1150000 0  650000 1150000 0  700000 1150000 0  750000 1150000 0  800000 1150000 0  850000 1150000 0  900000 1150000 0  950000 1150000 0  1000000 1150000 0  0 1200000 0  50000 1200000 0  100000 1200000 0  150000 1200000 0  200000 1200000 0  250000 1200000 0  300000 1200000 0  350000 1200000 0  400000 1200000 0  450000 1200000 0  500000 1200000 0  550000 1200000 0  600000 1200000 0  650000 1200000 0  700000 1200000 0  750000 1200000 0  800000 1200000 0  850000 1200000 0  900000 1200000 0  950000 1200000 0  1000000 1200000 0  0 1250000 0  50000 1250000 0  100000 1250000 0  150000 1250000 0  200000 1250000 0  250000 1250000 0  300000 1250000 0  350000 1250000 0  400000 1250000 0  450000 1250000 0  500000 1250000 0  550000 1250000 0  600000 1250000 0  650000 1250000 0  700000 1250000 0  750000 1250000 0  800000 1250000 0  850000 1250000 0  900000 1250000 0  950000 1250000 0  1000000 1250000 0  0 1300000 0  50000 1300000 0  100000 1300000 0  150000 1300000 0  200000 1300000 0  250000 1300000 0  300000 1300000 0  350000 1300000 0  400000 1300000 0  450000 1300000 0  500000 1300000 0  550000 1300000 0  600000 1300000 0  650000 1300000 0  700000 1300000 0  750000 1300000 0  800000 1300000 0  850000 1300000 0  900000 1300000 0  950000 1300000 0  1000000 1300000 0  0 1350000 0  50000 1350000 0  100000 1350000 0  150000 1350000 0  200000 1350000 0  250000 1350000 0  300000 1350000 0  350000 1350000 0  400000 1350000 0  450000 1350000 0  500000 1350000 0  550000 1350000 0  600000 1350000 0  650000 1350000 0  700000 135
[...]
<PointData  Scalars="f_1519"> 
<DataArray  type="Float64"  Name="f_1519"  format="ascii">-6.5120886448627484e+00  -5.9231649908115696e+00  -5.2698363280737146e+00  -4.5727665403362261e+00  -3.8535221704475449e+00  -3.1188188267410069e+00  -2.3722878935790273e+00  -1.6166985542495811e+00  -8.5454250677504351e-01  -8.8236254526220317e-02  6.7979875260329536e-01  1.4470985500363513e+00  2.2111268111575360e+00  2.9692263530830614e+00  3.7185175970914583e+00  4.4556827542782003e+00  5.1765110792736602e+00  5.8748894449126974e+00  6.5398658022125655e+00  7.1435173947864747e+00  7.5350194173265805e+00  -6.1388168256986528e+00  -5.8706334210195203e+00  -5.2589197653516964e+00  -4.5711907005452836e+00  -3.8542466999905995e+00  -3.1200862155675346e+00  -2.3735565550805893e+00  -1.6177478086235324e+00  -8.5525579011766295e-01  -8.8535860167533162e-02  6.7997684475237163e-01  1.4478191947321901e+00  2.2124699242471793e+00  2.9713057288359117e+00  3.7215018859863589e+00  4.4597769983010656e+00  5.1816559893774539e+00  5.8790463294427040e+00  6.5315749661329860e+00  7.0756505653181359e+00  7.3105975430320234e+00  -5.7078126458792182e+00  -5.5768533623126322e+00  -5.1163271832721184e+00  -4.5013250698019531e+00  -3.8182859138267538e+00  -3.1009007340435302e+00  -2.3631714470627365e+00  -1.6121608388818836e+00  -8.5233787716780141e-01  -8.7153988296036766e-02  6.8033535080757901e-01  1.4471889865412737e+00  2.2104046906599115e+00  2.9667236429470041e+00  3.7122742284507613e+00  4.4417706161757655e+00  5.1465563088639437e+00  5.8096842990994491e+00  6.3938887811595837e+00  6.8162837188535237e+00  6.9231703641010292e+00  -5.2953307867740351e+00  -5.2173915330910265e+00  -4.8713059172467910e+00  -4.3481344301665645e+00  -3.7239422756882208e+00  -3.0425737308150773e+00  -2.3270948381166163e+00  -1.5902195348307258e+00  -8.3979168389924996e-01  -8.1366558004990583e-02  6.8054514990081105e-01  1.4418149237734161e+00  2.1982451737505597e+00  2.9450987714266912e+00  3.6763750290715302e+00  4.3834615821754026e+00  5.0524842480401269e+00  5.6592269976862006e+00  6.1605583956414645e+00  6.4852210913458919e+00  6.5466520366344110e+00  -4.9056124228691296e+00  -4.8512784776648958e+00  -4.5797402508786176e+00  -4.1368711980367250e+00  -3.5777239118352981e+00  -2.9436047816536002e+00  -2.2613476181209697e+00  -1.5479561955159475e+00  -8.1469566487848877e-01  -6.9693105615554016e-02  6.8052680440370072e-01  1.4300863469352725e+00  2.1730415036483857e+00  2.9026603199852219e+00  3.6104504459913134e+00  4.2846390873185856e+00  4.9077482134570216e+00  5.4530628114479427e+00  5.8808703230674215e+00  6.1390841332576240e+00  6.1825516405911962e+00  -4.5403193527298944e+00  -4.4983934432795083e+00  -4.2758288077146203e+00  -3.8961174618275871e+00  -3.3970568820615843e+00  -2.8128916040784007e+00  -2.1698078828751552e+00  -1.4867028149561765e+00  -7.7730244590394348e-01  -5.2079947802764051e-02  6.8032444611863396e-01  1.4120664360706932e+00  2.1352510125942228e+00  2.8410897873521206e+00  3.5188874917193083e+00  4.1547047547945448e+00  4.7296476883281917e+00  5.2181005881240754e+00  5.5871938160829684e+00  5.8008411402847022e+00  5.8354916192993462e+00  -4.2018116587135204e+00  -4.1673718587528414e+00  -3.9783566808409980e+00  -3.6470824042061780e+00  -3.1995168351116781e+00  -2.6627641421093231e+00  -2.0603168383476533e+00  -1.4110940613515739e+00  -7.3010704332897647e-01  -2.9570565387683427e-02  6.8002438093510720e-01  1.3889839001516853e+00  2.0875847562632326e+00  2.7652588896528081e+00  3.4097070704422268e+00  4.0059153168511941e+00  4.5351935769556606e+00  4.9746739570110758e+00  5.2982816774023220e+00  5.4810574443989033e+00  5.5104412122498898e+00  -3.8925969120607884e+00  -3.8631363884774133e+00  -3.6981162295465664e+00  -3.4040618731882129e+00  -2.9992649582644231e+00  -2.5050114448860734e+00  -1.9416454196800017e+00  -1.3270922965528336e+00  -6.7672099156535181e-01  -3.8221504651258223e-03  6.7970817979689391e-01  1.3626570947340688e+00  2.0338018927853048e+00  2.6812290828193333e+00  3.2916613252916944e+00  3.8498420987057198e+00  4.3381460220582841e+00  4.7367796866556322e+00  5.0252018983152817e+00  5.1857299973595232e+00  5.2115451658288627e+00  -3.6149634151444632e+00  -3.5890353189625133e+00  -3.4417758279112971e+00  -3.1765794380179670e+00  -2.8068119706282832e+00  -2.3494031217959996e+00  -1.8218243109923147e+00  -1.2406330148618201e+00  -6.2098004458525513e-01  2.3319837511095894e-02  6.7943359722125940e-01  1.3350379918218469e+00  1.9778138453354057e+00  2.5949500084177712e+00  3.1727001622860862e+00  3.6960727865059946e+00  4.1488066554503034e+00  4.5138796227077007e+00  4.7748951617284403e+00  4.9188607550445607e+00  4.9420847717443195e+00  -3.3708502778523250e+00  -3.3475317048598616e+00  -3.2137177594633832e+00  -2.9710469186133288e+00  -2.6297053472777634e+00  -2.2034838775146479e+00  -1.7074947813887564e+00  -1.1569179291403464e+00  -5.6639946206995606e-01  5.0107811564155350e-02  6.7923244939943228e-01  1.3079281551802904e+00  1.9231604676681893e+00  2.5116000915919181e+00  3.0593852993964057e+00  3.5520355197351163e+00  3.9746319130882388e+00  4.3124143308031941e+00  4.5519717558631401e+00  4.6833477287786396e+00  4.7046257740935600e+00  -3.1618247526705092e+00  -3.1404765184557437e+00  -3.0169365377812443e+00  -2.7918330062379391e+00  -2.4732792103573171e+00  -2.0728479836928746e+00  -1.6038218445120571e+00  -1.0801642617700125e+00  -5.1592382277162852e-01  7.5041402730243914e-02  6.7911584105915002e-01  1.2828428850063756e+00  1.8727806712904980e+00  2.4353619044762334e+00  2.9568211316274584e+00  3.4232599014832612e+00  3.8209296838213751e+00  4.1368158319804165e+00  4.3596141811949369e+00  4.4813517380394732e+00  4.5011550437494980e+00  -2.9891038125602476e+00  -2.9692503243714699e+00  -2.8535120067129172e+00  -2.6419296769637763e+00  -2.3412581638555743e+00  -1.9615264038231384e+00  -1.5146532137086497e+00  -1.0136094777381481e+00  -4.7186910178977948e-01  9.6917663540949800e-02  6.7908087840857589e-01  1.2609750537958229e+00  1.8289690503857567e+00  2.3694382021739142e+00  2.8688140904219637e+00  3.3137470520568639e+00  3.6914334268619085e+00  3.9901515616011336e+00  4.2000594926137911e+00  4.3144864470223325e+00  4.3331876784049728e+00  -2.8535929977252565e+00  -2.8348566942423408e+00  -2.7248823534650572e+00  -2.5233733009550257e+00  -2.2362018855738581e+00  -1.8723469365628636e+00  -1.4427518147731280e+00  -9.5962951808394792e-01  -4.3596618534947851e-01  1.1482343856939252e-01  6.7911631655458571e-01  1.2432135534868443e+00  1.7934281955949738e+00  2.3161741289127975e+00  2.7981011047769795e+00  3.2263170451210996e+00  3.5887305287042999e+00  3.8745361047881124e+00  4.0748802965755830e+00  4.1839393702354633e+00  4.2018529903077653e+00  -2.7559293062318009e+00  -2.7379923651281386e+00  -2.6320147941337915e+00  -2.4375167889642761e+00  -2.1598203203453235e+00  -1.8072252213880251e+00  -1.3900206644844197e+00  -9.1988726931612264e-01  -4.0944356643988300e-01  1.2810173001684930e-01  6.7920649707727432e-01  1.2301840690291825e+00  1.7673561921195540e+00  2.2772064561199525e+00  2.7465701688707282e+00  3.1628914432454840e+00  3.5145685705526239e+00  3.7913996280488251e+00  3.9851617384384341e+00  4.0905590853677456e+00  4.1079649953731128e+00  -2.6965203492621046e+00  -2.6791010049067632e+00  -2.5755169370815838e+00  -2.3852069138319174e+00  -2.1131902272941407e+00  -1.7673809646353107e+00  -1.3576868807358193e+00  -8.9546838136251938e-01  -3.9311266703948322e-01  1.3631245410716367e-01  6.7933374450928119e-01  1.2222924638213455e+00  1.7515341913594766e+00  2.2535988140834937e+00  2.7154407551047179e+00  3.1247040288341577e+00  3.4700669902372727e+00  3.7416641173015623e+00  3.9316179054962683e+00  4.0349203732411016e+00  4.0520789949988254e+00  -2.6755746587965468e+00  -2.6584116374990727e+00  -2.5557080269945174e+00  -2.3668961957106234e+00  -2.0968957727025490e+00  -1.7534850569764622e+00  -1.3464340744309322e+00  -8.8698495642511521e-01  -3.8743679047381890e-01  1.3919906071380581e-01  6.7947962885322088e-01  1.2197601969926224e+00  1.7463960481802465e+00  2.2459442141315358e+00  2.7053933321373540e+00  3.1124443146828922e+00  3.4558550304089710e+00  3.7258554534170605e+00  3.9146672847009554e+00  4.0173708952055156e+00  4.0345339165029968e+00  -2.6931197372923759e+00  -2.6759611155346565e+00  -2.5726586477898326e+00  -2.3827048595951381e+00  -2.1111077325308503e+00  -1.7657447711277430e+00  -1.3564814973983048e+00  -8.9463955637707926e-01  -3.9257493365306051e-01  1.3666679388508535e-01  6.7962551319716658e-01  1.2226468035992781e+00  1.7520719247459184e+00  2.2544276390689388e+00  2.7166461384422425e+00  3.1263402223417454e+00  3.4721494850005787e+00  3.7441661715383576e+00  3.9344761947880493e+00  4.0380602626132456e+00  4.0554796069685857e+00  -2.7490057376666561e+00  -2.7315998276613005e+00  -2.6262024807319979e+00  -2.4324403703423894e+00  -2.1556093128462024e+00  -1.8039321855390871e+00  -1.3876109111643298e+00  -9.1824719841354097e-01  -4.0839693441313307e-01  1.2877518867726062e-01  6.7975276062918633e-01  1.2308575276896083e+00  1.7684028241463332e+00  2.2788465270225675e+00  2.7489799221908728e+00  3.1661844790944795e+00  3.5187795780517801e+00  3.7964760466707319e+00  3.9909740518402921e+00  4.0969516228346681e+00  4.1148885639383179e+00  -2.8428937326012891e+00  -2.8249801125289857e+00  -2.7159210388691126e+00  -2.5155768470816331e+00  -2.2297712709978508e+00  -1.8673577874146710e+00  -1.4391418470705510e+00  -9.5721487120636539e-01  -4.3446893788852536e-01  1.1574570421961845e-01  6.7984294115190391e-01  1.2441358191370966e+00  1.7949254430559578e+00  2.3185887757904111e+00  2.8017110724795975e+00  3.2313061942693415e+00  3.5951611432803601e+00  3.8823325586615263e+00  4.0838416111715619e+00  4.1938159519488343e+00  4.2125522554317518e+00  -2.9742284206984850e+00  -2.9555271893158501e+00  -2.8411002349073051e+00  -2.6311923038946619e+00  -2.3324741691554420e+00  -1.9547877943504102e+00  -1.5098548327155052e+00  -1.0104789444674542e+00  -4.7000979267927767e-01  9.7984203910668061e-02  6.7987837929793682e-01  1.2620415941655687e+00  1.8308283594962931e+00  2.3725687354446365e+00  2.8736124714151337e+00  3.3204856615296205e+00  3.7002174215620869e+00  4.0008889346702823e+00  4.2124712644194044e+00  4.3282095820779354e+00  4.3480630702667202e+00  -3.1421957860429748e+00  -3.1223924803329535e+00  -3.0006549234884208e+00  -2.7778565742739292e+00  -2.4619704261148763e+00  -2.0643006437767473e+00  -1.5978618739209494e+00  -1.0764026467697250e+00  -5.1382141358396971e-01  7.6116372700160098e-02  6.7984341664740233e-01  1.2839178549763124e+00  1.8748830804781862e+00  2.4391235194765613e+00  2.9627811022186115e+00  3.4318072413994178e+00  3.8322384680638417e+00  4.1507922639444477e+00  4.3758957954877484e+00  4.4994357761622190e+00  4.5207840103769827e+00  -3.3456665163869843e+00  -3.3243884710720866e+00  -3.1930124981565853e+00  -2.9534550730966549e+00  -2.6156726553817040e+00  -2.1930762620285629e+00  -1.7004260416898540e+00  -1.1526408338853613e+00  -5.6420120996161582e-01  5.1031102526301664e-02  6.7972680830717491e-01  1.3088514461424567e+00  1.9253587197765674e+00  2.5158771868469678e+00  3.0664540390953858e+00  3.5624431352212556e+00  3.9886646049843373e+00  4.3300061763198627e+00  4.5726770171698998e+00  4.7064909625663525e+00  4.7298095355587950e+00  -3.5831255140377318e+00  -3.5599014973379850e+00  -3.4159359040218593e+00  -3.1549203650011188e+00  -2.7898473977437259e+00  -2.3371135287994060e+00  -1.8137409045794906e+00  -1.2359907507111534e+00  -6.1885458762876866e-01  2.3921265884802777e-02  6.7952566048540397e-01  1.3356394201955781e+00  1.9799393022919298e+00  2.5995922725685006e+00  3.1807835686989874e+00  3.7083623795026410e+00  4.1657712283348918e+00  4.5355386957245338e+00  4.8007350856178306e+00  4.9479945766690339e+00  4.9739226728509864e+00  -3.8525859081222378e+00  -3.8267707396528863e+00  -3.6662426406086559e+00  -3.3778204289490232e+00  -2.9791867643516579e+00  -2.4908828409990789e+00  -1.9327020675850384e+00  -1.3222698251126592e+00  -6.7484263507861686e-01  -3.6978370273673348e-03  6.7925107790981987e-01  1.3627814081718497e+00  2.0356802492720734e+00  2.6860515542595471e+00  3.3006046773867008e+00  3.8639707025927414e+00  4.3582242159710711e+00  4.7630211308948134e+00  5.0570754872531323e+00  5.2220956461839885e+00  5.2515561697673618e+00  -4.1514819545432387e+00  -4.1220981866922539e+00  -3.9393224196956993e+00  -3.6157146993044531e+00  -3.1762343192490028e+00  -2.6469560591445078e+00  -2.0507478127355125e+00  -1.4062996319460705e+00  -7.2862549855648251e-01  -3.0024642444925358e-02  6.7893487677166087e-01  1.3885298230944561e+00  2.0890663010357442e+00  2.7700533190583227e+00  3.4192760960543858e+00  4.0217233998160200e+00  4.5584760928183696e+00  5.0060416619128469e+00  5.3373159385476283e+00  5.5263311164594597e+00  5.5607709164201458e+00  -4.4765323615926631e+00  -4.4418818825780324e+00  -4.2282345583762835e+00  -3.8591413304173967e+00  -3.3706884306214855e+00  -2.7957454970878310e+00  -2.1599282340125461e+00  -1.4821305296453195e+00  -7.7629175488741786e-01  -5.3107178363886363e-02  6.7863481158818562e-01  1.4110392055095871e+00  2.1362617036107636e+00  2.8456620726629773e+00  3.5287671405819325e+00  4.1718508617851651e+00  4.7560161397683300e+00  5.2550767195343173e+00  5.6347880654213069e+00  5.8573527009861861e+00  5.8992786104365695e+00  -4.8235923828844713e+00  -4.7801248755509018e+00  -4.5219110653606815e+00  -4.0941035537412054e+00  -3.5487889557502683e+00  -2.9256798296118367e+00  -2.2514911882845148e+00  -1.5437010622783847e+00  -8.1408224594154410e-01  -7.1127089228428614e-02  6.7843245330315483e-01  1.4286523633224113e+00  2.1736549225853374e+00  2.9069154532227826e+00  3.6203068758277936e+00  4.3025640393604245e+00  4.9366831695420919e+00  5.4958304557434907e+00  5.9386995085853753e+00  6.2102377353716278e+00  6.2645716805758545e+00  -5.1876927789276488e+00  -5.1262618336391199e+00  -4.8015991379346969e+00  -4.3002677399794225e+00  -3.6935249903333438e+00  -3.0245023244686093e+00  -2.3174157713646957e+00  -1.5861395137198331e+00  -8.3928591604369251e-01  -8.2855666066548220e-02  6.7841410780606537e-01  1.4403258157118726e+00  2.1987509416061157e+00  2.9491787925375865e+00  3.6860540958234900e+00  4.4015329885219483e+00  5.0829015333950673e+00  5.7070936878733773e+00  6.2302651749535904e+00  6.5763507907978012e+00  6.6542900444808035e+00  -5.5642111063942368e+00  -5.4573244611467029e+00  -5.0349295234527940e+00  -4.4507250413926567e+00  -3.7875970511571615e+00  -3.0828113584689585e+00  -2.3533149707439178e+00  -1.6077643852401327e+00  -8.5144543295304387e-01  -8.8229728834396337e-02  6.7862390689931151e-01  1.4461132460029293e+00  2.2112971348746879e+00  2.9711200965887543e+00  3.7221307047696186e+00  4.4598599917504087e+00  5.1772451715336176e+00  5.8602843275087917e+00  6.4752864409789312e+00  6.9358126200194219e+00  7.0667719035860408e+00  -5.9516382853252487e+00  -5.7166913076113559e+00  -5.1726157084262505e+00  -4.5200870717359409e+00  -3.8226967316706673e+00  -3.1008177405942483e+00  -2.3625426282795088e+00  -1.6123464711290401e+00  -8.5351066654030117e-01  -8.8859937025304883e-02  6.7898241295451889e-01  1.4474951178744306e+00  2.2142150478245557e+00  2.9767070663304223e+00  3.7325158127874722e+00  4.4790454732743958e+00  5.2132059576974656e+00  5.9301499582521258e+00  6.6178790230585411e+00  7.2295926787263323e+00  7.4977760834054692e+00  -6.1760601596197997e+00  -5.7845581370796930e+00  -5.1809065445058069e+00  -4.5159301872059281e+00  -3.8175518215668669e+00  -3.0967234965713857e+00  -2.3595583393846060e+00  -1.6102670953761935e+00  -8.5216755345065442e-01  -8.8139292329460259e-02  6.7916050510360015e-01  1.4471955122331115e+00  2.2135017644819404e+00  2.9756578119564732e+00  3.7312471512859160e+00  4.4777780844478672e+00  5.2124814281544127e+00  5.9317257980430833e+00  6.6287955857805461e+00  7.2821242485183957e+00  7.8710479025695719e+00  </DataArray> 
</PointData> 
</Piece>
</UnstructuredGrid>
</VTKFile>