<?xml version="1.0"?>
<VTKFile type="UnstructuredGrid"  version="0.1"  >
<UnstructuredGrid>
<Piece  NumberOfPoints="651" NumberOfCells="1200">
<Points>
<DataArray  type="Float64"  NumberOfComponents="3"  format="ascii">0 0 0  50000 0 0  100000 0 0  150000 0 0  200000 0 0  250000 0 0  300000 0 0  350000 0 0  400000 0 0  450000 0 0  500000 0 0  550000 0 0  600000 0 0  650000 0 0  700000 0 0  750000 0 0  800000 0 0  850000 0 0  900000 0 0  950000 0 0  1000000 0 0  0 50000 0  50000 50000 0  100000 50000 0  150000 50000 0  200000 50000 0  250000 50000 0  300000 50000 0  350000 50000 0  400000 50000 0  450000 50000 0  500000 50000 0  550000 50000 0  600000 50000 0  650000 50000 0  700000 50000 0  750000 50000 0  800000 50000 0  850000 50000 0  900000 50000 0  950000 50000 0  1000000 50000 0  0 100000 0  50000 100000 0  100000 100000 0  150000 100000 0  200000 100000 0  250000 100000 0  300000 100000 0  350000 100000 0  400000 100000 0  450000 100000 0  500000 100000 0  550000 100000 0  600000 100000 0  650000 100000 0  700000 100000 0  750000 100000 0  800000 100000 0  850000 100000 0  900000 100000 0  950000 100000 0  1000000 100000 0  0 150000 0  50000 150000 0  100000 150000 0  150000 150000 0  200000 150000 0  250000 150000 0  300000 150000 0  350000 150000 0  400000 150000 0  450000 150000 0  500000 150000 0  550000 150000 0  600000 150000 0  650000 150000 0  700000 150000 0  750000 150000 0  800000 150000 0  850000 150000 0  900000 150000 0  950000 150000 0  1000000 150000 0  0 200000 0  50000 200000 0  100000 200000 0  150000 200000 0  200000 200000 0  250000 200000 0  300000 200000 0  350000 200000 0  400000 200000 0  450000 200000 0  500000 200000 0  550000 200000 0  600000 200000 0  650000 200000 0  700000 200000 0  750000 200000 0  800000 200000 0  850000 200000 0  900000 200000 0  950000 200000 0  1000000 200000 0  0 250000 0  50000 250000 0  100000 250000 0  150000 250000 0  200000 250000 0  250000 250000 0  300000 250000 0  350000 250000 0  400000 250000 0  450000 250000 0  500000 250000 0  550000 250000 0  600000 250000 0  650000 250000 0  700000 250000 0  750000 250000 0  800000 250000 0  850000 250000 0  900000 250000 0  950000 250000 0  1000000 250000 0  0 300000 0  50000 300000 0  100000 300000 0  150000 300000 0  200000 300000 0  250000 300000 0  300000 300000 0  350000 300000 0  400000 300000 0  450000 300000 0  500000 300000 0  550000 300000 0  600000 300000 0  650000 300000 0  700000 300000 0  750000 300000 0  800000 300000 0  850000 300000 0  900000 300000 0  950000 300000 0  1000000 300000 0  0 350000 0  50000 350000 0  100000 350000 0  150000 350000 0  200000 350000 0  250000 350000 0  300000 350000 0  350000 350000 0  400000 350000 0  450000 350000 0  500000 350000 0  550000 350000 0  600000 350000 0  650000 350000 0  700000 350000 0  750000 350000 0  800000 350000 0  850000 350000 0  900000 350000 0  950000 350000 0  1000000 350000 0  0 400000 0  50000 400000 0  100000 400000 0  150000 400000 0  200000 400000 0  250000 400000 0  300000 400000 0  350000 400000 0  400000 400000 0  450000 400000 0  500000 400000 0  550000 400000 0  600000 400000 0  650000 400000 0  700000 400000 0  750000 400000 0  800000 400000 0  850000 400000 0  900000 400000 0  950000 400000 0  1000000 400000 0  0 450000 0  50000 450000 0  100000 450000 0  150000 450000 0  200000 450000 0  250000 450000 0  300000 450000 0  350000 450000 0  400000 450000 0  450000 450000 0  500000 450000 0  550000 450000 0  600000 450000 0  650000 450000 0  700000 450000 0  750000 450000 0  800000 450000 0  850000 450000 0  900000 450000 0  950000 450000 0  1000000 450000 0  0 500000 0  50000 500000 0  100000 500000 0  150000 500000 0  200000 500000 0  250000 500000 0  300000 500000 0  350000 500000 0  400000 500000 0  450000 500000 0  500000 500000 0  550000 500000 0  600000 500000 0  650000 500000 0  700000 500000 0  750000 500000 0  800000 500000 0  850000 500000 0  900000 500000 0  950000 500000 0  1000000 500000 0  0 550000 0  50000 550000 0  100000 550000 0  150000 550000 0  200000 550000 0  250000 550000 0  300000 550000 0  350000 550000 0  400000 550000 0  450000 550000 0  500000 550000 0  550000 550000 0  600000 550000 0  650000 550000 0  700000 550000 0  750000 550000 0  800000 550000 0  850000 550000 0  900000 550000 0  950000 550000 0  1000000 550000 0  0 600000 0  50000 600000 0  100000 600000 0  150000 600000 0  200000 600000 0  250000 600000 0  300000 600000 0  350000 600000 0  400000 600000 0  450000 600000 0  500000 600000 0  550000 600000 0  600000 600000 0  650000 600000 0  700000 600000 0  750000 600000 0  800000 600000 0  850000 600000 0  900000 600000 0  950000 600000 0  1000000 600000 0  0 650000 0  50000 650000 0  100000 650000 0  150000 650000 0  200000 650000 0  250000 650000 0  300000 650000 0  350000 650000 0  400000 650000 0  450000 650000 0  500000 650000 0  550000 650000 0  600000 650000 0  650000 650000 0  700000 650000 0  750000 650000 0  800000 650000 0  850000 650000 0  900000 650000 0  950000 650000 0  1000000 650000 0  0 700000 0  50000 700000 0  100000 700000 0  150000 700000 0  200000 700000 0  250000 700000 0  300000 700000 0  350000 700000 0  400000 700000 0  450000 700000 0  500000 700000 0  550000 700000 0  600000 700000 0  650000 700000 0  700000 700000 0  750000 700000 0  800000 700000 0  850000 700000 0  900000 700000 0  950000 700000 0  1000000 700000 0  0 750000 0  50000 750000 0  100000 750000 0  150000 750000 0  200000 750000 0  250000 750000 0  300000 750000 0  350000 750000 0  400000 750000 0  450000 750000 0  500000 750000 0  550000 750000 0  600000 750000 0  650000 750000 0  700000 750000 0  750000 750000 0  800000 750000 0  850000 750000 0  900000 750000 0  950000 750000 0  1000000 750000 0  0 800000 0  50000 800000 0  100000 800000 0  150000 800000 0  200000 800000 0  250000 800000 0  300000 800000 0  350000 800000 0  400000 800000 0  450000 800000 0  500000 800000 0  550000 800000 0  600000 800000 0  650000 800000 0  700000 800000 0  750000 800000 0  800000 800000 0  850000 800000 0  900000 800000 0  950000 800000 0  1000000 800000 0  0 850000 0  50000 850000 0  100000 850000 0  150000 850000 0  200000 850000 0  250000 850000 0  300000 850000 0  350000 850000 0  400000 850000 0  450000 850000 0  500000 850000 0  550000 850000 0  600000 850000 0  650000 850000 0  700000 850000 0  750000 850000 0  800000 850000 0  850000 850000 0  900000 850000 0  950000 850000 0  1000000 850000 0  0 900000 0  50000 900000 0  100000 900000 0  150000 900000 0  200000 900000 0  250000 900000 0  300000 900000 0  350000 900000 0  400000 900000 0  450000 900000 0  500000 900000 0  550000 900000 0  600000 900000 0  650000 900000 0  700000 900000 0  750000 900000 0  800000 900000 0  850000 900000 0  900000 900000 0  950000 900000 0  1000000 900000 0  0 950000 0  50000 950000 0  100000 950000 0  150000 950000 0  200000 950000 0  250000 950000 0  300000 950000 0  350000 950000 0  400000 950000 0  450000 950000 0  500000 950000 0  550000 950000 0  600000 950000 0  650000 950000 0  700000 950000 0  750000 950000 0  800000 950000 0  850000 950000 0  900000 950000 0  950000 950000 0  1000000 950000 0  0 1000000 0  50000 1000000 0  100000 1000000 0  150000 1000000 0  200000 1000000 0  250000 1000000 0  300000 1000000 0  350000 1000000 0  400000 1000000 0  450000 1000000 0  500000 1000000 0  550000 1000000 0  600000 1000000 0  650000 1000000 0  700000 1000000 0  750000 1000000 0  800000 1000000 0  850000 1000000 0  900000 1000000 0  950000 1000000 0  1000000 1000000 0  0 1050000 0  50000 1050000 0  100000 1050000 0  150000 1050000 0  200000 1050000 0  250000 1050000 0  300000 1050000 0  350000 1050000 0  400000 1050000 0  450000 1050000 0  500000 1050000 0  550000 1050000 0  600000 1050000 0  650000 1050000 0  700000 1050000 0  750000 1050000 0  800000 1050000 0  850000 1050000 0  900000 1050000 0  950000 1050000 0  1000000 1050000 0  0 1100000 0  50000 1100000 0  100000 1100000 0  150000 1100000 0  200000 1100000 0  250000 1100000 0  300000 1100000 0  350000 1100000 0  400000 1100000 0  450000 1100000 0  500000 1100000 0  550000 1100000 0  600000 1100000 0  650000 1100000 0  700000 1100000 0  750000 1100000 0  800000 1100000 0  850000 1100000 0  900000 1100000 0  950000 1100000 0  1000000 1100000 0  0 1150000 0  50000 1150000 0  100000 1150000 0  150000 1150000 0  200000 1150000 0  250000 1150000 0  300000 1150000 0  350000 1150000 0  400000 1150000 0  450000 1150000 0  500000 1150000 0  550000 1150000 0  600000 1150000 0  650000 1150000 0  700000 1150000 0  750000 1150000 0  800000 1150000 0  850000 1150000 0  900000 1150000 0  950000 1150000 0  1000000 1150000 0  0 1200000 0  50000 1200000 0  100000 1200000 0  150000 1200000 0  200000 1200000 0  250000 1200000 0  300000 1200000 0  350000 1200000 0  400000 1200000 0  450000 1200000 0  500000 1200000 0  550000 1200000 0  600000 1200000 0  650000 1200000 0  700000 1200000 0  750000 1200000 0  800000 1200000 0  850000 1200000 0  900000 1200000 0  950000 1200000 0  1000000 1200000 0  0 1250000 0  50000 1250000 0  100000 1250000 0  150000 1250000 0  200000 1250000 0  250000 1250000 0  300000 1250000 0  350000 1250000 0  400000 1250000 0  450000 1250000 0  500000 1250000 0  550000 1250000 0  600000 1250000 0  650000 1250000 0  700000 1250000 0  750000 1250000 0  800000 1250000 0  850000 1250000 0  900000 1250000 0  950000 1250000 0  1000000 1250000 0  0 1300000 0  50000 1300000 0  100000 1300000 0  150000 1300000 0  200000 1300000 0  250000 1300000 0  300000 1300000 0  350000 1300000 0  400000 1300000 0  450000 1300000 0  500000 1300000 0  550000 1300000 0  600000 1300000 0  650000 1300000 0  700000 1300000 0  750000 1300000 0  800000 1300000 0  850000 1300000 0  900000 1300000 0  950000 1300000 0  1000000 1300000 0  0 1350000 0  50000 1350000 0  100000 1350000 0  150000 1350000 0  200000 1350000 0  250000 1350000 0  300000 1350000 0  350000 1350000 0  400000 1350000 0  450000 1350000 0  500000 1350000 0  550000 1350000 0  600000 1350000 0  650000 1350000 0  700000 135
[...]
<PointData  Scalars="f_1519"> 
<DataArray  type="Float64"  Name="f_1519"  format="ascii">3.8385015436658315e-01  3.9891019914772785e-01  4.1458493320156869e-01  4.3081911569810327e-01  4.4730250542841526e-01  4.6394985204132266e-01  4.8072604307287975e-01  4.9760592081414123e-01  5.1456533879814270e-01  5.3157921718858958e-01  5.4862144371458210e-01  5.6566538447536630e-01  5.8268463093710943e-01  5.9965383281846640e-01  6.1654954970598896e-01  6.3335111364163232e-01  6.5004138335631290e-01  6.6660482498205542e-01  6.8299645783757057e-01  6.9884863495177330e-01  7.1041010330794430e-01  3.9371241899487630e-01  4.0151377128763627e-01  4.1576099978144127e-01  4.3147974993612953e-01  4.4771293283077856e-01  4.6421709548135681e-01  4.8090195156270699e-01  4.9771844413687361e-01  5.1463022725654917e-01  5.3160498280777690e-01  5.4861153482922742e-01  5.6561894509325761e-01  5.8259625659931968e-01  5.9951216752067082e-01  6.1633381730700199e-01  6.3302286228335747e-01  6.4952322525486383e-01  6.6572023806006098e-01  6.8129078573990753e-01  6.9511894655163087e-01  7.0335913914983539e-01  4.0507456902883143e-01  4.0949702840379132e-01  4.2038212550322157e-01  4.3423772221976453e-01  4.4945344968458240e-01  4.6535791352963035e-01  4.8165885401002151e-01  4.9820974413161784e-01  5.1492288058977220e-01  5.3173555551733054e-01  5.4859578979973667e-01  5.6545553189393616e-01  5.8226641133960555e-01  5.9897531842327023e-01  6.1551697588481591e-01  6.3179825621506558e-01  6.4766177967897065e-01  6.6279714933076395e-01  6.7652364230327577e-01  6.8731612331873471e-01  6.9223047915034186e-01  4.1585936378072097e-01  4.1885087482768979e-01  4.2716999963555008e-01  4.3891069296707580e-01  4.5264944015243763e-01  4.6755122265493709e-01  4.8315544220265388e-01  4.9920002381036294e-01  5.1552279654993716e-01  5.3201128961205868e-01  5.4857700132744192e-01  5.6514101585979482e-01  5.8162400496560451e-01  5.9793613220837150e-01  6.1396241590265732e-01  6.2953685716515473e-01  6.4439339641639237e-01  6.5807369736741561e-01  6.6977119564938481e-01  6.7815205868904804e-01  6.8145808738991509e-01  4.2598238131839467e-01  4.2824505929370954e-01  4.3484630603743896e-01  4.4476362355405780e-01  4.5696188007621247e-01  4.7066546578415025e-01  4.8535491879974835e-01  5.0069016113727050e-01  5.1644126570048032e-01  5.3244153747524781e-01  5.4855799862022236e-01  5.6467211590518429e-01  5.8066508330538447e-01  5.9640314982948572e-01  6.1171859621265534e-01  6.2638110791990365e-01  6.4005337718783972e-01  6.5222751062865791e-01  6.6215671706400003e-01  6.6885270710658196e-01  6.7131441874339981e-01  4.3540079778340518e-01  4.3722639040962069e-01  4.4266182981889646e-01  4.5113401321449137e-01  4.6193188085047499e-01  4.7441779941341872e-01  4.8809369478606546e-01  5.0259008438396091e-01  5.1763235530373541e-01  5.3300802206288000e-01  5.4854092811141641e-01  5.6407146211962444e-01  5.7943997935201197e-01  5.9447035252274349e-01  6.0895066012662691e-01  6.2260844783187297e-01  6.3507993066629576e-01  6.4587888383298209e-01  6.5438660179545016e-01  6.5991025515904489e-01  6.6186927633744796e-01  4.4406090104688722e-01  4.4559465354750916e-01  4.5020536979901449e-01  4.5755376736064490e-01  4.6715235475029915e-01  4.7850123419931051e-01  4.9115921444642352e-01  5.0476234169178091e-01  5.1901538937594538e-01  5.3367416434040171e-01  5.4852699383033765e-01  5.6337786467070661e-01  5.7803093747415835e-01  5.9227519327407663e-01  6.0586799483422338e-01  6.1851731916043762e-01  6.2986501012331375e-01  6.3947875390149933e-01  6.4686889276187987e-01  6.5155305876937764e-01  6.5318140355498888e-01  4.5191181781480461e-01  4.5323722282989398e-01  4.5724138059674418e-01  4.6371301037372276e-01  4.7231075714542392e-01  4.8264651167339268e-01  4.9434267881732263e-01  5.0705889177756547e-01  5.2049712540663962e-01  5.3439535701111229e-01  5.4851656386963554e-01  5.6263642470771891e-01  5.7653090881668023e-01  5.8996395601743989e-01  6.0267543718761651e-01  6.1437050611178123e-01  6.2471347776231445e-01  6.3333249220840271e-01  6.3984429440407586e-01  6.4390766839497726e-01  6.4530287377472428e-01  4.5891069975262250e-01  4.6008115421263462e-01  4.6362628854261179e-01  4.6940856945865367e-01  4.7718136935175370e-01  4.8664018011956311e-01  4.9746457387922088e-01  5.0934380064665075e-01  5.2198760922985754e-01  5.3512701806161644e-01  5.4850943948202069e-01  5.6189112972419142e-01  5.7502866536200836e-01  5.8767046244864851e-01  5.9954932888534584e-01  6.1037765911248865e-01  6.1984805260142140e-01  6.2764346571834106e-01  6.3346136958062649e-01  6.3705372507528502e-01  6.3827694055990036e-01  4.6502369778028430e-01  4.6607631798675769e-01  4.6926827909175617e-01  4.7450635942381419e-01  4.8160576347001088e-01  4.9032228425483243e-01  5.0038213385971564e-01  5.1150350912415632e-01  5.2340884587291858e-01  5.3582947128037184e-01  5.4850512703850096e-01  5.6118055205774520e-01  5.7360077784465358e-01  5.8550643086817211e-01  5.9663031351870310e-01  6.0669684643236366e-01  6.1542644553209069e-01  6.2254718377537976e-01  6.2781543367878834e-01  6.3104473380569182e-01  6.3213763481391139e-01  4.7022536899651252e-01  4.7118782732940812e-01  4.7410708130053320e-01  4.7891734247704210e-01  4.8547454383745409e-01  4.9357718052829896e-01  5.0298753311075306e-01  5.1344901071320115e-01  5.2469794213639653e-01  5.3647008062071100e-01  5.4850303910644704e-01  5.6053610692766020e-01  5.7230881115000654e-01  5.8355946529109781e-01  5.9402493320141425e-01  6.0344292940690236e-01  6.1155825176029799e-01  6.1813413151550844e-01  6.2296902404338783e-01  6.2591738035415934e-01  6.2691047428719926e-01  4.7449747427509964e-01  4.7539171721407680e-01  4.7810288289392361e-01  4.8258243673111240e-01  4.8871322390277189e-01  4.9632351790613127e-01  5.0520243880707172e-01  5.1511381174065263e-01  5.2580688045727408e-01  5.3702354454201529e-01  5.4850261353738683e-01  5.5998197202888733e-01  5.7119968153630929e-01  5.8189506284153092e-01  5.9181079442633433e-01  6.0069703281562536e-01  6.0831842973502592e-01  6.1446454532776196e-01  6.1896338767679215e-01  6.2169662424353767e-01  6.2261369359970586e-01  4.7782757238438534e-01  4.7867199417637740e-01  4.8122966111072074e-01  4.8546284967292519e-01  4.9127197681397589e-01  4.9850556572802301e-01  5.0697188863487652e-01  5.1645026256098125e-01  5.2670067443723068e-01  5.3747120589377551e-01  5.4850336770228747e-01  5.5953586387690335e-01  5.7030751970519000e-01  5.8056019109196000e-01  5.9004246921962067e-01  5.9851490760714843e-01  6.0575728940501816e-01  6.1157806104622503e-01  6.1582544895890690e-01  6.1839900970434447e-01  6.1925966122595166e-01  4.8020763655803289e-01  4.8101843126466259e-01  4.8347086836924558e-01  4.8753373244773840e-01  4.9311840142580488e-01  5.0008642327412167e-01  5.0825883008065043e-01  5.1742572411220045e-01  5.2735505099128477e-01  5.3779999387676036e-01  5.4850491061580997e-01  5.5921010517216596e-01  5.6965595580726425e-01  5.7958702946917029e-01  5.8875681080675113e-01  5.9693356695107458e-01  6.0390764265928143e-01  6.0950012202867365e-01  6.1357231955009850e-01  6.1603505427975103e-01  6.1685627303864654e-01  4.8163284417660390e-01  4.8242490278854838e-01  4.8481654944166686e-01  4.8877998643704129e-01  4.9423255324790522e-01  5.0104305494253087e-01  5.0903981542244969e-01  5.1801928961606691e-01  5.2775430441154569e-01  5.3800137416921012e-01  5.4850693145736340e-01  5.5901264384799598e-01  5.6926021390741632e-01  5.7899617200709486e-01  5.8797717140916217e-01  5.9597618304526234e-01  6.0278976366409487e-01  6.0824624578503095e-01  6.1221430886540384e-01  6.1461101783250793e-01  6.1540817480201027e-01  4.8210064498183058e-01  4.8288820202307037e-01  4.8526146739827242e-01  4.8919358942704777e-01  4.9460371636194800e-01  5.0136294388734282e-01  5.0930196621047918e-01  5.1821936169330174e-01  5.2788963975028380e-01  5.3807050744902840e-01  5.4850917657656018e-01  5.5894784570409184e-01  5.6912871340283666e-01  5.7879899145981883e-01  5.8771638694264094e-01  5.9565540926577742e-01  6.0241463679117235e-01  6.0782476372607253e-01  6.1175688575484777e-01  6.1413015113004954e-01  6.1491770817128932e-01  4.8161017835110959e-01  4.8240733532061209e-01  4.8480404428771628e-01  4.8877210736808929e-01  4.9422858948902548e-01  5.0104217010785812e-01  5.0904118174395829e-01  5.1802218114602572e-01  5.2775813924570414e-01  5.3800570930512448e-01  5.4851142169575717e-01  5.5901697898391045e-01  5.6926404874157488e-01  5.7899906353705366e-01  5.8797853773067044e-01  5.9597529821058937e-01  6.0278579990521519e-01  6.0823836671607900e-01  6.1220180371145350e-01  6.1459345036457169e-01  6.1538550897651612e-01  4.8016208011447309e-01  4.8098329887336894e-01  4.8344603360302163e-01  4.8751823112444664e-01  4.9311071049383892e-01  5.0008478620204566e-01  5.0826154234636933e-01  5.1743132368395039e-01  5.2736239734585633e-01  5.3780824798095483e-01  5.4851344253731094e-01  5.5921835927636054e-01  5.6966330216183592e-01  5.7959262904092024e-01  5.8875952307247015e-01  5.9693192987899890e-01  6.0389995172731581e-01  6.0948462070538223e-01  6.1354748478387489e-01  6.1599992188845787e-01  6.1681071659508735e-01  4.7775869192716836e-01  4.7861934344877560e-01  4.8119290419421340e-01  4.8544029210689538e-01  4.9126106374810241e-01  4.9850344554597226e-01  5.0697588393350024e-01  5.1645816206116080e-01  5.2671083344793101e-01  5.3748248927621767e-01  5.4851498545083388e-01  5.5954714725934573e-01  5.7031767871589045e-01  5.8056809059213965e-01  5.9004646451824450e-01  5.9851278742509795e-01  6.0574637633914519e-01  6.1155550348019583e-01  6.1578869204240005e-01  6.1834635897674328e-01  6.1919078076873535e-01  4.7440465955341460e-01  4.7532172890958280e-01  4.7805496547632848e-01  4.8255380782535884e-01  4.8869992341809498e-01  4.9632132033749571e-01  5.0520755872678702e-01  5.1512329031159032e-01  5.2581867161681217e-01  5.3703638112423413e-01  5.4851573961573485e-01  5.5999480861110651e-01  5.7121147269584760e-01  5.8190454141246895e-01  5.9181591434604985e-01  6.0069483524699019e-01  6.0830512925034974e-01  6.1443591642200912e-01  6.1891547025919758e-01  6.2162663593904433e-01  6.2252087887802143e-01  4.7010787886592170e-01  4.7110097279896168e-01  4.7404932910973341e-01  4.7888422163761279e-01  4.8546010139282347e-01  4.9357542374621932e-01  5.0299341995170765e-01  5.1345888786202409e-01  5.2470954200311570e-01  5.3648224622546214e-01  5.4851531404667542e-01  5.6054827253241146e-01  5.7232041101672604e-01  5.8356934243992120e-01  5.9403082004236929e-01  6.0344117262482333e-01  6.1154380931566821e-01  6.1810101067608003e-01  6.2291127185258865e-01  6.2583052582371346e-01  6.2679298415660911e-01  4.6488071833921041e-01  4.6597361934742998e-01  4.6920291947433357e-01  4.7447116937774236e-01  4.8159190762103155e-01  4.9032150672075880e-01  5.0038803963441947e-01  5.1151192228495068e-01  5.2341757530846955e-01  5.3583780109537815e-01  5.4851322611462228e-01  5.6118888187275140e-01  5.7360950728020477e-01  5.8551484402896681e-01  5.9663621929340749e-01  6.0669606889829053e-01  6.1541258968311197e-01  6.2251199372930843e-01  6.2775007406136618e-01  6.3094203516636449e-01  6.3199465537283794e-01  4.5874141259322199e-01  4.5996462807783728e-01  4.6355698357249608e-01  4.6937488743478167e-01  4.7717030055170162e-01  4.8664069404063454e-01  4.9746902426777762e-01  5.0934789070447506e-01  5.2198968779111565e-01  5.3512722342893293e-01  5.4850891367110366e-01  5.6189133509150790e-01  5.7503074392326692e-01  5.8767455250647349e-01  5.9955377927390308e-01  6.1037817303356057e-01  6.1983698380136998e-01  6.2760978369446963e-01  6.3339206461051123e-01  6.3693719894048817e-01  6.3810765340050024e-01  4.5171547937839879e-01  4.5311068475814575e-01  4.5717405874904726e-01  4.6368586094472053e-01  4.7230487539080912e-01  4.8264784704134278e-01  4.9434291596550783e-01  5.0705439713568468e-01  5.2048744433644467e-01  5.3438192844540611e-01  5.4850178928348969e-01  5.6262299614201317e-01  5.7652122774648584e-01  5.8995946137555988e-01  6.0267567433580238e-01  6.1437184147973189e-01  6.2470759600770043e-01  6.3330534277940131e-01  6.3977697255637966e-01  6.4378113032322959e-01  6.4510653533831885e-01  4.4383694959813502e-01  4.4546529438374627e-01  4.5014946039124404e-01  4.5753959925162474e-01  4.6715334302981076e-01  4.7850103399268729e-01  4.9115035831890180e-01  5.0474315987904894e-01  5.1898741567896756e-01  5.3364048848241963e-01  5.4849135932278859e-01  5.6334418881272463e-01  5.7800296377718097e-01  5.9225601146134532e-01  6.0585913870670238e-01  6.1851711895381523e-01  6.2986599840282620e-01  6.3946458579248011e-01  6.4681298335411019e-01  6.5142369960561519e-01  6.5295745210623701e-01  4.3514907681567688e-01  4.3710809799407996e-01  4.4263175135767469e-01  4.5113946932014304e-01  4.6193842248682959e-01  4.7440990532125277e-01  4.8806769302649899e-01  5.0254800063038307e-01  5.1757837380111493e-01  5.3294689103350268e-01  5.4847742504171093e-01  5.6401033109024723e-01  5.7938599784939193e-01  5.9442826876916632e-01  6.0892465836706122e-01  6.2260055373970780e-01  6.3508647230265114e-01  6.4588433993863459e-01  6.5435652333422889e-01  6.5979196274350427e-01  6.6161755536971956e-01  4.2570393440972576e-01  4.2816564604654372e-01  4.3486163608912576e-01  4.4479084252446810e-01  4.5696497596528657e-01  4.7063724523322292e-01  4.8529975694047162e-01  5.0061520332364184e-01  5.1635326984774321e-01  5.3234623724794339e-01  5.4846035453290554e-01  5.6457681567788021e-01  5.8057708745264780e-01  5.9632819201585741e-01  6.1166343435337944e-01  6.2635288736897732e-01  6.4005647307691449e-01  6.5225472959906849e-01  6.6217204711568700e-01  6.6877329385941608e-01  6.7103597183473085e-01  4.1556026576321103e-01  4.1886629446407825e-01  4.2724715750374187e-01  4.3894465578571129e-01  4.5262495673673486e-01  4.6748149598797273e-01  4.8305593725047030e-01  4.9908222094475663e-01  5.1539434818752394e-01  5.3187733729333353e-01  5.4844135182568665e-01  5.6500706354107000e-01  5.8149555660319152e-01  5.9781832934276569e-01  6.1386291095047474e-01  6.2946713049819103e-01  6.4436891300069010e-01  6.5810766018605127e-01  6.6984835351757643e-01  6.7816747832543633e-01  6.8115898937240504e-01  4.0478787400278482e-01  4.0970222983439220e-01  4.2049471084985152e-01  4.3422120382236362e-01  4.4935657347415703e-01  4.6522009693806227e-01  4.8150137726831244e-01  4.9804303472985839e-01  5.1475194181352324e-01  5.3156282125919263e-01  5.4842256335339246e-01  5.6528279763579858e-01  5.8209547256335703e-01  5.9880860902151112e-01  6.1535949914310739e-01  6.3166043962349827e-01  6.4756490346854578e-01  6.6278063093336292e-01  6.7663622764990539e-01  6.8752132474933536e-01  6.9194378412429514e-01  3.9365921400329174e-01  4.0189940660149637e-01  4.1572756741321992e-01  4.3129811509306687e-01  4.4749512789826418e-01  4.6399549086977077e-01  4.8068453584612653e-01  4.9750618563245796e-01  5.1442209655380933e-01  5.3139940805987151e-01  5.4840681832390181e-01  5.6541337034535244e-01  5.8238812589658029e-01  5.9929990901625574e-01  6.1611640159042236e-01  6.3280125767177220e-01  6.4930542032234995e-01  6.6553860321699843e-01  6.8125735337168625e-01  6.9550458186549069e-01  7.0330593415825060e-01  3.8660824984518294e-01  3.9816971820135416e-01  4.1402189531555705e-01  4.3041352817107248e-01  4.4697696979681523e-01  4.6366723951149602e-01  4.8046880344713983e-01  4.9736452033466255e-01  5.1433372221601970e-01  5.3135296867776305e-01  5.4839690943854724e-01  5.6543913596453976e-01  5.8245301435498698e-01  5.9941243233898833e-01  6.1629231008024965e-01  6.3306850111180646e-01  6.4971584772471347e-01  6.6619923745502485e-01  6.8243341995155893e-01  6.9810815400539938e-01  7.1316819878654403e-01  </DataArray> 
</PointData> 
</Piece>
</UnstructuredGrid>
</VTKFile>