<?xml version="1.0"?>
<VTKFile type="UnstructuredGrid"  version="0.1"  >
<UnstructuredGrid>
<Piece  NumberOfPoints="651" NumberOfCells="1200">
<Points>
<DataArray  type="Float64"  NumberOfComponents="3"  format="ascii">0 0 0  50000 0 0  100000 0 0  150000 0 0  200000 0 0  250000 0 0  300000 0 0  350000 0 0  400000 0 0  450000 0 0  500000 0 0  550000 0 0  600000 0 0  650000 0 0  700000 0 0  750000 0 0  800000 0 0  850000 0 0  900000 0 0  950000 0 0  1000000 0 0  0 50000 0  50000 50000 0  100000 50000 0  150000 50000 0  200000 50000 0  250000 50000 0  300000 50000 0  350000 50000 0  400000 50000 0  450000 50000 0  500000 50000 0  550000 50000 0  600000 50000 0  650000 50000 0  700000 50000 0  750000 50000 0  800000 50000 0  850000 50000 0  900000 50000 0  950000 50000 0  1000000 50000 0  0 100000 0  50000 100000 0  100000 100000 0  150000 100000 0  200000 100000 0  250000 100000 0  300000 100000 0  350000 100000 0  400000 100000 0  450000 100000 0  500000 100000 0  550000 100000 0  600000 100000 0  650000 100000 0  700000 100000 0  750000 100000 0  800000 100000 0  850000 100000 0  900000 100000 0  950000 100000 0  1000000 100000 0  0 150000 0  50000 150000 0  100000 150000 0  150000 150000 0  200000 150000 0  250000 150000 0  300000 150000 0  350000 150000 0  400000 150000 0  450000 150000 0  500000 150000 0  550000 150000 0  600000 150000 0  650000 150000 0  700000 150000 0  750000 150000 0  800000 150000 0  850000 150000 0  900000 150000 0  950000 150000 0  1000000 150000 0  0 200000 0  50000 200000 0  100000 200000 0  150000 200000 0  200000 200000 0  250000 200000 0  300000 200000 0  350000 200000 0  400000 200000 0  450000 200000 0  500000 200000 0  550000 200000 0  600000 200000 0  650000 200000 0  700000 200000 0  750000 200000 0  800000 200000 0  850000 200000 0  900000 200000 0  950000 200000 0  1000000 200000 0  0 250000 0  50000 250000 0  100000 250000 0  150000 250000 0  200000 250000 0  250000 250000 0  300000 250000 0  350000 250000 0  400000 250000 0  450000 250000 0  500000 250000 0  550000 250000 0  600000 250000 0  650000 250000 0  700000 250000 0  750000 250000 0  800000 250000 0  850000 250000 0  900000 250000 0  950000 250000 0  1000000 250000 0  0 300000 0  50000 300000 0  100000 300000 0  150000 300000 0  200000 300000 0  250000 300000 0  300000 300000 0  350000 300000 0  400000 300000 0  450000 300000 0  500000 300000 0  550000 300000 0  600000 300000 0  650000 300000 0  700000 300000 0  750000 300000 0  800000 300000 0  850000 300000 0  900000 300000 0  950000 300000 0  1000000 300000 0  0 350000 0  50000 350000 0  100000 350000 0  150000 350000 0  200000 350000 0  250000 350000 0  300000 350000 0  350000 350000 0  400000 350000 0  450000 350000 0  500000 350000 0  550000 350000 0  600000 350000 0  650000 350000 0  700000 350000 0  750000 350000 0  800000 350000 0  850000 350000 0  900000 350000 0  950000 350000 0  1000000 350000 0  0 400000 0  50000 400000 0  100000 400000 0  150000 400000 0  200000 400000 0  250000 400000 0  300000 400000 0  350000 400000 0  400000 400000 0  450000 400000 0  500000 400000 0  550000 400000 0  600000 400000 0  650000 400000 0  700000 400000 0  750000 400000 0  800000 400000 0  850000 400000 0  900000 400000 0  950000 400000 0  1000000 400000 0  0 450000 0  50000 450000 0  100000 450000 0  150000 450000 0  200000 450000 0  250000 450000 0  300000 450000 0  350000 450000 0  400000 450000 0  450000 450000 0  500000 450000 0  550000 450000 0  600000 450000 0  650000 450000 0  700000 450000 0  750000 450000 0  800000 450000 0  850000 450000 0  900000 450000 0  950000 450000 0  1000000 450000 0  0 500000 0  50000 500000 0  100000 500000 0  150000 500000 0  200000 500000 0  250000 500000 0  300000 500000 0  350000 500000 0  400000 500000 0  450000 500000 0  500000 500000 0  550000 500000 0  600000 500000 0  650000 500000 0  700000 500000 0  750000 500000 0  800000 500000 0  850000 500000 0  900000 500000 0  950000 500000 0  1000000 500000 0  0 550000 0  50000 550000 0  100000 550000 0  150000 550000 0  200000 550000 0  250000 550000 0  300000 550000 0  350000 550000 0  400000 550000 0  450000 550000 0  500000 550000 0  550000 550000 0  600000 550000 0  650000 550000 0  700000 550000 0  750000 550000 0  800000 550000 0  850000 550000 0  900000 550000 0  950000 550000 0  1000000 550000 0  0 600000 0  50000 600000 0  100000 600000 0  150000 600000 0  200000 600000 0  250000 600000 0  300000 600000 0  350000 600000 0  400000 600000 0  450000 600000 0  500000 600000 0  550000 600000 0  600000 600000 0  650000 600000 0  700000 600000 0  750000 600000 0  800000 600000 0  850000 600000 0  900000 600000 0  950000 600000 0  1000000 600000 0  0 650000 0  50000 650000 0  100000 650000 0  150000 650000 0  200000 650000 0  250000 650000 0  300000 650000 0  350000 650000 0  400000 650000 0  450000 650000 0  500000 650000 0  550000 650000 0  600000 650000 0  650000 650000 0  700000 650000 0  750000 650000 0  800000 650000 0  850000 650000 0  900000 650000 0  950000 650000 0  1000000 650000 0  0 700000 0  50000 700000 0  100000 700000 0  150000 700000 0  200000 700000 0  250000 700000 0  300000 700000 0  350000 700000 0  400000 700000 0  450000 700000 0  500000 700000 0  550000 700000 0  600000 700000 0  650000 700000 0  700000 700000 0  750000 700000 0  800000 700000 0  850000 700000 0  900000 700000 0  950000 700000 0  1000000 700000 0  0 750000 0  50000 750000 0  100000 750000 0  150000 750000 0  200000 750000 0  250000 750000 0  300000 750000 0  350000 750000 0  400000 750000 0  450000 750000 0  500000 750000 0  550000 750000 0  600000 750000 0  650000 750000 0  700000 750000 0  750000 750000 0  800000 750000 0  850000 750000 0  900000 750000 0  950000 750000 0  1000000 750000 0  0 800000 0  50000 800000 0  100000 800000 0  150000 800000 0  200000 800000 0  250000 800000 0  300000 800000 0  350000 800000 0  400000 800000 0  450000 800000 0  500000 800000 0  550000 800000 0  600000 800000 0  650000 800000 0  700000 800000 0  750000 800000 0  800000 800000 0  850000 800000 0  900000 800000 0  950000 800000 0  1000000 800000 0  0 850000 0  50000 850000 0  100000 850000 0  150000 850000 0  200000 850000 0  250000 850000 0  300000 850000 0  350000 850000 0  400000 850000 0  450000 850000 0  500000 850000 0  550000 850000 0  600000 850000 0  650000 850000 0  700000 850000 0  750000 850000 0  800000 850000 0  850000 850000 0  900000 850000 0  950000 850000 0  1000000 850000 0  0 900000 0  50000 900000 0  100000 900000 0  150000 900000 0  200000 900000 0  250000 900000 0  300000 900000 0  350000 900000 0  400000 900000 0  450000 900000 0  500000 900000 0  550000 900000 0  600000 900000 0  650000 900000 0  700000 900000 0  750000 900000 0  800000 900000 0  850000 900000 0  900000 900000 0  950000 900000 0  1000000 900000 0  0 950000 0  50000 950000 0  100000 950000 0  150000 950000 0  200000 950000 0  250000 950000 0  300000 950000 0  350000 950000 0  400000 950000 0  450000 950000 0  500000 950000 0  550000 950000 0  600000 950000 0  650000 950000 0  700000 950000 0  750000 950000 0  800000 950000 0  850000 950000 0  900000 950000 0  950000 950000 0  1000000 950000 0  0 1000000 0  50000 1000000 0  100000 1000000 0  150000 1000000 0  200000 1000000 0  250000 1000000 0  300000 1000000 0  350000 1000000 0  400000 1000000 0  450000 1000000 0  500000 1000000 0  550000 1000000 0  600000 1000000 0  650000 1000000 0  700000 1000000 0  750000 1000000 0  800000 1000000 0  850000 1000000 0  900000 1000000 0  950000 1000000 0  1000000 1000000 0  0 1050000 0  50000 1050000 0  100000 1050000 0  150000 1050000 0  200000 1050000 0  250000 1050000 0  300000 1050000 0  350000 1050000 0  400000 1050000 0  450000 1050000 0  500000 1050000 0  550000 1050000 0  600000 1050000 0  650000 1050000 0  700000 1050000 0  750000 1050000 0  800000 1050000 0  850000 1050000 0  900000 1050000 0  950000 1050000 0  1000000 1050000 0  0 1100000 0  50000 1100000 0  100000 1100000 0  150000 1100000 0  200000 1100000 0  250000 1100000 0  300000 1100000 0  350000 1100000 0  400000 1100000 0  450000 1100000 0  500000 1100000 0  550000 1100000 0  600000 1100000 0  650000 1100000 0  700000 1100000 0  750000 1100000 0  800000 1100000 0  850000 1100000 0  900000 1100000 0  950000 1100000 0  1000000 1100000 0  0 1150000 0  50000 1150000 0  100000 1150000 0  150000 1150000 0  200000 1150000 0  250000 1150000 0  300000 1150000 0  350000 1150000 0  400000 1150000 0  450000 1150000 0  500000 1150000 0  550000 1150000 0  600000 1150000 0  650000 1150000 0  700000 1150000 0  750000 1150000 0  800000 1150000 0  850000 1150000 0  900000 1150000 0  950000 1150000 0  1000000 1150000 0  0 1200000 0  50000 1200000 0  100000 1200000 0  150000 1200000 0  200000 1200000 0  250000 1200000 0  300000 1200000 0  350000 1200000 0  400000 1200000 0  450000 1200000 0  500000 1200000 0  550000 1200000 0  600000 1200000 0  650000 1200000 0  700000 1200000 0  750000 1200000 0  800000 1200000 0  850000 1200000 0  900000 1200000 0  950000 1200000 0  1000000 1200000 0  0 1250000 0  50000 1250000 0  100000 1250000 0  150000 1250000 0  200000 1250000 0  250000 1250000 0  300000 1250000 0  350000 1250000 0  400000 1250000 0  450000 1250000 0  500000 1250000 0  550000 1250000 0  600000 1250000 0  650000 1250000 0  700000 1250000 0  750000 1250000 0  800000 1250000 0  850000 1250000 0  900000 1250000 0  950000 1250000 0  1000000 1250000 0  0 1300000 0  50000 1300000 0  100000 1300000 0  150000 1300000 0  200000 1300000 0  250000 1300000 0  300000 1300000 0  350000 1300000 0  400000 1300000 0  450000 1300000 0  500000 1300000 0  550000 1300000 0  600000 1300000 0  650000 1300000 0  700000 1300000 0  750000 1300000 0  800000 1300000 0  850000 1300000 0  900000 1300000 0  950000 1300000 0  1000000 1300000 0  0 1350000 0  50000 1350000 0  100000 1350000 0  150000 1350000 0  200000 1350000 0  250000 1350000 0  300000 1350000 0  350000 1350000 0  400000 1350000 0  450000 1350000 0  500000 1350000 0  550000 1350000 0  600000 1350000 0  650000 1350000 0  700000 135
[...]
<PointData  Scalars="f_1519"> 
<DataArray  type="Float64"  Name="f_1519"  format="ascii">-6.7717554343469413e+00  -6.1664194318160277e+00  -5.4948708898865783e+00  -4.7783572241712644e+00  -4.0390502968542590e+00  -3.2838538704583948e+00  -2.5165008035995196e+00  -1.7398374897430364e+00  -9.5642502735824275e-01  -1.6874722530256339e-01  6.2070697558535437e-01  1.4094048549177411e+00  2.1947392056792476e+00  2.9739784540500200e+00  3.7441622293580048e+00  4.5018794022724045e+00  5.2428003422262961e+00  5.9606385600541127e+00  6.6441304897371118e+00  7.2645641298250840e+00  7.6669190736341459e+00  -6.3882028189829612e+00  -6.1125374456837456e+00  -5.4837425195352401e+00  -4.7768155059308306e+00  -4.0398622380062639e+00  -3.2852150923178414e+00  -2.5178559185048788e+00  -1.7409605324004387e+00  -9.5719683277531664e-01  -1.6908845489213745e-01  6.2086165988243436e-01  1.4101217021085928e+00  2.1961000059834093e+00  2.9760999114908842e+00  3.7472175948093902e+00  4.5060796483636487e+00  5.2480853924812285e+00  5.9649150725704807e+00  6.6356238112891788e+00  7.1948379943346934e+00  7.4362691101052896e+00  -5.9453065596733756e+00  -5.8106780230621418e+00  -5.3372805127503860e+00  -4.7050952243344959e+00  -4.0029790935835683e+00  -3.2655634276150654e+00  -2.5072398992496265e+00  -1.7352674829638386e+00  -9.5423917917979928e-01  -1.6770225030613117e-01  6.2120288588471162e-01  1.4094532032058946e+00  2.1939627951710912e+00  2.9713819138338051e+00  3.7377308265670277e+00  4.4875759930613839e+00  5.2120188629967323e+00  5.8936382492145061e+00  6.4941251586311060e+00  6.9282733027023049e+00  7.0380850271011388e+00  -5.5214360481076978e+00  -5.4412962545983357e+00  -5.0855260362738344e+00  -4.5477255725727623e+00  -3.9060877623304169e+00  -3.2056825405066078e+00  -2.4702195614510969e+00  -1.7127668612775475e+00  -9.4138647726220070e-01  -1.6178811761003270e-01  6.2139209754956948e-01  1.4039107638345321e+00  2.1814533660094932e+00  2.9491506906322633e+00  3.7008345810804917e+00  4.4276521184182682e+00  5.1153413038492284e+00  5.7390087692044061e+00  6.2543160951962591e+00  6.5880116639453803e+00  6.6511136301226053e+00  -5.1209506788471426e+00  -5.0650672399669476e+00  -4.7859190622696062e+00  -4.3306561384266731e+00  -3.7558706839891220e+00  -3.1040242946944141e+00  -2.4027004244543733e+00  -1.6693772090216110e+00  -9.1563368837740600e-01  -1.4982322283308022e-01  6.2134787800215141e-01  1.3918382187586873e+00  2.1555381421765922e+00  2.9055279359966542e+00  3.6330781868797448e+00  4.3260871986364071e+00  4.9665883040410792e+00  5.5271191714157277e+00  5.9668558580397040e+00  6.2322540712731040e+00  6.2769014425086791e+00  -4.7455585157084110e+00  -4.7024240971839344e+00  -4.4736116336503722e+00  -4.0832644282551556e+00  -3.5702367967581843e+00  -2.9697311525048025e+00  -2.3086657234235686e+00  -1.6064652896787015e+00  -8.7723880648812103e-01  -1.3175140311966216e-01  6.2111590121568006e-01  1.3733001753332541e+00  2.1166862594932598e+00  2.8422405334122427e+00  3.5389690598131756e+00  4.1925429233276548e+00  4.7835398901023582e+00  5.2856275415545024e+00  5.6650161862917123e+00  5.8846096487492607e+00  5.9202013014580812e+00  -4.3976856423413109e+00  -4.3622429264399489e+00  -4.1679127687294555e+00  -3.8273508702794929e+00  -3.3672509414426686e+00  -2.8154754123314443e+00  -2.1961737016321368e+00  -1.5287935574389744e+00  -8.2876530335399046e-01  -1.0864453009233258e-01  6.2078515130199374e-01  1.3495594535922644e+00  2.0676838414526948e+00  2.7642952234056710e+00  3.4267507875900143e+00  4.0396168592428783e+00  4.5836806117465576e+00  5.0354341603017554e+00  5.3680726727387915e+00  5.5559382117271143e+00  5.5861221006994182e+00  -4.0799100105403783e+00  -4.0495838071601833e+00  -3.8799160230705407e+00  -3.5776101793899198e+00  -3.1614691347338697e+00  -2.6533744401647668e+00  -2.0742392131388567e+00  -1.4424899250306107e+00  -7.7392481090746679e-01  -8.2205588824405415e-02  6.2043965678152235e-01  1.3224850602656202e+00  2.0123946137718547e+00  2.6779220929624321e+00  3.3054191319109556e+00  3.8792026223616074e+00  4.3811540633511079e+00  4.7909259430434785e+00  5.0874017520007380e+00  5.2524037287211991e+00  5.2789246657017426e+00  -3.7945843692141499e+00  -3.7678887745937861e+00  -3.6164761063375055e+00  -3.3438318978325490e+00  -2.9636954858636071e+00  -2.4934703687664985e+00  -1.9511167838034256e+00  -1.3536551916648061e+00  -7.1665981705788762e-01  -5.4331326210952893e-02  6.2013886143637065e-01  1.2940833720560843e+00  1.9548389559208519e+00  2.5892365263744095e+00  3.1831455180076476e+00  3.7211551253365691e+00  4.1865490512301138e+00  4.5618284793769002e+00  4.8301374680330014e+00  4.9781195714187305e+00  5.0019819786643689e+00  -3.5437026638591074e+00  -3.5196901276487589e+00  -3.3820980162506302e+00  -3.1326071600691332e+00  -2.7816884028403153e+00  -2.3435186441811928e+00  -1.8336330946009951e+00  -1.2676362255399451e+00  -6.6058364135989300e-01  -2.6818074476774749e-02  6.1991544599807280e-01  1.2662061441685408e+00  1.8986553661557313e+00  2.5035612803744245e+00  3.0666745801189719e+00  3.5731095994302278e+00  4.0075298866570197e+00  4.3547618342449166e+00  4.6010184978302799e+00  4.7360643964726590e+00  4.7579313522053965e+00  -3.3288767051062611e+00  -3.3068911442211357e+00  -3.1798603861753585e+00  -2.9484270779371307e+00  -2.6209313148170916e+00  -2.2092700250089901e+00  -1.7270975760593696e+00  -1.1887681357925011e+00  -6.0872317883362348e-01  -1.2081891600943145e-03  6.1978071221890696e-01  1.2404108408305363e+00  1.8468646345508908e+00  2.4251955014068818e+00  2.9612530058832633e+00  3.4407497981002759e+00  3.8495524016439999e+00  4.1742814936192181e+00  4.4033159031892266e+00  4.5284590898361676e+00  4.5488149639107398e+00  -3.1513583201724247e+00  -3.1309116638552767e+00  -3.0119017490259563e+00  -2.7943677117441550e+00  -2.4852533021028953e+00  -2.0948684358488561e+00  -1.6354657144931324e+00  -1.1203790574489374e+00  -5.6345929750485924e-01  2.1261595093754634e-02  6.1973149738838662e-01  1.2179234519420936e+00  1.8018252267149433e+00  2.3574311632564364e+00  2.8707932898030344e+00  3.3281883260441720e+00  3.7164540446356220e+00  4.0235402577661121e+00  4.2393288960407638e+00  4.3569620723128919e+00  4.3761899527812336e+00  -3.0120792562850691e+00  -2.9927840712445271e+00  -2.8797011338655483e+00  -2.6725228990263115e+00  -2.3772860577555699e+00  -2.0032211144349659e+00  -1.5615780004069080e+00  -1.0649116319691041e+00  -5.2657152330950630e-01  3.9652352742515246e-02  6.1975599375403190e-01  1.1996574534010325e+00  1.7652870421854971e+00  2.3026786586941008e+00  2.7981085406397779e+00  3.2383237422328714e+00  3.6108941653381046e+00  3.9047114417709610e+00  4.1106736499307059e+00  4.2227936575116347e+00  4.2412168022556882e+00  -2.9116952409477026e+00  -2.8932253795502683e+00  -2.7842534831357639e+00  -2.5842839677866278e+00  -2.2987878485545017e+00  -1.9362977065054727e+00  -1.5073910475486716e+00  -1.0240755846916942e+00  -4.9932301232116011e-01  5.3288417738004815e-02  6.1983780958313073e-01  1.1862557220377341e+00  1.7384813491058919e+00  2.2626201909439572e+00  2.7451391899345752e+00  3.1731309651000958e+00  3.5346688142739398e+00  3.8192647824119481e+00  4.0184652087484674e+00  4.1268256828759480e+00  4.1447317912878274e+00  -2.8506262029499299e+00  -2.8326924670237594e+00  -2.7261840959751726e+00  -2.5305219818995313e+00  -2.2508660824381663e+00  -1.8953525024280604e+00  -1.4741667133207612e+00  -9.9898730811412750e-01  -4.8254823127283031e-01  6.1717063200405292e-02  6.1995844519713084e-01  1.1781351383645349e+00  1.7222108008754229e+00  2.2383487764804944e+00  2.7131384348441649e+00  3.1338778783786685e+00  3.4889283048610293e+00  3.7681475864680585e+00  3.9634371289995416e+00  4.0696484599132718e+00  4.0873051538610037e+00  -2.8290874000175257e+00  -2.8114215487953675e+00  -2.7058218363370714e+00  -2.5117027273914316e+00  -2.2341218056448189e+00  -1.8810756416671253e+00  -1.4626081665749038e+00  -9.9027642575424879e-01  -4.7672381666846020e-01  6.4674204661924195e-02  6.2009860265800620e-01  1.1755230006540749e+00  1.7169210219844588e+00  2.2304736310702400e+00  2.7028053718908964e+00  3.1212728469831252e+00  3.4743190109608113e+00  3.7518999327074405e+00  3.9460190416530811e+00  4.0516187541113817e+00  4.0692846053335465e+00  -2.8471079485449833e+00  -2.8294512545972559e+00  -2.7232399236835350e+00  -2.5279503811520643e+00  -2.2487310995450369e+00  -1.8936806730626847e+00  -1.4729412295281821e+00  -9.9815157116450992e-01  -4.8201359555943668e-01  6.2062066951466530e-02  6.2023876011888757e-01  1.1784801421156075e+00  1.7227454365888362e+00  2.2391845134301169e+00  2.7143639186367552e+00  3.1355497077440662e+00  3.4910632877541756e+00  3.7707191872155437e+00  3.9663813012912108e+00  4.0728896723398158e+00  4.0908234082659840e+00  -2.9045345859718004e+00  -2.8866284775599325e+00  -2.7782680034324607e+00  -2.5790675770959410e+00  -2.2944716089579473e+00  -1.9329337597841296e+00  -1.5049419846186070e+00  -1.0224229856279761e+00  -4.9828414378990160e-01  5.3941483278279370e-02  6.2035939573290078e-01  1.1869087875780231e+00  1.7395202176371809e+00  2.2642727900077104e+00  2.7475882528646962e+00  3.1764949118214987e+00  3.5389850538705292e+00  3.8244811731026549e+00  4.0244506884518385e+00  4.1334225848663726e+00  4.1518924462637941e+00  -3.0010195969396403e+00  -2.9825964521955850e+00  -2.8704764446146633e+00  -2.6645142364549095e+00  -2.3706969600220842e+00  -1.9981265369168735e+00  -1.5579113353237795e+00  -1.0624814533780989e+00  -5.2508983686947841e-01  4.0539751915000824e-02  6.2044121156202925e-01  1.2005448525735454e+00  1.7667687286255573e+00  2.3051088372851392e+00  2.8017752057229490e+00  3.2434183197510160e+00  3.6174832630716445e+00  3.9127201043423843e+00  4.1198983391816260e+00  4.2329812765605928e+00  4.2522764616011370e+00  -3.1359927474651728e+00  -3.1167648669968364e+00  -2.9991316907247052e+00  -2.7833430524500677e+00  -2.4762568393195834e+00  -2.0879911207281472e+00  -1.6305960844870060e+00  -1.1172339579404069e+00  -5.6162802139889390e-01  2.2273753373968527e-02  6.2046570792769828e-01  1.2189356102223361e+00  1.8036565028209450e+00  2.3605762627649978e+00  2.8756629198091872e+00  3.3350656411649089e+00  3.7254505074189801e+00  4.0345649170602327e+00  4.2520989543420171e+00  4.3711088691713140e+00  4.3915555254884691e+00  -3.3086177585946421e+00  -3.2882618845200726e+00  -3.1631186978731356e+00  -2.9340842883031586e+00  -2.6093551963279298e+00  -2.2005525927841902e+00  -1.7210558005671825e+00  -1.1849982960908021e+00  -6.0666742923479078e-01  -2.1363551442794832e-04  6.2041649309721847e-01  1.2414053944762238e+00  1.8489203841497546e+00  2.4289653411086234e+00  2.9672947813754980e+00  3.4494672303251055e+00  3.8611285201331884e+00  4.1886242832532119e+00  4.4200575914914362e+00  4.5470883495371828e+00  4.5690739104223059e+00  -3.5177341468892451e+00  -3.4958671911565311e+00  -3.3608212925141494e+00  -3.1145646289288047e+00  -2.7673326813409136e+00  -2.3329123941141021e+00  -1.8264773748028487e+00  -1.2633640750582948e+00  -6.5845816083958530e-01  -2.6008938852375034e-02  6.2028175931810869e-01  1.2670152797929617e+00  1.9007808466760789e+00  2.5078334308561425e+00  3.0738302999172005e+00  3.5837158494973762e+00  4.0218856081564631e+00  4.3728043653852406e+00  4.6222952215667190e+00  4.7598873329648201e+00  4.7838998691751460e+00  -3.7617847733482055e+00  -3.7379223661025782e+00  -3.5899402627168446e+00  -3.3216312740607439e+00  -2.9463518459139642e+00  -2.4809579200204066e+00  -1.9429483126914784e+00  -1.3490393210582161e+00  -7.1464175060463986e-01  -5.3886166739859021e-02  6.2005834387986858e-01  1.2945285315272033e+00  1.9568570223741379e+00  2.5938523969810636e+00  3.1913139891196765e+00  3.7336675740827161e+00  4.2038926911797905e+00  4.5840291031486906e+00  4.8566733116536138e+00  5.0080859799098789e+00  5.0347815745302453e+00  -4.0387274603855436e+00  -4.0122065234049868e+00  -3.8472045466845364e+00  -3.5507287377272947e+00  -3.1409568580349063e+00  -2.6390054170453916e+00  -2.0652219265947238e+00  -1.4377248876461801e+00  -7.7219740845558960e-01  -8.2287854949341280e-02  6.1975754853476872e-01  1.3224027941407070e+00  2.0141220162237654e+00  2.6826871303469013e+00  3.3144364184551334e+00  3.8935716454810114e+00  4.4016663400500935e+00  4.8178073847060956e+00  5.1201132283866801e+00  5.2897810124763334e+00  5.3201072158565266e+00  -4.3459248953831926e+00  -4.3157410064108905e+00  -4.1278754674225953e+00  -3.7952369549855587e+00  -3.3434834064303232e+00  -2.7994196539266145e+00  -2.1865535822737217e+00  -1.5240980180893540e+00  -8.2748663613636653e-01  -1.0936224827592589e-01  6.1941205401435284e-01  1.3488417354086841e+00  2.0689625086703365e+00  2.7689907627553008e+00  3.4363709069484472e+00  4.0556726176477182e+00  4.6074481467589390e+00  5.0675480755957389e+00  5.4081099740456624e+00  5.6024401317561425e+00  5.6378828476575125e+00  -4.6800040961418228e+00  -4.6444124434330156e+00  -4.4248189809754512e+00  -4.0454303362382475e+00  -3.5433426847860749e+00  -2.9523457180113630e+00  -2.2987718544968341e+00  -1.6020433280958604e+00  -8.7648905417687439e-01  -1.3310297001686708e-01  6.1908130410071949e-01  1.3719486084360650e+00  2.1174360118045210e+00  2.8466624949950821e+00  3.5488629287399243e+00  4.2099283578211466e+00  4.8104340020745102e+00  5.3234616335714655e+00  5.7138088389666377e+00  5.9426213025001893e+00  5.9857557210246632e+00  -5.0367042371923789e+00  -4.9920568659568065e+00  -4.7266586527233843e+00  -4.2869219660994116e+00  -3.7263910987247479e+00  -3.0858899933200785e+00  -2.3928809815633652e+00  -1.6653307306802352e+00  -9.1534093686016949e-01  -1.5164101344226236e-01  6.1884932731428521e-01  1.3900204281495185e+00  2.1558308936938353e+00  2.9095744143380280e+00  3.6428976297707774e+00  4.3442215000108204e+00  4.9960678893054968e+00  5.5708533437430221e+00  6.0261162675859445e+00  6.3052644452832576e+00  6.3611478841634455e+00  -5.4109164248062651e+00  -5.3478144586290304e+00  -5.0141188898799127e+00  -4.4988115638880499e+00  -3.8751440985328660e+00  -3.1874549131018957e+00  -2.4606373757640752e+00  -1.7089534853158233e+00  -9.4125616069304396e-01  -1.6371355851808270e-01  6.1880510776688824e-01  1.4019853229264960e+00  2.1815836825786472e+00  2.9529640665939891e+00  3.7104167667675507e+00  4.4458797458230617e+00  5.1462849676468458e+00  5.7879227778891584e+00  6.3257232415902163e+00  6.6814934599146918e+00  6.7616332534240469e+00  -5.7978878217847685e+00  -5.6880760973859044e+00  -5.2539279533147392e+00  -4.6534410438981348e+00  -3.9718216576803718e+00  -3.2473787877449967e+00  -2.4975336212506041e+00  -1.7311847085173531e+00  -9.5376558985464244e-01  -1.6925599788943579e-01  6.1899431943176020e-01  1.4078994556226050e+00  2.1944363844962660e+00  2.9754646882802884e+00  3.7474371045660884e+00  4.5057606329315254e+00  5.2431762989000141e+00  5.9452924296509178e+00  6.5774777180667812e+00  7.0508752283785112e+00  7.1855037649897788e+00  -6.1960719047889388e+00  -5.9546407890183373e+00  -5.3954266059728697e+00  -4.7247178672541406e+00  -4.0078881871648644e+00  -3.2658824430472522e+00  -2.5070203894929604e+00  -1.7359027061744325e+00  -9.5590280066695033e-01  -1.6992449679212643e-01  6.1933554543403735e-01  1.4092856602086161e+00  2.1973940380917893e+00  2.9811577377169090e+00  3.7580531238213419e+00  4.5254122976342837e+00  5.2800594433227115e+00  6.0170127112472542e+00  6.7239397248516655e+00  7.3527346510001390e+00  7.6284000242993599e+00  -6.4267218683177898e+00  -6.0243669245087261e+00  -5.4039332844207788e+00  -4.7204413547377682e+00  -4.0026031369099249e+00  -3.2616821969560115e+00  -2.5039650240415732e+00  -1.7337812487335706e+00  -9.5454200036278503e-01  -1.6920764960126869e-01  6.1949022973112255e-01  1.4089444306190353e+00  2.1966222326747196e+00  2.9800346950595089e+00  3.7566980089159880e+00  4.5240510757748362e+00  5.2792475021707093e+00  6.0185544294877040e+00  6.7350680952029904e+00  7.4066166371324345e+00  8.0119526396633471e+00  </DataArray> 
</PointData> 
</Piece>
</UnstructuredGrid>
</VTKFile>