<?xml version="1.0"?>
<VTKFile type="UnstructuredGrid"  version="0.1"  >
<UnstructuredGrid>
<Piece  NumberOfPoints="651" NumberOfCells="1200">
<Points>
<DataArray  type="Float64"  NumberOfComponents="3"  format="ascii">0 0 0  50000 0 0  100000 0 0  150000 0 0  200000 0 0  250000 0 0  300000 0 0  350000 0 0  400000 0 0  450000 0 0  500000 0 0  550000 0 0  600000 0 0  650000 0 0  700000 0 0  750000 0 0  800000 0 0  850000 0 0  900000 0 0  950000 0 0  1000000 0 0  0 50000 0  50000 50000 0  100000 50000 0  150000 50000 0  200000 50000 0  250000 50000 0  300000 50000 0  350000 50000 0  400000 50000 0  450000 50000 0  500000 50000 0  550000 50000 0  600000 50000 0  650000 50000 0  700000 50000 0  750000 50000 0  800000 50000 0  850000 50000 0  900000 50000 0  950000 50000 0  1000000 50000 0  0 100000 0  50000 100000 0  100000 100000 0  150000 100000 0  200000 100000 0  250000 100000 0  300000 100000 0  350000 100000 0  400000 100000 0  450000 100000 0  500000 100000 0  550000 100000 0  600000 100000 0  650000 100000 0  700000 100000 0  750000 100000 0  800000 100000 0  850000 100000 0  900000 100000 0  950000 100000 0  1000000 100000 0  0 150000 0  50000 150000 0  100000 150000 0  150000 150000 0  200000 150000 0  250000 150000 0  300000 150000 0  350000 150000 0  400000 150000 0  450000 150000 0  500000 150000 0  550000 150000 0  600000 150000 0  650000 150000 0  700000 150000 0  750000 150000 0  800000 150000 0  850000 150000 0  900000 150000 0  950000 150000 0  1000000 150000 0  0 200000 0  50000 200000 0  100000 200000 0  150000 200000 0  200000 200000 0  250000 200000 0  300000 200000 0  350000 200000 0  400000 200000 0  450000 200000 0  500000 200000 0  550000 200000 0  600000 200000 0  650000 200000 0  700000 200000 0  750000 200000 0  800000 200000 0  850000 200000 0  900000 200000 0  950000 200000 0  1000000 200000 0  0 250000 0  50000 250000 0  100000 250000 0  150000 250000 0  200000 250000 0  250000 250000 0  300000 250000 0  350000 250000 0  400000 250000 0  450000 250000 0  500000 250000 0  550000 250000 0  600000 250000 0  650000 250000 0  700000 250000 0  750000 250000 0  800000 250000 0  850000 250000 0  900000 250000 0  950000 250000 0  1000000 250000 0  0 300000 0  50000 300000 0  100000 300000 0  150000 300000 0  200000 300000 0  250000 300000 0  300000 300000 0  350000 300000 0  400000 300000 0  450000 300000 0  500000 300000 0  550000 300000 0  600000 300000 0  650000 300000 0  700000 300000 0  750000 300000 0  800000 300000 0  850000 300000 0  900000 300000 0  950000 300000 0  1000000 300000 0  0 350000 0  50000 350000 0  100000 350000 0  150000 350000 0  200000 350000 0  250000 350000 0  300000 350000 0  350000 350000 0  400000 350000 0  450000 350000 0  500000 350000 0  550000 350000 0  600000 350000 0  650000 350000 0  700000 350000 0  750000 350000 0  800000 350000 0  850000 350000 0  900000 350000 0  950000 350000 0  1000000 350000 0  0 400000 0  50000 400000 0  100000 400000 0  150000 400000 0  200000 400000 0  250000 400000 0  300000 400000 0  350000 400000 0  400000 400000 0  450000 400000 0  500000 400000 0  550000 400000 0  600000 400000 0  650000 400000 0  700000 400000 0  750000 400000 0  800000 400000 0  850000 400000 0  900000 400000 0  950000 400000 0  1000000 400000 0  0 450000 0  50000 450000 0  100000 450000 0  150000 450000 0  200000 450000 0  250000 450000 0  300000 450000 0  350000 450000 0  400000 450000 0  450000 450000 0  500000 450000 0  550000 450000 0  600000 450000 0  650000 450000 0  700000 450000 0  750000 450000 0  800000 450000 0  850000 450000 0  900000 450000 0  950000 450000 0  1000000 450000 0  0 500000 0  50000 500000 0  100000 500000 0  150000 500000 0  200000 500000 0  250000 500000 0  300000 500000 0  350000 500000 0  400000 500000 0  450000 500000 0  500000 500000 0  550000 500000 0  600000 500000 0  650000 500000 0  700000 500000 0  750000 500000 0  800000 500000 0  850000 500000 0  900000 500000 0  950000 500000 0  1000000 500000 0  0 550000 0  50000 550000 0  100000 550000 0  150000 550000 0  200000 550000 0  250000 550000 0  300000 550000 0  350000 550000 0  400000 550000 0  450000 550000 0  500000 550000 0  550000 550000 0  600000 550000 0  650000 550000 0  700000 550000 0  750000 550000 0  800000 550000 0  850000 550000 0  900000 550000 0  950000 550000 0  1000000 550000 0  0 600000 0  50000 600000 0  100000 600000 0  150000 600000 0  200000 600000 0  250000 600000 0  300000 600000 0  350000 600000 0  400000 600000 0  450000 600000 0  500000 600000 0  550000 600000 0  600000 600000 0  650000 600000 0  700000 600000 0  750000 600000 0  800000 600000 0  850000 600000 0  900000 600000 0  950000 600000 0  1000000 600000 0  0 650000 0  50000 650000 0  100000 650000 0  150000 650000 0  200000 650000 0  250000 650000 0  300000 650000 0  350000 650000 0  400000 650000 0  450000 650000 0  500000 650000 0  550000 650000 0  600000 650000 0  650000 650000 0  700000 650000 0  750000 650000 0  800000 650000 0  850000 650000 0  900000 650000 0  950000 650000 0  1000000 650000 0  0 700000 0  50000 700000 0  100000 700000 0  150000 700000 0  200000 700000 0  250000 700000 0  300000 700000 0  350000 700000 0  400000 700000 0  450000 700000 0  500000 700000 0  550000 700000 0  600000 700000 0  650000 700000 0  700000 700000 0  750000 700000 0  800000 700000 0  850000 700000 0  900000 700000 0  950000 700000 0  1000000 700000 0  0 750000 0  50000 750000 0  100000 750000 0  150000 750000 0  200000 750000 0  250000 750000 0  300000 750000 0  350000 750000 0  400000 750000 0  450000 750000 0  500000 750000 0  550000 750000 0  600000 750000 0  650000 750000 0  700000 750000 0  750000 750000 0  800000 750000 0  850000 750000 0  900000 750000 0  950000 750000 0  1000000 750000 0  0 800000 0  50000 800000 0  100000 800000 0  150000 800000 0  200000 800000 0  250000 800000 0  300000 800000 0  350000 800000 0  400000 800000 0  450000 800000 0  500000 800000 0  550000 800000 0  600000 800000 0  650000 800000 0  700000 800000 0  750000 800000 0  800000 800000 0  850000 800000 0  900000 800000 0  950000 800000 0  1000000 800000 0  0 850000 0  50000 850000 0  100000 850000 0  150000 850000 0  200000 850000 0  250000 850000 0  300000 850000 0  350000 850000 0  400000 850000 0  450000 850000 0  500000 850000 0  550000 850000 0  600000 850000 0  650000 850000 0  700000 850000 0  750000 850000 0  800000 850000 0  850000 850000 0  900000 850000 0  950000 850000 0  1000000 850000 0  0 900000 0  50000 900000 0  100000 900000 0  150000 900000 0  200000 900000 0  250000 900000 0  300000 900000 0  350000 900000 0  400000 900000 0  450000 900000 0  500000 900000 0  550000 900000 0  600000 900000 0  650000 900000 0  700000 900000 0  750000 900000 0  800000 900000 0  850000 900000 0  900000 900000 0  950000 900000 0  1000000 900000 0  0 950000 0  50000 950000 0  100000 950000 0  150000 950000 0  200000 950000 0  250000 950000 0  300000 950000 0  350000 950000 0  400000 950000 0  450000 950000 0  500000 950000 0  550000 950000 0  600000 950000 0  650000 950000 0  700000 950000 0  750000 950000 0  800000 950000 0  850000 950000 0  900000 950000 0  950000 950000 0  1000000 950000 0  0 1000000 0  50000 1000000 0  100000 1000000 0  150000 1000000 0  200000 1000000 0  250000 1000000 0  300000 1000000 0  350000 1000000 0  400000 1000000 0  450000 1000000 0  500000 1000000 0  550000 1000000 0  600000 1000000 0  650000 1000000 0  700000 1000000 0  750000 1000000 0  800000 1000000 0  850000 1000000 0  900000 1000000 0  950000 1000000 0  1000000 1000000 0  0 1050000 0  50000 1050000 0  100000 1050000 0  150000 1050000 0  200000 1050000 0  250000 1050000 0  300000 1050000 0  350000 1050000 0  400000 1050000 0  450000 1050000 0  500000 1050000 0  550000 1050000 0  600000 1050000 0  650000 1050000 0  700000 1050000 0  750000 1050000 0  800000 1050000 0  850000 1050000 0  900000 1050000 0  950000 1050000 0  1000000 1050000 0  0 1100000 0  50000 1100000 0  100000 1100000 0  150000 1100000 0  200000 1100000 0  250000 1100000 0  300000 1100000 0  350000 1100000 0  400000 1100000 0  450000 1100000 0  500000 1100000 0  550000 1100000 0  600000 1100000 0  650000 1100000 0  700000 1100000 0  750000 1100000 0  800000 1100000 0  850000 1100000 0  900000 1100000 0  950000 1100000 0  1000000 1100000 0  0 1150000 0  50000 1150000 0  100000 1150000 0  150000 1150000 0  200000 1150000 0  250000 1150000 0  300000 1150000 0  350000 1150000 0  400000 1150000 0  450000 1150000 0  500000 1150000 0  550000 1150000 0  600000 1150000 0  650000 1150000 0  700000 1150000 0  750000 1150000 0  800000 1150000 0  850000 1150000 0  900000 1150000 0  950000 1150000 0  1000000 1150000 0  0 1200000 0  50000 1200000 0  100000 1200000 0  150000 1200000 0  200000 1200000 0  250000 1200000 0  300000 1200000 0  350000 1200000 0  400000 1200000 0  450000 1200000 0  500000 1200000 0  550000 1200000 0  600000 1200000 0  650000 1200000 0  700000 1200000 0  750000 1200000 0  800000 1200000 0  850000 1200000 0  900000 1200000 0  950000 1200000 0  1000000 1200000 0  0 1250000 0  50000 1250000 0  100000 1250000 0  150000 1250000 0  200000 1250000 0  250000 1250000 0  300000 1250000 0  350000 1250000 0  400000 1250000 0  450000 1250000 0  500000 1250000 0  550000 1250000 0  600000 1250000 0  650000 1250000 0  700000 1250000 0  750000 1250000 0  800000 1250000 0  850000 1250000 0  900000 1250000 0  950000 1250000 0  1000000 1250000 0  0 1300000 0  50000 1300000 0  100000 1300000 0  150000 1300000 0  200000 1300000 0  250000 1300000 0  300000 1300000 0  350000 1300000 0  400000 1300000 0  450000 1300000 0  500000 1300000 0  550000 1300000 0  600000 1300000 0  650000 1300000 0  700000 1300000 0  750000 1300000 0  800000 1300000 0  850000 1300000 0  900000 1300000 0  950000 1300000 0  1000000 1300000 0  0 1350000 0  50000 1350000 0  100000 1350000 0  150000 1350000 0  200000 1350000 0  250000 1350000 0  300000 1350000 0  350000 1350000 0  400000 1350000 0  450000 1350000 0  500000 1350000 0  550000 1350000 0  600000 1350000 0  650000 1350000 0  700000 135
[...]
<PointData  Scalars="f_1519"> 
<DataArray  type="Float64"  Name="f_1519"  format="ascii">-4.7929763904079614e+00  -4.3514505255168299e+00  -3.8619050386628082e+00  -3.3396913131830122e+00  -2.8009235493910265e+00  -2.2506171759339377e+00  -1.6914824847571763e+00  -1.1255862833614314e+00  -5.5478869986873847e-01  1.9105870030407406e-02  5.9428903157135504e-01  1.1689204345445041e+00  1.7411055859733808e+00  2.3088597799800374e+00  2.8700325489298013e+00  3.4221471723721821e+00  3.9620629044462534e+00  4.4852259489023121e+00  4.9834860242954857e+00  5.4360202628845880e+00  5.7297544803481957e+00  -4.5132284308694075e+00  -4.3119579043117930e+00  -3.8536763690380833e+00  -3.3385111611222573e+00  -2.8014948813910499e+00  -2.2516092041198479e+00  -1.6924816052732281e+00  -1.1264228601084891e+00  -5.5537307958058368e-01  1.8833015175239953e-02  5.9437591436664117e-01  1.1694151602186922e+00  1.7420667758812625e+00  2.3103704377367156e+00  2.8722151872764279e+00  3.4251486282025168e+00  3.9658260682389299e+00  4.4881989757306906e+00  4.9770386201610659e+00  5.3847906073700598e+00  5.5612897501763010e+00  -4.1901367148205191e+00  -4.0917015974913467e+00  -3.7466370240208922e+00  -3.2859931441974184e+00  -2.7744262459134443e+00  -2.2371510028413217e+00  -1.6846511555814039e+00  -1.1222153484715089e+00  -5.5318908903095920e-01  1.9844886668914884e-02  5.9460084239120325e-01  1.1688788863548742e+00  1.7404334350140604e+00  2.3068266762964740e+00  2.8651618158844148e+00  3.4114832572275451e+00  3.9393129051174682e+00  4.4359703444360976e+00  4.8735764342306975e+00  5.1901243364150584e+00  5.2706012405296194e+00  -3.8809186655645753e+00  -3.8222380579550501e+00  -3.5628762995194645e+00  -3.1710169055739099e+00  -2.7035595662804943e+00  -2.1933044314842811e+00  -1.6575144084816054e+00  -1.1057078168830869e+00  -5.4375764036031327e-01  2.4176951591517570e-02  5.9471932240074743e-01  1.1647792636756018e+00  1.7312149551637923e+00  2.2904806093992347e+00  2.8380844645326677e+00  3.3675799739436307e+00  3.8685832407065730e+00  4.3229733341197996e+00  4.6984798251544309e+00  4.9417910561533622e+00  4.9881094522573788e+00  -3.5887607581977314e+00  -3.5477951092551869e+00  -3.3442695912628402e+00  -3.0125530741581619e+00  -2.5938287274259770e+00  -2.1189945451161187e+00  -1.6081275684614587e+00  -1.0739538250225162e+00  -5.2490626071341806e-01  3.2930672294380944e-02  5.9467210383599278e-01  1.1559176314501678e+00  1.7122173481201197e+00  2.2585316356226914e+00  2.7885033915274837e+00  3.2933207729766312e+00  3.7599034692115576e+00  4.1682614801713589e+00  4.4886830193690290e+00  4.6821980649488770e+00  4.7149885510037794e+00  -3.3149146123819695e+00  -3.2832697011126650e+00  -3.1164331872421203e+00  -2.8320215571668066e+00  -2.4583102709992577e+00  -2.0209131401116074e+00  -1.5394197072263465e+00  -1.0279700038601096e+00  -4.9683702523694340e-01  4.6139550209787418e-02  5.9449152793762849e-01  1.1423463952614585e+00  1.6837937731341575e+00  2.2122548292040185e+00  2.7197239779445264e+00  3.1957686106289365e+00  3.6262500062053831e+00  3.9920021417326796e+00  4.2684343100456399e+00  4.4285474286575814e+00  4.4546887451755142e+00  -3.0611519180493940e+00  -3.0351351545115306e+00  -2.8934383077724188e+00  -2.6453099151317385e+00  -2.3101757724692451e+00  -1.9083073098051095e+00  -1.4572770055628261e+00  -9.7123932350057052e-01  -4.6142730025300582e-01  6.3017117609724990e-02  5.9424125237028769e-01  1.1249886850218351e+00  1.6479810543024918e+00  2.1553080078881082e+00  2.6377642166380295e+00  3.0841138384757629e+00  3.4803719316011099e+00  3.8094298891531819e+00  4.0517819963396180e+00  4.1887545789820422e+00  4.2109227601635322e+00  -2.8293526936893851e+00  -2.8070820744522842e+00  -2.6833696065839656e+00  -2.4631257471837049e+00  -2.1600334374643859e+00  -1.7900110984263962e+00  -1.3682746390557068e+00  -9.0823353640260462e-01  -4.2138701939342849e-01  8.2319067329974169e-02  5.9398147498600729e-01  1.1052077146884389e+00  1.6075979101893998e+00  2.0922355395412446e+00  2.5491841677474327e+00  2.9670275098990930e+00  3.3325784981573929e+00  3.6310301504288858e+00  3.8470178605798875e+00  3.9673129174904060e+00  3.9867900769863338e+00  -2.6212314622924002e+00  -2.6016202664340513e+00  -2.4912224998414905e+00  -2.2926017235708920e+00  -2.0157553253538283e+00  -1.6733425200885192e+00  -1.2784293378299678e+00  -8.4340070267389944e-01  -3.7959145451687731e-01  1.0266150541106388e-01  5.9375476660460846e-01  1.0844658268581449e+00  1.5655751213194495e+00  2.0274952567437268e+00  2.4599398132407280e+00  2.8516918584228783e+00  3.1905861581169068e+00  3.4638902479163391e+00  3.6593412790893809e+00  3.7672203740021697e+00  3.7847452645124129e+00  -2.4382404849588903e+00  -2.4205953711507502e+00  -2.3202796329141164e+00  -2.1385396146739653e+00  -1.8829933877515281e+00  -1.5639517414411690e+00  -1.1927152426987080e+00  -7.8063732222694082e-01  -3.3867424917991512e-01  1.2273478925390346e-01  5.9358447866363107e-01  1.0641121909242681e+00  1.5245640245924781e+00  1.9649657874432296e+00  2.3749456678563132e+00  2.7436700536127190e+00  3.0599791008965163e+00  3.3128336298252621e+00  3.4922051414799329e+00  3.5906469632465372e+00  3.6067074562235750e+00  -2.2815531321754161e+00  -2.2653938852892215e+00  -2.1727838121818035e+00  -2.0042108019720657e+00  -1.7657416324188526e+00  -1.4660275918121461e+00  -1.1149999874155272e+00  -7.2310157965330724e-01  -3.0084077484345861e-01  1.4141498616237244e-01  5.9347860442377665e-01  1.0452813184639995e+00  1.4867652687124575e+00  1.9077790736924938e+00  2.2980238692993238e+00  2.6471025076940076e+00  2.9447316290558536e+00  3.1811787343920748e+00  3.3479921633117233e+00  3.4392098095730965e+00  3.4541622668592038e+00  -2.1520802931269087e+00  -2.1370496187550767e+00  -2.0502925289629879e+00  -1.8918555169449758e+00  -1.6667886202119597e+00  -1.3825879550024880e+00  -1.0481643408259269e+00  -6.7321748468382014e-01  -2.6782522474379655e-01  1.5780119240961291e-01  5.9343474691466136e-01  1.0288661330340512e+00  1.4538966659760018e+00  1.8583328454957635e+00  2.2320240410117989e+00  2.5649844967261131e+00  2.8476385134124778e+00  3.0712215748650666e+00  3.2283764470963083e+00  3.3141157813790270e+00  3.3282419330353274e+00  -2.0504996632368551e+00  -2.0363139233143142e+00  -1.9538826257541155e+00  -1.8029983497220772e+00  -1.5880505855084104e+00  -1.3157497294315628e+00  -9.9427665845477686e-01  -6.3276375666768203e-01  -2.4092348881484127e-01  1.7120963906601083e-01  5.9344430125890302e-01  1.0155318733922363e+00  1.4272325735161770e+00  1.8183824224882086e+00  2.1789946985491575e+00  2.4994266535526797e+00  2.7706360544891595e+00  2.9845443414797059e+00  3.1345341992008096e+00  3.2162523701858561e+00  3.2297897829796307e+00  -1.9772880197021296e+00  -1.9637084361762374e+00  -1.8842782949119081e+00  -1.7386521787013687e+00  -1.5308075917021879e+00  -1.2669468983557908e+00  -9.5476146680439500e-01  -6.0298520021272584e-01  -2.2105524878648575e-01  1.8114839534954624e-01  5.9349537299245314e-01  1.0057466798780794e+00  1.4076695421072947e+00  1.7891526475999415e+00  2.1403486226640962e+00  2.4518667482968857e+00  2.7150316315253340e+00  2.9222166263386447e+00  3.0672764958002738e+00  3.1462532125539364e+00  3.1594131424635554e+00  -1.9327506626176720e+00  -1.9195654906537309e+00  -1.8419346097796234e+00  -1.6994510601972572e+00  -1.4958657754300668e+00  -1.2370925369135006e+00  -9.3053735854844988e-01  -5.8469451727785682e-01  -2.0882796425033609e-01  1.8728792008829273e-01  5.9357455672265069e-01  9.9981411685307742e-01  1.3957919714070799e+00  1.7714392643881807e+00  2.1169980885156190e+00  2.4232276291444594e+00  2.6816623480526185e+00  2.8849275568065154e+00  3.0271366253898462e+00  3.1045470370126309e+00  3.1175258263897927e+00  -1.9170441931639199e+00  -1.9040569893181241e+00  -1.8270909681952006e+00  -1.6857340836290333e+00  -1.4836626811963864e+00  -1.2266890273182935e+00  -9.2211618352072933e-01  -5.7835000612471521e-01  -2.0458855343394017e-01  1.8943603513186286e-01  5.9366787618670702e-01  9.9789971724153959e-01  1.3919243058073432e+00  1.7656857584981105e+00  2.1094519358941204e+00  2.4140247796916889e+00  2.6709984335697796e+00  2.8730698360024385e+00  3.0144267205686068e+00  3.0913927416915317e+00  3.1043799455373327e+00  -1.9301900740163824e+00  -1.9172112846392222e+00  -1.8398008730164392e+00  -1.6975918044331164e+00  -1.4943265956792233e+00  -1.2358918767710683e+00  -9.2966233614222871e-01  -5.8410351201478727e-01  -2.0845621903368144e-01  1.8752163552032783e-01  5.9376119565076813e-01  1.0000478322851216e+00  1.3961637166237453e+00  1.7720302696512524e+00  2.1178731109218436e+00  2.4244282892868969e+00  2.6832015278034720e+00  2.8867868125706670e+00  3.0292703621530488e+00  3.1069012430271634e+00  3.1200864149911034e+00  -1.9720773900901454e+00  -1.9589174601805310e+00  -1.8799407434268722e+00  -1.7348808739652413e+00  -1.5276958791519424e+00  -1.2645309959235063e+00  -9.5301287029071147e-01  -6.0181689522655091e-01  -2.2033378973389164e-01  1.8158907249533565e-01  5.9384037938097500e-01  1.0061873570238804e+00  1.4083910011599066e+00  1.7903209525861403e+00  2.1420972191778112e+00  2.4542826507292079e+00  2.7181433440756115e+00  2.9259879310747925e+00  3.0716140472853564e+00  3.1510441885497023e+00  3.1646237720755859e+00  -2.0424540306062036e+00  -2.0289166178124285e+00  -1.9471984468273851e+00  -1.7972085891062790e+00  -1.5833003021157497e+00  -1.3120909011792823e+00  -9.9165894617575479e-01  -6.3104667011480209e-01  -2.3989682114275573e-01  1.7180387898119262e-01  5.9389145111454500e-01  1.0161261133074375e+00  1.4282592411882835e+00  1.8200995090411087e+00  2.1816124108282069e+00  2.5030854818049986e+00  2.7753863378818635e+00  2.9903341020955305e+00  3.1412183781275673e+00  3.2236496756877622e+00  3.2378354156103040e+00  -2.1409061806618888e+00  -2.1267800290055909e+00  -2.0410406947228705e+00  -1.8838858224916362e+00  -1.6603027610390515e+00  -1.3776487443526961e+00  -1.0446882886383735e+00  -6.7099709312233413e-01  -2.6656091360255785e-01  1.5846961933940032e-01  5.9390100545880498e-01  1.0295345599638566e+00  1.4551609771172640e+00  1.8605532370572677e+00  2.2355000931993700e+00  2.5699237073759345e+00  2.8541243725854266e+00  3.0791912693184367e+00  3.2376282813364354e+00  3.3243853711285145e+00  3.3394160455003497e+00  -2.2668265144857407e+00  -2.2518740571996365e+00  -2.1606564109382638e+00  -1.9938429820186292e+00  -1.7573958766823989e+00  -1.4597667553205436e+00  -1.1106881169258616e+00  -7.2044332131903011e-01  -2.9942951633897691e-01  1.4205443390948513e-01  5.9385714794972000e-01  1.0459207662111258e+00  1.4881765272169587e+00  1.9104373320268000e+00  2.3023357397890218e+00  2.6533633441856379e+00  2.9530773847923362e+00  3.1915465543455337e+00  3.3601195645552626e+00  3.4527296376626699e+00  3.4688888845488619e+00  -2.4193717038500737e+00  -2.4033112108730492e+00  -2.3048693891064422e+00  -2.1254978774517803e+00  -1.8726433485230345e+00  -1.5563343012392263e+00  -1.1876099154828190e+00  -7.7763003506973150e-01  -3.3722827221896273e-01  1.2322356144925883e-01  5.9375127370990688e-01  1.0646009631196363e+00  1.5260100015534563e+00  1.9679730746004847e+00  2.3800509950722541e+00  2.7512874938147021e+00  3.0703291401250445e+00  3.3258753670474541e+00  3.5076153852875898e+00  3.6079311235242080e+00  3.6255762373323352e+00  -2.5974095121389023e+00  -2.5798846216286671e+00  -2.4720055267158711e+00  -2.2765544955428241e+00  -2.0032504057433926e+00  -1.6643561060493532e+00  -1.2726040608671978e+00  -8.4015950437018283e-01  -3.7823936894588983e-01  1.0286992551542462e-01  5.9358098576897178e-01  1.0846742469625228e+00  1.5669272068904667e+00  2.0307364550474865e+00  2.4657650902035497e+00  2.8606782724620810e+00  3.2030910777273651e+00  3.4799374759444048e+00  3.6785582522149767e+00  3.7889560188075277e+00  3.8085672146658789e+00  -2.7994543246127974e+00  -2.7799771651168625e+00  -2.6596821082063484e+00  -2.4436943980553516e+00  -2.1452427457838446e+00  -1.7796917575255300e+00  -1.3618484153738586e+00  -9.0489978716765940e-01  -4.2026215781580245e-01  8.2128037685168367e-02  5.9335427738761093e-01  1.1050166850436514e+00  1.6087227717670549e+00  2.0955692887762236e+00  2.5556103914293136e+00  2.9773468507999818e+00  3.3473691898379565e+00  3.6504614995572444e+00  3.8707053589574811e+00  3.9944178268257962e+00  4.0166884460628962e+00  -3.0235870077899745e+00  -3.0014188266084858e+00  -2.8644462439660754e+00  -2.6220941367796358e+00  -2.2930361792275344e+00  -1.8967780861021661e+00  -1.4504284642644139e+00  -9.6797225551447530e-01  -4.6064530192884889e-01  6.2347067351815874e-02  5.9309450000337194e-01  1.1243186347639376e+00  1.6487630526266672e+00  2.1585750758742148e+00  2.6446127579364616e+00  3.0956430621787190e+00  3.4975115248428459e+00  3.8326456675053229e+00  4.0807740601459779e+00  4.2224709068850776e+00  4.2484876704229411e+00  -3.2673529928019294e+00  -3.2412116762840029e+00  -3.0810985576720498e+00  -2.8046663893590904e+00  -2.4389142538317712e+00  -2.0084328582553175e+00  -1.5323882255708747e+00  -1.0249190768303400e+00  -4.9645802076047485e-01  4.4989357112228207e-02  5.9284422443606988e-01  1.1411962021639128e+00  1.6841727776106450e+00  2.2153057562337928e+00  2.7267554596000156e+00  3.2082488924852659e+00  3.6456460233729007e+00  4.0193573095404345e+00  4.3037689396157210e+00  4.4706054534862538e+00  4.5022503647555538e+00  -3.5276527986301591e+00  -3.4948623125752580e+00  -3.3013472669953985e+00  -2.9809257277977270e+00  -2.5725677168379097e+00  -2.1059850206029815e+00  -1.6011676391538037e+00  -1.0711958832489850e+00  -5.2488159574640803e-01  3.1418120923545269e-02  5.9266364853773257e-01  1.1544050800793462e+00  1.7122420130871401e+00  2.2612895773962269e+00  2.7954633208351636e+00  3.3063302974898208e+00  3.7811644797996524e+00  4.1998888265318186e+00  4.5316053436364845e+00  4.7351308616288144e+00  4.7760965105713540e+00  -3.8007736998837309e+00  -3.7544553037797130e+00  -3.5111440727807759e+00  -3.1356375817461370e+00  -2.6812474883329016e+00  -2.1802442215699478e+00  -1.6507487121589621e+00  -1.1031448570255129e+00  -5.4387920279006241e-01  2.2556488698130536e-02  5.9261642997299380e-01  1.1631588007822276e+00  1.7310933927340511e+00  2.2930435692568194e+00  2.8448501608553474e+00  3.3806401838580138e+00  3.8908953186542075e+00  4.3583526579475969e+00  4.7502120518931372e+00  5.0095738103287069e+00  5.0682544179382267e+00  -4.0832654881559476e+00  -4.0027885840413697e+00  -3.6862406818570239e+00  -3.2486345920624191e+00  -2.7519771527437951e+00  -2.2241475048538528e+00  -1.6778260635106987e+00  -1.1194909239227424e+00  -5.5309768264032744e-01  1.8456866018865994e-02  5.9273490998254930e-01  1.1674908657048400e+00  1.7405248414047116e+00  2.3095511008452489e+00  2.8719869079551521e+00  3.4244867552150611e+00  3.9617619982871717e+00  4.4733288965711218e+00  4.9339727763945787e+00  5.2790373498650114e+00  5.3774724671942034e+00  -4.3739539978026380e+00  -4.1974548549963906e+00  -3.7897028677874216e+00  -3.3008632233570325e+00  -2.7784903158652532e+00  -2.2378128758288178e+00  -1.6848794349027076e+00  -1.1230346853629833e+00  -5.5473102350752224e-01  1.7920592155053382e-02  5.9295983800711072e-01  1.1685027371985173e+00  1.7427088319543393e+00  2.3137586124822400e+00  2.8798173576469770e+00  3.4389449564935797e+00  3.9888306337647763e+00  4.5258469134959647e+00  5.0410121214117911e+00  5.4992936566854764e+00  5.7005641832430944e+00  -4.5424187279745274e+00  -4.2486845105109170e+00  -3.7961502719218263e+00  -3.2978901965286491e+00  -2.7747271520725714e+00  -2.2348114199984823e+00  -1.6826967965560797e+00  -1.1215240276063059e+00  -5.5376983359963849e-01  1.8415317829245877e-02  5.9304672080240051e-01  1.1682298823433459e+00  1.7421244522424975e+00  2.3129220357351854e+00  2.8788182371309299e+00  3.4379529283076682e+00  3.9882593017647556e+00  4.5270270655567284e+00  5.0492407910365094e+00  5.5387862778905266e+00  5.9803121427816537e+00  </DataArray> 
</PointData> 
</Piece>
</UnstructuredGrid>
</VTKFile>