<?xml version="1.0"?>
<VTKFile type="UnstructuredGrid"  version="0.1"  >
<UnstructuredGrid>
<Piece  NumberOfPoints="651" NumberOfCells="1200">
<Points>
<DataArray  type="Float64"  NumberOfComponents="3"  format="ascii">0 0 0  50000 0 0  100000 0 0  150000 0 0  200000 0 0  250000 0 0  300000 0 0  350000 0 0  400000 0 0  450000 0 0  500000 0 0  550000 0 0  600000 0 0  650000 0 0  700000 0 0  750000 0 0  800000 0 0  850000 0 0  900000 0 0  950000 0 0  1000000 0 0  0 50000 0  50000 50000 0  100000 50000 0  150000 50000 0  200000 50000 0  250000 50000 0  300000 50000 0  350000 50000 0  400000 50000 0  450000 50000 0  500000 50000 0  550000 50000 0  600000 50000 0  650000 50000 0  700000 50000 0  750000 50000 0  800000 50000 0  850000 50000 0  900000 50000 0  950000 50000 0  1000000 50000 0  0 100000 0  50000 100000 0  100000 100000 0  150000 100000 0  200000 100000 0  250000 100000 0  300000 100000 0  350000 100000 0  400000 100000 0  450000 100000 0  500000 100000 0  550000 100000 0  600000 100000 0  650000 100000 0  700000 100000 0  750000 100000 0  800000 100000 0  850000 100000 0  900000 100000 0  950000 100000 0  1000000 100000 0  0 150000 0  50000 150000 0  100000 150000 0  150000 150000 0  200000 150000 0  250000 150000 0  300000 150000 0  350000 150000 0  400000 150000 0  450000 150000 0  500000 150000 0  550000 150000 0  600000 150000 0  650000 150000 0  700000 150000 0  750000 150000 0  800000 150000 0  850000 150000 0  900000 150000 0  950000 150000 0  1000000 150000 0  0 200000 0  50000 200000 0  100000 200000 0  150000 200000 0  200000 200000 0  250000 200000 0  300000 200000 0  350000 200000 0  400000 200000 0  450000 200000 0  500000 200000 0  550000 200000 0  600000 200000 0  650000 200000 0  700000 200000 0  750000 200000 0  800000 200000 0  850000 200000 0  900000 200000 0  950000 200000 0  1000000 200000 0  0 250000 0  50000 250000 0  100000 250000 0  150000 250000 0  200000 250000 0  250000 250000 0  300000 250000 0  350000 250000 0  400000 250000 0  450000 250000 0  500000 250000 0  550000 250000 0  600000 250000 0  650000 250000 0  700000 250000 0  750000 250000 0  800000 250000 0  850000 250000 0  900000 250000 0  950000 250000 0  1000000 250000 0  0 300000 0  50000 300000 0  100000 300000 0  150000 300000 0  200000 300000 0  250000 300000 0  300000 300000 0  350000 300000 0  400000 300000 0  450000 300000 0  500000 300000 0  550000 300000 0  600000 300000 0  650000 300000 0  700000 300000 0  750000 300000 0  800000 300000 0  850000 300000 0  900000 300000 0  950000 300000 0  1000000 300000 0  0 350000 0  50000 350000 0  100000 350000 0  150000 350000 0  200000 350000 0  250000 350000 0  300000 350000 0  350000 350000 0  400000 350000 0  450000 350000 0  500000 350000 0  550000 350000 0  600000 350000 0  650000 350000 0  700000 350000 0  750000 350000 0  800000 350000 0  850000 350000 0  900000 350000 0  950000 350000 0  1000000 350000 0  0 400000 0  50000 400000 0  100000 400000 0  150000 400000 0  200000 400000 0  250000 400000 0  300000 400000 0  350000 400000 0  400000 400000 0  450000 400000 0  500000 400000 0  550000 400000 0  600000 400000 0  650000 400000 0  700000 400000 0  750000 400000 0  800000 400000 0  850000 400000 0  900000 400000 0  950000 400000 0  1000000 400000 0  0 450000 0  50000 450000 0  100000 450000 0  150000 450000 0  200000 450000 0  250000 450000 0  300000 450000 0  350000 450000 0  400000 450000 0  450000 450000 0  500000 450000 0  550000 450000 0  600000 450000 0  650000 450000 0  700000 450000 0  750000 450000 0  800000 450000 0  850000 450000 0  900000 450000 0  950000 450000 0  1000000 450000 0  0 500000 0  50000 500000 0  100000 500000 0  150000 500000 0  200000 500000 0  250000 500000 0  300000 500000 0  350000 500000 0  400000 500000 0  450000 500000 0  500000 500000 0  550000 500000 0  600000 500000 0  650000 500000 0  700000 500000 0  750000 500000 0  800000 500000 0  850000 500000 0  900000 500000 0  950000 500000 0  1000000 500000 0  0 550000 0  50000 550000 0  100000 550000 0  150000 550000 0  200000 550000 0  250000 550000 0  300000 550000 0  350000 550000 0  400000 550000 0  450000 550000 0  500000 550000 0  550000 550000 0  600000 550000 0  650000 550000 0  700000 550000 0  750000 550000 0  800000 550000 0  850000 550000 0  900000 550000 0  950000 550000 0  1000000 550000 0  0 600000 0  50000 600000 0  100000 600000 0  150000 600000 0  200000 600000 0  250000 600000 0  300000 600000 0  350000 600000 0  400000 600000 0  450000 600000 0  500000 600000 0  550000 600000 0  600000 600000 0  650000 600000 0  700000 600000 0  750000 600000 0  800000 600000 0  850000 600000 0  900000 600000 0  950000 600000 0  1000000 600000 0  0 650000 0  50000 650000 0  100000 650000 0  150000 650000 0  200000 650000 0  250000 650000 0  300000 650000 0  350000 650000 0  400000 650000 0  450000 650000 0  500000 650000 0  550000 650000 0  600000 650000 0  650000 650000 0  700000 650000 0  750000 650000 0  800000 650000 0  850000 650000 0  900000 650000 0  950000 650000 0  1000000 650000 0  0 700000 0  50000 700000 0  100000 700000 0  150000 700000 0  200000 700000 0  250000 700000 0  300000 700000 0  350000 700000 0  400000 700000 0  450000 700000 0  500000 700000 0  550000 700000 0  600000 700000 0  650000 700000 0  700000 700000 0  750000 700000 0  800000 700000 0  850000 700000 0  900000 700000 0  950000 700000 0  1000000 700000 0  0 750000 0  50000 750000 0  100000 750000 0  150000 750000 0  200000 750000 0  250000 750000 0  300000 750000 0  350000 750000 0  400000 750000 0  450000 750000 0  500000 750000 0  550000 750000 0  600000 750000 0  650000 750000 0  700000 750000 0  750000 750000 0  800000 750000 0  850000 750000 0  900000 750000 0  950000 750000 0  1000000 750000 0  0 800000 0  50000 800000 0  100000 800000 0  150000 800000 0  200000 800000 0  250000 800000 0  300000 800000 0  350000 800000 0  400000 800000 0  450000 800000 0  500000 800000 0  550000 800000 0  600000 800000 0  650000 800000 0  700000 800000 0  750000 800000 0  800000 800000 0  850000 800000 0  900000 800000 0  950000 800000 0  1000000 800000 0  0 850000 0  50000 850000 0  100000 850000 0  150000 850000 0  200000 850000 0  250000 850000 0  300000 850000 0  350000 850000 0  400000 850000 0  450000 850000 0  500000 850000 0  550000 850000 0  600000 850000 0  650000 850000 0  700000 850000 0  750000 850000 0  800000 850000 0  850000 850000 0  900000 850000 0  950000 850000 0  1000000 850000 0  0 900000 0  50000 900000 0  100000 900000 0  150000 900000 0  200000 900000 0  250000 900000 0  300000 900000 0  350000 900000 0  400000 900000 0  450000 900000 0  500000 900000 0  550000 900000 0  600000 900000 0  650000 900000 0  700000 900000 0  750000 900000 0  800000 900000 0  850000 900000 0  900000 900000 0  950000 900000 0  1000000 900000 0  0 950000 0  50000 950000 0  100000 950000 0  150000 950000 0  200000 950000 0  250000 950000 0  300000 950000 0  350000 950000 0  400000 950000 0  450000 950000 0  500000 950000 0  550000 950000 0  600000 950000 0  650000 950000 0  700000 950000 0  750000 950000 0  800000 950000 0  850000 950000 0  900000 950000 0  950000 950000 0  1000000 950000 0  0 1000000 0  50000 1000000 0  100000 1000000 0  150000 1000000 0  200000 1000000 0  250000 1000000 0  300000 1000000 0  350000 1000000 0  400000 1000000 0  450000 1000000 0  500000 1000000 0  550000 1000000 0  600000 1000000 0  650000 1000000 0  700000 1000000 0  750000 1000000 0  800000 1000000 0  850000 1000000 0  900000 1000000 0  950000 1000000 0  1000000 1000000 0  0 1050000 0  50000 1050000 0  100000 1050000 0  150000 1050000 0  200000 1050000 0  250000 1050000 0  300000 1050000 0  350000 1050000 0  400000 1050000 0  450000 1050000 0  500000 1050000 0  550000 1050000 0  600000 1050000 0  650000 1050000 0  700000 1050000 0  750000 1050000 0  800000 1050000 0  850000 1050000 0  900000 1050000 0  950000 1050000 0  1000000 1050000 0  0 1100000 0  50000 1100000 0  100000 1100000 0  150000 1100000 0  200000 1100000 0  250000 1100000 0  300000 1100000 0  350000 1100000 0  400000 1100000 0  450000 1100000 0  500000 1100000 0  550000 1100000 0  600000 1100000 0  650000 1100000 0  700000 1100000 0  750000 1100000 0  800000 1100000 0  850000 1100000 0  900000 1100000 0  950000 1100000 0  1000000 1100000 0  0 1150000 0  50000 1150000 0  100000 1150000 0  150000 1150000 0  200000 1150000 0  250000 1150000 0  300000 1150000 0  350000 1150000 0  400000 1150000 0  450000 1150000 0  500000 1150000 0  550000 1150000 0  600000 1150000 0  650000 1150000 0  700000 1150000 0  750000 1150000 0  800000 1150000 0  850000 1150000 0  900000 1150000 0  950000 1150000 0  1000000 1150000 0  0 1200000 0  50000 1200000 0  100000 1200000 0  150000 1200000 0  200000 1200000 0  250000 1200000 0  300000 1200000 0  350000 1200000 0  400000 1200000 0  450000 1200000 0  500000 1200000 0  550000 1200000 0  600000 1200000 0  650000 1200000 0  700000 1200000 0  750000 1200000 0  800000 1200000 0  850000 1200000 0  900000 1200000 0  950000 1200000 0  1000000 1200000 0  0 1250000 0  50000 1250000 0  100000 1250000 0  150000 1250000 0  200000 1250000 0  250000 1250000 0  300000 1250000 0  350000 1250000 0  400000 1250000 0  450000 1250000 0  500000 1250000 0  550000 1250000 0  600000 1250000 0  650000 1250000 0  700000 1250000 0  750000 1250000 0  800000 1250000 0  850000 1250000 0  900000 1250000 0  950000 1250000 0  1000000 1250000 0  0 1300000 0  50000 1300000 0  100000 1300000 0  150000 1300000 0  200000 1300000 0  250000 1300000 0  300000 1300000 0  350000 1300000 0  400000 1300000 0  450000 1300000 0  500000 1300000 0  550000 1300000 0  600000 1300000 0  650000 1300000 0  700000 1300000 0  750000 1300000 0  800000 1300000 0  850000 1300000 0  900000 1300000 0  950000 1300000 0  1000000 1300000 0  0 1350000 0  50000 1350000 0  100000 1350000 0  150000 1350000 0  200000 1350000 0  250000 1350000 0  300000 1350000 0  350000 1350000 0  400000 1350000 0  450000 1350000 0  500000 1350000 0  550000 1350000 0  600000 1350000 0  650000 1350000 0  700000 135
[...]
<PointData  Scalars="f_1519"> 
<DataArray  type="Float64"  Name="f_1519"  format="ascii">-5.5446052888515185e+00  -5.0375568457671056e+00  -4.4752119305082312e+00  -3.8752800247914045e+00  -3.2562982700554199e+00  -2.6240373305579134e+00  -1.9816164463998762e+00  -1.3314142074037327e+00  -6.7557110908336993e-01  -1.6163324744048125e-02  6.4472848874295152e-01  1.3049869637976224e+00  1.9624324362036552e+00  2.6147813625461525e+00  3.2595592306952241e+00  3.8939154901595820e+00  4.5142337972619844e+00  5.1152672584658694e+00  5.6876202802585611e+00  6.2073143623896749e+00  6.5444968648958763e+00  -5.2233326971208927e+00  -4.9923054250209384e+00  -4.4658200051722678e+00  -3.8739516236980256e+00  -3.2569620440483700e+00  -2.6251731291993430e+00  -1.9827540368859728e+00  -1.3323615142157188e+00  -6.7622676759436129e-01  -1.6460089316307755e-02  6.4484560918608114e-01  1.3055732812212504e+00  1.9635558135029023e+00  2.6165382825889512e+00  3.2620925226313413e+00  3.8973976829286343e+00  4.5186066425770104e+00  5.1187623653788625e+00  5.6803496647358633e+00  6.1486864772036949e+00  6.3511583167107091e+00  -4.8523161048424868e+00  -4.7394046644598946e+00  -4.3430081966005245e+00  -3.8137491384815192e+00  -3.2259639288078703e+00  -2.6086338120469725e+00  -1.9738056411700531e+00  -1.3275561526296917e+00  -6.7372983154529853e-01  -1.5295224856066287e-02  6.4512004006034829e-01  1.3049867842696763e+00  1.9617232516947305e+00  2.6125268085802587e+00  3.2540674402433196e+00  3.8817983355179133e+00  4.4882731922183350e+00  5.0589152761926055e+00  5.5616735111790474e+00  5.9252613001797449e+00  6.0174719280908855e+00  -4.4972337235916431e+00  -4.4299704373376549e+00  -4.1320464945100612e+00  -3.6818119786132502e+00  -3.1446837800038345e+00  -2.5583698938490125e+00  -1.9427118741398410e+00  -1.3086478917906115e+00  -6.6292653324078032e-01  -1.0327180701955742e-02  6.4526972427684126e-01  1.3003126717046611e+00  1.9511907322172108e+00  2.5938287134232700e+00  3.2230642623827244e+00  3.8314882561851187e+00  4.4071655392894327e+00  4.9292662002866550e+00  5.3606926220945921e+00  5.6401571850300227e+00  5.6931886344380978e+00  -4.1617411866725948e+00  -4.1148094564716882e+00  -3.8810360833456179e+00  -3.4999023067608532e+00  -3.0187548517339322e+00  -2.4731170989128057e+00  -1.8860686120832166e+00  -1.2722362324562000e+00  -6.4131132708180283e-01  -2.8590749852898384e-04  6.4522657294202101e-01  1.2901692980257498e+00  1.9294284377462110e+00  2.5572123105128433e+00  3.1662148646103141e+00  3.7463082953392526e+00  4.2824577364159664e+00  4.7516842523032103e+00  5.1198312030734030e+00  5.3420988796853264e+00  5.3796315170681748e+00  -3.8472727015199109e+00  -3.8110331377614894e+00  -3.6194075356226705e+00  -3.2926230408416366e+00  -2.8631866088875912e+00  -2.3605474514209597e+00  -1.8072265526923139e+00  -1.2194778205928449e+00  -6.0910862129140042e-01  1.4871189710531814e-02  6.4502828243426324e-01  1.2746139640047818e+00  1.8968359252843805e+00  2.5041333985499841e+00  3.0873054378629590e+00  3.6343608954898503e+00  4.1290476349457084e+00  4.5493330730859682e+00  4.8669469172697930e+00  5.0508512662989196e+00  5.0807718311868584e+00  -3.5558617402378756e+00  -3.5260759281308065e+00  -3.3633271920470911e+00  -3.0782268780611202e+00  -2.6931079143818106e+00  -2.2312781028361384e+00  -1.7129406751925713e+00  -1.1543673929120470e+00  -5.6847019878758820e-01  3.4243504176018701e-02  6.4474865935857351e-01  1.2547056892520771e+00  1.8557497477518761e+00  2.4387893696353040e+00  2.9932442156223922e+00  3.5061992959719124e+00  3.9615785050440149e+00  4.3397135216304887e+00  4.6181789892862950e+00  4.7755075422971132e+00  4.8008807859966760e+00  -3.2896675324290818e+00  -3.2641762499605576e+00  -3.1220832829753196e+00  -2.8690162686075507e+00  -2.5207060939677901e+00  -2.0954564152129733e+00  -1.6107620114384804e+00  -1.0820391486800298e+00  -5.2250665479584957e-01  5.6403274322515282e-02  6.4445744864402366e-01  1.2320100172452142e+00  1.8094066366943171e+00  2.3663988877772462e+00  2.8915655466798631e+00  3.3717835843078769e+00  3.7918933480833030e+00  4.1348716376135144e+00  4.3830530856510315e+00  4.5212293672688881e+00  4.5435224405750159e+00  -3.0506599432431161e+00  -3.0282168408996251e+00  -2.9014149703243457e+00  -2.6731866487539926e+00  -2.3550260346806997e+00  -1.9614900503721637e+00  -1.5076024046775445e+00  -1.0076022349288309e+00  -4.7452013693111572e-01  7.9761476368818959e-02  6.4420398148154390e-01  1.2082069148516708e+00  1.7611732223987002e+00  2.2920828166136902e+00  2.7891116020031981e+00  3.2393650802766247e+00  3.6288575774281919e+00  3.9429500769668939e+00  4.1675424861023904e+00  4.2914608963937777e+00  4.3115187930760266e+00  -2.8405079733504279e+00  -2.8203180569921678e+00  -2.7050938795664599e+00  -2.4962555620773625e+00  -2.2025622882972260e+00  -1.8358712962123782e+00  -1.4091770150173049e+00  -9.3553329755999493e-01  -4.2753615473009465e-01  1.0281379823242334e-01  6.4401534856812570e-01  1.1848465941577759e+00  1.7140957156192882e+00  2.2202974464715850e+00  2.6915289576651782e+00  3.1153357959520176e+00  3.4788874555039140e+00  3.7694909679601398e+00  3.9756144408803356e+00  4.0886956629871571e+00  4.1070763318004957e+00  -2.6605604479254197e+00  -2.6420731698325839e+00  -2.5356971960708452e+00  -2.3419823180933208e+00  -2.0679046566022752e+00  -1.7234137706561281e+00  -1.3199302049834243e+00  -8.6946129581303233e-01  -3.8408869002986151e-01  1.2426893994365859e-01  6.4390087052106360e-01  1.1632327535258400e+00  1.6707028291943251e+00  2.1546416111674831e+00  2.6032095848307137e+00  3.0044534986147471e+00  3.3465499224801034e+00  3.6183076038908042e+00  3.8100070538371944e+00  3.9147923644510119e+00  3.9319033903965210e+00  -2.5118647203439464e+00  -2.4946704716553421e+00  -2.3950148827881441e+00  -2.2129415218564041e+00  -1.9542579394966659e+00  -1.6275857962399436e+00  -1.2431726457105530e+00  -8.1217189924441757e-01  -3.4617061137513533e-01  1.4309166332703663e-01  6.4385784461247875e-01  1.1443915458644824e+00  1.6329686418765514e+00  2.0978707461296429e+00  2.5274282669899630e+00  2.9101604125737195e+00  3.2350568442613019e+00  3.4920387469116014e+00  3.6726445191942472e+00  3.7711385570584919e+00  3.7873022595743766e+00  -2.3952002022043382e+00  -2.3789738026479528e+00  -2.2842847158080923e+00  -2.1108855081556439e+00  -1.8638245896748575e+00  -1.5508204331214124e+00  -1.1812815656186844e+00  -7.6570940930989895e-01  -3.1527127194208993e-01  1.5849613142541660e-01  6.4387638220735899e-01  1.1290875045732716e+00  1.6023577298902159e+00  2.0520022050373457e+00  2.4665393651585501e+00  2.8348823538894092e+00  3.1466337601631347e+00  3.3925030651477206e+00  3.5648790703940270e+00  3.6587549183839139e+00  3.6742432104880440e+00  -2.3111153474617590e+00  -2.2955830262081087e+00  -2.2043392470364762e+00  -2.0369785817386190e+00  -1.7980759879157042e+00  -1.4947659571363454e+00  -1.1358943469290328e+00  -7.3150461436335967e-01  -2.9244775444031906e-01  1.6991691139715345e-01  6.4394278458447018e-01  1.1178586614057626e+00  1.5799005297752073e+00  2.0184437758842004e+00  2.4221667239360571e+00  2.7802719589649505e+00  3.0827835296156740e+00  3.3209302268517416e+00  3.4876433982443511e+00  3.5783704059146753e+00  3.5934252087716225e+00  -2.2599613989920773e+00  -2.2448803649924307e+00  -2.1557016963006270e+00  -1.9919496461542781e+00  -1.7579388140688934e+00  -1.4604719566027888e+00  -1.1080669092417224e+00  -7.1049170884248947e-01  -2.7839833387231089e-01  1.7697517807349669e-01  6.4404160108131980e-01  1.1110539012921001e+00  1.5662687381606062e+00  1.9981101081497248e+00  2.3953589854636230e+00  2.7473900902266037e+00  3.0444685426893288e+00  3.2781126374173808e+00  3.4415509100247514e+00  3.5304784006011247e+00  3.5453246666102922e+00  -2.2419184992864860e+00  -2.2270635081071823e+00  -2.1386472965893053e+00  -1.9761885081884374e+00  -1.7439160441595432e+00  -1.4485159411882276e+00  -1.0983876495891647e+00  -7.0319753683117980e-01  -2.7352182854705553e-01  1.7944998017025030e-01  6.4415671766082694e-01  1.1088634551513905e+00  1.5618352638686959e+00  1.9915109721528124e+00  2.3867010849107952e+00  2.7368293765098635e+00  3.0322294794811739e+00  3.2645019435100808e+00  3.4269607319109507e+00  3.5153769434288287e+00  3.5302319346081381e+00  -2.2570112312886419e+00  -2.2421649652794762e+00  -2.1532374747031073e+00  -1.9897992020957478e+00  -1.7561551073676962e+00  -1.4590766549049770e+00  -1.1070455501419967e+00  -7.0979667282809600e-01  -2.7795530283897346e-01  1.7725953402954336e-01  6.4427183424033874e-01  1.1113382572481574e+00  1.5667117691939583e+00  1.9988051441641210e+00  2.3963803445633536e+00  2.7487853919244243e+00  3.0462522493905384e+00  3.2802630814759262e+00  3.4440151316222947e+00  3.5331938003141090e+00  3.5482748343137538e+00  -2.3051117734499686e+00  -2.2900569705930303e+00  -2.1993299629227114e+00  -2.0326167915301028e+00  -1.7944700942940452e+00  -1.4919585236433388e+00  -1.1338532886144403e+00  -7.3013034056257387e-01  -2.9158709445356951e-01  1.7045477391589126e-01  6.4437065073719846e-01  1.1183965239245135e+00  1.5807611897619784e+00  2.0198180496850124e+00  2.4242077822506896e+00  2.7830793924580024e+00  3.0863894232373679e+00  3.3252920170602804e+00  3.4926526823581709e+00  3.5838964615298248e+00  3.5994287827834643e+00  -2.3859297751663724e+00  -2.3704414830622422e+00  -2.2765656350723615e+00  -2.1041896298260521e+00  -1.8583203248414848e+00  -1.5465689185677733e+00  -1.1782259298369111e+00  -7.6368876971570265e-01  -3.1404429456855687e-01  1.5922593074839766e-01  6.4443705311433208e-01  1.1298173038962751e+00  1.6035847072637737e+00  2.0540228446315654e+00  2.4695950009403571e+00  2.8391338684430916e+00  3.1521380249965567e+00  3.3991989434773431e+00  3.5725981511297924e+00  3.6672872379696462e+00  3.6835136375260316e+00  -2.4989888242526939e+00  -2.4828251217368136e+00  -2.3843310838725658e+00  -2.2037253115899311e+00  -1.9467434089396358e+00  -1.6218469772520618e+00  -1.2391148316682978e+00  -8.0955731080797388e-01  -3.4465520655486670e-01  1.4392188945721138e-01  6.4445559070923264e-01  1.1452217719946798e+00  1.6344840466968484e+00  2.1004853345661085e+00  2.5314860810322402e+00  2.9158992315616308e+00  3.2425713748183767e+00  3.5012549571781095e+00  3.6833283181098340e+00  3.7829839069770181e+00  3.8001781556656273e+00  -2.6435899550748103e+00  -2.6264789291293051e+00  -2.5216936185154890e+00  -2.3299941685691188e+00  -2.0582364871584060e+00  -1.7161400632930364e+00  -1.3148961495090064e+00  -8.6632817584577348e-01  -3.8238939387259807e-01  1.2508068179589107e-01  6.4441256480068176e-01  1.1640444953780895e+00  1.6724021253516113e+00  2.1577747311347744e+00  2.6082436403051692e+00  3.0117272059778681e+00  3.3562180919240010e+00  3.6302957534150311e+00  3.8240106313925479e+00  3.9303866051542689e+00  3.9488738832471015e+00  -2.8187628964787432e+00  -2.8003822276654211e+00  -2.6873010055585951e+00  -2.4811775326384105e+00  -2.1905740201821846e+00  -1.8270223606302747e+00  -1.4032155223434344e+00  -9.3198401114983409e-01  -4.2578228029752174e-01  1.0346684116400466e-01  6.4429808675366740e-01  1.1854996370893722e+00  1.7158495900518909e+00  2.2238467328817966e+00  2.6974904503391119e+00  3.1241847315341706e+00  3.4908757236189913e+00  3.7845689973990941e+00  3.9934073148881737e+00  4.1086314923138625e+00  4.1288214086721071e+00  -3.0232053577542652e+00  -3.0031474610720261e+00  -2.8792290507806282e+00  -2.6546366416451264e+00  -2.3405441421064261e+00  -1.9510516449548492e+00  -1.5007981666814154e+00  -1.0037693812918882e+00  -4.7285978707688137e-01  8.0106520470158787e-02  6.4410945384029727e-01  1.2085519589530300e+00  1.7628335722529664e+00  2.2959156702506829e+00  2.7959158399993895e+00  3.2498034856939850e+00  3.6433394700024908e+00  3.9615000840757539e+00  4.1897284056460746e+00  4.3165302762213429e+00  4.3389733785648366e+00  -3.2552090052532225e+00  -3.2329159319470846e+00  -3.0947396503292341e+00  -2.8465582022917255e+00  -2.5035799127614964e+00  -2.0834701489860556e+00  -1.6032521113580294e+00  -1.0780854524553980e+00  -5.2109320137245707e-01  5.6303418076658542e-02  6.4385598667786048e-01  1.2319101609993772e+00  1.8108200901177425e+00  2.3703525840019144e+00  2.8990754467603517e+00  3.3837698505348199e+00  3.8090195292896190e+00  4.1573297039293413e+00  4.4103967182970800e+00  4.5524896852823202e+00  4.5779809677508441e+00  -3.5125673506748551e+00  -3.4871941069752923e+00  -3.3298655539644955e+00  -3.0514000863086883e+00  -2.6732650697221807e+00  -2.2178858606500533e+00  -1.7049307803005092e+00  -1.1504759343134012e+00  -5.6743631242996284e-01  3.3607746069845588e-02  6.4356477596335826e-01  1.2540699311459167e+00  1.8567836341095214e+00  2.4426808282339620e+00  3.0012541105144743e+00  3.5195915381580107e+00  3.9814213497036750e+00  4.3665403133829672e+00  4.6516406273689066e+00  4.8143893634526105e+00  4.8441751755596831e+00  -3.7924583958650100e+00  -3.7625378309770787e+00  -3.5786334819479375e+00  -3.2610196377641150e+00  -2.8407341996238333e+00  -2.3460474601679673e+00  -1.7989920025410346e+00  -1.2158199632280275e+00  -6.0852248996242031e-01  1.3699471317180922e-02  6.4328515288771304e-01  1.2734422456114476e+00  1.8974220566133790e+00  2.5077912559148055e+00  3.0955399880142580e+00  3.6488608867428898e+00  4.1515000442095031e+00  4.5809364761635338e+00  4.9077209709445313e+00  5.0993465730833405e+00  5.1355861368417601e+00  -4.0913180817462864e+00  -4.0537854443634407e+00  -3.8315177677515035e+00  -3.4633708169813091e+00  -2.9941443010940501e+00  -2.4579948600173367e+00  -1.8779014292883582e+00  -1.2688988751908570e+00  -6.4111500242421904e-01  -1.8558627037558307e-03  6.4308686237998591e-01  1.2885993428205385e+00  1.9296247624038065e+00  2.5605496677781914e+00  3.1743820474052007e+00  3.7614305342347878e+00  4.3070682870558805e+00  4.7882157420827829e+00  5.1693495186675351e+00  5.4031228917935872e+00  5.4500546219944885e+00  -4.4048751991161756e+00  -4.3518437497080971e+00  -4.0723791867726629e+00  -3.6409527649647195e+00  -3.1188521039674932e+00  -2.5431748208631655e+00  -1.9347508270607399e+00  -1.3055152781012669e+00  -6.6287729689519892e-01  -1.1999236382646463e-02  6.4304371104518354e-01  1.2986406160239858e+00  1.9512399685628006e+00  2.5969613271126288e+00  3.2310253094618688e+00  3.8466833291710332e+00  4.4329972153258304e+00  4.9701254139352171e+00  5.4203599298320162e+00  5.7182838726595948e+00  5.7855471589135741e+00  -4.7291584927689359e+00  -4.6369478648577740e+00  -4.2733600758570978e+00  -3.7706018408706563e+00  -3.1999597568963960e+00  -2.5934849001959508e+00  -1.9657540049213278e+00  -1.3242133732582453e+00  -6.7340981637271680e-01  -1.6673348947652527e-02  6.4319339526168950e-01  1.3036086601781072e+00  1.9620432668673360e+00  2.6158695879517153e+00  3.2621190764920880e+00  3.8969472473690008e+00  4.5142773641298826e+00  5.1020625738035088e+00  5.6313216319224946e+00  6.0277180997818443e+00  6.1406295401644613e+00  -5.0628448813887728e+00  -4.8603730418817541e+00  -4.3920362294139528e+00  -3.8304489300569360e+00  -3.2302932072550647e+00  -2.6090842476066638e+00  -1.9737790873093437e+00  -1.3282248472669360e+00  -6.7524237818087918e-01  -1.7259845899220201e-02  6.4346782613595632e-01  1.3047735246383521e+00  1.9645402029164032e+00  2.6206749495377570e+00  3.2710674722080073e+00  3.9134865645213588e+00  4.5452754793703827e+00  5.1622650590200170e+00  5.7541334404942610e+00  6.2806188603429050e+00  6.5116461324428645e+00  -5.2561834295739347e+00  -4.9190009270677297e+00  -4.3993068449366319e+00  -3.8269538231439371e+00  -3.2259203619400307e+00  -2.6056020548376106e+00  -1.9712457953732245e+00  -1.3264679272241402e+00  -6.7411900088162935e-01  -1.6673528475587198e-02  6.4358494657908949e-01  1.3044767600660869e+00  1.9638845444054152e+00  2.6197276427257736e+00  3.2699298817219171e+00  3.9123507658799297e+00  4.5446117053774344e+00  5.1635934601134084e+00  5.7635253658302164e+00  6.3258702810890881e+00  6.8329187241734939e+00  </DataArray> 
</PointData> 
</Piece>
</UnstructuredGrid>
</VTKFile>