<?xml version="1.0"?>
<VTKFile type="UnstructuredGrid"  version="0.1"  >
<UnstructuredGrid>
<Piece  NumberOfPoints="651" NumberOfCells="1200">
<Points>
<DataArray  type="Float64"  NumberOfComponents="3"  format="ascii">0 0 0  50000 0 0  100000 0 0  150000 0 0  200000 0 0  250000 0 0  300000 0 0  350000 0 0  400000 0 0  450000 0 0  500000 0 0  550000 0 0  600000 0 0  650000 0 0  700000 0 0  750000 0 0  800000 0 0  850000 0 0  900000 0 0  950000 0 0  1000000 0 0  0 50000 0  50000 50000 0  100000 50000 0  150000 50000 0  200000 50000 0  250000 50000 0  300000 50000 0  350000 50000 0  400000 50000 0  450000 50000 0  500000 50000 0  550000 50000 0  600000 50000 0  650000 50000 0  700000 50000 0  750000 50000 0  800000 50000 0  850000 50000 0  900000 50000 0  950000 50000 0  1000000 50000 0  0 100000 0  50000 100000 0  100000 100000 0  150000 100000 0  200000 100000 0  250000 100000 0  300000 100000 0  350000 100000 0  400000 100000 0  450000 100000 0  500000 100000 0  550000 100000 0  600000 100000 0  650000 100000 0  700000 100000 0  750000 100000 0  800000 100000 0  850000 100000 0  900000 100000 0  950000 100000 0  1000000 100000 0  0 150000 0  50000 150000 0  100000 150000 0  150000 150000 0  200000 150000 0  250000 150000 0  300000 150000 0  350000 150000 0  400000 150000 0  450000 150000 0  500000 150000 0  550000 150000 0  600000 150000 0  650000 150000 0  700000 150000 0  750000 150000 0  800000 150000 0  850000 150000 0  900000 150000 0  950000 150000 0  1000000 150000 0  0 200000 0  50000 200000 0  100000 200000 0  150000 200000 0  200000 200000 0  250000 200000 0  300000 200000 0  350000 200000 0  400000 200000 0  450000 200000 0  500000 200000 0  550000 200000 0  600000 200000 0  650000 200000 0  700000 200000 0  750000 200000 0  800000 200000 0  850000 200000 0  900000 200000 0  950000 200000 0  1000000 200000 0  0 250000 0  50000 250000 0  100000 250000 0  150000 250000 0  200000 250000 0  250000 250000 0  300000 250000 0  350000 250000 0  400000 250000 0  450000 250000 0  500000 250000 0  550000 250000 0  600000 250000 0  650000 250000 0  700000 250000 0  750000 250000 0  800000 250000 0  850000 250000 0  900000 250000 0  950000 250000 0  1000000 250000 0  0 300000 0  50000 300000 0  100000 300000 0  150000 300000 0  200000 300000 0  250000 300000 0  300000 300000 0  350000 300000 0  400000 300000 0  450000 300000 0  500000 300000 0  550000 300000 0  600000 300000 0  650000 300000 0  700000 300000 0  750000 300000 0  800000 300000 0  850000 300000 0  900000 300000 0  950000 300000 0  1000000 300000 0  0 350000 0  50000 350000 0  100000 350000 0  150000 350000 0  200000 350000 0  250000 350000 0  300000 350000 0  350000 350000 0  400000 350000 0  450000 350000 0  500000 350000 0  550000 350000 0  600000 350000 0  650000 350000 0  700000 350000 0  750000 350000 0  800000 350000 0  850000 350000 0  900000 350000 0  950000 350000 0  1000000 350000 0  0 400000 0  50000 400000 0  100000 400000 0  150000 400000 0  200000 400000 0  250000 400000 0  300000 400000 0  350000 400000 0  400000 400000 0  450000 400000 0  500000 400000 0  550000 400000 0  600000 400000 0  650000 400000 0  700000 400000 0  750000 400000 0  800000 400000 0  850000 400000 0  900000 400000 0  950000 400000 0  1000000 400000 0  0 450000 0  50000 450000 0  100000 450000 0  150000 450000 0  200000 450000 0  250000 450000 0  300000 450000 0  350000 450000 0  400000 450000 0  450000 450000 0  500000 450000 0  550000 450000 0  600000 450000 0  650000 450000 0  700000 450000 0  750000 450000 0  800000 450000 0  850000 450000 0  900000 450000 0  950000 450000 0  1000000 450000 0  0 500000 0  50000 500000 0  100000 500000 0  150000 500000 0  200000 500000 0  250000 500000 0  300000 500000 0  350000 500000 0  400000 500000 0  450000 500000 0  500000 500000 0  550000 500000 0  600000 500000 0  650000 500000 0  700000 500000 0  750000 500000 0  800000 500000 0  850000 500000 0  900000 500000 0  950000 500000 0  1000000 500000 0  0 550000 0  50000 550000 0  100000 550000 0  150000 550000 0  200000 550000 0  250000 550000 0  300000 550000 0  350000 550000 0  400000 550000 0  450000 550000 0  500000 550000 0  550000 550000 0  600000 550000 0  650000 550000 0  700000 550000 0  750000 550000 0  800000 550000 0  850000 550000 0  900000 550000 0  950000 550000 0  1000000 550000 0  0 600000 0  50000 600000 0  100000 600000 0  150000 600000 0  200000 600000 0  250000 600000 0  300000 600000 0  350000 600000 0  400000 600000 0  450000 600000 0  500000 600000 0  550000 600000 0  600000 600000 0  650000 600000 0  700000 600000 0  750000 600000 0  800000 600000 0  850000 600000 0  900000 600000 0  950000 600000 0  1000000 600000 0  0 650000 0  50000 650000 0  100000 650000 0  150000 650000 0  200000 650000 0  250000 650000 0  300000 650000 0  350000 650000 0  400000 650000 0  450000 650000 0  500000 650000 0  550000 650000 0  600000 650000 0  650000 650000 0  700000 650000 0  750000 650000 0  800000 650000 0  850000 650000 0  900000 650000 0  950000 650000 0  1000000 650000 0  0 700000 0  50000 700000 0  100000 700000 0  150000 700000 0  200000 700000 0  250000 700000 0  300000 700000 0  350000 700000 0  400000 700000 0  450000 700000 0  500000 700000 0  550000 700000 0  600000 700000 0  650000 700000 0  700000 700000 0  750000 700000 0  800000 700000 0  850000 700000 0  900000 700000 0  950000 700000 0  1000000 700000 0  0 750000 0  50000 750000 0  100000 750000 0  150000 750000 0  200000 750000 0  250000 750000 0  300000 750000 0  350000 750000 0  400000 750000 0  450000 750000 0  500000 750000 0  550000 750000 0  600000 750000 0  650000 750000 0  700000 750000 0  750000 750000 0  800000 750000 0  850000 750000 0  900000 750000 0  950000 750000 0  1000000 750000 0  0 800000 0  50000 800000 0  100000 800000 0  150000 800000 0  200000 800000 0  250000 800000 0  300000 800000 0  350000 800000 0  400000 800000 0  450000 800000 0  500000 800000 0  550000 800000 0  600000 800000 0  650000 800000 0  700000 800000 0  750000 800000 0  800000 800000 0  850000 800000 0  900000 800000 0  950000 800000 0  1000000 800000 0  0 850000 0  50000 850000 0  100000 850000 0  150000 850000 0  200000 850000 0  250000 850000 0  300000 850000 0  350000 850000 0  400000 850000 0  450000 850000 0  500000 850000 0  550000 850000 0  600000 850000 0  650000 850000 0  700000 850000 0  750000 850000 0  800000 850000 0  850000 850000 0  900000 850000 0  950000 850000 0  1000000 850000 0  0 900000 0  50000 900000 0  100000 900000 0  150000 900000 0  200000 900000 0  250000 900000 0  300000 900000 0  350000 900000 0  400000 900000 0  450000 900000 0  500000 900000 0  550000 900000 0  600000 900000 0  650000 900000 0  700000 900000 0  750000 900000 0  800000 900000 0  850000 900000 0  900000 900000 0  950000 900000 0  1000000 900000 0  0 950000 0  50000 950000 0  100000 950000 0  150000 950000 0  200000 950000 0  250000 950000 0  300000 950000 0  350000 950000 0  400000 950000 0  450000 950000 0  500000 950000 0  550000 950000 0  600000 950000 0  650000 950000 0  700000 950000 0  750000 950000 0  800000 950000 0  850000 950000 0  900000 950000 0  950000 950000 0  1000000 950000 0  0 1000000 0  50000 1000000 0  100000 1000000 0  150000 1000000 0  200000 1000000 0  250000 1000000 0  300000 1000000 0  350000 1000000 0  400000 1000000 0  450000 1000000 0  500000 1000000 0  550000 1000000 0  600000 1000000 0  650000 1000000 0  700000 1000000 0  750000 1000000 0  800000 1000000 0  850000 1000000 0  900000 1000000 0  950000 1000000 0  1000000 1000000 0  0 1050000 0  50000 1050000 0  100000 1050000 0  150000 1050000 0  200000 1050000 0  250000 1050000 0  300000 1050000 0  350000 1050000 0  400000 1050000 0  450000 1050000 0  500000 1050000 0  550000 1050000 0  600000 1050000 0  650000 1050000 0  700000 1050000 0  750000 1050000 0  800000 1050000 0  850000 1050000 0  900000 1050000 0  950000 1050000 0  1000000 1050000 0  0 1100000 0  50000 1100000 0  100000 1100000 0  150000 1100000 0  200000 1100000 0  250000 1100000 0  300000 1100000 0  350000 1100000 0  400000 1100000 0  450000 1100000 0  500000 1100000 0  550000 1100000 0  600000 1100000 0  650000 1100000 0  700000 1100000 0  750000 1100000 0  800000 1100000 0  850000 1100000 0  900000 1100000 0  950000 1100000 0  1000000 1100000 0  0 1150000 0  50000 1150000 0  100000 1150000 0  150000 1150000 0  200000 1150000 0  250000 1150000 0  300000 1150000 0  350000 1150000 0  400000 1150000 0  450000 1150000 0  500000 1150000 0  550000 1150000 0  600000 1150000 0  650000 1150000 0  700000 1150000 0  750000 1150000 0  800000 1150000 0  850000 1150000 0  900000 1150000 0  950000 1150000 0  1000000 1150000 0  0 1200000 0  50000 1200000 0  100000 1200000 0  150000 1200000 0  200000 1200000 0  250000 1200000 0  300000 1200000 0  350000 1200000 0  400000 1200000 0  450000 1200000 0  500000 1200000 0  550000 1200000 0  600000 1200000 0  650000 1200000 0  700000 1200000 0  750000 1200000 0  800000 1200000 0  850000 1200000 0  900000 1200000 0  950000 1200000 0  1000000 1200000 0  0 1250000 0  50000 1250000 0  100000 1250000 0  150000 1250000 0  200000 1250000 0  250000 1250000 0  300000 1250000 0  350000 1250000 0  400000 1250000 0  450000 1250000 0  500000 1250000 0  550000 1250000 0  600000 1250000 0  650000 1250000 0  700000 1250000 0  750000 1250000 0  800000 1250000 0  850000 1250000 0  900000 1250000 0  950000 1250000 0  1000000 1250000 0  0 1300000 0  50000 1300000 0  100000 1300000 0  150000 1300000 0  200000 1300000 0  250000 1300000 0  300000 1300000 0  350000 1300000 0  400000 1300000 0  450000 1300000 0  500000 1300000 0  550000 1300000 0  600000 1300000 0  650000 1300000 0  700000 1300000 0  750000 1300000 0  800000 1300000 0  850000 1300000 0  900000 1300000 0  950000 1300000 0  1000000 1300000 0  0 1350000 0  50000 1350000 0  100000 1350000 0  150000 1350000 0  200000 1350000 0  250000 1350000 0  300000 1350000 0  350000 1350000 0  400000 1350000 0  450000 1350000 0  500000 1350000 0  550000 1350000 0  600000 1350000 0  650000 1350000 0  700000 135
[...]
<PointData  Scalars="f_1519"> 
<DataArray  type="Float64"  Name="f_1519"  format="ascii">-1.6724540653004369e+00  -1.4767332935182569e+00  -1.2602785200679740e+00  -1.0296026421919608e+00  -7.9172974844153610e-01  -5.4884066795610087e-01  -3.0211019399097122e-01  -5.2434239097982532e-02  1.9937997031318599e-01  4.5254857425559170e-01  7.0628537330793040e-01  9.5978981637814520e-01  1.2122373860943976e+00  1.4627639072240832e+00  1.7104328836833556e+00  1.9541667926899113e+00  2.1926040906394211e+00  2.4237845805545986e+00  2.6442224259902463e+00  2.8449253963070640e+00  2.9757430913516107e+00  -1.5480548369595284e+00  -1.4584978080679831e+00  -1.2560943277001386e+00  -1.0286735825597730e+00  -7.9165961627160830e-01  -5.4900765114940164e-01  -3.0231279768025460e-01  -5.2587370055202462e-02  1.9932111984021861e-01  4.5261222341565982e-01  7.0649241794995221e-01  9.6015896460662420e-01  1.2127898186253501e+00  1.4635290650216000e+00  1.7114542261581012e+00  1.9554927152751491e+00  2.1941812517666843e+00  2.4248751113618279e+00  2.6409172410779083e+00  2.8214815793531187e+00  2.9005911484520674e+00  -1.4043194757322115e+00  -1.3603193232870834e+00  -1.2078826274484722e+00  -1.0046684544795232e+00  -7.7903494046619270e-01  -5.4207277452912195e-01  -2.9840393770620582e-01  -5.0361351107382303e-02  2.0058110069225232e-01  4.5328790181636203e-01  7.0675573923894630e-01  9.6001971212056414e-01  1.2120947971267635e+00  1.4619108288732618e+00  1.7081947192251823e+00  1.9492065941096179e+00  2.1820974583116617e+00  2.4012964398714272e+00  2.5945682274921711e+00  2.7347058705830545e+00  2.7711765949243317e+00  -1.2667465101282962e+00  -1.2404150616838070e+00  -1.1258107732243499e+00  -9.5299534643829376e-01  -7.4693113570139658e-01  -5.2201507910081779e-01  -2.8584070729826266e-01  -4.2602079470788604e-02  2.0511131902542770e-01  4.5546614986814793e-01  7.0697503987904675e-01  9.5827755003053672e-01  1.2079907384743147e+00  1.4545535792666671e+00  1.6959882588959283e+00  1.9294568833884056e+00  2.1503916559847451e+00  2.3508293880401525e+00  2.5166013483715148e+00  2.6243067401448008e+00  2.6454260357340686e+00  -1.1367600441941910e+00  -1.1183438815236157e+00  -1.0284103822477000e+00  -8.8215876595253095e-01  -6.9766058233215433e-01  -4.8846991944747586e-01  -2.6340522501601848e-01  -2.8065033234073153e-02  2.1383641481259827e-01  4.5961772232413994e-01  7.0712591857406748e-01  9.5442180877260963e-01  1.1995447468495375e+00  1.4402747584947848e+00  1.6738125508717834e+00  1.8962802638515623e+00  2.1019262795915936e+00  2.2819684107754736e+00  2.4233628849048876e+00  2.5090016036711940e+00  2.5239580558268893e+00  -1.0149259162544948e+00  -1.0006987343993154e+00  -9.2699532431041332e-01  -8.0164356621873600e-01  -6.3705222947421170e-01  -4.4445362438480168e-01  -2.3244539590355229e-01  -7.2413294464062812e-03  2.2663883575630869e-01  4.6574303795097555e-01  7.0722182040875980e-01  9.4848780253649823e-01  1.1869372353046452e+00  1.4196728443255915e+00  1.6431708469932351e+00  1.8528422843086618e+00  2.0424728725508392e+00  2.2036454508163628e+00  2.3255673189580737e+00  2.3963848678715296e+00  2.4082746902193612e+00  -9.0203377599705692e-01  -8.9034870515149700e-01  -8.2778058005864685e-01  -7.1846869261725699e-01  -5.7093837356134047e-01  -3.9407586823886004e-01  -1.9558940837218092e-01  1.8305471855011812e-02  2.4267081390620560e-01  4.7348438963096368e-01  7.0728923278590372e-01  9.4089005331988984e-01  1.1710820533805646e+00  1.3943832365039546e+00  1.6067436727692290e+00  1.8032233765825372e+00  1.9776783044583370e+00  2.1225978577776261e+00  2.2294241623093094e+00  2.2899590544032074e+00  2.3000005997352315e+00  -7.9891646439733999e-01  -7.8893009406125758e-01  -7.3433761987418411e-01  -6.3736140774590611e-01  -5.0400585543297738e-01  -3.4124595827367460e-01  -1.5575299310647800e-01  4.6587981993906673e-02  2.6072527810433255e-01  4.8228597289441399e-01  7.0735323400707140e-01  9.3223381800412808e-01  1.1532312117712047e+00  1.3664225710455014e+00  1.5674384211153007e+00  1.7512617086620672e+00  1.9121014495104389e+00  2.0434603365913788e+00  2.1386004257644209e+00  2.1917150980489204e+00  2.2004984348354344e+00  -7.0633105019382070e-01  -6.9755432839359799e-01  -6.4887300421948413e-01  -5.6146925165772144e-01  -4.3972885884361645e-01  -2.8919587699142063e-01  -1.1559622706907779e-01  7.5637342830463264e-02  2.7952801473267935e-01  4.9153354092346302e-01  7.0743157061615125e-01  9.2316597023552505e-01  1.1346817519768342e+00  1.3377630764836319e+00  1.5278886993567848e+00  1.7001313825530882e+00  1.8491512848527505e+00  1.9693641610705594e+00  2.0553953256556112e+00  2.1029803544141537e+00  2.1108487404526870e+00  -6.2491731096718106e-01  -6.1703711533577288e-01  -5.7283593971102154e-01  -4.9291007257859581e-01  -3.8059977912724735e-01  -2.4041796422007761e-01  -7.7314461885706801e-02  1.0373267991440456e-01  2.9791507127714800e-01  5.0064776595347726e-01  7.0753397587986500e-01  9.1428225995419543e-01  1.1166047994983006e+00  1.3101177815950193e+00  1.4902645019000469e+00  1.6522882164615047e+00  1.7912926796871407e+00  1.9024389022774346e+00  1.9813343888025865e+00  2.0247135493061950e+00  2.0318954106411762e+00  -5.5519113361947203e-01  -5.4798992322697426e-01  -5.0721562251512431e-01  -4.3312577990348861e-01  -3.2837859920694540e-01  -1.9675822739495991e-01  -4.2612652924617848e-02  1.2948124912653339e-01  3.1491349380255357e-01  5.0913256145400965e-01  7.0766376765429950e-01  9.0608312479155506e-01  1.0999712048806014e+00  1.2848682873403598e+00  1.4562516558022403e+00  1.6095581779062262e+00  1.7402782744976417e+00  1.8441481408851415e+00  1.9174686179373714e+00  1.9576270388068135e+00  1.9642900171330626e+00  -4.9755228208094415e-01  -4.9086774045292192e-01  -4.5269816136488983e-01  -3.8310300766501626e-01  -2.8429321301926008e-01  -1.5954556151759841e-01  -1.2759516369695823e-02  1.5181526186618824e-01  3.2975919567776685e-01  5.1659092612987501e-01  7.0781991186983373e-01  8.9896215504778854e-01  1.0855381107804971e+00  1.2630713042782333e+00  1.4271058527559650e+00  1.5732609474275663e+00  1.6973392373272880e+00  1.7955031271286352e+00  1.8645348411076612e+00  1.9022506457517501e+00  1.9085274344861869e+00  -4.5229773489669978e-01  -4.4600065689571905e-01  -4.0975734492349097e-01  -3.4351264902086703e-01  -2.4918679460431153e-01  -1.2971143842651214e-01  1.1334759077964494e-02  1.6995189497808194e-01  3.4188180336930024e-01  5.2272193624605856e-01  7.0799876216812074e-01  8.9321242571279269e-01  1.0738667824221595e+00  1.2454997845089435e+00  1.4037289707214269e+00  1.5443255186559659e+00  1.6633275259821043e+00  1.7571995490910175e+00  1.8230494040031262e+00  1.8589725311681167e+00  1.8649748024538897e+00  -4.1963626259544012e-01  -4.1361758283311301e-01  -3.7871150393090180e-01  -3.1480010749133697e-01  -2.2362224608494657e-01  -1.0788644158512935e-01  2.9043730026423006e-02  1.8334372075319549e-01  3.5087688335945139e-01  5.2730933790876078e-01  7.0819527622742995e-01  8.8904010420678337e-01  1.0653518436011498e+00  1.2326926868472416e+00  1.3867424658019849e+00  1.5233840708131536e+00  1.6388176035444610e+00  1.7297068004395282e+00  1.7933673270855195e+00  1.8280687203831893e+00  1.8338953704234457e+00  -3.9970168545143436e-01  -3.9386440812245710e-01  -3.5976066366962745e-01  -2.9724414543217831e-01  -2.0795395191231908e-01  -9.4471924720086350e-02  3.9963645335949614e-02  1.9163355729404569e-01  3.5647750541713202e-01  5.3020841603362157e-01  7.0840376030132568e-01  8.8657886633715166e-01  1.0602504059254014e+00  1.2249999347234062e+00  1.3765473036947280e+00  1.5108419408900637e+00  1.6241767484117604e+00  1.7133266468953225e+00  1.7757212783389584e+00  1.8097251587087357e+00  1.8154676385219033e+00  -3.9256312306487162e-01  -3.8681696858402298e-01  -3.5301033015325861e-01  -2.9099403258700651e-01  -2.0237436085664801e-01  -8.9688735170886866e-02  4.3869578011948435e-02  1.9462007505635445e-01  3.5853133846163521e-01  5.3133488347462177e-01  7.0861826680717810e-01  8.8590165013972721e-01  1.0587051951527138e+00  1.2226164585579922e+00  1.3733669556023944e+00  1.5069252687852297e+00  1.6196108944709906e+00  1.7082305662013504e+00  1.7702468637675988e+00  1.8040535021983621e+00  1.8097996566792123e+00  -3.9823110490756303e-01  -3.9248862509439525e-01  -3.5848474472461689e-01  -2.9609011328098311e-01  -2.0694021479741759e-01  -9.3605407275718963e-02  4.0689229919617952e-02  1.9223659889094263e-01  3.5698612768894739e-01  5.3065766727719998e-01  7.0883277331303118e-01  8.8702811758073241e-01  1.0607590281972186e+00  1.2256029763202998e+00  1.3772728882783929e+00  1.5117084583344289e+00  1.6251904855266661e+00  1.7144806790465239e+00  1.7769971972839746e+00  1.8111009417368038e+00  1.8169382190657815e+00  -4.1665883680910648e-01  -4.1083218676884892e-01  -3.7613079347117906e-01  -3.1247026682518708e-01  -2.2158106993011953e-01  -1.0614753719881152e-01  3.0494067812361011e-02  1.8454384676710772e-01  3.5188469001320183e-01  5.2819642940757316e-01  7.0904125738693080e-01  8.8992719570559820e-01  1.0663596502549042e+00  1.2338928128611579e+00  1.3881928035879292e+00  1.5251229751994821e+00  1.6408587796993004e+00  1.7320366411056882e+00  1.7959480375452572e+00  1.8308541164474699e+00  1.8368727962097959e+00  -4.4773826883954337e-01  -4.4173599755377019e-01  -4.0581287038877878e-01  -3.3996301547666902e-01  -2.4609099236775550e-01  -1.2708898504161781e-01  1.3507562892926091e-02  1.7173674910541098e-01  3.4336975119219904e-01  5.2402410790156939e-01  7.0923777144624844e-01  8.9451459736831096e-01  1.0753547302450648e+00  1.2472846386362770e+00  1.4059017745363944e+00  1.5469479720408710e+00  1.6664233282186753e+00  1.7607491826352297e+00  1.8269938785378503e+00  1.8632371905100775e+00  1.8695342685110579e+00  -4.9129090087183447e-01  -4.8501411213739931e-01  -4.4729830749330707e-01  -3.7826659351428144e-01  -2.8010270371293200e-01  -1.5602441381320936e-01  -9.8693191416028055e-03  1.5416522933613050e-01  3.3169842283387152e-01  5.1827437856658365e-01  7.0941662174454412e-01  9.0064560748450373e-01  1.0874773379366085e+00  1.2654212717481810e+00  1.4299960499840638e+00  1.5767820951319642e+00  1.7015297466336325e+00  1.8003395412793857e+00  1.8699346949792535e+00  1.9081042740672816e+00  1.9147888156953041e+00  -5.4705348351869743e-01  -5.4039050519244902e-01  -5.0023208432300625e-01  -4.2691160727077632e-01  -3.2304174088327220e-01  -1.9232164429185156e-01  -3.9015122187864106e-02  1.3236824627401686e-01  3.1726532873378105e-01  5.1115340882283022e-01  7.0957276596009111e-01  9.0810397216038097e-01  1.1023230398118369e+00  1.2877552844878548e+00  1.4598491865390049e+00  1.6139947610093444e+00  1.7456151328213281e+00  1.8503623135178655e+00  1.9244521561294978e+00  1.9652264568413420e+00  1.9724276672338390e+00  -6.1465887702679722e-01  -6.0747701569181778e-01  -5.6409785518820932e-01  -4.8520236866305516e-01  -3.7405614607275844e-01  -2.3505168284711694e-01  -7.3027968285658038e-02  1.0711875201937261e-01  3.0063173411609845e-01  5.0295427366020862e-01  7.0970255773454316e-01  9.1658876766093167e-01  1.1193214623372616e+00  1.3135038537000050e+00  1.4945509955001148e+00  1.6576544978344803e+00  1.7978363127416421e+00  1.9101466061929837e+00  1.9900724733254032e+00  2.0342736489501498e+00  2.0421538445815544e+00  -6.9361220683829861e-01  -6.8574382079976548e-01  -6.3815879204122128e-01  -5.5212762745616717e-01  -4.3191475123835360e-01  -2.8289484893868594e-01  -1.1065216574237847e-01  7.9473457130779634e-02  2.8255478163758369e-01  4.9407056337889843e-01  7.0980496299827656e-01  9.2570299269096812e-01  1.1377085188817533e+00  1.3415991907839659e+00  1.5328327606835039e+00  1.7064324106058382e+00  1.8569653924580258e+00  1.9787057852721222e+00  2.0661095378338734e+00  2.1147908620079829e+00  2.1235675838082066e+00  -7.8326190122103456e-01  -7.7447856443451857e-01  -7.2136389215001873e-01  -6.2622380297697577e-01  -4.9486491589602855e-01  -3.3402517504764939e-01  -1.5020188750087812e-01  5.0813962568928235e-02  2.6400532184323039e-01  4.8500271561031055e-01  7.0988329960737240e-01  9.3495056072003468e-01  1.1565112555101178e+00  1.3706485516205404e+00  1.5729895267209197e+00  1.7584824918881061e+00  1.9212423890474013e+00  2.0545979413603215e+00  2.1515741534885873e+00  2.2061666276756569e+00  2.2161529980117383e+00  -8.8276406612081804e-01  -8.7272252078879498e-01  -8.1218762869489924e-01  -7.0536132416321351e-01  -5.6044177084391389e-01  -3.8598684296810493e-01  -1.8950713915478867e-01  2.2853297110494313e-02  2.4615448023389019e-01  4.7634648029456877e-01  7.0994730082855895e-01  9.4375214398350171e-01  1.1745657197082606e+00  1.3989310617594484e+00  1.6128259419866378e+00  1.8113124018533067e+00  1.9881749071757806e+00  2.1357052262316882e+00  2.2450171136730668e+00  2.3075852387659102e+00  2.3192703096114697e+00  -9.9103815660493266e-01  -9.7914833425710257e-01  -9.0833078534364398e-01  -7.8640891720192851e-01  -6.2523633893639818e-01  -4.3560575069421714e-01  -2.2593431337878003e-01  -2.4363107111225767e-03  2.3029929830982732e-01  4.6874873107797704e-01  7.1001471320572096e-01  9.5149349566350616e-01  1.1905976978581756e+00  1.4244778630608834e+00  1.6496819295180234e+00  1.8616901579992664e+00  2.0542887630886675e+00  2.2188800998331843e+00  2.3442318579248482e+00  2.4179352680137431e+00  2.4321624498689198e+00  -1.1067215222124482e+00  -1.0917650700567529e+00  -1.0061263512904419e+00  -8.6473187716102506e-01  -6.8468974597713783e-01  -4.7904373023710256e-01  -2.5657601725731310e-01  -2.3038224880302809e-02  2.1769178676494830e-01  4.6281472484187719e-01  7.1011061504042527e-01  9.5761881129035409e-01  1.2034001188018955e+00  1.4453015668485631e+00  1.6806417586305042e+00  1.9057064530619585e+00  2.1148971159466221e+00  2.2993952995669900e+00  2.4456469158621501e+00  2.5355804151380577e+00  2.5539965778086313e+00  -1.2281895021196161e+00  -1.2070702065303474e+00  -1.0993648147570552e+00  -9.3359285442568885e-01  -7.3315512237027902e-01  -5.1222034977393172e-01  -2.7875172528144704e-01  -3.7317045652176015e-02  2.0924579514018007e-01  4.5895898358395965e-01  7.1026149373545400e-01  9.6177038374635515e-01  1.2121252145890735e+00  1.4598386130852885e+00  1.7030772409127628e+00  1.9392516127153094e+00  2.1641676693158791e+00  2.3702318800527640e+00  2.5430473068388091e+00  2.6576515952982582e+00  2.6839830437427463e+00  -1.3539400613098698e+00  -1.3174693369685886e+00  -1.1773316938777016e+00  -9.8405990625695217e-01  -7.6486092469718692e-01  -5.3197006049513762e-01  -2.9095818561069381e-01  -4.4674295258764783e-02  2.0514173648773457e-01  4.5721682149393689e-01  7.1048079437556022e-01  9.6394863179814516e-01  1.2166554329222565e+00  1.4675978847218871e+00  1.7156404713207094e+00  1.9593093081436184e+00  2.1962714740806804e+00  2.4219049880940005e+00  2.6251191610629396e+00  2.7775558569015426e+00  2.8215560093466716e+00  -1.4833546148376040e+00  -1.4042450457386533e+00  -1.2236807074634439e+00  -1.0076385777473560e+00  -7.7694471815220711e-01  -5.3825618166066391e-01  -2.9421769254361041e-01  -4.6292531407102259e-02  2.0444671498915068e-01  4.5707756900787883e-01  7.1074411566455431e-01  9.6462431019884942e-01  1.2179154137742914e+00  1.4698239036697112e+00  1.7195493312947596e+00  1.9662441847638985e+00  2.2088961498860988e+00  2.4459101161742542e+00  2.6733308613146138e+00  2.8757343416824495e+00  2.9652913705739934e+00  -1.5585065577371449e+00  -1.4276888626925974e+00  -1.2269858923757782e+00  -1.0065480469401256e+00  -7.7536755702494164e-01  -5.3693025907542535e-01  -2.9319635006886274e-01  -4.5527373609584608e-02  2.0499914752010498e-01  4.5744671723635966e-01  7.1095116030657746e-01  9.6468795935891571e-01  1.2178565633013250e+00  1.4696707727124918e+00  1.7193467276054784e+00  1.9660772015705996e+00  2.2089662820560285e+00  2.4468391758064443e+00  2.6775150536824488e+00  2.8939698271327252e+00  3.0896905989149044e+00  </DataArray> 
</PointData> 
</Piece>
</UnstructuredGrid>
</VTKFile>