<?xml version="1.0"?>
<VTKFile type="UnstructuredGrid"  version="0.1"  >
<UnstructuredGrid>
<Piece  NumberOfPoints="651" NumberOfCells="1200">
<Points>
<DataArray  type="Float64"  NumberOfComponents="3"  format="ascii">0 0 0  50000 0 0  100000 0 0  150000 0 0  200000 0 0  250000 0 0  300000 0 0  350000 0 0  400000 0 0  450000 0 0  500000 0 0  550000 0 0  600000 0 0  650000 0 0  700000 0 0  750000 0 0  800000 0 0  850000 0 0  900000 0 0  950000 0 0  1000000 0 0  0 50000 0  50000 50000 0  100000 50000 0  150000 50000 0  200000 50000 0  250000 50000 0  300000 50000 0  350000 50000 0  400000 50000 0  450000 50000 0  500000 50000 0  550000 50000 0  600000 50000 0  650000 50000 0  700000 50000 0  750000 50000 0  800000 50000 0  850000 50000 0  900000 50000 0  950000 50000 0  1000000 50000 0  0 100000 0  50000 100000 0  100000 100000 0  150000 100000 0  200000 100000 0  250000 100000 0  300000 100000 0  350000 100000 0  400000 100000 0  450000 100000 0  500000 100000 0  550000 100000 0  600000 100000 0  650000 100000 0  700000 100000 0  750000 100000 0  800000 100000 0  850000 100000 0  900000 100000 0  950000 100000 0  1000000 100000 0  0 150000 0  50000 150000 0  100000 150000 0  150000 150000 0  200000 150000 0  250000 150000 0  300000 150000 0  350000 150000 0  400000 150000 0  450000 150000 0  500000 150000 0  550000 150000 0  600000 150000 0  650000 150000 0  700000 150000 0  750000 150000 0  800000 150000 0  850000 150000 0  900000 150000 0  950000 150000 0  1000000 150000 0  0 200000 0  50000 200000 0  100000 200000 0  150000 200000 0  200000 200000 0  250000 200000 0  300000 200000 0  350000 200000 0  400000 200000 0  450000 200000 0  500000 200000 0  550000 200000 0  600000 200000 0  650000 200000 0  700000 200000 0  750000 200000 0  800000 200000 0  850000 200000 0  900000 200000 0  950000 200000 0  1000000 200000 0  0 250000 0  50000 250000 0  100000 250000 0  150000 250000 0  200000 250000 0  250000 250000 0  300000 250000 0  350000 250000 0  400000 250000 0  450000 250000 0  500000 250000 0  550000 250000 0  600000 250000 0  650000 250000 0  700000 250000 0  750000 250000 0  800000 250000 0  850000 250000 0  900000 250000 0  950000 250000 0  1000000 250000 0  0 300000 0  50000 300000 0  100000 300000 0  150000 300000 0  200000 300000 0  250000 300000 0  300000 300000 0  350000 300000 0  400000 300000 0  450000 300000 0  500000 300000 0  550000 300000 0  600000 300000 0  650000 300000 0  700000 300000 0  750000 300000 0  800000 300000 0  850000 300000 0  900000 300000 0  950000 300000 0  1000000 300000 0  0 350000 0  50000 350000 0  100000 350000 0  150000 350000 0  200000 350000 0  250000 350000 0  300000 350000 0  350000 350000 0  400000 350000 0  450000 350000 0  500000 350000 0  550000 350000 0  600000 350000 0  650000 350000 0  700000 350000 0  750000 350000 0  800000 350000 0  850000 350000 0  900000 350000 0  950000 350000 0  1000000 350000 0  0 400000 0  50000 400000 0  100000 400000 0  150000 400000 0  200000 400000 0  250000 400000 0  300000 400000 0  350000 400000 0  400000 400000 0  450000 400000 0  500000 400000 0  550000 400000 0  600000 400000 0  650000 400000 0  700000 400000 0  750000 400000 0  800000 400000 0  850000 400000 0  900000 400000 0  950000 400000 0  1000000 400000 0  0 450000 0  50000 450000 0  100000 450000 0  150000 450000 0  200000 450000 0  250000 450000 0  300000 450000 0  350000 450000 0  400000 450000 0  450000 450000 0  500000 450000 0  550000 450000 0  600000 450000 0  650000 450000 0  700000 450000 0  750000 450000 0  800000 450000 0  850000 450000 0  900000 450000 0  950000 450000 0  1000000 450000 0  0 500000 0  50000 500000 0  100000 500000 0  150000 500000 0  200000 500000 0  250000 500000 0  300000 500000 0  350000 500000 0  400000 500000 0  450000 500000 0  500000 500000 0  550000 500000 0  600000 500000 0  650000 500000 0  700000 500000 0  750000 500000 0  800000 500000 0  850000 500000 0  900000 500000 0  950000 500000 0  1000000 500000 0  0 550000 0  50000 550000 0  100000 550000 0  150000 550000 0  200000 550000 0  250000 550000 0  300000 550000 0  350000 550000 0  400000 550000 0  450000 550000 0  500000 550000 0  550000 550000 0  600000 550000 0  650000 550000 0  700000 550000 0  750000 550000 0  800000 550000 0  850000 550000 0  900000 550000 0  950000 550000 0  1000000 550000 0  0 600000 0  50000 600000 0  100000 600000 0  150000 600000 0  200000 600000 0  250000 600000 0  300000 600000 0  350000 600000 0  400000 600000 0  450000 600000 0  500000 600000 0  550000 600000 0  600000 600000 0  650000 600000 0  700000 600000 0  750000 600000 0  800000 600000 0  850000 600000 0  900000 600000 0  950000 600000 0  1000000 600000 0  0 650000 0  50000 650000 0  100000 650000 0  150000 650000 0  200000 650000 0  250000 650000 0  300000 650000 0  350000 650000 0  400000 650000 0  450000 650000 0  500000 650000 0  550000 650000 0  600000 650000 0  650000 650000 0  700000 650000 0  750000 650000 0  800000 650000 0  850000 650000 0  900000 650000 0  950000 650000 0  1000000 650000 0  0 700000 0  50000 700000 0  100000 700000 0  150000 700000 0  200000 700000 0  250000 700000 0  300000 700000 0  350000 700000 0  400000 700000 0  450000 700000 0  500000 700000 0  550000 700000 0  600000 700000 0  650000 700000 0  700000 700000 0  750000 700000 0  800000 700000 0  850000 700000 0  900000 700000 0  950000 700000 0  1000000 700000 0  0 750000 0  50000 750000 0  100000 750000 0  150000 750000 0  200000 750000 0  250000 750000 0  300000 750000 0  350000 750000 0  400000 750000 0  450000 750000 0  500000 750000 0  550000 750000 0  600000 750000 0  650000 750000 0  700000 750000 0  750000 750000 0  800000 750000 0  850000 750000 0  900000 750000 0  950000 750000 0  1000000 750000 0  0 800000 0  50000 800000 0  100000 800000 0  150000 800000 0  200000 800000 0  250000 800000 0  300000 800000 0  350000 800000 0  400000 800000 0  450000 800000 0  500000 800000 0  550000 800000 0  600000 800000 0  650000 800000 0  700000 800000 0  750000 800000 0  800000 800000 0  850000 800000 0  900000 800000 0  950000 800000 0  1000000 800000 0  0 850000 0  50000 850000 0  100000 850000 0  150000 850000 0  200000 850000 0  250000 850000 0  300000 850000 0  350000 850000 0  400000 850000 0  450000 850000 0  500000 850000 0  550000 850000 0  600000 850000 0  650000 850000 0  700000 850000 0  750000 850000 0  800000 850000 0  850000 850000 0  900000 850000 0  950000 850000 0  1000000 850000 0  0 900000 0  50000 900000 0  100000 900000 0  150000 900000 0  200000 900000 0  250000 900000 0  300000 900000 0  350000 900000 0  400000 900000 0  450000 900000 0  500000 900000 0  550000 900000 0  600000 900000 0  650000 900000 0  700000 900000 0  750000 900000 0  800000 900000 0  850000 900000 0  900000 900000 0  950000 900000 0  1000000 900000 0  0 950000 0  50000 950000 0  100000 950000 0  150000 950000 0  200000 950000 0  250000 950000 0  300000 950000 0  350000 950000 0  400000 950000 0  450000 950000 0  500000 950000 0  550000 950000 0  600000 950000 0  650000 950000 0  700000 950000 0  750000 950000 0  800000 950000 0  850000 950000 0  900000 950000 0  950000 950000 0  1000000 950000 0  0 1000000 0  50000 1000000 0  100000 1000000 0  150000 1000000 0  200000 1000000 0  250000 1000000 0  300000 1000000 0  350000 1000000 0  400000 1000000 0  450000 1000000 0  500000 1000000 0  550000 1000000 0  600000 1000000 0  650000 1000000 0  700000 1000000 0  750000 1000000 0  800000 1000000 0  850000 1000000 0  900000 1000000 0  950000 1000000 0  1000000 1000000 0  0 1050000 0  50000 1050000 0  100000 1050000 0  150000 1050000 0  200000 1050000 0  250000 1050000 0  300000 1050000 0  350000 1050000 0  400000 1050000 0  450000 1050000 0  500000 1050000 0  550000 1050000 0  600000 1050000 0  650000 1050000 0  700000 1050000 0  750000 1050000 0  800000 1050000 0  850000 1050000 0  900000 1050000 0  950000 1050000 0  1000000 1050000 0  0 1100000 0  50000 1100000 0  100000 1100000 0  150000 1100000 0  200000 1100000 0  250000 1100000 0  300000 1100000 0  350000 1100000 0  400000 1100000 0  450000 1100000 0  500000 1100000 0  550000 1100000 0  600000 1100000 0  650000 1100000 0  700000 1100000 0  750000 1100000 0  800000 1100000 0  850000 1100000 0  900000 1100000 0  950000 1100000 0  1000000 1100000 0  0 1150000 0  50000 1150000 0  100000 1150000 0  150000 1150000 0  200000 1150000 0  250000 1150000 0  300000 1150000 0  350000 1150000 0  400000 1150000 0  450000 1150000 0  500000 1150000 0  550000 1150000 0  600000 1150000 0  650000 1150000 0  700000 1150000 0  750000 1150000 0  800000 1150000 0  850000 1150000 0  900000 1150000 0  950000 1150000 0  1000000 1150000 0  0 1200000 0  50000 1200000 0  100000 1200000 0  150000 1200000 0  200000 1200000 0  250000 1200000 0  300000 1200000 0  350000 1200000 0  400000 1200000 0  450000 1200000 0  500000 1200000 0  550000 1200000 0  600000 1200000 0  650000 1200000 0  700000 1200000 0  750000 1200000 0  800000 1200000 0  850000 1200000 0  900000 1200000 0  950000 1200000 0  1000000 1200000 0  0 1250000 0  50000 1250000 0  100000 1250000 0  150000 1250000 0  200000 1250000 0  250000 1250000 0  300000 1250000 0  350000 1250000 0  400000 1250000 0  450000 1250000 0  500000 1250000 0  550000 1250000 0  600000 1250000 0  650000 1250000 0  700000 1250000 0  750000 1250000 0  800000 1250000 0  850000 1250000 0  900000 1250000 0  950000 1250000 0  1000000 1250000 0  0 1300000 0  50000 1300000 0  100000 1300000 0  150000 1300000 0  200000 1300000 0  250000 1300000 0  300000 1300000 0  350000 1300000 0  400000 1300000 0  450000 1300000 0  500000 1300000 0  550000 1300000 0  600000 1300000 0  650000 1300000 0  700000 1300000 0  750000 1300000 0  800000 1300000 0  850000 1300000 0  900000 1300000 0  950000 1300000 0  1000000 1300000 0  0 1350000 0  50000 1350000 0  100000 1350000 0  150000 1350000 0  200000 1350000 0  250000 1350000 0  300000 1350000 0  350000 1350000 0  400000 1350000 0  450000 1350000 0  500000 1350000 0  550000 1350000 0  600000 1350000 0  650000 1350000 0  700000 135
[...]
<PointData  Scalars="f_1519"> 
<DataArray  type="Float64"  Name="f_1519"  format="ascii">-4.3321057625336854e+00  -3.9233407462717569e+00  -3.4701940208067006e+00  -2.9868381457484747e+00  -2.4881759813979341e+00  -1.9788454512879450e+00  -1.4613524802152555e+00  -9.3760808075004454e-01  -4.0933227463448540e-01  1.2180638077358913e-01  6.5413560421142347e-01  1.1859535719783474e+00  1.7155084272366852e+00  2.2409649577499366e+00  2.7603348043161025e+00  3.2713282438438420e+00  3.7710423942865567e+00  4.2552700470012859e+00  4.7164835876610800e+00  5.1354379511806121e+00  5.4074481530540766e+00  -4.0731209012410412e+00  -3.8867284310474126e+00  -3.4625481411808972e+00  -2.9857335566123657e+00  -2.4887028025927882e+00  -1.9797675537515491e+00  -1.4622845318492432e+00  -9.3839160248025422e-01  -4.0988338991730733e-01  1.2154312951591553e-01  6.5420513017635729e-01  1.1864004575095628e+00  1.7163867350078346e+00  2.2423509886963959e+00  2.7623409222640039e+00  3.2740884236654608e+00  3.7745000609974686e+00  4.2579815833259289e+00  4.7104474964766956e+00  5.0879072305741895e+00  5.2514202243260870e+00  -3.7739927259972017e+00  -3.6827955438225017e+00  -3.3633963896035879e+00  -2.9370593336510131e+00  -2.4636006648851718e+00  -1.9663518478162603e+00  -1.4550151376505287e+00  -9.3448519470752489e-01  -4.0785808748742275e-01  1.2247631918901794e-01  6.5440321848126681e-01  1.1858873647220207e+00  1.7148512802874991e+00  2.2390395966664927e+00  2.7557721693815007e+00  3.2613890485640882e+00  3.7498962746130378e+00  4.2095616113655234e+00  4.6145918891588167e+00  4.9076201364822962e+00  4.9822304702470097e+00  -3.4877081921998059e+00  -3.4333187813465944e+00  -3.1932376995020508e+00  -2.8305652344726608e+00  -2.3979425353335557e+00  -1.9257158901299687e+00  -1.4298589404330295e+00  -9.1918013099022322e-01  -3.9911468513746168e-01  1.2648830507427197e-01  6.5450409035882207e-01  1.1820731119607504e+00  1.7062881157977354e+00  2.2238680383048810e+00  2.7306564400482420e+00  3.2206880896155639e+00  3.6843547413770144e+00  4.1048899673914825e+00  4.4524369322970081e+00  4.6776719451184432e+00  4.7206342500831440e+00  -3.2172192301407891e+00  -3.1792365247082088e+00  -2.9908345811837411e+00  -2.6838261401794603e+00  -2.2963126420268098e+00  -1.8568794367390165e+00  -1.3841023511735444e+00  -8.8975704760988550e-01  -3.8164729521533586e-01  1.3459620921497167e-01  6.5445287339474090e-01  1.1738504987522633e+00  1.6886711465045448e+00  2.1942512443880884e+00  2.6847081832117765e+00  3.1518881200781941e+00  3.5836880374266924e+00  3.9616124110430602e+00  4.2581718789852099e+00  4.4373112493361715e+00  4.4677312917972394e+00  -2.9636861801575800e+00  -2.9343384971442372e+00  -2.7798961891852056e+00  -2.5166704676435678e+00  -2.1708210866108346e+00  -1.7660441977391426e+00  -1.3204636611264520e+00  -8.4716260386007103e-01  -3.5564686326321326e-01  1.4682895072218755e-01  6.5427919952615943e-01  1.1612694571644158e+00  1.6623303138224628e+00  2.1513739149864692e+00  2.6209923690934627e+00  3.0615323514043071e+00  3.4599118606928583e+00  3.7983981608280097e+00  4.0542403360673136e+00  4.2024587029591789e+00  4.2267112735303609e+00  -2.7287498452265129e+00  -2.7046174590075314e+00  -2.5734461875301724e+00  -2.3438032174384298e+00  -2.0336608145433863e+00  -1.6617722562054131e+00  -1.2443946749285657e+00  -7.9462391262077792e-01  -3.2285357480723859e-01  1.6245710421009124e-01  6.5404162680428879e-01  1.1451851504888877e+00  1.6291525597722158e+00  2.0986240670518557e+00  2.5450818597623539e+00  2.9581296823105849e+00  3.3248281863026494e+00  3.6293486300125006e+00  3.8536451217432051e+00  3.9804408291958868e+00  4.0010076442719580e+00  -2.5141506348447105e+00  -2.4934901022580833e+00  -2.3789674390296898e+00  -2.1751345643501452e+00  -1.8946504772329933e+00  -1.5522410079174394e+00  -1.1619826545118350e+00  -7.3628152048197015e-01  -2.8577705207133636e-01  1.8032806976684970e-01  6.5379556022898355e-01  1.1268596101649531e+00  1.5917475806577592e+00  2.0402089063895659e+00  2.4630495578895037e+00  2.8497066351562288e+00  3.1879793756311181e+00  3.4641689176940504e+00  3.6640610439571444e+00  3.7754168556403962e+00  3.7934875341420278e+00  -2.3214753875884715e+00  -2.3032797534629510e+00  -2.2010834766980589e+00  -2.0172657892423911e+00  -1.7610757183658465e+00  -1.4442236457811644e+00  -1.0787967800974505e+00  -6.7625295397295249e-01  -2.4707914119383215e-01  1.9916050490502990e-01  6.5358017660715617e-01  1.1076463530755638e+00  1.5528282190197271e+00  1.9802547371056096e+00  2.3804083371890132e+00  2.7429108840998393e+00  3.0565073792178215e+00  3.3094186502017333e+00  3.4903004859732194e+00  3.5901615409824084e+00  3.6064217148696862e+00  -2.1520679693397726e+00  -2.1356946728070225e+00  -2.0428324369800155e+00  -1.8746407616595071e+00  -1.6381671800996083e+00  -1.3429492711302948e+00  -9.9944068234319194e-01  -6.1814464297424743e-01  -2.0919755835355119e-01  2.1774209432900182e-01  6.5341694919631577e-01  1.0887940180875757e+00  1.5148483651482461e+00  1.9223513454274597e+00  2.3017066694306525e+00  2.6428911617863307e+00  2.9355803285801714e+00  3.1695619053287105e+00  3.3355591133391140e+00  3.4266830776538133e+00  3.4415855517679996e+00  -2.0070139841406767e+00  -1.9920179357097147e+00  -1.9062899087504146e+00  -1.7502868768553070e+00  -1.5296209565409709e+00  -1.2522943074676827e+00  -9.2749362358089205e-01  -5.6487938146997152e-01  -1.7417336950586593e-01  2.3503258708646180e-01  6.5331320411531113e-01  1.0713525187831281e+00  1.4798446300659114e+00  1.8693972206264400e+00  2.2304817666357906e+00  2.5534791905413416e+00  2.8288761896037715e+00  3.0476696674479014e+00  3.2020419085315108e+00  3.2864777461124901e+00  3.3003532159622915e+00  -1.8871560354390184e+00  -1.8732060657391465e+00  -1.7928971103360489e+00  -1.6462771496011745e+00  -1.4380174655926299e+00  -1.1750514014950049e+00  -8.6562140865612314e-01  -5.1870034045782754e-01  -1.4361142462173893e-01  2.5019824984088940e-01  6.5326669863907350e-01  1.0561481640729886e+00  1.4494066917459179e+00  1.8236112376622777e+00  2.1693706681441323e+00  2.4774467654876524e+00  2.7389811744441404e+00  2.9458665576112661e+00  3.0912979005058161e+00  3.1706620283662574e+00  3.1837718531789485e+00  -1.7931208925274720e+00  -1.7799541143735402e+00  -1.7036503717200115e+00  -1.5640222607964249e+00  -1.3651298030664136e+00  -1.1131793476816532e+00  -8.1573793882812518e-01  -4.8125343469127763e-01  -1.1871087183396560e-01  2.6260635531737003e-01  6.5326947557626702e-01  1.0437965499179700e+00  1.4247138013698966e+00  1.7866177019256300e+00  2.1202689685690062e+00  2.4167469281491001e+00  2.6676869621027430e+00  2.8656165211475120e+00  3.0044152701806977e+00  3.0800568019779395e+00  3.0926212863605791e+00  -1.7253494133142591e+00  -1.7127445402660633e+00  -1.6392196526436693e+00  -1.5044593330981588e+00  -1.3121423395036729e+00  -1.0680049557064644e+00  -7.7916129101918696e-01  -4.5369045960831877e-01  -1.0032267849151348e-01  2.7180173515491329e-01  6.5331055227445245e-01  1.0347308795912760e+00  1.4065955749517420e+00  1.7595499917842961e+00  2.0844839247479268e+00  2.3727100235604404e+00  2.6162031996189579e+00  2.8079091193894827e+00  2.9421442924052661e+00  3.0152480466547820e+00  3.0274630218143517e+00  -1.6841238359930137e+00  -1.6718846599767272e+00  -1.6000258955536129e+00  -1.4681749529205459e+00  -1.2798009026928867e+00  -1.0403730140797602e+00  -7.5674137010187681e-01  -4.3676335101710406e-01  -8.9008879886262618e-02  2.7747950444057023e-01  6.5337755878036219e-01  1.0292320693002635e+00  1.3955927758110054e+00  1.7431444106074223e+00  2.0628596422848320e+00  2.3461899083738751e+00  2.5853043649629845e+00  2.7733818610139589e+00  2.9049782198165146e+00  2.9766321922920698e+00  2.9886796094468226e+00  -1.6695888961570335e+00  -1.6575334081897450e+00  -1.5862905214584642e+00  -1.4554828035708680e+00  -1.2685102831526920e+00  -1.0307483102502450e+00  -7.4895172684783629e-01  -4.3089611303925990e-01  -8.5090426052860296e-02  2.7946188769614949e-01  6.5345760271591913e-01  1.0274533177356779e+00  1.3920056314846885e+00  1.7378113184710819e+00  2.0558669322796534e+00  2.3376635156820655e+00  2.5754254885845120e+00  2.7623980090026987e+00  2.8932057268902955e+00  2.9644486136215780e+00  2.9765041015888705e+00  -1.6817644040149879e+00  -1.6697169868602364e+00  -1.5980630143846826e+00  -1.4664666555821333e+00  -1.2783891595311625e+00  -1.0392747029420564e+00  -7.5594443685301416e-01  -4.3622920517560065e-01  -8.8677570379180573e-02  2.7768313613156737e-01  6.5353764665148106e-01  1.0294357009912680e+00  1.3959240853180970e+00  1.7436785564489277e+00  2.0636565755336966e+00  2.3472882195115838e+00  2.5867161081247185e+00  2.7750901583523815e+00  2.9069411009854624e+00  2.9787998654085830e+00  2.9910390414248682e+00  -1.7205478163825170e+00  -1.7083328412229510e+00  -1.6352290869734389e+00  -1.5009939139576545e+00  -1.3092879941871383e+00  -1.0657948181286310e+00  -7.7756871931611360e-01  -4.5263478635247623e-01  -9.9680369519911771e-02  2.7218432584056468e-01  6.5360465315739991e-01  1.0351134702769371e+00  1.4072378839233586e+00  1.7606056650401589e+00  2.0860764964510277e+00  2.3749201611383071e+00  2.6190575449355222e+00  2.8113745385300071e+00  2.9461348580755402e+00  3.0196597456979490e+00  3.0322646187461375e+00  -1.7857060809287288e+00  -1.7731415965460879e+00  -1.6975000647488496e+00  -1.5587013157156624e+00  -1.3607717566709074e+00  -1.1098317227172749e+00  -8.1335376313717656e-01  -4.7970249649379587e-01  -1.1779859593804964e-01  2.6311865551388369e-01  6.5364572985560410e-01  1.0443088501145006e+00  1.4256260772658302e+00  1.7881686401231285e+00  2.1226531442599792e+00  2.4200945531135116e+00  2.6720450084982876e+00  2.8709374662283005e+00  3.0105655771518878e+00  3.0868693198054133e+00  3.1000360979593458e+00  -1.8768566477470876e+00  -1.8637468229343992e+00  -1.7843826950739552e+00  -1.6389513521794121e+00  -1.4320659690122910e+00  -1.1705315600558106e+00  -8.6245546271228135e-01  -5.1669603223042337e-01  -1.4249148631405056e-01  2.5076704135888572e-01  6.5364850679281461e-01  1.0567169555910012e+00  1.4505266300536264e+00  1.8256155458896977e+00  2.1725366140879894e+00  2.4819666069268749e+00  2.7449326710245194e+00  2.9531923550330594e+00  3.0998123157679220e+00  3.1801212711710121e+00  3.1940712408708865e+00  -1.9934380105304081e+00  -1.9795625406806097e+00  -1.8951267030996293e+00  -1.7407544620160316e+00  -1.5219609841718955e+00  -1.2465639851094572e+00  -9.2356656120390679e-01  -5.6248201519455510e-01  -1.7292942463401070e-01  2.3556268664877780e-01  6.5360200131660562e-01  1.0718826183454551e+00  1.4810885749377840e+00  1.8717945869018839e+00  2.2344088290128048e+00  2.5592095128995935e+00  2.8365361619728766e+00  3.0572020822871995e+00  3.2132051141822999e+00  3.2989331411415899e+00  3.3139291895725500e+00  -2.1346703463360810e+00  -2.1197678722219062e+00  -2.0286439079072061e+00  -1.8626466998968074e+00  -1.6286651231482683e+00  -1.3359759563544207e+00  -9.9479146399873886e-01  -6.1543613999554214e-01  -2.0793315971631254e-01  2.1812118734436847e-01  6.5349825623563929e-01  1.0891731111029541e+00  1.5161127637855090e+00  1.9250598484062076e+00  2.3063558877751533e+00  2.6498644765622448e+00  2.9450823855315451e+00  3.1815559670914189e+00  3.3497476424119155e+00  3.4426098782389083e+00  3.4589831747716473e+00  -2.2995065094377583e+00  -2.2832463355504879e+00  -2.1833852805412914e+00  -2.0025034447698005e+00  -1.7495921737858895e+00  -1.4359956786678989e+00  -1.0734931317570664e+00  -6.7333953167364868e-01  -2.4591301358775103e-01  1.9926885235642067e-01  6.5333502882483852e-01  1.1077547005269703e+00  1.5539943466258348e+00  1.9831681594049522e+00  2.3857119855294466e+00  2.7511388512131414e+00  3.0679909237978027e+00  3.3241809946743262e+00  3.5079986821299700e+00  3.6101949588948541e+00  3.6283905930203768e+00  -2.4865723287100776e+00  -2.4685016502084394e+00  -2.3571458385251911e+00  -2.1572537122621007e+00  -1.8810641701991537e+00  -1.5427914297242535e+00  -1.1561343524575165e+00  -7.3329370095756730e-01  -2.8483237522574817e-01  1.8005559526706694e-01  6.5311964520304611e-01  1.1265871356651869e+00  1.5926922575033744e+00  2.0431967259140009e+00  2.4688978599438554e+00  2.8591562133494390e+00  3.2015656826649805e+00  3.4820497697821056e+00  3.6858826444616297e+00  3.8004053076900184e+00  3.8210658402766451e+00  -2.6940924388399856e+00  -2.6735256237639167e+00  -2.5467299163112460e+00  -2.3224334245805371e+00  -2.0179129808706584e+00  -1.6512144768785753e+00  -1.2381666543303274e+00  -7.9170886161981324e-01  -3.2223735434016287e-01  1.6173005494317297e-01  6.5287357862777951e-01  1.1444581012219801e+00  1.6297687802393095e+00  2.1015391180528327e+00  2.5513098803606127e+00  2.9686874616374381e+00  3.3405760199754027e+00  3.6507184228704310e+00  3.8803613929621510e+00  4.0115326644394980e+00  4.0356650506584790e+00  -2.9197960680983628e+00  -2.8955434975271852e+00  -2.7473251306353101e+00  -2.4914829553960041e+00  -2.1529966552608331e+00  -1.7546171459722761e+00  -1.3140771636614028e+00  -8.4445870955438385e-01  -3.5541510839037299e-01  1.4564574826767832e-01  6.5263600590594506e-01  1.1600862547099187e+00  1.6625620686953217e+00  2.1540778092921631e+00  2.6273788665585314e+00  3.0729594031712124e+00  3.4777362920428905e+00  3.8235856730756099e+00  4.0868113946172224e+00  4.2412537025762393e+00  4.2706013855895781e+00  -3.1608160863652093e+00  -3.1303960439041418e+00  -2.9512566735531722e+00  -2.6546972056110176e+00  -2.2767728319946339e+00  -1.8449729146461347e+00  -1.3777929777796893e+00  -8.8733603895597712e-01  -3.8175594107242800e-01  1.3306470667985476e-01  6.5246233203738857e-01  1.1723189962171598e+00  1.6885625006474636e+00  2.1966722530420033e+00  2.6910175566056558e+00  3.1637946421711263e+00  3.6032278474588941e+00  3.9907413456115273e+00  4.2977497866157961e+00  4.4861517301402456e+00  4.5241344355728215e+00  -3.4137190446510881e+00  -3.3707567396863851e+00  -3.1455217268649465e+00  -2.7979747619594120e+00  -2.3774395359449336e+00  -1.9137728841834720e+00  -1.4237412346161304e+00  -9.1695283287275431e-01  -3.9937291036560135e-01  1.2484209347138600e-01  6.5241111507332261e-01  1.1804269003578765e+00  1.7060298905696045e+00  2.2260953364223606e+00  2.7367741458651755e+00  3.2326310955621054e+00  3.7048577407656751e+00  4.1374804399047553e+00  4.5001529049341285e+00  4.7402339867786569e+00  4.7946233976318648e+00  -3.6753152648149316e+00  -3.6007049310502035e+00  -3.3076766837267346e+00  -2.9026464059334365e+00  -2.4429810691809521e+00  -1.9544738431319861e+00  -1.4488569639493789e+00  -9.3212439123435653e-01  -4.0793607485536199e-01  1.2102784071012371e-01  6.5251198695088830e-01  1.1844388862431392e+00  1.7147732929195789e+00  2.2414004001396695e+00  2.7619303430826796e+00  3.2732670532484036e+00  3.7705158703173041e+00  4.2439745390831201e+00  4.6703115950356819e+00  4.9897107492545762e+00  5.0809079314292935e+00  -3.9445050188940165e+00  -3.7809920251421127e+00  -3.4035322910446384e+00  -2.9510663778938588e+00  -2.4675848555653812e+00  -1.9671732182333519e+00  -1.4554257168318783e+00  -9.3543578326425936e-01  -4.0947152957569050e-01  1.2051474792258603e-01  6.5271007525579738e-01  1.1853720759162441e+00  1.7167985953494664e+00  2.2453068079124097e+00  2.7691997372813955e+00  3.2866827591836882e+00  3.7956180080249213e+00  4.2926487620444789e+00  4.7694633466130103e+00  5.1936436364795053e+00  5.3800361066731357e+00  -4.1005329476219998e+00  -3.8285227457485345e+00  -3.4095683822290104e+00  -2.9483548415692118e+00  -2.4641271888544640e+00  -1.9644130384117338e+00  -1.4534195988839753e+00  -9.3404975231779996e-01  -4.0859322180453866e-01  1.2096163345380558e-01  6.5277960122073475e-01  1.1851088246585668e+00  1.7162474800666474e+00  2.2445232861822020e+00  2.7682676856474124e+00  3.2857606567200826e+00  3.7950911868300690e+00  4.2937533511805954e+00  4.7771092262388075e+00  5.2302559517038620e+00  5.6390209679657852e+00  </DataArray> 
</PointData> 
</Piece>
</UnstructuredGrid>
</VTKFile>