<?xml version="1.0"?>
<VTKFile type="UnstructuredGrid"  version="0.1"  >
<UnstructuredGrid>
<Piece  NumberOfPoints="651" NumberOfCells="1200">
<Points>
<DataArray  type="Float64"  NumberOfComponents="3"  format="ascii">0 0 0  50000 0 0  100000 0 0  150000 0 0  200000 0 0  250000 0 0  300000 0 0  350000 0 0  400000 0 0  450000 0 0  500000 0 0  550000 0 0  600000 0 0  650000 0 0  700000 0 0  750000 0 0  800000 0 0  850000 0 0  900000 0 0  950000 0 0  1000000 0 0  0 50000 0  50000 50000 0  100000 50000 0  150000 50000 0  200000 50000 0  250000 50000 0  300000 50000 0  350000 50000 0  400000 50000 0  450000 50000 0  500000 50000 0  550000 50000 0  600000 50000 0  650000 50000 0  700000 50000 0  750000 50000 0  800000 50000 0  850000 50000 0  900000 50000 0  950000 50000 0  1000000 50000 0  0 100000 0  50000 100000 0  100000 100000 0  150000 100000 0  200000 100000 0  250000 100000 0  300000 100000 0  350000 100000 0  400000 100000 0  450000 100000 0  500000 100000 0  550000 100000 0  600000 100000 0  650000 100000 0  700000 100000 0  750000 100000 0  800000 100000 0  850000 100000 0  900000 100000 0  950000 100000 0  1000000 100000 0  0 150000 0  50000 150000 0  100000 150000 0  150000 150000 0  200000 150000 0  250000 150000 0  300000 150000 0  350000 150000 0  400000 150000 0  450000 150000 0  500000 150000 0  550000 150000 0  600000 150000 0  650000 150000 0  700000 150000 0  750000 150000 0  800000 150000 0  850000 150000 0  900000 150000 0  950000 150000 0  1000000 150000 0  0 200000 0  50000 200000 0  100000 200000 0  150000 200000 0  200000 200000 0  250000 200000 0  300000 200000 0  350000 200000 0  400000 200000 0  450000 200000 0  500000 200000 0  550000 200000 0  600000 200000 0  650000 200000 0  700000 200000 0  750000 200000 0  800000 200000 0  850000 200000 0  900000 200000 0  950000 200000 0  1000000 200000 0  0 250000 0  50000 250000 0  100000 250000 0  150000 250000 0  200000 250000 0  250000 250000 0  300000 250000 0  350000 250000 0  400000 250000 0  450000 250000 0  500000 250000 0  550000 250000 0  600000 250000 0  650000 250000 0  700000 250000 0  750000 250000 0  800000 250000 0  850000 250000 0  900000 250000 0  950000 250000 0  1000000 250000 0  0 300000 0  50000 300000 0  100000 300000 0  150000 300000 0  200000 300000 0  250000 300000 0  300000 300000 0  350000 300000 0  400000 300000 0  450000 300000 0  500000 300000 0  550000 300000 0  600000 300000 0  650000 300000 0  700000 300000 0  750000 300000 0  800000 300000 0  850000 300000 0  900000 300000 0  950000 300000 0  1000000 300000 0  0 350000 0  50000 350000 0  100000 350000 0  150000 350000 0  200000 350000 0  250000 350000 0  300000 350000 0  350000 350000 0  400000 350000 0  450000 350000 0  500000 350000 0  550000 350000 0  600000 350000 0  650000 350000 0  700000 350000 0  750000 350000 0  800000 350000 0  850000 350000 0  900000 350000 0  950000 350000 0  1000000 350000 0  0 400000 0  50000 400000 0  100000 400000 0  150000 400000 0  200000 400000 0  250000 400000 0  300000 400000 0  350000 400000 0  400000 400000 0  450000 400000 0  500000 400000 0  550000 400000 0  600000 400000 0  650000 400000 0  700000 400000 0  750000 400000 0  800000 400000 0  850000 400000 0  900000 400000 0  950000 400000 0  1000000 400000 0  0 450000 0  50000 450000 0  100000 450000 0  150000 450000 0  200000 450000 0  250000 450000 0  300000 450000 0  350000 450000 0  400000 450000 0  450000 450000 0  500000 450000 0  550000 450000 0  600000 450000 0  650000 450000 0  700000 450000 0  750000 450000 0  800000 450000 0  850000 450000 0  900000 450000 0  950000 450000 0  1000000 450000 0  0 500000 0  50000 500000 0  100000 500000 0  150000 500000 0  200000 500000 0  250000 500000 0  300000 500000 0  350000 500000 0  400000 500000 0  450000 500000 0  500000 500000 0  550000 500000 0  600000 500000 0  650000 500000 0  700000 500000 0  750000 500000 0  800000 500000 0  850000 500000 0  900000 500000 0  950000 500000 0  1000000 500000 0  0 550000 0  50000 550000 0  100000 550000 0  150000 550000 0  200000 550000 0  250000 550000 0  300000 550000 0  350000 550000 0  400000 550000 0  450000 550000 0  500000 550000 0  550000 550000 0  600000 550000 0  650000 550000 0  700000 550000 0  750000 550000 0  800000 550000 0  850000 550000 0  900000 550000 0  950000 550000 0  1000000 550000 0  0 600000 0  50000 600000 0  100000 600000 0  150000 600000 0  200000 600000 0  250000 600000 0  300000 600000 0  350000 600000 0  400000 600000 0  450000 600000 0  500000 600000 0  550000 600000 0  600000 600000 0  650000 600000 0  700000 600000 0  750000 600000 0  800000 600000 0  850000 600000 0  900000 600000 0  950000 600000 0  1000000 600000 0  0 650000 0  50000 650000 0  100000 650000 0  150000 650000 0  200000 650000 0  250000 650000 0  300000 650000 0  350000 650000 0  400000 650000 0  450000 650000 0  500000 650000 0  550000 650000 0  600000 650000 0  650000 650000 0  700000 650000 0  750000 650000 0  800000 650000 0  850000 650000 0  900000 650000 0  950000 650000 0  1000000 650000 0  0 700000 0  50000 700000 0  100000 700000 0  150000 700000 0  200000 700000 0  250000 700000 0  300000 700000 0  350000 700000 0  400000 700000 0  450000 700000 0  500000 700000 0  550000 700000 0  600000 700000 0  650000 700000 0  700000 700000 0  750000 700000 0  800000 700000 0  850000 700000 0  900000 700000 0  950000 700000 0  1000000 700000 0  0 750000 0  50000 750000 0  100000 750000 0  150000 750000 0  200000 750000 0  250000 750000 0  300000 750000 0  350000 750000 0  400000 750000 0  450000 750000 0  500000 750000 0  550000 750000 0  600000 750000 0  650000 750000 0  700000 750000 0  750000 750000 0  800000 750000 0  850000 750000 0  900000 750000 0  950000 750000 0  1000000 750000 0  0 800000 0  50000 800000 0  100000 800000 0  150000 800000 0  200000 800000 0  250000 800000 0  300000 800000 0  350000 800000 0  400000 800000 0  450000 800000 0  500000 800000 0  550000 800000 0  600000 800000 0  650000 800000 0  700000 800000 0  750000 800000 0  800000 800000 0  850000 800000 0  900000 800000 0  950000 800000 0  1000000 800000 0  0 850000 0  50000 850000 0  100000 850000 0  150000 850000 0  200000 850000 0  250000 850000 0  300000 850000 0  350000 850000 0  400000 850000 0  450000 850000 0  500000 850000 0  550000 850000 0  600000 850000 0  650000 850000 0  700000 850000 0  750000 850000 0  800000 850000 0  850000 850000 0  900000 850000 0  950000 850000 0  1000000 850000 0  0 900000 0  50000 900000 0  100000 900000 0  150000 900000 0  200000 900000 0  250000 900000 0  300000 900000 0  350000 900000 0  400000 900000 0  450000 900000 0  500000 900000 0  550000 900000 0  600000 900000 0  650000 900000 0  700000 900000 0  750000 900000 0  800000 900000 0  850000 900000 0  900000 900000 0  950000 900000 0  1000000 900000 0  0 950000 0  50000 950000 0  100000 950000 0  150000 950000 0  200000 950000 0  250000 950000 0  300000 950000 0  350000 950000 0  400000 950000 0  450000 950000 0  500000 950000 0  550000 950000 0  600000 950000 0  650000 950000 0  700000 950000 0  750000 950000 0  800000 950000 0  850000 950000 0  900000 950000 0  950000 950000 0  1000000 950000 0  0 1000000 0  50000 1000000 0  100000 1000000 0  150000 1000000 0  200000 1000000 0  250000 1000000 0  300000 1000000 0  350000 1000000 0  400000 1000000 0  450000 1000000 0  500000 1000000 0  550000 1000000 0  600000 1000000 0  650000 1000000 0  700000 1000000 0  750000 1000000 0  800000 1000000 0  850000 1000000 0  900000 1000000 0  950000 1000000 0  1000000 1000000 0  0 1050000 0  50000 1050000 0  100000 1050000 0  150000 1050000 0  200000 1050000 0  250000 1050000 0  300000 1050000 0  350000 1050000 0  400000 1050000 0  450000 1050000 0  500000 1050000 0  550000 1050000 0  600000 1050000 0  650000 1050000 0  700000 1050000 0  750000 1050000 0  800000 1050000 0  850000 1050000 0  900000 1050000 0  950000 1050000 0  1000000 1050000 0  0 1100000 0  50000 1100000 0  100000 1100000 0  150000 1100000 0  200000 1100000 0  250000 1100000 0  300000 1100000 0  350000 1100000 0  400000 1100000 0  450000 1100000 0  500000 1100000 0  550000 1100000 0  600000 1100000 0  650000 1100000 0  700000 1100000 0  750000 1100000 0  800000 1100000 0  850000 1100000 0  900000 1100000 0  950000 1100000 0  1000000 1100000 0  0 1150000 0  50000 1150000 0  100000 1150000 0  150000 1150000 0  200000 1150000 0  250000 1150000 0  300000 1150000 0  350000 1150000 0  400000 1150000 0  450000 1150000 0  500000 1150000 0  550000 1150000 0  600000 1150000 0  650000 1150000 0  700000 1150000 0  750000 1150000 0  800000 1150000 0  850000 1150000 0  900000 1150000 0  950000 1150000 0  1000000 1150000 0  0 1200000 0  50000 1200000 0  100000 1200000 0  150000 1200000 0  200000 1200000 0  250000 1200000 0  300000 1200000 0  350000 1200000 0  400000 1200000 0  450000 1200000 0  500000 1200000 0  550000 1200000 0  600000 1200000 0  650000 1200000 0  700000 1200000 0  750000 1200000 0  800000 1200000 0  850000 1200000 0  900000 1200000 0  950000 1200000 0  1000000 1200000 0  0 1250000 0  50000 1250000 0  100000 1250000 0  150000 1250000 0  200000 1250000 0  250000 1250000 0  300000 1250000 0  350000 1250000 0  400000 1250000 0  450000 1250000 0  500000 1250000 0  550000 1250000 0  600000 1250000 0  650000 1250000 0  700000 1250000 0  750000 1250000 0  800000 1250000 0  850000 1250000 0  900000 1250000 0  950000 1250000 0  1000000 1250000 0  0 1300000 0  50000 1300000 0  100000 1300000 0  150000 1300000 0  200000 1300000 0  250000 1300000 0  300000 1300000 0  350000 1300000 0  400000 1300000 0  450000 1300000 0  500000 1300000 0  550000 1300000 0  600000 1300000 0  650000 1300000 0  700000 1300000 0  750000 1300000 0  800000 1300000 0  850000 1300000 0  900000 1300000 0  950000 1300000 0  1000000 1300000 0  0 1350000 0  50000 1350000 0  100000 1350000 0  150000 1350000 0  200000 1350000 0  250000 1350000 0  300000 1350000 0  350000 1350000 0  400000 1350000 0  450000 1350000 0  500000 1350000 0  550000 1350000 0  600000 1350000 0  650000 1350000 0  700000 135
[...]
<PointData  Scalars="f_1519"> 
<DataArray  type="Float64"  Name="f_1519"  format="ascii">-6.7967387994726758e-01  -5.6589264864287514e-01  -4.4042317180338958e-01  -3.0683521117499851e-01  -1.6913218954871845e-01  -2.8556186157435069e-02  1.1422381527927300e-01  2.5869619511192038e-01  4.0439853287090854e-01  5.5088055938141978e-01  6.9768957998412395e-01  8.4436366354229975e-01  9.9042626432841452e-01  1.1353776336547268e+00  1.2786771967943149e+00  1.4197068685516705e+00  1.5576953789752817e+00  1.6915518781921228e+00  1.8193614340980311e+00  1.9361031197453955e+00  2.0126221826084856e+00  -6.0751335613942359e-01  -5.5512183423269224e-01  -4.3792775744759876e-01  -3.0631346364695333e-01  -1.6916503215558748e-01  -2.8764709750809875e-02  1.1396592208616220e-01  2.5844286790654963e-01  4.0417791168855144e-01  5.5071005031964815e-01  6.9758200875152487e-01  8.4433079644812326e-01  9.9048191950191722e-01  1.1355412294375005e+00  1.2789766836595586e+00  1.4201714729872361e+00  1.5582881174903283e+00  1.6918193206600523e+00  1.8169727823396622e+00  1.9218416471404796e+00  1.9685155543664150e+00  -5.2404205519719893e-01  -4.9805913737138685e-01  -4.0970898186093735e-01  -2.9217210913357711e-01  -1.6170101368991979e-01  -2.4677357788786804e-02  1.1622932056972529e-01  2.5966856909251090e-01  4.0478687409487518e-01  5.5092713583887187e-01  6.9750916616009184e-01  8.4397514196121648e-01  9.8975558558585941e-01  1.1342318043910602e+00  1.2766681937938833e+00  1.4160609314159760e+00  1.5507700818799643e+00  1.6775963659200830e+00  1.7895229812047215e+00  1.8709469105223158e+00  1.8928305003429808e+00  -4.4414945589027005e-01  -4.2844350918972934e-01  -3.6193932561672415e-01  -2.6198296194587961e-01  -1.4288540798847907e-01  -1.2906784068793812e-02  1.2358263140614897e-01  2.6416220980424499e-01  4.0733474904208128e-01  5.5203941436541515e-01  6.9741547363793388e-01  8.4267580434291633e-01  9.8702052255921968e-01  1.1295472455089908e+00  1.2691138151219445e+00  1.4040839045683953e+00  1.5318285168599020e+00  1.6477721543861856e+00  1.7437832064918095e+00  1.8064347848025686e+00  1.8193063161675895e+00  -3.6867978267276219e-01  -3.5760224468310453e-01  -3.0535845142400275e-01  -2.2075349207666645e-01  -1.1415106003777759e-01  6.6784777453239869e-03  1.3667038170269263e-01  2.7260157992857209e-01  4.1232952195651706e-01  5.5430540499917624e-01  6.9728481558420041e-01  8.4014676494091445e-01  9.8175824399608125e-01  1.1208373521897399e+00  1.2557695067171946e+00  1.3843211739591712e+00  1.5031845047757979e+00  1.6073155447374032e+00  1.6892302219217219e+00  1.7391128022674764e+00  1.7483448222955902e+00  -2.9797313903097683e-01  -2.8935819254460982e-01  -2.4650786388021431e-01  -1.7398496145002001e-01  -7.8906734362522588e-02  3.2290316050171540e-02  1.5467354284116788e-01  2.8467140741992020e-01  4.1968141257218661e-01  5.5771305903246382e-01  6.9712188812278220e-01  8.3641422878940586e-01  9.7408731039851126e-01  1.1084701250184532e+00  1.2375324554661200e+00  1.3586336741140486e+00  1.4682025145295825e+00  1.5614076343073506e+00  1.6320600534984813e+00  1.6733611378856244e+00  1.6807772463969468e+00  -2.3249323719902051e-01  -2.2537861300458836e-01  -1.8898150138460659e-01  -1.2573701294877357e-01  -4.0535301750217211e-02  6.1533939613269292e-02  1.7605154430960132e-01  2.9944871421578623e-01  4.2888579456184989e-01  5.6204672053948601e-01  6.9693914730275741e-01  8.3172082935894875e-01  9.6454427753469385e-01  1.0934033743456633e+00  1.2159669330716893e+00  1.3293946134108643e+00  1.4301580285147097e+00  1.5139491929685871e+00  1.5758643648197750e+00  1.6112044347037833e+00  1.6175220351782411e+00  -1.7272502812084889e-01  -1.6661510811575370e-01  -1.3484533656361575e-01  -7.8741628240936390e-02  -1.7477826840737059e-03  9.2143444809001093e-02  1.9910984850120156e-01  3.1577504776642079e-01  4.3923676061187006e-01  5.6697969171583751e-01  6.9674899688795067e-01  8.2641768536916860e-01  9.5385700021140485e-01  1.0768089172051312e+00  1.1927603501346957e+00  1.2988287345431608e+00  1.3916907579994009e+00  1.4676224670336719e+00  1.5227664320153393e+00  1.5537972597439225e+00  1.5593611674199619e+00  -1.1910733201736215e-01  -1.1371313280855945e-01  -8.5375711346889316e-02  -3.4816807150009475e-02  3.5449021677226140e-02  1.2225026282268910e-01  2.2230843981908005e-01  3.3250877645051419e-01  4.4999419684393688e-01  5.7215426125457436e-01  6.9656048722709640e-01  8.2087906623179130e-01  9.4277687479479089e-01  1.0598292014148634e+00  1.1694375609191598e+00  1.2687729092784858e+00  1.3547729518593701e+00  1.4242396088010707e+00  1.4740989866158039e+00  1.5019114248102139e+00  1.5069207129874906e+00  -7.2009662716103068e-02  -6.7145129486293795e-02  -4.1410228317556010e-02  4.8151066041808568e-03  6.9617001180573471e-02  1.5041581534037804e-01  2.4437928200880038e-01  3.4865507994361172e-01  4.6048462667130896e-01  5.7723483152531341e-01  6.9637882978477694e-01  8.1544936726118888e-01  9.3198124551379791e-01  1.0434549477083470e+00  1.1472533430905818e+00  1.2406470223427561e+00  1.3208299803258978e+00  1.3850331729826117e+00  1.4307470533454238e+00  1.4561054385523384e+00  1.4606924165818993e+00  -3.1728940211533344e-02  -2.7264054674850043e-02  -3.5197026543964819e-03  3.9322820553906804e-02  9.9741823628014425e-02  1.7557607892440738e-01  2.6433931820344420e-01  3.6341058269395204e-01  4.7014662465712787e-01  5.8193513737362468e-01  6.9620615099928440e-01  8.1041790083898813e-01  9.2203119314774495e-01  1.0284844955978933e+00  1.1271817512179052e+00  1.2155061934339577e+00  1.2908750652460823e+00  1.3508503508161076e+00  1.3933207545842514e+00  1.4167947867139443e+00  1.4210571443234068e+00  1.5056431645682155e-03  5.6684949820379193e-03  2.7900895174686153e-02  6.8138428085153885e-02  1.2511680265768715e-01  1.9696619289724213e-01  2.8145820628305090e-01  3.7616052460830407e-01  4.7854032629791227e-01  5.8602688623102128e-01  6.9604251295115960e-01  8.0601239100882482e-01  9.1336421101557119e-01  1.0155282033872215e+00  1.1099480135474777e+00  1.1941127561705949e+00  1.2656198818150435e+00  1.3222766121009648e+00  1.3622480652122031e+00  1.3842887489850413e+00  1.3883046558518390e+00  2.7524627227542502e-02  3.1463631865250516e-02  5.2579709974236770e-02  9.0876618638057419e-02  1.4525753179949338e-01  2.1405093088084415e-01  2.9521289953340724e-01  3.8645508645549537e-01  4.8533816974535082e-01  5.8933767492064759e-01  6.9588677605772153e-01  8.0240269500949624e-01  9.0630474102890091e-01  1.0050325541984224e+00  1.0960729949670900e+00  1.1770033641569659e+00  1.2455569825311177e+00  1.2997148973953430e+00  1.3378291130088684e+00  1.3588141125705089e+00  1.3626501754563021e+00  4.6209641416548063e-02  4.9991175255382152e-02  7.0334901727194504e-02  1.0728237451990121e-01  1.5984139280430473e-01  2.2646872202084029e-01  3.0524416004407318e-01  3.9398043031110186e-01  4.9030855106074445e-01  5.9174417847562744e-01  6.9573719481286334e-01  7.9970867858315964e-01  9.0108117968125945e-01  9.9730908592527778e-01  1.0859157949451517e+00  1.1645434037682552e+00  1.2310187165743367e+00  1.2834373472357434e+00  1.3202705405240394e+00  1.3405324110822876e+00  1.3442482858194502e+00  5.7485589717403300e-02  6.1168950995853885e-02  8.1052990821814747e-02  1.1719683850935492e-01  1.6866599625893322e-01  2.3399013246012723e-01  3.1132113263575140e-01  3.9853243679351719e-01  4.9329922177108432e-01  5.9316442750436194e-01  6.9559177167881470e-01  7.9800853559510654e-01  8.9784275642645561e-01  9.9256045251167846e-01  1.0797084748225128e+00  1.1569675233558603e+00  1.2222179587725852e+00  1.2736193284795925e+00  1.3097081940412483e+00  1.3295528671251449e+00  1.3332041981251466e+00  6.1314639359945959e-02  6.4955171049220536e-02  8.4674988223628123e-02  1.2053575588470650e-01  1.7162219851426372e-01  2.3648964693784574e-01  3.1331591730956027e-01  3.9999673713810008e-01  4.9422395726616841e-01  5.9355130578456106e-01  6.9544843327987083e-01  7.9734556077517671e-01  8.9667290929356946e-01  9.9090012942163619e-01  1.0775809492501729e+00  1.1544072196218884e+00  1.2192746680454694e+00  1.2703611106750268e+00  1.3062218783361033e+00  1.3259416955105097e+00  1.3295822271997846e+00  5.7692668434583219e-02  6.1343999434584996e-02  8.1188672518483038e-02  1.1727753808013835e-01  1.6867890778714728e-01  2.3392934320387276e-01  3.1118839173722207e-01  3.9833641404805903e-01  4.9305411013328215e-01  5.9288833096463278e-01  6.9530509488092707e-01  7.9773243905537794e-01  8.9759764478865345e-01  9.9236442976621853e-01  1.0795757339239820e+00  1.1569067340996069e+00  1.2222308703008029e+00  1.2737000280503794e+00  1.3098438757379200e+00  1.3297279155638797e+00  1.3334112768423301e+00  4.6648580740278840e-02  5.0364455477442102e-02  7.0626326035690856e-02  1.0745951932398751e-01  1.5987814998539501e-01  2.2635346279147808e-01  3.0498107161458426e-01  3.9358778063445965e-01  4.8981568687847993e-01  5.9118818797658235e-01  6.9515967174688076e-01  7.9915268808411555e-01  9.0058831549899621e-01  9.9691643624863757e-01  1.0856527065156656e+00  1.1644281445388984e+00  1.2310554737554347e+00  1.2836144920398360e+00  1.3205619648325444e+00  1.3409056913043567e+00  1.3446872251431905e+00  2.8246691103430692e-02  3.2082753989223695e-02  5.3067753550864800e-02  9.1181969164390947e-02  1.4533988402861761e-01  2.1389350240276936e-01  2.9482387159264950e-01  3.8586431236131791e-01  4.8459212553084219e-01  5.8849417155024897e-01  6.9501009050202722e-01  8.0155919163910050e-01  9.0555869681439527e-01  1.0044417801042476e+00  1.0956839670263359e+00  1.1768459356788981e+00  1.2456393347602510e+00  1.3000202479216862e+00  1.3383171565855045e+00  1.3594332346944897e+00  1.3633722393321979e+00  2.5922107078975381e-03  6.6081175746942975e-03  2.8648801347534426e-02  6.8620254458773233e-02  1.2527698474469645e-01  1.9678411038914578e-01  2.8094885301226691e-01  3.7536866317252393e-01  4.7753265554417729e-01  5.8488447555092571e-01  6.9485435360859382e-01  8.0486998032873269e-01  9.1235654026183965e-01  1.0147363419514446e+00  1.1094386602766972e+00  1.1939306736625053e+00  1.2657800639020633e+00  1.3227584384745941e+00  1.3629959713850579e+00  1.3852283715777043e+00  1.3893912233951746e+00  -3.0160277763663118e-02  -2.5897920154200709e-02  -2.4238880245066462e-03  4.0046515743637871e-02  1.0002180131366503e-01  1.7539067312579235e-01  2.6371511534184661e-01  3.6241237096185941e-01  4.6886567341201174e-01  5.8047896572077018e-01  6.9469071556047646e-01  8.0896172918613662e-01  9.2075024190263299e-01  1.0274862838658072e+00  1.1265575483563144e+00  1.2153207876353507e+00  1.2911550429317424e+00  1.3515740460058467e+00  1.3944165692141475e+00  1.4181609212345980e+00  1.4226258067712814e+00  -6.9795550022148101e-02  -6.5208571992587658e-02  -3.9850186785672266e-02  5.8636935771419953e-03  7.0066886233857595e-02  1.5024984421700244e-01  2.4364352346917834e-01  3.4744191885141412e-01  4.5891562104596845e-01  5.7544749929857986e-01  6.9451803677499391e-01  8.1366203503445844e-01  9.3041223988846289e-01  1.0422417866161591e+00  1.1465175845509696e+00  1.2404810512193893e+00  1.3212798653791906e+00  1.3860817599555788e+00  1.4323070948773129e+00  1.4580419960460482e+00  1.4629065292758561e+00  -1.1602384642773342e-01  -1.1101455825045582e-01  -8.3202120056045395e-02  -3.3342742241309696e-02  3.6123914700394180e-02  1.2212395728128023e-01  2.2145930564060884e-01  3.3106766514490854e-01  4.4811999176498551e-01  5.7001780032798854e-01  6.9433637933268566e-01  8.1874260530520959e-01  9.4090266971584791e-01  1.0583880901092682e+00  1.1685884267407007e+00  1.2686466037370874e+00  1.3554478448825453e+00  1.4257136737097766e+00  1.4762725779066515e+00  1.5046099993683191e+00  1.5100041985771220e+00  -1.6846430086019781e-01  -1.6290039318415825e-01  -1.3186956545557377e-01  -7.6725600473904754e-02  -7.9389143962938099e-04  9.2068132016614471e-02  1.9813651642508265e-01  3.1408794935465073e-01  4.3703986634838099e-01  5.6447918119061924e-01  6.9414786967183983e-01  8.2391717484395655e-01  9.5166010594792472e-01  1.0751218187933720e+00  1.1917870180585883e+00  1.2987534217507835e+00  1.3926446492438542e+00  1.4696384948007126e+00  1.5257422031233863e+00  1.5575119746755208e+00  1.5636218946806153e+00  -2.2662516861846899e-01  -2.2030756814401192e-01  -1.8496749826000339e-01  -1.2305232640881304e-01  -3.9261161954930290e-02  6.1502253148919536e-02  1.7492993348809863e-01  2.9749349221412902e-01  4.2635258902510270e-01  5.5917603720085063e-01  6.9395771925704386e-01  8.2885014602031770e-01  9.6201107199795433e-01  1.0914481523440145e+00  1.2148453222501974e+00  1.3293629269465244e+00  1.4314321683100066e+00  1.5166338795085594e+00  1.5798783679443860e+00  1.6162754795643643e+00  1.6233901037587954e+00  -2.8988037983716597e-01  -2.8246427132584451e-01  -2.4116318693869893e-01  -1.7051076774756532e-01  -7.7305647969793903e-02  3.2263192445742557e-02  1.5336441109367610e-01  2.8242674154135022e-01  4.1680955616129456e-01  5.5448263777040319e-01  6.9377497843702962e-01  8.3318380752734955e-01  9.7121545398762787e-01  1.1062254591398908e+00  1.2362233237186393e+00  1.3586065505096321e+00  1.4698036009223199e+00  1.5648818280098127e+00  1.6374047304400008e+00  1.6802550591043921e+00  1.6888700055907582e+00  -3.5744795573580246e-01  -3.4821593570768855e-01  -2.9833335536193201e-01  -2.1641867817761087e-01  -1.1228763821600227e-01  6.5756926006276754e-03  1.3512735984261071e-01  2.7005951437007181e-01  4.0913862256373285e-01  5.5075010161890137e-01  6.9361205097561851e-01  8.3659146156064423e-01  9.7856734460330297e-01  1.1182952866312461e+00  1.2542264848571232e+00  1.3842183888144890e+00  1.5050479265975822e+00  1.6116503586364652e+00  1.6962553179837963e+00  1.7484991112428925e+00  1.7595766492325495e+00  -4.2840944960779509e-01  -4.1553791824277364e-01  -3.5288633993201024e-01  -2.5687528782638414e-01  -1.4093165030009813e-01  -1.3187038008587363e-02  1.2178305143786729e-01  2.6134962105082693e-01  4.0387634400060052e-01  5.4822106221690514e-01  6.9348139292189037e-01  8.3885745219441055e-01  9.8356211751774369e-01  1.1267346567555792e+00  1.2673142351536753e+00  1.4038036506286125e+00  1.5337822745482914e+00  1.6528798285056843e+00  1.7528361921765216e+00  1.8193403757495215e+00  1.8350463224500613e+00  -5.0193363378318012e-01  -4.8005004396251372e-01  -3.9862611464491593e-01  -2.8669949936027422e-01  -1.5987321532015517e-01  -2.5164064856163428e-02  1.1422867276593339e-01  2.5666506216876156e-01  4.0114128097396340e-01  5.4692172459860777e-01  6.9338770039973585e-01  8.3996973072095638e-01  9.8610999246495412e-01  1.1312282974673162e+00  1.2746675459901009e+00  1.4155742243486091e+00  1.5525978802497356e+00  1.6830689756933859e+00  1.8006058484207395e+00  1.8889560039311830e+00  1.9149389217569950e+00  -5.7761868780661241e-01  -5.3094478058067618e-01  -4.2607591577985759e-01  -3.0092245410024354e-01  -1.6739125093051635e-01  -2.9274606427420413e-02  1.1192018290025889e-01  2.5535563712232062e-01  4.0041494705790676e-01  5.4656607011170222e-01  6.9331485780830293e-01  8.4018681624018132e-01  9.8671895487127848e-01  1.1324539986532793e+00  1.2769309444736654e+00  1.4196615763106337e+00  1.5600618987154053e+00  1.6972103302067647e+00  1.8288246240074053e+00  1.9460187007924925e+00  1.9984102226992240e+00  -6.2172531604868198e-01  -5.4520625318559113e-01  -4.2846456753822482e-01  -3.0065501163231384e-01  -1.6679851241546900e-01  -2.8810001991854933e-02  1.1221966976550406e-01  2.5551923290509504e-01  4.0047060223141023e-01  5.4653320301752684e-01  6.9320728657570474e-01  8.4001630717840869e-01  9.8649833368892181e-01  1.1322006714479091e+00  1.2766730512805557e+00  1.4194530527172600e+00  1.5600290561085375e+00  1.6977320777348113e+00  1.8313200383631960e+00  1.9567895152026775e+00  2.0705707465070691e+00  </DataArray> 
</PointData> 
</Piece>
</UnstructuredGrid>
</VTKFile>