<?xml version="1.0"?>
<VTKFile type="UnstructuredGrid"  version="0.1"  >
<UnstructuredGrid>
<Piece  NumberOfPoints="651" NumberOfCells="1200">
<Points>
<DataArray  type="Float64"  NumberOfComponents="3"  format="ascii">0 0 0  50000 0 0  100000 0 0  150000 0 0  200000 0 0  250000 0 0  300000 0 0  350000 0 0  400000 0 0  450000 0 0  500000 0 0  550000 0 0  600000 0 0  650000 0 0  700000 0 0  750000 0 0  800000 0 0  850000 0 0  900000 0 0  950000 0 0  1000000 0 0  0 50000 0  50000 50000 0  100000 50000 0  150000 50000 0  200000 50000 0  250000 50000 0  300000 50000 0  350000 50000 0  400000 50000 0  450000 50000 0  500000 50000 0  550000 50000 0  600000 50000 0  650000 50000 0  700000 50000 0  750000 50000 0  800000 50000 0  850000 50000 0  900000 50000 0  950000 50000 0  1000000 50000 0  0 100000 0  50000 100000 0  100000 100000 0  150000 100000 0  200000 100000 0  250000 100000 0  300000 100000 0  350000 100000 0  400000 100000 0  450000 100000 0  500000 100000 0  550000 100000 0  600000 100000 0  650000 100000 0  700000 100000 0  750000 100000 0  800000 100000 0  850000 100000 0  900000 100000 0  950000 100000 0  1000000 100000 0  0 150000 0  50000 150000 0  100000 150000 0  150000 150000 0  200000 150000 0  250000 150000 0  300000 150000 0  350000 150000 0  400000 150000 0  450000 150000 0  500000 150000 0  550000 150000 0  600000 150000 0  650000 150000 0  700000 150000 0  750000 150000 0  800000 150000 0  850000 150000 0  900000 150000 0  950000 150000 0  1000000 150000 0  0 200000 0  50000 200000 0  100000 200000 0  150000 200000 0  200000 200000 0  250000 200000 0  300000 200000 0  350000 200000 0  400000 200000 0  450000 200000 0  500000 200000 0  550000 200000 0  600000 200000 0  650000 200000 0  700000 200000 0  750000 200000 0  800000 200000 0  850000 200000 0  900000 200000 0  950000 200000 0  1000000 200000 0  0 250000 0  50000 250000 0  100000 250000 0  150000 250000 0  200000 250000 0  250000 250000 0  300000 250000 0  350000 250000 0  400000 250000 0  450000 250000 0  500000 250000 0  550000 250000 0  600000 250000 0  650000 250000 0  700000 250000 0  750000 250000 0  800000 250000 0  850000 250000 0  900000 250000 0  950000 250000 0  1000000 250000 0  0 300000 0  50000 300000 0  100000 300000 0  150000 300000 0  200000 300000 0  250000 300000 0  300000 300000 0  350000 300000 0  400000 300000 0  450000 300000 0  500000 300000 0  550000 300000 0  600000 300000 0  650000 300000 0  700000 300000 0  750000 300000 0  800000 300000 0  850000 300000 0  900000 300000 0  950000 300000 0  1000000 300000 0  0 350000 0  50000 350000 0  100000 350000 0  150000 350000 0  200000 350000 0  250000 350000 0  300000 350000 0  350000 350000 0  400000 350000 0  450000 350000 0  500000 350000 0  550000 350000 0  600000 350000 0  650000 350000 0  700000 350000 0  750000 350000 0  800000 350000 0  850000 350000 0  900000 350000 0  950000 350000 0  1000000 350000 0  0 400000 0  50000 400000 0  100000 400000 0  150000 400000 0  200000 400000 0  250000 400000 0  300000 400000 0  350000 400000 0  400000 400000 0  450000 400000 0  500000 400000 0  550000 400000 0  600000 400000 0  650000 400000 0  700000 400000 0  750000 400000 0  800000 400000 0  850000 400000 0  900000 400000 0  950000 400000 0  1000000 400000 0  0 450000 0  50000 450000 0  100000 450000 0  150000 450000 0  200000 450000 0  250000 450000 0  300000 450000 0  350000 450000 0  400000 450000 0  450000 450000 0  500000 450000 0  550000 450000 0  600000 450000 0  650000 450000 0  700000 450000 0  750000 450000 0  800000 450000 0  850000 450000 0  900000 450000 0  950000 450000 0  1000000 450000 0  0 500000 0  50000 500000 0  100000 500000 0  150000 500000 0  200000 500000 0  250000 500000 0  300000 500000 0  350000 500000 0  400000 500000 0  450000 500000 0  500000 500000 0  550000 500000 0  600000 500000 0  650000 500000 0  700000 500000 0  750000 500000 0  800000 500000 0  850000 500000 0  900000 500000 0  950000 500000 0  1000000 500000 0  0 550000 0  50000 550000 0  100000 550000 0  150000 550000 0  200000 550000 0  250000 550000 0  300000 550000 0  350000 550000 0  400000 550000 0  450000 550000 0  500000 550000 0  550000 550000 0  600000 550000 0  650000 550000 0  700000 550000 0  750000 550000 0  800000 550000 0  850000 550000 0  900000 550000 0  950000 550000 0  1000000 550000 0  0 600000 0  50000 600000 0  100000 600000 0  150000 600000 0  200000 600000 0  250000 600000 0  300000 600000 0  350000 600000 0  400000 600000 0  450000 600000 0  500000 600000 0  550000 600000 0  600000 600000 0  650000 600000 0  700000 600000 0  750000 600000 0  800000 600000 0  850000 600000 0  900000 600000 0  950000 600000 0  1000000 600000 0  0 650000 0  50000 650000 0  100000 650000 0  150000 650000 0  200000 650000 0  250000 650000 0  300000 650000 0  350000 650000 0  400000 650000 0  450000 650000 0  500000 650000 0  550000 650000 0  600000 650000 0  650000 650000 0  700000 650000 0  750000 650000 0  800000 650000 0  850000 650000 0  900000 650000 0  950000 650000 0  1000000 650000 0  0 700000 0  50000 700000 0  100000 700000 0  150000 700000 0  200000 700000 0  250000 700000 0  300000 700000 0  350000 700000 0  400000 700000 0  450000 700000 0  500000 700000 0  550000 700000 0  600000 700000 0  650000 700000 0  700000 700000 0  750000 700000 0  800000 700000 0  850000 700000 0  900000 700000 0  950000 700000 0  1000000 700000 0  0 750000 0  50000 750000 0  100000 750000 0  150000 750000 0  200000 750000 0  250000 750000 0  300000 750000 0  350000 750000 0  400000 750000 0  450000 750000 0  500000 750000 0  550000 750000 0  600000 750000 0  650000 750000 0  700000 750000 0  750000 750000 0  800000 750000 0  850000 750000 0  900000 750000 0  950000 750000 0  1000000 750000 0  0 800000 0  50000 800000 0  100000 800000 0  150000 800000 0  200000 800000 0  250000 800000 0  300000 800000 0  350000 800000 0  400000 800000 0  450000 800000 0  500000 800000 0  550000 800000 0  600000 800000 0  650000 800000 0  700000 800000 0  750000 800000 0  800000 800000 0  850000 800000 0  900000 800000 0  950000 800000 0  1000000 800000 0  0 850000 0  50000 850000 0  100000 850000 0  150000 850000 0  200000 850000 0  250000 850000 0  300000 850000 0  350000 850000 0  400000 850000 0  450000 850000 0  500000 850000 0  550000 850000 0  600000 850000 0  650000 850000 0  700000 850000 0  750000 850000 0  800000 850000 0  850000 850000 0  900000 850000 0  950000 850000 0  1000000 850000 0  0 900000 0  50000 900000 0  100000 900000 0  150000 900000 0  200000 900000 0  250000 900000 0  300000 900000 0  350000 900000 0  400000 900000 0  450000 900000 0  500000 900000 0  550000 900000 0  600000 900000 0  650000 900000 0  700000 900000 0  750000 900000 0  800000 900000 0  850000 900000 0  900000 900000 0  950000 900000 0  1000000 900000 0  0 950000 0  50000 950000 0  100000 950000 0  150000 950000 0  200000 950000 0  250000 950000 0  300000 950000 0  350000 950000 0  400000 950000 0  450000 950000 0  500000 950000 0  550000 950000 0  600000 950000 0  650000 950000 0  700000 950000 0  750000 950000 0  800000 950000 0  850000 950000 0  900000 950000 0  950000 950000 0  1000000 950000 0  0 1000000 0  50000 1000000 0  100000 1000000 0  150000 1000000 0  200000 1000000 0  250000 1000000 0  300000 1000000 0  350000 1000000 0  400000 1000000 0  450000 1000000 0  500000 1000000 0  550000 1000000 0  600000 1000000 0  650000 1000000 0  700000 1000000 0  750000 1000000 0  800000 1000000 0  850000 1000000 0  900000 1000000 0  950000 1000000 0  1000000 1000000 0  0 1050000 0  50000 1050000 0  100000 1050000 0  150000 1050000 0  200000 1050000 0  250000 1050000 0  300000 1050000 0  350000 1050000 0  400000 1050000 0  450000 1050000 0  500000 1050000 0  550000 1050000 0  600000 1050000 0  650000 1050000 0  700000 1050000 0  750000 1050000 0  800000 1050000 0  850000 1050000 0  900000 1050000 0  950000 1050000 0  1000000 1050000 0  0 1100000 0  50000 1100000 0  100000 1100000 0  150000 1100000 0  200000 1100000 0  250000 1100000 0  300000 1100000 0  350000 1100000 0  400000 1100000 0  450000 1100000 0  500000 1100000 0  550000 1100000 0  600000 1100000 0  650000 1100000 0  700000 1100000 0  750000 1100000 0  800000 1100000 0  850000 1100000 0  900000 1100000 0  950000 1100000 0  1000000 1100000 0  0 1150000 0  50000 1150000 0  100000 1150000 0  150000 1150000 0  200000 1150000 0  250000 1150000 0  300000 1150000 0  350000 1150000 0  400000 1150000 0  450000 1150000 0  500000 1150000 0  550000 1150000 0  600000 1150000 0  650000 1150000 0  700000 1150000 0  750000 1150000 0  800000 1150000 0  850000 1150000 0  900000 1150000 0  950000 1150000 0  1000000 1150000 0  0 1200000 0  50000 1200000 0  100000 1200000 0  150000 1200000 0  200000 1200000 0  250000 1200000 0  300000 1200000 0  350000 1200000 0  400000 1200000 0  450000 1200000 0  500000 1200000 0  550000 1200000 0  600000 1200000 0  650000 1200000 0  700000 1200000 0  750000 1200000 0  800000 1200000 0  850000 1200000 0  900000 1200000 0  950000 1200000 0  1000000 1200000 0  0 1250000 0  50000 1250000 0  100000 1250000 0  150000 1250000 0  200000 1250000 0  250000 1250000 0  300000 1250000 0  350000 1250000 0  400000 1250000 0  450000 1250000 0  500000 1250000 0  550000 1250000 0  600000 1250000 0  650000 1250000 0  700000 1250000 0  750000 1250000 0  800000 1250000 0  850000 1250000 0  900000 1250000 0  950000 1250000 0  1000000 1250000 0  0 1300000 0  50000 1300000 0  100000 1300000 0  150000 1300000 0  200000 1300000 0  250000 1300000 0  300000 1300000 0  350000 1300000 0  400000 1300000 0  450000 1300000 0  500000 1300000 0  550000 1300000 0  600000 1300000 0  650000 1300000 0  700000 1300000 0  750000 1300000 0  800000 1300000 0  850000 1300000 0  900000 1300000 0  950000 1300000 0  1000000 1300000 0  0 1350000 0  50000 1350000 0  100000 1350000 0  150000 1350000 0  200000 1350000 0  250000 1350000 0  300000 1350000 0  350000 1350000 0  400000 1350000 0  450000 1350000 0  500000 1350000 0  550000 1350000 0  600000 1350000 0  650000 1350000 0  700000 135
[...]
<PointData  Scalars="f_1519"> 
<DataArray  type="Float64"  Name="f_1519"  format="ascii">-5.2557073744983063e+00  -4.7650919566377974e+00  -4.2209823860924969e+00  -3.6405059312835109e+00  -3.0415945544739396e+00  -2.4298310130363086e+00  -1.8082334232348070e+00  -1.1791035938985173e+00  -5.4451311086381526e-01  9.3528629723088022e-02  7.3300792588428809e-01  1.3718756540541805e+00  2.0080225729870564e+00  2.6392391516030460e+00  3.2631313860816791e+00  3.8769418846927834e+00  4.4771731086367641e+00  5.0587515425791691e+00  5.6125932194773656e+00  6.1155091066367495e+00  6.4418426843124195e+00  -4.9446548742058214e+00  -4.7211334505391669e+00  -4.2117482219911180e+00  -3.6390925686299260e+00  -3.0421233429995702e+00  -2.4308288271612755e+00  -1.8092439947562942e+00  -1.1799402638177370e+00  -5.4507718822306217e-01  9.3302761147269500e-02  7.3317402427559319e-01  1.3724878035101518e+00  2.0091470010051982e+00  2.6409697290788587e+00  3.2656066826406440e+00  3.8803288681960209e+00  4.4814147060301499e+00  5.0621344142445164e+00  5.6055447549803095e+00  6.0587461769740649e+00  6.2547374891813838e+00  -4.5854731715469628e+00  -4.4762576778826393e+00  -4.0927546130908024e+00  -3.5806966691493094e+00  -3.0120026930307411e+00  -2.4147140321954890e+00  -1.8004881607473029e+00  -1.1752060122041204e+00  -5.4258843684435032e-01  9.4491450876416139e-02  7.3349056846603711e-01  1.3719612376076125e+00  2.0074050494424469e+00  2.6371100232385007e+00  3.2578540559014582e+00  3.8652379167316773e+00  4.4520573103262819e+00  5.0042097220217681e+00  5.4906873924254880e+00  5.8425242001768876e+00  5.9318126456906368e+00  -4.2417258315983153e+00  -4.1766923105229621e+00  -3.8884778047663597e+00  -3.4528930813419949e+00  -2.9332277265274742e+00  -2.3659644648357729e+00  -1.7703016182167315e+00  -1.1568236356036319e+00  -5.3206130453733758e-01  9.9360058440062765e-02  7.3368508341716865e-01  1.3674768191122357e+00  1.9972409704686265e+00  2.6190341897487288e+00  3.2278614136469610e+00  3.8165539637466352e+00  4.3735644660176209e+00  4.8787403933745708e+00  5.2961912404711553e+00  5.5666238650566386e+00  5.6179860802307147e+00  -3.9169502601766277e+00  -3.8715995734978019e+00  -3.6454634292453356e+00  -3.2767468917817499e+00  -2.8112574202962795e+00  -2.2833635590001053e+00  -1.7153955990707623e+00  -1.1215063861082959e+00  -5.1107375617408557e-01  1.0913621438940604e-01  7.3369137715650490e-01  1.3576982937176039e+00  1.9762085107752783e+00  2.5836178889227708e+00  3.1728572797868502e+00  3.7341276833950308e+00  4.2528828419809113e+00  4.7068911839859986e+00  5.0631075754618688e+00  5.2781901808590090e+00  5.3145432351792712e+00  -3.6125344794298915e+00  -3.5775370701237392e+00  -3.3921887188871795e+00  -3.0760656801434636e+00  -2.6606184214131576e+00  -2.1743386350886089e+00  -1.6390156926414663e+00  -1.0703761727034193e+00  -4.7984487524095387e-01  1.2385997377942089e-01  7.3354552416240548e-01  1.3426814364413426e+00  1.9446953095018471e+00  2.5322714087484273e+00  3.0965073088774027e+00  3.6258013160430584e+00  4.1044296119227743e+00  4.5110763680684807e+00  4.8183914562404260e+00  4.9963470985221550e+00  5.0253248815718079e+00  -3.3304460796977531e+00  -3.3016986482645643e+00  -3.1442961491350783e+00  -2.8685109534001749e+00  -2.4959504473364476e+00  -2.0491645269132381e+00  -1.5476998712057140e+00  -1.0072999758684829e+00  -4.4045802399282225e-01  1.4265907699689143e-01  7.3331859851184256e-01  1.3234510913591184e+00  1.9049627793897406e+00  2.4690570402056253e+00  3.0054969740108817e+00  3.5017871939561003e+00  3.9423743367838364e+00  4.3082301025322378e+00  4.5776592835056045e+00  4.7298933166039161e+00  4.7544625754598320e+00  -3.0727740439860498e+00  -3.0481853962087841e+00  -2.9107728066833336e+00  -2.6659863333430049e+00  -2.3290460235816641e+00  -1.9176603015964386e+00  -1.4487552648849462e+00  -9.3724645967664244e-01  -3.9592371744549498e-01  1.6415153432371044e-01  7.3307786188633750e-01  1.3015221213980375e+00  1.8601430536073025e+00  2.3990247874815473e+00  2.9071169828777474e+00  3.3717231022346388e+00  3.7781765702161252e+00  4.1100083041374953e+00  4.3501283276460523e+00  4.4838235495226382e+00  4.5054043919799378e+00  -2.8414239227757849e+00  -2.8197863801066170e+00  -2.6971715606969204e+00  -2.4764213060385374e+00  -2.1686566580002911e+00  -1.7879611010822938e+00  -1.3488698741279177e+00  -8.6515946292417678e-01  -3.4943736542108200e-01  1.8679961290111971e-01  7.3287095952083126e-01  1.2785200932985969e+00  1.8134938146163484e+00  2.3271297875345329e+00  2.8079880153435033e+00  3.2435931793506607e+00  3.6204146185931267e+00  3.9242899796558302e+00  4.1415786334802940e+00  4.2614706965998774e+00  4.2808808341157674e+00  -2.6380099927934282e+00  -2.6185527711113177e+00  -2.5071413472632518e+00  -2.3051541037131860e+00  -2.0210659596502123e+00  -1.6663484543865661e+00  -1.2535734250489752e+00  -7.9537045128410899e-01  -3.0392639081625872e-01  2.0914777455561917e-01  7.3272414914136874e-01  1.2559450642572589e+00  1.7679626733271752e+00  2.2576840559755702e+00  2.7135738052576630e+00  3.1235824424372445e+00  3.4752969947044856e+00  3.7564379187216090e+00  3.9558492639584242e+00  4.0652478932196692e+00  4.0830271205130826e+00  -2.4638365936495146e+00  -2.4460255620985651e+00  -2.3431752285921741e+00  -2.1558215925973867e+00  -1.8907143889098181e+00  -1.5574794512924339e+00  -1.1671658181271387e+00  -7.3139044944969445e-01  -2.6184240899684247e-01  2.2994675926843175e-01  7.3264661260592612e-01  1.2350586344441188e+00  1.7259965410815945e+00  2.1941699452299677e+00  2.6281241454398701e+00  3.0162946504213148e+00  3.3472428723858068e+00  3.6101421690326010e+00  3.7955900315772526e+00  3.8969540994116807e+00  3.9134966770135096e+00  -2.3199162396476258e+00  -2.3033537508065050e+00  -2.2070044368630115e+00  -2.0309142380674823e+00  -1.7807022060368927e+00  -1.4647093857538496e+00  -1.0928498818811088e+00  -6.7591438572713325e-01  -2.2511332231196662e-01  2.4819519281857852e-01  7.3263599874166907e-01  1.2168539311073299e+00  1.6895057302243064e+00  2.1392537954429915e+00  2.5548079041780731e+00  2.9250607226197216e+00  3.2393603473850940e+00  3.4879563958496305e+00  3.6626633009652836e+00  3.7579325137794042e+00  3.7735502393622671e+00  -2.2070020765913130e+00  -2.1913722859681051e+00  -2.0998258173152746e+00  -1.9321268132578695e+00  -1.6931597523912398e+00  -1.3903917829794374e+00  -1.0329251850652850e+00  -6.3091976673012140e-01  -1.9517974902417212e-01  2.6313310649887955e-01  7.3268308578686836e-01  1.2020710173334825e+00  1.6599076359622105e+00  2.0948878593748437e+00  2.4959034366093404e+00  2.8522281975849566e+00  3.1538032464795362e+00  3.3916408414149259e+00  3.5583781084269370e+00  3.6491714656916452e+00  3.6641274596017377e+00  -2.1256236829300210e+00  -2.1106606080492245e+00  -2.0224440524531446e+00  -1.8605850680658744e+00  -1.6295099553582995e+00  -1.3361207871403284e+00  -9.8897539270519585e-01  -5.9779042535213955e-01  -1.7306399348321988e-01  2.7421385251238722e-01  7.3277503016035939e-01  1.1912308640405680e+00  1.6381996570832131e+00  2.0624346583261657e+00  2.4529823417417287e+00  2.7993965822296953e+00  3.0920262301511219e+00  3.3223859293200313e+00  3.4836376407395933e+00  3.5713771332596691e+00  3.5859056293829905e+00  -2.0761197420837765e+00  -2.0615875083769222e+00  -1.9753644705155042e+00  -1.8169934319803756e+00  -1.5906486783457170e+00  -1.3029112478460221e+00  -9.6202154053363476e-01  -5.7742967652120192e-01  -1.5944115318671398e-01  2.8107138095786327e-01  7.3289734101982662e-01  1.1846714826291227e+00  1.6250321448990357e+00  2.0427796312112543e+00  2.4270597382540968e+00  2.7675928724772474e+00  3.0549610905610902e+00  3.2809590758718237e+00  3.4390362356725168e+00  3.5250278518357723e+00  3.5393468219097404e+00  -2.0586633311472968e+00  -2.0443431890752630e+00  -1.9588524268122796e+00  -1.8017282182983956e+00  -1.5770618150429485e+00  -1.2913212439750550e+00  -9.5263230158063994e-01  -5.7034668864383831e-01  -1.5469656638292803e-01  2.8349241859238572e-01  7.3303491726922554e-01  1.1825774159460525e+00  1.6207664009213660e+00  2.0364165231822682e+00  2.4187021361190664e+00  2.7573910785134874e+00  3.0431316495813769e+00  3.2677980528368362e+00  3.4249222613507220e+00  3.5104130236137059e+00  3.5247331656857450e+00  -2.0732769873712944e+00  -2.0589580172973276e+00  -1.9729664011340748e+00  -1.8148892413333926e+00  -1.5888912560226598e+00  -1.3015230379388227e+00  -9.6098990371567394e-01  -5.7670979667282796e-01  -1.5896231036060487e-01  2.8139835190931817e-01  7.3317249351862868e-01  1.1849984535805878e+00  1.6255109877251583e+00  2.0434995110596312e+00  2.4280913750720625e+00  2.7689810823844541e+00  3.0567185128841587e+00  3.2830632665188206e+00  3.4414343050539680e+00  3.5276573429153952e+00  3.5421895766222478e+00  -2.1198357948445432e+00  -2.1053072987212289e+00  -2.0175678062011571e+00  -1.8563160947815946e+00  -1.6259563956126952e+00  -1.3333267476912856e+00  -9.8691250720331403e-01  -5.9636482378774114e-01  -1.7212982254477757e-01  2.7483897049788258e-01  7.3329480437810579e-01  1.1918559820260766e+00  1.6391338280216763e+00  2.0638602598905895e+00  2.4550452272436494e+00  2.8021906216787817e+00  3.0955797898967603e+00  3.3266549026043335e+00  3.4885138869916354e+00  3.5767304425877340e+00  3.5916935174685198e+00  -2.1980576250632713e+00  -2.1831016311531788e+00  -2.0923082738884755e+00  -1.9255710068764613e+00  -1.6877334119410894e+00  -1.3861583630465246e+00  -1.0298336020709045e+00  -6.2881802483640348e-01  -1.9383780142375456e-01  2.6399881720498253e-01  7.3338674875161824e-01  1.2029367280396082e+00  1.6612495835626526e+00  2.0969896012685849e+00  2.4989950196037540e+00  2.8564616175179123e+00  3.1592295869297349e+00  3.3981966477963641e+00  3.5658956518537699e+00  3.6574421205065937e+00  3.6730719111298016e+00  -2.3074804048237896e+00  -2.2918626792409302e+00  -2.1965934664268074e+00  -2.0218865613111645e+00  -1.7732905128466316e+00  -1.4589908880812679e+00  -1.0887380696396114e+00  -6.7318396090452615e-01  -2.2343589568582564e-01  2.4921590343115982e-01  7.3343383579683741e-01  1.2178746417199329e+00  1.6911831568504754e+00  2.1419842202656207e+00  2.5589197164195925e+00  2.9307792202923335e+00  3.2467720405753990e+00  3.4969840726059838e+00  3.6730742714014974e+00  3.7694235853449785e+00  3.7859860741861038e+00  -2.4474268424750045e+00  -2.4308842648731792e+00  -2.3295201970387529e+00  -2.1440723344941195e+00  -1.8811730378473142e+00  -1.5502248158828094e+00  -1.1620543109013675e+00  -7.2810011069146352e-01  -2.5992670654307276e-01  2.3101120009440668e-01  7.3342322193261333e-01  1.2361230752701107e+00  1.7279122435353866e+00  2.1974602839882311e+00  2.6332356526656784e+00  3.0235492858309687e+00  3.3567842234483400e+00  3.6218914271358940e+00  3.8092450631306733e+00  3.9120953966370484e+00  3.9299064281879947e+00  -2.6169572859745371e+00  -2.5991780586811393e+00  -2.4897794294198912e+00  -2.2903680841830867e+00  -2.0092271601659628e+00  -1.6575126078987079e+00  -1.2475039707191249e+00  -7.9161422143702620e-01  -3.0189283878861495e-01  2.1012477028131460e-01  7.3334568539721678e-01  1.2569220599829691e+00  1.7699962253548480e+00  2.2614402858227032e+00  2.7196432595875737e+00  3.1324182889251508e+00  3.4871357941887720e+00  3.7712239382517136e+00  3.9732111818017621e+00  4.0846226056498098e+00  4.1040798273319066e+00  -2.8148109995772130e+00  -2.7954008620613324e+00  -2.6755087989417401e+00  -2.4582201451172696e+00  -2.1543447840545680e+00  -1.7775233448120920e+00  -1.3419181808049270e+00  -8.6105995299593885e-01  -3.4742398007773795e-01  1.8754974124002410e-01  7.3319887501780112e-01  1.2792702216375202e+00  1.8155071999597243e+00  2.3312292974628193e+00  2.8149397086665537e+00  3.2540309356209072e+00  3.6347264925388747e+00  3.9424911405770930e+00  4.1632413952354446e+00  4.2858562146451309e+00  4.3074937573143020e+00  -3.0393345574413528e+00  -3.0177537149840443e+00  -2.8840584931074642e+00  -2.6439384695989139e+00  -2.3121067356775278e+00  -1.9056532676960254e+00  -1.4410471483391225e+00  -9.3295495294290831e-01  -3.9407321906865173e-01  1.6454771314062544e-01  7.3299197265233662e-01  1.3019183002149719e+00  1.8619935519841779e+00  2.4033162942153172e+00  2.9148250994236076e+00  3.3837301361350764e+00  3.7951158581202846e+00  4.1320561678815899e+00  4.3768426412218888e+00  4.5142552307473398e+00  4.5388438785246050e+00  -3.2883927409212199e+00  -3.2638234820653045e+00  -3.1115894489670128e+00  -2.8421602679936449e+00  -2.4763045022452106e+00  -2.0357173594174500e+00  -1.5394271394722090e+00  -1.0029872056669336e+00  -4.3889294485103880e-01  1.4261874317959305e-01  7.3275123602687775e-01  1.3234107575418323e+00  1.9065278585315439e+00  2.4733698104071862e+00  3.0137697057444068e+00  3.5152343614519013e+00  3.9620202818751027e+00  4.3345807879388127e+00  4.6103659836736854e+00  4.7677684828031595e+00  4.7965159142363509e+00  -3.5592550470331679e+00  -3.5302772639835225e+00  -3.3523216217017793e+00  -3.0450065335298357e+00  -2.6383597773841085e+00  -2.1597314815043847e+00  -1.6304374743386891e+00  -1.0662015742096831e+00  -4.7862547496309971e-01  1.2338839809740829e-01  7.3252431037635823e-01  1.3422098607593453e+00  1.9459147097797200e+00  2.5364460072421671e+00  3.1050855271801980e+00  3.6404084696273276e+00  4.1266882559518585e+00  4.5421355146821494e+00  4.8582585534258307e+00  5.0436069046623793e+00  5.0786043139685306e+00  -3.8484734006405921e+00  -3.8121203463203330e+00  -3.5970377409231791e+00  -3.2408213494473079e+00  -2.7868130074422051e+00  -2.2680578488563241e+00  -1.7067874452481056e+00  -1.1175480543839975e+00  -5.1013867623649956e-01  1.0837154082117686e-01  7.3237845738228868e-01  1.3569336201493898e+00  1.9771435907128758e+00  2.5875762206470738e+00  3.1814654336095347e+00  3.7494333935388737e+00  4.2773272548350141e+00  4.7428167263204664e+00  5.1115332637840396e+00  5.3376694080364873e+00  5.3830200947153077e+00  -4.1519162456920027e+00  -4.1005540305179240e+00  -3.8301214059324353e+00  -3.4126705588358459e+00  -2.9074946314788921e+00  -2.3504841292078926e+00  -1.7617915791081891e+00  -1.1529643552099387e+00  -5.3117113592982768e-01  9.8593015426565317e-02  7.3238475112164203e-01  1.3667097760987528e+00  1.9981311390761438e+00  2.6228934701424347e+00  3.2363714527555452e+00  3.8320342993745777e+00  4.3992975610662546e+00  4.9189629158807477e+00  5.3545476393051006e+00  5.6427621450616838e+00  5.7077956661370290e+00  -4.4657428111518982e+00  -4.3764543656381294e+00  -4.0246175578867494e+00  -3.5381398874830290e+00  -2.9859874757875517e+00  -2.3991680821929262e+00  -1.7917842213626785e+00  -1.1710401886997004e+00  -5.4133521490364611e-01  9.4108596931197316e-02  7.3257926607278645e-01  1.3715783836624100e+00  2.0086582713831733e+00  2.6412758467429298e+00  3.2665579952861235e+00  3.8807838667343018e+00  4.4780725275695374e+00  5.0467665036880831e+00  5.5588244476295570e+00  5.9423275124213735e+00  6.0515430060857192e+00  -4.7886676546426576e+00  -4.5926763424353334e+00  -4.1394749204416081e+00  -3.5960645797057995e+00  -3.0153448714914148e+00  -2.4142590336572609e+00  -1.7995368481018588e+00  -1.1748998945400575e+00  -5.4307716646638871e-01  9.3582031028664373e-02  7.3289581026323003e-01  1.3727670733915605e+00  2.0111470227618895e+00  2.6460100983565602e+00  3.2753138292951141e+00  3.8968986617000763e+00  4.5081931775383666e+00  5.1051624031687020e+00  5.6778180565298957e+00  6.1872032850779197e+00  6.4107247087445778e+00  -4.9757728497736879e+00  -4.6494392720980136e+00  -4.1465233849386474e+00  -3.5926817080404474e+00  -3.0111032740980215e+00  -2.4108720501540226e+00  -1.7970615515428920e+00  -1.1731693170642463e+00  -5.4195273844824432e-01  9.4194180484640344e-02  7.3306190865453880e-01  1.3725412048157366e+00  2.0105829454026458e+00  2.6451734284373432e+00  3.2743032577736328e+00  3.8959008475751102e+00  4.5076643890127386e+00  5.1065757658222983e+00  5.6870522206312666e+00  6.2311617911765644e+00  6.7217772090370662e+00  </DataArray> 
</PointData> 
</Piece>
</UnstructuredGrid>
</VTKFile>