<?xml version="1.0"?>
<VTKFile type="UnstructuredGrid"  version="0.1"  >
<UnstructuredGrid>
<Piece  NumberOfPoints="651" NumberOfCells="1200">
<Points>
<DataArray  type="Float64"  NumberOfComponents="3"  format="ascii">0 0 0  50000 0 0  100000 0 0  150000 0 0  200000 0 0  250000 0 0  300000 0 0  350000 0 0  400000 0 0  450000 0 0  500000 0 0  550000 0 0  600000 0 0  650000 0 0  700000 0 0  750000 0 0  800000 0 0  850000 0 0  900000 0 0  950000 0 0  1000000 0 0  0 50000 0  50000 50000 0  100000 50000 0  150000 50000 0  200000 50000 0  250000 50000 0  300000 50000 0  350000 50000 0  400000 50000 0  450000 50000 0  500000 50000 0  550000 50000 0  600000 50000 0  650000 50000 0  700000 50000 0  750000 50000 0  800000 50000 0  850000 50000 0  900000 50000 0  950000 50000 0  1000000 50000 0  0 100000 0  50000 100000 0  100000 100000 0  150000 100000 0  200000 100000 0  250000 100000 0  300000 100000 0  350000 100000 0  400000 100000 0  450000 100000 0  500000 100000 0  550000 100000 0  600000 100000 0  650000 100000 0  700000 100000 0  750000 100000 0  800000 100000 0  850000 100000 0  900000 100000 0  950000 100000 0  1000000 100000 0  0 150000 0  50000 150000 0  100000 150000 0  150000 150000 0  200000 150000 0  250000 150000 0  300000 150000 0  350000 150000 0  400000 150000 0  450000 150000 0  500000 150000 0  550000 150000 0  600000 150000 0  650000 150000 0  700000 150000 0  750000 150000 0  800000 150000 0  850000 150000 0  900000 150000 0  950000 150000 0  1000000 150000 0  0 200000 0  50000 200000 0  100000 200000 0  150000 200000 0  200000 200000 0  250000 200000 0  300000 200000 0  350000 200000 0  400000 200000 0  450000 200000 0  500000 200000 0  550000 200000 0  600000 200000 0  650000 200000 0  700000 200000 0  750000 200000 0  800000 200000 0  850000 200000 0  900000 200000 0  950000 200000 0  1000000 200000 0  0 250000 0  50000 250000 0  100000 250000 0  150000 250000 0  200000 250000 0  250000 250000 0  300000 250000 0  350000 250000 0  400000 250000 0  450000 250000 0  500000 250000 0  550000 250000 0  600000 250000 0  650000 250000 0  700000 250000 0  750000 250000 0  800000 250000 0  850000 250000 0  900000 250000 0  950000 250000 0  1000000 250000 0  0 300000 0  50000 300000 0  100000 300000 0  150000 300000 0  200000 300000 0  250000 300000 0  300000 300000 0  350000 300000 0  400000 300000 0  450000 300000 0  500000 300000 0  550000 300000 0  600000 300000 0  650000 300000 0  700000 300000 0  750000 300000 0  800000 300000 0  850000 300000 0  900000 300000 0  950000 300000 0  1000000 300000 0  0 350000 0  50000 350000 0  100000 350000 0  150000 350000 0  200000 350000 0  250000 350000 0  300000 350000 0  350000 350000 0  400000 350000 0  450000 350000 0  500000 350000 0  550000 350000 0  600000 350000 0  650000 350000 0  700000 350000 0  750000 350000 0  800000 350000 0  850000 350000 0  900000 350000 0  950000 350000 0  1000000 350000 0  0 400000 0  50000 400000 0  100000 400000 0  150000 400000 0  200000 400000 0  250000 400000 0  300000 400000 0  350000 400000 0  400000 400000 0  450000 400000 0  500000 400000 0  550000 400000 0  600000 400000 0  650000 400000 0  700000 400000 0  750000 400000 0  800000 400000 0  850000 400000 0  900000 400000 0  950000 400000 0  1000000 400000 0  0 450000 0  50000 450000 0  100000 450000 0  150000 450000 0  200000 450000 0  250000 450000 0  300000 450000 0  350000 450000 0  400000 450000 0  450000 450000 0  500000 450000 0  550000 450000 0  600000 450000 0  650000 450000 0  700000 450000 0  750000 450000 0  800000 450000 0  850000 450000 0  900000 450000 0  950000 450000 0  1000000 450000 0  0 500000 0  50000 500000 0  100000 500000 0  150000 500000 0  200000 500000 0  250000 500000 0  300000 500000 0  350000 500000 0  400000 500000 0  450000 500000 0  500000 500000 0  550000 500000 0  600000 500000 0  650000 500000 0  700000 500000 0  750000 500000 0  800000 500000 0  850000 500000 0  900000 500000 0  950000 500000 0  1000000 500000 0  0 550000 0  50000 550000 0  100000 550000 0  150000 550000 0  200000 550000 0  250000 550000 0  300000 550000 0  350000 550000 0  400000 550000 0  450000 550000 0  500000 550000 0  550000 550000 0  600000 550000 0  650000 550000 0  700000 550000 0  750000 550000 0  800000 550000 0  850000 550000 0  900000 550000 0  950000 550000 0  1000000 550000 0  0 600000 0  50000 600000 0  100000 600000 0  150000 600000 0  200000 600000 0  250000 600000 0  300000 600000 0  350000 600000 0  400000 600000 0  450000 600000 0  500000 600000 0  550000 600000 0  600000 600000 0  650000 600000 0  700000 600000 0  750000 600000 0  800000 600000 0  850000 600000 0  900000 600000 0  950000 600000 0  1000000 600000 0  0 650000 0  50000 650000 0  100000 650000 0  150000 650000 0  200000 650000 0  250000 650000 0  300000 650000 0  350000 650000 0  400000 650000 0  450000 650000 0  500000 650000 0  550000 650000 0  600000 650000 0  650000 650000 0  700000 650000 0  750000 650000 0  800000 650000 0  850000 650000 0  900000 650000 0  950000 650000 0  1000000 650000 0  0 700000 0  50000 700000 0  100000 700000 0  150000 700000 0  200000 700000 0  250000 700000 0  300000 700000 0  350000 700000 0  400000 700000 0  450000 700000 0  500000 700000 0  550000 700000 0  600000 700000 0  650000 700000 0  700000 700000 0  750000 700000 0  800000 700000 0  850000 700000 0  900000 700000 0  950000 700000 0  1000000 700000 0  0 750000 0  50000 750000 0  100000 750000 0  150000 750000 0  200000 750000 0  250000 750000 0  300000 750000 0  350000 750000 0  400000 750000 0  450000 750000 0  500000 750000 0  550000 750000 0  600000 750000 0  650000 750000 0  700000 750000 0  750000 750000 0  800000 750000 0  850000 750000 0  900000 750000 0  950000 750000 0  1000000 750000 0  0 800000 0  50000 800000 0  100000 800000 0  150000 800000 0  200000 800000 0  250000 800000 0  300000 800000 0  350000 800000 0  400000 800000 0  450000 800000 0  500000 800000 0  550000 800000 0  600000 800000 0  650000 800000 0  700000 800000 0  750000 800000 0  800000 800000 0  850000 800000 0  900000 800000 0  950000 800000 0  1000000 800000 0  0 850000 0  50000 850000 0  100000 850000 0  150000 850000 0  200000 850000 0  250000 850000 0  300000 850000 0  350000 850000 0  400000 850000 0  450000 850000 0  500000 850000 0  550000 850000 0  600000 850000 0  650000 850000 0  700000 850000 0  750000 850000 0  800000 850000 0  850000 850000 0  900000 850000 0  950000 850000 0  1000000 850000 0  0 900000 0  50000 900000 0  100000 900000 0  150000 900000 0  200000 900000 0  250000 900000 0  300000 900000 0  350000 900000 0  400000 900000 0  450000 900000 0  500000 900000 0  550000 900000 0  600000 900000 0  650000 900000 0  700000 900000 0  750000 900000 0  800000 900000 0  850000 900000 0  900000 900000 0  950000 900000 0  1000000 900000 0  0 950000 0  50000 950000 0  100000 950000 0  150000 950000 0  200000 950000 0  250000 950000 0  300000 950000 0  350000 950000 0  400000 950000 0  450000 950000 0  500000 950000 0  550000 950000 0  600000 950000 0  650000 950000 0  700000 950000 0  750000 950000 0  800000 950000 0  850000 950000 0  900000 950000 0  950000 950000 0  1000000 950000 0  0 1000000 0  50000 1000000 0  100000 1000000 0  150000 1000000 0  200000 1000000 0  250000 1000000 0  300000 1000000 0  350000 1000000 0  400000 1000000 0  450000 1000000 0  500000 1000000 0  550000 1000000 0  600000 1000000 0  650000 1000000 0  700000 1000000 0  750000 1000000 0  800000 1000000 0  850000 1000000 0  900000 1000000 0  950000 1000000 0  1000000 1000000 0  0 1050000 0  50000 1050000 0  100000 1050000 0  150000 1050000 0  200000 1050000 0  250000 1050000 0  300000 1050000 0  350000 1050000 0  400000 1050000 0  450000 1050000 0  500000 1050000 0  550000 1050000 0  600000 1050000 0  650000 1050000 0  700000 1050000 0  750000 1050000 0  800000 1050000 0  850000 1050000 0  900000 1050000 0  950000 1050000 0  1000000 1050000 0  0 1100000 0  50000 1100000 0  100000 1100000 0  150000 1100000 0  200000 1100000 0  250000 1100000 0  300000 1100000 0  350000 1100000 0  400000 1100000 0  450000 1100000 0  500000 1100000 0  550000 1100000 0  600000 1100000 0  650000 1100000 0  700000 1100000 0  750000 1100000 0  800000 1100000 0  850000 1100000 0  900000 1100000 0  950000 1100000 0  1000000 1100000 0  0 1150000 0  50000 1150000 0  100000 1150000 0  150000 1150000 0  200000 1150000 0  250000 1150000 0  300000 1150000 0  350000 1150000 0  400000 1150000 0  450000 1150000 0  500000 1150000 0  550000 1150000 0  600000 1150000 0  650000 1150000 0  700000 1150000 0  750000 1150000 0  800000 1150000 0  850000 1150000 0  900000 1150000 0  950000 1150000 0  1000000 1150000 0  0 1200000 0  50000 1200000 0  100000 1200000 0  150000 1200000 0  200000 1200000 0  250000 1200000 0  300000 1200000 0  350000 1200000 0  400000 1200000 0  450000 1200000 0  500000 1200000 0  550000 1200000 0  600000 1200000 0  650000 1200000 0  700000 1200000 0  750000 1200000 0  800000 1200000 0  850000 1200000 0  900000 1200000 0  950000 1200000 0  1000000 1200000 0  0 1250000 0  50000 1250000 0  100000 1250000 0  150000 1250000 0  200000 1250000 0  250000 1250000 0  300000 1250000 0  350000 1250000 0  400000 1250000 0  450000 1250000 0  500000 1250000 0  550000 1250000 0  600000 1250000 0  650000 1250000 0  700000 1250000 0  750000 1250000 0  800000 1250000 0  850000 1250000 0  900000 1250000 0  950000 1250000 0  1000000 1250000 0  0 1300000 0  50000 1300000 0  100000 1300000 0  150000 1300000 0  200000 1300000 0  250000 1300000 0  300000 1300000 0  350000 1300000 0  400000 1300000 0  450000 1300000 0  500000 1300000 0  550000 1300000 0  600000 1300000 0  650000 1300000 0  700000 1300000 0  750000 1300000 0  800000 1300000 0  850000 1300000 0  900000 1300000 0  950000 1300000 0  1000000 1300000 0  0 1350000 0  50000 1350000 0  100000 1350000 0  150000 1350000 0  200000 1350000 0  250000 1350000 0  300000 1350000 0  350000 1350000 0  400000 1350000 0  450000 1350000 0  500000 1350000 0  550000 1350000 0  600000 1350000 0  650000 1350000 0  700000 135
[...]
<PointData  Scalars="f_1519"> 
<DataArray  type="Float64"  Name="f_1519"  format="ascii">-7.3891624066260508e+00  -6.7347023077443398e+00  -6.0085632040227903e+00  -5.2337664703664215e+00  -4.4343016458191711e+00  -3.6176395365412395e+00  -2.7878203590039332e+00  -1.9479248942638030e+00  -1.1007249571230679e+00  -2.4890852071942193e-01  6.0483105185384090e-01  1.4577531461707545e+00  2.3070366239342088e+00  3.1497257889125545e+00  3.9826172824452657e+00  4.8020196730331888e+00  5.6032467192383972e+00  6.3794922124416615e+00  7.1185587252906597e+00  7.7893677117210380e+00  8.2243155540696673e+00  -6.9744057268360553e+00  -6.6764498064216538e+00  -5.9965193199057625e+00  -5.2320765564783089e+00  -4.4351509787022394e+00  -3.6190811068890389e+00  -2.7892557889503147e+00  -1.9491109046791109e+00  -1.1015331380515121e+00  -2.4925315754900804e-01  6.0502078839825602e-01  1.4585492807016827e+00  2.3085282076872256e+00  3.1520399255494840e+00  3.9859427165236179e+00  4.8065868780340528e+00  5.6089949824207954e+00  6.3841659969822846e+00  7.1094403372624591e+00  7.7140988396005259e+00  7.9750163639069260e+00  -6.4955144610991260e+00  -6.3500614017425816e+00  -5.8381885560765605e+00  -5.1545589289377451e+00  -4.3952913563516738e+00  -3.5978432574118138e+00  -2.7777794909536064e+00  -1.9429507472244969e+00  -1.0983247598068615e+00  -2.4773853212211228e-01  6.0541081629495130e-01  1.4578530962907761e+00  2.3062501474118169e+00  3.1469785414501468e+00  3.9757336155995149e+00  4.7866384434190188e+00  5.5700683776591466e+00  6.3071800810003564e+00  6.9565357298692865e+00  7.4259693725596110e+00  7.5445881346250561e+00  -6.0372039874456833e+00  -5.9506630907008260e+00  -5.5659988813121650e+00  -4.9844382411683084e+00  -4.2905633883400647e+00  -3.5331262614435084e+00  -2.7377713650565281e+00  -1.9186322952333958e+00  -1.0844283137409629e+00  -2.4133469136998575e-01  6.0563429426125126e-01  1.4518890431882949e+00  2.2927630608546559e+00  3.1229899933864709e+00  3.9358987049573781e+00  4.7219143510975892e+00  5.4656115319497305e+00  6.1400652183603199e+00  6.6973167024836862e+00  7.0581325225358862e+00  7.1262757571058604e+00  -5.6041846912946918e+00  -5.5438642775508002e+00  -5.2420602998129882e+00  -4.7497584107595214e+00  -4.1281745831962118e+00  -3.4232404084945607e+00  -2.6647920303584853e+00  -1.8717338428339976e+00  -1.0565892195832147e+00  -2.2839259764414571e-01  6.0560296302549843e-01  1.4388635246661192e+00  2.2647813253122902e+00  3.0758725024883962e+00  3.8626958793357806e+00  4.6121627804436498e+00  5.3048406516044535e+00  5.9110255214297469e+00  6.3865598966540027e+00  6.6735273353841347e+00  6.7217373731536849e+00  -5.1983009318122608e+00  -5.1517586537438831e+00  -4.9043856858214081e+00  -4.4822845082491556e+00  -3.9274839134455384e+00  -3.2780636508609353e+00  -2.5631412255154102e+00  -1.8037274164526671e+00  -1.0150824457199941e+00  -2.0884946941867064e-01  6.0536633205204671e-01  1.4188446573129900e+00  2.2228087295546239e+00  3.0074883648994151e+00  3.7609930438832206e+00  4.4678249287917264e+00  5.1069767442789988e+00  5.6499662049158070e+00  6.0602440127140778e+00  6.2976849901259779e+00  6.3361165307600400e+00  -4.8221745079414182e+00  -4.7839427362044580e+00  -4.5738552241539701e+00  -4.2055908314579433e+00  -3.7080243042064289e+00  -3.1112959903161643e+00  -2.4415289619074083e+00  -1.7197594600173272e+00  -9.6267743105597658e-01  -1.8386292505385265e-01  6.0502086768888441e-01  1.3931970620411898e+00  2.1698560898858998e+00  2.9232489097509129e+00  3.6397013850760760e+00  4.3025204563648707e+00  4.8909249386292233e+00  5.3794872102016145e+00  5.7392127877431411e+00  5.9423485770924467e+00  5.9749409307566790e+00  -4.4785921168986151e+00  -4.4458869542067552e+00  -4.2624648180997537e+00  -3.9355680596747962e+00  -3.4855360535607911e+00  -2.9360397934079949e+00  -2.3097020369819563e+00  -1.6264547914346223e+00  -9.0338638072612909e-01  -1.5527361735772677e-01  6.0465768605549197e-01  1.3639414265892496e+00  2.1101005833379514e+00  2.8298898956418150e+00  3.5085473380685563e+00  4.1291097181894125e+00  4.6719791089651741e+00  5.1151458828086129e+00  5.4357680405446009e+00  5.6141832247634342e+00  5.6428197903440793e+00  -4.1700973062709066e+00  -4.1413124651881903e+00  -3.9776265513257107e+00  -3.6828025090993548e+00  -3.2717027015138704e+00  -2.7631543196931618e+00  -2.1765862571237209e+00  -1.5304100053178271e+00  -8.4147193990239866e-01  -1.2513215149369655e-01  6.0434128642037643e-01  1.3332473314683428e+00  2.0478894653071316e+00  2.7340239730404838e+00  3.3763669671845040e+00  3.9582494426048278e+00  4.4615897853005384e+00  4.8674593143680873e+00  5.1576242395155258e+00  5.3176369610925658e+00  5.3434016363886601e+00  -3.8988458258186220e+00  -3.8729569767181387e+00  -3.7242116521563178e+00  -3.4544217568054547e+00  -3.0749143209703416e+00  -2.6010264026796279e+00  -2.0495639255065319e+00  -1.4374069804112488e+00  -7.8084125773874513e-01  -9.5380810147704442e-02  6.0410719532078117e-01  1.3031173506071143e+00  1.9871574252553723e+00  2.6414071825970296e+00  3.2504539919389135e+00  3.7981965336881238e+00  4.2680453744454008e+00  4.6435866172952327e+00  4.9099058616077160e+00  5.0559310974019134e+00  5.0795392921626856e+00  -3.6665802907891498e+00  -3.6428781808058606e+00  -3.5055489848499279e+00  -3.2552824132121665e+00  -2.9011008331356472e+00  -2.4558751176797862e+00  -1.9343768069618035e+00  -1.3521337417193953e+00  -7.2476755584025776e-01  -6.7687366202685215e-02  6.0396780356648339e-01  1.2752359237354662e+00  1.9311713832700803e+00  2.5566889209918715e+00  3.1364825574714623e+00  3.6550978445995836e+00  4.0972462695151508e+00  4.4484544980816674e+00  4.6961505804721062e+00  4.8314677546254190e+00  4.8534420045518685e+00  -3.4746540655295410e+00  -3.4526110854861161e+00  -3.3239508504332922e+00  -3.0887108311994380e+00  -2.7544030969640816e+00  -2.3321818919883914e+00  -1.8353025489681589e+00  -1.2781894512397882e+00  -6.7582552649560601e-01  -4.3389148246230323e-02  6.0391985929590686e-01  1.2509290930784001e+00  1.8824821304977639e+00  2.4834295658578220e+00  3.0386841543896477e+00  3.5334013192743710e+00  3.9533428693958781e+00  4.2854729462053429e+00  4.5188452980729057e+00  4.6460409772973295e+00  4.6667945370628994e+00  -3.3240743645776822e+00  -3.3032717373751157e+00  -3.1810163761018053e+00  -2.9569711460717709e+00  -2.6376670390155996e+00  -2.2330907235514545e+00  -1.7554129930625009e+00  -1.2182156793120862e+00  -6.3593957050589767e-01  -2.3501435688374938e-02  6.0395077210976345e-01  1.2311849757747966e+00  1.8429823968428081e+00  2.4242362016771115e+00  2.9601014448322487e+00  3.4362420780399403e+00  3.8392116315239111e+00  4.1569928167998365e+00  4.3797383891371160e+00  4.5009711423368426e+00  4.5208527375403671e+00  -3.2155498636752728e+00  -3.1956351206482845e+00  -3.0778211713728960e+00  -2.8615677374726536e+00  -2.5527939698284867e+00  -2.1607315966583074e+00  -1.6968240668596970e+00  -1.1740613538644682e+00  -6.0647564236194662e-01  -8.7547926281105679e-03  6.0404300992422366e-01  1.2166990715582839e+00  1.8140040666912165e+00  2.3809284449246788e+00  2.9028333690160100e+00  3.3657564087485974e+00  3.7567954464387392e+00  4.0646041435193130e+00  4.2800363560656143e+00  4.3972018287532482e+00  4.4165218623645401e+00  -3.1495341713441629e+00  -3.1301948557295187e+00  -3.0150410581524829e+00  -2.8034422941029500e+00  -2.5009812606395845e+00  -2.1164607993928266e+00  -1.6609002833637598e+00  -1.1469336855317238e+00  -5.8833604858499366e-01  3.6134185073666275e-04  6.0417677681242965e-01  1.2079224831697040e+00  1.7964154984793492e+00  2.3546887299007389e+00  2.8682356484673979e+00  3.3233159694099315e+00  3.7073388731869712e+00  4.0093319909926857e+00  4.2205331624404119e+00  4.3353721723587961e+00  4.3544194428891654e+00  -3.1262594779031225e+00  -3.1072058646321761e+00  -2.9930312206875489e+00  -2.7830981509433812e+00  -2.4828786004055829e+00  -2.1010244356141849e+00  -1.6484018820835438e+00  -1.1375134007066128e+00  -5.8203606939984587e-01  3.5615675209097952e-03  6.0433142594853650e-01  1.2051012843761497e+00  1.7906989212969042e+00  2.3461762526036636e+00  2.8570647339805979e+00  3.3096872875112462e+00  3.6915414523026380e+00  3.9917610028404571e+00  4.2016940725846252e+00  4.3158687165292591e+00  4.3349223298002135e+00  -3.1457565909920771e+00  -3.1267093204617113e+00  -3.0118703105433373e+00  -2.8006691390956253e+00  -2.4986760212899175e+00  -2.1146531175128933e+00  -1.6595727965703566e+00  -1.1460258780036967e+00  -5.8775264658230597e-01  7.4036872735712390e-04  6.0448607508464958e-01  1.2083015100463372e+00  1.7969989004820601e+00  2.3555965374287733e+00  2.8695631352608166e+00  3.3251236512898927e+00  3.7096441125366573e+00  4.0121051460000281e+00  4.2237039100495908e+00  4.3388577076266488e+00  4.3581970232412894e+00  -3.2078590104674456e+00  -3.1885389768561629e+00  -3.0713735041685384e+00  -2.8559412916222393e+00  -2.5481325945416846e+00  -2.1570935568515774e+00  -1.6941705171189834e+00  -1.1722655930276398e+00  -6.0534121479416902e-01  -8.0362196612095132e-03  6.0461984197287011e-01  1.2174176445252005e+00  1.8151384942590303e+00  2.3827242057615488e+00  2.9054869187567873e+00  3.3693944485553975e+00  3.7614568217255768e+00  4.0702305893697472e+00  4.2864840232700443e+00  4.4042979725454678e+00  4.4242127155724420e+00  -3.3121898856432450e+00  -3.2923082904397165e+00  -3.1710755372399997e+00  -2.9483299649027126e+00  -2.6305487796268259e+00  -2.2275792261428848e+00  -1.7514385929351903e+00  -1.2155733497800503e+00  -6.3431954494572829e-01  -2.2522123877700150e-02  6.0471207978736408e-01  1.2321642875855017e+00  1.8446024224030149e+00  2.4268785312091872e+00  2.9640758449596087e+00  3.4417535754485709e+00  3.8463298909127452e+00  4.1656339979689143e+00  4.3896792279989540e+00  4.5119345892722533e+00  4.5327372164748212e+00  -3.4581316851657631e+00  -3.4373781254002003e+00  -3.3101824461757716e+00  -3.0768100943082288e+00  -2.7446800174987729e+00  -2.3247384673772840e+00  -1.8300213024925593e+00  -1.2747667139607302e+00  -6.7381927860065116e-01  -4.2266241181272084e-02  6.0474299260124598e-01  1.2520520001433901e+00  1.8844883783927606e+00  2.4868523031369145e+00  3.0439654008652774e+00  3.5408447438855073e+00  3.9630659488612321e+00  4.2973736830965841e+00  4.5326137023304192e+00  4.6612739373832177e+00  4.6833169174266516e+00  -3.6447791526546922e+00  -3.6228049027282445e+00  -3.4874877285749362e+00  -3.2397916461845346e+00  -2.8885834176180110e+00  -2.4464349927024269e+00  -1.9278197055743136e+00  -1.3480260690947252e+00  -7.2250853137291304e-01  -6.6573071838289158e-02  6.0469504833071286e-01  1.2763502180998867e+00  1.9334304077374613e+00  2.5607965936165891e+00  3.1430396588590037e+00  3.6645379695769686e+00  4.1097636850328092e+00  4.4639452651093130e+00  4.7142118367470731e+00  4.8515410327029711e+00  4.8752431426862577e+00  -3.8708764402654485e+00  -3.8472682455047020e+00  -3.7012430097105029e+00  -3.4349237653980449e+00  -3.0593825225482218e+00  -2.5895336817909227e+00  -2.0417911400417172e+00  -1.4327443306998291e+00  -7.7849457335815653e-01  -9.4454498709876780e-02  6.0455565657647503e-01  1.3040436620449674e+00  1.9895041096360069e+00  2.6460698323085250e+00  3.2582267774038165e+00  3.8096892545768863e+00  4.2835771728675605e+00  4.6630846087026292e+00  4.9328745040534718e+00  5.0816198286152661e+00  5.1075086777157184e+00  -4.1347387844914101e+00  -4.1089741091953291e+00  -3.9489613876182821e+00  -3.6587964624708489e+00  -3.2529269334033133e+00  -2.7495865907075880e+00  -2.1677041152872598e+00  -1.5253611211432121e+00  -8.3922661340984195e-01  -1.2458447957103955e-01  6.0432156547694127e-01  1.3337950033910275e+00  2.0501347917997292e+00  2.7390728572151675e+00  3.3852491090210517e+00  3.9718171715904553e+00  4.4803655534111266e+00  4.8914653609965661e+00  5.1862894032228848e+00  5.3499753170853444e+00  5.3787601581680669e+00  -4.4341569384467903e+00  -4.4055203728661301e+00  -4.2271051886473101e+00  -3.9064830309113483e+00  -3.4633162570678873e+00  -2.9204468662921159e+00  -2.2998844861712442e+00  -1.6212270437444800e+00  -9.0143773144060413e-01  -1.5527857469188841e-01  6.0400516584188202e-01  1.3639364692551121e+00  2.1120492326235101e+00  2.8351176433319956e+00  3.5183648888793124e+00  4.1447026453053173e+00  4.6941989054580926e+00  5.1442309115720422e+00  5.4711276699969620e+00  5.6545498061039723e+00  5.6872549687958331e+00  -4.7662780788593651e+00  -4.7336857251951336e+00  -4.5305499358458610e+00  -4.1708243583043361e+00  -3.6822620867318996e+00  -3.0938576044675212e+00  -2.4310385331786963e+00  -1.7145860578535068e+00  -9.6119323798848599e-01  -1.8453421014376425e-01  6.0364198420854920e-01  1.3925257769512920e+00  2.1713402829534090e+00  2.9284223119147357e+00  3.6501918138047964e+00  4.3199588422135173e+00  4.9166871561037810e+00  5.4142536833552679e+00  5.7825180760512502e+00  5.9926055881017213e+00  6.0308373598386922e+00  -5.1274536788626950e+00  -5.0890221382286462e+00  -4.8515811608167265e+00  -4.4413033530184629e+00  -3.8983138923816241e+00  -3.2591620768943437e+00  -2.5523301919857850e+00  -1.7988255130019348e+00  -1.0141458776571435e+00  -2.1018180541551149e-01  6.0329651984544486e-01  1.4175123213161644e+00  2.2237452976174845e+00  3.0123902683501362e+00  3.7718040774128481e+00  4.4867265027583647e+00  5.1361467653429500e+00  5.6909473601465459e+00  6.1130485377187487e+00  6.3604215056412130e+00  6.4069637837095943e+00  -5.5130745212562919e+00  -5.4648644834867444e+00  -5.1778970447565884e+00  -4.7023626695323397e+00  -4.0961777997070277e+00  -3.4034999285462266e+00  -2.6540330274383055e+00  -1.8672096505908793e+00  -1.0561184734147693e+00  -2.3020067276859893e-01  6.0305988887203288e-01  1.4370554495416772e+00  2.2652520714807367e+00  3.0803966947315047e+00  3.8734548822559769e+00  4.6319032603920602e+00  5.3368374350936740e+00  5.9584212626569633e+00  6.4507231517104131e+00  6.7525271294481941e+00  6.8128475431920794e+00  -5.9176129052084274e+00  -5.8494696706384399e+00  -5.4886538505862461e+00  -4.9314023664628719e+00  -4.2569486800522753e+00  -3.5132514992001216e+00  -2.7272358530598630e+00  -1.9143271414889331e+00  -1.0841002089571075e+00  -2.4322619129074813e-01  6.0302855763630192e-01  1.4499975432675443e+00  2.2930911656385016e+00  3.1272951471309267e+00  3.9464342169540725e+00  4.7417891133410581e+00  5.4992262402375891e+00  6.1931010930657955e+00  6.7746617332096370e+00  7.1593259425982785e+00  7.2458668393431243e+00  -6.3359252827275858e+00  -6.2173065206621079e+00  -5.7478728779718269e+00  -5.0985172291028977e+00  -4.3614055257616995e+00  -3.5779755915215357e+00  -2.7670707637019953e+00  -1.9383156895525950e+00  -1.0975872955142716e+00  -2.4919024439321943e-01  6.0325203560261642e-01  1.4564013840196817e+00  2.3069876117044208e+00  3.1516135991220358e+00  3.9864423428511611e+00  4.8065061093093719e+00  5.6039542082492195e+00  6.3632217808352616e+00  7.0468514079740512e+00  7.5587242536400483e+00  7.7041773129966327e+00  -6.7663535120094798e+00  -6.5054359877030716e+00  -5.9007774853650679e+00  -5.1755031450848579e+00  -4.4003321305233429e+00  -3.5979240261365613e+00  -2.7772798646260917e+00  -1.9433770736519336e+00  -1.0998653557896678e+00  -2.4988642880411838e-01  6.0364206349931226e-01  1.4579160094465828e+00  2.3101959899490780e+00  3.1577737565766726e+00  3.9979186408478684e+00  4.8277439587865745e+00  5.6438138305997869e+00  6.4407394083758280e+00  7.2051821718032869e+00  7.8851126583191498e+00  8.1830685787335522e+00  -7.0156527021722148e+00  -6.5807048598235856e+00  -5.9098958733932410e+00  -5.1708293605442295e+00  -4.3945838673409350e+00  -3.5933568211357025e+00  -2.7739544305477382e+00  -1.9410629370150068e+00  -1.0983737720366471e+00  -2.4909029427318313e-01  6.0383180004373294e-01  1.4575713726169890e+00  2.3093878090206390e+00  3.1565877461613678e+00  3.9964832109014936e+00  4.8263023884387746e+00  5.6429644977167213e+00  6.4424293222639584e+00  7.2172260559202988e+00  7.9433651596418482e+00  8.5978252585235584e+00  </DataArray> 
</PointData> 
</Piece>
</UnstructuredGrid>
</VTKFile>