<?xml version="1.0"?>
<VTKFile type="UnstructuredGrid"  version="0.1"  >
<UnstructuredGrid>
<Piece  NumberOfPoints="651" NumberOfCells="1200">
<Points>
<DataArray  type="Float64"  NumberOfComponents="3"  format="ascii">0 0 0  50000 0 0  100000 0 0  150000 0 0  200000 0 0  250000 0 0  300000 0 0  350000 0 0  400000 0 0  450000 0 0  500000 0 0  550000 0 0  600000 0 0  650000 0 0  700000 0 0  750000 0 0  800000 0 0  850000 0 0  900000 0 0  950000 0 0  1000000 0 0  0 50000 0  50000 50000 0  100000 50000 0  150000 50000 0  200000 50000 0  250000 50000 0  300000 50000 0  350000 50000 0  400000 50000 0  450000 50000 0  500000 50000 0  550000 50000 0  600000 50000 0  650000 50000 0  700000 50000 0  750000 50000 0  800000 50000 0  850000 50000 0  900000 50000 0  950000 50000 0  1000000 50000 0  0 100000 0  50000 100000 0  100000 100000 0  150000 100000 0  200000 100000 0  250000 100000 0  300000 100000 0  350000 100000 0  400000 100000 0  450000 100000 0  500000 100000 0  550000 100000 0  600000 100000 0  650000 100000 0  700000 100000 0  750000 100000 0  800000 100000 0  850000 100000 0  900000 100000 0  950000 100000 0  1000000 100000 0  0 150000 0  50000 150000 0  100000 150000 0  150000 150000 0  200000 150000 0  250000 150000 0  300000 150000 0  350000 150000 0  400000 150000 0  450000 150000 0  500000 150000 0  550000 150000 0  600000 150000 0  650000 150000 0  700000 150000 0  750000 150000 0  800000 150000 0  850000 150000 0  900000 150000 0  950000 150000 0  1000000 150000 0  0 200000 0  50000 200000 0  100000 200000 0  150000 200000 0  200000 200000 0  250000 200000 0  300000 200000 0  350000 200000 0  400000 200000 0  450000 200000 0  500000 200000 0  550000 200000 0  600000 200000 0  650000 200000 0  700000 200000 0  750000 200000 0  800000 200000 0  850000 200000 0  900000 200000 0  950000 200000 0  1000000 200000 0  0 250000 0  50000 250000 0  100000 250000 0  150000 250000 0  200000 250000 0  250000 250000 0  300000 250000 0  350000 250000 0  400000 250000 0  450000 250000 0  500000 250000 0  550000 250000 0  600000 250000 0  650000 250000 0  700000 250000 0  750000 250000 0  800000 250000 0  850000 250000 0  900000 250000 0  950000 250000 0  1000000 250000 0  0 300000 0  50000 300000 0  100000 300000 0  150000 300000 0  200000 300000 0  250000 300000 0  300000 300000 0  350000 300000 0  400000 300000 0  450000 300000 0  500000 300000 0  550000 300000 0  600000 300000 0  650000 300000 0  700000 300000 0  750000 300000 0  800000 300000 0  850000 300000 0  900000 300000 0  950000 300000 0  1000000 300000 0  0 350000 0  50000 350000 0  100000 350000 0  150000 350000 0  200000 350000 0  250000 350000 0  300000 350000 0  350000 350000 0  400000 350000 0  450000 350000 0  500000 350000 0  550000 350000 0  600000 350000 0  650000 350000 0  700000 350000 0  750000 350000 0  800000 350000 0  850000 350000 0  900000 350000 0  950000 350000 0  1000000 350000 0  0 400000 0  50000 400000 0  100000 400000 0  150000 400000 0  200000 400000 0  250000 400000 0  300000 400000 0  350000 400000 0  400000 400000 0  450000 400000 0  500000 400000 0  550000 400000 0  600000 400000 0  650000 400000 0  700000 400000 0  750000 400000 0  800000 400000 0  850000 400000 0  900000 400000 0  950000 400000 0  1000000 400000 0  0 450000 0  50000 450000 0  100000 450000 0  150000 450000 0  200000 450000 0  250000 450000 0  300000 450000 0  350000 450000 0  400000 450000 0  450000 450000 0  500000 450000 0  550000 450000 0  600000 450000 0  650000 450000 0  700000 450000 0  750000 450000 0  800000 450000 0  850000 450000 0  900000 450000 0  950000 450000 0  1000000 450000 0  0 500000 0  50000 500000 0  100000 500000 0  150000 500000 0  200000 500000 0  250000 500000 0  300000 500000 0  350000 500000 0  400000 500000 0  450000 500000 0  500000 500000 0  550000 500000 0  600000 500000 0  650000 500000 0  700000 500000 0  750000 500000 0  800000 500000 0  850000 500000 0  900000 500000 0  950000 500000 0  1000000 500000 0  0 550000 0  50000 550000 0  100000 550000 0  150000 550000 0  200000 550000 0  250000 550000 0  300000 550000 0  350000 550000 0  400000 550000 0  450000 550000 0  500000 550000 0  550000 550000 0  600000 550000 0  650000 550000 0  700000 550000 0  750000 550000 0  800000 550000 0  850000 550000 0  900000 550000 0  950000 550000 0  1000000 550000 0  0 600000 0  50000 600000 0  100000 600000 0  150000 600000 0  200000 600000 0  250000 600000 0  300000 600000 0  350000 600000 0  400000 600000 0  450000 600000 0  500000 600000 0  550000 600000 0  600000 600000 0  650000 600000 0  700000 600000 0  750000 600000 0  800000 600000 0  850000 600000 0  900000 600000 0  950000 600000 0  1000000 600000 0  0 650000 0  50000 650000 0  100000 650000 0  150000 650000 0  200000 650000 0  250000 650000 0  300000 650000 0  350000 650000 0  400000 650000 0  450000 650000 0  500000 650000 0  550000 650000 0  600000 650000 0  650000 650000 0  700000 650000 0  750000 650000 0  800000 650000 0  850000 650000 0  900000 650000 0  950000 650000 0  1000000 650000 0  0 700000 0  50000 700000 0  100000 700000 0  150000 700000 0  200000 700000 0  250000 700000 0  300000 700000 0  350000 700000 0  400000 700000 0  450000 700000 0  500000 700000 0  550000 700000 0  600000 700000 0  650000 700000 0  700000 700000 0  750000 700000 0  800000 700000 0  850000 700000 0  900000 700000 0  950000 700000 0  1000000 700000 0  0 750000 0  50000 750000 0  100000 750000 0  150000 750000 0  200000 750000 0  250000 750000 0  300000 750000 0  350000 750000 0  400000 750000 0  450000 750000 0  500000 750000 0  550000 750000 0  600000 750000 0  650000 750000 0  700000 750000 0  750000 750000 0  800000 750000 0  850000 750000 0  900000 750000 0  950000 750000 0  1000000 750000 0  0 800000 0  50000 800000 0  100000 800000 0  150000 800000 0  200000 800000 0  250000 800000 0  300000 800000 0  350000 800000 0  400000 800000 0  450000 800000 0  500000 800000 0  550000 800000 0  600000 800000 0  650000 800000 0  700000 800000 0  750000 800000 0  800000 800000 0  850000 800000 0  900000 800000 0  950000 800000 0  1000000 800000 0  0 850000 0  50000 850000 0  100000 850000 0  150000 850000 0  200000 850000 0  250000 850000 0  300000 850000 0  350000 850000 0  400000 850000 0  450000 850000 0  500000 850000 0  550000 850000 0  600000 850000 0  650000 850000 0  700000 850000 0  750000 850000 0  800000 850000 0  850000 850000 0  900000 850000 0  950000 850000 0  1000000 850000 0  0 900000 0  50000 900000 0  100000 900000 0  150000 900000 0  200000 900000 0  250000 900000 0  300000 900000 0  350000 900000 0  400000 900000 0  450000 900000 0  500000 900000 0  550000 900000 0  600000 900000 0  650000 900000 0  700000 900000 0  750000 900000 0  800000 900000 0  850000 900000 0  900000 900000 0  950000 900000 0  1000000 900000 0  0 950000 0  50000 950000 0  100000 950000 0  150000 950000 0  200000 950000 0  250000 950000 0  300000 950000 0  350000 950000 0  400000 950000 0  450000 950000 0  500000 950000 0  550000 950000 0  600000 950000 0  650000 950000 0  700000 950000 0  750000 950000 0  800000 950000 0  850000 950000 0  900000 950000 0  950000 950000 0  1000000 950000 0  0 1000000 0  50000 1000000 0  100000 1000000 0  150000 1000000 0  200000 1000000 0  250000 1000000 0  300000 1000000 0  350000 1000000 0  400000 1000000 0  450000 1000000 0  500000 1000000 0  550000 1000000 0  600000 1000000 0  650000 1000000 0  700000 1000000 0  750000 1000000 0  800000 1000000 0  850000 1000000 0  900000 1000000 0  950000 1000000 0  1000000 1000000 0  0 1050000 0  50000 1050000 0  100000 1050000 0  150000 1050000 0  200000 1050000 0  250000 1050000 0  300000 1050000 0  350000 1050000 0  400000 1050000 0  450000 1050000 0  500000 1050000 0  550000 1050000 0  600000 1050000 0  650000 1050000 0  700000 1050000 0  750000 1050000 0  800000 1050000 0  850000 1050000 0  900000 1050000 0  950000 1050000 0  1000000 1050000 0  0 1100000 0  50000 1100000 0  100000 1100000 0  150000 1100000 0  200000 1100000 0  250000 1100000 0  300000 1100000 0  350000 1100000 0  400000 1100000 0  450000 1100000 0  500000 1100000 0  550000 1100000 0  600000 1100000 0  650000 1100000 0  700000 1100000 0  750000 1100000 0  800000 1100000 0  850000 1100000 0  900000 1100000 0  950000 1100000 0  1000000 1100000 0  0 1150000 0  50000 1150000 0  100000 1150000 0  150000 1150000 0  200000 1150000 0  250000 1150000 0  300000 1150000 0  350000 1150000 0  400000 1150000 0  450000 1150000 0  500000 1150000 0  550000 1150000 0  600000 1150000 0  650000 1150000 0  700000 1150000 0  750000 1150000 0  800000 1150000 0  850000 1150000 0  900000 1150000 0  950000 1150000 0  1000000 1150000 0  0 1200000 0  50000 1200000 0  100000 1200000 0  150000 1200000 0  200000 1200000 0  250000 1200000 0  300000 1200000 0  350000 1200000 0  400000 1200000 0  450000 1200000 0  500000 1200000 0  550000 1200000 0  600000 1200000 0  650000 1200000 0  700000 1200000 0  750000 1200000 0  800000 1200000 0  850000 1200000 0  900000 1200000 0  950000 1200000 0  1000000 1200000 0  0 1250000 0  50000 1250000 0  100000 1250000 0  150000 1250000 0  200000 1250000 0  250000 1250000 0  300000 1250000 0  350000 1250000 0  400000 1250000 0  450000 1250000 0  500000 1250000 0  550000 1250000 0  600000 1250000 0  650000 1250000 0  700000 1250000 0  750000 1250000 0  800000 1250000 0  850000 1250000 0  900000 1250000 0  950000 1250000 0  1000000 1250000 0  0 1300000 0  50000 1300000 0  100000 1300000 0  150000 1300000 0  200000 1300000 0  250000 1300000 0  300000 1300000 0  350000 1300000 0  400000 1300000 0  450000 1300000 0  500000 1300000 0  550000 1300000 0  600000 1300000 0  650000 1300000 0  700000 1300000 0  750000 1300000 0  800000 1300000 0  850000 1300000 0  900000 1300000 0  950000 1300000 0  1000000 1300000 0  0 1350000 0  50000 1350000 0  100000 1350000 0  150000 1350000 0  200000 1350000 0  250000 1350000 0  300000 1350000 0  350000 1350000 0  400000 1350000 0  450000 1350000 0  500000 1350000 0  550000 1350000 0  600000 1350000 0  650000 1350000 0  700000 135
[...]
<PointData  Scalars="f_1519"> 
<DataArray  type="Float64"  Name="f_1519"  format="ascii">-1.4972446195261429e+00  -1.3178603999647331e+00  -1.1195345420778351e+00  -9.0818867142768533e-01  -6.9024876652156819e-01  -4.6771215178895886e-01  -2.4165645659507329e-01  -1.2904942118066785e-02  2.1779962482865525e-01  4.4973531039337283e-01  6.8217767407303276e-01  9.1438913096608732e-01  1.1456107666561124e+00  1.3750489181878611e+00  1.6018465649461500e+00  1.8250219991452425e+00  2.0433396438158513e+00  2.2550239884205290e+00  2.4569138699063573e+00  2.6408158713551795e+00  2.7607695071552523e+00  -1.3835795857684656e+00  -1.3013737547645490e+00  -1.1159271641229040e+00  -9.0757358752614259e-01  -6.9042989980233760e-01  -4.6811897918915985e-01  -2.4210408431060057e-01  -1.3315049418928394e-02  2.1746904018985616e-01  4.4951203051532951e-01  6.8208405352846235e-01  9.1444699940498086e-01  1.1458456959113306e+00  1.3754951572434821e+00  1.6025513548742079e+00  1.8260354338173181e+00  2.0446140300924744e+00  2.2558759499888779e+00  2.4537423842517141e+00  2.6191725771505143e+00  2.6917979507622172e+00  -1.2521885815687703e+00  -1.2116876841887319e+00  -1.0719668322729585e+00  -8.8578427879056809e-01  -6.7907522691321309e-01  -4.6198906570693044e-01  -2.3875888180565966e-01  -1.1523258528259481e-02  2.1836552926262454e-01  4.4986504507357755e-01  6.8205403148753030e-01  9.1404669080012169e-01  1.1449393381210906e+00  1.3737512030676504e+00  1.5993169772026772e+00  1.8200456312679560e+00  2.0333328045408736e+00  2.2340852373526614e+00  2.4111136701505456e+00  2.5395314513779521e+00  2.5731007850100411e+00  -1.1264357015437754e+00  -1.1021125090565831e+00  -9.9701431502574267e-01  -8.3865722103994522e-01  -6.4987165374247824e-01  -4.4382692124602924e-01  -2.2747261580055908e-01  -4.6494213242165294e-03  2.2226998325389871e-01  4.5160496192334121e-01  6.8199169561480566e-01  9.1218284314693698e-01  1.1409109231056254e+00  1.3667461133396961e+00  1.5878780053621750e+00  1.8017101409981258e+00  2.0040642630887402e+00  2.1876566013186616e+00  2.3395268581385325e+00  2.4382680218209964e+00  2.4577778423761747e+00  -1.0076330524500916e+00  -9.9055832285853973e-01  -9.0803908605282657e-01  -7.7399469838688795e-01  -6.0495400341342820e-01  -4.1331389840396360e-01  -2.0714231430765878e-01  8.4365931591588224e-03  2.3002190199503592e-01  4.5515757379181598e-01  6.8187119955961129e-01  9.0838623880950342e-01  1.1329069035590695e+00  1.3534006272920507e+00  1.5673054168416209e+00  1.7710732052573825e+00  1.9594424657316811e+00  2.1243800156477963e+00  2.2539547897545122e+00  2.3325167443632884e+00  2.3464008873168516e+00  -8.9630294644561725e-01  -8.8306379328147433e-01  -8.1539909417747169e-01  -7.0048327518042941e-01  -5.4966606262332551e-01  -3.7322017751895870e-01  -1.7901024222655726e-01  2.7278087027315604e-02  2.4150796516409442e-01  4.6051897500239897e-01  6.8170200002943515e-01  9.0268787343626555e-01  1.1210927651262956e+00  1.3342647350365211e+00  1.5389792229875534e+00  1.7310378757115206e+00  1.9047562790468180e+00  2.0524357975376701e+00  2.1642056054797214e+00  2.2292238165799692e+00  2.2403275797781457e+00  -7.9317063809209953e-01  -7.8225781623576052e-01  -7.2478458824209757e-01  -6.2454923760647196e-01  -4.8934955522587092e-01  -3.2731209721140464e-01  -1.4548712659572421e-01  5.0439110006025877e-02  2.5594809766710774e-01  4.6735854796442244e-01  6.8150614284463740e-01  8.9546603886996123e-01  1.1063049466311587e+00  1.3108363853311376e+00  1.5053548654594460e+00  1.6853413895316547e+00  1.8451764284496790e+00  1.9779915117961429e+00  2.0759613080576464e+00  2.1315894347740523e+00  2.1410297347341727e+00  -6.9899999998901030e-01  -6.8963997354205731e-01  -6.3946575141271278e-01  -5.5052037435198542e-01  -4.2829573470399140e-01  -2.7917002607896985e-01  -1.0924446701683220e-01  7.6097743302710769e-02  2.7223482861095383e-01  4.7516538463388630e-01  6.8130499893774921e-01  8.8727380624310925e-01  1.0896891543755072e+00  1.2849617253534571e+00  1.4690941924968546e+00  1.6374976108976496e+00  1.7848760878572592e+00  1.9052888833550676e+00  1.9925764267701012e+00  2.0414313234496198e+00  2.0497443674225631e+00  -6.1448483459662806e-01  -6.0622861269592798e-01  -5.6146297128146105e-01  -4.8127803131520946e-01  -3.6968499274405314e-01  -2.3175303538415187e-01  -7.2718268753607748e-02  1.0245041906058777e-01  2.8920038034346346e-01  4.8337594196161066e-01  6.8111378095476549e-01  8.7870258321958361e-01  1.0724322513436653e+00  1.2584459131812193e+00  1.4326078964041886e+00  1.5904119459050792e+00  1.7269754376259931e+00  1.8371934827719818e+00  1.9161542113157088e+00  1.9599617505078200e+00  1.9674552576874311e+00  -5.4021096573119620e-01  -5.3277071162199063e-01  -4.9210291553682273e-01  -4.1876064792153594e-01  -3.1579854321937428e-01  -1.8734244580940601e-01  -3.7918269504849028e-02  1.2792147218718339e-01  3.0577872729406824e-01  4.9145930767899887e-01  6.8094084465798010e-01  8.7029726361924054e-01  1.0556059454210271e+00  1.2328568118290757e+00  1.3978822013981547e+00  1.5463322702116171e+00  1.6737306165292078e+00  1.7756544790277073e+00  1.8480907833930145e+00  1.8880576376408400e+00  1.8949336644723345e+00  -4.7665027160217799e-01  -4.6982571652897409e-01  -4.3229071548890330e-01  -3.6428758840492093e-01  -2.6824682720766480e-01  -1.4762751082645220e-01  -6.4047791711685474e-03  1.5123618283364779e-01  3.2107924755197687e-01  4.9896126677791830e-01  6.8078907527383903e-01  8.6251579129109235e-01  1.0400988235866213e+00  1.2094590548405788e+00  1.3664602913195725e+00  1.5069301428770576e+00  1.6267462049484984e+00  1.7220120683271984e+00  1.7893489558255040e+00  1.8263721417544478e+00  1.8327777272662358e+00  -4.2416784575833832e-01  -4.1780933807279808e-01  -3.8265364503052390e-01  -3.1876115170687030e-01  -2.2815294973479494e-01  -1.1382383702185829e-01  2.0661557539899005e-02  1.7141766881503898e-01  3.3440290248232113e-01  5.0551867528190442e-01  6.8065770450961105e-01  8.5571858842958193e-01  1.0266040970004038e+00  1.1892201135951921e+00  1.3394918723343989e+00  1.4734140041433212e+00  1.5871498760710092e+00  1.6771929943227106e+00  1.7406047985586022e+00  1.7753925753551434e+00  1.7814439460643237e+00  -3.8303423638544548e-01  -3.7702251834701350e-01  -3.4362425060941126e-01  -2.8279432664587589e-01  -1.9628762168081745e-01  -8.6783023314833938e-02  4.2448514094677085e-02  1.8775015226995026e-01  3.4522824341274216e-01  5.1085660871128835e-01  6.8054383732007395e-01  8.5017432085747924e-01  1.0156359216475370e+00  1.1728479661402766e+00  1.3178030541245473e+00  1.4466349879964671e+00  1.5557225636406897e+00  1.6418356042970843e+00  1.7023331316920765e+00  1.7354773121789853e+00  1.7412727824946772e+00  -3.5343880267891392e-01  -3.4767318246659878e-01  -3.1549244269998578e-01  -2.5679343897529472e-01  -1.7316480619461327e-01  -6.7081080399505805e-02  5.8383755291822860e-02  1.9973349906890925e-01  3.5318590246951442e-01  5.1477784320117881e-01  6.8044350542075138e-01  8.4607231261883531e-01  1.0075561332555079e+00  1.1608366299500503e+00  1.3019635029995795e+00  1.4271727998251948e+00  1.5329914779559384e+00  1.6163714078971496e+00  1.6748614243197846e+00  1.7068824041231470e+00  1.7125098447705429e+00  -3.3550184725190740e-01  -3.2989288653022592e-01  -2.9843954017726354e-01  -2.4101205474413936e-01  -1.5910743697395938e-01  -5.5084069223704422e-02  6.8098896218394836e-02  2.0704182696456802e-01  3.5803249647642904e-01  5.1715077307174295e-01  6.8035229360922189e-01  8.4353569519082439e-01  1.0026008705533933e+00  1.1535072743814161e+00  1.2923412524022055e+00  1.4153996996175580e+00  1.5192943690026155e+00  1.6010786394647540e+00  1.6584052677183310e+00  1.6897814786618905e+00  1.6953230082883350e+00  -3.2928398258624242e-01  -3.2374870316957094e-01  -2.9256007594905115e-01  -2.3558502154263949e-01  -1.5429009608307162e-01  -5.0992742546307625e-02  7.1389299534857745e-02  2.0949197060813185e-01  3.5962960631011170e-01  5.1789918581750971e-01  6.8026565197814204e-01  8.4263211813876759e-01  1.0009016976461658e+00  1.1510393333481435e+00  1.2891420044214137e+00  1.4115240465025798e+00  1.5148214000393432e+00  1.5961163254989117e+00  1.6530913799053200e+00  1.6842800071258386e+00  1.6898152865425109e+00  -3.3479170433206701e-01  -3.2925017470562185e-01  -2.9787396376206104e-01  -2.4054733550848581e-01  -1.5876306504634408e-01  -5.4868395661284798e-02  6.8190051554068723e-02  2.0702402957486132e-01  3.5793043340288405e-01  5.1699560876545536e-01  6.8017901034706252e-01  8.4338053088453868e-01  1.0024988074798493e+00  1.1534894769917061e+00  1.2924324077378757e+00  1.4156153731799757e+00  1.5196387409302348e+00  1.6015433587004133e+00  1.6589708441335387e+00  1.6904241904865001e+00  1.6960331512081817e+00  -3.5197854081427588e-01  -3.4635110016687859e-01  -3.1433012036351604e-01  -2.5584010394088014e-01  -1.7246017399966815e-01  -6.6641495868923553e-02  5.8567800956694976e-02  1.9969467400622740e-01  3.5297517070077189e-01  5.1445899133744899e-01  6.8008779853553658e-01  8.4575346075510716e-01  1.0073454014867682e+00  1.1607978048873715e+00  1.3021475486644565e+00  1.4276123843557862e+00  1.5336961101508948e+00  1.6173247429315736e+00  1.6760237466562680e+00  1.7082044864228816e+00  1.7139701066351958e+00  -3.8074147853840351e-01  -3.7494600822271157e-01  -3.4180182773580164e-01  -2.8130430034080839e-01  -1.9519125968441267e-01  -8.6103684040190448e-02  4.2728249831733546e-02  1.8768333781600571e-01  3.4489538230874905e-01  5.1035698309881017e-01  6.7998746663622145e-01  8.4967469524500738e-01  1.0153030605435491e+00  1.1727811516863353e+00  1.3180827898616088e+00  1.4473143272711197e+00  1.5568189256371079e+00  1.6433256306021653e+00  1.7041555545656972e+00  1.7375538223032985e+00  1.7435655403417301e+00  -4.2091264210804408e-01  -4.1486127139886575e-01  -3.8007349460232082e-01  -3.1666169036642944e-01  -2.2661857211472564e-01  -1.1288270018703608e-01  2.1039431621890717e-02  1.7131119036109863e-01  3.3392720695589140e-01  5.0481271552671636e-01  6.7987359944669246e-01  8.5501262867439987e-01  1.0261284014739798e+00  1.1891136351412561e+00  1.3398697464163951e+00  1.4743551409781506e+00  1.5886842536910937e+00  1.6792924556631657e+00  1.7431849489868141e+00  1.7783406420290844e+00  1.7846991497146250e+00  -4.7224642330994493e-01  -4.6584083779815744e-01  -4.2881765186921250e-01  -3.6148076437090654e-01  -2.6621490099220241e-01  -1.4639883892075667e-01  -5.9289873632700756e-03  1.5107224911572423e-01  3.2043248036968647e-01  4.9801551266521815e-01  6.7974222868247625e-01  8.6157003717839686e-01  1.0394520564043379e+00  1.2092951211226650e+00  1.3669360831274802e+00  1.5081588147827618e+00  1.6287781311639726e+00  1.7248188923612235e+00  1.7928220194452025e+00  1.8303570204852679e+00  1.8371815755584713e+00  -5.3440236051603163e-01  -5.2752633368453794e-01  -4.8755947943671196e-01  -4.1512317507140223e-01  -3.1319931257290012e-01  -1.8580096625530385e-01  -3.7350897441840641e-02  1.2767449212724127e-01  3.0492535853529568e-01  4.9023404033708712e-01  6.7959045929835105e-01  8.6907199627733311e-01  1.0547525766622643e+00  1.2326098317691490e+00  1.3984495734611802e+00  1.5478737497657322e+00  1.6763298471756933e+00  1.7792919518778485e+00  1.8526342194931296e+00  1.8933020155782929e+00  1.9007422696874954e+00  -6.0692395373111951e-01  -5.9943044655150790e-01  -5.5562290735939535e-01  -4.7666217881566569e-01  -3.6644413366967227e-01  -2.2988064194875360e-01  -7.2076592447858731e-02  1.0208539077511515e-01  2.8809905261267493e-01  4.8182872073676208e-01  6.7941752300158387e-01  8.7715536199474142e-01  1.0713309236128898e+00  1.2580808848957623e+00  1.4332495727099552e+00  1.5922843393404915e+00  1.7302162967003853e+00  1.8418093352715337e+00  1.9219942752377748e+00  1.9667599166522376e+00  1.9750161385529386e+00  -6.8921306346624089e-01  -6.8090001949329582e-01  -6.3204512281377656e-01  -5.4475757939874148e-01  -4.2434478390092678e-01  -2.7696630694130986e-01  -1.0856288854051004e-01  7.5569578602893567e-02  2.7084214958084890e-01  4.7325749771325010e-01  6.7922630501861458e-01  8.8536591932248210e-01  1.0882964753454158e+00  1.2844335606536559e+00  1.4697757709731942e+00  1.6397013300353227e+00  1.7888270386603373e+00  1.9110516783083238e+00  1.9999970553690400e+00  2.0501712774983805e+00  2.0595313039453322e+00  -7.8049843077783787e-01  -7.7105813081771846e-01  -7.1543000410131419e-01  -6.1746020783980760e-01  -4.8464512449333430e-01  -3.2481008557530172e-01  -1.4482356150308517e-01  4.9694918625230712e-02  2.5422635732521554e-01  4.6506526508641644e-01  6.7902516111174394e-01  8.9317275599196144e-01  1.1045832062892769e+00  1.3100921939503534e+00  1.5060184305521005e+00  1.6878434011677714e+00  1.8498808591822318e+00  1.9850805415628248e+00  2.0853158921984396e+00  2.1427891201920963e+00  2.1537019420484351e+00  -8.7979627582179654e-01  -8.6869251262362179e-01  -8.0367430152337116e-01  -6.9190449358131556e-01  -5.4422497509045720e-01  -3.7050657175515567e-01  -1.7844791903117940e-01  2.6266568919865289e-02  2.3943853883009464e-01  4.5784343052012733e-01  6.7882930392696317e-01  9.0001232895400007e-01  1.1190233387923068e+00  1.3332532169290794e+00  1.5395415461829467e+00  1.7337514814753421e+00  1.9101973665797007e+00  2.0610145791367982e+00  2.1759303981338278e+00  2.2435950972378240e+00  2.2568342504019645e+00  -9.8586958336049135e-01  -9.7198544040692814e-01  -8.9342348579814768e-01  -7.6384871169142843e-01  -5.9891116177530723e-01  -4.1054190130100371e-01  -2.0677411288523251e-01  7.1306766643480131e-03  2.2762440039733289e-01  4.5214506514690034e-01  6.7866010439679791e-01  9.0537373016459444e-01  1.1305094019613742e+00  1.3520947107972481e+00  1.5676736182640618e+00  1.7738452023603630e+00  1.9654853073698151e+00  2.1345260023432666e+00  2.2685703900091965e+00  2.3510896268149013e+00  2.3681643564064516e+00  -1.0972465384198036e+00  -1.0777367178646247e+00  -9.7899555418215434e-01  -8.2712529736227980e-01  -6.4353295913235609e-01  -4.4117883704173411e-01  -2.2734670140577642e-01  -6.2148093832886508e-03  2.1962038085078572e-01  4.4834846080947566e-01  6.7853960834161098e-01  9.0892634203307776e-01  1.1382613207025185e+00  1.3651807252806327e+00  1.5880039197569753e+00  1.8043582252024375e+00  2.0104029576988780e+00  2.1991885249963334e+00  2.3575456189821207e+00  2.4626438130129524e+00  2.4869670055001438e+00  -1.2125694810536614e+00  -1.1790001474215688e+00  -1.0505823661941585e+00  -8.7355393339626941e-01  -6.7280150058448152e-01  -4.5951432731155850e-01  -2.3878567324627201e-01  -1.3219899111237315e-02  2.1559196583532370e-01  4.4648461315629540e-01  6.7847727246889178e-01  9.1066625888284514e-01  1.1421657746937997e+00  1.3720545624846803e+00  1.5992901857620794e+00  1.8225203696633434e+00  2.0396065308696176e+00  2.2463155827469627e+00  2.4324981362293436e+00  2.5722189881451087e+00  2.6127198855251481e+00  -1.3312666468058354e+00  -1.2586412731941310e+00  -1.0932110802953314e+00  -8.9534464603248820e-01  -6.8408272613607957e-01  -4.6550412986091594e-01  -2.4202005091780052e-01  -1.4963853287068573e-02  2.1468560804508627e-01  4.4608430455143799e-01  6.7844725042795972e-01  9.1101927344109512e-01  1.1430622637665693e+00  1.3738463533753524e+00  1.6026353882670217e+00  1.8286502831455735e+00  2.0509612037587446e+00  2.2681048914825408e+00  2.4764584680792963e+00  2.6619050587209330e+00  2.7441108897248485e+00  -1.4002382031988687e+00  -1.2802845673987950e+00  -1.0963825659499715e+00  -8.9449268446413821e-01  -6.8280833985945499e-01  -4.6449069518884012e-01  -2.4131526098974079e-01  -1.4517614231446915e-02  2.1492053730030594e-01  4.4614217299033315e-01  6.7835362988339065e-01  9.1079599356305030e-01  1.1427316791277711e+00  1.3734362460744916e+00  1.6021877605514963e+00  1.8282434557453742e+00  2.0507800704779768e+00  2.2687199753840854e+00  2.4800658460342269e+00  2.6783917039211191e+00  2.8577759234825284e+00  </DataArray> 
</PointData> 
</Piece>
</UnstructuredGrid>
</VTKFile>