<?xml version="1.0"?>
<VTKFile type="UnstructuredGrid"  version="0.1"  >
<UnstructuredGrid>
<Piece  NumberOfPoints="651" NumberOfCells="1200">
<Points>
<DataArray  type="Float64"  NumberOfComponents="3"  format="ascii">0 0 0  50000 0 0  100000 0 0  150000 0 0  200000 0 0  250000 0 0  300000 0 0  350000 0 0  400000 0 0  450000 0 0  500000 0 0  550000 0 0  600000 0 0  650000 0 0  700000 0 0  750000 0 0  800000 0 0  850000 0 0  900000 0 0  950000 0 0  1000000 0 0  0 50000 0  50000 50000 0  100000 50000 0  150000 50000 0  200000 50000 0  250000 50000 0  300000 50000 0  350000 50000 0  400000 50000 0  450000 50000 0  500000 50000 0  550000 50000 0  600000 50000 0  650000 50000 0  700000 50000 0  750000 50000 0  800000 50000 0  850000 50000 0  900000 50000 0  950000 50000 0  1000000 50000 0  0 100000 0  50000 100000 0  100000 100000 0  150000 100000 0  200000 100000 0  250000 100000 0  300000 100000 0  350000 100000 0  400000 100000 0  450000 100000 0  500000 100000 0  550000 100000 0  600000 100000 0  650000 100000 0  700000 100000 0  750000 100000 0  800000 100000 0  850000 100000 0  900000 100000 0  950000 100000 0  1000000 100000 0  0 150000 0  50000 150000 0  100000 150000 0  150000 150000 0  200000 150000 0  250000 150000 0  300000 150000 0  350000 150000 0  400000 150000 0  450000 150000 0  500000 150000 0  550000 150000 0  600000 150000 0  650000 150000 0  700000 150000 0  750000 150000 0  800000 150000 0  850000 150000 0  900000 150000 0  950000 150000 0  1000000 150000 0  0 200000 0  50000 200000 0  100000 200000 0  150000 200000 0  200000 200000 0  250000 200000 0  300000 200000 0  350000 200000 0  400000 200000 0  450000 200000 0  500000 200000 0  550000 200000 0  600000 200000 0  650000 200000 0  700000 200000 0  750000 200000 0  800000 200000 0  850000 200000 0  900000 200000 0  950000 200000 0  1000000 200000 0  0 250000 0  50000 250000 0  100000 250000 0  150000 250000 0  200000 250000 0  250000 250000 0  300000 250000 0  350000 250000 0  400000 250000 0  450000 250000 0  500000 250000 0  550000 250000 0  600000 250000 0  650000 250000 0  700000 250000 0  750000 250000 0  800000 250000 0  850000 250000 0  900000 250000 0  950000 250000 0  1000000 250000 0  0 300000 0  50000 300000 0  100000 300000 0  150000 300000 0  200000 300000 0  250000 300000 0  300000 300000 0  350000 300000 0  400000 300000 0  450000 300000 0  500000 300000 0  550000 300000 0  600000 300000 0  650000 300000 0  700000 300000 0  750000 300000 0  800000 300000 0  850000 300000 0  900000 300000 0  950000 300000 0  1000000 300000 0  0 350000 0  50000 350000 0  100000 350000 0  150000 350000 0  200000 350000 0  250000 350000 0  300000 350000 0  350000 350000 0  400000 350000 0  450000 350000 0  500000 350000 0  550000 350000 0  600000 350000 0  650000 350000 0  700000 350000 0  750000 350000 0  800000 350000 0  850000 350000 0  900000 350000 0  950000 350000 0  1000000 350000 0  0 400000 0  50000 400000 0  100000 400000 0  150000 400000 0  200000 400000 0  250000 400000 0  300000 400000 0  350000 400000 0  400000 400000 0  450000 400000 0  500000 400000 0  550000 400000 0  600000 400000 0  650000 400000 0  700000 400000 0  750000 400000 0  800000 400000 0  850000 400000 0  900000 400000 0  950000 400000 0  1000000 400000 0  0 450000 0  50000 450000 0  100000 450000 0  150000 450000 0  200000 450000 0  250000 450000 0  300000 450000 0  350000 450000 0  400000 450000 0  450000 450000 0  500000 450000 0  550000 450000 0  600000 450000 0  650000 450000 0  700000 450000 0  750000 450000 0  800000 450000 0  850000 450000 0  900000 450000 0  950000 450000 0  1000000 450000 0  0 500000 0  50000 500000 0  100000 500000 0  150000 500000 0  200000 500000 0  250000 500000 0  300000 500000 0  350000 500000 0  400000 500000 0  450000 500000 0  500000 500000 0  550000 500000 0  600000 500000 0  650000 500000 0  700000 500000 0  750000 500000 0  800000 500000 0  850000 500000 0  900000 500000 0  950000 500000 0  1000000 500000 0  0 550000 0  50000 550000 0  100000 550000 0  150000 550000 0  200000 550000 0  250000 550000 0  300000 550000 0  350000 550000 0  400000 550000 0  450000 550000 0  500000 550000 0  550000 550000 0  600000 550000 0  650000 550000 0  700000 550000 0  750000 550000 0  800000 550000 0  850000 550000 0  900000 550000 0  950000 550000 0  1000000 550000 0  0 600000 0  50000 600000 0  100000 600000 0  150000 600000 0  200000 600000 0  250000 600000 0  300000 600000 0  350000 600000 0  400000 600000 0  450000 600000 0  500000 600000 0  550000 600000 0  600000 600000 0  650000 600000 0  700000 600000 0  750000 600000 0  800000 600000 0  850000 600000 0  900000 600000 0  950000 600000 0  1000000 600000 0  0 650000 0  50000 650000 0  100000 650000 0  150000 650000 0  200000 650000 0  250000 650000 0  300000 650000 0  350000 650000 0  400000 650000 0  450000 650000 0  500000 650000 0  550000 650000 0  600000 650000 0  650000 650000 0  700000 650000 0  750000 650000 0  800000 650000 0  850000 650000 0  900000 650000 0  950000 650000 0  1000000 650000 0  0 700000 0  50000 700000 0  100000 700000 0  150000 700000 0  200000 700000 0  250000 700000 0  300000 700000 0  350000 700000 0  400000 700000 0  450000 700000 0  500000 700000 0  550000 700000 0  600000 700000 0  650000 700000 0  700000 700000 0  750000 700000 0  800000 700000 0  850000 700000 0  900000 700000 0  950000 700000 0  1000000 700000 0  0 750000 0  50000 750000 0  100000 750000 0  150000 750000 0  200000 750000 0  250000 750000 0  300000 750000 0  350000 750000 0  400000 750000 0  450000 750000 0  500000 750000 0  550000 750000 0  600000 750000 0  650000 750000 0  700000 750000 0  750000 750000 0  800000 750000 0  850000 750000 0  900000 750000 0  950000 750000 0  1000000 750000 0  0 800000 0  50000 800000 0  100000 800000 0  150000 800000 0  200000 800000 0  250000 800000 0  300000 800000 0  350000 800000 0  400000 800000 0  450000 800000 0  500000 800000 0  550000 800000 0  600000 800000 0  650000 800000 0  700000 800000 0  750000 800000 0  800000 800000 0  850000 800000 0  900000 800000 0  950000 800000 0  1000000 800000 0  0 850000 0  50000 850000 0  100000 850000 0  150000 850000 0  200000 850000 0  250000 850000 0  300000 850000 0  350000 850000 0  400000 850000 0  450000 850000 0  500000 850000 0  550000 850000 0  600000 850000 0  650000 850000 0  700000 850000 0  750000 850000 0  800000 850000 0  850000 850000 0  900000 850000 0  950000 850000 0  1000000 850000 0  0 900000 0  50000 900000 0  100000 900000 0  150000 900000 0  200000 900000 0  250000 900000 0  300000 900000 0  350000 900000 0  400000 900000 0  450000 900000 0  500000 900000 0  550000 900000 0  600000 900000 0  650000 900000 0  700000 900000 0  750000 900000 0  800000 900000 0  850000 900000 0  900000 900000 0  950000 900000 0  1000000 900000 0  0 950000 0  50000 950000 0  100000 950000 0  150000 950000 0  200000 950000 0  250000 950000 0  300000 950000 0  350000 950000 0  400000 950000 0  450000 950000 0  500000 950000 0  550000 950000 0  600000 950000 0  650000 950000 0  700000 950000 0  750000 950000 0  800000 950000 0  850000 950000 0  900000 950000 0  950000 950000 0  1000000 950000 0  0 1000000 0  50000 1000000 0  100000 1000000 0  150000 1000000 0  200000 1000000 0  250000 1000000 0  300000 1000000 0  350000 1000000 0  400000 1000000 0  450000 1000000 0  500000 1000000 0  550000 1000000 0  600000 1000000 0  650000 1000000 0  700000 1000000 0  750000 1000000 0  800000 1000000 0  850000 1000000 0  900000 1000000 0  950000 1000000 0  1000000 1000000 0  0 1050000 0  50000 1050000 0  100000 1050000 0  150000 1050000 0  200000 1050000 0  250000 1050000 0  300000 1050000 0  350000 1050000 0  400000 1050000 0  450000 1050000 0  500000 1050000 0  550000 1050000 0  600000 1050000 0  650000 1050000 0  700000 1050000 0  750000 1050000 0  800000 1050000 0  850000 1050000 0  900000 1050000 0  950000 1050000 0  1000000 1050000 0  0 1100000 0  50000 1100000 0  100000 1100000 0  150000 1100000 0  200000 1100000 0  250000 1100000 0  300000 1100000 0  350000 1100000 0  400000 1100000 0  450000 1100000 0  500000 1100000 0  550000 1100000 0  600000 1100000 0  650000 1100000 0  700000 1100000 0  750000 1100000 0  800000 1100000 0  850000 1100000 0  900000 1100000 0  950000 1100000 0  1000000 1100000 0  0 1150000 0  50000 1150000 0  100000 1150000 0  150000 1150000 0  200000 1150000 0  250000 1150000 0  300000 1150000 0  350000 1150000 0  400000 1150000 0  450000 1150000 0  500000 1150000 0  550000 1150000 0  600000 1150000 0  650000 1150000 0  700000 1150000 0  750000 1150000 0  800000 1150000 0  850000 1150000 0  900000 1150000 0  950000 1150000 0  1000000 1150000 0  0 1200000 0  50000 1200000 0  100000 1200000 0  150000 1200000 0  200000 1200000 0  250000 1200000 0  300000 1200000 0  350000 1200000 0  400000 1200000 0  450000 1200000 0  500000 1200000 0  550000 1200000 0  600000 1200000 0  650000 1200000 0  700000 1200000 0  750000 1200000 0  800000 1200000 0  850000 1200000 0  900000 1200000 0  950000 1200000 0  1000000 1200000 0  0 1250000 0  50000 1250000 0  100000 1250000 0  150000 1250000 0  200000 1250000 0  250000 1250000 0  300000 1250000 0  350000 1250000 0  400000 1250000 0  450000 1250000 0  500000 1250000 0  550000 1250000 0  600000 1250000 0  650000 1250000 0  700000 1250000 0  750000 1250000 0  800000 1250000 0  850000 1250000 0  900000 1250000 0  950000 1250000 0  1000000 1250000 0  0 1300000 0  50000 1300000 0  100000 1300000 0  150000 1300000 0  200000 1300000 0  250000 1300000 0  300000 1300000 0  350000 1300000 0  400000 1300000 0  450000 1300000 0  500000 1300000 0  550000 1300000 0  600000 1300000 0  650000 1300000 0  700000 1300000 0  750000 1300000 0  800000 1300000 0  850000 1300000 0  900000 1300000 0  950000 1300000 0  1000000 1300000 0  0 1350000 0  50000 1350000 0  100000 1350000 0  150000 1350000 0  200000 1350000 0  250000 1350000 0  300000 1350000 0  350000 1350000 0  400000 1350000 0  450000 1350000 0  500000 1350000 0  550000 1350000 0  600000 1350000 0  650000 1350000 0  700000 135
[...]
<PointData  Scalars="f_1519"> 
<DataArray  type="Float64"  Name="f_1519"  format="ascii">-8.9363565708441364e+00  -8.1508274820202935e+00  -7.2790704178265297e+00  -6.3488218620332999e+00  -5.3889174174044889e+00  -4.4083383605415953e+00  -3.4119426615217971e+00  -2.4034344002801538e+00  -1.3861457367416132e+00  -3.6330769667263468e-01  6.6184242232119350e-01  1.6860106086472757e+00  2.7058060180474555e+00  3.7176758623685755e+00  4.7177691760799911e+00  5.7016472133882736e+00  6.6636727285842916e+00  7.5956533541763163e+00  8.4829009264038628e+00  9.2880253604143075e+00  9.8098655015984537e+00  -8.4386187636417187e+00  -8.0811220659095575e+00  -7.2647613524068788e+00  -6.3468938410793960e+00  -5.3900070341811981e+00  -4.4101196579452075e+00  -3.4137037198973985e+00  -2.4048867679511114e+00  -1.3871373206166997e+00  -3.6373675753019707e-01  6.6206035748855552e-01  1.6869619438788677e+00  2.7075981264576798e+00  3.7204625258331827e+00  4.7217793924390703e+00  5.7071623880692064e+00  6.6706293732510407e+00  7.6013623160972763e+00  8.4721285913084543e+00  9.1979534186496199e+00  9.5108126113269744e+00  -7.8639423583053336e+00  -7.6895064460737519e+00  -7.0749442241474387e+00  -6.2540627920085887e+00  -5.3423409217002309e+00  -4.3847688965043794e+00  -3.4000375324630450e+00  -2.3975734076789816e+00  -1.3833418705239786e+00  -3.6195116155448004e-01  6.6251823504197049e-01  1.6861379866570412e+00  2.7048980060891599e+00  3.7144455990459671e+00  4.7096099705990886e+00  5.6833319815340539e+00  6.6240506777514900e+00  7.5091300707374096e+00  8.2887883261021553e+00  8.8522997032481552e+00  8.9943831326168553e+00  -7.3139641160976883e+00  -7.2102251411488760e+00  -6.7484082240201673e+00  -6.0500730485853449e+00  -5.2168359071763399e+00  -4.3072641216451819e+00  -3.3521591889247473e+00  -2.3684940958581913e+00  -1.3667389770216190e+00  -3.5430917376718568e-01  6.6277379628143074e-01  1.6789981010558619e+00  2.6887593811640715e+00  3.6857327871197954e+00  4.6619062544611420e+00  5.6057799596226099e+00  6.4988260632781598e+00  7.3087015454528856e+00  7.9777931783676745e+00  8.4109153178945775e+00  8.4924833465086689e+00  -6.7943329199177613e+00  -6.7220452976426381e+00  -6.3597148066310556e+00  -5.7685515329150459e+00  -5.0220982606917675e+00  -4.1755370455911196e+00  -3.2647087636946162e+00  -2.3123191178808060e+00  -1.3334079970021337e+00  -3.3882462166749766e-01  6.6272111956828739e-01  1.6633827915467723e+00  2.6552250946883400e+00  3.6292603100490877e+00  4.5741495774147349e+00  5.4741724418697233e+00  6.3059872974590148e+00  7.0339122653028099e+00  7.6049000056080329e+00  7.9493744601260685e+00  8.0070694811864112e+00  -6.3072583214181730e+00  -6.2514895365578864e+00  -5.9545053719835304e+00  -5.4476292952357186e+00  -4.7813527903782385e+00  -4.0014260976746998e+00  -3.1428292883382869e+00  -2.2308005737917802e+00  -1.2836685956712783e+00  -3.1541654236923300e-01  6.6242045126697924e-01  1.6393700264271165e+00  2.6048918248042798e+00  3.5472520335354170e+00  4.4521696037080547e+00  5.3010297473956252e+00  6.0685984105356088e+00  6.7206601534819743e+00  7.2133063799376504e+00  7.4983340551381543e+00  7.5443272772688204e+00  -5.8558856249244178e+00  -5.8100765993678829e+00  -5.5578503197147571e+00  -5.1156108845397341e+00  -4.5180469885530679e+00  -3.8013714059613277e+00  -2.9969683942649952e+00  -2.1301084681836699e+00  -1.2208390673160017e+00  -2.8547084121661115e-01  6.6198856501162551e-01  1.6085962353895666e+00  2.5413698929973161e+00  3.4461984962839853e+00  4.3066580682510125e+00  5.1026973771702027e+00  5.8093529662693015e+00  6.3960777642635440e+00  6.8280378989724095e+00  7.0718927054735525e+00  7.1109013576200120e+00  -5.4435598512915604e+00  -5.4043724948167844e+00  -5.1841526746336548e+00  -4.7915766651948726e+00  -4.2510793903159803e+00  -3.5911019828244477e+00  -2.8388246120973171e+00  -2.0181925385932034e+00  -1.1497329659170534e+00  -2.5119510021753322e-01  6.6153565901594302e-01  1.5734867620011941e+00  2.4696725057224724e+00  3.3341840545896519e+00  4.1492899840179627e+00  4.8946137417329458e+00  5.5466123008832380e+00  6.0788435993728491e+00  6.4638640428857670e+00  6.6780519037659944e+00  6.7123298961261604e+00  -5.0733351045115418e+00  -5.0388441682772074e+00  -4.8423119709498419e+00  -4.4882384682052079e+00  -3.9944791912345599e+00  -3.3836563972757112e+00  -2.6791139989818986e+00  -1.9029715848306772e+00  -1.0754667227378196e+00  -2.1505021915292230e-01  6.6113971929417958e-01  1.5366464017024706e+00  2.3950185818581136e+00  3.2191473775037638e+00  3.9906737351830408e+00  4.6895736602856299e+00  5.2941247512926104e+00  5.7815852576470341e+00  6.1300468715827385e+00  6.3221518481816581e+00  6.3529959215591765e+00  -4.7478004688154281e+00  -4.7167786709114763e+00  -4.5381773518268833e+00  -4.2141554010913538e+00  -3.7583216696098773e+00  -3.1891057458821921e+00  -2.5267009287621254e+00  -1.7913878180669851e+00  -1.0027312652624796e+00  -1.7936787048089484e-01  6.6084369580617786e-01  1.5004797528733564e+00  2.3221324883205900e+00  3.1079997453329664e+00  3.8395670564093041e+00  4.4974915824590234e+00  5.0618426875991851e+00  5.5128989727258189e+00  5.8327392739386053e+00  6.0080604917615048e+00  6.0363264648316690e+00  -4.4690493232503981e+00  -4.4406471593577086e+00  -4.2757463985149435e+00  -3.9751599211927413e+00  -3.5497283483594435e+00  -3.0149187113795923e+00  -2.3884806663472595e+00  -1.6890708645543038e+00  -9.3545709546761713e-01  -1.4615062831799949e-01  6.6066255959634512e-01  1.4670095442718114e+00  2.2549371748382465e+00  3.0063242196436208e+00  3.7027836131515768e+00  4.3257488868948810e+00  4.8568515431983039e+00  5.2787008612824158e+00  5.5761893178131796e+00  5.7386626157044933e+00  5.7649755926503952e+00  -4.2387078322880134e+00  -4.2122935375274766e+00  -4.0577963295610138e+00  -3.7752471338445286e+00  -3.3736725921094877e+00  -2.8664776422351523e+00  -2.2695907195070588e+00  -1.6003432711477359e+00  -8.7673632976052751e-01  -1.1700457198865796e-01  6.6059235577041486e-01  1.4378281728585207e+00  2.1964958446827594e+00  2.9183964451727875e+00  3.5854050413214216e+00  4.1796871979183940e+00  4.6841356369698888e+00  5.0830860706422500e+00  5.3633836594196769e+00  5.5161130973512122e+00  5.5409674861738676e+00  -4.0579865522403678e+00  -4.0330587923362105e+00  -3.8862481407980525e+00  -3.6171366921245269e+00  -3.2335728116548657e+00  -2.7475589211902838e+00  -2.1737207471118336e+00  -1.5283778522337412e+00  -8.2888038293370925e-01  -9.3149212727251934e-02  6.6061782058461682e-01  1.4141222260808399e+00  2.1490815293141399e+00  2.8473474141159780e+00  3.4910855019515874e+00  4.0630717686129589e+00  4.5471496160951155e+00  4.9288780540637207e+00  5.1964222803960753e+00  5.3419981233419360e+00  5.3658111667909685e+00  -3.9277374813083510e+00  -3.9038743724850629e+00  -3.7623942017069947e+00  -3.5026358888209366e+00  -3.1317130260906385e+00  -2.6607212007034371e+00  -2.1034124780024781e+00  -1.4753955987158971e+00  -7.9353011269252938e-01  -7.5462226911474181e-02  6.6071769620692455e-01  1.3967268569336913e+00  2.1142937382974520e+00  2.7953624641369155e+00  3.4223458640662483e+00  3.9784683813353352e+00  4.4482270427577637e+00  4.8179866436305767e+00  5.0767544750171050e+00  5.2174513697212594e+00  5.2405944867281695e+00  -3.8485061639478415e+00  -3.8253337538642360e+00  -3.6870467189535145e+00  -3.4328762076849118e+00  -3.0695317985917243e+00  -2.6075939034266620e+00  -2.0603051889622850e+00  -1.4428468178753602e+00  -7.7176957075319785e-01  -6.4531740399875748e-02  6.6086797047092261e-01  1.3861836733394037e+00  2.0931752735522737e+00  2.7638616711293102e+00  3.3808143866020273e+00  3.9275244917244607e+00  4.3888627740782766e+00  4.7516431286001373e+00  5.0053340410414178e+00  5.1432407817574131e+00  5.1660595592569605e+00  -3.8205720247474195e+00  -3.7977435867891574e+00  -3.6606326993979685e+00  -3.4084625656503564e+00  -3.0478098225787988e+00  -2.5890735239454776e+00  -2.0453123449850827e+00  -1.4315494555378818e+00  -7.6421796391459662e-01  -6.0700827105337612e-02  6.6104358972363697e-01  1.3827880065525986e+00  2.0863051433618569e+00  2.7536366349851340e+00  3.3673995244323374e+00  3.9111607033927402e+00  4.3698970020260619e+00  4.7305497450976572e+00  4.9827198788452707e+00  5.1198307662364702e+00  5.1426592041947412e+00  -3.8439723798096446e+00  -3.8211536023100994e+00  -3.6832468615941218e+00  -3.4295559491528635e+00  -3.0667755946310216e+00  -2.6054373122772336e+00  -2.0587272071547913e+00  -1.4417744916820701e+00  -7.7108809410503232e-01  -6.4096493892139381e-02  6.6121920897636088e-01  1.3866189198471555e+00  2.0938567502004686e+00  2.7649339973226108e+00  3.3823923684095432e+00  3.9296810828739304e+00  4.3916189780390082e+00  4.7549633871322090e+00  5.0091338984008598e+00  5.1474209333116141e+00  5.1705933433952129e+00  -3.9185073072808412e+00  -3.8953641902739542e+00  -3.7546672955698037e+00  -3.4958994641832852e+00  -3.1261398633105051e+00  -2.6563812018881254e+00  -2.1002586846190301e+00  -1.4732752846896757e+00  -7.9220655885020397e-01  -7.4639677486411357e-02  6.6136948324037725e-01  1.3975494063587746e+00  2.1156172921398220e+00  2.7974827781631890e+00  3.4254996574497807e+00  3.9828083801507383e+00  4.4538002055379451e+00  4.8247230682682547e+00  5.0844813811543883e+00  5.2259615519325067e+00  5.2498246607557784e+00  -4.0437239873436033e+00  -4.0199109438945646e+00  -3.8743351009487199e+00  -3.6067908746163599e+00  -3.2250624366478124e+00  -2.7409845891657052e+00  -2.1689983225043288e+00  -1.5252602346687125e+00  -8.2699434986685172e-01  -9.2035046633534012e-02  6.6146935886272451e-01  1.4152363921745974e+00  2.1509675623810445e+00  2.8504650316810589e+00  3.4958079265591571e+00  4.0696461006376206e+00  4.5556599911022468e+00  4.9392238715719117e+00  5.2083353202454417e+00  5.3551459717835890e+00  5.3800737316877489e+00  -4.2188803067264882e+00  -4.1940259179038426e+00  -4.0412964799723081e+00  -3.7609988911949097e+00  -3.3620484575225604e+00  -2.8576000184710959e+00  -2.2633178618741261e+00  -1.5963092657254834e+00  -8.7440866523543159e-01  -1.1574099341117483e-01  6.6149482367695955e-01  1.4390917514360437e+00  2.1988235092079074e+00  2.9224304505950798e+00  3.5916778989543907e+00  4.1885648216824798e+00  4.6957597715568662e+00  5.0973343132919089e+00  5.3798835090083648e+00  5.5343807169747929e+00  5.5607950117353449e+00  -4.4428884132029669e+00  -4.4165754362570642e+00  -4.2541021383657638e+00  -3.9566136818350417e+00  -3.5347643637509263e+00  -3.0036617074474909e+00  -2.3806964337041978e+00  -1.6842370401962483e+00  -9.3284999539085223e-01  -1.4492236482440574e-01  6.6142461985108392e-01  1.4682378077654357e+00  2.2575442749150541e+00  3.0111580440017307e+00  3.7105678457946882e+00  4.3370058908269966e+00  4.8718155278068282e+00  5.2972471006401065e+00  5.5978335779623078e+00  5.7627343388050312e+00  5.7911365026977153e+00  -4.7142392853841670e+00  -4.6859733123140455e+00  -4.5106520944911415e+00  -4.1908117932783844e+00  -3.7397555081517635e+00  -3.1754044030115747e+00  -2.5174798769618656e+00  -1.7859125658855284e+00  -1.0000453088731356e+00  -1.7839257342587761e-01  6.6124348364132257e-01  1.5014550499284034e+00  2.3248184447099867e+00  3.1134749975145128e+00  3.8487881082096616e+00  4.5111929253296923e+00  5.0804088490573287e+00  5.5362425805387518e+00  5.8602645312742601e+00  6.0388658503588148e+00  6.0698876482627204e+00  -5.0309087421116629e+00  -5.0000646687341659e+00  -4.8079596921352374e+00  -4.4594980781995348e+00  -3.9720375718451320e+00  -3.3674864808381386e+00  -2.6685865557355490e+00  -1.8970601980562429e+00  -1.0729314024105687e+00  -2.1455922225491245e-01  6.6094746015339390e-01  1.5371373986005108e+00  2.3975539021854084e+00  3.2250587642782813e+00  4.0012011784294872e+00  4.7057435767232549e+00  5.3165663706820601e+00  5.8103256476526548e+00  6.1643991503972444e+00  6.3609313477245779e+00  6.3954222839589239e+00  -5.3902427166786033e+00  -5.3559647243184205e+00  -5.1417768634382162e+00  -4.7567564199253205e+00  -4.2245251214356898e+00  -3.5725265622853888e+00  -2.8272028045703936e+00  -2.0120968751420540e+00  -1.1475853262748570e+00  -2.5139958255356709e-01  6.6055152043169862e-01  1.5732822796651860e+00  2.4718201453647000e+00  3.3402797180408386e+00  4.1609117915449314e+00  4.9131891622720252e+00  5.5731665697635373e+00  6.1136638446423586e+00  6.5062398540810857e+00  6.7264596742642304e+00  6.7656470307390073e+00  -5.7888141781724372e+00  -5.7498055260259786e+00  -5.5059507195248862e+00  -5.0739905848160145e+00  -4.4872657868217098e+00  -3.7806101977225803e+00  -2.9845708888033631e+00  -2.1241113168362995e+00  -1.2192827135496167e+00  -2.8650905594186127e-01  6.6009861443608686e-01  1.6075580206643281e+00  2.5429262467637095e+00  3.4521956476313402e+00  4.3190555737126424e+00  5.1234585854089323e+00  5.8401341680006826e+00  6.4376980639873107e+00  6.8799374991622777e+00  7.1321637788153831e+00  7.1779728043719331e+00  -6.2222400978212109e+00  -6.1762468756905617e+00  -5.8912192004900410e+00  -5.3985729740343755e+00  -4.7465112310879620e+00  -3.9789425679479686e+00  -3.1300824242603325e+00  -2.2251648540876423e+00  -1.2828046453565058e+00  -3.1728284697935016e-01  6.5966672818080052e-01  1.6375037218170128e+00  2.6057557751190537e+00  3.5528877532395260e+00  4.4649164677860007e+00  5.3235132771224070e+00  6.1034399698259296e+00  6.7697164746833698e+00  7.2765925514311167e+00  7.5735767160054799e+00  7.6293455008657727e+00  -6.6849823017387378e+00  -6.6272872806784022e+00  -6.2828128261603373e+00  -5.7118250858551374e+00  -4.9839001180113156e+00  -4.1520852624220197e+00  -3.2520623979669674e+00  -2.3071731306012726e+00  -1.3331379152405194e+00  -3.4129561209895615e-01  6.5936605987954000e-01  1.6609118011153210e+00  2.6554951764499446e+00  3.6344062973285927e+00  4.5867959431423939e+00  5.4976242250389191e+00  6.3441854401395128e+00  7.0906387123627583e+00  7.6818019860787619e+00  8.0441324770903098e+00  8.1164200993654294e+00  -7.1703961670609377e+00  -7.0888281384468312e+00  -6.6557059989199523e+00  -5.9866143660051678e+00  -5.1767388838304287e+00  -4.2836927801748512e+00  -3.3398190750133230e+00  -2.3636456076719581e+00  -1.3666722017162178e+00  -3.5691092160801591e-01  6.5931338316641996e-01  1.6763963532150401e+00  2.6888261564694478e+00  3.6905812753060090e+00  4.6742463683725957e+00  5.6293513010930454e+00  6.5389230866241697e+00  7.3721602280331187e+00  8.0704954034679393e+00  8.5323123205966311e+00  8.6360512955454283e+00  -7.6722959531690833e+00  -7.5302125238003370e+00  -6.9667011466543975e+00  -6.1870428912896775e+00  -5.3019634983037731e+00  -4.3612448020862820e+00  -3.3875227911512749e+00  -2.3923584195981147e+00  -1.3828108266413122e+00  -3.6405080720918492e-01  6.5956894440589708e-01  1.6840383410023450e+00  2.7054290499718290e+00  3.7196605871268034e+00  4.7221247119108982e+00  5.7068560759522491e+00  6.6644281011480784e+00  7.5761499714563998e+00  8.3970314035952267e+00  9.0115936255215221e+00  9.1860295377531624e+00  -8.1887254318792415e+00  -7.8758662392018746e+00  -7.1500414118608031e+00  -6.2792751366495878e+00  -5.3485421938033202e+00  -4.3850752086214246e+00  -3.3996922129912481e+00  -2.3983753463853388e+00  -1.3855109470098199e+00  -3.6487476443100336e-01  6.6002682195931306e-01  1.6858239369780688e+00  2.7092245000645612e+00  3.7269739473989647e+00  4.7357908993452451e+00  5.7322068373930319e+00  6.7120942136290385e+00  7.6689810205272053e+00  8.5868485318547076e+00  9.4032092453573615e+00  9.7607059430895298e+00  -8.4877783221507119e+00  -7.9659381809665666e+00  -7.1608137469561797e+00  -6.2735661747286215e+00  -5.3415855491365596e+00  -4.3795600339404981e+00  -3.3956819966321703e+00  -2.3955886829207347e+00  -1.3837188385995927e+00  -3.6392342919940429e-01  6.6024475712668140e-01  1.6853948761204969e+00  2.7082329161894800e+00  3.7255215797280092e+00  4.7340298409696535e+00  5.7304255399894215e+00  6.7110045968523346e+00  7.6709090414811332e+00  8.6011575972743337e+00  9.4729146614681081e+00  1.0258443750291955e+01  </DataArray> 
</PointData> 
</Piece>
</UnstructuredGrid>
</VTKFile>