<?xml version="1.0"?>
<VTKFile type="UnstructuredGrid"  version="0.1"  >
<UnstructuredGrid>
<Piece  NumberOfPoints="651" NumberOfCells="1200">
<Points>
<DataArray  type="Float64"  NumberOfComponents="3"  format="ascii">0 0 0  50000 0 0  100000 0 0  150000 0 0  200000 0 0  250000 0 0  300000 0 0  350000 0 0  400000 0 0  450000 0 0  500000 0 0  550000 0 0  600000 0 0  650000 0 0  700000 0 0  750000 0 0  800000 0 0  850000 0 0  900000 0 0  950000 0 0  1000000 0 0  0 50000 0  50000 50000 0  100000 50000 0  150000 50000 0  200000 50000 0  250000 50000 0  300000 50000 0  350000 50000 0  400000 50000 0  450000 50000 0  500000 50000 0  550000 50000 0  600000 50000 0  650000 50000 0  700000 50000 0  750000 50000 0  800000 50000 0  850000 50000 0  900000 50000 0  950000 50000 0  1000000 50000 0  0 100000 0  50000 100000 0  100000 100000 0  150000 100000 0  200000 100000 0  250000 100000 0  300000 100000 0  350000 100000 0  400000 100000 0  450000 100000 0  500000 100000 0  550000 100000 0  600000 100000 0  650000 100000 0  700000 100000 0  750000 100000 0  800000 100000 0  850000 100000 0  900000 100000 0  950000 100000 0  1000000 100000 0  0 150000 0  50000 150000 0  100000 150000 0  150000 150000 0  200000 150000 0  250000 150000 0  300000 150000 0  350000 150000 0  400000 150000 0  450000 150000 0  500000 150000 0  550000 150000 0  600000 150000 0  650000 150000 0  700000 150000 0  750000 150000 0  800000 150000 0  850000 150000 0  900000 150000 0  950000 150000 0  1000000 150000 0  0 200000 0  50000 200000 0  100000 200000 0  150000 200000 0  200000 200000 0  250000 200000 0  300000 200000 0  350000 200000 0  400000 200000 0  450000 200000 0  500000 200000 0  550000 200000 0  600000 200000 0  650000 200000 0  700000 200000 0  750000 200000 0  800000 200000 0  850000 200000 0  900000 200000 0  950000 200000 0  1000000 200000 0  0 250000 0  50000 250000 0  100000 250000 0  150000 250000 0  200000 250000 0  250000 250000 0  300000 250000 0  350000 250000 0  400000 250000 0  450000 250000 0  500000 250000 0  550000 250000 0  600000 250000 0  650000 250000 0  700000 250000 0  750000 250000 0  800000 250000 0  850000 250000 0  900000 250000 0  950000 250000 0  1000000 250000 0  0 300000 0  50000 300000 0  100000 300000 0  150000 300000 0  200000 300000 0  250000 300000 0  300000 300000 0  350000 300000 0  400000 300000 0  450000 300000 0  500000 300000 0  550000 300000 0  600000 300000 0  650000 300000 0  700000 300000 0  750000 300000 0  800000 300000 0  850000 300000 0  900000 300000 0  950000 300000 0  1000000 300000 0  0 350000 0  50000 350000 0  100000 350000 0  150000 350000 0  200000 350000 0  250000 350000 0  300000 350000 0  350000 350000 0  400000 350000 0  450000 350000 0  500000 350000 0  550000 350000 0  600000 350000 0  650000 350000 0  700000 350000 0  750000 350000 0  800000 350000 0  850000 350000 0  900000 350000 0  950000 350000 0  1000000 350000 0  0 400000 0  50000 400000 0  100000 400000 0  150000 400000 0  200000 400000 0  250000 400000 0  300000 400000 0  350000 400000 0  400000 400000 0  450000 400000 0  500000 400000 0  550000 400000 0  600000 400000 0  650000 400000 0  700000 400000 0  750000 400000 0  800000 400000 0  850000 400000 0  900000 400000 0  950000 400000 0  1000000 400000 0  0 450000 0  50000 450000 0  100000 450000 0  150000 450000 0  200000 450000 0  250000 450000 0  300000 450000 0  350000 450000 0  400000 450000 0  450000 450000 0  500000 450000 0  550000 450000 0  600000 450000 0  650000 450000 0  700000 450000 0  750000 450000 0  800000 450000 0  850000 450000 0  900000 450000 0  950000 450000 0  1000000 450000 0  0 500000 0  50000 500000 0  100000 500000 0  150000 500000 0  200000 500000 0  250000 500000 0  300000 500000 0  350000 500000 0  400000 500000 0  450000 500000 0  500000 500000 0  550000 500000 0  600000 500000 0  650000 500000 0  700000 500000 0  750000 500000 0  800000 500000 0  850000 500000 0  900000 500000 0  950000 500000 0  1000000 500000 0  0 550000 0  50000 550000 0  100000 550000 0  150000 550000 0  200000 550000 0  250000 550000 0  300000 550000 0  350000 550000 0  400000 550000 0  450000 550000 0  500000 550000 0  550000 550000 0  600000 550000 0  650000 550000 0  700000 550000 0  750000 550000 0  800000 550000 0  850000 550000 0  900000 550000 0  950000 550000 0  1000000 550000 0  0 600000 0  50000 600000 0  100000 600000 0  150000 600000 0  200000 600000 0  250000 600000 0  300000 600000 0  350000 600000 0  400000 600000 0  450000 600000 0  500000 600000 0  550000 600000 0  600000 600000 0  650000 600000 0  700000 600000 0  750000 600000 0  800000 600000 0  850000 600000 0  900000 600000 0  950000 600000 0  1000000 600000 0  0 650000 0  50000 650000 0  100000 650000 0  150000 650000 0  200000 650000 0  250000 650000 0  300000 650000 0  350000 650000 0  400000 650000 0  450000 650000 0  500000 650000 0  550000 650000 0  600000 650000 0  650000 650000 0  700000 650000 0  750000 650000 0  800000 650000 0  850000 650000 0  900000 650000 0  950000 650000 0  1000000 650000 0  0 700000 0  50000 700000 0  100000 700000 0  150000 700000 0  200000 700000 0  250000 700000 0  300000 700000 0  350000 700000 0  400000 700000 0  450000 700000 0  500000 700000 0  550000 700000 0  600000 700000 0  650000 700000 0  700000 700000 0  750000 700000 0  800000 700000 0  850000 700000 0  900000 700000 0  950000 700000 0  1000000 700000 0  0 750000 0  50000 750000 0  100000 750000 0  150000 750000 0  200000 750000 0  250000 750000 0  300000 750000 0  350000 750000 0  400000 750000 0  450000 750000 0  500000 750000 0  550000 750000 0  600000 750000 0  650000 750000 0  700000 750000 0  750000 750000 0  800000 750000 0  850000 750000 0  900000 750000 0  950000 750000 0  1000000 750000 0  0 800000 0  50000 800000 0  100000 800000 0  150000 800000 0  200000 800000 0  250000 800000 0  300000 800000 0  350000 800000 0  400000 800000 0  450000 800000 0  500000 800000 0  550000 800000 0  600000 800000 0  650000 800000 0  700000 800000 0  750000 800000 0  800000 800000 0  850000 800000 0  900000 800000 0  950000 800000 0  1000000 800000 0  0 850000 0  50000 850000 0  100000 850000 0  150000 850000 0  200000 850000 0  250000 850000 0  300000 850000 0  350000 850000 0  400000 850000 0  450000 850000 0  500000 850000 0  550000 850000 0  600000 850000 0  650000 850000 0  700000 850000 0  750000 850000 0  800000 850000 0  850000 850000 0  900000 850000 0  950000 850000 0  1000000 850000 0  0 900000 0  50000 900000 0  100000 900000 0  150000 900000 0  200000 900000 0  250000 900000 0  300000 900000 0  350000 900000 0  400000 900000 0  450000 900000 0  500000 900000 0  550000 900000 0  600000 900000 0  650000 900000 0  700000 900000 0  750000 900000 0  800000 900000 0  850000 900000 0  900000 900000 0  950000 900000 0  1000000 900000 0  0 950000 0  50000 950000 0  100000 950000 0  150000 950000 0  200000 950000 0  250000 950000 0  300000 950000 0  350000 950000 0  400000 950000 0  450000 950000 0  500000 950000 0  550000 950000 0  600000 950000 0  650000 950000 0  700000 950000 0  750000 950000 0  800000 950000 0  850000 950000 0  900000 950000 0  950000 950000 0  1000000 950000 0  0 1000000 0  50000 1000000 0  100000 1000000 0  150000 1000000 0  200000 1000000 0  250000 1000000 0  300000 1000000 0  350000 1000000 0  400000 1000000 0  450000 1000000 0  500000 1000000 0  550000 1000000 0  600000 1000000 0  650000 1000000 0  700000 1000000 0  750000 1000000 0  800000 1000000 0  850000 1000000 0  900000 1000000 0  950000 1000000 0  1000000 1000000 0  0 1050000 0  50000 1050000 0  100000 1050000 0  150000 1050000 0  200000 1050000 0  250000 1050000 0  300000 1050000 0  350000 1050000 0  400000 1050000 0  450000 1050000 0  500000 1050000 0  550000 1050000 0  600000 1050000 0  650000 1050000 0  700000 1050000 0  750000 1050000 0  800000 1050000 0  850000 1050000 0  900000 1050000 0  950000 1050000 0  1000000 1050000 0  0 1100000 0  50000 1100000 0  100000 1100000 0  150000 1100000 0  200000 1100000 0  250000 1100000 0  300000 1100000 0  350000 1100000 0  400000 1100000 0  450000 1100000 0  500000 1100000 0  550000 1100000 0  600000 1100000 0  650000 1100000 0  700000 1100000 0  750000 1100000 0  800000 1100000 0  850000 1100000 0  900000 1100000 0  950000 1100000 0  1000000 1100000 0  0 1150000 0  50000 1150000 0  100000 1150000 0  150000 1150000 0  200000 1150000 0  250000 1150000 0  300000 1150000 0  350000 1150000 0  400000 1150000 0  450000 1150000 0  500000 1150000 0  550000 1150000 0  600000 1150000 0  650000 1150000 0  700000 1150000 0  750000 1150000 0  800000 1150000 0  850000 1150000 0  900000 1150000 0  950000 1150000 0  1000000 1150000 0  0 1200000 0  50000 1200000 0  100000 1200000 0  150000 1200000 0  200000 1200000 0  250000 1200000 0  300000 1200000 0  350000 1200000 0  400000 1200000 0  450000 1200000 0  500000 1200000 0  550000 1200000 0  600000 1200000 0  650000 1200000 0  700000 1200000 0  750000 1200000 0  800000 1200000 0  850000 1200000 0  900000 1200000 0  950000 1200000 0  1000000 1200000 0  0 1250000 0  50000 1250000 0  100000 1250000 0  150000 1250000 0  200000 1250000 0  250000 1250000 0  300000 1250000 0  350000 1250000 0  400000 1250000 0  450000 1250000 0  500000 1250000 0  550000 1250000 0  600000 1250000 0  650000 1250000 0  700000 1250000 0  750000 1250000 0  800000 1250000 0  850000 1250000 0  900000 1250000 0  950000 1250000 0  1000000 1250000 0  0 1300000 0  50000 1300000 0  100000 1300000 0  150000 1300000 0  200000 1300000 0  250000 1300000 0  300000 1300000 0  350000 1300000 0  400000 1300000 0  450000 1300000 0  500000 1300000 0  550000 1300000 0  600000 1300000 0  650000 1300000 0  700000 1300000 0  750000 1300000 0  800000 1300000 0  850000 1300000 0  900000 1300000 0  950000 1300000 0  1000000 1300000 0  0 1350000 0  50000 1350000 0  100000 1350000 0  150000 1350000 0  200000 1350000 0  250000 1350000 0  300000 1350000 0  350000 1350000 0  400000 1350000 0  450000 1350000 0  500000 1350000 0  550000 1350000 0  600000 1350000 0  650000 1350000 0  700000 135
[...]
<PointData  Scalars="f_1519"> 
<DataArray  type="Float64"  Name="f_1519"  format="ascii">-7.2769032350341352e+00  -6.6388037690139496e+00  -5.9308531335187000e+00  -5.1754781456830585e+00  -4.3960622588586036e+00  -3.5998869448732087e+00  -2.7908896030681780e+00  -1.9720725521780724e+00  -1.1461370725281448e+00  -3.1570282439484088e-01  5.1660518909328168e-01  1.3481158310294605e+00  2.1760794133119803e+00  2.9976150477337651e+00  3.8096004337342726e+00  4.6084375982224746e+00  5.3895591570540518e+00  6.1463320913352106e+00  6.8668701736733286e+00  7.5208835588187730e+00  7.9449625668673711e+00  -6.8725927598533163e+00  -6.5820471618505874e+00  -5.9191482343490742e+00  -5.1738676074011121e+00  -4.3969258357217180e+00  -3.6013254809430189e+00  -2.7923192929629859e+00  -1.9732561043965884e+00  -1.1469493641219455e+00  -3.1606046806582749e-01  5.1677099033161333e-01  1.3488749737997956e+00  2.1775183248370542e+00  2.9998571608922480e+00  3.8128291239752317e+00  4.6128766338591856e+00  5.3951478316941879e+00  6.1508687246655693e+00  6.8579512007629173e+00  7.4474577853849979e+00  7.7018752764799290e+00  -6.4057387942584016e+00  -6.2638703813564529e+00  -5.7648050312557118e+00  -5.0983102429632270e+00  -4.3580831484557345e+00  -3.5806384244449623e+00  -2.7811493551648998e+00  -1.9672689909642642e+00  -1.1438398271758670e+00  -3.1460201596208842e-01  5.1713311369415838e-01  1.3481779404258019e+00  2.1752785279257019e+00  2.9949027751607034e+00  3.8028543917387951e+00  4.5934042714318508e+00  5.3571697866795258e+00  6.0757815995356514e+00  6.7088447394488400e+00  7.1665130099690240e+00  7.2821917618508349e+00  -5.9589411434229200e+00  -5.8745082920016651e+00  -5.4994551202737547e+00  -4.9324652066900398e+00  -4.2559901421931343e+00  -3.5175538547840612e+00  -2.7421553703864414e+00  -1.9435726780684139e+00  -1.1303056243396798e+00  -3.0837401405876969e-01  5.1733415469781774e-01  1.3423448624098240e+00  2.1621090814494837e+00  2.9714929394175882e+00  3.7639930238152361e+00  4.5302751587429508e+00  5.2553017350732798e+00  5.9128248984153915e+00  6.4560926231024061e+00  6.8078652812014360e+00  6.8743241505788486e+00  -5.5367937747541580e+00  -5.4779254628636229e+00  -5.1836514205457922e+00  -4.7036779142376473e+00  -4.0976790040365625e+00  -3.4104290328498590e+00  -2.6710127543813136e+00  -1.8978587337723309e+00  -1.1031752288005707e+00  -2.9576937277752613e-01  5.1728825150702096e-01  1.3296280690094544e+00  2.1348084933725100e+00  2.9255338142345431e+00  3.6926001742848840e+00  4.4232479203451396e+00  5.0985331213280940e+00  5.6894989790796791e+00  6.1530991109807678e+00  6.4328743531266408e+00  6.4798934582155425e+00  -5.1410960195713669e+00  -5.0956622394609603e+00  -4.8544531350732818e+00  -4.4429174099507147e+00  -3.9020251737686524e+00  -3.2688965777287997e+00  -2.5719155980354040e+00  -1.8315639690781502e+00  -1.0627178360415246e+00  -2.7672741052636085e-01  5.1704373583881114e-01  1.3100946039324861e+00  2.0938690952167862e+00  2.8588426489411720e+00  3.5934236725686040e+00  4.2825040007576760e+00  4.9056047031946228e+00  5.4349600817294981e+00  5.8349406401969768e+00  6.0664307691104140e+00  6.1039130534514499e+00  -4.7744048096272804e+00  -4.7370752591576997e+00  -4.5322168356743893e+00  -4.1731666992766980e+00  -3.6880721552025806e+00  -3.1063138421925052e+00  -2.4533565718143460e+00  -1.7497067494219669e+00  -1.0116341518453775e+00  -2.5237709026736155e-01  5.1669464941702381e-01  1.2850752205533948e+00  2.0422268683904097e+00  2.7766959687787733e+00  3.4751522268108674e+00  4.1213224116202776e+00  4.6949481256794314e+00  5.1712416290853378e+00  5.5219382601523472e+00  5.7199832165766518e+00  5.7517710565159721e+00  -4.4394376440020178e+00  -4.4074984681769278e+00  -4.2286378414086192e+00  -3.9099179129841453e+00  -3.4711655271382216e+00  -2.9354548612771429e+00  -2.3248384729738949e+00  -1.6587462283162218e+00  -9.5383615655470888e-01  -2.2451314056900257e-01  5.1632978032170318e-01  1.2565400790673638e+00  1.9839545362380218e+00  2.6856610015369133e+00  3.3472687360424564e+00  3.9522412775758600e+00  4.4814738457534595e+00  4.9135108253983244e+00  5.2260853235272213e+00  5.4000297606393692e+00  5.4279605402908970e+00  -4.1386748692105400e+00  -4.1105603119074932e+00  -3.9509426957346556e+00  -3.6634919522572629e+00  -3.2626958008712044e+00  -2.7669065891582996e+00  -2.1950633880306634e+00  -1.5651137566591049e+00  -8.9347978636580039e-01  -1.9513488438295828e-01  5.1601194155283248e-01  1.2266043578760100e+00  1.9232903929847525e+00  2.5921846364407890e+00  3.2183877076368468e+00  3.7856500385436300e+00  4.2763451288222036e+00  4.6720208976062771e+00  4.9549027860765626e+00  5.1109068328822218e+00  5.1360381332105751e+00  -3.8742187131407588e+00  -3.8489303790260747e+00  -3.7038808360176572e+00  -3.4408378029746327e+00  -3.0708426620050009e+00  -2.6088455200882192e+00  -2.0712285027733781e+00  -1.4744462762111954e+00  -8.3437429800762253e-01  -1.6613599514271082e-01  5.1577567556706394e-01  1.1972203245154949e+00  1.8640703634782181e+00  2.5018784490048693e+00  3.0956197907329681e+00  3.6295983261071254e+00  4.0876422942547572e+00  4.4537512120039349e+00  4.7133864529041380e+00  4.8557547797738136e+00  4.8787847335956060e+00  -3.6477686151388573e+00  -3.6246152577282440e+00  -3.4906980263123777e+00  -3.2466904977345381e+00  -2.9013874063747278e+00  -2.4673347870804991e+00  -1.9589316004002457e+00  -1.3913142778979057e+00  -7.7971089070388067e-01  -1.3914251436550107e-01  5.1563294290621042e-01  1.1700300294769592e+00  1.8094792602978969e+00  2.4192750188469878e+00  2.9844965725898311e+00  3.4900785479203855e+00  3.9211174608860291e+00  4.2635046383586683e+00  4.5049850205831170e+00  4.6369151939044251e+00  4.6583537712879144e+00  -3.4606445287057386e+00  -3.4391119458973254e+00  -3.3136489714392123e+00  -3.0842932353763128e+00  -2.7583671984464835e+00  -2.3467435092004569e+00  -1.8623431018004775e+00  -1.3192267165944536e+00  -7.3199976508697007e-01  -1.1545834276778688e-01  5.1558042596496012e-01  1.1463260724509159e+00  1.7620036743718679e+00  2.3478451608938045e+00  2.8891431113417201e+00  3.3714267598541943e+00  3.7808165927998010e+00  4.1046053073551851e+00  4.3321226865741220e+00  4.4561367578929207e+00  4.4763873006816217e+00  -3.3138289515835311e+00  -3.2935089884009652e+00  -3.1742931020166449e+00  -2.9558536757801104e+00  -2.6445568028752735e+00  -2.2501369775565876e+00  -1.7844579145035586e+00  -1.2607590117919167e+00  -6.9311717073843304e-01  -9.6073435950517955e-02  5.1560567572654381e-01  1.1270715742409030e+00  1.7234886092532036e+00  2.2901302757782172e+00  2.8125254247001079e+00  3.2766990925580615e+00  3.6695436308508613e+00  3.9793447334974381e+00  4.1965035831588606e+00  4.3147063028566102e+00  4.3341091728901722e+00  -3.2080133469529351e+00  -3.1885624314639629e+00  -3.0736794778828105e+00  -2.8628388118595516e+00  -2.5618101082532760e+00  -2.1795919564836463e+00  -1.7273390598003009e+00  -1.2177138662682652e+00  -6.6439495446384977e-01  -8.1700204983088678e-02  5.1569140122813162e-01  1.1129443575088005e+00  1.6952322733292360e+00  2.2479040335088194e+00  2.7566894665302932e+00  3.2079778829505039e+00  3.5891923441871536e+00  3.8892726608935360e+00  4.0993035181278730e+00  4.2135432659237564e+00  4.2324014023412468e+00  -3.1436405246128856e+00  -3.1247540276574637e+00  -3.0124674163149368e+00  -2.8061670880706524e+00  -2.5112947607631297e+00  -2.1364309673576924e+00  -1.6923170392175162e+00  -1.1912684044004609e+00  -6.4671298029086877e-01  -7.2816011470316314e-02  5.1581808488651137e-01  1.1043839656062853e+00  1.6780809689901703e+00  2.2223189018362413e+00  2.7229566131653535e+00  3.1666000141534867e+00  3.5409756771418022e+00  3.8353880166198375e+00  4.0412960798480633e+00  4.1532702450546992e+00  4.1718654653732461e+00  -3.1209374425072700e+00  -3.1023328303621196e+00  -2.9910036553069776e+00  -2.7863296146491661e+00  -2.4936444951973429e+00  -2.1213816920184594e+00  -1.6801332785545189e+00  -1.1820865097017774e+00  -6.4057382477515390e-01  -6.9699318713542846e-02  5.1596536589040898e-01  1.1016300504943477e+00  1.6725045565559582e+00  2.2140172414825741e+00  2.7120640103353182e+00  3.1533124237992651e+00  3.5255752269781424e+00  3.8182603464299856e+00  4.0229343870877976e+00  4.1342635621429453e+00  4.1528681742881037e+00  -3.1399347335924146e+00  -3.1213395132738713e+00  -3.0093653480672451e+00  -2.8034572848390336e+00  -2.5090449453610035e+00  -2.1346692823727018e+00  -1.6910258813845667e+00  -1.1903881700554526e+00  -6.4615023720938092e-01  -7.2453233825478677e-02  5.1611264689431302e-01  1.1047467432511355e+00  1.6786437120716806e+00  2.2231991361812558e+00  2.7242477709983177e+00  3.1683616991385040e+00  3.5432254925439470e+00  3.8380978198514741e+00  4.0443981480957865e+00  4.1566847594383356e+00  4.1755712563937539e+00  -3.2004706705604087e+00  -3.1816125341429289e+00  -3.0673727863470548e+00  -2.8573419291127182e+00  -2.5572616124063532e+00  -2.1760471511697377e+00  -1.7247587347495206e+00  -1.2159733017280343e+00  -6.6330154154844245e-01  -8.1013625727980820e-02  5.1623933055270677e-01  1.1136309367639232e+00  1.6963256862446781e+00  2.2496445980490902e+00  2.7592697915811351e+00  3.2115226882644814e+00  3.5937408400341120e+00  3.8947695436403889e+00  4.1056102096637002e+00  4.2204931632448872e+00  4.2399440787338438e+00  -3.3021784411093087e+00  -3.2827755710757431e+00  -3.1645728513780043e+00  -2.9474140017165733e+00  -2.6376128990700320e+00  -2.2447683607772597e+00  -1.7805946929193037e+00  -1.2581995439974101e+00  -6.9155787747237840e-01  -9.5140842460061811e-02  5.1632505605432677e-01  1.1280041677313877e+00  1.7250479025192937e+00  2.2926897435727613e+00  2.8163886462844103e+00  3.2820677093374475e+00  3.6764875346561610e+00  3.9877844075609969e+00  4.2062238337975364e+00  4.3254397201818442e+00  4.3457596833644123e+00  -3.4444565689007445e+00  -3.4242060261120497e+00  -3.3001919547932479e+00  -3.0726745755743297e+00  -2.7488858610189526e+00  -2.3394960280733619e+00  -1.8572123795608857e+00  -1.3159144291129674e+00  -7.3007294259101030e-01  -1.1439534067004394e-01  5.1635030581593555e-01  1.1473890745486888e+00  1.7639304968678673e+00  2.3511574483753237e+00  2.8942738335813414e+00  3.3786742409813182e+00  3.7902979302273785e+00  4.1162239671572030e+00  4.3455797032200838e+00  4.4710426776781720e+00  4.4925752604865936e+00  -3.6264230395069976e+00  -3.6049844621235096e+00  -3.4730542888022082e+00  -3.2315739065777946e+00  -2.8891867291051474e+00  -2.4581478161394874e+00  -1.9525658408089397e+00  -1.3873442870660988e+00  -7.7754852851698630e-01  -1.3809929769603949e-01  5.1629778887472777e-01  1.1710732461464439e+00  1.8116416224848257e+00  2.4232450096788418e+00  2.9908623321811882e+00  3.4992655188614252e+00  3.9333181381556339e+00  4.2786212295154291e+00  4.5226287580932674e+00  4.6565459895090999e+00  4.6796993469197110e+00  -3.8468540018146298e+00  -3.8238240479928640e+00  -3.6814557211231866e+00  -3.4218204802230066e+00  -3.0557115624738369e+00  -2.5976675943261833e+00  -2.0636890589520305e+00  -1.4699477172239266e+00  -8.3213963169725957e-01  -1.6528959273451577e-01  5.1615505621393309e-01  1.1980667269237142e+00  1.8663050297886250e+00  2.5063770079922119e+00  3.1031592345544019e+00  3.6407762518692190e+00  4.1027733937859621e+00  4.4727685347555513e+00  4.7358115677985557e+00  4.8808611108069462e+00  4.9061494449216010e+00  -4.1041074014295864e+00  -4.0789761011012464e+00  -3.9229720542955802e+00  -3.6400901658252987e+00  -3.2444143970412380e+00  -2.7537193067626498e+00  -2.1864569758558612e+00  -1.5602539046597772e+00  -8.9135966120372279e-01  -1.9467362609496688e-01  5.1591879022822484e-01  1.2270656161640281e+00  1.9254105181468697e+00  2.5970444884401833e+00  3.2269941198117333e+00  3.7988373209393336e+00  4.2946265326522015e+00  4.6954226840382169e+00  4.9828734275155746e+00  5.1424910436883930e+00  5.1706056009914443e+00  -4.3960298085098719e+00  -4.3680990288583290e+00  -4.1941545917461935e+00  -3.8815800936173188e+00  -3.4495431139724335e+00  -2.9203105457948246e+00  -2.3153380042614047e+00  -1.6537302697558389e+00  -9.5202380445693469e-01  -2.2460934728626344e-01  5.1560095145940910e-01  1.2564438723501259e+00  1.9857668883358279e+00  2.6906769600973330e+00  3.3567692047549906e+00  3.9673855930582054e+00  4.5030962589192631e+00  4.9418486447651340e+00  5.2605685731895715e+00  5.4394291999578890e+00  5.4713683757829790e+00  -4.7198403247349221e+00  -4.6880524847956027e+00  -4.4900075283713283e+00  -4.1393108973043189e+00  -3.6630173938983699e+00  -3.0893916798391903e+00  -2.4432214950297504e+00  -1.7447652369976305e+00  -1.0102961366092578e+00  -2.5314448877223211e-01  5.1523608236414697e-01  1.2843078220485376e+00  2.0435648836265465e+00  2.7816374812031133e+00  3.4852873035954746e+00  4.1382445739735969e+00  4.7200028869836714e+00  5.2050974310577640e+00  5.5641475674554126e+00  5.7690059909387061e+00  5.8063355414082976e+00  -5.0719823216703679e+00  -5.0345000373293445e+00  -4.8030099084158868e+00  -4.4030293499484152e+00  -3.8736739714135098e+00  -3.2505732689765572e+00  -2.5614929407874336e+00  -1.8269119171599573e+00  -1.0619383634355701e+00  -2.7816387215127175e-01  5.1488699594241594e-01  1.3086581423075903e+00  2.0946485678227500e+00  2.8634947008593556e+00  3.6038463298165802e+00  4.3008273095099661e+00  4.9339559055498015e+00  5.4748481417318455e+00  5.8863838668543664e+00  6.1275929712420352e+00  6.1730267513524399e+00  -5.4479627264344135e+00  -5.4009436213455144e+00  -5.1211683791996192e+00  -4.6575682472985349e+00  -4.0666023895469321e+00  -3.3913171885639808e+00  -2.6606694425036741e+00  -1.8936030824532915e+00  -1.1028777615912548e+00  -2.9769733722819947e-01  5.1464248027424520e-01  1.3277001045587926e+00  2.1351059605818277e+00  2.9297894655535743e+00  3.7029434861625425e+00  4.4423597646310933e+00  5.1296097358177617e+00  5.7356086460188260e+00  6.2155821523269559e+00  6.5098561946447573e+00  6.5687245065352862e+00  -5.8423934187976796e+00  -5.7759345494202545e+00  -5.4241618913212308e+00  -4.8808941666342074e+00  -4.2233710032920886e+00  -3.4983444269617481e+00  -2.7320622920339868e+00  -1.9395622076363164e+00  -1.1301783496682019e+00  -3.1041413062854367e-01  5.1459657708347006e-01  1.3403047458400625e+00  2.1622363561209537e+00  2.9755034098496811e+00  3.7740861021677228e+00  4.5494845865653462e+00  5.2879208739743930e+00  5.9643959384712639e+00  6.5313858520549646e+00  6.9064390237828528e+00  6.9908718752040979e+00  -6.2502610300696313e+00  -6.1345822781877892e+00  -5.6769140076676452e+00  -5.0438508677544558e+00  -4.3252390548983408e+00  -3.5614735396506330e+00  -2.7709236599575409e+00  -1.9629720433794187e+00  -1.1433477961444227e+00  -3.1624720864451211e-01  5.1479761808714364e-01  1.3465327477433922e+00  2.1757705589571614e+00  2.9991997227455394e+00  3.8130800869461901e+00  4.6125691562262539e+00  5.3900138802370128e+00  6.1302409747444795e+00  6.7967357630369385e+00  7.2958011131376548e+00  7.4376695260396417e+00  -6.6699445446987484e+00  -6.4155270536038103e+00  -5.8260204689817865e+00  -5.1189379928844039e+00  -4.3632170999129984e+00  -3.5809459020779588e+00  -2.7808983921939707e+00  -1.9679264291109642e+00  -1.1455875930557635e+00  -3.1694424201849813e-01  5.1515974144968890e-01  1.3479911998471361e+00  2.1788800959032466e+00  3.0051868361778857e+00  3.8242500247442752e+00  4.6332562127242882e+00  5.4288565675029981e+00  6.2057983391823655e+00  6.9510789661303312e+00  7.6139778936318159e+00  7.9045234916345466e+00  -6.9130318350861852e+00  -6.4889528270375862e+00  -5.8349394418921721e+00  -5.1144013595540416e+00  -4.3576284252728534e+00  -3.5765068664412545e+00  -2.7776697019530103e+00  -1.9656843159524846e+00  -1.1441486815306858e+00  -3.1618509924815663e-01  5.1532554268802566e-01  1.3476335561761419e+00  2.1780678043094506e+00  3.0040032839593733e+00  3.8228203348494736e+00  4.6318176766544772e+00  5.4279929906398845e+00  6.2074088774643279e+00  6.9627838652999428e+00  7.6707345007951915e+00  8.3088339668153761e+00  </DataArray> 
</PointData> 
</Piece>
</UnstructuredGrid>
</VTKFile>