<?xml version="1.0"?>
<VTKFile type="UnstructuredGrid"  version="0.1"  >
<UnstructuredGrid>
<Piece  NumberOfPoints="651" NumberOfCells="1200">
<Points>
<DataArray  type="Float64"  NumberOfComponents="3"  format="ascii">0 0 0  50000 0 0  100000 0 0  150000 0 0  200000 0 0  250000 0 0  300000 0 0  350000 0 0  400000 0 0  450000 0 0  500000 0 0  550000 0 0  600000 0 0  650000 0 0  700000 0 0  750000 0 0  800000 0 0  850000 0 0  900000 0 0  950000 0 0  1000000 0 0  0 50000 0  50000 50000 0  100000 50000 0  150000 50000 0  200000 50000 0  250000 50000 0  300000 50000 0  350000 50000 0  400000 50000 0  450000 50000 0  500000 50000 0  550000 50000 0  600000 50000 0  650000 50000 0  700000 50000 0  750000 50000 0  800000 50000 0  850000 50000 0  900000 50000 0  950000 50000 0  1000000 50000 0  0 100000 0  50000 100000 0  100000 100000 0  150000 100000 0  200000 100000 0  250000 100000 0  300000 100000 0  350000 100000 0  400000 100000 0  450000 100000 0  500000 100000 0  550000 100000 0  600000 100000 0  650000 100000 0  700000 100000 0  750000 100000 0  800000 100000 0  850000 100000 0  900000 100000 0  950000 100000 0  1000000 100000 0  0 150000 0  50000 150000 0  100000 150000 0  150000 150000 0  200000 150000 0  250000 150000 0  300000 150000 0  350000 150000 0  400000 150000 0  450000 150000 0  500000 150000 0  550000 150000 0  600000 150000 0  650000 150000 0  700000 150000 0  750000 150000 0  800000 150000 0  850000 150000 0  900000 150000 0  950000 150000 0  1000000 150000 0  0 200000 0  50000 200000 0  100000 200000 0  150000 200000 0  200000 200000 0  250000 200000 0  300000 200000 0  350000 200000 0  400000 200000 0  450000 200000 0  500000 200000 0  550000 200000 0  600000 200000 0  650000 200000 0  700000 200000 0  750000 200000 0  800000 200000 0  850000 200000 0  900000 200000 0  950000 200000 0  1000000 200000 0  0 250000 0  50000 250000 0  100000 250000 0  150000 250000 0  200000 250000 0  250000 250000 0  300000 250000 0  350000 250000 0  400000 250000 0  450000 250000 0  500000 250000 0  550000 250000 0  600000 250000 0  650000 250000 0  700000 250000 0  750000 250000 0  800000 250000 0  850000 250000 0  900000 250000 0  950000 250000 0  1000000 250000 0  0 300000 0  50000 300000 0  100000 300000 0  150000 300000 0  200000 300000 0  250000 300000 0  300000 300000 0  350000 300000 0  400000 300000 0  450000 300000 0  500000 300000 0  550000 300000 0  600000 300000 0  650000 300000 0  700000 300000 0  750000 300000 0  800000 300000 0  850000 300000 0  900000 300000 0  950000 300000 0  1000000 300000 0  0 350000 0  50000 350000 0  100000 350000 0  150000 350000 0  200000 350000 0  250000 350000 0  300000 350000 0  350000 350000 0  400000 350000 0  450000 350000 0  500000 350000 0  550000 350000 0  600000 350000 0  650000 350000 0  700000 350000 0  750000 350000 0  800000 350000 0  850000 350000 0  900000 350000 0  950000 350000 0  1000000 350000 0  0 400000 0  50000 400000 0  100000 400000 0  150000 400000 0  200000 400000 0  250000 400000 0  300000 400000 0  350000 400000 0  400000 400000 0  450000 400000 0  500000 400000 0  550000 400000 0  600000 400000 0  650000 400000 0  700000 400000 0  750000 400000 0  800000 400000 0  850000 400000 0  900000 400000 0  950000 400000 0  1000000 400000 0  0 450000 0  50000 450000 0  100000 450000 0  150000 450000 0  200000 450000 0  250000 450000 0  300000 450000 0  350000 450000 0  400000 450000 0  450000 450000 0  500000 450000 0  550000 450000 0  600000 450000 0  650000 450000 0  700000 450000 0  750000 450000 0  800000 450000 0  850000 450000 0  900000 450000 0  950000 450000 0  1000000 450000 0  0 500000 0  50000 500000 0  100000 500000 0  150000 500000 0  200000 500000 0  250000 500000 0  300000 500000 0  350000 500000 0  400000 500000 0  450000 500000 0  500000 500000 0  550000 500000 0  600000 500000 0  650000 500000 0  700000 500000 0  750000 500000 0  800000 500000 0  850000 500000 0  900000 500000 0  950000 500000 0  1000000 500000 0  0 550000 0  50000 550000 0  100000 550000 0  150000 550000 0  200000 550000 0  250000 550000 0  300000 550000 0  350000 550000 0  400000 550000 0  450000 550000 0  500000 550000 0  550000 550000 0  600000 550000 0  650000 550000 0  700000 550000 0  750000 550000 0  800000 550000 0  850000 550000 0  900000 550000 0  950000 550000 0  1000000 550000 0  0 600000 0  50000 600000 0  100000 600000 0  150000 600000 0  200000 600000 0  250000 600000 0  300000 600000 0  350000 600000 0  400000 600000 0  450000 600000 0  500000 600000 0  550000 600000 0  600000 600000 0  650000 600000 0  700000 600000 0  750000 600000 0  800000 600000 0  850000 600000 0  900000 600000 0  950000 600000 0  1000000 600000 0  0 650000 0  50000 650000 0  100000 650000 0  150000 650000 0  200000 650000 0  250000 650000 0  300000 650000 0  350000 650000 0  400000 650000 0  450000 650000 0  500000 650000 0  550000 650000 0  600000 650000 0  650000 650000 0  700000 650000 0  750000 650000 0  800000 650000 0  850000 650000 0  900000 650000 0  950000 650000 0  1000000 650000 0  0 700000 0  50000 700000 0  100000 700000 0  150000 700000 0  200000 700000 0  250000 700000 0  300000 700000 0  350000 700000 0  400000 700000 0  450000 700000 0  500000 700000 0  550000 700000 0  600000 700000 0  650000 700000 0  700000 700000 0  750000 700000 0  800000 700000 0  850000 700000 0  900000 700000 0  950000 700000 0  1000000 700000 0  0 750000 0  50000 750000 0  100000 750000 0  150000 750000 0  200000 750000 0  250000 750000 0  300000 750000 0  350000 750000 0  400000 750000 0  450000 750000 0  500000 750000 0  550000 750000 0  600000 750000 0  650000 750000 0  700000 750000 0  750000 750000 0  800000 750000 0  850000 750000 0  900000 750000 0  950000 750000 0  1000000 750000 0  0 800000 0  50000 800000 0  100000 800000 0  150000 800000 0  200000 800000 0  250000 800000 0  300000 800000 0  350000 800000 0  400000 800000 0  450000 800000 0  500000 800000 0  550000 800000 0  600000 800000 0  650000 800000 0  700000 800000 0  750000 800000 0  800000 800000 0  850000 800000 0  900000 800000 0  950000 800000 0  1000000 800000 0  0 850000 0  50000 850000 0  100000 850000 0  150000 850000 0  200000 850000 0  250000 850000 0  300000 850000 0  350000 850000 0  400000 850000 0  450000 850000 0  500000 850000 0  550000 850000 0  600000 850000 0  650000 850000 0  700000 850000 0  750000 850000 0  800000 850000 0  850000 850000 0  900000 850000 0  950000 850000 0  1000000 850000 0  0 900000 0  50000 900000 0  100000 900000 0  150000 900000 0  200000 900000 0  250000 900000 0  300000 900000 0  350000 900000 0  400000 900000 0  450000 900000 0  500000 900000 0  550000 900000 0  600000 900000 0  650000 900000 0  700000 900000 0  750000 900000 0  800000 900000 0  850000 900000 0  900000 900000 0  950000 900000 0  1000000 900000 0  0 950000 0  50000 950000 0  100000 950000 0  150000 950000 0  200000 950000 0  250000 950000 0  300000 950000 0  350000 950000 0  400000 950000 0  450000 950000 0  500000 950000 0  550000 950000 0  600000 950000 0  650000 950000 0  700000 950000 0  750000 950000 0  800000 950000 0  850000 950000 0  900000 950000 0  950000 950000 0  1000000 950000 0  0 1000000 0  50000 1000000 0  100000 1000000 0  150000 1000000 0  200000 1000000 0  250000 1000000 0  300000 1000000 0  350000 1000000 0  400000 1000000 0  450000 1000000 0  500000 1000000 0  550000 1000000 0  600000 1000000 0  650000 1000000 0  700000 1000000 0  750000 1000000 0  800000 1000000 0  850000 1000000 0  900000 1000000 0  950000 1000000 0  1000000 1000000 0  0 1050000 0  50000 1050000 0  100000 1050000 0  150000 1050000 0  200000 1050000 0  250000 1050000 0  300000 1050000 0  350000 1050000 0  400000 1050000 0  450000 1050000 0  500000 1050000 0  550000 1050000 0  600000 1050000 0  650000 1050000 0  700000 1050000 0  750000 1050000 0  800000 1050000 0  850000 1050000 0  900000 1050000 0  950000 1050000 0  1000000 1050000 0  0 1100000 0  50000 1100000 0  100000 1100000 0  150000 1100000 0  200000 1100000 0  250000 1100000 0  300000 1100000 0  350000 1100000 0  400000 1100000 0  450000 1100000 0  500000 1100000 0  550000 1100000 0  600000 1100000 0  650000 1100000 0  700000 1100000 0  750000 1100000 0  800000 1100000 0  850000 1100000 0  900000 1100000 0  950000 1100000 0  1000000 1100000 0  0 1150000 0  50000 1150000 0  100000 1150000 0  150000 1150000 0  200000 1150000 0  250000 1150000 0  300000 1150000 0  350000 1150000 0  400000 1150000 0  450000 1150000 0  500000 1150000 0  550000 1150000 0  600000 1150000 0  650000 1150000 0  700000 1150000 0  750000 1150000 0  800000 1150000 0  850000 1150000 0  900000 1150000 0  950000 1150000 0  1000000 1150000 0  0 1200000 0  50000 1200000 0  100000 1200000 0  150000 1200000 0  200000 1200000 0  250000 1200000 0  300000 1200000 0  350000 1200000 0  400000 1200000 0  450000 1200000 0  500000 1200000 0  550000 1200000 0  600000 1200000 0  650000 1200000 0  700000 1200000 0  750000 1200000 0  800000 1200000 0  850000 1200000 0  900000 1200000 0  950000 1200000 0  1000000 1200000 0  0 1250000 0  50000 1250000 0  100000 1250000 0  150000 1250000 0  200000 1250000 0  250000 1250000 0  300000 1250000 0  350000 1250000 0  400000 1250000 0  450000 1250000 0  500000 1250000 0  550000 1250000 0  600000 1250000 0  650000 1250000 0  700000 1250000 0  750000 1250000 0  800000 1250000 0  850000 1250000 0  900000 1250000 0  950000 1250000 0  1000000 1250000 0  0 1300000 0  50000 1300000 0  100000 1300000 0  150000 1300000 0  200000 1300000 0  250000 1300000 0  300000 1300000 0  350000 1300000 0  400000 1300000 0  450000 1300000 0  500000 1300000 0  550000 1300000 0  600000 1300000 0  650000 1300000 0  700000 1300000 0  750000 1300000 0  800000 1300000 0  850000 1300000 0  900000 1300000 0  950000 1300000 0  1000000 1300000 0  0 1350000 0  50000 1350000 0  100000 1350000 0  150000 1350000 0  200000 1350000 0  250000 1350000 0  300000 1350000 0  350000 1350000 0  400000 1350000 0  450000 1350000 0  500000 1350000 0  550000 1350000 0  600000 1350000 0  650000 1350000 0  700000 135
[...]
<PointData  Scalars="f_1519"> 
<DataArray  type="Float64"  Name="f_1519"  format="ascii">-9.3823134413235483e+00  -8.5640176482503758e+00  -7.6558564430169271e+00  -6.6867451592226761e+00  -5.6867309312845098e+00  -4.6651726688190340e+00  -3.6271327964591480e+00  -2.5764712347717231e+00  -1.5166602450626447e+00  -4.5106663010153181e-01  6.1693631664095083e-01  1.6839162238963934e+00  2.7463398125125891e+00  3.8005050149628374e+00  4.8423989595846946e+00  5.8673960695225063e+00  6.8696213473973149e+00  7.8405358872836031e+00  8.7648288445710847e+00  9.6035322556612606e+00  1.0147095596474900e+01  -8.8638284945287271e+00  -8.4914472872171576e+00  -7.6409795163987795e+00  -6.6847561782717460e+00  -5.6878793117681026e+00  -4.6670377134084022e+00  -3.6289741969655651e+00  -2.5779892425203168e+00  -1.5176968412518579e+00  -4.5151606334301042e-01  6.1716193727372981e-01  1.6849069050771512e+00  2.7482075162055395e+00  3.8034102014186111e+00  4.8465806991135869e+00  5.8731485099560006e+00  6.8768803161756216e+00  7.8465038376742235e+00  8.7536431926327403e+00  9.5097597030158454e+00  9.8356044303838051e+00  -8.2652040774534505e+00  -8.0835232550334926e+00  -7.4432893186295415e+00  -6.5880954205337741e+00  -5.6382603422364275e+00  -4.6406576032697400e+00  -3.6147595260647445e+00  -2.5703866758140075e+00  -1.5137538181804631e+00  -4.4966201514931259e-01  6.1763739729072242e-01  1.6840515416310267e+00  2.7454023416313387e+00  3.7971547808692478e+00  4.8339215275552831e+00  5.8483478872560957e+00  6.8283888289751120e+00  7.7504602031218699e+00  8.5626941763537001e+00  9.1497250667752787e+00  9.2976747640945927e+00  -7.6923073084480933e+00  -7.5842697150654583e+00  -7.1031653574561506e+00  -6.3756371420736766e+00  -5.5075599011453837e+00  -4.5599548215722905e+00  -3.5649126653194072e+00  -2.5401162819099645e+00  -1.4964735374201812e+00  -4.4170980258216330e-01  6.1790158477669566e-01  1.6766182259288858e+00  2.7286012882575101e+00  3.7672612930200571e+00  4.7842509399444166e+00  5.7675891587781916e+00  6.6979725001954913e+00  7.5417034482165199e+00  8.2387551486663018e+00  8.6899539172933036e+00  8.7748782195806321e+00  -7.1510216986578987e+00  -7.0757432568655254e+00  -6.6982819610782975e+00  -6.0824040256932896e+00  -5.3047339561073867e+00  -4.4227664415531267e+00  -3.4738435573132813e+00  -2.4816213479684013e+00  -1.4617688440732783e+00  -4.2558897349547953e-01  6.1784415821283478e-01  1.6603559832231640e+00  2.6936793107875228e+00  3.7084504526703537e+00  4.6928561242705786e+00  5.6305179239128877e+00  6.4971169825258412e+00  7.2554769459198898e+00  7.8503280159981097e+00  8.2091792354673743e+00  8.2692455420040680e+00  -6.6436481013953159e+00  -6.5855737377748396e+00  -6.2761876669397445e+00  -5.7481186232676835e+00  -5.0539737803671372e+00  -4.2414210171939128e+00  -3.3469060615471702e+00  -2.3967239967153318e+00  -1.4099705816093404e+00  -4.0121402364313807e-01  6.1752804421659002e-01  1.6353452407515476e+00  2.6412563057111536e+00  3.6230365139280973e+00  4.5658071806159617e+00  5.4501742783663083e+00  6.2498470581293919e+00  6.9291767930511137e+00  7.4424150652744485e+00  7.7393393803530941e+00  7.7872230177735418e+00  -6.1734627000371010e+00  -6.1257604575728246e+00  -5.8630004313566673e+00  -5.4022680503394689e+00  -4.7797055120342247e+00  -4.0330437119873581e+00  -3.1949822180321554e+00  -2.2918501262669158e+00  -1.3445342613487903e+00  -3.7002793319305888e-01  6.1707509024340867e-01  1.6032903774735479e+00  2.5750924679681466e+00  3.5177798151678354e+00  4.4142409784314189e+00  5.2435851809340202e+00  5.9798033974522617e+00  6.5910686953621775e+00  7.0410873579295279e+00  7.2951218316945976e+00  7.3357344998578311e+00  -5.7439500975884217e+00  -5.7031433204721989e+00  -5.4737250603767373e+00  -5.0647300939704474e+00  -4.5016172473226357e+00  -3.8140202018328413e+00  -3.0302584928041121e+00  -2.1752807061583055e+00  -1.2704737765164777e+00  -3.3433001841486160e-01  6.1660026315464589e-01  1.5667178991482911e+00  2.5004100097511968e+00  3.4011018606828145e+00  4.2503196739664171e+00  5.0268335551591496e+00  5.7061142016913484e+00  6.2606114435602880e+00  6.6617312898982011e+00  6.8848621740951401e+00  6.9205504027681286e+00  -5.3582920363761568e+00  -5.3223757176500159e+00  -5.1176329498377227e+00  -4.7487479633233907e+00  -4.2343245956403592e+00  -3.5979338834380039e+00  -2.8638985062810232e+00  -2.0552650882178112e+00  -1.1931190056728966e+00  -2.9668375350920428e-01  6.1618491995196634e-01  1.5283414043735866e+00  2.4226457654194249e+00  3.2812728240309732e+00  4.0850947315379100e+00  4.8132487435293108e+00  5.4431022605167216e+00  5.9509602648345714e+00  6.3139958210796676e+00  6.5141236509821194e+00  6.5462373840688093e+00  -5.0191859310593117e+00  -4.9868820329639183e+00  -4.8008177187436889e+00  -4.4632386461810825e+00  -3.9883241348485816e+00  -3.3952769178411639e+00  -2.7051371490633094e+00  -1.9390355660762888e+00  -1.1173568203914597e+00  -2.5951815793829386e-01  6.1587386692661172e-01  1.4906659982422150e+00  2.3467215220635200e+00  3.1654927965413280e+00  3.9276898910884528e+00  4.6131595840254764e+00  5.2011359373640529e+00  5.6710706762606051e+00  6.0042909471315227e+00  6.1869358803326771e+00  6.2163660318200877e+00  -4.7288128457678704e+00  -4.6992367838223839e+00  -4.5274441228312856e+00  -4.2142785575369315e+00  -3.7710352848929318e+00  -3.2138303868374534e+00  -2.5611580587744394e+00  -1.8324571643557630e+00  -1.0472820410340558e+00  -2.2491950453058079e-01  6.1568272178459049e-01  1.4557989834915843e+00  2.2767242387742637e+00  3.0595782582921940e+00  3.7852037008870676e+00  4.4342560899436521e+00  4.9875969296286140e+00  5.4271061517204373e+00  5.7370423399350479e+00  5.9063043147408187e+00  5.9337016249210803e+00  -4.4888671363888575e+00  -4.4613610905001480e+00  -4.3004056033974027e+00  -4.0060299851221153e+00  -3.5876395319303409e+00  -3.0592018650217421e+00  -2.4373137046823046e+00  -1.7400332729992283e+00  -9.8611613721383795e-01  -1.9456105763055920e-01  6.1560735651681753e-01  1.4253993485238159e+00  2.2158452248582616e+00  2.9679836741762857e+00  3.6629303370548287e+00  4.2821033102193606e+00  4.8076780414520570e+00  5.2233331341289393e+00  5.5153616013602011e+00  5.6744740478980509e+00  5.7003532082387736e+00  -4.3006101834359240e+00  -4.2746521652689289e+00  -4.1217036150489168e+00  -3.8413264542309458e+00  -3.4416984015891159e+00  -2.9353258259551183e+00  -2.3374481952979167e+00  -1.6650695132359854e+00  -9.3626727341329863e-01  -1.6971338282147691e-01  6.1563184260693826e-01  1.4007033020369621e+00  2.1664525910994170e+00  2.8939710176638482e+00  3.5646768402553022e+00  4.1606240367424530e+00  4.6649784739279561e+00  5.0626932337571606e+00  5.3414366234015001e+00  5.4930977287866911e+00  5.5178931078975468e+00  -4.1649298021675172e+00  -4.1400805613787020e+00  -3.9926847073300928e+00  -3.7220509773997512e+00  -3.3355915827314981e+00  -2.8448680827311521e+00  -2.2642097041360754e+00  -1.6098798866710846e+00  -8.9944502850941166e-01  -1.5129093015316944e-01  6.1573399512117777e-01  1.3825809147839101e+00  2.1302127580756975e+00  2.8398170618776790e+00  3.4930695674900174e+00  4.0724914320578867e+00  4.5619294646771005e+00  4.9471762409682993e+00  5.2167774083075660e+00  5.3633565692424865e+00  5.3874548383784022e+00  -4.0823945056280140e+00  -4.0582647055143690e+00  -3.9141951719335397e+00  -3.6493824775568293e+00  -3.2708179282351413e+00  -2.7895263344273493e+00  -2.2193061925566089e+00  -1.5759754690237611e+00  -8.7677888524361602e-01  -1.3990649216565934e-01  6.1588875276869237e-01  1.3715964260232802e+00  2.1082121439056349e+00  2.8070012989087116e+00  3.4498049185052562e+00  4.0194219085216814e+00  4.5000884537048513e+00  4.8780650108169095e+00  5.1423777235280834e+00  5.2860507298062309e+00  5.3098116734214607e+00  -4.0532955103447206e+00  -4.0295241659785370e+00  -3.8866799593560080e+00  -3.6239512568108441e+00  -3.2481908737222067e+00  -2.7702346655326910e+00  -2.2036894250476591e+00  -1.5642085047850594e+00  -8.6891402634391124e-01  -1.3591755575961872e-01  6.1606996553570426e-01  1.3680574868310142e+00  2.1010539574153069e+00  2.7963484358564483e+00  3.4358293561190507e+00  4.0023745966040920e+00  4.4803308047936090e+00  4.8560911878822886e+00  5.1188198904274538e+00  5.2616640970499944e+00  5.2854354414161895e+00  -4.0776717423500006e+00  -4.0539107987347736e+00  -3.9102377924566447e+00  -3.6459250797454952e+00  -3.2679485226334579e+00  -2.7872819774503181e+00  -2.2176649874338863e+00  -1.5748613678373378e+00  -8.7607221283426107e-01  -1.3945649495188164e-01  6.1625117830272669e-01  1.3720464232370746e+00  2.1089188163150223e+00  2.8081154000951494e+00  3.4514461236280045e+00  4.0216662654987569e+00  4.5029578593065676e+00  4.8815224086282711e+00  5.1463351030050353e+00  5.2904046365859001e+00  5.3145344366995362e+00  -4.1553149073069271e+00  -4.1312166381710362e+00  -3.9846374772361246e+00  -3.7150363098968655e+00  -3.3297895336057044e+00  -2.8403515009865452e+00  -2.2609296364186675e+00  -1.6076771308063045e+00  -8.9807282700431634e-01  -1.5044098371249498e-01  6.1640593595026050e-01  1.3834308612246065e+00  2.1315849595808403e+00  2.8420198177425142e+00  3.4963496352075163e+00  4.0770080138025948e+00  4.5677315138029480e+00  4.9541909084712152e+00  5.2248246384016417e+00  5.3722204924503032e+00  5.3970697332390980e+00  -4.2857531768260344e+00  -4.2609577977151707e+00  -4.1092966923299974e+00  -3.8305533026856513e+00  -3.4328385428565111e+00  -2.9284841056710609e+00  -2.3325369091839083e+00  -1.6618310865924462e+00  -9.3431266002799296e-01  -1.6856337096551927e-01  6.1650808846454130e-01  1.4018533138929605e+00  2.1684072044847715e+00  2.8972094443074421e+00  3.5695881263693798e+00  4.1674657570265969e+00  4.6738383326606447e+00  5.0734663853024786e+00  5.3538435461204577e+00  5.5067920963404626e+00  5.5327501145074587e+00  -4.4682132771672460e+00  -4.4423341168265340e+00  -4.2832216702886869e+00  -3.9911932030574562e+00  -3.5755381103805854e+00  -3.0499633791479202e+00  -2.4307904059833945e+00  -1.7358437431048441e+00  -9.8370529378679694e-01  -1.9325941745233222e-01  6.1653257455469535e-01  1.4267009887020843e+00  2.2182560682853567e+00  2.9721732040707116e+00  3.6694536357537753e+00  4.2913417960932110e+00  4.8197794630018658e+00  5.2381699161936401e+00  5.5325455344688965e+00  5.6935010215716106e+00  5.7210070674603362e+00  -4.7015616938495013e+00  -4.6741643836692406e+00  -4.5049024088634857e+00  -4.1949662206489187e+00  -3.7554569985570909e+00  -3.2021161588721161e+00  -2.5530637698155472e+00  -1.8274383272206831e+00  -1.0445843077027304e+00  -2.2365905242003903e-01  6.1645720928697922e-01  1.4570594356021587e+00  2.2794219721056344e+00  3.0645970954273314e+00  3.7932979898460113e+00  4.4459703179090031e+00  5.0031752159644585e+00  5.4464184886084377e+00  5.7595840539027883e+00  5.9313767148938465e+00  5.9609527768393287e+00  -4.9842261007484350e+00  -4.9547959492610705e+00  -4.7721510160599152e+00  -4.4389307451890261e+00  -3.9689960062924836e+00  -3.3810196529538779e+00  -2.6955499600168706e+00  -1.9333528654697496e+00  -1.1145815909919246e+00  -2.5852606717059456e-01  6.1626606414503304e-01  1.4916580890099467e+00  2.3494967514631115e+00  3.1711754971479640e+00  3.9372770801349946e+00  4.6274168489128149e+00  5.2204640659201766e+00  5.6953785772526215e+00  6.0329576498152049e+00  6.2190219640353925e+00  6.2513258621307362e+00  -5.3140974529971459e+00  -5.2819837199104791e+00  -5.0818558900080175e+00  -4.7188203337629240e+00  -4.2109623294450973e+00  -3.5811088124576722e+00  -2.8529548004662737e+00  -2.0491328929593089e+00  -1.1905058343477346e+00  -2.9620147330188396e-01  6.1595501111975415e-01  1.5288236845809400e+00  2.4252589367446329e+00  3.2874050192895639e+00  4.0960384373527639e+00  4.8300738145096984e+00  5.4664645267120049e+00  5.9808878943949795e+00  6.3497728809092626e+00  6.5545156487215230e+00  6.5904319674476772e+00  -5.6884104716964217e+00  -5.6527222430234163e+00  -5.4295913588265021e+00  -5.0284715124886112e+00  -4.4739742706196548e+00  -3.7946936240874463e+00  -3.0181797428946995e+00  -2.1689619296110698e+00  -1.2682700786794332e+00  -3.3457796807651607e-01  6.1553966791714476e-01  1.5664699494866638e+00  2.5026137075882731e+00  3.4074206372300897e+00  4.2623984238758750e+00  5.0461601329045678e+00  5.7337571783943391e+00  6.2968700250420699e+00  6.7058649914483057e+00  6.9352832515437859e+00  6.9760900286600096e+00  -6.1035945687861073e+00  -6.0629819006228765e+00  -5.8089474268578591e+00  -5.3589287642905079e+00  -4.7476634663805202e+00  -4.0114452498622475e+00  -3.1821010473596179e+00  -2.2856398840959966e+00  -1.3429525368962933e+00  -3.7115044640169076e-01  6.1506484082845603e-01  1.6021678642649282e+00  2.5766741924206507e+00  3.5239900573387346e+00  4.4271221491039539e+00  5.2651836430591112e+00  6.0118454431059885e+00  6.6344079814111936e+00  7.0951403624283280e+00  7.3579003886444649e+00  7.4056026311087599e+00  -6.5550830867017806e+00  -6.5071994492813543e+00  -6.2102751342026927e+00  -5.6970368619793721e+00  -5.0177071270575997e+00  -4.2180343472945028e+00  -3.3336672495440816e+00  -2.3908965828561661e+00  -1.4091163746392261e+00  -4.0320530967962814e-01  6.1461188685534429e-01  1.6333539547150724e+00  2.6421105126812696e+00  3.6288639277872301e+00  4.5790459926190366e+00  5.4735609482657717e+00  6.2861137114389791e+00  6.9802585543394855e+00  7.5083275980114763e+00  7.8177136688465856e+00  7.8757880324670682e+00  -7.0371056109322430e+00  -6.9770393043955572e+00  -6.6181880849262651e+00  -6.0233370148480754e+00  -5.2649770514539940e+00  -4.3983779928410369e+00  -3.4607161931986550e+00  -2.4763105215983821e+00  -1.4615393797155460e+00  -4.2821605215119279e-01  6.1429577285914894e-01  1.6577289045674588e+00  2.6939087751452444e+00  3.7137612790403414e+00  4.7059834883852130e+00  5.6549063726250850e+00  6.5368738871792846e+00  7.3145439567651529e+00  7.9304218921501590e+00  8.3078831879373567e+00  8.3831616297297256e+00  -7.5427382885087493e+00  -7.4578139862214057e+00  -7.0066152175944287e+00  -6.3095635171446549e+00  -5.4658325691236112e+00  -4.5354492277062812e+00  -3.5521110088724410e+00  -2.5351213619480641e+00  -1.4964613571854988e+00  -4.4447829485688350e-01  6.1423834629531171e-01  1.6738497336541740e+00  2.7286134684921657e+00  3.7722562129819370e+00  4.7970525963914135e+00  5.7920947526443154e+00  6.7396998322173705e+00  7.6077770731456065e+00  8.3353052885280814e+00  8.8164096461373802e+00  8.9244472395200027e+00  -8.0655348330226673e+00  -7.9175851357033018e+00  -7.3305542452817942e+00  -6.5183202720499915e+00  -5.5962488979032505e+00  -4.6162079561841720e+00  -3.6017815964833138e+00  -2.5650148497972403e+00  -1.5132624105593351e+00  -4.5191161055901452e-01  6.1450253378130226e-01  1.6818019462213329e+00  2.7458937492524691e+00  3.8025266068859827e+00  4.8468994571367565e+00  5.8727975343417693e+00  6.8704002733084319e+00  7.8202353516057492e+00  8.6754292497014891e+00  9.3156631861054269e+00  9.4973440085254470e+00  -8.6034644993119205e+00  -8.2776197719439502e+00  -7.5215032615609489e+00  -6.6143639066023949e+00  -5.6447403851037592e+00  -4.6410085788840707e+00  -3.6144407680416100e+00  -2.5712702703466137e+00  -1.5160675851335244e+00  -4.5276697400513022e-01  6.1497799379829599e-01  1.6836559944150382e+00  2.7498367723238766e+00  3.8101291735923262e+00  4.8611141280375678e+00  5.8991776444803818e+00  6.9200192428400999e+00  7.9168961093437149e+00  8.8731194474707742e+00  9.7235872182891239e+00  1.0095968425600704e+01  -8.9149556654030100e+00  -8.3713923245893707e+00  -7.5326889134992605e+00  -6.6083959562117682e+00  -5.6374814163254410e+00  -4.6352561384505808e+00  -3.6102590285127203e+00  -2.5683650838908423e+00  -1.5141998814405706e+00  -4.5177629282436577e-01  6.1520361443108129e-01  1.6832065611735501e+00  2.7488001761346683e+00  3.8086111658437352e+00  4.8592727275311605e+00  5.8973125998910136e+00  6.9188708623565116e+00  7.9188850902946699e+00  8.8879963740888908e+00  9.7961575793223563e+00  1.0614453372395529e+01  </DataArray> 
</PointData> 
</Piece>
</UnstructuredGrid>
</VTKFile>