<?xml version="1.0"?>
<VTKFile type="UnstructuredGrid"  version="0.1"  >
<UnstructuredGrid>
<Piece  NumberOfPoints="651" NumberOfCells="1200">
<Points>
<DataArray  type="Float64"  NumberOfComponents="3"  format="ascii">0 0 0  50000 0 0  100000 0 0  150000 0 0  200000 0 0  250000 0 0  300000 0 0  350000 0 0  400000 0 0  450000 0 0  500000 0 0  550000 0 0  600000 0 0  650000 0 0  700000 0 0  750000 0 0  800000 0 0  850000 0 0  900000 0 0  950000 0 0  1000000 0 0  0 50000 0  50000 50000 0  100000 50000 0  150000 50000 0  200000 50000 0  250000 50000 0  300000 50000 0  350000 50000 0  400000 50000 0  450000 50000 0  500000 50000 0  550000 50000 0  600000 50000 0  650000 50000 0  700000 50000 0  750000 50000 0  800000 50000 0  850000 50000 0  900000 50000 0  950000 50000 0  1000000 50000 0  0 100000 0  50000 100000 0  100000 100000 0  150000 100000 0  200000 100000 0  250000 100000 0  300000 100000 0  350000 100000 0  400000 100000 0  450000 100000 0  500000 100000 0  550000 100000 0  600000 100000 0  650000 100000 0  700000 100000 0  750000 100000 0  800000 100000 0  850000 100000 0  900000 100000 0  950000 100000 0  1000000 100000 0  0 150000 0  50000 150000 0  100000 150000 0  150000 150000 0  200000 150000 0  250000 150000 0  300000 150000 0  350000 150000 0  400000 150000 0  450000 150000 0  500000 150000 0  550000 150000 0  600000 150000 0  650000 150000 0  700000 150000 0  750000 150000 0  800000 150000 0  850000 150000 0  900000 150000 0  950000 150000 0  1000000 150000 0  0 200000 0  50000 200000 0  100000 200000 0  150000 200000 0  200000 200000 0  250000 200000 0  300000 200000 0  350000 200000 0  400000 200000 0  450000 200000 0  500000 200000 0  550000 200000 0  600000 200000 0  650000 200000 0  700000 200000 0  750000 200000 0  800000 200000 0  850000 200000 0  900000 200000 0  950000 200000 0  1000000 200000 0  0 250000 0  50000 250000 0  100000 250000 0  150000 250000 0  200000 250000 0  250000 250000 0  300000 250000 0  350000 250000 0  400000 250000 0  450000 250000 0  500000 250000 0  550000 250000 0  600000 250000 0  650000 250000 0  700000 250000 0  750000 250000 0  800000 250000 0  850000 250000 0  900000 250000 0  950000 250000 0  1000000 250000 0  0 300000 0  50000 300000 0  100000 300000 0  150000 300000 0  200000 300000 0  250000 300000 0  300000 300000 0  350000 300000 0  400000 300000 0  450000 300000 0  500000 300000 0  550000 300000 0  600000 300000 0  650000 300000 0  700000 300000 0  750000 300000 0  800000 300000 0  850000 300000 0  900000 300000 0  950000 300000 0  1000000 300000 0  0 350000 0  50000 350000 0  100000 350000 0  150000 350000 0  200000 350000 0  250000 350000 0  300000 350000 0  350000 350000 0  400000 350000 0  450000 350000 0  500000 350000 0  550000 350000 0  600000 350000 0  650000 350000 0  700000 350000 0  750000 350000 0  800000 350000 0  850000 350000 0  900000 350000 0  950000 350000 0  1000000 350000 0  0 400000 0  50000 400000 0  100000 400000 0  150000 400000 0  200000 400000 0  250000 400000 0  300000 400000 0  350000 400000 0  400000 400000 0  450000 400000 0  500000 400000 0  550000 400000 0  600000 400000 0  650000 400000 0  700000 400000 0  750000 400000 0  800000 400000 0  850000 400000 0  900000 400000 0  950000 400000 0  1000000 400000 0  0 450000 0  50000 450000 0  100000 450000 0  150000 450000 0  200000 450000 0  250000 450000 0  300000 450000 0  350000 450000 0  400000 450000 0  450000 450000 0  500000 450000 0  550000 450000 0  600000 450000 0  650000 450000 0  700000 450000 0  750000 450000 0  800000 450000 0  850000 450000 0  900000 450000 0  950000 450000 0  1000000 450000 0  0 500000 0  50000 500000 0  100000 500000 0  150000 500000 0  200000 500000 0  250000 500000 0  300000 500000 0  350000 500000 0  400000 500000 0  450000 500000 0  500000 500000 0  550000 500000 0  600000 500000 0  650000 500000 0  700000 500000 0  750000 500000 0  800000 500000 0  850000 500000 0  900000 500000 0  950000 500000 0  1000000 500000 0  0 550000 0  50000 550000 0  100000 550000 0  150000 550000 0  200000 550000 0  250000 550000 0  300000 550000 0  350000 550000 0  400000 550000 0  450000 550000 0  500000 550000 0  550000 550000 0  600000 550000 0  650000 550000 0  700000 550000 0  750000 550000 0  800000 550000 0  850000 550000 0  900000 550000 0  950000 550000 0  1000000 550000 0  0 600000 0  50000 600000 0  100000 600000 0  150000 600000 0  200000 600000 0  250000 600000 0  300000 600000 0  350000 600000 0  400000 600000 0  450000 600000 0  500000 600000 0  550000 600000 0  600000 600000 0  650000 600000 0  700000 600000 0  750000 600000 0  800000 600000 0  850000 600000 0  900000 600000 0  950000 600000 0  1000000 600000 0  0 650000 0  50000 650000 0  100000 650000 0  150000 650000 0  200000 650000 0  250000 650000 0  300000 650000 0  350000 650000 0  400000 650000 0  450000 650000 0  500000 650000 0  550000 650000 0  600000 650000 0  650000 650000 0  700000 650000 0  750000 650000 0  800000 650000 0  850000 650000 0  900000 650000 0  950000 650000 0  1000000 650000 0  0 700000 0  50000 700000 0  100000 700000 0  150000 700000 0  200000 700000 0  250000 700000 0  300000 700000 0  350000 700000 0  400000 700000 0  450000 700000 0  500000 700000 0  550000 700000 0  600000 700000 0  650000 700000 0  700000 700000 0  750000 700000 0  800000 700000 0  850000 700000 0  900000 700000 0  950000 700000 0  1000000 700000 0  0 750000 0  50000 750000 0  100000 750000 0  150000 750000 0  200000 750000 0  250000 750000 0  300000 750000 0  350000 750000 0  400000 750000 0  450000 750000 0  500000 750000 0  550000 750000 0  600000 750000 0  650000 750000 0  700000 750000 0  750000 750000 0  800000 750000 0  850000 750000 0  900000 750000 0  950000 750000 0  1000000 750000 0  0 800000 0  50000 800000 0  100000 800000 0  150000 800000 0  200000 800000 0  250000 800000 0  300000 800000 0  350000 800000 0  400000 800000 0  450000 800000 0  500000 800000 0  550000 800000 0  600000 800000 0  650000 800000 0  700000 800000 0  750000 800000 0  800000 800000 0  850000 800000 0  900000 800000 0  950000 800000 0  1000000 800000 0  0 850000 0  50000 850000 0  100000 850000 0  150000 850000 0  200000 850000 0  250000 850000 0  300000 850000 0  350000 850000 0  400000 850000 0  450000 850000 0  500000 850000 0  550000 850000 0  600000 850000 0  650000 850000 0  700000 850000 0  750000 850000 0  800000 850000 0  850000 850000 0  900000 850000 0  950000 850000 0  1000000 850000 0  0 900000 0  50000 900000 0  100000 900000 0  150000 900000 0  200000 900000 0  250000 900000 0  300000 900000 0  350000 900000 0  400000 900000 0  450000 900000 0  500000 900000 0  550000 900000 0  600000 900000 0  650000 900000 0  700000 900000 0  750000 900000 0  800000 900000 0  850000 900000 0  900000 900000 0  950000 900000 0  1000000 900000 0  0 950000 0  50000 950000 0  100000 950000 0  150000 950000 0  200000 950000 0  250000 950000 0  300000 950000 0  350000 950000 0  400000 950000 0  450000 950000 0  500000 950000 0  550000 950000 0  600000 950000 0  650000 950000 0  700000 950000 0  750000 950000 0  800000 950000 0  850000 950000 0  900000 950000 0  950000 950000 0  1000000 950000 0  0 1000000 0  50000 1000000 0  100000 1000000 0  150000 1000000 0  200000 1000000 0  250000 1000000 0  300000 1000000 0  350000 1000000 0  400000 1000000 0  450000 1000000 0  500000 1000000 0  550000 1000000 0  600000 1000000 0  650000 1000000 0  700000 1000000 0  750000 1000000 0  800000 1000000 0  850000 1000000 0  900000 1000000 0  950000 1000000 0  1000000 1000000 0  0 1050000 0  50000 1050000 0  100000 1050000 0  150000 1050000 0  200000 1050000 0  250000 1050000 0  300000 1050000 0  350000 1050000 0  400000 1050000 0  450000 1050000 0  500000 1050000 0  550000 1050000 0  600000 1050000 0  650000 1050000 0  700000 1050000 0  750000 1050000 0  800000 1050000 0  850000 1050000 0  900000 1050000 0  950000 1050000 0  1000000 1050000 0  0 1100000 0  50000 1100000 0  100000 1100000 0  150000 1100000 0  200000 1100000 0  250000 1100000 0  300000 1100000 0  350000 1100000 0  400000 1100000 0  450000 1100000 0  500000 1100000 0  550000 1100000 0  600000 1100000 0  650000 1100000 0  700000 1100000 0  750000 1100000 0  800000 1100000 0  850000 1100000 0  900000 1100000 0  950000 1100000 0  1000000 1100000 0  0 1150000 0  50000 1150000 0  100000 1150000 0  150000 1150000 0  200000 1150000 0  250000 1150000 0  300000 1150000 0  350000 1150000 0  400000 1150000 0  450000 1150000 0  500000 1150000 0  550000 1150000 0  600000 1150000 0  650000 1150000 0  700000 1150000 0  750000 1150000 0  800000 1150000 0  850000 1150000 0  900000 1150000 0  950000 1150000 0  1000000 1150000 0  0 1200000 0  50000 1200000 0  100000 1200000 0  150000 1200000 0  200000 1200000 0  250000 1200000 0  300000 1200000 0  350000 1200000 0  400000 1200000 0  450000 1200000 0  500000 1200000 0  550000 1200000 0  600000 1200000 0  650000 1200000 0  700000 1200000 0  750000 1200000 0  800000 1200000 0  850000 1200000 0  900000 1200000 0  950000 1200000 0  1000000 1200000 0  0 1250000 0  50000 1250000 0  100000 1250000 0  150000 1250000 0  200000 1250000 0  250000 1250000 0  300000 1250000 0  350000 1250000 0  400000 1250000 0  450000 1250000 0  500000 1250000 0  550000 1250000 0  600000 1250000 0  650000 1250000 0  700000 1250000 0  750000 1250000 0  800000 1250000 0  850000 1250000 0  900000 1250000 0  950000 1250000 0  1000000 1250000 0  0 1300000 0  50000 1300000 0  100000 1300000 0  150000 1300000 0  200000 1300000 0  250000 1300000 0  300000 1300000 0  350000 1300000 0  400000 1300000 0  450000 1300000 0  500000 1300000 0  550000 1300000 0  600000 1300000 0  650000 1300000 0  700000 1300000 0  750000 1300000 0  800000 1300000 0  850000 1300000 0  900000 1300000 0  950000 1300000 0  1000000 1300000 0  0 1350000 0  50000 1350000 0  100000 1350000 0  150000 1350000 0  200000 1350000 0  250000 1350000 0  300000 1350000 0  350000 1350000 0  400000 1350000 0  450000 1350000 0  500000 1350000 0  550000 1350000 0  600000 1350000 0  650000 1350000 0  700000 135
[...]
<PointData  Scalars="f_1519"> 
<DataArray  type="Float64"  Name="f_1519"  format="ascii">-7.7389854039729311e+00  -7.0517576479365207e+00  -6.2892137715791705e+00  -5.4755538927947516e+00  -4.6359790556593756e+00  -3.7783376733703089e+00  -2.9068743893733462e+00  -2.0248257975413466e+00  -1.1351037871243008e+00  -2.4053208317627928e-01  6.5605997778345093e-01  1.5517934408641152e+00  2.4437047485232291e+00  3.3286889371281538e+00  4.2033807502237899e+00  5.0639019300614496e+00  5.9053284849211680e+00  6.7205076657398735e+00  7.4966193587710688e+00  8.2010071289020718e+00  8.6576779641049644e+00  -7.3034847482995326e+00  -6.9906431528220887e+00  -6.2766047426909344e+00  -5.4738055205485017e+00  -4.6368894451511506e+00  -3.7798650770356117e+00  -2.9083920432001023e+00  -2.0260791297216625e+00  -1.1359584687133186e+00  -2.4089839651864894e-01  6.5625626861778819e-01  1.5526279501100038e+00  2.4452711019255662e+00  3.3311209014217096e+00  4.2068771264406006e+00  5.0687059175505809e+00  5.9113786696866892e+00  6.7254400993700827e+00  7.4870873593116354e+00  8.1220373770997298e+00  8.3959402437753514e+00  -6.8006484323198464e+00  -6.6479491104712825e+00  -6.1104034764107009e+00  -5.3924605476414778e+00  -4.5950791319461697e+00  -3.7575998531865173e+00  -2.8963690488835176e+00  -2.0196313710763065e+00  -1.1326039473465803e+00  -2.3931658134117592e-01  6.5666277445029353e-01  1.5518994021700008e+00  2.4428871656289712e+00  3.3258203247321947e+00  4.1961776868930967e+00  5.0477867743051901e+00  5.8705388633798581e+00  6.6446424528683359e+00  7.3265737137670266e+00  7.8195267427138804e+00  7.9440116104523497e+00  -6.3194221761709866e+00  -6.2285811452880750e+00  -5.8246282455938578e+00  -5.2138735501817264e+00  -4.4851577850960700e+00  -3.6896867241078106e+00  -2.8543941096325418e+00  -1.9941233756834500e+00  -1.1180314930778870e+00  -2.3260374179483612e-01  6.5689379815674809e-01  1.5456409754110982e+00  2.4287368347142406e+00  3.3006504025870718e+00  4.1543753140549615e+00  4.9798554815425922e+00  5.7608898956037109e+00  6.4691990282162628e+00  7.0544105388936043e+00  7.4333029161155126e+00  7.5048023091680225e+00  -5.8647509830279780e+00  -5.8014380927412317e+00  -5.4845019123164889e+00  -4.9674841930620799e+00  -4.3146826008241650e+00  -3.5743413330278218e+00  -2.7777977066821364e+00  -1.9449064337215589e+00  -1.0888200078932098e+00  -2.1902655413344307e-01  6.5685666761562467e-01  1.5319676014692016e+00  2.3993666062400267e+00  3.2511938593862046e+00  4.0775337660574236e+00  4.8646397075502446e+00  5.5921018669875906e+00  6.2287217950126621e+00  6.7281195342384645e+00  7.0294637348393199e+00  7.0800450069990930e+00  -5.4385705042948045e+00  -5.3897208725243626e+00  -5.1299444784295511e+00  -4.6866490381957098e+00  -4.1039790074925930e+00  -3.4219317488836190e+00  -2.6710903995683561e+00  -1.8735225877598478e+00  -1.0452556320723823e+00  -1.9851768905680969e-01  6.5660357909472744e-01  1.5109498625692137e+00  2.3553034941262836e+00  3.1794033865279410e+00  3.9707613907079908e+00  4.7131004329730182e+00  5.3843565436326113e+00  5.9546141477538885e+00  6.3854841205114381e+00  6.6348218165421606e+00  6.6751438018573026e+00  -5.0436334098128102e+00  -5.0035065538809729e+00  -4.7828836793688607e+00  -4.3961249434506007e+00  -3.8735585695611374e+00  -3.2468430028244613e+00  -2.5434166026711873e+00  -1.7853741699842698e+00  -9.9024501647975482e-01  -1.7229183476064930e-01  6.5623607771353754e-01  1.4840203337964097e+00  2.2997081929492902e+00  3.0909601174737373e+00  3.8434145134439932e+00  4.5395387799414317e+00  5.1575061645055138e+00  5.6706091823284872e+00  6.0483935008861414e+00  6.2617091301969374e+00  6.2959056252903869e+00  -4.6828659729738966e+00  -4.6485394577426682e+00  -4.4559171964448163e+00  -4.1126000074565345e+00  -3.6399511426849727e+00  -3.0628341213455159e+00  -2.4050110453442430e+00  -1.6874172268968481e+00  -9.2800070218904795e-01  -1.4228137510097372e-01  6.5585005134487484e-01  1.4533008680338853e+00  2.2369668882071454e+00  2.9929369612355372e+00  3.7057067146915887e+00  4.3574596179500755e+00  4.9276114696998636e+00  5.3930445332716950e+00  5.7297664090803426e+00  5.9171248944767694e+00  5.9471719323995584e+00  -4.3589393769624127e+00  -4.3287271863074004e+00  -4.1568289745018321e+00  -3.8471919240711920e+00  -3.4154266799305044e+00  -2.8813091906521358e+00  -2.2652470960135949e+00  -1.5865789038026001e+00  -8.6299878031998856e-01  -1.1063948835819482e-01  6.5551337142334554e-01  1.4210698499133056e+00  2.1716447514180541e+00  2.8922780729880189e+00  3.5669171385473017e+00  4.1780541975510497e+00  4.7066974400766597e+00  5.1329649177070289e+00  5.4377042095857657e+00  5.6057401776122591e+00  5.6327748727511073e+00  -4.0741177033630125e+00  -4.0469447821694979e+00  -3.8907347202477025e+00  -3.6073861529474081e+00  -3.2087965556499740e+00  -2.7110761101593903e+00  -2.1318775756694683e+00  -1.4889311627008941e+00  -7.9934234476855903e-01  -7.9405804857750076e-02  6.5526342007009508e-01  1.3894303590797261e+00  2.1078738908276220e+00  2.7950283024656941e+00  3.4347055071622448e+00  4.0099938076642401e+00  4.5034684712570225e+00  4.8978887258134005e+00  5.1775884792124076e+00  5.3309379476229415e+00  5.3557108171687542e+00  -3.8302312586717511e+00  -3.8053533042667791e+00  -3.6611304781995786e+00  -3.3982832673367258e+00  -3.0262885925735348e+00  -2.5586663580764863e+00  -2.0109326251355983e+00  -1.3993974298268346e+00  -7.4046893812929393e-01  -5.0331798710843728e-02  6.5511323215414552e-01  1.3601514063754583e+00  2.0490852325698783e+00  2.7060704609072217e+00  3.3150308437063032e+00  3.8597339302979949e+00  4.3241212133426226e+00  4.6929900129004931e+00  4.9531344857217237e+00  5.0952409852994647e+00  5.1183002114682568e+00  -3.6287016099104221e+00  -3.6055649872135787e+00  -3.4704447812506896e+00  -3.2233768105553895e+00  -2.8722517782111030e+00  -2.4287865939452704e+00  -1.9069048587564983e+00  -1.3217577150652082e+00  -6.8908261032747431e-01  -2.4821987795362897e-02  6.5505937837652517e-01  1.3346256208750840e+00  1.9979576687438265e+00  2.6291437403021387e+00  3.2123371722511194e+00  3.7319459260739927e+00  4.1730145411487927e+00  4.5218500530722485e+00  4.7669540639343149e+00  4.9005335367081369e+00  4.9223126658335383e+00  -3.4705868121445325e+00  -3.4487521172224387e+00  -3.3203572277660056e+00  -3.0850448009157594e+00  -2.7496751633576464e+00  -2.3247389147562796e+00  -1.8230205749808537e+00  -1.2587864021493740e+00  -6.4720451792575451e-01  -3.9427117077206223e-03  6.5508859771360228e-01  1.3138907348506550e+00  1.9564790019385891e+00  2.5669861989850644e+00  3.1298200260923750e+00  3.6299224443250422e+00  4.0531694546138102e+00  4.3869378451687249e+00  4.6208834834456196e+00  4.7482024231574904e+00  4.7690673120953990e+00  -3.3566313791745435e+00  -3.3357288009701085e+00  -3.2119976227343021e+00  -2.9848673511010446e+00  -2.6605557398481507e+00  -2.2487604755152484e+00  -1.7615021550249863e+00  -1.2124254377685899e+00  -6.1626934405992861e-01  1.1538684613937021e-02  6.5518242383934999e-01  1.2986771583980574e+00  1.9260480196157097e+00  2.5215088801170871e+00  3.0696838235111401e+00  3.5559071417201542e+00  3.9666265065490114e+00  4.2899233658102371e+00  4.5161899367937490e+00  4.6392387386873679e+00  4.6595150447080300e+00  -3.2873119130502286e+00  -3.2670136307668196e+00  -3.1460758910456872e+00  -2.9238336043867572e+00  -2.6061511819272649e+00  -2.2022758523434400e+00  -1.7237828067460248e+00  -1.1839428102698579e+00  -5.9722483486626643e-01  2.1108087189107252e-02  6.5532000355580367e-01  1.2894586172097204e+00  1.9075766874765407e+00  2.4939536243919385e+00  3.0333524158351413e+00  3.5113406204175215e+00  3.9146928243746766e+00  4.2318832285512187e+00  4.4537073375582317e+00  4.5743138113476247e+00  4.5943045284547255e+00  -3.2628724238809119e+00  -3.2428744700496535e+00  -3.1229651804581189e+00  -2.9024722979105322e+00  -2.5871439353870831e+00  -2.1860687517496520e+00  -1.7106610804106377e+00  -1.1740535548611006e+00  -5.9061225588101041e-01  2.4465673855709365e-02  6.5547958483923907e-01  1.2864934958227552e+00  1.9015714255594729e+00  2.4850127245395548e+00  3.0216202500890947e+00  3.4970279214281152e+00  3.8981031050655424e+00  4.2134314675890163e+00  4.4339243501366061e+00  4.5538336397281487e+00  4.5738315935594152e+00  -3.2833453587762254e+00  -3.2633546416691281e+00  -3.1427481678797466e+00  -2.9209240588727527e+00  -2.6037336546962200e+00  -2.2003814507390831e+00  -1.7223932461566975e+00  -1.1829944547134934e+00  -5.9661751779809513e-01  2.1500552468745587e-02  6.5563916612268125e-01  1.2898510824893734e+00  1.9081840045447378e+00  2.4949019799483101e+00  3.0347419764244856e+00  3.5132350220219073e+00  3.9171103516057428e+00  4.2347927740652436e+00  4.4570350607242082e+00  4.5779728004453650e+00  4.5982710827287701e+00  -3.3485558750295223e+00  -3.3282795690088700e+00  -3.2052307671152618e+00  -2.9789641961317557e+00  -2.6556673368705530e+00  -2.2449479720417340e+00  -1.7587246538327128e+00  -1.2105497104386458e+00  -6.1508884993725887e-01  1.2282011280422219e-02  6.5577674583915024e-01  1.2994204850645610e+00  1.9272285137384186e+00  2.5233846074470767e+00  3.0724613247034851e+00  3.5597196451937436e+00  3.9715149095266478e+00  4.2958265207795447e+00  4.5229567924128649e+00  4.6466879706487108e+00  4.6675905488531306e+00  -3.4581081424168612e+00  -3.4372432534789463e+00  -3.3099243137670884e+00  -3.0759786754901879e+00  -2.7422102849353180e+00  -2.3189632746465865e+00  -1.8188608564139157e+00  -1.2560270293066007e+00  -6.4551983226010434e-01  -2.9315651721525246e-03  6.5587057196493292e-01  1.3149018813862567e+00  1.9581636876042807e+00  2.5697455718278843e+00  3.1339797446593707e+00  3.6356980844348050e+00  4.0606343330362042e+00  4.3960039705943155e+00  4.6313163974445670e+00  4.7597112869009903e+00  4.7815459818230845e+00  -3.6113534961549858e+00  -3.5895743670295923e+00  -3.4559948942557659e+00  -3.2108908833937213e+00  -2.8620553714702792e+00  -2.4209867563955019e+00  -1.9013780025726288e+00  -1.3181845706236417e+00  -6.8699849906530785e-01  -2.3666451196548970e-02  6.5589979130203691e-01  1.3357811574739331e+00  2.0000417800060393e+00  2.6327168847437434e+00  3.2178640284350255e+00  3.7397457636237936e+00  4.1832109478896644e+00  4.5343359802339478e+00  4.7814039509292243e+00  4.9165241568920850e+00  4.9396607795889400e+00  -3.8073410417896612e+00  -3.7842818156208713e+00  -3.6421753160431360e+00  -3.3820308432219459e+00  -3.0131620436640709e+00  -2.5487747606194286e+00  -2.0040716740277458e+00  -1.3951112912286672e+00  -7.3812606289130234e-01  -4.9192236696871089e-02  6.5584593752446252e-01  1.3612909683894581e+00  2.0514281078079102e+00  2.7103565995054408e+00  3.3218917948142113e+00  3.8696255277550788e+00  4.3372477622521037e+00  4.7092424370152788e+00  4.9720896478781302e+00  5.1163124739452952e+00  5.1411904283502636e+00  -4.0447516474900960e+00  -4.0199787779443144e+00  -3.8666293095337769e+00  -3.5869295561347956e+00  -3.1925093015784300e+00  -2.6990346379856263e+00  -2.1237463374836381e+00  -1.4840691327870827e+00  -7.9691472114899387e-01  -7.8471189401074545e-02  6.5569574960857591e-01  1.3903649745364290e+00  2.1103015144472370e+00  2.7998903323795870e+00  3.4428367453481723e+00  4.0220352798380627e+00  4.5197557253286043e+00  4.9183453226259930e+00  5.2016938899262639e+00  5.3579039518480327e+00  5.3850768730415091e+00  -4.3218157030724393e+00  -4.2947810079336071e+00  -4.1267450399071057e+00  -3.8220057480283738e+00  -3.3957382703980179e+00  -2.8670950278723946e+00  -2.2559579688686444e+00  -1.5813189033093313e+00  -8.6068558173934839e-01  -1.1011068023458588e-01  6.5544579825538962e-01  1.4215986580369440e+00  2.1739579499987394e+00  2.8975380734813609e+00  3.5762062656923459e+00  4.1922683603308455e+00  4.7263858496091755e+00  5.1581510937498170e+00  5.4677881441804148e+00  5.6396863559859618e+00  5.6698985466409804e+00  -4.6362127627208487e+00  -4.6061657247980445e+00  -4.4188072394016356e+00  -4.0820853635930137e+00  -3.6166523000211575e+00  -3.0465004482713640e+00  -2.3947475450128612e+00  -1.6819777915567835e+00  -9.2600771852837949e-01  -1.4234169835510485e-01  6.5510911833391894e-01  1.4532405447797798e+00  2.2389598718678494e+00  2.9983763965756425e+00  3.7159702150230194e+00  4.3737932910242572e+00  4.9509103123636926e+00  5.4235591771351981e+00  5.7668763661234346e+00  5.9594986274212971e+00  5.9938251426525238e+00  -4.9849464556116567e+00  -4.9507499605182081e+00  -4.7374343312074494e+00  -4.3596500126497952e+00  -3.8465469948267690e+00  -3.2285796102626625e+00  -2.5324553437651947e+00  -1.7800009477949095e+00  -9.8874902327045344e-01  -1.7306116411756181e-01  6.5472309196531819e-01  1.4832510044395115e+00  2.3012041861586092e+00  3.0963333396630985e+00  3.8543757723499938e+00  4.5578021725032345e+00  5.1845177392399124e+00  5.7070841131293433e+00  6.0938428490475554e+00  6.3144657235596480e+00  6.3545925794914977e+00  -5.3641846321785414e+00  -5.3238626468634118e+00  -5.0745249508326724e+00  -4.6436549780751291e+00  -4.0733973739538163e+00  -3.4021412632942134e+00  -2.6598022210291323e+00  -1.8684442168490345e+00  -1.0443443244473773e+00  -1.9999069289031018e-01  6.5435559058418924e-01  1.5094768587357290e+00  2.3562148017512983e+00  3.1844817574387410e+00  3.9820495692472178e+00  4.7328909185624735e+00  5.4149381771714307e+00  5.9976082078745234e+00  6.4409036481083071e+00  6.7006800422031088e+00  6.7495296739735569e+00  -5.7690858373202802e+00  -5.7185045651605106e+00  -5.4171603645596305e+00  -4.9177626253338378e+00  -4.2811426973087441e+00  -3.5536805378714003e+00  -2.7665745963785251e+00  -1.9402346897072609e+00  -1.0884074365610787e+00  -2.2100843179025417e-01  6.5410250206333387e-01  1.5299857238124015e+00  2.3997791775721584e+00  3.2558656034004900e+00  4.0887568763610549e+00  4.8853005027067518e+00  5.6256417705030568e+00  6.2784433627409433e+00  6.7954610819953372e+00  7.1123972624200462e+00  7.1757101527067846e+00  -6.1938431394891618e+00  -6.1223437464366430e+00  -5.7434513692147418e+00  -5.1582398585373967e+00  -4.4499307259248342e+00  -3.6688963118636995e+00  -2.8434161443760200e+00  -1.9896912329081082e+00  -1.1177776650352638e+00  -2.3468180573212388e-01  6.5406537152223254e-01  1.5435629114738221e+00  2.4289906627568518e+00  3.3050825453624060e+00  4.1653532793115167e+00  5.0006458937867926e+00  5.7961169547750266e+00  6.5248327198606360e+00  7.1355874152727532e+00  7.5395403149669535e+00  7.6303813458498508e+00  -6.6330524407734526e+00  -6.5085675730349468e+00  -6.0156145440881428e+00  -5.3336832831894609e+00  -4.5595796937009894e+00  -3.7368276046262809e+00  -2.8852185172141520e+00  -2.0148611550532167e+00  -1.1319279959499982e+00  -2.4094023249101670e-01  6.5429639522870220e-01  1.5502757510201723e+00  2.4435631170255658e+00  3.3305905407552698e+00  4.2073282185624983e+00  5.0685590228655064e+00  5.9060383016251459e+00  6.7034197173204202e+00  7.4213626460896140e+00  7.9589082801501734e+00  8.1116076019987808e+00  -7.0849810740964827e+00  -6.8110782074208540e+00  -6.1761281896328288e+00  -5.4144809296912424e+00  -4.6004195000078196e+00  -3.7577467478716655e+00  -2.8959179567616484e+00  -2.0201617317427343e+00  -1.1343119322465809e+00  -2.4166878043101186e-01  6.5470290106120843e-01  1.5518575661976510e+00  2.4469176383923110e+00  3.3370382994006511e+00  4.2193512128790802e+00  5.0908242467145728e+00  5.9478486148301259e+00  6.7847646902274441e+00  7.5875639123698875e+00  8.3016023225010098e+00  8.6144439179784555e+00  -7.3467187944260886e+00  -6.8900479592231960e+00  -6.1856601890922320e+00  -5.4095484960610252e+00  -4.5943693152422869e+00  -3.7529427603825387e+00  -2.8924215805448363e+00  -2.0177297674491812e+00  -1.1327455788442404e+00  -2.4083427118511652e-01  6.5489919189555112e-01  1.5514912528552731e+00  2.4460629568032988e+00  3.3357849672203370e+00  4.2178335590523313e+00  5.0892968430492678e+00  5.9469382253383545e+00  6.7865130624737144e+00  7.6001729412581049e+00  8.3627168176154552e+00  9.0499445736518656e+00  </DataArray> 
</PointData> 
</Piece>
</UnstructuredGrid>
</VTKFile>