<?xml version="1.0"?>
<VTKFile type="UnstructuredGrid"  version="0.1"  >
<UnstructuredGrid>
<Piece  NumberOfPoints="651" NumberOfCells="1200">
<Points>
<DataArray  type="Float64"  NumberOfComponents="3"  format="ascii">0 0 0  50000 0 0  100000 0 0  150000 0 0  200000 0 0  250000 0 0  300000 0 0  350000 0 0  400000 0 0  450000 0 0  500000 0 0  550000 0 0  600000 0 0  650000 0 0  700000 0 0  750000 0 0  800000 0 0  850000 0 0  900000 0 0  950000 0 0  1000000 0 0  0 50000 0  50000 50000 0  100000 50000 0  150000 50000 0  200000 50000 0  250000 50000 0  300000 50000 0  350000 50000 0  400000 50000 0  450000 50000 0  500000 50000 0  550000 50000 0  600000 50000 0  650000 50000 0  700000 50000 0  750000 50000 0  800000 50000 0  850000 50000 0  900000 50000 0  950000 50000 0  1000000 50000 0  0 100000 0  50000 100000 0  100000 100000 0  150000 100000 0  200000 100000 0  250000 100000 0  300000 100000 0  350000 100000 0  400000 100000 0  450000 100000 0  500000 100000 0  550000 100000 0  600000 100000 0  650000 100000 0  700000 100000 0  750000 100000 0  800000 100000 0  850000 100000 0  900000 100000 0  950000 100000 0  1000000 100000 0  0 150000 0  50000 150000 0  100000 150000 0  150000 150000 0  200000 150000 0  250000 150000 0  300000 150000 0  350000 150000 0  400000 150000 0  450000 150000 0  500000 150000 0  550000 150000 0  600000 150000 0  650000 150000 0  700000 150000 0  750000 150000 0  800000 150000 0  850000 150000 0  900000 150000 0  950000 150000 0  1000000 150000 0  0 200000 0  50000 200000 0  100000 200000 0  150000 200000 0  200000 200000 0  250000 200000 0  300000 200000 0  350000 200000 0  400000 200000 0  450000 200000 0  500000 200000 0  550000 200000 0  600000 200000 0  650000 200000 0  700000 200000 0  750000 200000 0  800000 200000 0  850000 200000 0  900000 200000 0  950000 200000 0  1000000 200000 0  0 250000 0  50000 250000 0  100000 250000 0  150000 250000 0  200000 250000 0  250000 250000 0  300000 250000 0  350000 250000 0  400000 250000 0  450000 250000 0  500000 250000 0  550000 250000 0  600000 250000 0  650000 250000 0  700000 250000 0  750000 250000 0  800000 250000 0  850000 250000 0  900000 250000 0  950000 250000 0  1000000 250000 0  0 300000 0  50000 300000 0  100000 300000 0  150000 300000 0  200000 300000 0  250000 300000 0  300000 300000 0  350000 300000 0  400000 300000 0  450000 300000 0  500000 300000 0  550000 300000 0  600000 300000 0  650000 300000 0  700000 300000 0  750000 300000 0  800000 300000 0  850000 300000 0  900000 300000 0  950000 300000 0  1000000 300000 0  0 350000 0  50000 350000 0  100000 350000 0  150000 350000 0  200000 350000 0  250000 350000 0  300000 350000 0  350000 350000 0  400000 350000 0  450000 350000 0  500000 350000 0  550000 350000 0  600000 350000 0  650000 350000 0  700000 350000 0  750000 350000 0  800000 350000 0  850000 350000 0  900000 350000 0  950000 350000 0  1000000 350000 0  0 400000 0  50000 400000 0  100000 400000 0  150000 400000 0  200000 400000 0  250000 400000 0  300000 400000 0  350000 400000 0  400000 400000 0  450000 400000 0  500000 400000 0  550000 400000 0  600000 400000 0  650000 400000 0  700000 400000 0  750000 400000 0  800000 400000 0  850000 400000 0  900000 400000 0  950000 400000 0  1000000 400000 0  0 450000 0  50000 450000 0  100000 450000 0  150000 450000 0  200000 450000 0  250000 450000 0  300000 450000 0  350000 450000 0  400000 450000 0  450000 450000 0  500000 450000 0  550000 450000 0  600000 450000 0  650000 450000 0  700000 450000 0  750000 450000 0  800000 450000 0  850000 450000 0  900000 450000 0  950000 450000 0  1000000 450000 0  0 500000 0  50000 500000 0  100000 500000 0  150000 500000 0  200000 500000 0  250000 500000 0  300000 500000 0  350000 500000 0  400000 500000 0  450000 500000 0  500000 500000 0  550000 500000 0  600000 500000 0  650000 500000 0  700000 500000 0  750000 500000 0  800000 500000 0  850000 500000 0  900000 500000 0  950000 500000 0  1000000 500000 0  0 550000 0  50000 550000 0  100000 550000 0  150000 550000 0  200000 550000 0  250000 550000 0  300000 550000 0  350000 550000 0  400000 550000 0  450000 550000 0  500000 550000 0  550000 550000 0  600000 550000 0  650000 550000 0  700000 550000 0  750000 550000 0  800000 550000 0  850000 550000 0  900000 550000 0  950000 550000 0  1000000 550000 0  0 600000 0  50000 600000 0  100000 600000 0  150000 600000 0  200000 600000 0  250000 600000 0  300000 600000 0  350000 600000 0  400000 600000 0  450000 600000 0  500000 600000 0  550000 600000 0  600000 600000 0  650000 600000 0  700000 600000 0  750000 600000 0  800000 600000 0  850000 600000 0  900000 600000 0  950000 600000 0  1000000 600000 0  0 650000 0  50000 650000 0  100000 650000 0  150000 650000 0  200000 650000 0  250000 650000 0  300000 650000 0  350000 650000 0  400000 650000 0  450000 650000 0  500000 650000 0  550000 650000 0  600000 650000 0  650000 650000 0  700000 650000 0  750000 650000 0  800000 650000 0  850000 650000 0  900000 650000 0  950000 650000 0  1000000 650000 0  0 700000 0  50000 700000 0  100000 700000 0  150000 700000 0  200000 700000 0  250000 700000 0  300000 700000 0  350000 700000 0  400000 700000 0  450000 700000 0  500000 700000 0  550000 700000 0  600000 700000 0  650000 700000 0  700000 700000 0  750000 700000 0  800000 700000 0  850000 700000 0  900000 700000 0  950000 700000 0  1000000 700000 0  0 750000 0  50000 750000 0  100000 750000 0  150000 750000 0  200000 750000 0  250000 750000 0  300000 750000 0  350000 750000 0  400000 750000 0  450000 750000 0  500000 750000 0  550000 750000 0  600000 750000 0  650000 750000 0  700000 750000 0  750000 750000 0  800000 750000 0  850000 750000 0  900000 750000 0  950000 750000 0  1000000 750000 0  0 800000 0  50000 800000 0  100000 800000 0  150000 800000 0  200000 800000 0  250000 800000 0  300000 800000 0  350000 800000 0  400000 800000 0  450000 800000 0  500000 800000 0  550000 800000 0  600000 800000 0  650000 800000 0  700000 800000 0  750000 800000 0  800000 800000 0  850000 800000 0  900000 800000 0  950000 800000 0  1000000 800000 0  0 850000 0  50000 850000 0  100000 850000 0  150000 850000 0  200000 850000 0  250000 850000 0  300000 850000 0  350000 850000 0  400000 850000 0  450000 850000 0  500000 850000 0  550000 850000 0  600000 850000 0  650000 850000 0  700000 850000 0  750000 850000 0  800000 850000 0  850000 850000 0  900000 850000 0  950000 850000 0  1000000 850000 0  0 900000 0  50000 900000 0  100000 900000 0  150000 900000 0  200000 900000 0  250000 900000 0  300000 900000 0  350000 900000 0  400000 900000 0  450000 900000 0  500000 900000 0  550000 900000 0  600000 900000 0  650000 900000 0  700000 900000 0  750000 900000 0  800000 900000 0  850000 900000 0  900000 900000 0  950000 900000 0  1000000 900000 0  0 950000 0  50000 950000 0  100000 950000 0  150000 950000 0  200000 950000 0  250000 950000 0  300000 950000 0  350000 950000 0  400000 950000 0  450000 950000 0  500000 950000 0  550000 950000 0  600000 950000 0  650000 950000 0  700000 950000 0  750000 950000 0  800000 950000 0  850000 950000 0  900000 950000 0  950000 950000 0  1000000 950000 0  0 1000000 0  50000 1000000 0  100000 1000000 0  150000 1000000 0  200000 1000000 0  250000 1000000 0  300000 1000000 0  350000 1000000 0  400000 1000000 0  450000 1000000 0  500000 1000000 0  550000 1000000 0  600000 1000000 0  650000 1000000 0  700000 1000000 0  750000 1000000 0  800000 1000000 0  850000 1000000 0  900000 1000000 0  950000 1000000 0  1000000 1000000 0  0 1050000 0  50000 1050000 0  100000 1050000 0  150000 1050000 0  200000 1050000 0  250000 1050000 0  300000 1050000 0  350000 1050000 0  400000 1050000 0  450000 1050000 0  500000 1050000 0  550000 1050000 0  600000 1050000 0  650000 1050000 0  700000 1050000 0  750000 1050000 0  800000 1050000 0  850000 1050000 0  900000 1050000 0  950000 1050000 0  1000000 1050000 0  0 1100000 0  50000 1100000 0  100000 1100000 0  150000 1100000 0  200000 1100000 0  250000 1100000 0  300000 1100000 0  350000 1100000 0  400000 1100000 0  450000 1100000 0  500000 1100000 0  550000 1100000 0  600000 1100000 0  650000 1100000 0  700000 1100000 0  750000 1100000 0  800000 1100000 0  850000 1100000 0  900000 1100000 0  950000 1100000 0  1000000 1100000 0  0 1150000 0  50000 1150000 0  100000 1150000 0  150000 1150000 0  200000 1150000 0  250000 1150000 0  300000 1150000 0  350000 1150000 0  400000 1150000 0  450000 1150000 0  500000 1150000 0  550000 1150000 0  600000 1150000 0  650000 1150000 0  700000 1150000 0  750000 1150000 0  800000 1150000 0  850000 1150000 0  900000 1150000 0  950000 1150000 0  1000000 1150000 0  0 1200000 0  50000 1200000 0  100000 1200000 0  150000 1200000 0  200000 1200000 0  250000 1200000 0  300000 1200000 0  350000 1200000 0  400000 1200000 0  450000 1200000 0  500000 1200000 0  550000 1200000 0  600000 1200000 0  650000 1200000 0  700000 1200000 0  750000 1200000 0  800000 1200000 0  850000 1200000 0  900000 1200000 0  950000 1200000 0  1000000 1200000 0  0 1250000 0  50000 1250000 0  100000 1250000 0  150000 1250000 0  200000 1250000 0  250000 1250000 0  300000 1250000 0  350000 1250000 0  400000 1250000 0  450000 1250000 0  500000 1250000 0  550000 1250000 0  600000 1250000 0  650000 1250000 0  700000 1250000 0  750000 1250000 0  800000 1250000 0  850000 1250000 0  900000 1250000 0  950000 1250000 0  1000000 1250000 0  0 1300000 0  50000 1300000 0  100000 1300000 0  150000 1300000 0  200000 1300000 0  250000 1300000 0  300000 1300000 0  350000 1300000 0  400000 1300000 0  450000 1300000 0  500000 1300000 0  550000 1300000 0  600000 1300000 0  650000 1300000 0  700000 1300000 0  750000 1300000 0  800000 1300000 0  850000 1300000 0  900000 1300000 0  950000 1300000 0  1000000 1300000 0  0 1350000 0  50000 1350000 0  100000 1350000 0  150000 1350000 0  200000 1350000 0  250000 1350000 0  300000 1350000 0  350000 1350000 0  400000 1350000 0  450000 1350000 0  500000 1350000 0  550000 1350000 0  600000 1350000 0  650000 1350000 0  700000 135
[...]
<PointData  Vectors="f_1513"> 
<DataArray  type="Float64"  Name="f_1513"  NumberOfComponents="3" format="ascii">-2.4290131701700027e-08 -1.0615843533847030e-08 0.0000000000000000e+00  4.8750476958888984e-08 -6.6875903958283671e-09 0.0000000000000000e+00  4.3004746144260807e-08 -2.3679202954387101e-09 0.0000000000000000e+00  4.0539390077861884e-08 -9.8527851180609088e-10 0.0000000000000000e+00  3.9326301436894602e-08 -4.9674823671827557e-10 0.0000000000000000e+00  3.8532531620881091e-08 -2.8304927737696826e-10 0.0000000000000000e+00  3.7961138015041832e-08 -1.7634083513998892e-10 0.0000000000000000e+00  3.7555171063912844e-08 -1.1911504468093198e-10 0.0000000000000000e+00  3.7296662328070695e-08 -8.6839582639422761e-11 0.0000000000000000e+00  3.7180884047979185e-08 -6.6404555251095015e-11 0.0000000000000000e+00  3.7208599560477327e-08 -4.8743546147437082e-11 0.0000000000000000e+00  3.7384299325182856e-08 -2.5488175752870109e-11 0.0000000000000000e+00  3.7717792836058332e-08 1.3563220865467674e-11 0.0000000000000000e+00  3.8230252727478402e-08 8.3990445605193063e-11 0.0000000000000000e+00  3.8970283971249249e-08 2.1405928053692250e-10 0.0000000000000000e+00  4.0056439830941474e-08 4.6282545790785538e-10 0.0000000000000000e+00  4.1789561776725925e-08 9.6877055671290229e-10 0.0000000000000000e+00  4.4916151417931868e-08 2.0764260328743975e-09 0.0000000000000000e+00  5.0765588469351008e-08 4.6031911331649593e-09 0.0000000000000000e+00  5.8008711896002143e-08 9.1166967289726651e-09 0.0000000000000000e+00  -1.6446425394897970e-08 7.0093178688633928e-09 0.0000000000000000e+00  -1.8037516529000511e-08 -1.6156954100498271e-08 0.0000000000000000e+00  7.3000794691836896e-09 -1.1380065048958598e-08 0.0000000000000000e+00  1.8223151425408443e-08 -5.2691076429800832e-09 0.0000000000000000e+00  2.3274344848044597e-08 -2.4120919159054543e-09 0.0000000000000000e+00  2.5845453067616446e-08 -1.1573691781483043e-09 0.0000000000000000e+00  2.7295152942580543e-08 -5.6662610547891116e-10 0.0000000000000000e+00  2.8135095602322714e-08 -2.7109167782133327e-10 0.0000000000000000e+00  2.8624226533687264e-08 -1.2035597880705772e-10 0.0000000000000000e+00  2.8905559021244409e-08 -4.5405098692205399e-11 0.0000000000000000e+00  2.9058784555580510e-08 -8.9302333763930157e-12 0.0000000000000000e+00  2.9125354676534266e-08 1.3598921387648256e-11 0.0000000000000000e+00  2.9119997250383109e-08 4.2636066650662246e-11 0.0000000000000000e+00  2.9034699478464058e-08 1.0032315247942038e-10 0.0000000000000000e+00  2.8837171123841614e-08 2.1709914810091681e-10 0.0000000000000000e+00  2.8462782187106185e-08 4.4348658156794117e-10 0.0000000000000000e+00  2.7793935138254583e-08 8.7598833499452522e-10 0.0000000000000000e+00  2.6604826720873402e-08 1.7179398347799234e-09 0.0000000000000000e+00  2.4383990765779808e-08 3.4152795900518273e-09 0.0000000000000000e+00  1.9686571631621711e-08 6.8581824723951429e-09 0.0000000000000000e+00  8.2649430038078630e-09 1.3009453196317835e-08 0.0000000000000000e+00  -1.8413967669087218e-08 1.0942117283113118e-08 0.0000000000000000e+00  -1.1042458820901368e-08 -1.9726352657682931e-08 0.0000000000000000e+00  -2.3715936705764636e-10 -1.8534604375350411e-08 0.0000000000000000e+00  5.8969279898254717e-09 -1.1324926495013170e-08 0.0000000000000000e+00  1.0787085273542780e-08 -6.5376713176906651e-09 0.0000000000000000e+00  1.4594034362409883e-08 -3.7766449372390068e-09 0.0000000000000000e+00  1.7228803041049015e-08 -2.2096449903896156e-09 0.0000000000000000e+00  1.8986987555299761e-08 -1.2947845657600935e-09 0.0000000000000000e+00  2.0135736324039340e-08 -7.4045536696256384e-10 0.0000000000000000e+00  2.0854565230639277e-08 -3.8755199477524331e-10 0.0000000000000000e+00  2.1253801935230586e-08 -1.4176076275234558e-10 0.0000000000000000e+00  2.1393222471832232e-08 6.1143237653829285e-11 0.0000000000000000e+00  2.1293144503107429e-08 2.7421720223992729e-10 0.0000000000000000e+00  2.0938450993591091e-08 5.5249500430681963e-10 0.0000000000000000e+00  2.0276213946590183e-08 9.6661175308603320e-10 0.0000000000000000e+00  1.9206338552330930e-08 1.6228450232218776e-09 0.0000000000000000e+00  1.7563321737902310e-08 2.6972829521988468e-09 0.0000000000000000e+00  1.5087754141112973e-08 4.4905527315988602e-09 0.0000000000000000e+00  1.1397751257482348e-08 7.4763125356785173e-09 0.0000000000000000e+00  6.0271271206248651e-09 1.2120667636005928e-08 0.0000000000000000e+00  -1.2860477662907663e-09 1.7572791518614276e-08 0.0000000000000000e+00  -1.3246376690165546e-08 1.4690265136868950e-08 0.0000000000000000e+00  -7.3315317250625323e-09 -2.0315368793858252e-08 0.0000000000000000e+00  -1.5436252724555930e-09 -1.9985373002328321e-08 0.0000000000000000e+00  1.1456253532323500e-09 -1.5305364465350532e-08 0.0000000000000000e+00  3.9323747198820987e-09 -1.0406099233570095e-08 0.0000000000000000e+00  6.8317191698780701e-09 -6.8249488287416784e-09 0.0000000000000000e+00  9.3473576233509505e-09 -4.4170797522826261e-09 0.0000000000000000e+00  1.1284236379533341e-08 -2.8209712607779661e-09 0.0000000000000000e+00  1.2668587821736282e-08 -1.7437346857454920e-09 0.0000000000000000e+00  1.3585605634984795e-08 -9.8419019797636131e-10 0.0000000000000000e+00  1.4110271830572610e-08 -4.0410859680191645e-10 0.0000000000000000e+00  1.4289959155569368e-08 9.9297096735711911e-11 0.0000000000000000e+00  1.4141912714302999e-08 6.1368145317081897e-10 0.0000000000000000e+00  1.3653522998915734e-08 1.2276276493309673e-09 0.0000000000000000e+00  1.2782594811810456e-08 2.0461496741650095e-09 0.0000000000000000e+00  1.1458867875395269e-08 3.2082357851854980e-09 0.0000000000000000e+00  9.5929994448990047e-09 4.9048329375066036e-09 0.0000000000000000e+00  7.1098549227899729e-09 7.3794702755462875e-09 0.0000000000000000e+00  4.0401860106419820e-09 1.0841076947000620e-08 0.0000000000000000e+00  6.7658385489026101e-10 1.5097846707191101e-08 0.0000000000000000e+00  -2.6187152764883167e-09 1.8740852686456704e-08 0.0000000000000000e+00  -8.9422660519935611e-09 1.7534248181501743e-08 0.0000000000000000e+00  -5.4552948708185284e-09 -1.9689803815704901e-08 0.0000000000000000e+00  -1.8867667847511234e-09 -1.9728166789025520e-08 0.0000000000000000e+00  -9.2605719903302167e-10 -1.6732967991994180e-08 0.0000000000000000e+00  2.2043399838187688e-10 -1.2787877515196076e-08 0.0000000000000000e+00  1.8669336843048689e-09 -9.2258332615911893e-09 0.0000000000000000e+00  3.6424770282135449e-09 -6.4403072671201121e-09 0.0000000000000000e+00  5.2256176263976226e-09 -4.3692394723139087e-09 0.0000000000000000e+00  6.4736709486500511e-09 -2.8361914127855119e-09 0.0000000000000000e+00  7.3540671388242249e-09 -1.6687641990687361e-09 0.0000000000000000e+00  7.8768325552885978e-09 -7.2258610565054674e-10 0.0000000000000000e+00  8.0582900918983167e-09 1.2326404223192497e-10 0.0000000000000000e+00  7.9062138637493425e-09 9.7737834484150429e-10 0.0000000000000000e+00  7.4157897782277568e-09 1.9475790189404621e-09 0.0000000000000000e+00  6.5722963077832735e-09 3.1512568025363135e-09 0.0000000000000000e+00  5.3617640148492349e-09 4.7219739033033185e-09 0.0000000000000000e+00  3.7956675790583111e-09 6.8037847787983113e-09 0.0000000000000000e+00  1.9590064370549741e-09 9.5099390538348276e-09 0.0000000000000000e+00  7.8771875338531827e-11 1.2798265898168574e-08 0.0000000000000000e+00  -1.4808401450266397e-09 1.6217456415100475e-08 0.0000000000000000e+00  -2.7291873571399659e-09 1.8691019159443961e-08 0.0000000000000000e+00  -6.6515190019892224e-09 1.8523124367183789e-08 0.0000000000000000e+00  -4.3892887256035766e-09 -1.8525120112876994e-08 0.0000000000000000e+00  -2.0615084357644766e-09 -1.8794084296975541e-08 0.0000000000000000e+00  -2.0161318027576679e-09 -1.6763970974129262e-08 0.0000000000000000e+00  -1.9244526614363162e-09 -1.3762174501115207e-08 0.0000000000000000e+00  -1.3170589223721312e-09 -1.0636027724871987e-08 0.0000000000000000e+00  -3.7046341235844818e-10 -7.8718154391175184e-09 0.0000000000000000e+00  6.4744403685851465e-10 -5.5994660261292143e-09 0.0000000000000000e+00  1.5478122206760711e-09 -3.7741874922050352e-09 0.0000000000000000e+00  2.2314770700487629e-09 -2.2893584954307717e-09 0.0000000000000000e+00  2.6562546162465870e-09 -1.0263286570479807e-09 0.0000000000000000e+00  2.8079150918569859e-09 1.3005764266648794e-10 0.0000000000000000e+00  2.6837088445252010e-09 1.2900562637758368e-09 0.0000000000000000e+00  2.2866630424216291e-09 2.5619340643861859e-09 0.0000000000000000e+00  1.6286927069961779e-09 4.0538167072411645e-09 0.0000000000000000e+00  7.4267831522126554e-10 5.8690388678581969e-09 0.0000000000000000e+00  -2.9529438511427140e-10 8.0859806912315489e-09 0.0000000000000000e+00  -1.3366253746744901e-09 1.0707910429808688e-08 0.0000000000000000e+00  -2.1483579576234901e-09 1.3569937411307483e-08 0.0000000000000000e+00  -2.5117609718713791e-09 1.6228434556632824e-08 0.0000000000000000e+00  -2.7065490602068645e-09 1.7993291089137785e-08 0.0000000000000000e+00  -5.3069216094811655e-09 1.8282517355070478e-08 0.0000000000000000e+00  -3.7098978213733907e-09 -1.7063194169340922e-08 0.0000000000000000e+00  -2.1934396452202714e-09 -1.7491213866195545e-08 0.0000000000000000e+00  -2.6943352452021545e-09 -1.6047277139366798e-08 0.0000000000000000e+00  -3.2707377608499018e-09 -1.3759791134502072e-08 0.0000000000000000e+00  -3.4218430742881180e-09 -1.1150978490253928e-08 0.0000000000000000e+00  -3.1871313334414401e-09 -8.6213812063974651e-09 0.0000000000000000e+00  -2.7434209985138566e-09 -6.3643033589608036e-09 0.0000000000000000e+00  -2.2569350591838777e-09 -4.4202864872193212e-09 0.0000000000000000e+00  -1.8425610991202329e-09 -2.7466608077005386e-09 0.0000000000000000e+00  -1.5672630994616464e-09 -1.2635882137921577e-09 0.0000000000000000e+00  -1.4640601455731834e-09 1.2223412978841459e-10 0.0000000000000000e+00  -1.5431424015318889e-09 1.5070218104525687e-09 0.0000000000000000e+00  -1.7965105520674298e-09 2.9847160753166257e-09 0.0000000000000000e+00  -2.1958766594497426e-09 4.6413331817184659e-09 0.0000000000000000e+00  -2.6845075947301290e-09 6.5434594641793294e-09 0.0000000000000000e+00  -3.1654568114762159e-09 8.7149784055158442e-09 0.0000000000000000e+00  -3.4945765724708972e-09 1.1097386485282241e-08 0.0000000000000000e+00  -3.5022736932992937e-09 1.3498894855371810e-08 0.0000000000000000e+00  -3.1059838922403623e-09 1.5566719525239829e-08 0.0000000000000000e+00  -2.6909228375451818e-09 1.6877445745635512e-08 0.0000000000000000e+00  -4.4337901492994883e-09 1.7383363904537181e-08 0.0000000000000000e+00  -3.2410368622266398e-09 -1.5404047761414045e-08 0.0000000000000000e+00  -2.3015516749110726e-09 -1.5946624954049157e-08 0.0000000000000000e+00  -3.1642153144312939e-09 -1.4884563704081536e-08 0.0000000000000000e+00  -4.1768792429534050e-09 -1.3118860723207876e-08 0.0000000000000000e+00  -4.8613008019011212e-09 -1.0980504255094810e-08 0.0000000000000000e+00  -5.1796278364160643e-09 -8.7641855648311055e-09 0.0000000000000000e+00  -5.2307525578132804e-09 -6.6558126618214317e-09 0.0000000000000000e+00  -5.1367421497444687e-09 -4.7333365199480914e-09 0.0000000000000000e+00  -4.9988114093362057e-09 -2.9983470777825582e-09 0.0000000000000000e+00  -4.8860712182211596e-09 -1.4075787035356133e-09 0.0000000000000000e+00  -4.8374801855607160e-09 1.0472051647131615e-10 0.0000000000000000e+00  -4.8664093441973621e-09 1.6125315717857752e-09 0.0000000000000000e+00  -4.9631826460397287e-09 3.1879798051449066e-09 0.0000000000000000e+00  -5.0943501967640313e-09 4.8913047585997809e-09 0.0000000000000000e+00  -5.1995950477046551e-09 6.7571940398387442e-09 0.0000000000000000e+00  -5.1896570265979466e-09 8.7748883648883469e-09 0.0000000000000000e+00  -4.9530531333130176e-09 1.0862889884017128e-08 0.0000000000000000e+00  -4.3879300327922918e-09 1.2847547268016578e-08 0.0000000000000000e+00  -3.4980090442702048e-09 1.4469913900789553e-08 0.0000000000000000e+00  -2.6895875598855727e-09 1.5473004424042624e-08 0.0000000000000000e+00  -3.8240841140882957e-09 1.6099229514975562e-08 0.0000000000000000e+00  -2.9015972531723641e-09 -1.3601569735111484e-08 0.0000000000000000e+00  -2.3898697009845203e-09 -1.4228864141626626e-08 0.0000000000000000e+00  -3.5080683723856851e-09 -1.3431686424801308e-08 0.0000000000000000e+00  -4.8157734736196110e-09 -1.2054376272186570e-08 0.0000000000000000e+00  -5.8721407858644071e-09 -1.0315399258871953e-08 0.0000000000000000e+00  -6.6004738733819268e-09 -8.4242108079427711e-09 0.0000000000000000e+00  -7.0443129049319789e-09 -6.5351931198240019e-09 0.0000000000000000e+00  -7.2824331675414835e-09 -4.7333936814798197e-09 0.0000000000000000e+00  -7.3913034964312953e-09 -3.0444338060983667e-09 0.0000000000000000e+00  -7.4294492008373648e-09 -1.4525185607076783e-09 0.0000000000000000e+00  -7.4328009716449671e-09 8.2441986126739913e-11 0.0000000000000000e+00  -7.4145060756991006e-09 1.6109526984201789e-09 0.0000000000000000e+00  -7.3656188889663467e-09 3.1823458848657921e-09 0.0000000000000000e+00  -7.2554353691503488e-09 4.8334875613391391e-09 0.0000000000000000e+00  -7.0321913498421255e-09 6.5760076665573248e-09 0.0000000000000000e+00  -6.6268309346025278e-09 8.3816494607211079e-09 0.0000000000000000e+00  -5.9650680112880972e-09 1.0168343584853824e-08 0.0000000000000000e+00  -4.9976126318135774e-09 1.1794643528891666e-08 0.0000000000000000e+00  -3.7759529848412975e-09 1.3076864208038879e-08 0.0000000000000000e+00  -2.6950057260112350e-09 1.3860905894802939e-08 0.0000000000000000e+00  -3.3766509468942844e-09 1.4563511883867623e-08 0.0000000000000000e+00  -2.6500651258388586e-09 -1.1691942293274801e-08 0.0000000000000000e+00  -2.4607508829633249e-09 -1.2382810867618847e-08 0.0000000000000000e+00  -3.7651699095690409e-09 -1.1780277979166617e-08 0.0000000000000000e+00  -5.2772784899652893e-09 -1.0702537910441215e-08 0.0000000000000000e+00  -6.5928054756189721e-09 -9.3002732785849640e-09 0.0000000000000000e+00  -7.6172598350644506e-09 -7.7209817830617855e-09 0.0000000000000000e+00  -8.3578141169683676e-09 -6.0847052551708920e-09 0.0000000000000000e+00  -8.8582267505240281e-09 -4.4689379940565785e-09 0.0000000000000000e+00  -9.1694813545067096e-09 -2.9088228278694084e-09 0.0000000000000000e+00  -9.3348313534121073e-09 -1.4060990237849019e-09 0.0000000000000000e+00  -9.3827344091257891e-09 5.9231092779242532e-11 0.0000000000000000e+00  -9.3241671214220489e-09 1.5173914565489516e-09 0.0000000000000000e+00  -9.1521640234521743e-09 2.9980681935983140e-09 0.0000000000000000e+00  -8.8427262624384255e-09 4.5199619726880037e-09 0.0000000000000000e+00  -8.3575260855030714e-09 6.0802894000213769e-09 0.0000000000000000e+00  -7.6500427552043907e-09 7.6448837353106257e-09 0.0000000000000000e+00  -6.6780637214800987e-09 9.1414561099160662e-09 0.0000000000000000e+00  -5.4286710402182695e-09 1.0461025191334410e-08 0.0000000000000000e+00  -3.9781931699041837e-09 1.1475575643710298e-08 0.0000000000000000e+00  -2.7009956428203307e-09 1.2095661762136429e-08 0.0000000000000000e+00  -3.0374123292872482e-09 1.2850631591954079e-08 0.0000000000000000e+00  -2.4633386297998423e-09 -9.7026078508253236e-09 0.0000000000000000e+00  -2.5166865631864320e-09 -1.0441455067787094e-08 0.0000000000000000e+00  -3.9578604390731988e-09 -9.9899291140355834e-09 0.0000000000000000e+00  -5.6128870477576423e-09 -9.1531121521964965e-09 0.0000000000000000e+00  -7.1083336410012017e-09 -8.0396355322489588e-09 0.0000000000000000e+00  -8.3424970478550528e-09 -6.7531522498685567e-09 0.0000000000000000e+00  -9.2995057755888680e-09 -5.3836196526969926e-09 0.0000000000000000e+00  -9.9972169503138693e-09 -3.9955431196174772e-09 0.0000000000000000e+00  -1.0464833807395415e-08 -2.6248134239226204e-09 0.0000000000000000e+00  -1.0730440949924857e-08 -1.2825252184489473e-09 0.0000000000000000e+00  -1.0813886672969306e-08 3.7628807521089774e-11 0.0000000000000000e+00  -1.0723263001713758e-08 1.3507025577136338e-09 0.0000000000000000e+00  -1.0453924848573408e-08 2.6716746800241871e-09 0.0000000000000000e+00  -9.9895803848719625e-09 4.0068692903670951e-09 0.0000000000000000e+00  -9.3056327380380008e-09 5.3460097142212118e-09 0.0000000000000000e+00  -8.3755447210164992e-09 6.6558790598301264e-09 0.0000000000000000e+00  -7.1817092814067196e-09 7.8775418389908612e-09 0.0000000000000000e+00  -5.7351764729492953e-09 8.9300859114318450e-09 0.0000000000000000e+00  -4.1247309312341157e-09 9.7256762673845364e-09 0.0000000000000000e+00  -2.7041317348185023e-09 1.0216478814624620e-08 0.0000000000000000e+00  -2.7753509405868139e-09 1.1008217862342637e-08 0.0000000000000000e+00  -2.3278032504164436e-09 -7.6555037782712125e-09 0.0000000000000000e+00  -2.5603706403586865e-09 -8.4304900460149200e-09 0.0000000000000000e+00  -4.1008672359441447e-09 -8.1022128486668987e-09 0.0000000000000000e+00  -5.8551201292360589e-09 -7.4676820956337824e-09 0.0000000000000000e+00  -7.4739375916366031e-09 -6.6085352294298501e-09 0.0000000000000000e+00  -8.8534107196890494e-09 -5.5972684867682551e-09 0.0000000000000000e+00  -9.9633604700578671e-09 -4.4992729253245600e-09 0.0000000000000000e+00  -1.0803482961601706e-08 -3.3649970899076758e-09 0.0000000000000000e+00  -1.1386138948017858e-08 -2.2263023069276144e-09 0.0000000000000000e+00  -1.1726580431627163e-08 -1.0977180133938739e-09 0.0000000000000000e+00  -1.1836785088951378e-08 1.9109532614678191e-11 0.0000000000000000e+00  -1.1722022870933983e-08 1.1293550630549615e-09 0.0000000000000000e+00  -1.1379760182148130e-08 2.2384061224514689e-09 0.0000000000000000e+00  -1.0800705005249299e-08 3.3454077380400619e-09 0.0000000000000000e+00  -9.9720179545908522e-09 4.4376178761331795e-09 0.0000000000000000e+00  -8.8829314518393516e-09 5.4864984500646851e-09 0.0000000000000000e+00  -7.5335153141021349e-09 6.4468722911309873e-09 0.0000000000000000e+00  -5.9502479411754924e-09 7.2608217160433192e-09 0.0000000000000000e+00  -4.2280036379148724e-09 7.8696000013892120e-09 0.0000000000000000e+00  -2.7030726530455271e-09 8.2529153452597884e-09 0.0000000000000000e+00  -2.5718876647558541e-09 9.0700112978903203e-09 0.0000000000000000e+00  -2.2351661080251610e-09 -5.5685419947761217e-09 0.0000000000000000e+00  -2.5944840721964475e-09 -6.3704603608431364e-09 0.0000000000000000e+00  -4.2048179957614423e-09 -6.1475353901201802e-09 0.0000000000000000e+00  -6.0260384582734244e-09 -5.6899620650097616e-09 0.0000000000000000e+00  -7.7270206085890401e-09 -5.0612821302032365e-09 0.0000000000000000e+00  -9.2038442563756137e-09 -4.3112942100525076e-09 0.0000000000000000e+00  -1.0417648069409029e-08 -3.4856061115055475e-09 0.0000000000000000e+00  -1.1355961401053757e-08 -2.6212314355688475e-09 0.0000000000000000e+00  -1.2019047490919782e-08 -1.7435962389981342e-09 0.0000000000000000e+00  -1.2412374361175584e-08 -8.6668466467425891e-10 0.0000000000000000e+00  -1.2541614053432772e-08 4.4161137218358766e-12 0.0000000000000000e+00  -1.2409663147595925e-08 8.6954784308475529e-10 0.0000000000000000e+00  -1.2015629353134120e-08 1.7289232480888448e-09 0.0000000000000000e+00  -1.1355743949887738e-08 2.5786492283056583e-09 0.0000000000000000e+00  -1.0426146345488011e-08 3.4069649352030759e-09 0.0000000000000000e+00  -9.2275172081834516e-09 4.1919182119753716e-09 0.0000000000000000e+00  -7.7719882387645319e-09 4.9013241741295891e-09 0.0000000000000000e+00  -6.0957883006366453e-09 5.4959597193611421e-09 0.0000000000000000e+00  -4.2967464816808022e-09 5.9386288290652294e-09 0.0000000000000000e+00  -2.6977420094699636e-09 6.2279174713318818e-09 0.0000000000000000e+00  -2.4156438768142748e-09 7.0614210155165969e-09 0.0000000000000000e+00  -2.1803389686651634e-09 -3.4565761100677601e-09 0.0000000000000000e+00  -2.6214566816975234e-09 -4.2780591705883138e-09 0.0000000000000000e+00  -4.2775787129485977e-09 -4.1489523258960531e-09 0.0000000000000000e+00  -6.1410198410564553e-09 -3.8520057598666100e-09 0.0000000000000000e+00  -7.8932327701035467e-09 -3.4378624887007806e-09 0.0000000000000000e+00  -9.4311096126130936e-09 -2.9390235692299627e-09 0.0000000000000000e+00  -1.0710786989670758e-08 -2.3848493317