<?xml version="1.0"?>
<VTKFile type="UnstructuredGrid"  version="0.1"  >
<UnstructuredGrid>
<Piece  NumberOfPoints="651" NumberOfCells="1200">
<Points>
<DataArray  type="Float64"  NumberOfComponents="3"  format="ascii">0 0 0  50000 0 0  100000 0 0  150000 0 0  200000 0 0  250000 0 0  300000 0 0  350000 0 0  400000 0 0  450000 0 0  500000 0 0  550000 0 0  600000 0 0  650000 0 0  700000 0 0  750000 0 0  800000 0 0  850000 0 0  900000 0 0  950000 0 0  1000000 0 0  0 50000 0  50000 50000 0  100000 50000 0  150000 50000 0  200000 50000 0  250000 50000 0  300000 50000 0  350000 50000 0  400000 50000 0  450000 50000 0  500000 50000 0  550000 50000 0  600000 50000 0  650000 50000 0  700000 50000 0  750000 50000 0  800000 50000 0  850000 50000 0  900000 50000 0  950000 50000 0  1000000 50000 0  0 100000 0  50000 100000 0  100000 100000 0  150000 100000 0  200000 100000 0  250000 100000 0  300000 100000 0  350000 100000 0  400000 100000 0  450000 100000 0  500000 100000 0  550000 100000 0  600000 100000 0  650000 100000 0  700000 100000 0  750000 100000 0  800000 100000 0  850000 100000 0  900000 100000 0  950000 100000 0  1000000 100000 0  0 150000 0  50000 150000 0  100000 150000 0  150000 150000 0  200000 150000 0  250000 150000 0  300000 150000 0  350000 150000 0  400000 150000 0  450000 150000 0  500000 150000 0  550000 150000 0  600000 150000 0  650000 150000 0  700000 150000 0  750000 150000 0  800000 150000 0  850000 150000 0  900000 150000 0  950000 150000 0  1000000 150000 0  0 200000 0  50000 200000 0  100000 200000 0  150000 200000 0  200000 200000 0  250000 200000 0  300000 200000 0  350000 200000 0  400000 200000 0  450000 200000 0  500000 200000 0  550000 200000 0  600000 200000 0  650000 200000 0  700000 200000 0  750000 200000 0  800000 200000 0  850000 200000 0  900000 200000 0  950000 200000 0  1000000 200000 0  0 250000 0  50000 250000 0  100000 250000 0  150000 250000 0  200000 250000 0  250000 250000 0  300000 250000 0  350000 250000 0  400000 250000 0  450000 250000 0  500000 250000 0  550000 250000 0  600000 250000 0  650000 250000 0  700000 250000 0  750000 250000 0  800000 250000 0  850000 250000 0  900000 250000 0  950000 250000 0  1000000 250000 0  0 300000 0  50000 300000 0  100000 300000 0  150000 300000 0  200000 300000 0  250000 300000 0  300000 300000 0  350000 300000 0  400000 300000 0  450000 300000 0  500000 300000 0  550000 300000 0  600000 300000 0  650000 300000 0  700000 300000 0  750000 300000 0  800000 300000 0  850000 300000 0  900000 300000 0  950000 300000 0  1000000 300000 0  0 350000 0  50000 350000 0  100000 350000 0  150000 350000 0  200000 350000 0  250000 350000 0  300000 350000 0  350000 350000 0  400000 350000 0  450000 350000 0  500000 350000 0  550000 350000 0  600000 350000 0  650000 350000 0  700000 350000 0  750000 350000 0  800000 350000 0  850000 350000 0  900000 350000 0  950000 350000 0  1000000 350000 0  0 400000 0  50000 400000 0  100000 400000 0  150000 400000 0  200000 400000 0  250000 400000 0  300000 400000 0  350000 400000 0  400000 400000 0  450000 400000 0  500000 400000 0  550000 400000 0  600000 400000 0  650000 400000 0  700000 400000 0  750000 400000 0  800000 400000 0  850000 400000 0  900000 400000 0  950000 400000 0  1000000 400000 0  0 450000 0  50000 450000 0  100000 450000 0  150000 450000 0  200000 450000 0  250000 450000 0  300000 450000 0  350000 450000 0  400000 450000 0  450000 450000 0  500000 450000 0  550000 450000 0  600000 450000 0  650000 450000 0  700000 450000 0  750000 450000 0  800000 450000 0  850000 450000 0  900000 450000 0  950000 450000 0  1000000 450000 0  0 500000 0  50000 500000 0  100000 500000 0  150000 500000 0  200000 500000 0  250000 500000 0  300000 500000 0  350000 500000 0  400000 500000 0  450000 500000 0  500000 500000 0  550000 500000 0  600000 500000 0  650000 500000 0  700000 500000 0  750000 500000 0  800000 500000 0  850000 500000 0  900000 500000 0  950000 500000 0  1000000 500000 0  0 550000 0  50000 550000 0  100000 550000 0  150000 550000 0  200000 550000 0  250000 550000 0  300000 550000 0  350000 550000 0  400000 550000 0  450000 550000 0  500000 550000 0  550000 550000 0  600000 550000 0  650000 550000 0  700000 550000 0  750000 550000 0  800000 550000 0  850000 550000 0  900000 550000 0  950000 550000 0  1000000 550000 0  0 600000 0  50000 600000 0  100000 600000 0  150000 600000 0  200000 600000 0  250000 600000 0  300000 600000 0  350000 600000 0  400000 600000 0  450000 600000 0  500000 600000 0  550000 600000 0  600000 600000 0  650000 600000 0  700000 600000 0  750000 600000 0  800000 600000 0  850000 600000 0  900000 600000 0  950000 600000 0  1000000 600000 0  0 650000 0  50000 650000 0  100000 650000 0  150000 650000 0  200000 650000 0  250000 650000 0  300000 650000 0  350000 650000 0  400000 650000 0  450000 650000 0  500000 650000 0  550000 650000 0  600000 650000 0  650000 650000 0  700000 650000 0  750000 650000 0  800000 650000 0  850000 650000 0  900000 650000 0  950000 650000 0  1000000 650000 0  0 700000 0  50000 700000 0  100000 700000 0  150000 700000 0  200000 700000 0  250000 700000 0  300000 700000 0  350000 700000 0  400000 700000 0  450000 700000 0  500000 700000 0  550000 700000 0  600000 700000 0  650000 700000 0  700000 700000 0  750000 700000 0  800000 700000 0  850000 700000 0  900000 700000 0  950000 700000 0  1000000 700000 0  0 750000 0  50000 750000 0  100000 750000 0  150000 750000 0  200000 750000 0  250000 750000 0  300000 750000 0  350000 750000 0  400000 750000 0  450000 750000 0  500000 750000 0  550000 750000 0  600000 750000 0  650000 750000 0  700000 750000 0  750000 750000 0  800000 750000 0  850000 750000 0  900000 750000 0  950000 750000 0  1000000 750000 0  0 800000 0  50000 800000 0  100000 800000 0  150000 800000 0  200000 800000 0  250000 800000 0  300000 800000 0  350000 800000 0  400000 800000 0  450000 800000 0  500000 800000 0  550000 800000 0  600000 800000 0  650000 800000 0  700000 800000 0  750000 800000 0  800000 800000 0  850000 800000 0  900000 800000 0  950000 800000 0  1000000 800000 0  0 850000 0  50000 850000 0  100000 850000 0  150000 850000 0  200000 850000 0  250000 850000 0  300000 850000 0  350000 850000 0  400000 850000 0  450000 850000 0  500000 850000 0  550000 850000 0  600000 850000 0  650000 850000 0  700000 850000 0  750000 850000 0  800000 850000 0  850000 850000 0  900000 850000 0  950000 850000 0  1000000 850000 0  0 900000 0  50000 900000 0  100000 900000 0  150000 900000 0  200000 900000 0  250000 900000 0  300000 900000 0  350000 900000 0  400000 900000 0  450000 900000 0  500000 900000 0  550000 900000 0  600000 900000 0  650000 900000 0  700000 900000 0  750000 900000 0  800000 900000 0  850000 900000 0  900000 900000 0  950000 900000 0  1000000 900000 0  0 950000 0  50000 950000 0  100000 950000 0  150000 950000 0  200000 950000 0  250000 950000 0  300000 950000 0  350000 950000 0  400000 950000 0  450000 950000 0  500000 950000 0  550000 950000 0  600000 950000 0  650000 950000 0  700000 950000 0  750000 950000 0  800000 950000 0  850000 950000 0  900000 950000 0  950000 950000 0  1000000 950000 0  0 1000000 0  50000 1000000 0  100000 1000000 0  150000 1000000 0  200000 1000000 0  250000 1000000 0  300000 1000000 0  350000 1000000 0  400000 1000000 0  450000 1000000 0  500000 1000000 0  550000 1000000 0  600000 1000000 0  650000 1000000 0  700000 1000000 0  750000 1000000 0  800000 1000000 0  850000 1000000 0  900000 1000000 0  950000 1000000 0  1000000 1000000 0  0 1050000 0  50000 1050000 0  100000 1050000 0  150000 1050000 0  200000 1050000 0  250000 1050000 0  300000 1050000 0  350000 1050000 0  400000 1050000 0  450000 1050000 0  500000 1050000 0  550000 1050000 0  600000 1050000 0  650000 1050000 0  700000 1050000 0  750000 1050000 0  800000 1050000 0  850000 1050000 0  900000 1050000 0  950000 1050000 0  1000000 1050000 0  0 1100000 0  50000 1100000 0  100000 1100000 0  150000 1100000 0  200000 1100000 0  250000 1100000 0  300000 1100000 0  350000 1100000 0  400000 1100000 0  450000 1100000 0  500000 1100000 0  550000 1100000 0  600000 1100000 0  650000 1100000 0  700000 1100000 0  750000 1100000 0  800000 1100000 0  850000 1100000 0  900000 1100000 0  950000 1100000 0  1000000 1100000 0  0 1150000 0  50000 1150000 0  100000 1150000 0  150000 1150000 0  200000 1150000 0  250000 1150000 0  300000 1150000 0  350000 1150000 0  400000 1150000 0  450000 1150000 0  500000 1150000 0  550000 1150000 0  600000 1150000 0  650000 1150000 0  700000 1150000 0  750000 1150000 0  800000 1150000 0  850000 1150000 0  900000 1150000 0  950000 1150000 0  1000000 1150000 0  0 1200000 0  50000 1200000 0  100000 1200000 0  150000 1200000 0  200000 1200000 0  250000 1200000 0  300000 1200000 0  350000 1200000 0  400000 1200000 0  450000 1200000 0  500000 1200000 0  550000 1200000 0  600000 1200000 0  650000 1200000 0  700000 1200000 0  750000 1200000 0  800000 1200000 0  850000 1200000 0  900000 1200000 0  950000 1200000 0  1000000 1200000 0  0 1250000 0  50000 1250000 0  100000 1250000 0  150000 1250000 0  200000 1250000 0  250000 1250000 0  300000 1250000 0  350000 1250000 0  400000 1250000 0  450000 1250000 0  500000 1250000 0  550000 1250000 0  600000 1250000 0  650000 1250000 0  700000 1250000 0  750000 1250000 0  800000 1250000 0  850000 1250000 0  900000 1250000 0  950000 1250000 0  1000000 1250000 0  0 1300000 0  50000 1300000 0  100000 1300000 0  150000 1300000 0  200000 1300000 0  250000 1300000 0  300000 1300000 0  350000 1300000 0  400000 1300000 0  450000 1300000 0  500000 1300000 0  550000 1300000 0  600000 1300000 0  650000 1300000 0  700000 1300000 0  750000 1300000 0  800000 1300000 0  850000 1300000 0  900000 1300000 0  950000 1300000 0  1000000 1300000 0  0 1350000 0  50000 1350000 0  100000 1350000 0  150000 1350000 0  200000 1350000 0  250000 1350000 0  300000 1350000 0  350000 1350000 0  400000 1350000 0  450000 1350000 0  500000 1350000 0  550000 1350000 0  600000 1350000 0  650000 1350000 0  700000 135
[...]
<PointData  Vectors="f_1513"> 
<DataArray  type="Float64"  Name="f_1513"  NumberOfComponents="3" format="ascii">-2.4436517462388815e-08 -1.0265033521820664e-08 0.0000000000000000e+00  4.8631473023687418e-08 -6.3541139681099806e-09 0.0000000000000000e+00  4.2919271505859563e-08 -2.0673477852890044e-09 0.0000000000000000e+00  4.0478877491627993e-08 -7.1553479833105371e-10 0.0000000000000000e+00  3.9286417684397389e-08 -2.5422247045117343e-10 0.0000000000000000e+00  3.8509603173429468e-08 -6.5565802399434977e-11 0.0000000000000000e+00  3.7951948622181326e-08 1.7674904193394791e-11 0.0000000000000000e+00  3.7556858049175071e-08 5.2855944982163153e-11 0.0000000000000000e+00  3.7306677987578005e-08 6.4513343737383956e-11 0.0000000000000000e+00  3.7197002294024525e-08 6.5822001704790604e-11 0.0000000000000000e+00  3.7228935756070725e-08 6.5933816947784933e-11 0.0000000000000000e+00  3.7407329262752566e-08 7.3300359313920964e-11 0.0000000000000000e+00  3.7742365885081418e-08 9.8192703794305368e-11 0.0000000000000000e+00  3.8255598385944970e-08 1.5624268215795893e-10 0.0000000000000000e+00  3.8996013719168779e-08 2.7575246915932796e-10 0.0000000000000000e+00  4.0082548098254549e-08 5.1580373117067696e-10 0.0000000000000000e+00  4.1816431939658776e-08 1.0149018516855656e-09 0.0000000000000000e+00  4.4944568827620578e-08 2.1176162083689399e-09 0.0000000000000000e+00  5.0796654583757866e-08 4.6414056999325338e-09 0.0000000000000000e+00  5.8043106587109300e-08 9.1536862584290950e-09 0.0000000000000000e+00  -1.6410270586480494e-08 7.0479525856121001e-09 0.0000000000000000e+00  -1.8204744608429283e-08 -1.5822095472720417e-08 0.0000000000000000e+00  7.2264191175805916e-09 -1.1281252930928081e-08 0.0000000000000000e+00  1.8110647271578217e-08 -5.2524313019389567e-09 0.0000000000000000e+00  2.3183929358827421e-08 -2.3983277222791892e-09 0.0000000000000000e+00  2.5785180545829924e-08 -1.1435998235406245e-09 0.0000000000000000e+00  2.7257962400814442e-08 -5.5221248510218431e-10 0.0000000000000000e+00  2.8115541867715908e-08 -2.5601432966603481e-10 0.0000000000000000e+00  2.8618137961101226e-08 -1.0482156735663740e-10 0.0000000000000000e+00  2.8909396994719175e-08 -2.9622325889771264e-11 0.0000000000000000e+00  2.9069542904247668e-08 6.9166587964086732e-12 0.0000000000000000e+00  2.9140514436245992e-08 2.9341913865205166e-11 0.0000000000000000e+00  2.9137482704500913e-08 5.8120933403142664e-11 0.0000000000000000e+00  2.9052842919594992e-08 1.1541322364353996e-10 0.0000000000000000e+00  2.8854682250736943e-08 2.3168403441725284e-10 0.0000000000000000e+00  2.8478714167424646e-08 4.5749841557092093e-10 0.0000000000000000e+00  2.7807636380553774e-08 8.8943518676455020e-10 0.0000000000000000e+00  2.6615873567159283e-08 1.7309762545792533e-09 0.0000000000000000e+00  2.4392215811672048e-08 3.4283039608156978e-09 0.0000000000000000e+00  1.9692761662924112e-08 6.8718825875042681e-09 0.0000000000000000e+00  8.2713426449548626e-09 1.3025807584750818e-08 0.0000000000000000e+00  -1.8379183694464758e-08 1.0978169801713669e-08 0.0000000000000000e+00  -1.1235563997717592e-08 -1.9429458067009811e-08 0.0000000000000000e+00  -2.7370088245848980e-10 -1.8449505036027518e-08 0.0000000000000000e+00  5.8274940815744246e-09 -1.1360923826828267e-08 0.0000000000000000e+00  1.0705026364368379e-08 -6.5878885846293448e-09 0.0000000000000000e+00  1.4519965402986813e-08 -3.8237921955293915e-09 0.0000000000000000e+00  1.7169731092270020e-08 -2.2498739726455808e-09 0.0000000000000000e+00  1.8942478622454816e-08 -1.3274751712315163e-09 0.0000000000000000e+00  2.0103497969630528e-08 -7.6605713909903862e-10 0.0000000000000000e+00  2.0832085719029932e-08 -4.0678222584062189e-10 0.0000000000000000e+00  2.1238732779290210e-08 -1.5536955599546142e-10 0.0000000000000000e+00  2.1383496313330761e-08 5.2419616504278773e-11 0.0000000000000000e+00  2.1287010001125221e-08 2.6966425119945809e-10 0.0000000000000000e+00  2.0934473478406246e-08 5.5142655108377386e-10 0.0000000000000000e+00  2.0273262932558979e-08 9.6838450271185323e-10 0.0000000000000000e+00  1.9203568485989957e-08 1.6268881291610057e-09 0.0000000000000000e+00  1.7560148140031415e-08 2.7031545414203631e-09 0.0000000000000000e+00  1.5083842113598689e-08 4.4980380637857041e-09 0.0000000000000000e+00  1.1393086458205662e-08 7.4855619623880588e-09 0.0000000000000000e+00  6.0224772042652427e-09 1.2132394696788078e-08 0.0000000000000000e+00  -1.2879254249547461e-09 1.7585782461212301e-08 0.0000000000000000e+00  -1.3213511385184725e-08 1.4720540279321258e-08 0.0000000000000000e+00  -7.5431483467033282e-09 -2.0056621190099982e-08 0.0000000000000000e+00  -1.5582928788856620e-09 -1.9872071788974510e-08 0.0000000000000000e+00  1.1248081525029253e-09 -1.5321763902520336e-08 0.0000000000000000e+00  3.8901318693175685e-09 -1.0460796693651141e-08 0.0000000000000000e+00  6.7800402962564376e-09 -6.8857709464862528e-09 0.0000000000000000e+00  9.2968887801211308e-09 -4.4731819666827257e-09 0.0000000000000000e+00  1.1239662061185036e-08 -2.8688306946590302e-09 0.0000000000000000e+00  1.2631078002920051e-08 -1.7826179167502475e-09 0.0000000000000000e+00  1.3554725811696097e-08 -1.0144623427461136e-09 0.0000000000000000e+00  1.4084969442487813e-08 -4.2655011100198545e-10 0.0000000000000000e+00  1.4269013751300459e-08 8.3756869786794617e-11 0.0000000000000000e+00  1.4124142145464100e-08 6.0406879965290425e-10 0.0000000000000000e+00  1.3637881715293549e-08 1.2229723947857720e-09 0.0000000000000000e+00  1.2768223109703847e-08 2.0455183686031841e-09 0.0000000000000000e+00  1.1445120351618383e-08 3.2107699636072994e-09 0.0000000000000000e+00  9.5794712312682318e-09 4.9098048958635126e-09 0.0000000000000000e+00  7.0964313038234162e-09 7.3863596879074504e-09 0.0000000000000000e+00  4.0271897592001182e-09 1.0849630804889252e-08 0.0000000000000000e+00  6.6546568930101812e-10 1.5107896971441565e-08 0.0000000000000000e+00  -2.6245714431904025e-09 1.8748053415196023e-08 0.0000000000000000e+00  -8.9133106840538007e-09 1.7557080683548457e-08 0.0000000000000000e+00  -5.6788538350472278e-09 -1.9468067546033596e-08 0.0000000000000000e+00  -1.8930997755119002e-09 -1.9606543373480532e-08 0.0000000000000000e+00  -9.1776996189741321e-10 -1.6724286916707068e-08 0.0000000000000000e+00  2.1261110836759025e-10 -1.2828041447279638e-08 0.0000000000000000e+00  1.8438017929518948e-09 -9.2828027139724895e-09 0.0000000000000000e+00  3.6114640248782728e-09 -6.4985836183087739e-09 0.0000000000000000e+00  5.1924270513451883e-09 -4.4219283428167265e-09 0.0000000000000000e+00  6.4414370115758433e-09 -2.8806173579466091e-09 0.0000000000000000e+00  7.3241323329989651e-09 -1.7042799321448141e-09 0.0000000000000000e+00  7.8495019616655098e-09 -7.4950743735841712e-10 0.0000000000000000e+00  8.0333340870134088e-09 1.0416671364240157e-10 0.0000000000000000e+00  7.8831693487494704e-09 9.6512304729322227e-10 0.0000000000000000e+00  7.3941378120357318e-09 1.9410930545257501e-09 0.0000000000000000e+00  6.5515732811140283e-09 3.1494448103638602e-09 0.0000000000000000e+00  5.3416427609919129e-09 4.7237669875307734e-09 0.0000000000000000e+00  3.7760347395899259e-09 6.8081855457040218e-09 0.0000000000000000e+00  1.9400657240171632e-09 9.5160568626757072e-09 0.0000000000000000e+00  6.1245907965022950e-11 1.2805273609721674e-08 0.0000000000000000e+00  -1.4950435257641893e-09 1.6224178729561581e-08 0.0000000000000000e+00  -2.7374743606759642e-09 1.8690923247856660e-08 0.0000000000000000e+00  -6.6282055865136151e-09 1.8537651831051518e-08 0.0000000000000000e+00  -4.6197317584825435e-09 -1.8338833964913906e-08 0.0000000000000000e+00  -2.0647349229264051e-09 -1.8679412644249981e-08 0.0000000000000000e+00  -1.9911721527876153e-09 -1.6738978099668238e-08 0.0000000000000000e+00  -1.9081818681623043e-09 -1.3785330694402021e-08 0.0000000000000000e+00  -1.3155159734635500e-09 -1.0681735324862507e-08 0.0000000000000000e+00  -3.8058664495375292e-10 -7.9243666042946950e-09 0.0000000000000000e+00  6.2995736078627259e-10 -5.6502130407603944e-09 0.0000000000000000e+00  1.5263520791009574e-09 -3.8188292900475841e-09 0.0000000000000000e+00  2.2082340780754765e-09 -2.3261070824491112e-09 0.0000000000000000e+00  2.6324644496013825e-09 -1.0547955550154832e-09 0.0000000000000000e+00  2.7841729364524149e-09 1.0949356553850327e-10 0.0000000000000000e+00  2.6602272944795732e-09 1.2765954737934182e-09 0.0000000000000000e+00  2.2634617441025241e-09 2.5545451684657804e-09 0.0000000000000000e+00  1.6057390362080065e-09 4.0513413400256227e-09 0.0000000000000000e+00  7.2000265028576310e-10 5.8702526220847083e-09 0.0000000000000000e+00  -3.1748682096770268e-10 8.0896274417892939e-09 0.0000000000000000e+00  -1.3578220096908752e-09 1.0712702888626355e-08 0.0000000000000000e+00  -2.1675364787068787e-09 1.3574451743265033e-08 0.0000000000000000e+00  -2.5268699933700419e-09 1.6230613565761953e-08 0.0000000000000000e+00  -2.7163721413683551e-09 1.7984832211656786e-08 0.0000000000000000e+00  -5.2909798719150322e-09 1.8288260409350289e-08 0.0000000000000000e+00  -3.9429632238768364e-09 -1.6910471292987894e-08 0.0000000000000000e+00  -2.1959024967319800e-09 -1.7390856083350117e-08 0.0000000000000000e+00  -2.6600651595946483e-09 -1.6014926279528322e-08 0.0000000000000000e+00  -3.2388478589749837e-09 -1.3769218124714695e-08 0.0000000000000000e+00  -3.4017331901175324e-09 -1.1183859150325233e-08 0.0000000000000000e+00  -3.1791063840551266e-09 -8.6643555397632783e-09 0.0000000000000000e+00  -2.7451667384432017e-09 -6.4087307644997688e-09 0.0000000000000000e+00  -2.2657760972683237e-09 -4.4611166056190372e-09 0.0000000000000000e+00  -1.8562553839814941e-09 -2.7812859076085354e-09 0.0000000000000000e+00  -1.5841714942047077e-09 -1.2909618578485267e-09 0.0000000000000000e+00  -1.4830755318315836e-09 1.0219035711986644e-10 0.0000000000000000e+00  -1.5635497061375496e-09 1.4937890680582401e-09 0.0000000000000000e+00  -1.8178431921951960e-09 2.9773994594920381e-09 0.0000000000000000e+00  -2.2177856211235619e-09 4.6387886702860204e-09 0.0000000000000000e+00  -2.7066394751058662e-09 6.5443617868047703e-09 0.0000000000000000e+00  -3.1873305041948493e-09 8.7178471028366107e-09 0.0000000000000000e+00  -3.5154456942341129e-09 1.1100565685218888e-08 0.0000000000000000e+00  -3.5209519752178770e-09 1.3500420995808529e-08 0.0000000000000000e+00  -3.1204985483390954e-09 1.5563793745145508e-08 0.0000000000000000e+00  -2.7017646262732649e-09 1.6860282213358875e-08 0.0000000000000000e+00  -4.4269200000558519e-09 1.7380171991504166e-08 0.0000000000000000e+00  -3.4729657757278868e-09 -1.5282758267349126e-08 0.0000000000000000e+00  -2.3043424828570299e-09 -1.5864062446894095e-08 0.0000000000000000e+00  -3.1251841629612426e-09 -1.4851141340921817e-08 0.0000000000000000e+00  -4.1355303680619839e-09 -1.3118913077690211e-08 0.0000000000000000e+00  -4.8283563719976530e-09 -1.1001815505717911e-08 0.0000000000000000e+00  -5.1574964078081777e-09 -8.7965342930984001e-09 0.0000000000000000e+00  -5.2188492664514612e-09 -6.6916815653456097e-09 0.0000000000000000e+00  -5.1334051042468830e-09 -4.7677527381693360e-09 0.0000000000000000e+00  -5.0021985564463520e-09 -3.0283604254758429e-09 0.0000000000000000e+00  -4.8945477947785911e-09 -1.4317074405835364e-09 0.0000000000000000e+00  -4.8497346592161860e-09 8.6940555632760601e-11 0.0000000000000000e+00  -4.8814377048539535e-09 1.6008682833588528e-09 0.0000000000000000e+00  -4.9802161681639408e-09 3.1817145668803723e-09 0.0000000000000000e+00  -5.1127608113415163e-09 4.8893580909876141e-09 0.0000000000000000e+00  -5.2187899116268965e-09 6.7581902033965313e-09 0.0000000000000000e+00  -5.2089634899218767e-09 8.7771725959974933e-09 0.0000000000000000e+00  -4.9715922257237260e-09 1.0864495854074074e-08 0.0000000000000000e+00  -4.4044793181567276e-09 1.2846054061570392e-08 0.0000000000000000e+00  -3.5108349694257873e-09 1.4461902293487654e-08 0.0000000000000000e+00  -2.7011220088895153e-09 1.5447416652060729e-08 0.0000000000000000e+00  -3.8279289841767522e-09 1.6087295620681784e-08 0.0000000000000000e+00  -3.1290310170898507e-09 -1.3509369973244741e-08 0.0000000000000000e+00  -2.3934711148161481e-09 -1.4165492321851459e-08 0.0000000000000000e+00  -3.4672025615962654e-09 -1.3401234613081500e-08 0.0000000000000000e+00  -4.7693604986628091e-09 -1.2048901651925508e-08 0.0000000000000000e+00  -5.8310833894837083e-09 -1.0327404919940579e-08 0.0000000000000000e+00  -6.5682981896775945e-09 -8.4465172366859443e-09 0.0000000000000000e+00  -7.0216642223438726e-09 -6.5618808805474173e-09 0.0000000000000000e+00  -7.2685896375503142e-09 -4.7601153270620811e-09 0.0000000000000000e+00  -7.3849814821502980e-09 -3.0683204556465079e-09 0.0000000000000000e+00  -7.4292527440596002e-09 -1.4719203600332320e-09 0.0000000000000000e+00  -7.4374416238254147e-09 6.8233841311380503e-11 0.0000000000000000e+00  -7.4228811046855619e-09 1.6019365282503734e-09 0.0000000000000000e+00  -7.3768081976591597e-09 3.1779744276654358e-09 0.0000000000000000e+00  -7.2686529516476973e-09 4.8327703090840145e-09 0.0000000000000000e+00  -7.0467096222639378e-09 6.5775600707974562e-09 0.0000000000000000e+00  -6.6418864343090383e-09 8.3836969282986364e-09 0.0000000000000000e+00  -5.9797546589497815e-09 1.0168677451934971e-08 0.0000000000000000e+00  -5.0107849437113274e-09 1.1790469337724279e-08 0.0000000000000000e+00  -3.7862463038065775e-09 1.3064238831807429e-08 0.0000000000000000e+00  -2.7069937764531941e-09 1.3827662473294798e-08 0.0000000000000000e+00  -3.3927753124081456e-09 1.4543386668917033e-08 0.0000000000000000e+00  -2.8700056445165643e-09 -1.1626285899228912e-08 0.0000000000000000e+00  -2.4653568479177019e-09 -1.2338711672469090e-08 0.0000000000000000e+00  -3.7244520405070298e-09 -1.1755252376076773e-08 0.0000000000000000e+00  -5.2289706813491309e-09 -1.0694525949301885e-08 0.0000000000000000e+00  -6.5473617330350610e-09 -9.3053634471573397e-09 0.0000000000000000e+00  -7.5786512143789758e-09 -7.7346199568453728e-09 0.0000000000000000e+00  -8.3274379797652081e-09 -6.1026417491474738e-09 0.0000000000000000e+00  -8.8360818314702271e-09 -4.4877226643698307e-09 0.0000000000000000e+00  -9.1548214217837180e-09 -2.9259575675494793e-09 0.0000000000000000e+00  -9.3265889435637360e-09 -1.4199942647947753e-09 0.0000000000000000e+00  -9.3797770747220077e-09 4.9378540626748700e-11 0.0000000000000000e+00  -9.3254311647214013e-09 1.5117284399395403e-09 0.0000000000000000e+00  -9.1567046428588404e-09 2.9961885830050628e-09 0.0000000000000000e+00  -8.8497126006956664e-09 4.5209708145042971e-09 0.0000000000000000e+00  -8.3661992343543288e-09 6.0828262591635546e-09 0.0000000000000000e+00  -7.6596477103448488e-09 7.6471070130922739e-09 0.0000000000000000e+00  -6.6877663373440473e-09 9.1409831143193717e-09 0.0000000000000000e+00  -5.4375034871508843e-09 1.0454766096559005e-08 0.0000000000000000e+00  -3.9852773145109884e-09 1.1459142578288083e-08 0.0000000000000000e+00  -2.7132376080508394e-09 1.2055928067574751e-08 0.0000000000000000e+00  -3.0672751505477175e-09 1.2823234039795918e-08 0.0000000000000000e+00  -2.6731386054411594e-09 -9.6607597583020329e-09 0.0000000000000000e+00  -2.5223546709237233e-09 -1.0415831566344098e-08 0.0000000000000000e+00  -3.9187067953562273e-09 -9.9716623952307742e-09 0.0000000000000000e+00  -5.5650198199301420e-09 -9.1447370718941389e-09 0.0000000000000000e+00  -7.0614129415525045e-09 -8.0399629772888159e-09 0.0000000000000000e+00  -8.3005054422786161e-09 -6.7597801719181613e-09 0.0000000000000000e+00  -9.2642137251266944e-09 -5.3938382066153231e-09 0.0000000000000000e+00  -9.9691000571875720e-09 -4.0068746489287859e-09 0.0000000000000000e+00  -1.0443577166608691e-08 -2.6352858464202004e-09 0.0000000000000000e+00  -1.0715300404758505e-08 -1.2907666499906080e-09 0.0000000000000000e+00  -1.0803939533406843e-08 3.2392657116348847e-11 0.0000000000000000e+00  -1.0717565606280039e-08 1.3486881732775894e-09 0.0000000000000000e+00  -1.0451597237634513e-08 2.6725803642347613e-09 0.0000000000000000e+00  -9.9898365632257152e-09 4.0098946867817261e-09 0.0000000000000000e+00  -9.3077703641637972e-09 5.3498464700170716e-09 0.0000000000000000e+00  -8.3789042232721667e-09 6.6586692327909696e-09 0.0000000000000000e+00  -7.1856159666068475e-09 7.8767955548727375e-09 0.0000000000000000e+00  -5.7389309894087137e-09 8.9224928375365268e-09 0.0000000000000000e+00  -4.1280554672148992e-09 9.7064785929579250e-09 0.0000000000000000e+00  -2.7164465433760115e-09 1.0171753596862096e-08 0.0000000000000000e+00  -2.8202727784047534e-09 1.0974840111469618e-08 0.0000000000000000e+00  -2.5251722376714551e-09 -7.6345637732526253e-09 0.0000000000000000e+00  -2.5670924265460258e-09 -8.4219367402644198e-09 0.0000000000000000e+00  -4.0643305829910734e-09 -8.0912309896632519e-09 0.0000000000000000e+00  -5.8094501336891503e-09 -7.4604351238137622e-09 0.0000000000000000e+00  -7.4278117855182495e-09 -6.6058980009835346e-09 0.0000000000000000e+00  -8.8105528209432751e-09 -5.5985541471417481e-09 0.0000000000000000e+00  -9.9256379107748838e-09 -4.5031006079007127e-09 0.0000000000000000e+00  -1.0771632102149689e-08 -3.3698194003853343e-09 0.0000000000000000e+00  -1.1360143719714199e-08 -2.2307253225782265e-09 0.0000000000000000e+00  -1.1705963325598781e-08 -1.1006738574688574e-09 0.0000000000000000e+00  -1.1820831614180278e-08 1.8283648347697780e-11 0.0000000000000000e+00  -1.1709941994029544e-08 1.1308855760034371e-09 0.0000000000000000e+00  -1.1370787948493634e-08 2.2420660573783992e-09 0.0000000000000000e+00  -1.0794160703931631e-08 3.3504920703193980e-09 0.0000000000000000e+00  -9.9673211596774869e-09 4.4428987732844862e-09 0.0000000000000000e+00  -8.8795871105078538e-09 5.4901532328063081e-09 0.0000000000000000e+00  -7.5310816917960270e-09 6.4463724738378198e-09 0.0000000000000000e+00  -5.9483759315777088e-09 7.2527144244755874e-09 0.0000000000000000e+00  -4.2271268122066136e-09 7.8488404757118631e-09 0.0000000000000000e+00  -2.7152898956833104e-09 8.2049809313060302e-09 0.0000000000000000e+00  -2.6330117639028228e-09 9.0323143504417074e-09 0.0000000000000000e+00  -2.4181834234472851e-09 -5.5654794951006137e-09 0.0000000000000000e+00  -2.6022171398684086e-09 -6.3771422267302485e-09 0.0000000000000000e+00  -4.1716957584267601e-09 -6.1437780229493161e-09 0.0000000000000000e+00  -5.9839019285507511e-09 -5.6847847323391490e-09 0.0000000000000000e+00  -7.6834653290297112e-09 -5.0571106170815244e-09 0.0000000000000000e+00  -9.1621716159953153e-09 -4.3087790660016524e-09 0.0000000000000000e+00  -1.0379630934836618e-08 -3.4844656340468011e-09 0.0000000000000000e+00  -1.1322423734162680e-08 -2.6207459516491240e-09 0.0000000000000000e+00  -1.1990143557020775e-08 -1.7429340720726138e-09 0.0000000000000000e+00  -1.2387814955284137e-08 -8.6511131203111311e-10 0.0000000000000000e+00  -1.2520857647597889e-08 7.4093810980404010e-12 0.0000000000000000e+00  -1.2392067803662972e-08 8.7416255321518455e-10 0.0000000000000000e+00  -1.2000564724251120e-08 1.7349915869620546e-09 0.0000000000000000e+00  -1.1342665849938126e-08 2.5855703560672787e-09 0.0000000000000000e+00  -1.0414637019284906e-08 3.4136256251089138e-09 0.0000000000000000e+00  -9.2172950758600876e-09 4.1965881459913046e-09 0.0000000000000000e+00  -7.7629026951476677e-09 4.9015117598681287e-09 0.0000000000000000e+00  -6.0879125449333516e-09 5.4881579184033624e-09 0.0000000000000000e+00  -4.2913312748033108e-09 5.9176072046821286e-09 0.0000000000000000e+00  -2.7097004046217058e-09 6.1787950268742985e-09 0.0000000000000000e+00  -2.4938930966700005e-09 7.0214186275744693e-09 0.0000000000000000e+00  -2.3474672261427689e-09 -3.4682759731557685e-09 0.0000000000000000e+00  -2.6301384724469750e-09 -4.2978410176713097e-09 0.0000000000000000e+00  -4.2484705341840913e-09 -4.1519296464672428e-09 0.0000000000000000e+00  -6.1034292654081113e-09 -3.8494023166297361e-09 0.0000000000000000e+00  -7.8536290176134707e-09 -3.4332447195607058e-09 0.0000000000000000e+00  -9.3922783712085743e-09 -2.9340597089966517e-09 0.0000000000000000e+00  -1.0674279186949518e-08 -2.3801364656048637e