<?xml version="1.0"?>
<VTKFile type="UnstructuredGrid"  version="0.1"  >
<UnstructuredGrid>
<Piece  NumberOfPoints="651" NumberOfCells="1200">
<Points>
<DataArray  type="Float64"  NumberOfComponents="3"  format="ascii">0 0 0  50000 0 0  100000 0 0  150000 0 0  200000 0 0  250000 0 0  300000 0 0  350000 0 0  400000 0 0  450000 0 0  500000 0 0  550000 0 0  600000 0 0  650000 0 0  700000 0 0  750000 0 0  800000 0 0  850000 0 0  900000 0 0  950000 0 0  1000000 0 0  0 50000 0  50000 50000 0  100000 50000 0  150000 50000 0  200000 50000 0  250000 50000 0  300000 50000 0  350000 50000 0  400000 50000 0  450000 50000 0  500000 50000 0  550000 50000 0  600000 50000 0  650000 50000 0  700000 50000 0  750000 50000 0  800000 50000 0  850000 50000 0  900000 50000 0  950000 50000 0  1000000 50000 0  0 100000 0  50000 100000 0  100000 100000 0  150000 100000 0  200000 100000 0  250000 100000 0  300000 100000 0  350000 100000 0  400000 100000 0  450000 100000 0  500000 100000 0  550000 100000 0  600000 100000 0  650000 100000 0  700000 100000 0  750000 100000 0  800000 100000 0  850000 100000 0  900000 100000 0  950000 100000 0  1000000 100000 0  0 150000 0  50000 150000 0  100000 150000 0  150000 150000 0  200000 150000 0  250000 150000 0  300000 150000 0  350000 150000 0  400000 150000 0  450000 150000 0  500000 150000 0  550000 150000 0  600000 150000 0  650000 150000 0  700000 150000 0  750000 150000 0  800000 150000 0  850000 150000 0  900000 150000 0  950000 150000 0  1000000 150000 0  0 200000 0  50000 200000 0  100000 200000 0  150000 200000 0  200000 200000 0  250000 200000 0  300000 200000 0  350000 200000 0  400000 200000 0  450000 200000 0  500000 200000 0  550000 200000 0  600000 200000 0  650000 200000 0  700000 200000 0  750000 200000 0  800000 200000 0  850000 200000 0  900000 200000 0  950000 200000 0  1000000 200000 0  0 250000 0  50000 250000 0  100000 250000 0  150000 250000 0  200000 250000 0  250000 250000 0  300000 250000 0  350000 250000 0  400000 250000 0  450000 250000 0  500000 250000 0  550000 250000 0  600000 250000 0  650000 250000 0  700000 250000 0  750000 250000 0  800000 250000 0  850000 250000 0  900000 250000 0  950000 250000 0  1000000 250000 0  0 300000 0  50000 300000 0  100000 300000 0  150000 300000 0  200000 300000 0  250000 300000 0  300000 300000 0  350000 300000 0  400000 300000 0  450000 300000 0  500000 300000 0  550000 300000 0  600000 300000 0  650000 300000 0  700000 300000 0  750000 300000 0  800000 300000 0  850000 300000 0  900000 300000 0  950000 300000 0  1000000 300000 0  0 350000 0  50000 350000 0  100000 350000 0  150000 350000 0  200000 350000 0  250000 350000 0  300000 350000 0  350000 350000 0  400000 350000 0  450000 350000 0  500000 350000 0  550000 350000 0  600000 350000 0  650000 350000 0  700000 350000 0  750000 350000 0  800000 350000 0  850000 350000 0  900000 350000 0  950000 350000 0  1000000 350000 0  0 400000 0  50000 400000 0  100000 400000 0  150000 400000 0  200000 400000 0  250000 400000 0  300000 400000 0  350000 400000 0  400000 400000 0  450000 400000 0  500000 400000 0  550000 400000 0  600000 400000 0  650000 400000 0  700000 400000 0  750000 400000 0  800000 400000 0  850000 400000 0  900000 400000 0  950000 400000 0  1000000 400000 0  0 450000 0  50000 450000 0  100000 450000 0  150000 450000 0  200000 450000 0  250000 450000 0  300000 450000 0  350000 450000 0  400000 450000 0  450000 450000 0  500000 450000 0  550000 450000 0  600000 450000 0  650000 450000 0  700000 450000 0  750000 450000 0  800000 450000 0  850000 450000 0  900000 450000 0  950000 450000 0  1000000 450000 0  0 500000 0  50000 500000 0  100000 500000 0  150000 500000 0  200000 500000 0  250000 500000 0  300000 500000 0  350000 500000 0  400000 500000 0  450000 500000 0  500000 500000 0  550000 500000 0  600000 500000 0  650000 500000 0  700000 500000 0  750000 500000 0  800000 500000 0  850000 500000 0  900000 500000 0  950000 500000 0  1000000 500000 0  0 550000 0  50000 550000 0  100000 550000 0  150000 550000 0  200000 550000 0  250000 550000 0  300000 550000 0  350000 550000 0  400000 550000 0  450000 550000 0  500000 550000 0  550000 550000 0  600000 550000 0  650000 550000 0  700000 550000 0  750000 550000 0  800000 550000 0  850000 550000 0  900000 550000 0  950000 550000 0  1000000 550000 0  0 600000 0  50000 600000 0  100000 600000 0  150000 600000 0  200000 600000 0  250000 600000 0  300000 600000 0  350000 600000 0  400000 600000 0  450000 600000 0  500000 600000 0  550000 600000 0  600000 600000 0  650000 600000 0  700000 600000 0  750000 600000 0  800000 600000 0  850000 600000 0  900000 600000 0  950000 600000 0  1000000 600000 0  0 650000 0  50000 650000 0  100000 650000 0  150000 650000 0  200000 650000 0  250000 650000 0  300000 650000 0  350000 650000 0  400000 650000 0  450000 650000 0  500000 650000 0  550000 650000 0  600000 650000 0  650000 650000 0  700000 650000 0  750000 650000 0  800000 650000 0  850000 650000 0  900000 650000 0  950000 650000 0  1000000 650000 0  0 700000 0  50000 700000 0  100000 700000 0  150000 700000 0  200000 700000 0  250000 700000 0  300000 700000 0  350000 700000 0  400000 700000 0  450000 700000 0  500000 700000 0  550000 700000 0  600000 700000 0  650000 700000 0  700000 700000 0  750000 700000 0  800000 700000 0  850000 700000 0  900000 700000 0  950000 700000 0  1000000 700000 0  0 750000 0  50000 750000 0  100000 750000 0  150000 750000 0  200000 750000 0  250000 750000 0  300000 750000 0  350000 750000 0  400000 750000 0  450000 750000 0  500000 750000 0  550000 750000 0  600000 750000 0  650000 750000 0  700000 750000 0  750000 750000 0  800000 750000 0  850000 750000 0  900000 750000 0  950000 750000 0  1000000 750000 0  0 800000 0  50000 800000 0  100000 800000 0  150000 800000 0  200000 800000 0  250000 800000 0  300000 800000 0  350000 800000 0  400000 800000 0  450000 800000 0  500000 800000 0  550000 800000 0  600000 800000 0  650000 800000 0  700000 800000 0  750000 800000 0  800000 800000 0  850000 800000 0  900000 800000 0  950000 800000 0  1000000 800000 0  0 850000 0  50000 850000 0  100000 850000 0  150000 850000 0  200000 850000 0  250000 850000 0  300000 850000 0  350000 850000 0  400000 850000 0  450000 850000 0  500000 850000 0  550000 850000 0  600000 850000 0  650000 850000 0  700000 850000 0  750000 850000 0  800000 850000 0  850000 850000 0  900000 850000 0  950000 850000 0  1000000 850000 0  0 900000 0  50000 900000 0  100000 900000 0  150000 900000 0  200000 900000 0  250000 900000 0  300000 900000 0  350000 900000 0  400000 900000 0  450000 900000 0  500000 900000 0  550000 900000 0  600000 900000 0  650000 900000 0  700000 900000 0  750000 900000 0  800000 900000 0  850000 900000 0  900000 900000 0  950000 900000 0  1000000 900000 0  0 950000 0  50000 950000 0  100000 950000 0  150000 950000 0  200000 950000 0  250000 950000 0  300000 950000 0  350000 950000 0  400000 950000 0  450000 950000 0  500000 950000 0  550000 950000 0  600000 950000 0  650000 950000 0  700000 950000 0  750000 950000 0  800000 950000 0  850000 950000 0  900000 950000 0  950000 950000 0  1000000 950000 0  0 1000000 0  50000 1000000 0  100000 1000000 0  150000 1000000 0  200000 1000000 0  250000 1000000 0  300000 1000000 0  350000 1000000 0  400000 1000000 0  450000 1000000 0  500000 1000000 0  550000 1000000 0  600000 1000000 0  650000 1000000 0  700000 1000000 0  750000 1000000 0  800000 1000000 0  850000 1000000 0  900000 1000000 0  950000 1000000 0  1000000 1000000 0  0 1050000 0  50000 1050000 0  100000 1050000 0  150000 1050000 0  200000 1050000 0  250000 1050000 0  300000 1050000 0  350000 1050000 0  400000 1050000 0  450000 1050000 0  500000 1050000 0  550000 1050000 0  600000 1050000 0  650000 1050000 0  700000 1050000 0  750000 1050000 0  800000 1050000 0  850000 1050000 0  900000 1050000 0  950000 1050000 0  1000000 1050000 0  0 1100000 0  50000 1100000 0  100000 1100000 0  150000 1100000 0  200000 1100000 0  250000 1100000 0  300000 1100000 0  350000 1100000 0  400000 1100000 0  450000 1100000 0  500000 1100000 0  550000 1100000 0  600000 1100000 0  650000 1100000 0  700000 1100000 0  750000 1100000 0  800000 1100000 0  850000 1100000 0  900000 1100000 0  950000 1100000 0  1000000 1100000 0  0 1150000 0  50000 1150000 0  100000 1150000 0  150000 1150000 0  200000 1150000 0  250000 1150000 0  300000 1150000 0  350000 1150000 0  400000 1150000 0  450000 1150000 0  500000 1150000 0  550000 1150000 0  600000 1150000 0  650000 1150000 0  700000 1150000 0  750000 1150000 0  800000 1150000 0  850000 1150000 0  900000 1150000 0  950000 1150000 0  1000000 1150000 0  0 1200000 0  50000 1200000 0  100000 1200000 0  150000 1200000 0  200000 1200000 0  250000 1200000 0  300000 1200000 0  350000 1200000 0  400000 1200000 0  450000 1200000 0  500000 1200000 0  550000 1200000 0  600000 1200000 0  650000 1200000 0  700000 1200000 0  750000 1200000 0  800000 1200000 0  850000 1200000 0  900000 1200000 0  950000 1200000 0  1000000 1200000 0  0 1250000 0  50000 1250000 0  100000 1250000 0  150000 1250000 0  200000 1250000 0  250000 1250000 0  300000 1250000 0  350000 1250000 0  400000 1250000 0  450000 1250000 0  500000 1250000 0  550000 1250000 0  600000 1250000 0  650000 1250000 0  700000 1250000 0  750000 1250000 0  800000 1250000 0  850000 1250000 0  900000 1250000 0  950000 1250000 0  1000000 1250000 0  0 1300000 0  50000 1300000 0  100000 1300000 0  150000 1300000 0  200000 1300000 0  250000 1300000 0  300000 1300000 0  350000 1300000 0  400000 1300000 0  450000 1300000 0  500000 1300000 0  550000 1300000 0  600000 1300000 0  650000 1300000 0  700000 1300000 0  750000 1300000 0  800000 1300000 0  850000 1300000 0  900000 1300000 0  950000 1300000 0  1000000 1300000 0  0 1350000 0  50000 1350000 0  100000 1350000 0  150000 1350000 0  200000 1350000 0  250000 1350000 0  300000 1350000 0  350000 1350000 0  400000 1350000 0  450000 1350000 0  500000 1350000 0  550000 1350000 0  600000 1350000 0  650000 1350000 0  700000 135
[...]
<PointData  Vectors="f_1513"> 
<DataArray  type="Float64"  Name="f_1513"  NumberOfComponents="3" format="ascii">-2.4406431435285476e-08 -1.0342949837143499e-08 0.0000000000000000e+00  4.8655798702275094e-08 -6.4282836519126632e-09 0.0000000000000000e+00  4.2936458571891932e-08 -2.1344197141156751e-09 0.0000000000000000e+00  4.0490700994390963e-08 -7.7584334200386279e-10 0.0000000000000000e+00  3.9293834306475566e-08 -3.0847389463480845e-10 0.0000000000000000e+00  3.8513426301824440e-08 -1.1420612610505063e-10 0.0000000000000000e+00  3.7952892882065708e-08 -2.5691358442404787e-11 0.0000000000000000e+00  3.7555559297114737e-08 1.4450118180521901e-11 0.0000000000000000e+00  3.7303699493988464e-08 3.0748921811870993e-11 0.0000000000000000e+00  3.7192833034539063e-08 3.6364532716171989e-11 0.0000000000000000e+00  3.7223987034014820e-08 4.0431222375185562e-11 0.0000000000000000e+00  3.7401932089943435e-08 5.1384573438066068e-11 0.0000000000000000e+00  3.7736769699274870e-08 7.9482823010222208e-11 0.0000000000000000e+00  3.8249970850946993e-08 1.4034816263050278e-10 0.0000000000000000e+00  3.8990440935389874e-08 2.6227555121963979e-10 0.0000000000000000e+00  4.0077034348150387e-08 5.0434069176737592e-10 0.0000000000000000e+00  4.1810897853667750e-08 1.0050427021256101e-09 0.0000000000000000e+00  4.4938847720544998e-08 2.1089414612464795e-09 0.0000000000000000e+00  5.0790507212654510e-08 4.6334815791712842e-09 0.0000000000000000e+00  5.8036361631262279e-08 9.1461110321012801e-09 0.0000000000000000e+00  -1.6417326698208566e-08 7.0400808665781336e-09 0.0000000000000000e+00  -1.8170141008997133e-08 -1.5896832990825432e-08 0.0000000000000000e+00  7.2424135355498345e-09 -1.1303522555069817e-08 0.0000000000000000e+00  1.8135443458350272e-08 -5.2562107983874141e-09 0.0000000000000000e+00  2.3203691502301603e-08 -2.4014633317506056e-09 0.0000000000000000e+00  2.5798119372534281e-08 -1.1467749856025936e-09 0.0000000000000000e+00  2.7265673673605968e-08 -5.5555342550192871e-10 0.0000000000000000e+00  2.8119272543633395e-08 -2.5951322295548121e-10 0.0000000000000000e+00  2.8618846701353739e-08 -1.0842476033657247e-10 0.0000000000000000e+00  2.8907894174271307e-08 -3.3277260851776559e-11 0.0000000000000000e+00  2.9066515056570693e-08 3.2556443382729697e-12 0.0000000000000000e+00  2.9136536242410403e-08 2.5715041959955686e-11 0.0000000000000000e+00  2.9133028403003284e-08 5.4563427318445302e-11 0.0000000000000000e+00  2.9048295497868683e-08 1.1195474289563892e-10 0.0000000000000000e+00  2.8850341110378263e-08 2.2834739448932143e-10 0.0000000000000000e+00  2.8474802794687027e-08 4.5429703546234723e-10 0.0000000000000000e+00  2.7804312162680895e-08 8.8636726554582033e-10 0.0000000000000000e+00  2.6613240573669774e-08 1.7280117571274518e-09 0.0000000000000000e+00  2.4390317166604880e-08 3.4253668386202554e-09 0.0000000000000000e+00  1.9691434656603480e-08 6.8688435896608254e-09 0.0000000000000000e+00  8.2701144462066852e-09 1.3022299693839088e-08 0.0000000000000000e+00  -1.8385986103232384e-08 1.0970783624981619e-08 0.0000000000000000e+00  -1.1195222296802510e-08 -1.9496511886341532e-08 0.0000000000000000e+00  -2.6524192464791621e-10 -1.8468754308543592e-08 0.0000000000000000e+00  5.8438917820341643e-09 -1.1352730835227464e-08 0.0000000000000000e+00  1.0724156192419383e-08 -6.5764669278409187e-09 0.0000000000000000e+00  1.4537115119205910e-08 -3.8131030020018711e-09 0.0000000000000000e+00  1.7183325946414962e-08 -2.2407876882023354e-09 0.0000000000000000e+00  1.8952632397683351e-08 -1.3201221908112007e-09 0.0000000000000000e+00  2.0110748646974432e-08 -7.6032709158425990e-10 0.0000000000000000e+00  2.0837022344869157e-08 -4.0250522585033647e-10 0.0000000000000000e+00  2.1241907494853247e-08 -1.5236994187169585e-10 0.0000000000000000e+00  2.1385397517847211e-08 5.4311765104431031e-11 0.0000000000000000e+00  2.1288054595222154e-08 2.7061091451846596e-10 0.0000000000000000e+00  2.0935006791691689e-08 5.5158064513769936e-10 0.0000000000000000e+00  2.0273561423505637e-08 9.6788774623025129e-10 0.0000000000000000e+00  1.9203843619676864e-08 1.6258663597895677e-09 0.0000000000000000e+00  1.7560550822523112e-08 2.7017079913318399e-09 0.0000000000000000e+00  1.5084464116957155e-08 4.4962236853980234e-09 0.0000000000000000e+00  1.1393944693235606e-08 7.4833685657481366e-09 0.0000000000000000e+00  6.0234191035212177e-09 1.2129707853454841e-08 0.0000000000000000e+00  -1.2874265402630079e-09 1.7582921709583939e-08 0.0000000000000000e+00  -1.3219840829520193e-08 1.4714231952775876e-08 0.0000000000000000e+00  -7.4984703719988491e-09 -2.0115834626197051e-08 0.0000000000000000e+00  -1.5547119911447986e-09 -1.9897975133835553e-08 0.0000000000000000e+00  1.1305615739031469e-09 -1.5317960389502035e-08 0.0000000000000000e+00  3.9007692576581578e-09 -1.0448237149603627e-08 0.0000000000000000e+00  6.7926715830199776e-09 -6.8718233105099701e-09 0.0000000000000000e+00  9.3090554518842474e-09 -4.4603335789977763e-09 0.0000000000000000e+00  1.1250293192307987e-08 -2.8578856507054633e-09 0.0000000000000000e+00  1.2639915262515322e-08 -1.7737402282008095e-09 0.0000000000000000e+00  1.3561882970154056e-08 -1.0075649459742051e-09 0.0000000000000000e+00  1.4090705409558005e-08 -4.2145223463661625e-10 0.0000000000000000e+00  1.4273628673894853e-08 8.7267788006937256e-11 0.0000000000000000e+00  1.4127929472811715e-08 6.0621278268653208e-10 0.0000000000000000e+00  1.3641105044382187e-08 1.2239663769806111e-09 0.0000000000000000e+00  1.2771104286163881e-08 2.0455699409916176e-09 0.0000000000000000e+00  1.1447832332340473e-08 3.2100709455975547e-09 0.0000000000000000e+00  9.5821315454471904e-09 4.9085219871701517e-09 0.0000000000000000e+00  7.0990907546345395e-09 7.3846214891766524e-09 0.0000000000000000e+00  4.0298015976595263e-09 1.0847519293195453e-08 0.0000000000000000e+00  6.6774738523789676e-10 1.5105491379771692e-08 0.0000000000000000e+00  -2.6232312561428594e-09 1.8746356234790706e-08 0.0000000000000000e+00  -8.9187270275864860e-09 1.7552207657746564e-08 0.0000000000000000e+00  -5.6311649546736728e-09 -1.9519542348237319e-08 0.0000000000000000e+00  -1.8914703201769452e-09 -1.9634764958798760e-08 0.0000000000000000e+00  -9.1861248436468062e-10 -1.6726257647168628e-08 0.0000000000000000e+00  2.1557397261113446e-10 -1.2818705367903036e-08 0.0000000000000000e+00  1.8501787943749373e-09 -9.2695753898973271e-09 0.0000000000000000e+00  3.6194788810450037e-09 -6.4850508811071894e-09 0.0000000000000000e+00  5.2007444090806226e-09 -4.4096856577327997e-09 0.0000000000000000e+00  6.4493313330447117e-09 -2.8702849335184963e-09 0.0000000000000000e+00  7.3313009395868156e-09 -1.6960097993095606e-09 0.0000000000000000e+00  7.8558880195561958e-09 -7.4323022689284763e-10 0.0000000000000000e+00  8.0390090438732987e-09 1.0862362481950225e-10 0.0000000000000000e+00  7.8882622929636842e-09 9.6797913255895959e-10 0.0000000000000000e+00  7.3987935420361542e-09 1.9425871633132833e-09 0.0000000000000000e+00  6.5559259012358563e-09 3.1498207398426047e-09 0.0000000000000000e+00  5.3457964902167695e-09 4.7232643223246330e-09 0.0000000000000000e+00  3.7800460789896650e-09 6.8070322795015757e-09 0.0000000000000000e+00  1.9439207771618207e-09 9.5144647958734947e-09 0.0000000000000000e+00  6.4818648214055974e-11 1.2803451117369225e-08 0.0000000000000000e+00  -1.4921221414291022e-09 1.6222423428632583e-08 0.0000000000000000e+00  -2.7356141517102057e-09 1.8690723753650622e-08 0.0000000000000000e+00  -6.6323208603288405e-09 1.8534410619774141e-08 0.0000000000000000e+00  -4.5701011990295936e-09 -1.8382779008219246e-08 0.0000000000000000e+00  -2.0638903118981098e-09 -1.8706481780812421e-08 0.0000000000000000e+00  -1.9959245541348274e-09 -1.6744834115307252e-08 0.0000000000000000e+00  -1.9107543304574676e-09 -1.3779869808553451e-08 0.0000000000000000e+00  -1.3147286287080623e-09 -1.0670970279822858e-08 0.0000000000000000e+00  -3.7724043065111655e-10 -7.9119746269825441e-09 0.0000000000000000e+00  6.3482318361382511e-10 -5.6382188718697373e-09 0.0000000000000000e+00  1.5319343328812582e-09 -3.8082434995910898e-09 0.0000000000000000e+00  2.2140221246858707e-09 -2.3173551613649935e-09 0.0000000000000000e+00  2.6381787720294142e-09 -1.0479780178496582e-09 0.0000000000000000e+00  2.7896896303879067e-09 1.1445352344175028e-10 0.0000000000000000e+00  2.6655166107390281e-09 1.2798711419707778e-09 0.0000000000000000e+00  2.2685429554204118e-09 2.5563627972038405e-09 0.0000000000000000e+00  1.6106470576031961e-09 4.0519568320065833e-09 0.0000000000000000e+00  7.2476102479808522e-10 5.8699391350717443e-09 0.0000000000000000e+00  -3.1289143888497340e-10 8.0886696940447126e-09 0.0000000000000000e+00  -1.3534688753488528e-09 1.0711399335790526e-08 0.0000000000000000e+00  -2.1636123889283133e-09 1.3573140014006279e-08 0.0000000000000000e+00  -2.5237672744769127e-09 1.6229781615915729e-08 0.0000000000000000e+00  -2.7141780387760223e-09 1.7986359278153578e-08 0.0000000000000000e+00  -5.2934119657970574e-09 1.8286760137213312e-08 0.0000000000000000e+00  -3.8923267812436409e-09 -1.6947180501569766e-08 0.0000000000000000e+00  -2.1953072841910415e-09 -1.7415029951505617e-08 0.0000000000000000e+00  -2.6671024501587483e-09 -1.6022666147840902e-08 0.0000000000000000e+00  -3.2451245244001665e-09 -1.3766952237888849e-08 0.0000000000000000e+00  -3.4052685901096476e-09 -1.1175976200398709e-08 0.0000000000000000e+00  -3.1799310839888958e-09 -8.6540307838710526e-09 0.0000000000000000e+00  -2.7438760526812384e-09 -6.3980150243518641e-09 0.0000000000000000e+00  -2.2630230892923894e-09 -4.4512127371850744e-09 0.0000000000000000e+00  -1.8525749352592199e-09 -2.7728223885910927e-09 0.0000000000000000e+00  -1.5799459839576123e-09 -1.2842012122121936e-09 0.0000000000000000e+00  -1.4785544859651188e-09 1.0721172361392370e-10 0.0000000000000000e+00  -1.5588843932799862e-09 1.4971737517884905e-09 0.0000000000000000e+00  -1.8131213449753357e-09 2.9793375066347018e-09 0.0000000000000000e+00  -2.2130626517282518e-09 4.6395286358651757e-09 0.0000000000000000e+00  -2.7019670102923555e-09 6.5441960975790651e-09 0.0000000000000000e+00  -3.1827844778511363e-09 8.7171074540307038e-09 0.0000000000000000e+00  -3.5111565503252224e-09 1.1099628996550135e-08 0.0000000000000000e+00  -3.5171402782650235e-09 1.3499739987862249e-08 0.0000000000000000e+00  -3.1175345001464204e-09 1.5564014546572504e-08 0.0000000000000000e+00  -2.6993454964339929e-09 1.6863607124527907e-08 0.0000000000000000e+00  -4.4272978301614457e-09 1.7380446683438215e-08 0.0000000000000000e+00  -3.4221754040566691e-09 -1.5312596493272360e-08 0.0000000000000000e+00  -2.3037367890348524e-09 -1.5884467404360256e-08 0.0000000000000000e+00  -3.1334803929933513e-09 -1.4859327830803294e-08 0.0000000000000000e+00  -4.1441460387363453e-09 -1.3118885646782880e-08 0.0000000000000000e+00  -4.8349706213346611e-09 -1.0996578253740140e-08 0.0000000000000000e+00  -5.1616460610475520e-09 -8.7885655226634425e-09 0.0000000000000000e+00  -5.2207341492701443e-09 -6.6827966631931965e-09 0.0000000000000000e+00  -5.1334525737285112e-09 -4.7591558476733228e-09 0.0000000000000000e+00  -5.0008604404386191e-09 -3.0207740756802884e-09 0.0000000000000000e+00  -4.8922142782336038e-09 -1.4255063543939103e-09 0.0000000000000000e+00  -4.8467102318981786e-09 9.1621685669813972e-11 0.0000000000000000e+00  -4.8779468759203649e-09 1.6040584332947650e-09 0.0000000000000000e+00  -4.9764216454574605e-09 3.1835568894053917e-09 0.0000000000000000e+00  -5.1087862824678773e-09 4.8900806905595162e-09 0.0000000000000000e+00  -5.2147447210558870e-09 6.7580916136526585e-09 0.0000000000000000e+00  -5.2049688382274416e-09 8.7766184796928654e-09 0.0000000000000000e+00  -4.9678090046899343e-09 1.0863926999419953e-08 0.0000000000000000e+00  -4.4011356228496520e-09 1.2846018658395534e-08 0.0000000000000000e+00  -3.5082457838229434e-09 1.4463176571844943e-08 0.0000000000000000e+00  -2.6985475576047892e-09 1.5452475647455111e-08 0.0000000000000000e+00  -3.8258973222092512e-09 1.6089303494101185e-08 0.0000000000000000e+00  -3.0788684010730903e-09 -1.3532769282974160e-08 0.0000000000000000e+00  -2.3927295515772197e-09 -1.4181732490558694e-08 0.0000000000000000e+00  -3.4760801689419611e-09 -1.3408921779502839e-08 0.0000000000000000e+00  -4.7793181957885090e-09 -1.2050247838591377e-08 0.0000000000000000e+00  -5.8397231970527083e-09 -1.0324330325433780e-08 0.0000000000000000e+00  -6.5748840616680786e-09 -8.4408126777822521e-09 0.0000000000000000e+00  -7.0261080334841612e-09 -6.5550098840651311e-09 0.0000000000000000e+00  -7.2711038692188891e-09 -4.7531537439462074e-09 0.0000000000000000e+00  -7.3858942617920156e-09 -3.0619860640815266e-09 0.0000000000000000e+00  -7.4289055979182606e-09 -1.4666385038746020e-09 0.0000000000000000e+00  -7.4361404036434986e-09 7.2262118665365446e-11 0.0000000000000000e+00  -7.4208794328842910e-09 1.6046786574934141e-09 0.0000000000000000e+00  -7.3743093315440584e-09 3.1795267067198671e-09 0.0000000000000000e+00  -7.2658217086039718e-09 4.8333335501358659e-09 0.0000000000000000e+00  -7.0436900716327679e-09 6.5774280687456844e-09 0.0000000000000000e+00  -6.6388233218838868e-09 8.3832556121330456e-09 0.0000000000000000e+00  -5.9768168818645828e-09 1.0168414913180000e-08 0.0000000000000000e+00  -5.0081843059511279e-09 1.1791009495762054e-08 0.0000000000000000e+00  -3.7842155253704171e-09 1.3066465687170045e-08 0.0000000000000000e+00  -2.7043158706743011e-09 1.3834285007796445e-08 0.0000000000000000e+00  -3.3879988258409006e-09 1.4547008607677727e-08 0.0000000000000000e+00  -2.8211833826158401e-09 -1.1643743776560402e-08 0.0000000000000000e+00  -2.4644189046595151e-09 -1.2350699049545747e-08 0.0000000000000000e+00  -3.7334380288459594e-09 -1.1761847826202551e-08 0.0000000000000000e+00  -5.2395342142555030e-09 -1.0696561094413560e-08 0.0000000000000000e+00  -6.5571764308669894e-09 -9.3039245411473113e-09 0.0000000000000000e+00  -7.5868613987867933e-09 -7.7308964556206980e-09 0.0000000000000000e+00  -8.3337735963032911e-09 -6.0977217153751791e-09 0.0000000000000000e+00  -8.8405866107546517e-09 -4.4824865424928335e-09 0.0000000000000000e+00  -9.1577008821486837e-09 -2.9210491536935357e-09 0.0000000000000000e+00  -9.3281125256119804e-09 -1.4158356741283053e-09 0.0000000000000000e+00  -9.3802195561527414e-09 5.2554906393196456e-11 0.0000000000000000e+00  -9.3250425295318346e-09 1.5138471536242284e-09 0.0000000000000000e+00  -9.1556991416301948e-09 2.9973055026148355e-09 0.0000000000000000e+00  -8.8482702669900980e-09 4.5212571620543323e-09 0.0000000000000000e+00  -8.3644756004379912e-09 6.0825626228809673e-09 0.0000000000000000e+00  -7.6577891215376792e-09 7.6466865848391375e-09 0.0000000000000000e+00  -6.6859281119169906e-09 9.1409249420660432e-09 0.0000000000000000e+00  -5.4358594617036003e-09 1.0455751581412846e-08 0.0000000000000000e+00  -3.9839529887472726e-09 1.1462145370998967e-08 0.0000000000000000e+00  -2.7105003654152149e-09 1.2063856434592386e-08 0.0000000000000000e+00  -3.0594431786751272e-09 1.2828271934052142e-08 0.0000000000000000e+00  -2.6262959065178179e-09 -9.6728350566823450e-09 0.0000000000000000e+00  -2.5211919371576242e-09 -1.0423689517210202e-08 0.0000000000000000e+00  -3.9274532483478795e-09 -9.9768278441595750e-09 0.0000000000000000e+00  -5.5756340668975039e-09 -9.1469532920627181e-09 0.0000000000000000e+00  -7.0717245664013490e-09 -8.0396754240311704e-09 0.0000000000000000e+00  -8.3096395739837740e-09 -6.7576794158560163e-09 0.0000000000000000e+00  -9.2718038987629586e-09 -5.3906609617540044e-09 0.0000000000000000e+00  -9.9750746170045295e-09 -4.0032841619717783e-09 0.0000000000000000e+00  -1.0448040596416973e-08 -2.6318130481607213e-09 0.0000000000000000e+00  -1.0718448786156073e-08 -1.2877921813914594e-09 0.0000000000000000e+00  -1.0806002295857544e-08 3.4634552185253275e-11 0.0000000000000000e+00  -1.0718769148126934e-08 1.3500978513175077e-09 0.0000000000000000e+00  -1.0452145446134268e-08 2.6731816962842528e-09 0.0000000000000000e+00  -9.9899037849134047e-09 4.0098292015239588e-09 0.0000000000000000e+00  -9.3075035307790120e-09 5.3493746019876852e-09 0.0000000000000000e+00  -8.3784317726536928e-09 6.6581792371958778e-09 0.0000000000000000e+00  -7.1850602759633321e-09 7.8768216599565615e-09 0.0000000000000000e+00  -5.7384080507740550e-09 8.9237566433872522e-09 0.0000000000000000e+00  -4.1275589938680057e-09 9.7100266308163035e-09 0.0000000000000000e+00  -2.7136910601034978e-09 1.0180656735220815e-08 0.0000000000000000e+00  -2.8091054531191341e-09 1.0981015611661476e-08 0.0000000000000000e+00  -2.4808683322569707e-09 -7.6418692394517138e-09 0.0000000000000000e+00  -2.5656937549926500e-09 -8.4259386608982203e-09 0.0000000000000000e+00  -4.0725725957213939e-09 -8.0948134026433573e-09 0.0000000000000000e+00  -5.8196890343133670e-09 -7.4624754440587929e-09 0.0000000000000000e+00  -7.4380813088903358e-09 -6.6063504463458674e-09 0.0000000000000000e+00  -8.8200227789150863e-09 -5.5977071305320909e-09 0.0000000000000000e+00  -9.9339086767318168e-09 -4.5013837389484352e-09 0.0000000000000000e+00  -1.0778564940841522e-08 -3.3676845409729762e-09 0.0000000000000000e+00  -1.1365770678532910e-08 -2.2285753749562917e-09 0.0000000000000000e+00  -1.1710418264388357e-08 -1.0988257677125629e-09 0.0000000000000000e+00  -1.1824297328164348e-08 1.9614416179895405e-11 0.0000000000000000e+00  -1.1712612538259647e-08 1.1315898848219647e-09 0.0000000000000000e+00  -1.1372844247392819e-08 2.2421431148024227e-09 0.0000000000000000e+00  -1.0795757112067162e-08 3.3500536509677037e-09 0.0000000000000000e+00  -9.9685809553054002e-09 4.4421784711969110e-09 0.0000000000000000e+00  -8.8806052313928940e-09 5.4895222415038267e-09 0.0000000000000000e+00  -7.5319312038771217e-09 6.4463642428930219e-09 0.0000000000000000e+00  -5.9490969066499253e-09 7.2540729345482910e-09 0.0000000000000000e+00  -4.2275568297491694e-09 7.8526667873135927e-09 0.0000000000000000e+00  -2.7125562329014592e-09 8.2144652394133275e-09 0.0000000000000000e+00  -2.6182677013068800e-09 9.0392688469081110e-09 0.0000000000000000e+00  -2.3768908033856654e-09 -5.5686707680197196e-09 0.0000000000000000e+00  -2.6005820949885436e-09 -6.3776695438648475e-09 0.0000000000000000e+00  -4.1792294962865630e-09 -6.1457609902160374e-09 0.0000000000000000e+00  -5.9934363642325230e-09 -5.6864156383846609e-09 0.0000000000000000e+00  -7.6932652801468116e-09 -5.0579707012292717e-09 0.0000000000000000e+00  -9.1714911116315897e-09 -4.3088395775320905e-09 0.0000000000000000e+00  -1.0388081736602810e-08 -3.4838989989380656e-09 0.0000000000000000e+00  -1.1329839354919012e-08 -2.6198130778455299e-09 0.0000000000000000e+00  -1.1996512090982303e-08 -1.7419106010283100e-09 0.0000000000000000e+00  -1.2393224768516685e-08 -8.6424133095157900e-10 0.0000000000000000e+00  -1.2525451755860337e-08 7.9408401813571237e-12 0.0000000000000000e+00  -1.2396007693538808e-08 8.7424621746562228e-10 0.0000000000000000e+00  -1.2004003579743987e-08 1.7346064549185325e-09 0.0000000000000000e+00  -1.1345730468514690e-08 2.5847969015856033e-09 0.0000000000000000e+00  -1.0417417615070887e-08 3.4126629582807734e-09 0.0000000000000000e+00  -9.2198420845770174e-09 4.1957772836646099e-09 0.0000000000000000e+00  -7.7652269601717481e-09 4.9013680032608893e-09 0.0000000000000000e+00  -6.0899622390823357e-09 5.4894275186411820e-09 0.0000000000000000e+00  -4.2927643542029544e-09 5.9214232946770008e-09 0.0000000000000000e+00  -2.7070279526782157e-09 6.1884139762686161e-09 0.0000000000000000e+00  -2.4753785580619543e-09 7.0287153057792850e-09 0.0000000000000000e+00  -2.3095662003434772e-09 -3.4680374892925841e-09 0.0000000000000000e+00  -2.6282746071660190e-09 -4.2953517263747707e-09 0.0000000000000000e+00  -4.2551417541073368e-09 -4.1523982737808372e-09 0.0000000000000000e+00  -6.1120074612031641e-09 -3.8504901502587020e-09 0.0000000000000000e+00  -7.8626234437868650e-09 -3.4342557967582606e-09 0.0000000000000000e+00  -9.4010505759837180e-09 -2.9347209394288240e-09 0.0000000000000000e+00  -1.0682482476393975e-08 -2.3804118439567390