<?xml version="1.0"?>
<VTKFile type="UnstructuredGrid"  version="0.1"  >
<UnstructuredGrid>
<Piece  NumberOfPoints="651" NumberOfCells="1200">
<Points>
<DataArray  type="Float64"  NumberOfComponents="3"  format="ascii">0 0 0  50000 0 0  100000 0 0  150000 0 0  200000 0 0  250000 0 0  300000 0 0  350000 0 0  400000 0 0  450000 0 0  500000 0 0  550000 0 0  600000 0 0  650000 0 0  700000 0 0  750000 0 0  800000 0 0  850000 0 0  900000 0 0  950000 0 0  1000000 0 0  0 50000 0  50000 50000 0  100000 50000 0  150000 50000 0  200000 50000 0  250000 50000 0  300000 50000 0  350000 50000 0  400000 50000 0  450000 50000 0  500000 50000 0  550000 50000 0  600000 50000 0  650000 50000 0  700000 50000 0  750000 50000 0  800000 50000 0  850000 50000 0  900000 50000 0  950000 50000 0  1000000 50000 0  0 100000 0  50000 100000 0  100000 100000 0  150000 100000 0  200000 100000 0  250000 100000 0  300000 100000 0  350000 100000 0  400000 100000 0  450000 100000 0  500000 100000 0  550000 100000 0  600000 100000 0  650000 100000 0  700000 100000 0  750000 100000 0  800000 100000 0  850000 100000 0  900000 100000 0  950000 100000 0  1000000 100000 0  0 150000 0  50000 150000 0  100000 150000 0  150000 150000 0  200000 150000 0  250000 150000 0  300000 150000 0  350000 150000 0  400000 150000 0  450000 150000 0  500000 150000 0  550000 150000 0  600000 150000 0  650000 150000 0  700000 150000 0  750000 150000 0  800000 150000 0  850000 150000 0  900000 150000 0  950000 150000 0  1000000 150000 0  0 200000 0  50000 200000 0  100000 200000 0  150000 200000 0  200000 200000 0  250000 200000 0  300000 200000 0  350000 200000 0  400000 200000 0  450000 200000 0  500000 200000 0  550000 200000 0  600000 200000 0  650000 200000 0  700000 200000 0  750000 200000 0  800000 200000 0  850000 200000 0  900000 200000 0  950000 200000 0  1000000 200000 0  0 250000 0  50000 250000 0  100000 250000 0  150000 250000 0  200000 250000 0  250000 250000 0  300000 250000 0  350000 250000 0  400000 250000 0  450000 250000 0  500000 250000 0  550000 250000 0  600000 250000 0  650000 250000 0  700000 250000 0  750000 250000 0  800000 250000 0  850000 250000 0  900000 250000 0  950000 250000 0  1000000 250000 0  0 300000 0  50000 300000 0  100000 300000 0  150000 300000 0  200000 300000 0  250000 300000 0  300000 300000 0  350000 300000 0  400000 300000 0  450000 300000 0  500000 300000 0  550000 300000 0  600000 300000 0  650000 300000 0  700000 300000 0  750000 300000 0  800000 300000 0  850000 300000 0  900000 300000 0  950000 300000 0  1000000 300000 0  0 350000 0  50000 350000 0  100000 350000 0  150000 350000 0  200000 350000 0  250000 350000 0  300000 350000 0  350000 350000 0  400000 350000 0  450000 350000 0  500000 350000 0  550000 350000 0  600000 350000 0  650000 350000 0  700000 350000 0  750000 350000 0  800000 350000 0  850000 350000 0  900000 350000 0  950000 350000 0  1000000 350000 0  0 400000 0  50000 400000 0  100000 400000 0  150000 400000 0  200000 400000 0  250000 400000 0  300000 400000 0  350000 400000 0  400000 400000 0  450000 400000 0  500000 400000 0  550000 400000 0  600000 400000 0  650000 400000 0  700000 400000 0  750000 400000 0  800000 400000 0  850000 400000 0  900000 400000 0  950000 400000 0  1000000 400000 0  0 450000 0  50000 450000 0  100000 450000 0  150000 450000 0  200000 450000 0  250000 450000 0  300000 450000 0  350000 450000 0  400000 450000 0  450000 450000 0  500000 450000 0  550000 450000 0  600000 450000 0  650000 450000 0  700000 450000 0  750000 450000 0  800000 450000 0  850000 450000 0  900000 450000 0  950000 450000 0  1000000 450000 0  0 500000 0  50000 500000 0  100000 500000 0  150000 500000 0  200000 500000 0  250000 500000 0  300000 500000 0  350000 500000 0  400000 500000 0  450000 500000 0  500000 500000 0  550000 500000 0  600000 500000 0  650000 500000 0  700000 500000 0  750000 500000 0  800000 500000 0  850000 500000 0  900000 500000 0  950000 500000 0  1000000 500000 0  0 550000 0  50000 550000 0  100000 550000 0  150000 550000 0  200000 550000 0  250000 550000 0  300000 550000 0  350000 550000 0  400000 550000 0  450000 550000 0  500000 550000 0  550000 550000 0  600000 550000 0  650000 550000 0  700000 550000 0  750000 550000 0  800000 550000 0  850000 550000 0  900000 550000 0  950000 550000 0  1000000 550000 0  0 600000 0  50000 600000 0  100000 600000 0  150000 600000 0  200000 600000 0  250000 600000 0  300000 600000 0  350000 600000 0  400000 600000 0  450000 600000 0  500000 600000 0  550000 600000 0  600000 600000 0  650000 600000 0  700000 600000 0  750000 600000 0  800000 600000 0  850000 600000 0  900000 600000 0  950000 600000 0  1000000 600000 0  0 650000 0  50000 650000 0  100000 650000 0  150000 650000 0  200000 650000 0  250000 650000 0  300000 650000 0  350000 650000 0  400000 650000 0  450000 650000 0  500000 650000 0  550000 650000 0  600000 650000 0  650000 650000 0  700000 650000 0  750000 650000 0  800000 650000 0  850000 650000 0  900000 650000 0  950000 650000 0  1000000 650000 0  0 700000 0  50000 700000 0  100000 700000 0  150000 700000 0  200000 700000 0  250000 700000 0  300000 700000 0  350000 700000 0  400000 700000 0  450000 700000 0  500000 700000 0  550000 700000 0  600000 700000 0  650000 700000 0  700000 700000 0  750000 700000 0  800000 700000 0  850000 700000 0  900000 700000 0  950000 700000 0  1000000 700000 0  0 750000 0  50000 750000 0  100000 750000 0  150000 750000 0  200000 750000 0  250000 750000 0  300000 750000 0  350000 750000 0  400000 750000 0  450000 750000 0  500000 750000 0  550000 750000 0  600000 750000 0  650000 750000 0  700000 750000 0  750000 750000 0  800000 750000 0  850000 750000 0  900000 750000 0  950000 750000 0  1000000 750000 0  0 800000 0  50000 800000 0  100000 800000 0  150000 800000 0  200000 800000 0  250000 800000 0  300000 800000 0  350000 800000 0  400000 800000 0  450000 800000 0  500000 800000 0  550000 800000 0  600000 800000 0  650000 800000 0  700000 800000 0  750000 800000 0  800000 800000 0  850000 800000 0  900000 800000 0  950000 800000 0  1000000 800000 0  0 850000 0  50000 850000 0  100000 850000 0  150000 850000 0  200000 850000 0  250000 850000 0  300000 850000 0  350000 850000 0  400000 850000 0  450000 850000 0  500000 850000 0  550000 850000 0  600000 850000 0  650000 850000 0  700000 850000 0  750000 850000 0  800000 850000 0  850000 850000 0  900000 850000 0  950000 850000 0  1000000 850000 0  0 900000 0  50000 900000 0  100000 900000 0  150000 900000 0  200000 900000 0  250000 900000 0  300000 900000 0  350000 900000 0  400000 900000 0  450000 900000 0  500000 900000 0  550000 900000 0  600000 900000 0  650000 900000 0  700000 900000 0  750000 900000 0  800000 900000 0  850000 900000 0  900000 900000 0  950000 900000 0  1000000 900000 0  0 950000 0  50000 950000 0  100000 950000 0  150000 950000 0  200000 950000 0  250000 950000 0  300000 950000 0  350000 950000 0  400000 950000 0  450000 950000 0  500000 950000 0  550000 950000 0  600000 950000 0  650000 950000 0  700000 950000 0  750000 950000 0  800000 950000 0  850000 950000 0  900000 950000 0  950000 950000 0  1000000 950000 0  0 1000000 0  50000 1000000 0  100000 1000000 0  150000 1000000 0  200000 1000000 0  250000 1000000 0  300000 1000000 0  350000 1000000 0  400000 1000000 0  450000 1000000 0  500000 1000000 0  550000 1000000 0  600000 1000000 0  650000 1000000 0  700000 1000000 0  750000 1000000 0  800000 1000000 0  850000 1000000 0  900000 1000000 0  950000 1000000 0  1000000 1000000 0  0 1050000 0  50000 1050000 0  100000 1050000 0  150000 1050000 0  200000 1050000 0  250000 1050000 0  300000 1050000 0  350000 1050000 0  400000 1050000 0  450000 1050000 0  500000 1050000 0  550000 1050000 0  600000 1050000 0  650000 1050000 0  700000 1050000 0  750000 1050000 0  800000 1050000 0  850000 1050000 0  900000 1050000 0  950000 1050000 0  1000000 1050000 0  0 1100000 0  50000 1100000 0  100000 1100000 0  150000 1100000 0  200000 1100000 0  250000 1100000 0  300000 1100000 0  350000 1100000 0  400000 1100000 0  450000 1100000 0  500000 1100000 0  550000 1100000 0  600000 1100000 0  650000 1100000 0  700000 1100000 0  750000 1100000 0  800000 1100000 0  850000 1100000 0  900000 1100000 0  950000 1100000 0  1000000 1100000 0  0 1150000 0  50000 1150000 0  100000 1150000 0  150000 1150000 0  200000 1150000 0  250000 1150000 0  300000 1150000 0  350000 1150000 0  400000 1150000 0  450000 1150000 0  500000 1150000 0  550000 1150000 0  600000 1150000 0  650000 1150000 0  700000 1150000 0  750000 1150000 0  800000 1150000 0  850000 1150000 0  900000 1150000 0  950000 1150000 0  1000000 1150000 0  0 1200000 0  50000 1200000 0  100000 1200000 0  150000 1200000 0  200000 1200000 0  250000 1200000 0  300000 1200000 0  350000 1200000 0  400000 1200000 0  450000 1200000 0  500000 1200000 0  550000 1200000 0  600000 1200000 0  650000 1200000 0  700000 1200000 0  750000 1200000 0  800000 1200000 0  850000 1200000 0  900000 1200000 0  950000 1200000 0  1000000 1200000 0  0 1250000 0  50000 1250000 0  100000 1250000 0  150000 1250000 0  200000 1250000 0  250000 1250000 0  300000 1250000 0  350000 1250000 0  400000 1250000 0  450000 1250000 0  500000 1250000 0  550000 1250000 0  600000 1250000 0  650000 1250000 0  700000 1250000 0  750000 1250000 0  800000 1250000 0  850000 1250000 0  900000 1250000 0  950000 1250000 0  1000000 1250000 0  0 1300000 0  50000 1300000 0  100000 1300000 0  150000 1300000 0  200000 1300000 0  250000 1300000 0  300000 1300000 0  350000 1300000 0  400000 1300000 0  450000 1300000 0  500000 1300000 0  550000 1300000 0  600000 1300000 0  650000 1300000 0  700000 1300000 0  750000 1300000 0  800000 1300000 0  850000 1300000 0  900000 1300000 0  950000 1300000 0  1000000 1300000 0  0 1350000 0  50000 1350000 0  100000 1350000 0  150000 1350000 0  200000 1350000 0  250000 1350000 0  300000 1350000 0  350000 1350000 0  400000 1350000 0  450000 1350000 0  500000 1350000 0  550000 1350000 0  600000 1350000 0  650000 1350000 0  700000 135
[...]
<PointData  Vectors="f_1513"> 
<DataArray  type="Float64"  Name="f_1513"  NumberOfComponents="3" format="ascii">-2.4435801864806866e-08 -9.7528865138054359e-09 0.0000000000000000e+00  4.8597999936471844e-08 -5.8811659561769222e-09 0.0000000000000000e+00  4.2801249254647880e-08 -1.6389781066339495e-09 0.0000000000000000e+00  4.0281739293544736e-08 -3.0432872800707427e-10 0.0000000000000000e+00  3.9017793710329343e-08 1.5930988831035315e-10 0.0000000000000000e+00  3.8178886154927531e-08 3.6283315760968837e-10 0.0000000000000000e+00  3.7569794662133601e-08 4.6972940175141599e-10 0.0000000000000000e+00  3.7134788068153449e-08 5.3469841011534897e-10 0.0000000000000000e+00  3.6857303214850844e-08 5.7988388352016924e-10 0.0000000000000000e+00  3.6734357878464700e-08 6.1579787142571197e-10 0.0000000000000000e+00  3.6768682426244986e-08 6.4820824308192834e-10 0.0000000000000000e+00  3.6966619492440230e-08 6.8109963168306869e-10 0.0000000000000000e+00  3.7339099759107112e-08 7.1900731247756206e-10 0.0000000000000000e+00  3.7906740330777238e-08 7.7076317377051473e-10 0.0000000000000000e+00  3.8714714423849266e-08 8.5775461866732876e-10 0.0000000000000000e+00  3.9874213635926663e-08 1.0341440037624152e-09 0.0000000000000000e+00  4.1674888569662385e-08 1.4389834399346357e-09 0.0000000000000000e+00  4.4851239032390549e-08 2.4271255037547195e-09 0.0000000000000000e+00  5.0726925645860565e-08 4.8389883005831805e-09 0.0000000000000000e+00  5.7977885354493418e-08 9.2731785815003707e-09 0.0000000000000000e+00  -1.6485109081362531e-08 7.1661847649281306e-09 0.0000000000000000e+00  -1.8241470078230972e-08 -1.5257007181691013e-08 0.0000000000000000e+00  7.0709890209414229e-09 -1.1042019759461706e-08 0.0000000000000000e+00  1.7808465911156940e-08 -5.1226042182310998e-09 0.0000000000000000e+00  2.2874081657639235e-08 -2.2661042207250871e-09 0.0000000000000000e+00  2.5472857736530303e-08 -1.0142545863212562e-09 0.0000000000000000e+00  2.6934672779089934e-08 -4.2840640858915894e-10 0.0000000000000000e+00  2.7783155357665463e-08 -1.3930460044955441e-10 0.0000000000000000e+00  2.8283620474294502e-08 3.6523205992580815e-12 0.0000000000000000e+00  2.8582213425495658e-08 6.9374921405512596e-11 0.0000000000000000e+00  2.8760688304668796e-08 9.4765151428940050e-11 0.0000000000000000e+00  2.8861736551997259e-08 1.0390838816577336e-10 0.0000000000000000e+00  2.8900300600614391e-08 1.1709753207504230e-10 0.0000000000000000e+00  2.8867105311788510e-08 1.5700453615675619e-10 0.0000000000000000e+00  2.8726494936510732e-08 2.5579734627718785e-10 0.0000000000000000e+00  2.8407788187054485e-08 4.6741952647553675e-10 0.0000000000000000e+00  2.7784560526771275e-08 8.9359802363278128e-10 0.0000000000000000e+00  2.6620585777113184e-08 1.7436508623001000e-09 0.0000000000000000e+00  2.4396196308975833e-08 3.4666325253504901e-09 0.0000000000000000e+00  1.9669516361736754e-08 6.9451878613266683e-09 0.0000000000000000e+00  8.2062194943016384e-09 1.3111148556237287e-08 0.0000000000000000e+00  -1.8456562152723002e-08 1.1086901413630385e-08 0.0000000000000000e+00  -1.1336876441261886e-08 -1.8814529193267136e-08 0.0000000000000000e+00  -4.0384582341782188e-10 -1.8207202996723254e-08 0.0000000000000000e+00  5.5400692949592590e-09 -1.1287785192169190e-08 0.0000000000000000e+00  1.0364533536975092e-08 -6.5231619845889372e-09 0.0000000000000000e+00  1.4175371644347198e-08 -3.7616140404527577e-09 0.0000000000000000e+00  1.6837904100514105e-08 -2.1961594404036616e-09 0.0000000000000000e+00  1.8629058585460117e-08 -1.2879685312881315e-09 0.0000000000000000e+00  1.9813247973598946e-08 -7.4533845057799540e-10 0.0000000000000000e+00  2.0570461175250521e-08 -4.0842371792872330e-10 0.0000000000000000e+00  2.1011406784004894e-08 -1.8218544049633902e-10 0.0000000000000000e+00  2.1195562720407804e-08 -1.4959242909519063e-12 0.0000000000000000e+00  2.1142022453876112e-08 1.8824180495666529e-10 0.0000000000000000e+00  2.0833360651114661e-08 4.4474312342723463e-10 0.0000000000000000e+00  2.0213267051931543e-08 8.4288309527730943e-10 0.0000000000000000e+00  1.9177538980248836e-08 1.4947986660249523e-09 0.0000000000000000e+00  1.7556736034966891e-08 2.5832566808231346e-09 0.0000000000000000e+00  1.5089240316703227e-08 4.4139477563063536e-09 0.0000000000000000e+00  1.1394514898682460e-08 7.4589883376351946e-09 0.0000000000000000e+00  6.0112786915910220e-09 1.2169027176437176e-08 0.0000000000000000e+00  -1.3458588526859681e-09 1.7637309643766507e-08 0.0000000000000000e+00  -1.3371398204236289e-08 1.4834853886616208e-08 0.0000000000000000e+00  -7.6916614013083548e-09 -1.9411890531214235e-08 0.0000000000000000e+00  -1.6410360913238125e-09 -1.9500474771345860e-08 0.0000000000000000e+00  9.3170554122993533e-10 -1.5181204344987335e-08 0.0000000000000000e+00  3.6226934618765408e-09 -1.0386883152915802e-08 0.0000000000000000e+00  6.4861218329519400e-09 -6.8386525399854171e-09 0.0000000000000000e+00  9.0084267686913221e-09 -4.4466421997020968e-09 0.0000000000000000e+00  1.0973831407337349e-08 -2.8645476663521068e-09 0.0000000000000000e+00  1.2397644668704886e-08 -1.8036775226457716e-09 0.0000000000000000e+00  1.3359945646080258e-08 -1.0635897959885001e-09 0.0000000000000000e+00  1.3932933399712795e-08 -5.0547042787166683e-10 0.0000000000000000e+00  1.4161767284855114e-08 -2.5137528939518109e-11 0.0000000000000000e+00  1.4061339853785886e-08 4.6736031235604516e-10 0.0000000000000000e+00  1.3616366316953515e-08 1.0640442326835154e-09 0.0000000000000000e+00  1.2781832766103233e-08 1.8746012104537023e-09 0.0000000000000000e+00  1.1485043931890581e-08 3.0435631335192336e-09 0.0000000000000000e+00  9.6354205833554882e-09 4.7670673013337284e-09 0.0000000000000000e+00  7.1585749977586366e-09 7.2909618539321006e-09 0.0000000000000000e+00  4.0877467503280130e-09 1.0819458460490348e-08 0.0000000000000000e+00  7.1570609955282254e-10 1.5142778716875480e-08 0.0000000000000000e+00  -2.6477289385251458e-09 1.8782207641392259e-08 0.0000000000000000e+00  -9.1897987425892139e-09 1.7698634564136815e-08 0.0000000000000000e+00  -5.8592946601866533e-09 -1.8796157334038479e-08 0.0000000000000000e+00  -1.9570561731300679e-09 -1.9138372156359726e-08 0.0000000000000000e+00  -1.0481511307159985e-09 -1.6498782840243559e-08 0.0000000000000000e+00  2.0864979133716203e-11 -1.2714988683906511e-08 0.0000000000000000e+00  1.6192991160565568e-09 -9.2315806330928889e-09 0.0000000000000000e+00  3.3844147192524304e-09 -6.4894439529018086e-09 0.0000000000000000e+00  4.9842792544237973e-09 -4.4481913418250908e-09 0.0000000000000000e+00  6.2657532501965509e-09 -2.9405006516207679e-09 0.0000000000000000e+00  7.1890153421743691e-09 -1.7973045296373056e-09 0.0000000000000000e+00  7.7591619874557718e-09 -8.7478259924886764e-10 0.0000000000000000e+00  7.9888231191545494e-09 -5.0966703443480629e-11 0.0000000000000000e+00  7.8826663819183278e-09 7.8499903256065473e-10 0.0000000000000000e+00  7.4331459722527397e-09 1.7442885420297212e-09 0.0000000000000000e+00  6.6233200625261667e-09 2.9485096368689851e-09 0.0000000000000000e+00  5.4378836837218819e-09 4.5357062114918315e-09 0.0000000000000000e+00  3.8882685435353736e-09 6.6534496197814646e-09 0.0000000000000000e+00  2.0607291572549269e-09 9.4155169963664020e-09 0.0000000000000000e+00  1.8336032325366583e-10 1.2774297772584728e-08 0.0000000000000000e+00  -1.3853831603482429e-09 1.6262128234626308e-08 0.0000000000000000e+00  -2.7323117850182782e-09 1.8734289721936448e-08 0.0000000000000000e+00  -7.0310017491803616e-09 1.8736841348178064e-08 0.0000000000000000e+00  -4.8251380324866016e-09 -1.7641100451741442e-08 0.0000000000000000e+00  -2.1202929247542716e-09 -1.8152683523090989e-08 0.0000000000000000e+00  -2.0820192303195985e-09 -1.6445182425261121e-08 0.0000000000000000e+00  -2.0419002969560149e-09 -1.3630125192764632e-08 0.0000000000000000e+00  -1.4769825285269122e-09 -1.0618118104316031e-08 0.0000000000000000e+00  -5.4667025821959760e-10 -7.9260675841623196e-09 0.0000000000000000e+00  4.7915724110386657e-10 -5.7033049230495874e-09 0.0000000000000000e+00  1.4050781164720947e-09 -3.9157275683561123e-09 0.0000000000000000e+00  2.1254609504727682e-09 -2.4619099298753415e-09 0.0000000000000000e+00  2.5928108228028744e-09 -1.2250592450793855e-09 0.0000000000000000e+00  2.7886648937728434e-09 -8.9775721209193038e-11 0.0000000000000000e+00  2.7068786925813307e-09 1.0558960105662436e-09 0.0000000000000000e+00  2.3478221728129454e-09 2.3229796323824063e-09 0.0000000000000000e+00  1.7215636800285080e-09 3.8229889830042652e-09 0.0000000000000000e+00  8.6010275289219659e-10 5.6626184241499805e-09 0.0000000000000000e+00  -1.6036217495514370e-10 7.9225630454208519e-09 0.0000000000000000e+00  -1.1906261126947196e-09 1.0605977872582780e-08 0.0000000000000000e+00  -1.9987086131826178e-09 1.3543623012376077e-08 0.0000000000000000e+00  -2.3768740106125568e-09 1.6279944363739025e-08 0.0000000000000000e+00  -2.6986577734520001e-09 1.8066534049626740e-08 0.0000000000000000e+00  -5.8038000679507228e-09 1.8571796615800285e-08 0.0000000000000000e+00  -4.1702853564673615e-09 -1.6187491407740156e-08 0.0000000000000000e+00  -2.2482521257829503e-09 -1.6825879069956721e-08 0.0000000000000000e+00  -2.7256437710672149e-09 -1.5673958726509710e-08 0.0000000000000000e+00  -3.3310400351826687e-09 -1.3580619282050188e-08 0.0000000000000000e+00  -3.5128995661921027e-09 -1.1108076966076124e-08 0.0000000000000000e+00  -3.2927188805905778e-09 -8.6738622517401386e-09 0.0000000000000000e+00  -2.8449834575045172e-09 -6.4851108903085233e-09 0.0000000000000000e+00  -2.3390084127239115e-09 -4.5918736356999349e-09 0.0000000000000000e+00  -1.8943036440250191e-09 -2.9571083893731166e-09 0.0000000000000000e+00  -1.5824058140169761e-09 -1.5036497455616398e-09 0.0000000000000000e+00  -1.4403242217578165e-09 -1.3874672825052939e-10 0.0000000000000000e+00  -1.4815162232443295e-09 1.2347698704824627e-09 0.0000000000000000e+00  -1.7004786004249062e-09 2.7128173859547405e-09 0.0000000000000000e+00  -2.0706026240376654e-09 4.3839253647639042e-09 0.0000000000000000e+00  -2.5360208549861831e-09 6.3171391464162169e-09 0.0000000000000000e+00  -3.0000489379141673e-09 8.5380237450925626e-09 0.0000000000000000e+00  -3.3189330104092730e-09 1.0988200205066061e-08 0.0000000000000000e+00  -3.3258669127383532e-09 1.3473617448568854e-08 0.0000000000000000e+00  -2.9526613820698259e-09 1.5634851342713514e-08 0.0000000000000000e+00  -2.6858044600308385e-09 1.7002362388866955e-08 0.0000000000000000e+00  -5.0209277719406531e-09 1.7762900901219203e-08 0.0000000000000000e+00  -3.7211323302598313e-09 -1.4534965006003923e-08 0.0000000000000000e+00  -2.3564539543089746e-09 -1.5272611495222212e-08 0.0000000000000000e+00  -3.1744569003417961e-09 -1.4479310285745425e-08 0.0000000000000000e+00  -4.1985335930938884e-09 -1.2907995965532677e-08 0.0000000000000000e+00  -4.9014635492269038e-09 -1.0918410700753086e-08 0.0000000000000000e+00  -5.2290117814594270e-09 -8.8138997974682267e-09 0.0000000000000000e+00  -5.2763160322956931e-09 -6.7890701979125482e-09 0.0000000000000000e+00  -5.1663708675496315e-09 -4.9291049498462199e-09 0.0000000000000000e+00  -5.0032786712133145e-09 -3.2406304984128029e-09 0.0000000000000000e+00  -4.8596181557905100e-09 -1.6832611139063952e-09 0.0000000000000000e+00  -4.7776909493434433e-09 -1.9232644995434865e-10 0.0000000000000000e+00  -4.7737507731455759e-09 1.3064483981505762e-09 0.0000000000000000e+00  -4.8403924891134404e-09 2.8864396636661831e-09 0.0000000000000000e+00  -4.9457814068500786e-09 4.6096665460535420e-09 0.0000000000000000e+00  -5.0306407178180132e-09 6.5126731074874273e-09 0.0000000000000000e+00  -5.0064781774667478e-09 8.5861979237936453e-09 0.0000000000000000e+00  -4.7630620155448654e-09 1.0749575704428587e-08 0.0000000000000000e+00  -4.2024140161567231e-09 1.2829158057898061e-08 0.0000000000000000e+00  -3.3439945447139779e-09 1.4564006946972283e-08 0.0000000000000000e+00  -2.6960825977406096e-09 1.5662121211765334e-08 0.0000000000000000e+00  -4.4713914394184970e-09 1.6571571805615528e-08 0.0000000000000000e+00  -3.3982316531847507e-09 -1.2737464761524515e-08 0.0000000000000000e+00  -2.4469432098070199e-09 -1.3555338544465815e-08 0.0000000000000000e+00  -3.5055717987264997e-09 -1.3010153072849727e-08 0.0000000000000000e+00  -4.8116584878024499e-09 -1.1825532272964122e-08 0.0000000000000000e+00  -5.8758569775133017e-09 -1.0242101022671916e-08 0.0000000000000000e+00  -6.6071469083496684e-09 -8.4735339574605552e-09 0.0000000000000000e+00  -7.0453315011369632e-09 -6.6792581875539553e-09 0.0000000000000000e+00  -7.2690723916879569e-09 -4.9493335720549659e-09 0.0000000000000000e+00  -7.3564955402641841e-09 -3.3134136625916013e-09 0.0000000000000000e+00  -7.3685680740269218e-09 -1.7583671317626657e-09 0.0000000000000000e+00  -7.3438252253905637e-09 -2.4541218685132544e-10 0.0000000000000000e+00  -7.2978135600927073e-09 1.2757968521113877e-09 0.0000000000000000e+00  -7.2235931930168032e-09 2.8552970310527185e-09 0.0000000000000000e+00  -7.0920234577893265e-09 4.5312124768630933e-09 0.0000000000000000e+00  -6.8525563819534778e-09 6.3166915785666606e-09 0.0000000000000000e+00  -6.4372948606612047e-09 8.1850548449156271e-09 0.0000000000000000e+00  -5.7736970954096567e-09 1.0055870320532237e-08 0.0000000000000000e+00  -4.8166654080692084e-09 1.1789573302727335e-08 0.0000000000000000e+00  -3.6332587080548895e-09 1.3203805428747803e-08 0.0000000000000000e+00  -2.7169254253746535e-09 1.4118304042215902e-08 0.0000000000000000e+00  -4.0571382104712113e-09 1.5122212980844968e-08 0.0000000000000000e+00  -3.1612975839218769e-09 -1.0831445413714305e-08 0.0000000000000000e+00  -2.5209941978087093e-09 -1.1715390390707375e-08 0.0000000000000000e+00  -3.7549619567181945e-09 -1.1353257762773205e-08 0.0000000000000000e+00  -5.2560001464597035e-09 -1.0466568638121615e-08 0.0000000000000000e+00  -6.5707689824826611e-09 -9.2235310698489307e-09 0.0000000000000000e+00  -7.5922906655081975e-09 -7.7736482538257999e-09 0.0000000000000000e+00  -8.3245817183000185e-09 -6.2397471869978040e-09 0.0000000000000000e+00  -8.8109549250607262e-09 -4.7026281188157489e-09 0.0000000000000000e+00  -9.1033168256601954e-09 -3.2004671948016891e-09 0.0000000000000000e+00  -9.2465805339954311e-09 -1.7372616182800632e-09 0.0000000000000000e+00  -9.2711486012926287e-09 -2.9432330649082375e-10 0.0000000000000000e+00  -9.1899184866233136e-09 1.1581715839208154e-09 0.0000000000000000e+00  -8.9976459272360319e-09 2.6502704339192841e-09 0.0000000000000000e+00  -8.6718020398885893e-09 4.2016128727127278e-09 0.0000000000000000e+00  -8.1753512479733354e-09 5.8107793885475222e-09 0.0000000000000000e+00  -7.4631059406813160e-09 7.4453506420106710e-09 0.0000000000000000e+00  -6.4947030363777879e-09 9.0353268514240513e-09 0.0000000000000000e+00  -5.2611446900800106e-09 1.0474849613188615e-08 0.0000000000000000e+00  -3.8532708009167627e-09 1.1639147146491023e-08 0.0000000000000000e+00  -2.7384755056040230e-09 1.2419209747843942e-08 0.0000000000000000e+00  -3.7299062416367971e-09 1.3484141092070394e-08 0.0000000000000000e+00  -2.9881858343556577e-09 -8.8447535550103264e-09 0.0000000000000000e+00  -2.5804970966336605e-09 -9.7836832025766313e-09 0.0000000000000000e+00  -3.9428456021957871e-09 -9.5649303773421790e-09 0.0000000000000000e+00  -5.5799441562013380e-09 -8.9182399771936507e-09 0.0000000000000000e+00  -7.0679966572743692e-09 -7.9660674593924745e-09 0.0000000000000000e+00  -8.2942507547646490e-09 -6.8130416029076916e-09 0.0000000000000000e+00  -9.2403893909826018e-09 -5.5506622386088224e-09 0.0000000000000000e+00  -9.9238578552344174e-09 -4.2456084351089148e-09 0.0000000000000000e+00  -1.0374404970259696e-08 -2.9360078878773255e-09 0.0000000000000000e+00  -1.0621239416157441e-08 -1.6347886988902529e-09 0.0000000000000000e+00  -1.0685628355045175e-08 -3.3683221984585596e-10 0.0000000000000000e+00  -1.0577157826993076e-08 9.7243505896318382e-10 0.0000000000000000e+00  -1.0292613217157718e-08 2.3081774828905853e-09 0.0000000000000000e+00  -9.8170188831487516e-09 3.6774912094338458e-09 0.0000000000000000e+00  -9.1270172464285759e-09 5.0714066210261877e-09 0.0000000000000000e+00  -8.1973632618423177e-09 6.4585957348844037e-09 0.0000000000000000e+00  -7.0121047886675260e-09 7.7827961842964960e-09 0.0000000000000000e+00  -5.5856013688151741e-09 8.9668106683977196e-09 0.0000000000000000e+00  -4.0197423616302044e-09 9.9268238057806709e-09 0.0000000000000000e+00  -2.7551679349752331e-09 1.0600280235387576e-08 0.0000000000000000e+00  -3.4649285157570457e-09 1.1703080344104496e-08 0.0000000000000000e+00  -2.8660608133393410e-09 -6.7998374127860798e-09 0.0000000000000000e+00  -2.6277738012617808e-09 -7.7848072770291114e-09 0.0000000000000000e+00  -4.0825164267990469e-09 -7.6845935827188158e-09 0.0000000000000000e+00  -5.8137547945063052e-09 -7.2400581854366442e-09 0.0000000000000000e+00  -7.4201412530144910e-09 -6.5434336018028148e-09 0.0000000000000000e+00  -8.7877643881983446e-09 -5.6678028643618910e-09 0.0000000000000000e+00  -9.8846466753373325e-09 -4.6795304289019557e-09 0.0000000000000000e+00  -1.0710249588140339e-08 -3.6305917681495976e-09 0.0000000000000000e+00  -1.1277311428420873e-08 -2.5545433740221633e-09 0.0000000000000000e+00  -1.1601856529019060e-08 -1.4673973260094622e-09 0.0000000000000000e+00  -1.1696878663964103e-08 -3.7182856614296179e-10 0.0000000000000000e+00  -1.1568774164709274e-08 7.3687324547810413e-10 0.0000000000000000e+00  -1.1216149701902428e-08 1.8642187992124616e-09 0.0000000000000000e+00  -1.0630820161763120e-08 3.0100520975464733e-09 0.0000000000000000e+00  -9.8010213088069222e-09 4.1629128592136374e-09 0.0000000000000000e+00  -8.7170776106786712e-09 5.2962048317525403e-09 0.0000000000000000e+00  -7.3803451603589133e-09 6.3675300126765804e-09 0.0000000000000000e+00  -5.8198857317969403e-09 7.3227497327117690e-09 0.0000000000000000e+00  -4.1422872420785650e-09 8.1071348293804456e-09 0.0000000000000000e+00  -2.7647301506291357e-09 8.6893414240446620e-09 0.0000000000000000e+00  -3.2490992030078752e-09 9.8129984395407415e-09 0.0000000000000000e+00  -2.7872758275196172e-09 -4.7152321681456790e-09 0.0000000000000000e+00  -2.6652313171452740e-09 -5.7388642973555821e-09 0.0000000000000000e+00  -4.1835604302008440e-09 -5.7413279102018106e-09 0.0000000000000000e+00  -5.9778139029428217e-09 -5.4742269279932315e-09 0.0000000000000000e+00  -7.6625500679732734e-09 -5.0087309849612591e-09 0.0000000000000000e+00  -9.1245592561319709e-09 -4.3952009362257547e-09 0.0000000000000000e+00  -1.0323689862350907e-08 -3.6800855297070010e-09 0.0000000000000000e+00  -1.1247427609856190e-08 -2.9016462150533631e-09 0.0000000000000000e+00  -1.1896339182898008e-08 -2.0866986947824651e-09 0.0000000000000000e+00  -1.2276423201555215e-08 -1.2504671881802939e-09 0.0000000000000000e+00  -1.2394052354406078e-08 -3.9892075424431313e-10 0.0000000000000000e+00  -1.2252929640936457e-08 4.6737693431185582e-10 0.0000000000000000e+00  -1.1853016427605117e-08 1.3487616785739450e-09 0.0000000000000000e+00  -1.1191403036902253e-08 2.2420128861486868e-09 0.0000000000000000e+00  -1.0265067304406968e-08 3.1366192891421568e-09 0.0000000000000000e+00  -9.0754956403191134e-09 4.0125233322868209e-09 0.0000000000000000e+00  -7.6356798357981503e-09 4.8401981489565970e-09 0.0000000000000000e+00  -5.9837477597678308e-09 5.5839024154763889e-09 0.0000000000000000e+00  -4.2280624543979174e-09 6.2100103007346380e-09 0.0000000000000000e+00  -2.7669330520101211e-09 6.7090373277109850e-09 0.0000000000000000e+00  -3.0752880891801333e-09 7.8407166664596902e-09 0.0000000000000000e+00  -2.7472662242908616e-09 -2.6065507478808167e-09 0.0000000000000000e+00  -2.6950515785010819e-09 -3.6625821659868922e-09 0.0000000000000000e+00  -4.2530217849438831e-09 -3.7574606984173386e-09 0.0000000000000000e+00  -6.0862069940711289e-09 -3.6517556173162763e-09 0.0000000000000000e+00  -7.8192636421688322e-09 -3.4009394260650181e-09 0.0000000000000000e+00  -9.3402262491752643e-09 -3.0382793404577931e-09 0.0000000000000000e+00  -1.0604285251798214e-08 -2.5941324511