<?xml version="1.0"?>
<VTKFile type="UnstructuredGrid"  version="0.1"  >
<UnstructuredGrid>
<Piece  NumberOfPoints="651" NumberOfCells="1200">
<Points>
<DataArray  type="Float64"  NumberOfComponents="3"  format="ascii">0 0 0  50000 0 0  100000 0 0  150000 0 0  200000 0 0  250000 0 0  300000 0 0  350000 0 0  400000 0 0  450000 0 0  500000 0 0  550000 0 0  600000 0 0  650000 0 0  700000 0 0  750000 0 0  800000 0 0  850000 0 0  900000 0 0  950000 0 0  1000000 0 0  0 50000 0  50000 50000 0  100000 50000 0  150000 50000 0  200000 50000 0  250000 50000 0  300000 50000 0  350000 50000 0  400000 50000 0  450000 50000 0  500000 50000 0  550000 50000 0  600000 50000 0  650000 50000 0  700000 50000 0  750000 50000 0  800000 50000 0  850000 50000 0  900000 50000 0  950000 50000 0  1000000 50000 0  0 100000 0  50000 100000 0  100000 100000 0  150000 100000 0  200000 100000 0  250000 100000 0  300000 100000 0  350000 100000 0  400000 100000 0  450000 100000 0  500000 100000 0  550000 100000 0  600000 100000 0  650000 100000 0  700000 100000 0  750000 100000 0  800000 100000 0  850000 100000 0  900000 100000 0  950000 100000 0  1000000 100000 0  0 150000 0  50000 150000 0  100000 150000 0  150000 150000 0  200000 150000 0  250000 150000 0  300000 150000 0  350000 150000 0  400000 150000 0  450000 150000 0  500000 150000 0  550000 150000 0  600000 150000 0  650000 150000 0  700000 150000 0  750000 150000 0  800000 150000 0  850000 150000 0  900000 150000 0  950000 150000 0  1000000 150000 0  0 200000 0  50000 200000 0  100000 200000 0  150000 200000 0  200000 200000 0  250000 200000 0  300000 200000 0  350000 200000 0  400000 200000 0  450000 200000 0  500000 200000 0  550000 200000 0  600000 200000 0  650000 200000 0  700000 200000 0  750000 200000 0  800000 200000 0  850000 200000 0  900000 200000 0  950000 200000 0  1000000 200000 0  0 250000 0  50000 250000 0  100000 250000 0  150000 250000 0  200000 250000 0  250000 250000 0  300000 250000 0  350000 250000 0  400000 250000 0  450000 250000 0  500000 250000 0  550000 250000 0  600000 250000 0  650000 250000 0  700000 250000 0  750000 250000 0  800000 250000 0  850000 250000 0  900000 250000 0  950000 250000 0  1000000 250000 0  0 300000 0  50000 300000 0  100000 300000 0  150000 300000 0  200000 300000 0  250000 300000 0  300000 300000 0  350000 300000 0  400000 300000 0  450000 300000 0  500000 300000 0  550000 300000 0  600000 300000 0  650000 300000 0  700000 300000 0  750000 300000 0  800000 300000 0  850000 300000 0  900000 300000 0  950000 300000 0  1000000 300000 0  0 350000 0  50000 350000 0  100000 350000 0  150000 350000 0  200000 350000 0  250000 350000 0  300000 350000 0  350000 350000 0  400000 350000 0  450000 350000 0  500000 350000 0  550000 350000 0  600000 350000 0  650000 350000 0  700000 350000 0  750000 350000 0  800000 350000 0  850000 350000 0  900000 350000 0  950000 350000 0  1000000 350000 0  0 400000 0  50000 400000 0  100000 400000 0  150000 400000 0  200000 400000 0  250000 400000 0  300000 400000 0  350000 400000 0  400000 400000 0  450000 400000 0  500000 400000 0  550000 400000 0  600000 400000 0  650000 400000 0  700000 400000 0  750000 400000 0  800000 400000 0  850000 400000 0  900000 400000 0  950000 400000 0  1000000 400000 0  0 450000 0  50000 450000 0  100000 450000 0  150000 450000 0  200000 450000 0  250000 450000 0  300000 450000 0  350000 450000 0  400000 450000 0  450000 450000 0  500000 450000 0  550000 450000 0  600000 450000 0  650000 450000 0  700000 450000 0  750000 450000 0  800000 450000 0  850000 450000 0  900000 450000 0  950000 450000 0  1000000 450000 0  0 500000 0  50000 500000 0  100000 500000 0  150000 500000 0  200000 500000 0  250000 500000 0  300000 500000 0  350000 500000 0  400000 500000 0  450000 500000 0  500000 500000 0  550000 500000 0  600000 500000 0  650000 500000 0  700000 500000 0  750000 500000 0  800000 500000 0  850000 500000 0  900000 500000 0  950000 500000 0  1000000 500000 0  0 550000 0  50000 550000 0  100000 550000 0  150000 550000 0  200000 550000 0  250000 550000 0  300000 550000 0  350000 550000 0  400000 550000 0  450000 550000 0  500000 550000 0  550000 550000 0  600000 550000 0  650000 550000 0  700000 550000 0  750000 550000 0  800000 550000 0  850000 550000 0  900000 550000 0  950000 550000 0  1000000 550000 0  0 600000 0  50000 600000 0  100000 600000 0  150000 600000 0  200000 600000 0  250000 600000 0  300000 600000 0  350000 600000 0  400000 600000 0  450000 600000 0  500000 600000 0  550000 600000 0  600000 600000 0  650000 600000 0  700000 600000 0  750000 600000 0  800000 600000 0  850000 600000 0  900000 600000 0  950000 600000 0  1000000 600000 0  0 650000 0  50000 650000 0  100000 650000 0  150000 650000 0  200000 650000 0  250000 650000 0  300000 650000 0  350000 650000 0  400000 650000 0  450000 650000 0  500000 650000 0  550000 650000 0  600000 650000 0  650000 650000 0  700000 650000 0  750000 650000 0  800000 650000 0  850000 650000 0  900000 650000 0  950000 650000 0  1000000 650000 0  0 700000 0  50000 700000 0  100000 700000 0  150000 700000 0  200000 700000 0  250000 700000 0  300000 700000 0  350000 700000 0  400000 700000 0  450000 700000 0  500000 700000 0  550000 700000 0  600000 700000 0  650000 700000 0  700000 700000 0  750000 700000 0  800000 700000 0  850000 700000 0  900000 700000 0  950000 700000 0  1000000 700000 0  0 750000 0  50000 750000 0  100000 750000 0  150000 750000 0  200000 750000 0  250000 750000 0  300000 750000 0  350000 750000 0  400000 750000 0  450000 750000 0  500000 750000 0  550000 750000 0  600000 750000 0  650000 750000 0  700000 750000 0  750000 750000 0  800000 750000 0  850000 750000 0  900000 750000 0  950000 750000 0  1000000 750000 0  0 800000 0  50000 800000 0  100000 800000 0  150000 800000 0  200000 800000 0  250000 800000 0  300000 800000 0  350000 800000 0  400000 800000 0  450000 800000 0  500000 800000 0  550000 800000 0  600000 800000 0  650000 800000 0  700000 800000 0  750000 800000 0  800000 800000 0  850000 800000 0  900000 800000 0  950000 800000 0  1000000 800000 0  0 850000 0  50000 850000 0  100000 850000 0  150000 850000 0  200000 850000 0  250000 850000 0  300000 850000 0  350000 850000 0  400000 850000 0  450000 850000 0  500000 850000 0  550000 850000 0  600000 850000 0  650000 850000 0  700000 850000 0  750000 850000 0  800000 850000 0  850000 850000 0  900000 850000 0  950000 850000 0  1000000 850000 0  0 900000 0  50000 900000 0  100000 900000 0  150000 900000 0  200000 900000 0  250000 900000 0  300000 900000 0  350000 900000 0  400000 900000 0  450000 900000 0  500000 900000 0  550000 900000 0  600000 900000 0  650000 900000 0  700000 900000 0  750000 900000 0  800000 900000 0  850000 900000 0  900000 900000 0  950000 900000 0  1000000 900000 0  0 950000 0  50000 950000 0  100000 950000 0  150000 950000 0  200000 950000 0  250000 950000 0  300000 950000 0  350000 950000 0  400000 950000 0  450000 950000 0  500000 950000 0  550000 950000 0  600000 950000 0  650000 950000 0  700000 950000 0  750000 950000 0  800000 950000 0  850000 950000 0  900000 950000 0  950000 950000 0  1000000 950000 0  0 1000000 0  50000 1000000 0  100000 1000000 0  150000 1000000 0  200000 1000000 0  250000 1000000 0  300000 1000000 0  350000 1000000 0  400000 1000000 0  450000 1000000 0  500000 1000000 0  550000 1000000 0  600000 1000000 0  650000 1000000 0  700000 1000000 0  750000 1000000 0  800000 1000000 0  850000 1000000 0  900000 1000000 0  950000 1000000 0  1000000 1000000 0  0 1050000 0  50000 1050000 0  100000 1050000 0  150000 1050000 0  200000 1050000 0  250000 1050000 0  300000 1050000 0  350000 1050000 0  400000 1050000 0  450000 1050000 0  500000 1050000 0  550000 1050000 0  600000 1050000 0  650000 1050000 0  700000 1050000 0  750000 1050000 0  800000 1050000 0  850000 1050000 0  900000 1050000 0  950000 1050000 0  1000000 1050000 0  0 1100000 0  50000 1100000 0  100000 1100000 0  150000 1100000 0  200000 1100000 0  250000 1100000 0  300000 1100000 0  350000 1100000 0  400000 1100000 0  450000 1100000 0  500000 1100000 0  550000 1100000 0  600000 1100000 0  650000 1100000 0  700000 1100000 0  750000 1100000 0  800000 1100000 0  850000 1100000 0  900000 1100000 0  950000 1100000 0  1000000 1100000 0  0 1150000 0  50000 1150000 0  100000 1150000 0  150000 1150000 0  200000 1150000 0  250000 1150000 0  300000 1150000 0  350000 1150000 0  400000 1150000 0  450000 1150000 0  500000 1150000 0  550000 1150000 0  600000 1150000 0  650000 1150000 0  700000 1150000 0  750000 1150000 0  800000 1150000 0  850000 1150000 0  900000 1150000 0  950000 1150000 0  1000000 1150000 0  0 1200000 0  50000 1200000 0  100000 1200000 0  150000 1200000 0  200000 1200000 0  250000 1200000 0  300000 1200000 0  350000 1200000 0  400000 1200000 0  450000 1200000 0  500000 1200000 0  550000 1200000 0  600000 1200000 0  650000 1200000 0  700000 1200000 0  750000 1200000 0  800000 1200000 0  850000 1200000 0  900000 1200000 0  950000 1200000 0  1000000 1200000 0  0 1250000 0  50000 1250000 0  100000 1250000 0  150000 1250000 0  200000 1250000 0  250000 1250000 0  300000 1250000 0  350000 1250000 0  400000 1250000 0  450000 1250000 0  500000 1250000 0  550000 1250000 0  600000 1250000 0  650000 1250000 0  700000 1250000 0  750000 1250000 0  800000 1250000 0  850000 1250000 0  900000 1250000 0  950000 1250000 0  1000000 1250000 0  0 1300000 0  50000 1300000 0  100000 1300000 0  150000 1300000 0  200000 1300000 0  250000 1300000 0  300000 1300000 0  350000 1300000 0  400000 1300000 0  450000 1300000 0  500000 1300000 0  550000 1300000 0  600000 1300000 0  650000 1300000 0  700000 1300000 0  750000 1300000 0  800000 1300000 0  850000 1300000 0  900000 1300000 0  950000 1300000 0  1000000 1300000 0  0 1350000 0  50000 1350000 0  100000 1350000 0  150000 1350000 0  200000 1350000 0  250000 1350000 0  300000 1350000 0  350000 1350000 0  400000 1350000 0  450000 1350000 0  500000 1350000 0  550000 1350000 0  600000 1350000 0  650000 1350000 0  700000 135
[...]
<PointData  Vectors="f_1513"> 
<DataArray  type="Float64"  Name="f_1513"  NumberOfComponents="3" format="ascii">-2.3801071209158407e-08 -9.9956644499615927e-09 0.0000000000000000e+00  4.9450498925995618e-08 -6.2678564531072312e-09 0.0000000000000000e+00  4.3856305225717922e-08 -2.1622702148310600e-09 0.0000000000000000e+00  4.1476705363768209e-08 -8.3452956861905563e-10 0.0000000000000000e+00  4.0287240021020882e-08 -3.4756880386654255e-10 0.0000000000000000e+00  3.9489624464559750e-08 -1.1533207938744939e-10 0.0000000000000000e+00  3.8895796870869752e-08 2.0234236892080971e-11 0.0000000000000000e+00  3.8451469763227824e-08 1.1348307708851389e-10 0.0000000000000000e+00  3.8139409166704888e-08 1.8895492310530597e-10 0.0000000000000000e+00  3.7954704387603352e-08 2.6149569602378710e-10 0.0000000000000000e+00  3.7897556094504343e-08 3.4304237966589864e-10 0.0000000000000000e+00  3.7971950999866002e-08 4.4572690785890332e-10 0.0000000000000000e+00  3.8187851886730185e-08 5.8412799024649100e-10 0.0000000000000000e+00  3.8568254625700101e-08 7.7795370174746384e-10 0.0000000000000000e+00  3.9166941190189509e-08 1.0567817640846004e-09 0.0000000000000000e+00  4.0113288544421416e-08 1.4716065300851573e-09 0.0000000000000000e+00  4.1725390324708191e-08 2.1293241043838313e-09 0.0000000000000000e+00  4.4762798772290327e-08 3.2952492720795139e-09 0.0000000000000000e+00  5.0528181287574550e-08 5.6511896291859087e-09 0.0000000000000000e+00  5.7592959973527182e-08 9.8400491976930494e-09 0.0000000000000000e+00  -1.7105201847216047e-08 7.8777904228248765e-09 0.0000000000000000e+00  -1.7807925502168372e-08 -1.5123414235438676e-08 0.0000000000000000e+00  7.0348814305313423e-09 -1.1214021736901479e-08 0.0000000000000000e+00  1.7865455033925444e-08 -5.3568888911541377e-09 0.0000000000000000e+00  2.3178280996263007e-08 -2.4827844261709459e-09 0.0000000000000000e+00  2.5955337936190621e-08 -1.1896031605876377e-09 0.0000000000000000e+00  2.7542247972018335e-08 -5.6272791909992029e-10 0.0000000000000000e+00  2.8472669878530572e-08 -2.3617698737609540e-10 0.0000000000000000e+00  2.9016630624567574e-08 -5.7047572796014115e-11 0.0000000000000000e+00  2.9324209495840635e-08 4.5677459722584488e-11 0.0000000000000000e+00  2.9480163935443420e-08 1.1052120598450779e-10 0.0000000000000000e+00  2.9529933720018820e-08 1.6263922905830412e-10 0.0000000000000000e+00  2.9492074153247200e-08 2.2242564145218819e-10 0.0000000000000000e+00  2.9363163993599954e-08 3.1083663951552208e-10 0.0000000000000000e+00  2.9117211733455910e-08 4.5512195305115338e-10 0.0000000000000000e+00  2.8698263787478098e-08 6.9929263039197991e-10 0.0000000000000000e+00  2.7999008941412661e-08 1.1289656286205856e-09 0.0000000000000000e+00  2.6800205761789296e-08 1.9346567576857294e-09 0.0000000000000000e+00  2.4575689575832037e-08 3.5633506833977650e-09 0.0000000000000000e+00  1.9802282405200010e-08 6.9727417992830985e-09 0.0000000000000000e+00  7.9789433452545980e-09 1.3300199552498593e-08 0.0000000000000000e+00  -1.9004857810991981e-08 1.1508228452974393e-08 0.0000000000000000e+00  -1.1140707674775253e-08 -1.8323217831532404e-08 0.0000000000000000e+00  -5.3452635607198111e-10 -1.8451212473751078e-08 0.0000000000000000e+00  5.3048885492219310e-09 -1.1650134691709286e-08 0.0000000000000000e+00  1.0217819718521826e-08 -6.8567718462689802e-09 0.0000000000000000e+00  1.4172540159238134e-08 -4.0216023022352663e-09 0.0000000000000000e+00  1.6968244192068418e-08 -2.3777237473893600e-09 0.0000000000000000e+00  1.8862394856753329e-08 -1.3964289411847083e-09 0.0000000000000000e+00  2.0117084383001420e-08 -7.8567967682694845e-10 0.0000000000000000e+00  2.0914311410811768e-08 -3.8378156298211253e-10 0.0000000000000000e+00  2.1368394243158185e-08 -9.4573009575553939e-11 0.0000000000000000e+00  2.1543426514652494e-08 1.4678176532679889e-10 0.0000000000000000e+00  2.1464223359639490e-08 3.9252784397608301e-10 0.0000000000000000e+00  2.1120437697971127e-08 6.9514522193249184e-10 0.0000000000000000e+00  2.0464054684593049e-08 1.1206221425272688e-09 0.0000000000000000e+00  1.9399143881239595e-08 1.7687182548055568e-09 0.0000000000000000e+00  1.7761290942340104e-08 2.8095838095501332e-09 0.0000000000000000e+00  1.5285163564564158e-08 4.5464205165056197e-09 0.0000000000000000e+00  1.1573716824740566e-08 7.4792074448479695e-09 0.0000000000000000e+00  6.1489673708472184e-09 1.2123663076139049e-08 0.0000000000000000e+00  -1.3421728868194049e-09 1.7481996989160003e-08 0.0000000000000000e+00  -1.4207376772632827e-08 1.4990830234453873e-08 0.0000000000000000e+00  -7.5977081958265637e-09 -1.8774450127090138e-08 0.0000000000000000e+00  -1.7240939040000876e-09 -1.9599783313643039e-08 0.0000000000000000e+00  7.0778194205810857e-10 -1.5575207057977071e-08 0.0000000000000000e+00  3.3673702973194110e-09 -1.0813142385342081e-08 0.0000000000000000e+00  6.2798334640834643e-09 -7.2047722161684246e-09 0.0000000000000000e+00  8.8805664021116641e-09 -4.7231184199577978e-09 0.0000000000000000e+00  1.0924788405408147e-08 -3.0459397253914784e-09 0.0000000000000000e+00  1.2413995642897798e-08 -1.8924953897814462e-09 0.0000000000000000e+00  1.3423872130434384e-08 -1.0645082651173301e-09 0.0000000000000000e+00  1.4027108967908048e-08 -4.2414318834190084e-10 0.0000000000000000e+00  1.4271950924244465e-08 1.3102472437840397e-10 0.0000000000000000e+00  1.4177912548271195e-08 6.8737758487166722e-10 0.0000000000000000e+00  1.3735105749127371e-08 1.3309527539763597e-09 0.0000000000000000e+00  1.2903641399577541e-08 2.1630831716517525e-09 0.0000000000000000e+00  1.1614000312230457e-08 3.3190767998456083e-09 0.0000000000000000e+00  9.7747499273009567e-09 4.9892386621820246e-09 0.0000000000000000e+00  7.3059264832278989e-09 7.4246436203819743e-09 0.0000000000000000e+00  4.2351261903033588e-09 1.0852149604883828e-08 0.0000000000000000e+00  8.5213402003645339e-10 1.5087420285775152e-08 0.0000000000000000e+00  -2.6531577515834765e-09 1.8607864709510706e-08 0.0000000000000000e+00  -1.0173301856500917e-08 1.7729223904477737e-08 0.0000000000000000e+00  -5.7964177042674018e-09 -1.8114408563579589e-08 0.0000000000000000e+00  -2.0005846757684578e-09 -1.9100595550539225e-08 0.0000000000000000e+00  -1.2153701529999646e-09 -1.6825233782951340e-08 0.0000000000000000e+00  -2.2164927516063683e-10 -1.3147655824270550e-08 0.0000000000000000e+00  1.3590459304993686e-09 -9.6463890062149710e-09 0.0000000000000000e+00  3.1461621875024455e-09 -6.8291995654130278e-09 0.0000000000000000e+00  4.7864816676302491e-09 -4.6908105783661842e-09 0.0000000000000000e+00  6.1122257748264517e-09 -3.0805336100573365e-09 0.0000000000000000e+00  7.0758224275518117e-09 -1.8370776429536925e-09 0.0000000000000000e+00  7.6796247246638121e-09 -8.2096479802949562e-10 0.0000000000000000e+00  7.9366805144510762e-09 8.6069561292509061e-11 0.0000000000000000e+00  7.8537847244883607e-09 9.9040182114154652e-10 0.0000000000000000e+00  7.4260061945549936e-09 1.9974195906144644e-09 0.0000000000000000e+00  6.6382593817843848e-09 3.2220270945355971e-09 0.0000000000000000e+00  5.4750770301571927e-09 4.7963154824270087e-09 0.0000000000000000e+00  3.9450099307583229e-09 6.8658575560545338e-09 0.0000000000000000e+00  2.1298163560170951e-09 9.5502684960720360e-09 0.0000000000000000e+00  2.5428602386074351e-10 1.2816940091057849e-08 0.0000000000000000e+00  -1.3339501484534593e-09 1.6217523633495822e-08 0.0000000000000000e+00  -2.8201347315606132e-09 1.8624977004074502e-08 0.0000000000000000e+00  -7.9158916799533686e-09 1.8693547262143641e-08 0.0000000000000000e+00  -4.7639631643610444e-09 -1.6968692864784087e-08 0.0000000000000000e+00  -2.1295937997507095e-09 -1.8027150238727562e-08 0.0000000000000000e+00  -2.1891056570108267e-09 -1.6679536585864359e-08 0.0000000000000000e+00  -2.2327671241844155e-09 -1.4016251151013656e-08 0.0000000000000000e+00  -1.7193809075257310e-09 -1.1027486214289583e-08 0.0000000000000000e+00  -8.0733662999477264e-10 -8.2865848803651212e-09 0.0000000000000000e+00  2.2409663238514186e-10 -5.9789474089329103e-09 0.0000000000000000e+00  1.1693604473764692e-09 -4.0918073545082842e-09 0.0000000000000000e+00  1.9154210849888200e-09 -2.5360234663430048e-09 0.0000000000000000e+00  2.4106137194494917e-09 -1.2023829131167279e-09 0.0000000000000000e+00  2.6347832387388538e-09 1.8861940104776330e-11 0.0000000000000000e+00  2.5815108386012658e-09 1.2344210060377070e-09 0.0000000000000000e+00  2.2512194043885168e-09 2.5499248774055964e-09 0.0000000000000000e+00  1.6533343666466976e-09 4.0716872987780098e-09 0.0000000000000000e+00  8.1776631657337030e-10 5.9026465650675099e-09 0.0000000000000000e+00  -1.8285984792664784e-10 8.1231500604944008e-09 0.0000000000000000e+00  -1.2033284019406517e-09 1.0741344119070590e-08 0.0000000000000000e+00  -2.0150424816913308e-09 1.3599258013436720e-08 0.0000000000000000e+00  -2.4197616485812633e-09 1.6259287746762976e-08 0.0000000000000000e+00  -2.8408123623953682e-09 1.8007549960179618e-08 0.0000000000000000e+00  -6.4781716624406958e-09 1.8446547266043219e-08 0.0000000000000000e+00  -4.0990474716411056e-09 -1.5558856794022199e-08 0.0000000000000000e+00  -2.2283370246446822e-09 -1.6649928816996875e-08 0.0000000000000000e+00  -2.7787087652546976e-09 -1.5826549223702839e-08 0.0000000000000000e+00  -3.4610109454182455e-09 -1.3900113599666208e-08 0.0000000000000000e+00  -3.7069001948448356e-09 -1.1478936344164388e-08 0.0000000000000000e+00  -3.5284655949842433e-09 -9.0214799076051872e-09 0.0000000000000000e+00  -3.1006083822864206e-09 -6.7660782983408173e-09 0.0000000000000000e+00  -2.5973236314247579e-09 -4.7844703609617588e-09 0.0000000000000000e+00  -2.1432287951142117e-09 -3.0539698853418127e-09 0.0000000000000000e+00  -1.8138543498918625e-09 -1.5070807971258834e-09 0.0000000000000000e+00  -1.6489076955283829e-09 -5.8127966389885558e-11 0.0000000000000000e+00  -1.6637114050243704e-09 1.3842625360259053e-09 0.0000000000000000e+00  -1.8544789195907072e-09 2.9109428790097567e-09 0.0000000000000000e+00  -2.1968110626559671e-09 4.6062596267582151e-09 0.0000000000000000e+00  -2.6378879342369154e-09 6.5367008252556677e-09 0.0000000000000000e+00  -3.0846819983841853e-09 8.7279671519175924e-09 0.0000000000000000e+00  -3.3967985440014682e-09 1.1125447447617041e-08 0.0000000000000000e+00  -3.4095368495188328e-09 1.3542993242337657e-08 0.0000000000000000e+00  -3.0578730591985491e-09 1.5633346451467316e-08 0.0000000000000000e+00  -2.8394471115535998e-09 1.6956514997898847e-08 0.0000000000000000e+00  -5.4711121764977549e-09 1.7544360230278295e-08 0.0000000000000000e+00  -3.6356196608819259e-09 -1.3974220483478851e-08 0.0000000000000000e+00  -2.3123504732117905e-09 -1.5075024885556951e-08 0.0000000000000000e+00  -3.1819869134187385e-09 -1.4568579989172394e-08 0.0000000000000000e+00  -4.2701648448655278e-09 -1.3159443964485030e-08 0.0000000000000000e+00  -5.0376459813873417e-09 -1.1235317355268481e-08 0.0000000000000000e+00  -5.4178396369772674e-09 -9.1270876210725364e-09 0.0000000000000000e+00  -5.5010007226879224e-09 -7.0538689802749902e-09 0.0000000000000000e+00  -5.4103281886465057e-09 -5.1201424635526963e-09 0.0000000000000000e+00  -5.2523342169160424e-09 -3.3467913037897546e-09 0.0000000000000000e+00  -5.1025098913430887e-09 -1.7037898792490181e-09 0.0000000000000000e+00  -5.0059054745562610e-09 -1.3419268378435381e-10 0.0000000000000000e+00  -4.9813321935482543e-09 1.4302449263598141e-09 0.0000000000000000e+00  -5.0240089684201546e-09 3.0580871284640323e-09 0.0000000000000000e+00  -5.1050590901573331e-09 4.8077400741262725e-09 0.0000000000000000e+00  -5.1685389991054291e-09 6.7136571834364209e-09 0.0000000000000000e+00  -5.1292856190153744e-09 8.7664409948730193e-09 0.0000000000000000e+00  -4.8795108747248554e-09 1.0887453858447289e-08 0.0000000000000000e+00  -4.3215886628496380e-09 1.2906916970648361e-08 0.0000000000000000e+00  -3.4730797547565769e-09 1.4568520883906894e-08 0.0000000000000000e+00  -2.8309459588351616e-09 1.5600444273316588e-08 0.0000000000000000e+00  -4.7285254731642242e-09 1.6264058392597016e-08 0.0000000000000000e+00  -3.2974770132985243e-09 -1.2261401023175004e-08 0.0000000000000000e+00  -2.3835898270040406e-09 -1.3358906234514241e-08 0.0000000000000000e+00  -3.4763889515900565e-09 -1.3054796672070663e-08 0.0000000000000000e+00  -4.8323457961273208e-09 -1.2016094473819916e-08 0.0000000000000000e+00  -5.9555006689128223e-09 -1.0500947020010575e-08 0.0000000000000000e+00  -6.7421526070392614e-09 -8.7409421890422227e-09 0.0000000000000000e+00  -7.2245349880101510e-09 -6.9135525184565737e-09 0.0000000000000000e+00  -7.4784675207662445e-09 -5.1246319155581619e-09 0.0000000000000000e+00  -7.5821414662523877e-09 -3.4165921693838117e-09 0.0000000000000000e+00  -7.5980609184850159e-09 -1.7862107939013326e-09 0.0000000000000000e+00  -7.5669687597775892e-09 -2.0233912617602568e-10 0.0000000000000000e+00  -7.5069698354721228e-09 1.3794501709304255e-09 0.0000000000000000e+00  -7.4139703113035139e-09 3.0046287579082203e-09 0.0000000000000000e+00  -7.2619414271183598e-09 4.7079790319892099e-09 0.0000000000000000e+00  -7.0035442842962545e-09 6.5005503131264600e-09 0.0000000000000000e+00  -6.5737293922115077e-09 8.3547852792857766e-09 0.0000000000000000e+00  -5.9016217600781352e-09 1.0190255950014646e-08 0.0000000000000000e+00  -4.9414668686740665e-09 1.1867336351265409e-08 0.0000000000000000e+00  -3.7563430297704412e-09 1.3202007100579061e-08 0.0000000000000000e+00  -2.8177431418424081e-09 1.4026858935054995e-08 0.0000000000000000e+00  -4.1650958600889180e-09 1.4743679991112791e-08 0.0000000000000000e+00  -3.0457407331723473e-09 -1.0451126372268834e-08 0.0000000000000000e+00  -2.4430688845672843e-09 -1.1537772932580991e-08 0.0000000000000000e+00  -3.6975715775775831e-09 -1.1370060262813864e-08 0.0000000000000000e+00  -5.2350052391571927e-09 -1.0606527478249135e-08 0.0000000000000000e+00  -6.6005244183385921e-09 -9.4266303618217372e-09 0.0000000000000000e+00  -7.6753044086506088e-09 -7.9911038668375718e-09 0.0000000000000000e+00  -8.4546964040777219e-09 -6.4353994151955140e-09 0.0000000000000000e+00  -8.9773414950354435e-09 -4.8524529699636772e-09 0.0000000000000000e+00  -9.2934565600366142e-09 -3.2910233930194062e-09 0.0000000000000000e+00  -9.4481878573650929e-09 -1.7638300839182986e-09 0.0000000000000000e+00  -9.4733484568951833e-09 -2.5916285220669685e-10 0.0000000000000000e+00  -9.3839832066701473e-09 1.2473066396976802e-09 0.0000000000000000e+00  -9.1774814668716329e-09 2.7813667757913642e-09 0.0000000000000000e+00  -8.8342322629303437e-09 4.3594504409964633e-09 0.0000000000000000e+00  -8.3201191775895788e-09 5.9778065982561902e-09 0.0000000000000000e+00  -7.5924184919841257e-09 7.6022487768160621e-09 0.0000000000000000e+00  -6.6121147233177095e-09 9.1609218635234311e-09 0.0000000000000000e+00  -5.3695953963331575e-09 1.0544863119716367e-08 0.0000000000000000e+00  -3.9519348025096713e-09 1.1623678954177887e-08 0.0000000000000000e+00  -2.8007050857914438e-09 1.2296935537558822e-08 0.0000000000000000e+00  -3.7303026725646226e-09 1.3059733848763776e-08 0.0000000000000000e+00  -2.8588789538985668e-09 -8.5666222347490008e-09 0.0000000000000000e+00  -2.4923227922790974e-09 -9.6379547323921484e-09 0.0000000000000000e+00  -3.8652212172215368e-09 -9.5679673010485221e-09 0.0000000000000000e+00  -5.5270668234514416e-09 -9.0182918160775659e-09 0.0000000000000000e+00  -7.0571150594700428e-09 -8.1188778708879645e-09 0.0000000000000000e+00  -8.3320344945171582e-09 -6.9809124209512383e-09 0.0000000000000000e+00  -9.3246468447449893e-09 -5.7042214715396190e-09 0.0000000000000000e+00  -1.0046765028013507e-08 -4.3642577704494066e-09 0.0000000000000000e+00  -1.0525265832187398e-08 -3.0073663714541408e-09 0.0000000000000000e+00  -1.0788522924222542e-08 -1.6536344488765892e-09 0.0000000000000000e+00  -1.0858392216717426e-08 -3.0390668701718736e-10 0.0000000000000000e+00  -1.0746024425515979e-08 1.0515599587794303e-09 0.0000000000000000e+00  -1.0450419941341581e-08 2.4240810998770604e-09 0.0000000000000000e+00  -9.9591874614901453e-09 3.8176858729195070e-09 0.0000000000000000e+00  -9.2516107617239285e-09 5.2208389242101968e-09 0.0000000000000000e+00  -8.3047544766373888e-09 6.5996954667978719e-09 0.0000000000000000e+00  -7.1041875391564576e-09 7.8947783240044168e-09 0.0000000000000000e+00  -5.6644764793748850e-09 9.0239175085617615e-09 0.0000000000000000e+00  -4.0851259614004004e-09 9.8958603147926296e-09 0.0000000000000000e+00  -2.7804335950426412e-09 1.0454598311961342e-08 0.0000000000000000e+00  -3.3918426470592271e-09 1.1259820009387102e-08 0.0000000000000000e+00  -2.7243371619607409e-09 -6.6265576546127048e-09 0.0000000000000000e+00  -2.5333169540572063e-09 -7.6799214174429178e-09 0.0000000000000000e+00  -3.9920623476914451e-09 -7.6849271349201167e-09 0.0000000000000000e+00  -5.7387340108250940e-09 -7.3099237084428839e-09 0.0000000000000000e+00  -7.3790120487955638e-09 -6.6525134937685818e-09 0.0000000000000000e+00  -8.7897644285780452e-09 -5.7890161683686249e-09 0.0000000000000000e+00  -9.9304364348191988e-09 -4.7907644794205312e-09 0.0000000000000000e+00  -1.0794472381190349e-08 -3.7155948322245809e-09 0.0000000000000000e+00  -1.1391024574589532e-08 -2.6029948051279410e-09 0.0000000000000000e+00  -1.1734494132783151e-08 -1.4744480388110025e-09 0.0000000000000000e+00  -1.1837746377601109e-08 -3.3738926101281532e-10 0.0000000000000000e+00  -1.1708150761599764e-08 8.0889691890267647e-10 0.0000000000000000e+00  -1.1346067127127402e-08 1.9666090891308002e-09 0.0000000000000000e+00  -1.0745560090425644e-08 3.1327716848093978e-09 0.0000000000000000e+00  -9.8973311642282888e-09 4.2932839873965661e-09 0.0000000000000000e+00  -8.7940980566389415e-09 5.4186055211339712e-09 0.0000000000000000e+00  -7.4392678939114294e-09 6.4623932617902559e-09 0.0000000000000000e+00  -5.8633126937103574e-09 7.3647461251399050e-09 0.0000000000000000e+00  -4.1721558309000623e-09 8.0631921939164680e-09 0.0000000000000000e+00  -2.7575761729592717e-09 8.5321305594590115e-09 0.0000000000000000e+00  -3.1283837134477319e-09 9.3765308249092036e-09 0.0000000000000000e+00  -2.6346610790443520e-09 -4.6463342156594014e-09 0.0000000000000000e+00  -2.5681669294900150e-09 -5.6800600121211874e-09 0.0000000000000000e+00  -4.0871656638584776e-09 -5.7469455069311954e-09 0.0000000000000000e+00  -5.8900750075840675e-09 -5.5219272614298069e-09 0.0000000000000000e+00  -7.6019193357007082e-09 -5.0805040921653043e-09 0.0000000000000000e+00  -9.1015656355111283e-09 -4.4738563857948528e-09 0.0000000000000000e+00  -1.0340813337747641e-08 -3.7507635615204842e-09 0.0000000000000000e+00  -1.1301117314801289e-08 -2.9528885618284897e-09 0.0000000000000000e+00  -1.1979100669391141e-08 -2.1108956872586712e-09 0.0000000000000000e+00  -1.2378614894780949e-08 -1.2438220160156766e-09 0.0000000000000000e+00  -1.2505344693283987e-08 -3.6112510565929173e-10 0.0000000000000000e+00  -1.2363453468365040e-08 5.3358138373678788e-10 0.0000000000000000e+00  -1.1954241714760626e-08 1.4379888405737748e-09 0.0000000000000000e+00  -1.1276780852174740e-08 2.3464722513253199e-09 0.0000000000000000e+00  -1.0330457825070997e-08 3.2460545611074422e-09 0.0000000000000000e+00  -9.1194114085724988e-09 4.1137022197967943e-09 0.0000000000000000e+00  -7.6593980362134002e-09 4.9158174135483487e-09 0.0000000000000000e+00  -5.9912369225782752e-09 5.6109288186994180e-09 0.0000000000000000e+00  -4.2242579867931821e-09 6.1582418188882075e-09 0.0000000000000000e+00  -2.7328796108569023e-09 6.5536921966995988e-09 0.0000000000000000e+00  -2.9256701413000145e-09 7.4337437908147375e-09 0.0000000000000000e+00  -2.5855457813343319e-09 -2.6388937187873712e-09 0.0000000000000000e+00  -2.5988778240429083e-09 -3.6517220143507859e-09 0.0000000000000000e+00  -4.1571648585792709e-09 -3.7733415656293359e-09 0.0000000000000000e+00  -5.9947763292654515e-09 -3.6832690201892829e-09 0.0000000000000000e+00  -7.7498024956121210e-09 -3.4409803059612942e-09 0.0000000000000000e+00  -9.3035400454035955e-09 -3.0787303052298315e-09 0.0000000000000000e+00  -1.0603783591845793e-08 -2.6270974208