<?xml version="1.0"?>
<VTKFile type="UnstructuredGrid"  version="0.1"  >
<UnstructuredGrid>
<Piece  NumberOfPoints="651" NumberOfCells="1200">
<Points>
<DataArray  type="Float64"  NumberOfComponents="3"  format="ascii">0 0 0  50000 0 0  100000 0 0  150000 0 0  200000 0 0  250000 0 0  300000 0 0  350000 0 0  400000 0 0  450000 0 0  500000 0 0  550000 0 0  600000 0 0  650000 0 0  700000 0 0  750000 0 0  800000 0 0  850000 0 0  900000 0 0  950000 0 0  1000000 0 0  0 50000 0  50000 50000 0  100000 50000 0  150000 50000 0  200000 50000 0  250000 50000 0  300000 50000 0  350000 50000 0  400000 50000 0  450000 50000 0  500000 50000 0  550000 50000 0  600000 50000 0  650000 50000 0  700000 50000 0  750000 50000 0  800000 50000 0  850000 50000 0  900000 50000 0  950000 50000 0  1000000 50000 0  0 100000 0  50000 100000 0  100000 100000 0  150000 100000 0  200000 100000 0  250000 100000 0  300000 100000 0  350000 100000 0  400000 100000 0  450000 100000 0  500000 100000 0  550000 100000 0  600000 100000 0  650000 100000 0  700000 100000 0  750000 100000 0  800000 100000 0  850000 100000 0  900000 100000 0  950000 100000 0  1000000 100000 0  0 150000 0  50000 150000 0  100000 150000 0  150000 150000 0  200000 150000 0  250000 150000 0  300000 150000 0  350000 150000 0  400000 150000 0  450000 150000 0  500000 150000 0  550000 150000 0  600000 150000 0  650000 150000 0  700000 150000 0  750000 150000 0  800000 150000 0  850000 150000 0  900000 150000 0  950000 150000 0  1000000 150000 0  0 200000 0  50000 200000 0  100000 200000 0  150000 200000 0  200000 200000 0  250000 200000 0  300000 200000 0  350000 200000 0  400000 200000 0  450000 200000 0  500000 200000 0  550000 200000 0  600000 200000 0  650000 200000 0  700000 200000 0  750000 200000 0  800000 200000 0  850000 200000 0  900000 200000 0  950000 200000 0  1000000 200000 0  0 250000 0  50000 250000 0  100000 250000 0  150000 250000 0  200000 250000 0  250000 250000 0  300000 250000 0  350000 250000 0  400000 250000 0  450000 250000 0  500000 250000 0  550000 250000 0  600000 250000 0  650000 250000 0  700000 250000 0  750000 250000 0  800000 250000 0  850000 250000 0  900000 250000 0  950000 250000 0  1000000 250000 0  0 300000 0  50000 300000 0  100000 300000 0  150000 300000 0  200000 300000 0  250000 300000 0  300000 300000 0  350000 300000 0  400000 300000 0  450000 300000 0  500000 300000 0  550000 300000 0  600000 300000 0  650000 300000 0  700000 300000 0  750000 300000 0  800000 300000 0  850000 300000 0  900000 300000 0  950000 300000 0  1000000 300000 0  0 350000 0  50000 350000 0  100000 350000 0  150000 350000 0  200000 350000 0  250000 350000 0  300000 350000 0  350000 350000 0  400000 350000 0  450000 350000 0  500000 350000 0  550000 350000 0  600000 350000 0  650000 350000 0  700000 350000 0  750000 350000 0  800000 350000 0  850000 350000 0  900000 350000 0  950000 350000 0  1000000 350000 0  0 400000 0  50000 400000 0  100000 400000 0  150000 400000 0  200000 400000 0  250000 400000 0  300000 400000 0  350000 400000 0  400000 400000 0  450000 400000 0  500000 400000 0  550000 400000 0  600000 400000 0  650000 400000 0  700000 400000 0  750000 400000 0  800000 400000 0  850000 400000 0  900000 400000 0  950000 400000 0  1000000 400000 0  0 450000 0  50000 450000 0  100000 450000 0  150000 450000 0  200000 450000 0  250000 450000 0  300000 450000 0  350000 450000 0  400000 450000 0  450000 450000 0  500000 450000 0  550000 450000 0  600000 450000 0  650000 450000 0  700000 450000 0  750000 450000 0  800000 450000 0  850000 450000 0  900000 450000 0  950000 450000 0  1000000 450000 0  0 500000 0  50000 500000 0  100000 500000 0  150000 500000 0  200000 500000 0  250000 500000 0  300000 500000 0  350000 500000 0  400000 500000 0  450000 500000 0  500000 500000 0  550000 500000 0  600000 500000 0  650000 500000 0  700000 500000 0  750000 500000 0  800000 500000 0  850000 500000 0  900000 500000 0  950000 500000 0  1000000 500000 0  0 550000 0  50000 550000 0  100000 550000 0  150000 550000 0  200000 550000 0  250000 550000 0  300000 550000 0  350000 550000 0  400000 550000 0  450000 550000 0  500000 550000 0  550000 550000 0  600000 550000 0  650000 550000 0  700000 550000 0  750000 550000 0  800000 550000 0  850000 550000 0  900000 550000 0  950000 550000 0  1000000 550000 0  0 600000 0  50000 600000 0  100000 600000 0  150000 600000 0  200000 600000 0  250000 600000 0  300000 600000 0  350000 600000 0  400000 600000 0  450000 600000 0  500000 600000 0  550000 600000 0  600000 600000 0  650000 600000 0  700000 600000 0  750000 600000 0  800000 600000 0  850000 600000 0  900000 600000 0  950000 600000 0  1000000 600000 0  0 650000 0  50000 650000 0  100000 650000 0  150000 650000 0  200000 650000 0  250000 650000 0  300000 650000 0  350000 650000 0  400000 650000 0  450000 650000 0  500000 650000 0  550000 650000 0  600000 650000 0  650000 650000 0  700000 650000 0  750000 650000 0  800000 650000 0  850000 650000 0  900000 650000 0  950000 650000 0  1000000 650000 0  0 700000 0  50000 700000 0  100000 700000 0  150000 700000 0  200000 700000 0  250000 700000 0  300000 700000 0  350000 700000 0  400000 700000 0  450000 700000 0  500000 700000 0  550000 700000 0  600000 700000 0  650000 700000 0  700000 700000 0  750000 700000 0  800000 700000 0  850000 700000 0  900000 700000 0  950000 700000 0  1000000 700000 0  0 750000 0  50000 750000 0  100000 750000 0  150000 750000 0  200000 750000 0  250000 750000 0  300000 750000 0  350000 750000 0  400000 750000 0  450000 750000 0  500000 750000 0  550000 750000 0  600000 750000 0  650000 750000 0  700000 750000 0  750000 750000 0  800000 750000 0  850000 750000 0  900000 750000 0  950000 750000 0  1000000 750000 0  0 800000 0  50000 800000 0  100000 800000 0  150000 800000 0  200000 800000 0  250000 800000 0  300000 800000 0  350000 800000 0  400000 800000 0  450000 800000 0  500000 800000 0  550000 800000 0  600000 800000 0  650000 800000 0  700000 800000 0  750000 800000 0  800000 800000 0  850000 800000 0  900000 800000 0  950000 800000 0  1000000 800000 0  0 850000 0  50000 850000 0  100000 850000 0  150000 850000 0  200000 850000 0  250000 850000 0  300000 850000 0  350000 850000 0  400000 850000 0  450000 850000 0  500000 850000 0  550000 850000 0  600000 850000 0  650000 850000 0  700000 850000 0  750000 850000 0  800000 850000 0  850000 850000 0  900000 850000 0  950000 850000 0  1000000 850000 0  0 900000 0  50000 900000 0  100000 900000 0  150000 900000 0  200000 900000 0  250000 900000 0  300000 900000 0  350000 900000 0  400000 900000 0  450000 900000 0  500000 900000 0  550000 900000 0  600000 900000 0  650000 900000 0  700000 900000 0  750000 900000 0  800000 900000 0  850000 900000 0  900000 900000 0  950000 900000 0  1000000 900000 0  0 950000 0  50000 950000 0  100000 950000 0  150000 950000 0  200000 950000 0  250000 950000 0  300000 950000 0  350000 950000 0  400000 950000 0  450000 950000 0  500000 950000 0  550000 950000 0  600000 950000 0  650000 950000 0  700000 950000 0  750000 950000 0  800000 950000 0  850000 950000 0  900000 950000 0  950000 950000 0  1000000 950000 0  0 1000000 0  50000 1000000 0  100000 1000000 0  150000 1000000 0  200000 1000000 0  250000 1000000 0  300000 1000000 0  350000 1000000 0  400000 1000000 0  450000 1000000 0  500000 1000000 0  550000 1000000 0  600000 1000000 0  650000 1000000 0  700000 1000000 0  750000 1000000 0  800000 1000000 0  850000 1000000 0  900000 1000000 0  950000 1000000 0  1000000 1000000 0  0 1050000 0  50000 1050000 0  100000 1050000 0  150000 1050000 0  200000 1050000 0  250000 1050000 0  300000 1050000 0  350000 1050000 0  400000 1050000 0  450000 1050000 0  500000 1050000 0  550000 1050000 0  600000 1050000 0  650000 1050000 0  700000 1050000 0  750000 1050000 0  800000 1050000 0  850000 1050000 0  900000 1050000 0  950000 1050000 0  1000000 1050000 0  0 1100000 0  50000 1100000 0  100000 1100000 0  150000 1100000 0  200000 1100000 0  250000 1100000 0  300000 1100000 0  350000 1100000 0  400000 1100000 0  450000 1100000 0  500000 1100000 0  550000 1100000 0  600000 1100000 0  650000 1100000 0  700000 1100000 0  750000 1100000 0  800000 1100000 0  850000 1100000 0  900000 1100000 0  950000 1100000 0  1000000 1100000 0  0 1150000 0  50000 1150000 0  100000 1150000 0  150000 1150000 0  200000 1150000 0  250000 1150000 0  300000 1150000 0  350000 1150000 0  400000 1150000 0  450000 1150000 0  500000 1150000 0  550000 1150000 0  600000 1150000 0  650000 1150000 0  700000 1150000 0  750000 1150000 0  800000 1150000 0  850000 1150000 0  900000 1150000 0  950000 1150000 0  1000000 1150000 0  0 1200000 0  50000 1200000 0  100000 1200000 0  150000 1200000 0  200000 1200000 0  250000 1200000 0  300000 1200000 0  350000 1200000 0  400000 1200000 0  450000 1200000 0  500000 1200000 0  550000 1200000 0  600000 1200000 0  650000 1200000 0  700000 1200000 0  750000 1200000 0  800000 1200000 0  850000 1200000 0  900000 1200000 0  950000 1200000 0  1000000 1200000 0  0 1250000 0  50000 1250000 0  100000 1250000 0  150000 1250000 0  200000 1250000 0  250000 1250000 0  300000 1250000 0  350000 1250000 0  400000 1250000 0  450000 1250000 0  500000 1250000 0  550000 1250000 0  600000 1250000 0  650000 1250000 0  700000 1250000 0  750000 1250000 0  800000 1250000 0  850000 1250000 0  900000 1250000 0  950000 1250000 0  1000000 1250000 0  0 1300000 0  50000 1300000 0  100000 1300000 0  150000 1300000 0  200000 1300000 0  250000 1300000 0  300000 1300000 0  350000 1300000 0  400000 1300000 0  450000 1300000 0  500000 1300000 0  550000 1300000 0  600000 1300000 0  650000 1300000 0  700000 1300000 0  750000 1300000 0  800000 1300000 0  850000 1300000 0  900000 1300000 0  950000 1300000 0  1000000 1300000 0  0 1350000 0  50000 1350000 0  100000 1350000 0  150000 1350000 0  200000 1350000 0  250000 1350000 0  300000 1350000 0  350000 1350000 0  400000 1350000 0  450000 1350000 0  500000 1350000 0  550000 1350000 0  600000 1350000 0  650000 1350000 0  700000 135
[...]
<PointData  Vectors="f_1513"> 
<DataArray  type="Float64"  Name="f_1513"  NumberOfComponents="3" format="ascii">-2.4447463621803110e-08 -1.0236095414302991e-08 0.0000000000000000e+00  4.8622362730223219e-08 -6.3262729805734359e-09 0.0000000000000000e+00  4.2912609038929660e-08 -2.0416497913517781e-09 0.0000000000000000e+00  4.0474197248999545e-08 -6.9199437801523541e-10 0.0000000000000000e+00  3.9283431151447681e-08 -2.3272443877122429e-10 0.0000000000000000e+00  3.8508043697112159e-08 -4.6047132515648604e-11 0.0000000000000000e+00  3.7951562387180799e-08 3.5261124104044444e-11 0.0000000000000000e+00  3.7557402694820226e-08 6.8564020302238536e-11 0.0000000000000000e+00  3.7307925849360638e-08 7.8413894994032341e-11 0.0000000000000000e+00  3.7198745857011435e-08 7.8004822002015936e-11 0.0000000000000000e+00  3.7230993180047479e-08 7.6507457856284344e-11 0.0000000000000000e+00  3.7409548902503034e-08 8.2389758778186345e-11 0.0000000000000000e+00  3.7744629358165019e-08 1.0593588762922471e-10 0.0000000000000000e+00  3.8257822190918553e-08 1.6278739238465564e-10 0.0000000000000000e+00  3.8998149763370915e-08 2.8125334668054516e-10 0.0000000000000000e+00  4.0084583741832515e-08 5.2042042239574559e-10 0.0000000000000000e+00  4.1818390324222682e-08 1.0187982248075886e-09 0.0000000000000000e+00  4.4946509959943575e-08 2.1209609843048964e-09 0.0000000000000000e+00  5.0798671429990103e-08 4.6443740907571122e-09 0.0000000000000000e+00  5.8045282554962638e-08 9.1564508221093243e-09 0.0000000000000000e+00  -1.6408018210863753e-08 7.0507903939329858e-09 0.0000000000000000e+00  -1.8217072258211780e-08 -1.5794146093186345e-08 0.0000000000000000e+00  7.2203208018481961e-09 -1.1272387256181620e-08 0.0000000000000000e+00  1.8101246766360424e-08 -5.2506352980751298e-09 0.0000000000000000e+00  2.3176230439431219e-08 -2.3969506592486219e-09 0.0000000000000000e+00  2.5779966168906009e-08 -1.1422817404462728e-09 0.0000000000000000e+00  2.7254753114382792e-08 -5.5087064367501564e-10 0.0000000000000000e+00  2.8113922457707860e-08 -2.5463080463413336e-10 0.0000000000000000e+00  2.8617765718578832e-08 -1.0340135402749170e-10 0.0000000000000000e+00  2.8909965775440880e-08 -2.8175368573230114e-11 0.0000000000000000e+00  2.9070781020582562e-08 8.3785113860702054e-12 0.0000000000000000e+00  2.9142185041676370e-08 3.0805276612152086e-11 0.0000000000000000e+00  2.9139383237377648e-08 5.9571590412481711e-11 0.0000000000000000e+00  2.9054804332495281e-08 1.1683724542067980e-10 0.0000000000000000e+00  2.8856567970100600e-08 2.3306911720011068e-10 0.0000000000000000e+00  2.8480418471677918e-08 4.5883546735393186e-10 0.0000000000000000e+00  2.7809081712974363e-08 8.9072067397722913e-10 0.0000000000000000e+00  2.6617006803415136e-08 1.7322164794816910e-09 0.0000000000000000e+00  2.4393011862190657e-08 3.4295202478726731e-09 0.0000000000000000e+00  1.9693275249046958e-08 6.8731129729536856e-09 0.0000000000000000e+00  8.2717368342423839e-09 1.3027159604081206e-08 0.0000000000000000e+00  -1.8377003904093564e-08 1.0980869576631091e-08 0.0000000000000000e+00  -1.1249685439282406e-08 -1.9403807523874854e-08 0.0000000000000000e+00  -2.7716279177757616e-10 -1.8441417515681345e-08 0.0000000000000000e+00  5.8209085672235178e-09 -1.1363402568626980e-08 0.0000000000000000e+00  1.0697345184859975e-08 -6.5919560204120494e-09 0.0000000000000000e+00  1.4512965026871678e-08 -3.8278228796571929e-09 0.0000000000000000e+00  1.7164055644160591e-08 -2.2534445700018218e-09 0.0000000000000000e+00  1.8938139293943529e-08 -1.3304705984052018e-09 0.0000000000000000e+00  2.0100326489287642e-08 -7.6847026723475682e-10 0.0000000000000000e+00  2.0829876800577857e-08 -4.0864220254719907e-10 0.0000000000000000e+00  2.1237282467539086e-08 -1.5671914447867208e-10 0.0000000000000000e+00  2.1382615905756143e-08 5.1530564608934699e-11 0.0000000000000000e+00  2.1286531724465784e-08 2.6918157589433670e-10 0.0000000000000000e+00  2.0934252632173314e-08 5.5129402558468476e-10 0.0000000000000000e+00  2.0273178594987269e-08 9.6854625846896811e-10 0.0000000000000000e+00  1.9203523564785199e-08 1.6272916315046154e-09 0.0000000000000000e+00  1.7560069094228023e-08 2.7037547955349735e-09 0.0000000000000000e+00  1.5083679543453723e-08 4.4988039787213311e-09 0.0000000000000000e+00  1.1392821071764149e-08 7.4864847338487475e-09 0.0000000000000000e+00  6.0221512854040221e-09 1.2133499766316101e-08 0.0000000000000000e+00  -1.2881737772146676e-09 1.7586922161852567e-08 0.0000000000000000e+00  -1.3211566659749289e-08 1.4722944768863183e-08 0.0000000000000000e+00  -7.5587664515536926e-09 -2.0033319452751251e-08 0.0000000000000000e+00  -1.5600122713572488e-09 -1.9861320152015002e-08 0.0000000000000000e+00  1.1219592954405065e-09 -1.5322510178705092e-08 0.0000000000000000e+00  3.8854117807728677e-09 -1.0465215071396520e-08 0.0000000000000000e+00  6.7745613717078409e-09 -6.8910149673565266e-09 0.0000000000000000e+00  9.2915970106816830e-09 -4.4782147796359262e-09 0.0000000000000000e+00  1.1234991122416591e-08 -2.8732655775295793e-09 0.0000000000000000e+00  1.2627152535243413e-08 -1.7863280480044185e-09 0.0000000000000000e+00  1.3551521890203320e-08 -1.0174321983433702e-09 0.0000000000000000e+00  1.4082399518182646e-08 -4.2881377651819003e-10 0.0000000000000000e+00  1.4266966930477892e-08 8.2141508204534758e-11 0.0000000000000000e+00  1.4122503657726257e-08 6.0303157712508730e-10 0.0000000000000000e+00  1.3636542971556212e-08 1.2224369799619455e-09 0.0000000000000000e+00  1.2767087443377918e-08 2.0454064448861134e-09 0.0000000000000000e+00  1.1444106916424256e-08 3.2110050183557484e-09 0.0000000000000000e+00  9.5785185562366760e-09 4.9103165402373892e-09 0.0000000000000000e+00  7.0955022407041869e-09 7.3870888435801227e-09 0.0000000000000000e+00  4.0262824741018103e-09 1.0850533039299969e-08 0.0000000000000000e+00  6.6465946497593334e-10 1.5108926264774935e-08 0.0000000000000000e+00  -2.6251385655399723e-09 1.8748796057157028e-08 0.0000000000000000e+00  -8.9117801093617242e-09 1.7559052397784190e-08 0.0000000000000000e+00  -5.6956568459407013e-09 -1.9447130590940040e-08 0.0000000000000000e+00  -1.8940781308945825e-09 -1.9594662557791080e-08 0.0000000000000000e+00  -9.1821687695224685e-10 -1.6722798865120990e-08 0.0000000000000000e+00  2.1066813640439401e-10 -1.2831216951999477e-08 0.0000000000000000e+00  1.8405788199728538e-09 -9.2877738900620528e-09 0.0000000000000000e+00  3.6076552285394542e-09 -6.5039065399941428e-09 0.0000000000000000e+00  5.1885569587236308e-09 -4.4269149005381793e-09 0.0000000000000000e+00  6.4377993719740811e-09 -2.8849614409655184e-09 0.0000000000000000e+00  7.3208576776144892e-09 -1.7078677533205850e-09 0.0000000000000000e+00  7.8466226557344300e-09 -7.5232335857643759e-10 0.0000000000000000e+00  8.0308281652265570e-09 1.0208675005270821e-10 0.0000000000000000e+00  7.8809873186806156e-09 9.6371499453590328e-10 0.0000000000000000e+00  7.3922189571610717e-09 1.9402772112391451e-09 0.0000000000000000e+00  6.5498562762997928e-09 3.1491330657688844e-09 0.0000000000000000e+00  5.3400736472501510e-09 4.7238676853596408e-09 0.0000000000000000e+00  3.7745743492781483e-09 6.8086072627108126e-09 0.0000000000000000e+00  1.9386986584624468e-09 9.5167108600617139e-09 0.0000000000000000e+00  5.9995596434682252e-11 1.2806069567773076e-08 0.0000000000000000e+00  -1.4960720712708359e-09 1.6224989153437737e-08 0.0000000000000000e+00  -2.7382404245374480e-09 1.8691137325983656e-08 0.0000000000000000e+00  -6.6272508749968316e-09 1.8539108058089661e-08 0.0000000000000000e+00  -4.6374425585847923e-09 -1.8320258402858545e-08 0.0000000000000000e+00  -2.0653820860415894e-09 -1.8667666971681361e-08 0.0000000000000000e+00  -1.9901183885820394e-09 -1.6735937058791837e-08 0.0000000000000000e+00  -1.9080348530422292e-09 -1.3787027580933191e-08 0.0000000000000000e+00  -1.3166365739874865e-09 -1.0685793439546990e-08 0.0000000000000000e+00  -3.8263752983064495e-10 -7.9293004026276278e-09 0.0000000000000000e+00  6.2739011978398763e-10 -5.6551696877132217e-09 0.0000000000000000e+00  1.5235890685372482e-09 -3.8233517450001492e-09 0.0000000000000000e+00  2.2054823141358463e-09 -2.3299735410294279e-09 0.0000000000000000e+00  2.6298398517672838e-09 -1.0579207812698138e-09 0.0000000000000000e+00  2.7817280882755175e-09 1.0711546122622256e-10 0.0000000000000000e+00  2.6579742205309716e-09 1.2749234075308438e-09 0.0000000000000000e+00  2.2613888359789737e-09 2.5535093740776399e-09 0.0000000000000000e+00  1.6038237836522733e-09 4.0508538220866768e-09 0.0000000000000000e+00  7.1822213791038755e-10 5.8702131756494686e-09 0.0000000000000000e+00  -3.1914589542473025e-10 8.0899268152446308e-09 0.0000000000000000e+00  -1.3593520602001607e-09 1.0713222706920375e-08 0.0000000000000000e+00  -2.1688938861718165e-09 1.3575055177739359e-08 0.0000000000000000e+00  -2.5279454646147751e-09 1.6231101326649022e-08 0.0000000000000000e+00  -2.7172666839425779e-09 1.7984435342477477e-08 0.0000000000000000e+00  -5.2907578333889392e-09 1.8289156682092722e-08 0.0000000000000000e+00  -3.9613151403560851e-09 -1.6894235728413938e-08 0.0000000000000000e+00  -2.1964071717158558e-09 -1.7379929603642088e-08 0.0000000000000000e+00  -2.6580573637016891e-09 -1.6011067358137427e-08 0.0000000000000000e+00  -3.2372160805890511e-09 -1.3769684565837848e-08 0.0000000000000000e+00  -3.4011467397628104e-09 -1.1186847116745458e-08 0.0000000000000000e+00  -3.1795142288400127e-09 -8.6685531838429305e-09 0.0000000000000000e+00  -2.7463199390430904e-09 -6.4132691962613991e-09 0.0000000000000000e+00  -2.2674105170153632e-09 -4.4654624730828943e-09 0.0000000000000000e+00  -1.8581553699198935e-09 -2.7851371336467155e-09 0.0000000000000000e+00  -1.5861824926905651e-09 -1.2941678575590453e-09 0.0000000000000000e+00  -1.4850971023068749e-09 9.9682931101868098e-11 0.0000000000000000e+00  -1.5655230022046209e-09 1.4919708741882087e-09 0.0000000000000000e+00  -1.8197382673204271e-09 2.9762195733206283e-09 0.0000000000000000e+00  -2.2195898668514257e-09 4.6381669726158659e-09 0.0000000000000000e+00  -2.7083468784844101e-09 6.5441956686091212e-09 0.0000000000000000e+00  -3.1889308958940421e-09 8.7180140568146789e-09 0.0000000000000000e+00  -3.5169131233271577e-09 1.1100921545831217e-08 0.0000000000000000e+00  -3.5222319208969876e-09 1.3500788120435695e-08 0.0000000000000000e+00  -3.1214941897313508e-09 1.5563913451843064e-08 0.0000000000000000e+00  -2.7027444099296894e-09 1.6859256063015388e-08 0.0000000000000000e+00  -4.4275811572376853e-09 1.7380497625739932e-08 0.0000000000000000e+00  -3.4916931991786338e-09 -1.5268822281472220e-08 0.0000000000000000e+00  -2.3047964423034838e-09 -1.5854342159381998e-08 0.0000000000000000e+00  -3.1225693803099243e-09 -1.4847010924674792e-08 0.0000000000000000e+00  -4.1328731522378865e-09 -1.3118502912788730e-08 0.0000000000000000e+00  -4.8264722838029000e-09 -1.1003816196201163e-08 0.0000000000000000e+00  -5.1565236236122211e-09 -8.7998816676253450e-09 0.0000000000000000e+00  -5.2186877287494604e-09 -6.6955879762415872e-09 0.0000000000000000e+00  -5.1338754040401774e-09 -4.7716800377520965e-09 0.0000000000000000e+00  -5.0031161571423597e-09 -3.0319676134453654e-09 0.0000000000000000e+00  -4.8957548839155823e-09 -1.4347979726489935e-09 0.0000000000000000e+00  -4.8511094411399378e-09 8.4461264473708389e-11 0.0000000000000000e+00  -4.8828927712951316e-09 1.5990233543363899e-09 0.0000000000000000e+00  -4.9816921903930779e-09 3.1804758572376849e-09 0.0000000000000000e+00  -5.1142183882046986e-09 4.8886585131107344e-09 0.0000000000000000e+00  -5.2202005322489348e-09 6.7579301831628479e-09 0.0000000000000000e+00  -5.2102997198535709e-09 8.7772219137918746e-09 0.0000000000000000e+00  -4.9728171607681832e-09 1.0864690729990046e-08 0.0000000000000000e+00  -4.4055371869804199e-09 1.2846184094584113e-08 0.0000000000000000e+00  -3.5116542849999582e-09 1.4461660840096138e-08 0.0000000000000000e+00  -2.7021570988149219e-09 1.5445797691340579e-08 0.0000000000000000e+00  -3.8296159727946701e-09 1.6087073317538498e-08 0.0000000000000000e+00  -3.1478681807075835e-09 -1.3497670433219494e-08 0.0000000000000000e+00  -2.3939200988141683e-09 -1.4157197705927739e-08 0.0000000000000000e+00  -3.4642150491314607e-09 -1.3397210260822761e-08 0.0000000000000000e+00  -4.7660219574953067e-09 -1.2047941122116878e-08 0.0000000000000000e+00  -5.8282616631355462e-09 -1.0328593480909901e-08 0.0000000000000000e+00  -6.5662421981733587e-09 -8.4490398286082445e-09 0.0000000000000000e+00  -7.0203849423340239e-09 -6.5650763869999169e-09 0.0000000000000000e+00  -7.2679892349699595e-09 -4.7634900649977044e-09 0.0000000000000000e+00  -7.3849219211241931e-09 -3.0715320711173220e-09 0.0000000000000000e+00  -7.4295940441079195e-09 -1.4747499644548392e-09 0.0000000000000000e+00  -7.4380606477353512e-09 6.5909626507791456e-11 0.0000000000000000e+00  -7.4236783749170458e-09 1.6001684359749931e-09 0.0000000000000000e+00  -7.3777078499560555e-09 3.1767569702762428e-09 0.0000000000000000e+00  -7.2695988496023158e-09 4.8320521280305329e-09 0.0000000000000000e+00  -7.0476591720935468e-09 6.5772490718593668e-09 0.0000000000000000e+00  -6.6428028178192401e-09 8.3836609211262229e-09 0.0000000000000000e+00  -5.9805982234355314e-09 1.0168740062637638e-08 0.0000000000000000e+00  -5.0115076495651634e-09 1.1790395838126398e-08 0.0000000000000000e+00  -3.7868127993352671e-09 1.3063684331331713e-08 0.0000000000000000e+00  -2.7080601239052648e-09 1.3825531273907840e-08 0.0000000000000000e+00  -3.3956208532212814e-09 1.4542673046730225e-08 0.0000000000000000e+00  -2.8886889710226645e-09 -1.1616733100115436e-08 0.0000000000000000e+00  -2.4658254841342331e-09 -1.2331950019663653e-08 0.0000000000000000e+00  -3.7212630654096851e-09 -1.1751586979504096e-08 0.0000000000000000e+00  -5.2252154561393590e-09 -1.0693279666239566e-08 0.0000000000000000e+00  -6.5439057174893438e-09 -9.3059336311391755e-09 0.0000000000000000e+00  -7.5757987751318156e-09 -7.7364145365728167e-09 0.0000000000000000e+00  -8.3252731986280857e-09 -6.1051380308840331e-09 0.0000000000000000e+00  -8.8345722215687249e-09 -4.4904981099746136e-09 0.0000000000000000e+00  -9.1538755139563737e-09 -2.9286953014059525e-09 0.0000000000000000e+00  -9.3260935214579372e-09 -1.4224738571768751e-09 0.0000000000000000e+00  -9.3796198209921315e-09 4.7295673428041782e-11 0.0000000000000000e+00  -9.3255127411536090e-09 1.5101133091703963e-09 0.0000000000000000e+00  -9.1569436033190762e-09 2.9950558009245126e-09 0.0000000000000000e+00  -8.8500455965560975e-09 4.5202856806248362e-09 0.0000000000000000e+00  -8.3665780552900368e-09 6.0825076566952189e-09 0.0000000000000000e+00  -7.6600341042667032e-09 7.6470262714454265e-09 0.0000000000000000e+00  -6.6881257916897974e-09 9.1409583473781995e-09 0.0000000000000000e+00  -5.4378038625092886e-09 1.0454546442746639e-08 0.0000000000000000e+00  -3.9855293508365945e-09 1.1458353547688712e-08 0.0000000000000000e+00  -2.7143138572886502e-09 1.2053401522077007e-08 0.0000000000000000e+00  -3.0713991251197874e-09 1.2822120314160076e-08 0.0000000000000000e+00  -2.6914111955365192e-09 -9.6532346422901241e-09 0.0000000000000000e+00  -2.5228581970166775e-09 -1.0410628209334920e-08 0.0000000000000000e+00  -3.9154517664016737e-09 -9.9685162747911922e-09 0.0000000000000000e+00  -5.5610594455592967e-09 -9.1434070415790345e-09 0.0000000000000000e+00  -7.0575774643627121e-09 -8.0400950318207415e-09 0.0000000000000000e+00  -8.2971175475996344e-09 -6.7609726555040049e-09 0.0000000000000000e+00  -9.2613995116710909e-09 -5.3957012836515708e-09 0.0000000000000000e+00  -9.9668732142379573e-09 -4.0090671065266705e-09 0.0000000000000000e+00  -1.0441885247895870e-08 -2.6375320737378162e-09 0.0000000000000000e+00  -1.0714057728134975e-08 -1.2928598090182104e-09 0.0000000000000000e+00  -1.0803050069744420e-08 3.0594726437921199e-11 0.0000000000000000e+00  -1.0716937629317348e-08 1.3472693801872182e-09 0.0000000000000000e+00  -1.0451151621462102e-08 2.6715720371471816e-09 0.0000000000000000e+00  -9.9895103883620253e-09 4.0092788225137429e-09 0.0000000000000000e+00  -9.3075170517775504e-09 5.3495558079069531e-09 0.0000000000000000e+00  -8.3786910843933676e-09 6.6585838202470685e-09 0.0000000000000000e+00  -7.1854206078614612e-09 7.8767349810875376e-09 0.0000000000000000e+00  -5.7387445225550925e-09 8.9221982373608721e-09 0.0000000000000000e+00  -4.1279442717083909e-09 9.7055546034200970e-09 0.0000000000000000e+00  -2.7175129820196952e-09 1.0168978911211022e-08 0.0000000000000000e+00  -2.8257782843943481e-09 1.0973452212685688e-08 0.0000000000000000e+00  -2.5427897052779202e-09 -7.6289167966541123e-09 0.0000000000000000e+00  -2.5676419252090122e-09 -8.4182535277431127e-09 0.0000000000000000e+00  -4.0611228196228444e-09 -8.0886940910962202e-09 0.0000000000000000e+00  -5.8054596067845112e-09 -7.4591683380053309e-09 0.0000000000000000e+00  -7.4238127782873335e-09 -6.6057468382709148e-09 0.0000000000000000e+00  -8.8068618240028587e-09 -5.5992760212446613e-09 0.0000000000000000e+00  -9.9223995897942914e-09 -4.5044252421842980e-09 0.0000000000000000e+00  -1.0768888717604918e-08 -3.3714868567542748e-09 0.0000000000000000e+00  -1.1357871601119743e-08 -2.2325083311500002e-09 0.0000000000000000e+00  -1.1704100498748126e-08 -1.1023884545708018e-09 0.0000000000000000e+00  -1.1819299030802086e-08 1.6774783248840248e-11 0.0000000000000000e+00  -1.1708658904378187e-08 1.1296732382030412e-09 0.0000000000000000e+00  -1.1369682230741793e-08 2.2411952367554026e-09 0.0000000000000000e+00  -1.0793175073858001e-08 3.3499613936544625e-09 0.0000000000000000e+00  -9.9664160465074987e-09 4.4426575423730462e-09 0.0000000000000000e+00  -8.8787408801341307e-09 5.4900953526982951e-09 0.0000000000000000e+00  -7.5302898208418925e-09 6.4463261268263929e-09 0.0000000000000000e+00  -5.9476592441893501e-09 7.2524213102256560e-09 0.0000000000000000e+00  -4.2266163539870475e-09 7.8478942507521839e-09 0.0000000000000000e+00  -2.7163285256722743e-09 8.2021302712233342e-09 0.0000000000000000e+00  -2.6399803039155247e-09 9.0308118077060654e-09 0.0000000000000000e+00  -2.4349204022648121e-09 -5.5615314637349188e-09 0.0000000000000000e+00  -2.6028216090126221e-09 -6.3748899895910260e-09 0.0000000000000000e+00  -4.1686328180218944e-09 -6.1418856519391906e-09 0.0000000000000000e+00  -5.9800290285879639e-09 -5.6836818452920777e-09 0.0000000000000000e+00  -7.6794871040374208e-09 -5.0568029151791194e-09 0.0000000000000000e+00  -9.1583822981229529e-09 -4.3091549479956666e-09 0.0000000000000000e+00  -1.0376176816802404e-08 -3.4853584335006464e-09 0.0000000000000000e+00  -1.1319361115325436e-08 -2.6219713217229923e-09 0.0000000000000000e+00  -1.1987467223545604e-08 -1.7443142098067692e-09 0.0000000000000000e+00  -1.2385480720621597e-08 -8.6648960322486934e-10 0.0000000000000000e+00  -1.2518801146605398e-08 6.1602590117546207e-12 0.0000000000000000e+00  -1.2390219510935080e-08 8.7313617099492730e-10 0.0000000000000000e+00  -1.1998861352973071e-08 1.7342445028586146e-09 0.0000000000000000e+00  -1.1341058492736002e-08 2.5851181990058692e-09 0.0000000000000000e+00  -1.0413096405155102e-08 3.4134372111189875e-09 0.0000000000000000e+00  -9.2158143743007970e-09 4.1965766602704484e-09 0.0000000000000000e+00  -7.7614995999562401e-09 4.9015216028784375e-09 0.0000000000000000e+00  -6.0866430151157179e-09 5.4879409087615395e-09 0.0000000000000000e+00  -4.2903991319079649e-09 5.9167578863673057e-09 0.0000000000000000e+00  -2.7106955670474972e-09 6.1760601008863946e-09 0.0000000000000000e+00  -2.5023793122362545e-09 7.0199917201805484e-09 0.0000000000000000e+00  -2.3631238972316548e-09 -3.4658209935390000e-09 0.0000000000000000e+00  -2.6308052764517935e-09 -4.2968892484362339e-09 0.0000000000000000e+00  -4.2456364508177064e-09 -4.1506740253285067e-09 0.0000000000000000e+00  -6.0997991540493044e-09 -3.8485253615580867e-09 0.0000000000000000e+00  -7.8498287743252857e-09 -3.4328795405687122e-09 0.0000000000000000e+00  -9.3885696245697960e-09 -2.9342009785066068e-09 0.0000000000000000e+00  -1.0670798004057382e-08 -2.3807049478972086e