<?xml version="1.0"?>
<VTKFile type="UnstructuredGrid"  version="0.1"  >
<UnstructuredGrid>
<Piece  NumberOfPoints="651" NumberOfCells="1200">
<Points>
<DataArray  type="Float64"  NumberOfComponents="3"  format="ascii">0 0 0  50000 0 0  100000 0 0  150000 0 0  200000 0 0  250000 0 0  300000 0 0  350000 0 0  400000 0 0  450000 0 0  500000 0 0  550000 0 0  600000 0 0  650000 0 0  700000 0 0  750000 0 0  800000 0 0  850000 0 0  900000 0 0  950000 0 0  1000000 0 0  0 50000 0  50000 50000 0  100000 50000 0  150000 50000 0  200000 50000 0  250000 50000 0  300000 50000 0  350000 50000 0  400000 50000 0  450000 50000 0  500000 50000 0  550000 50000 0  600000 50000 0  650000 50000 0  700000 50000 0  750000 50000 0  800000 50000 0  850000 50000 0  900000 50000 0  950000 50000 0  1000000 50000 0  0 100000 0  50000 100000 0  100000 100000 0  150000 100000 0  200000 100000 0  250000 100000 0  300000 100000 0  350000 100000 0  400000 100000 0  450000 100000 0  500000 100000 0  550000 100000 0  600000 100000 0  650000 100000 0  700000 100000 0  750000 100000 0  800000 100000 0  850000 100000 0  900000 100000 0  950000 100000 0  1000000 100000 0  0 150000 0  50000 150000 0  100000 150000 0  150000 150000 0  200000 150000 0  250000 150000 0  300000 150000 0  350000 150000 0  400000 150000 0  450000 150000 0  500000 150000 0  550000 150000 0  600000 150000 0  650000 150000 0  700000 150000 0  750000 150000 0  800000 150000 0  850000 150000 0  900000 150000 0  950000 150000 0  1000000 150000 0  0 200000 0  50000 200000 0  100000 200000 0  150000 200000 0  200000 200000 0  250000 200000 0  300000 200000 0  350000 200000 0  400000 200000 0  450000 200000 0  500000 200000 0  550000 200000 0  600000 200000 0  650000 200000 0  700000 200000 0  750000 200000 0  800000 200000 0  850000 200000 0  900000 200000 0  950000 200000 0  1000000 200000 0  0 250000 0  50000 250000 0  100000 250000 0  150000 250000 0  200000 250000 0  250000 250000 0  300000 250000 0  350000 250000 0  400000 250000 0  450000 250000 0  500000 250000 0  550000 250000 0  600000 250000 0  650000 250000 0  700000 250000 0  750000 250000 0  800000 250000 0  850000 250000 0  900000 250000 0  950000 250000 0  1000000 250000 0  0 300000 0  50000 300000 0  100000 300000 0  150000 300000 0  200000 300000 0  250000 300000 0  300000 300000 0  350000 300000 0  400000 300000 0  450000 300000 0  500000 300000 0  550000 300000 0  600000 300000 0  650000 300000 0  700000 300000 0  750000 300000 0  800000 300000 0  850000 300000 0  900000 300000 0  950000 300000 0  1000000 300000 0  0 350000 0  50000 350000 0  100000 350000 0  150000 350000 0  200000 350000 0  250000 350000 0  300000 350000 0  350000 350000 0  400000 350000 0  450000 350000 0  500000 350000 0  550000 350000 0  600000 350000 0  650000 350000 0  700000 350000 0  750000 350000 0  800000 350000 0  850000 350000 0  900000 350000 0  950000 350000 0  1000000 350000 0  0 400000 0  50000 400000 0  100000 400000 0  150000 400000 0  200000 400000 0  250000 400000 0  300000 400000 0  350000 400000 0  400000 400000 0  450000 400000 0  500000 400000 0  550000 400000 0  600000 400000 0  650000 400000 0  700000 400000 0  750000 400000 0  800000 400000 0  850000 400000 0  900000 400000 0  950000 400000 0  1000000 400000 0  0 450000 0  50000 450000 0  100000 450000 0  150000 450000 0  200000 450000 0  250000 450000 0  300000 450000 0  350000 450000 0  400000 450000 0  450000 450000 0  500000 450000 0  550000 450000 0  600000 450000 0  650000 450000 0  700000 450000 0  750000 450000 0  800000 450000 0  850000 450000 0  900000 450000 0  950000 450000 0  1000000 450000 0  0 500000 0  50000 500000 0  100000 500000 0  150000 500000 0  200000 500000 0  250000 500000 0  300000 500000 0  350000 500000 0  400000 500000 0  450000 500000 0  500000 500000 0  550000 500000 0  600000 500000 0  650000 500000 0  700000 500000 0  750000 500000 0  800000 500000 0  850000 500000 0  900000 500000 0  950000 500000 0  1000000 500000 0  0 550000 0  50000 550000 0  100000 550000 0  150000 550000 0  200000 550000 0  250000 550000 0  300000 550000 0  350000 550000 0  400000 550000 0  450000 550000 0  500000 550000 0  550000 550000 0  600000 550000 0  650000 550000 0  700000 550000 0  750000 550000 0  800000 550000 0  850000 550000 0  900000 550000 0  950000 550000 0  1000000 550000 0  0 600000 0  50000 600000 0  100000 600000 0  150000 600000 0  200000 600000 0  250000 600000 0  300000 600000 0  350000 600000 0  400000 600000 0  450000 600000 0  500000 600000 0  550000 600000 0  600000 600000 0  650000 600000 0  700000 600000 0  750000 600000 0  800000 600000 0  850000 600000 0  900000 600000 0  950000 600000 0  1000000 600000 0  0 650000 0  50000 650000 0  100000 650000 0  150000 650000 0  200000 650000 0  250000 650000 0  300000 650000 0  350000 650000 0  400000 650000 0  450000 650000 0  500000 650000 0  550000 650000 0  600000 650000 0  650000 650000 0  700000 650000 0  750000 650000 0  800000 650000 0  850000 650000 0  900000 650000 0  950000 650000 0  1000000 650000 0  0 700000 0  50000 700000 0  100000 700000 0  150000 700000 0  200000 700000 0  250000 700000 0  300000 700000 0  350000 700000 0  400000 700000 0  450000 700000 0  500000 700000 0  550000 700000 0  600000 700000 0  650000 700000 0  700000 700000 0  750000 700000 0  800000 700000 0  850000 700000 0  900000 700000 0  950000 700000 0  1000000 700000 0  0 750000 0  50000 750000 0  100000 750000 0  150000 750000 0  200000 750000 0  250000 750000 0  300000 750000 0  350000 750000 0  400000 750000 0  450000 750000 0  500000 750000 0  550000 750000 0  600000 750000 0  650000 750000 0  700000 750000 0  750000 750000 0  800000 750000 0  850000 750000 0  900000 750000 0  950000 750000 0  1000000 750000 0  0 800000 0  50000 800000 0  100000 800000 0  150000 800000 0  200000 800000 0  250000 800000 0  300000 800000 0  350000 800000 0  400000 800000 0  450000 800000 0  500000 800000 0  550000 800000 0  600000 800000 0  650000 800000 0  700000 800000 0  750000 800000 0  800000 800000 0  850000 800000 0  900000 800000 0  950000 800000 0  1000000 800000 0  0 850000 0  50000 850000 0  100000 850000 0  150000 850000 0  200000 850000 0  250000 850000 0  300000 850000 0  350000 850000 0  400000 850000 0  450000 850000 0  500000 850000 0  550000 850000 0  600000 850000 0  650000 850000 0  700000 850000 0  750000 850000 0  800000 850000 0  850000 850000 0  900000 850000 0  950000 850000 0  1000000 850000 0  0 900000 0  50000 900000 0  100000 900000 0  150000 900000 0  200000 900000 0  250000 900000 0  300000 900000 0  350000 900000 0  400000 900000 0  450000 900000 0  500000 900000 0  550000 900000 0  600000 900000 0  650000 900000 0  700000 900000 0  750000 900000 0  800000 900000 0  850000 900000 0  900000 900000 0  950000 900000 0  1000000 900000 0  0 950000 0  50000 950000 0  100000 950000 0  150000 950000 0  200000 950000 0  250000 950000 0  300000 950000 0  350000 950000 0  400000 950000 0  450000 950000 0  500000 950000 0  550000 950000 0  600000 950000 0  650000 950000 0  700000 950000 0  750000 950000 0  800000 950000 0  850000 950000 0  900000 950000 0  950000 950000 0  1000000 950000 0  0 1000000 0  50000 1000000 0  100000 1000000 0  150000 1000000 0  200000 1000000 0  250000 1000000 0  300000 1000000 0  350000 1000000 0  400000 1000000 0  450000 1000000 0  500000 1000000 0  550000 1000000 0  600000 1000000 0  650000 1000000 0  700000 1000000 0  750000 1000000 0  800000 1000000 0  850000 1000000 0  900000 1000000 0  950000 1000000 0  1000000 1000000 0  0 1050000 0  50000 1050000 0  100000 1050000 0  150000 1050000 0  200000 1050000 0  250000 1050000 0  300000 1050000 0  350000 1050000 0  400000 1050000 0  450000 1050000 0  500000 1050000 0  550000 1050000 0  600000 1050000 0  650000 1050000 0  700000 1050000 0  750000 1050000 0  800000 1050000 0  850000 1050000 0  900000 1050000 0  950000 1050000 0  1000000 1050000 0  0 1100000 0  50000 1100000 0  100000 1100000 0  150000 1100000 0  200000 1100000 0  250000 1100000 0  300000 1100000 0  350000 1100000 0  400000 1100000 0  450000 1100000 0  500000 1100000 0  550000 1100000 0  600000 1100000 0  650000 1100000 0  700000 1100000 0  750000 1100000 0  800000 1100000 0  850000 1100000 0  900000 1100000 0  950000 1100000 0  1000000 1100000 0  0 1150000 0  50000 1150000 0  100000 1150000 0  150000 1150000 0  200000 1150000 0  250000 1150000 0  300000 1150000 0  350000 1150000 0  400000 1150000 0  450000 1150000 0  500000 1150000 0  550000 1150000 0  600000 1150000 0  650000 1150000 0  700000 1150000 0  750000 1150000 0  800000 1150000 0  850000 1150000 0  900000 1150000 0  950000 1150000 0  1000000 1150000 0  0 1200000 0  50000 1200000 0  100000 1200000 0  150000 1200000 0  200000 1200000 0  250000 1200000 0  300000 1200000 0  350000 1200000 0  400000 1200000 0  450000 1200000 0  500000 1200000 0  550000 1200000 0  600000 1200000 0  650000 1200000 0  700000 1200000 0  750000 1200000 0  800000 1200000 0  850000 1200000 0  900000 1200000 0  950000 1200000 0  1000000 1200000 0  0 1250000 0  50000 1250000 0  100000 1250000 0  150000 1250000 0  200000 1250000 0  250000 1250000 0  300000 1250000 0  350000 1250000 0  400000 1250000 0  450000 1250000 0  500000 1250000 0  550000 1250000 0  600000 1250000 0  650000 1250000 0  700000 1250000 0  750000 1250000 0  800000 1250000 0  850000 1250000 0  900000 1250000 0  950000 1250000 0  1000000 1250000 0  0 1300000 0  50000 1300000 0  100000 1300000 0  150000 1300000 0  200000 1300000 0  250000 1300000 0  300000 1300000 0  350000 1300000 0  400000 1300000 0  450000 1300000 0  500000 1300000 0  550000 1300000 0  600000 1300000 0  650000 1300000 0  700000 1300000 0  750000 1300000 0  800000 1300000 0  850000 1300000 0  900000 1300000 0  950000 1300000 0  1000000 1300000 0  0 1350000 0  50000 1350000 0  100000 1350000 0  150000 1350000 0  200000 1350000 0  250000 1350000 0  300000 1350000 0  350000 1350000 0  400000 1350000 0  450000 1350000 0  500000 1350000 0  550000 1350000 0  600000 1350000 0  650000 1350000 0  700000 135
[...]
<PointData  Vectors="f_1513"> 
<DataArray  type="Float64"  Name="f_1513"  NumberOfComponents="3" format="ascii">-2.4325572920237202e-08 -1.0522330564684087e-08 0.0000000000000000e+00  4.8720634157074325e-08 -6.5973079067174568e-09 0.0000000000000000e+00  4.2982545941301453e-08 -2.2840205270315344e-09 0.0000000000000000e+00  4.0523545887074706e-08 -9.0791381001049148e-10 0.0000000000000000e+00  3.9315985425281754e-08 -4.2568391234317661e-10 0.0000000000000000e+00  3.8526949640339827e-08 -2.1819346452464156e-10 0.0000000000000000e+00  3.7959506710042420e-08 -1.1763942376488164e-10 0.0000000000000000e+00  3.7556717500833941e-08 -6.6479235502388911e-11 0.0000000000000000e+00  3.7300638952684771e-08 -4.0115136393313650e-11 0.0000000000000000e+00  3.7186591589853951e-08 -2.5359998312327682e-11 0.0000000000000000e+00  3.7215410985855067e-08 -1.3069991088776655e-11 0.0000000000000000e+00  3.7391680782004969e-08 5.1929179539701209e-12 0.0000000000000000e+00  3.7725319318145655e-08 3.9687668108173813e-11 0.0000000000000000e+00  3.8237617714609042e-08 1.0603752303559542e-10 0.0000000000000000e+00  3.8977303776639645e-08 2.3253921152924008e-10 0.0000000000000000e+00  4.0063054649990085e-08 4.7827013540721132e-10 0.0000000000000000e+00  4.1795836386435767e-08 9.8172863576257377e-10 0.0000000000000000e+00  4.4922277821363563e-08 2.0874634655793434e-09 0.0000000000000000e+00  5.0771874068034896e-08 4.6128959251433752e-09 0.0000000000000000e+00  5.8015450341349657e-08 9.1256572379696515e-09 0.0000000000000000e+00  -1.6439478845613313e-08 7.0184782741524337e-09 0.0000000000000000e+00  -1.8077103773245704e-08 -1.6066451820045255e-08 0.0000000000000000e+00  7.2801098288808696e-09 -1.1350740471989703e-08 0.0000000000000000e+00  1.8192449024587744e-08 -5.2627885713124319e-09 0.0000000000000000e+00  2.3248915487052936e-08 -2.4073351886815059e-09 0.0000000000000000e+00  2.5827963525234218e-08 -1.1529129461607268e-09 0.0000000000000000e+00  2.7284196279124386e-08 -5.6216134968750002e-10 0.0000000000000000e+00  2.8129405125010208e-08 -2.6653246088781136e-10 0.0000000000000000e+00  2.8622727352279110e-08 -1.1569553234802266e-10 0.0000000000000000e+00  2.8907267176873259e-08 -4.0657585021197634e-11 0.0000000000000000e+00  2.9062808091038104e-08 -4.1210331995829302e-12 0.0000000000000000e+00  2.9130901253755473e-08 1.8434280191510164e-11 0.0000000000000000e+00  2.9126377957665555e-08 4.7454338232588336e-11 0.0000000000000000e+00  2.9041330996944889e-08 1.0507765357012563e-10 0.0000000000000000e+00  2.8843575961479923e-08 2.2174525579809626e-10 0.0000000000000000e+00  2.8468586017265452e-08 4.4798824048942611e-10 0.0000000000000000e+00  2.7798859928622590e-08 8.8032676299913640e-10 0.0000000000000000e+00  2.6608680132625826e-08 1.7221276373137003e-09 0.0000000000000000e+00  2.4386678960317071e-08 3.4193765928859489e-09 0.0000000000000000e+00  1.9688265942597913e-08 6.8623002336387607e-09 0.0000000000000000e+00  8.2661612013681579e-09 1.3013910117393588e-08 0.0000000000000000e+00  -1.8407235462557108e-08 1.0950872445694770e-08 0.0000000000000000e+00  -1.1087461106412213e-08 -1.9642750197714598e-08 0.0000000000000000e+00  -2.4865841963272983e-10 -1.8507411275583089e-08 0.0000000000000000e+00  5.8751960872540849e-09 -1.1332175187095962e-08 0.0000000000000000e+00  1.0761696293162890e-08 -6.5504855313315014e-09 0.0000000000000000e+00  1.4570747220533166e-08 -3.7896480038114504e-09 0.0000000000000000e+00  1.7209767460282235e-08 -2.2213668499329264e-09 0.0000000000000000e+00  1.8972307355299939e-08 -1.3047741962409347e-09 0.0000000000000000e+00  2.0124912773281334e-08 -7.4862502175249791e-10 0.0000000000000000e+00  2.0846958979037587e-08 -3.9394388866825575e-10 0.0000000000000000e+00  2.1248762208407911e-08 -1.4647340319688640e-10 0.0000000000000000e+00  2.1390136293119975e-08 5.7976452344716932e-11 0.0000000000000000e+00  2.1291458275678072e-08 2.7243758789053275e-10 0.0000000000000000e+00  2.0937679996460976e-08 5.5192711217683510e-10 0.0000000000000000e+00  2.0275946776634866e-08 9.6707313030457776e-10 0.0000000000000000e+00  1.9206239277955860e-08 1.6241580316592042e-09 0.0000000000000000e+00  1.7563130972070652e-08 2.6992902712714923e-09 0.0000000000000000e+00  1.5087292810147473e-08 4.4931390250901074e-09 0.0000000000000000e+00  1.1396940892194509e-08 7.4794317250156894e-09 0.0000000000000000e+00  6.0260890360606269e-09 1.2124381371579380e-08 0.0000000000000000e+00  -1.2869258022479985e-09 1.7576585621934788e-08 0.0000000000000000e+00  -1.3240475417721718e-08 1.4698169028562975e-08 0.0000000000000000e+00  -7.3811822985098890e-09 -2.0238800151957998e-08 0.0000000000000000e+00  -1.5495699335393222e-09 -1.9949377940571619e-08 0.0000000000000000e+00  1.1357592237287872e-09 -1.5306891475462104e-08 0.0000000000000000e+00  3.9164005428040378e-09 -1.0419939959884037e-08 0.0000000000000000e+00  6.8132521225077272e-09 -6.8418406800456159e-09 0.0000000000000000e+00  9.3294825173772750e-09 -4.4335666305539675e-09 0.0000000000000000e+00  1.1268393346795473e-08 -2.8357053086069967e-09 0.0000000000000000e+00  1.2655214512094162e-08 -1.7562225269502493e-09 0.0000000000000000e+00  1.3574650070365307e-08 -9.9431354546237889e-10 0.0000000000000000e+00  1.4101466346519000e-08 -4.1192479044313358e-10 0.0000000000000000e+00  1.4282951681557385e-08 9.3639066782544838e-11 0.0000000000000000e+00  1.4136330979645173e-08 6.0997920820684789e-10 0.0000000000000000e+00  1.3649008201784713e-08 1.2256467335454385e-09 0.0000000000000000e+00  1.2778821317402405e-08 2.0456390788785284e-09 0.0000000000000000e+00  1.1455557097203702e-08 3.2089423663624562e-09 0.0000000000000000e+00  9.5899327996873128e-09 4.9065173269317233e-09 0.0000000000000000e+00  7.1068912439501106e-09 7.3819251464305656e-09 0.0000000000000000e+00  4.0372976098502973e-09 1.0844138898932307e-08 0.0000000000000000e+00  6.7400068061234545e-10 1.5101344211448128e-08 0.0000000000000000e+00  -2.6206392472616210e-09 1.8743389934092631e-08 0.0000000000000000e+00  -8.9377979988484972e-09 1.7540847269138038e-08 0.0000000000000000e+00  -5.5087586333204041e-09 -1.9620340602747625e-08 0.0000000000000000e+00  -1.8903256674817756e-09 -1.9688256415902094e-08 0.0000000000000000e+00  -9.2825169869763990e-10 -1.6727186273345908e-08 0.0000000000000000e+00  2.1333372016449748e-10 -1.2797643596337791e-08 0.0000000000000000e+00  1.8556835452537072e-09 -9.2418162532136689e-09 0.0000000000000000e+00  3.6293452659297754e-09 -6.4577437961871904e-09 0.0000000000000000e+00  5.2123236067202291e-09 -4.3858051027755792e-09 0.0000000000000000e+00  6.4611881866694761e-09 -2.8508058929694031e-09 0.0000000000000000e+00  7.3428382067031091e-09 -1.6809831180349280e-09 0.0000000000000000e+00  7.8669773911032354e-09 -7.3229776885356049e-10 0.0000000000000000e+00  8.0497469102693411e-09 1.1598932168190832e-10 0.0000000000000000e+00  7.8988255708847090e-09 9.7236508692450512e-10 0.0000000000000000e+00  7.4093567199275022e-09 1.9445883036022769e-09 0.0000000000000000e+00  6.5666108770066812e-09 3.1500115087426436e-09 0.0000000000000000e+00  5.3566370253047930e-09 4.7221763426409256e-09 0.0000000000000000e+00  3.7909531724432304e-09 6.8051306713491584e-09 0.0000000000000000e+00  1.9546321733191191e-09 9.5121269391667689e-09 0.0000000000000000e+00  7.4787940463535014e-11 1.2800984306083065e-08 0.0000000000000000e+00  -1.4841269989120298e-09 1.6220267175629024e-08 0.0000000000000000e+00  -2.7317649828495697e-09 1.8691864419953766e-08 0.0000000000000000e+00  -6.6490323572512357e-09 1.8528138753133618e-08 0.0000000000000000e+00  -4.4457999353524657e-09 -1.8462797004576198e-08 0.0000000000000000e+00  -2.0639813052679479e-09 -1.8754302154924593e-08 0.0000000000000000e+00  -2.0134786928920092e-09 -1.6753067987302423e-08 0.0000000000000000e+00  -1.9248126903813339e-09 -1.3767127588947794e-08 0.0000000000000000e+00  -1.3215231772143042e-09 -1.0649057922789390e-08 0.0000000000000000e+00  -3.7790927500466800e-10 -7.8880191970088144e-09 0.0000000000000000e+00  6.3837569210124219e-10 -5.6159848621870420e-09 0.0000000000000000e+00  1.5381759649697257e-09 -3.7894505249126772e-09 0.0000000000000000e+00  2.2219583132326551e-09 -2.3025679615991612e-09 0.0000000000000000e+00  2.6472412791752033e-09 -1.0371427416517951e-09 0.0000000000000000e+00  2.7995862371043546e-09 1.2170959773720570e-10 0.0000000000000000e+00  2.6761073988072641e-09 1.2840791314939490e-09 0.0000000000000000e+00  2.2797498650191668e-09 2.5581273091852961e-09 0.0000000000000000e+00  1.6223874065335175e-09 4.0519096882946729e-09 0.0000000000000000e+00  7.3689321347532123e-10 5.8687118423493406e-09 0.0000000000000000e+00  -3.0062142409366118e-10 8.0868764081393962e-09 0.0000000000000000e+00  -1.3414936858331740e-09 1.0709634888397764e-08 0.0000000000000000e+00  -2.1526546714984943e-09 1.3572029718525969e-08 0.0000000000000000e+00  -2.5151709304728486e-09 1.6230220689928715e-08 0.0000000000000000e+00  -2.7095473803789467e-09 1.7992181283971298e-08 0.0000000000000000e+00  -5.3069464510210108e-09 1.8285799151226246e-08 0.0000000000000000e+00  -3.7686949573606395e-09 -1.7008007112818712e-08 0.0000000000000000e+00  -2.1954221196581604e-09 -1.7453787649944842e-08 0.0000000000000000e+00  -2.6885379211807632e-09 -1.6033617037813748e-08 0.0000000000000000e+00  -3.2662372046044480e-09 -1.3760737331351686e-08 0.0000000000000000e+00  -3.4207286469237550e-09 -1.1160561114640492e-08 0.0000000000000000e+00  -3.1892014484457377e-09 -8.6352422025107235e-09 0.0000000000000000e+00  -2.7478491167822041e-09 -6.3795269268331597e-09 0.0000000000000000e+00  -2.2628511065014389e-09 -4.4350524704704056e-09 0.0000000000000000e+00  -1.8492543332663262e-09 -2.7599094249421971e-09 0.0000000000000000e+00  -1.5742226231405050e-09 -1.2747630793964507e-09 0.0000000000000000e+00  -1.4709530734181930e-09 1.1336137550830172e-10 0.0000000000000000e+00  -1.5497744172722098e-09 1.5004638244158463e-09 0.0000000000000000e+00  -1.8027858423960931e-09 2.9803390738328889e-09 0.0000000000000000e+00  -2.2017612789768495e-09 4.6388981803976079e-09 0.0000000000000000e+00  -2.6899951317922816e-09 6.5426450818949012e-09 0.0000000000000000e+00  -3.1705335850661748e-09 8.7153900859999806e-09 0.0000000000000000e+00  -3.4991835744645492e-09 1.1098551082132528e-08 0.0000000000000000e+00  -3.5062652854476665e-09 1.3500221277841586e-08 0.0000000000000000e+00  -3.1090917107165250e-09 1.5567339026488813e-08 0.0000000000000000e+00  -2.6941954486413731e-09 1.6874333788944503e-08 0.0000000000000000e+00  -4.4368342362551157e-09 1.7384883748788589e-08 0.0000000000000000e+00  -3.3013373727252108e-09 -1.5355946140839515e-08 0.0000000000000000e+00  -2.3033301965920694e-09 -1.5912853841839101e-08 0.0000000000000000e+00  -3.1563490316395615e-09 -1.4869919679240545e-08 0.0000000000000000e+00  -4.1689431822947648e-09 -1.3116945419496976e-08 0.0000000000000000e+00  -4.8558704722158071e-09 -1.0986911149121127e-08 0.0000000000000000e+00  -5.1771148959956228e-09 -8.7753394380060935e-09 0.0000000000000000e+00  -5.2308117918353934e-09 -6.6690525668454341e-09 0.0000000000000000e+00  -5.1387781074235325e-09 -4.7468233801821490e-09 0.0000000000000000e+00  -5.0022151307931960e-09 -3.0108930875037050e-09 0.0000000000000000e+00  -4.8903223440537473e-09 -1.4184764228732874e-09 0.0000000000000000e+00  -4.8421773925591157e-09 9.5836135268473152e-11 0.0000000000000000e+00  -4.8712660202349817e-09 1.6057825622133759e-09 0.0000000000000000e+00  -4.9680075800535033e-09 3.1833114264880883e-09 0.0000000000000000e+00  -5.0990222056956550e-09 4.8885262584976243e-09 0.0000000000000000e+00  -5.2040344805740364e-09 6.7560002735978576e-09 0.0000000000000000e+00  -5.1937943810799804e-09 8.7748660507314993e-09 0.0000000000000000e+00  -4.9567949569492991e-09 1.0863507686808215e-08 0.0000000000000000e+00  -4.3911294418133208e-09 1.2848111300754613e-08 0.0000000000000000e+00  -3.5004875396320477e-09 1.4469399613915220e-08 0.0000000000000000e+00  -2.6930298134990926e-09 1.5468028148964659e-08 0.0000000000000000e+00  -3.8306270909018834e-09 1.6099075384353811e-08 0.0000000000000000e+00  -2.9625945970605827e-09 -1.3560440838112481e-08 0.0000000000000000e+00  -2.3915847186186647e-09 -1.4199523446919951e-08 0.0000000000000000e+00  -3.4988573936199113e-09 -1.3417301267116817e-08 0.0000000000000000e+00  -4.8054713603076403e-09 -1.2050659738477605e-08 0.0000000000000000e+00  -5.8635126539490998e-09 -1.0319197104944437e-08 0.0000000000000000e+00  -6.5942958970269791e-09 -8.4327387382427315e-09 0.0000000000000000e+00  -7.0406009347113491e-09 -6.5461918746081967e-09 0.0000000000000000e+00  -7.2808563461521466e-09 -4.7451644186871837e-09 0.0000000000000000e+00  -7.3914037463169240e-09 -3.0557822884249261e-09 0.0000000000000000e+00  -7.4307641416185831e-09 -1.4626630544075857e-09 0.0000000000000000e+00  -7.4349249562805286e-09 7.3962439164166557e-11 0.0000000000000000e+00  -7.4171131099842470e-09 1.6043533026471369e-09 0.0000000000000000e+00  -7.3684636073718633e-09 3.1776501624187501e-09 0.0000000000000000e+00  -7.2583416125967060e-09 4.8305615964012618e-09 0.0000000000000000e+00  -7.0350331636555562e-09 6.5745771494188156e-09 0.0000000000000000e+00  -6.6295082035905586e-09 8.3813016062408553e-09 0.0000000000000000e+00  -5.9674792150161698e-09 1.0168512764481437e-08 0.0000000000000000e+00  -4.9996389417592313e-09 1.1794562216435219e-08 0.0000000000000000e+00  -3.7775420037563111e-09 1.3075386296948395e-08 0.0000000000000000e+00  -2.6985317707586442e-09 1.3854352769308555e-08 0.0000000000000000e+00  -3.3871358569128616e-09 1.4561891044854161e-08 0.0000000000000000e+00  -2.7109362587520442e-09 -1.1657594956385543e-08 0.0000000000000000e+00  -2.4624769657068866e-09 -1.2358323228950277e-08 0.0000000000000000e+00  -3.7551467457212784e-09 -1.1767000836487240e-08 0.0000000000000000e+00  -5.2654386498178585e-09 -1.0697885565374351e-08 0.0000000000000000e+00  -6.5819307018325567e-09 -9.3020881630522999e-09 0.0000000000000000e+00  -7.6083152104796973e-09 -7.7271918396596280e-09 0.0000000000000000e+00  -8.3510558637654933e-09 -6.0934938087662324e-09 0.0000000000000000e+00  -8.8535368363440701e-09 -4.4788336751943472e-09 0.0000000000000000e+00  -9.1665527085086544e-09 -2.9187122108209746e-09 0.0000000000000000e+00  -9.3332880137564428e-09 -1.4151937459191480e-09 0.0000000000000000e+00  -9.3822051992644430e-09 5.1443548454430661e-11 0.0000000000000000e+00  -9.3243256357108007e-09 1.5111953557026680e-09 0.0000000000000000e+00  -9.1527456954419512e-09 2.9935567595326928e-09 0.0000000000000000e+00  -8.8435303032490121e-09 4.5170610340678103e-09 0.0000000000000000e+00  -8.3584071642024043e-09 6.0787670244666215e-09 0.0000000000000000e+00  -7.6508954144537354e-09 7.6443461052019006e-09 0.0000000000000000e+00  -6.6788035461191821e-09 9.1413276070162229e-09 0.0000000000000000e+00  -5.4292336447636773e-09 1.0460493518568588e-08 0.0000000000000000e+00  -3.9786852546712545e-09 1.1473404870801042e-08 0.0000000000000000e+00  -2.7045294558660210e-09 1.2087942520473485e-08 0.0000000000000000e+00  -3.0522332458815427e-09 1.2847872219344518e-08 0.0000000000000000e+00  -2.5232585037208740e-09 -9.6747589280396061e-09 0.0000000000000000e+00  -2.5184704618465491e-09 -1.0421981943136951e-08 0.0000000000000000e+00  -3.9474528469964577e-09 -9.9783143268449583e-09 0.0000000000000000e+00  -5.6001809600974552e-09 -9.1481896778923701e-09 0.0000000000000000e+00  -7.0960224684548710e-09 -8.0400498731359916e-09 0.0000000000000000e+00  -8.3316163166515228e-09 -6.7574446799951688e-09 0.0000000000000000e+00  -9.2904528509551574e-09 -5.3904015874483750e-09 0.0000000000000000e+00  -9.9900253484005944e-09 -4.0036053704431391e-09 0.0000000000000000e+00  -1.0459323258867407e-08 -2.6331753619377502e-09 0.0000000000000000e+00  -1.0726324249707303e-08 -1.2904413641406941e-09 0.0000000000000000e+00  -1.0810844472589223e-08 3.0684482609328620e-11 0.0000000000000000e+00  -1.0720992251070060e-08 1.3450591402342561e-09 0.0000000000000000e+00  -1.0452166905475483e-08 2.6674838756199065e-09 0.0000000000000000e+00  -9.9881340856838639e-09 4.0041167074139617e-09 0.0000000000000000e+00  -9.3043563228261875e-09 5.3445153367515753e-09 0.0000000000000000e+00  -8.3743494932930078e-09 6.6552855930193235e-09 0.0000000000000000e+00  -7.1805499869424970e-09 7.8772878052917315e-09 0.0000000000000000e+00  -5.7340665612537186e-09 8.9293432651766064e-09 0.0000000000000000e+00  -4.1239671191807754e-09 9.7231520986424090e-09 0.0000000000000000e+00  -2.7076051722359901e-09 1.0208106039335979e-08 0.0000000000000000e+00  -2.7948368663670304e-09 1.1004767342064621e-08 0.0000000000000000e+00  -2.3859644055062949e-09 -7.6337693470091705e-09 0.0000000000000000e+00  -2.5622486343932313e-09 -8.4159858568055527e-09 0.0000000000000000e+00  -4.0904424661809425e-09 -8.0925877649452480e-09 0.0000000000000000e+00  -5.8421151319495937e-09 -7.4629780362643375e-09 0.0000000000000000e+00  -7.4608896024877649e-09 -6.6080494292904303e-09 0.0000000000000000e+00  -8.8413467649741513e-09 -5.6000604048273524e-09 0.0000000000000000e+00  -9.9527438448428896e-09 -4.5043428658654650e-09 0.0000000000000000e+00  -1.0794442321908707e-08 -3.3714000876962118e-09 0.0000000000000000e+00  -1.1378587978464445e-08 -2.2332146795854636e-09 0.0000000000000000e+00  -1.1720308378435594e-08 -1.1044679592099824e-09 0.0000000000000000e+00  -1.1831526579053980e-08 1.3033795883517109e-11 0.0000000000000000e+00  -1.1717508892889660e-08 1.1243075819784756e-09 0.0000000000000000e+00  -1.1375752892838245e-08 2.2345868999135684e-09 0.0000000000000000e+00  -1.0797019359383950e-08 3.3428618155011868e-09 0.0000000000000000e+00  -9.9685327236249563e-09 4.4362260871801192e-09 0.0000000000000000e+00  -8.8795919309548386e-09 5.4859573445477704e-09 0.0000000000000000e+00  -7.5303333688713546e-09 6.4466590904584885e-09 0.0000000000000000e+00  -5.9473350130070598e-09 7.2601232281548794e-09 0.0000000000000000e+00  -4.2258747479119421e-09 7.8671035055789231e-09 0.0000000000000000e+00  -2.7064268614692074e-09 8.2444833101115231e-09 0.0000000000000000e+00  -2.5962839650488113e-09 9.0664288416908600e-09 0.0000000000000000e+00  -2.2908015819694434e-09 -5.5524346383482564e-09 0.0000000000000000e+00  -2.5964890316455993e-09 -6.3607077987734890e-09 0.0000000000000000e+00  -4.1947028716361514e-09 -6.1400481246199576e-09 0.0000000000000000e+00  -6.0132268212424656e-09 -5.6858142956556317e-09 0.0000000000000000e+00  -7.7138469026840601e-09 -5.0603049341173447e-09 0.0000000000000000e+00  -9.1912744460355913e-09 -4.3129799708232666e-09 0.0000000000000000e+00  -1.0406156664829630e-08 -3.4892960632225771e-09 0.0000000000000000e+00  -1.1345725504828051e-08 -2.6262287274295460e-09 0.0000000000000000e+00  -1.2010041681862920e-08 -1.7492391881109471e-09 0.0000000000000000e+00  -1.2404445418414082e-08 -8.7239053150755994e-10 0.0000000000000000e+00  -1.2534543272385901e-08 -8.7246008937660205e-13 0.0000000000000000e+00  -1.2403216384197250e-08 8.6504178173711011e-10 0.0000000000000000e+00  -1.2009595420751768e-08 1.7254408568009219e-09 0.0000000000000000e+00  -1.1349962623858561e-08 2.5762959772208268e-09 0.0000000000000000e+00  -1.0420527281869438e-08 3.4056921294520464e-09 0.0000000000000000e+00  -9.2220513502774104e-09 4.1914943485249117e-09 0.0000000000000000e+00  -7.7667579218397767e-09 4.9012912230302556e-09 0.0000000000000000e+00  -6.0910194158955338e-09 5.4955530169823933e-09 0.0000000000000000e+00  -4.2931966186234204e-09 5.9365594446411938e-09 0.0000000000000000e+00  -2.7009300507402151e-09 6.2200810402836319e-09 0.0000000000000000e+00  -2.4450933800801799e-09 7.0583632662517079e-09 0.0000000000000000e+00  -2.2327466238328621e-09 -3.4455092206733476e-09 0.0000000000000000e+00  -2.6236196233475934e-09 -4.2726962169421375e-09 0.0000000000000000e+00  -4.2680659832363148e-09 -4.1436067999870390e-09 0.0000000000000000e+00  -6.1288320660046007e-09 -3.8486253498949323e-09 0.0000000000000000e+00  -7.8804686214717365e-09 -3.4367128295625288e-09 0.0000000000000000e+00  -9.4186392619428385e-09 -2.9399546540699348e-09 0.0000000000000000e+00  -1.0699057510009564e-08 -2.3874941184