<?xml version="1.0"?>
<VTKFile type="UnstructuredGrid"  version="0.1"  >
<UnstructuredGrid>
<Piece  NumberOfPoints="651" NumberOfCells="1200">
<Points>
<DataArray  type="Float64"  NumberOfComponents="3"  format="ascii">0 0 0  50000 0 0  100000 0 0  150000 0 0  200000 0 0  250000 0 0  300000 0 0  350000 0 0  400000 0 0  450000 0 0  500000 0 0  550000 0 0  600000 0 0  650000 0 0  700000 0 0  750000 0 0  800000 0 0  850000 0 0  900000 0 0  950000 0 0  1000000 0 0  0 50000 0  50000 50000 0  100000 50000 0  150000 50000 0  200000 50000 0  250000 50000 0  300000 50000 0  350000 50000 0  400000 50000 0  450000 50000 0  500000 50000 0  550000 50000 0  600000 50000 0  650000 50000 0  700000 50000 0  750000 50000 0  800000 50000 0  850000 50000 0  900000 50000 0  950000 50000 0  1000000 50000 0  0 100000 0  50000 100000 0  100000 100000 0  150000 100000 0  200000 100000 0  250000 100000 0  300000 100000 0  350000 100000 0  400000 100000 0  450000 100000 0  500000 100000 0  550000 100000 0  600000 100000 0  650000 100000 0  700000 100000 0  750000 100000 0  800000 100000 0  850000 100000 0  900000 100000 0  950000 100000 0  1000000 100000 0  0 150000 0  50000 150000 0  100000 150000 0  150000 150000 0  200000 150000 0  250000 150000 0  300000 150000 0  350000 150000 0  400000 150000 0  450000 150000 0  500000 150000 0  550000 150000 0  600000 150000 0  650000 150000 0  700000 150000 0  750000 150000 0  800000 150000 0  850000 150000 0  900000 150000 0  950000 150000 0  1000000 150000 0  0 200000 0  50000 200000 0  100000 200000 0  150000 200000 0  200000 200000 0  250000 200000 0  300000 200000 0  350000 200000 0  400000 200000 0  450000 200000 0  500000 200000 0  550000 200000 0  600000 200000 0  650000 200000 0  700000 200000 0  750000 200000 0  800000 200000 0  850000 200000 0  900000 200000 0  950000 200000 0  1000000 200000 0  0 250000 0  50000 250000 0  100000 250000 0  150000 250000 0  200000 250000 0  250000 250000 0  300000 250000 0  350000 250000 0  400000 250000 0  450000 250000 0  500000 250000 0  550000 250000 0  600000 250000 0  650000 250000 0  700000 250000 0  750000 250000 0  800000 250000 0  850000 250000 0  900000 250000 0  950000 250000 0  1000000 250000 0  0 300000 0  50000 300000 0  100000 300000 0  150000 300000 0  200000 300000 0  250000 300000 0  300000 300000 0  350000 300000 0  400000 300000 0  450000 300000 0  500000 300000 0  550000 300000 0  600000 300000 0  650000 300000 0  700000 300000 0  750000 300000 0  800000 300000 0  850000 300000 0  900000 300000 0  950000 300000 0  1000000 300000 0  0 350000 0  50000 350000 0  100000 350000 0  150000 350000 0  200000 350000 0  250000 350000 0  300000 350000 0  350000 350000 0  400000 350000 0  450000 350000 0  500000 350000 0  550000 350000 0  600000 350000 0  650000 350000 0  700000 350000 0  750000 350000 0  800000 350000 0  850000 350000 0  900000 350000 0  950000 350000 0  1000000 350000 0  0 400000 0  50000 400000 0  100000 400000 0  150000 400000 0  200000 400000 0  250000 400000 0  300000 400000 0  350000 400000 0  400000 400000 0  450000 400000 0  500000 400000 0  550000 400000 0  600000 400000 0  650000 400000 0  700000 400000 0  750000 400000 0  800000 400000 0  850000 400000 0  900000 400000 0  950000 400000 0  1000000 400000 0  0 450000 0  50000 450000 0  100000 450000 0  150000 450000 0  200000 450000 0  250000 450000 0  300000 450000 0  350000 450000 0  400000 450000 0  450000 450000 0  500000 450000 0  550000 450000 0  600000 450000 0  650000 450000 0  700000 450000 0  750000 450000 0  800000 450000 0  850000 450000 0  900000 450000 0  950000 450000 0  1000000 450000 0  0 500000 0  50000 500000 0  100000 500000 0  150000 500000 0  200000 500000 0  250000 500000 0  300000 500000 0  350000 500000 0  400000 500000 0  450000 500000 0  500000 500000 0  550000 500000 0  600000 500000 0  650000 500000 0  700000 500000 0  750000 500000 0  800000 500000 0  850000 500000 0  900000 500000 0  950000 500000 0  1000000 500000 0  0 550000 0  50000 550000 0  100000 550000 0  150000 550000 0  200000 550000 0  250000 550000 0  300000 550000 0  350000 550000 0  400000 550000 0  450000 550000 0  500000 550000 0  550000 550000 0  600000 550000 0  650000 550000 0  700000 550000 0  750000 550000 0  800000 550000 0  850000 550000 0  900000 550000 0  950000 550000 0  1000000 550000 0  0 600000 0  50000 600000 0  100000 600000 0  150000 600000 0  200000 600000 0  250000 600000 0  300000 600000 0  350000 600000 0  400000 600000 0  450000 600000 0  500000 600000 0  550000 600000 0  600000 600000 0  650000 600000 0  700000 600000 0  750000 600000 0  800000 600000 0  850000 600000 0  900000 600000 0  950000 600000 0  1000000 600000 0  0 650000 0  50000 650000 0  100000 650000 0  150000 650000 0  200000 650000 0  250000 650000 0  300000 650000 0  350000 650000 0  400000 650000 0  450000 650000 0  500000 650000 0  550000 650000 0  600000 650000 0  650000 650000 0  700000 650000 0  750000 650000 0  800000 650000 0  850000 650000 0  900000 650000 0  950000 650000 0  1000000 650000 0  0 700000 0  50000 700000 0  100000 700000 0  150000 700000 0  200000 700000 0  250000 700000 0  300000 700000 0  350000 700000 0  400000 700000 0  450000 700000 0  500000 700000 0  550000 700000 0  600000 700000 0  650000 700000 0  700000 700000 0  750000 700000 0  800000 700000 0  850000 700000 0  900000 700000 0  950000 700000 0  1000000 700000 0  0 750000 0  50000 750000 0  100000 750000 0  150000 750000 0  200000 750000 0  250000 750000 0  300000 750000 0  350000 750000 0  400000 750000 0  450000 750000 0  500000 750000 0  550000 750000 0  600000 750000 0  650000 750000 0  700000 750000 0  750000 750000 0  800000 750000 0  850000 750000 0  900000 750000 0  950000 750000 0  1000000 750000 0  0 800000 0  50000 800000 0  100000 800000 0  150000 800000 0  200000 800000 0  250000 800000 0  300000 800000 0  350000 800000 0  400000 800000 0  450000 800000 0  500000 800000 0  550000 800000 0  600000 800000 0  650000 800000 0  700000 800000 0  750000 800000 0  800000 800000 0  850000 800000 0  900000 800000 0  950000 800000 0  1000000 800000 0  0 850000 0  50000 850000 0  100000 850000 0  150000 850000 0  200000 850000 0  250000 850000 0  300000 850000 0  350000 850000 0  400000 850000 0  450000 850000 0  500000 850000 0  550000 850000 0  600000 850000 0  650000 850000 0  700000 850000 0  750000 850000 0  800000 850000 0  850000 850000 0  900000 850000 0  950000 850000 0  1000000 850000 0  0 900000 0  50000 900000 0  100000 900000 0  150000 900000 0  200000 900000 0  250000 900000 0  300000 900000 0  350000 900000 0  400000 900000 0  450000 900000 0  500000 900000 0  550000 900000 0  600000 900000 0  650000 900000 0  700000 900000 0  750000 900000 0  800000 900000 0  850000 900000 0  900000 900000 0  950000 900000 0  1000000 900000 0  0 950000 0  50000 950000 0  100000 950000 0  150000 950000 0  200000 950000 0  250000 950000 0  300000 950000 0  350000 950000 0  400000 950000 0  450000 950000 0  500000 950000 0  550000 950000 0  600000 950000 0  650000 950000 0  700000 950000 0  750000 950000 0  800000 950000 0  850000 950000 0  900000 950000 0  950000 950000 0  1000000 950000 0  0 1000000 0  50000 1000000 0  100000 1000000 0  150000 1000000 0  200000 1000000 0  250000 1000000 0  300000 1000000 0  350000 1000000 0  400000 1000000 0  450000 1000000 0  500000 1000000 0  550000 1000000 0  600000 1000000 0  650000 1000000 0  700000 1000000 0  750000 1000000 0  800000 1000000 0  850000 1000000 0  900000 1000000 0  950000 1000000 0  1000000 1000000 0  0 1050000 0  50000 1050000 0  100000 1050000 0  150000 1050000 0  200000 1050000 0  250000 1050000 0  300000 1050000 0  350000 1050000 0  400000 1050000 0  450000 1050000 0  500000 1050000 0  550000 1050000 0  600000 1050000 0  650000 1050000 0  700000 1050000 0  750000 1050000 0  800000 1050000 0  850000 1050000 0  900000 1050000 0  950000 1050000 0  1000000 1050000 0  0 1100000 0  50000 1100000 0  100000 1100000 0  150000 1100000 0  200000 1100000 0  250000 1100000 0  300000 1100000 0  350000 1100000 0  400000 1100000 0  450000 1100000 0  500000 1100000 0  550000 1100000 0  600000 1100000 0  650000 1100000 0  700000 1100000 0  750000 1100000 0  800000 1100000 0  850000 1100000 0  900000 1100000 0  950000 1100000 0  1000000 1100000 0  0 1150000 0  50000 1150000 0  100000 1150000 0  150000 1150000 0  200000 1150000 0  250000 1150000 0  300000 1150000 0  350000 1150000 0  400000 1150000 0  450000 1150000 0  500000 1150000 0  550000 1150000 0  600000 1150000 0  650000 1150000 0  700000 1150000 0  750000 1150000 0  800000 1150000 0  850000 1150000 0  900000 1150000 0  950000 1150000 0  1000000 1150000 0  0 1200000 0  50000 1200000 0  100000 1200000 0  150000 1200000 0  200000 1200000 0  250000 1200000 0  300000 1200000 0  350000 1200000 0  400000 1200000 0  450000 1200000 0  500000 1200000 0  550000 1200000 0  600000 1200000 0  650000 1200000 0  700000 1200000 0  750000 1200000 0  800000 1200000 0  850000 1200000 0  900000 1200000 0  950000 1200000 0  1000000 1200000 0  0 1250000 0  50000 1250000 0  100000 1250000 0  150000 1250000 0  200000 1250000 0  250000 1250000 0  300000 1250000 0  350000 1250000 0  400000 1250000 0  450000 1250000 0  500000 1250000 0  550000 1250000 0  600000 1250000 0  650000 1250000 0  700000 1250000 0  750000 1250000 0  800000 1250000 0  850000 1250000 0  900000 1250000 0  950000 1250000 0  1000000 1250000 0  0 1300000 0  50000 1300000 0  100000 1300000 0  150000 1300000 0  200000 1300000 0  250000 1300000 0  300000 1300000 0  350000 1300000 0  400000 1300000 0  450000 1300000 0  500000 1300000 0  550000 1300000 0  600000 1300000 0  650000 1300000 0  700000 1300000 0  750000 1300000 0  800000 1300000 0  850000 1300000 0  900000 1300000 0  950000 1300000 0  1000000 1300000 0  0 1350000 0  50000 1350000 0  100000 1350000 0  150000 1350000 0  200000 1350000 0  250000 1350000 0  300000 1350000 0  350000 1350000 0  400000 1350000 0  450000 1350000 0  500000 1350000 0  550000 1350000 0  600000 1350000 0  650000 1350000 0  700000 135
[...]
<PointData  Vectors="f_1513"> 
<DataArray  type="Float64"  Name="f_1513"  NumberOfComponents="3" format="ascii">-2.4412212025594012e-08 -1.0328380737511230e-08 0.0000000000000000e+00  4.8651195379772578e-08 -6.4145081384425856e-09 0.0000000000000000e+00  4.2933254518061219e-08 -2.1221266001140485e-09 0.0000000000000000e+00  4.0488503221858909e-08 -7.6491961066684303e-10 0.0000000000000000e+00  3.9292447229860336e-08 -2.9873809926841800e-10 0.0000000000000000e+00  3.8512690045704259e-08 -1.0554313496958601e-10 0.0000000000000000e+00  3.7952672570692601e-08 -1.8015664048023958e-11 0.0000000000000000e+00  3.7555739251726322e-08 2.1213986026330064e-11 0.0000000000000000e+00  3.7304180299005647e-08 3.6672910914422196e-11 0.0000000000000000e+00  3.7193530520892167e-08 4.1519632456482358e-11 0.0000000000000000e+00  3.7224831888032710e-08 4.4888532310506288e-11 0.0000000000000000e+00  3.7402869604459661e-08 5.5215651434099928e-11 0.0000000000000000e+00  3.7737759550618607e-08 8.2759715259955380e-11 0.0000000000000000e+00  3.8250986912631657e-08 1.4314333714219125e-10 0.0000000000000000e+00  3.8991471186560015e-08 2.6466184813659810e-10 0.0000000000000000e+00  4.0078080957664472e-08 5.0639135347822806e-10 0.0000000000000000e+00  4.1811977574836362e-08 1.0068315804184110e-09 0.0000000000000000e+00  4.4939992572901052e-08 2.1105437402203433e-09 0.0000000000000000e+00  5.0791761056210459e-08 4.6349746969055935e-09 0.0000000000000000e+00  5.8037750207544929e-08 9.1475631395537503e-09 0.0000000000000000e+00  -1.6415865807891793e-08 7.0416015752914896e-09 0.0000000000000000e+00  -1.8176859821976971e-08 -1.5882928987927598e-08 0.0000000000000000e+00  7.2394563226950304e-09 -1.1299546774809422e-08 0.0000000000000000e+00  1.8130851760203763e-08 -5.2556173967510121e-09 0.0000000000000000e+00  2.3200086633524896e-08 -2.4009368152741071e-09 0.0000000000000000e+00  2.5795800156585492e-08 -1.1462229090338772e-09 0.0000000000000000e+00  2.7264309380867042e-08 -5.5496224477515906e-10 0.0000000000000000e+00  2.8118618398535800e-08 -2.5888965897311302e-10 0.0000000000000000e+00  2.8618721712945547e-08 -1.0778234449149868e-10 0.0000000000000000e+00  2.8908149772218154e-08 -3.2627732376729850e-11 0.0000000000000000e+00  2.9067028534999420e-08 3.9030299010205366e-12 0.0000000000000000e+00  2.9137207249959950e-08 2.6352863135250686e-11 0.0000000000000000e+00  2.9133775910262811e-08 5.5185711574012937e-11 0.0000000000000000e+00  2.9049055482040735e-08 1.1255682339066886e-10 0.0000000000000000e+00  2.8851064734786426e-08 2.2892596719240943e-10 0.0000000000000000e+00  2.8475454701271191e-08 4.5485055369830819e-10 0.0000000000000000e+00  2.7804868378379157e-08 8.8689709260680849e-10 0.0000000000000000e+00  2.6613685786287911e-08 1.7285248906162965e-09 0.0000000000000000e+00  2.4390645917852471e-08 3.4258797829815316e-09 0.0000000000000000e+00  1.9691679446499464e-08 6.8693840504142100e-09 0.0000000000000000e+00  8.2703687230437785e-09 1.3022946903815412e-08 0.0000000000000000e+00  -1.8384580700071795e-08 1.0972198143071585e-08 0.0000000000000000e+00  -1.1203115193587342e-08 -1.9484241403631454e-08 0.0000000000000000e+00  -2.6671131600440687e-10 -1.8465449759706790e-08 0.0000000000000000e+00  5.8410110279936301e-09 -1.1354417684457484e-08 0.0000000000000000e+00  1.0720785235294119e-08 -6.5786371927240373e-09 0.0000000000000000e+00  1.4534123155360594e-08 -3.8150711561631789e-09 0.0000000000000000e+00  1.7180989211010346e-08 -2.2424224245551006e-09 0.0000000000000000e+00  1.8950914555615346e-08 -1.3214182550356301e-09 0.0000000000000000e+00  2.0109541156953913e-08 -7.6131798078750346e-10 0.0000000000000000e+00  2.0836212539788872e-08 -4.0323110656105605e-10 0.0000000000000000e+00  2.1241393115302437e-08 -1.5286874693364178e-10 0.0000000000000000e+00  2.1385090492066835e-08 5.4005582178878213e-11 0.0000000000000000e+00  2.1287881653835945e-08 2.7046608856727153e-10 0.0000000000000000e+00  2.0934908869188972e-08 5.5156876359702813e-10 0.0000000000000000e+00  2.0273492674278947e-08 9.6798325244483984e-10 0.0000000000000000e+00  1.9203770286154309e-08 1.6260472130644448e-09 0.0000000000000000e+00  1.7560450040757056e-08 2.7019574901360293e-09 0.0000000000000000e+00  1.5084323372663257e-08 4.4965340223400415e-09 0.0000000000000000e+00  1.1393764843848742e-08 7.4837459183219855e-09 0.0000000000000000e+00  6.0232335758912300e-09 1.2130179482784581e-08 0.0000000000000000e+00  -1.2874989219719561e-09 1.7583437022458827e-08 0.0000000000000000e+00  -1.3218505022284491e-08 1.4715407049827696e-08 0.0000000000000000e+00  -7.5071954465436532e-09 -2.0105223561961231e-08 0.0000000000000000e+00  -1.5552496955887038e-09 -1.9893495620313594e-08 0.0000000000000000e+00  1.1297423808223467e-09 -1.5318857665689424e-08 0.0000000000000000e+00  3.8990574133162620e-09 -1.0450636394642725e-08 0.0000000000000000e+00  6.7905884755276727e-09 -6.8743916177431581e-09 0.0000000000000000e+00  9.3070478844013942e-09 -4.4626438662069743e-09 0.0000000000000000e+00  1.1248549729263235e-08 -2.8598143661137174e-09 0.0000000000000000e+00  1.2638475866564484e-08 -1.7752752950734554e-09 0.0000000000000000e+00  1.3560721712188710e-08 -1.0087352536928040e-09 0.0000000000000000e+00  1.4089772379189847e-08 -4.2229971825190853e-10 0.0000000000000000e+00  1.4272868707294961e-08 8.6698565462203453e-11 0.0000000000000000e+00  1.4127290496186551e-08 6.0587827458472788e-10 0.0000000000000000e+00  1.3640541891725764e-08 1.2238253364494788e-09 0.0000000000000000e+00  1.2770580491835639e-08 2.0455841008323178e-09 0.0000000000000000e+00  1.1447321094501053e-08 3.2102059319761722e-09 0.0000000000000000e+00  9.5816166552899098e-09 4.9087489750815403e-09 0.0000000000000000e+00  7.0985685794998731e-09 7.3849196812195537e-09 0.0000000000000000e+00  4.0292871790217606e-09 1.0847877593769320e-08 0.0000000000000000e+00  6.6730258127402387e-10 1.5105900186477805e-08 0.0000000000000000e+00  -2.6234608090084421e-09 1.8746639788141218e-08 0.0000000000000000e+00  -8.9175389683090393e-09 1.7553077320735428e-08 0.0000000000000000e+00  -5.6404136007601350e-09 -1.9510546412284078e-08 0.0000000000000000e+00  -1.8916543647576825e-09 -1.9629946682185583e-08 0.0000000000000000e+00  -9.1819248526312948e-10 -1.6726108152724195e-08 0.0000000000000000e+00  2.1531480182162302e-10 -1.2820515138618572e-08 0.0000000000000000e+00  1.8492854949199023e-09 -9.2720058007091854e-09 0.0000000000000000e+00  3.6182690525210193e-09 -6.4874713109684159e-09 0.0000000000000000e+00  5.1994568449918829e-09 -4.4118283852253705e-09 0.0000000000000000e+00  6.4480934427097108e-09 -2.8720564713220765e-09 0.0000000000000000e+00  7.3301638145811869e-09 -1.6973976791821967e-09 0.0000000000000000e+00  7.8548593916860090e-09 -7.4425830122236434e-10 0.0000000000000000e+00  8.0380749666372512e-09 1.0791606495551660e-10 0.0000000000000000e+00  7.8873999996575703e-09 9.6754693057256388e-10 0.0000000000000000e+00  7.3979789395581676e-09 1.9423836823287280e-09 0.0000000000000000e+00  6.5551381867333854e-09 3.1498000148495484e-09 0.0000000000000000e+00  5.3450214598651937e-09 4.7233824165522106e-09 0.0000000000000000e+00  3.7792792531164997e-09 6.8072484607400791e-09 0.0000000000000000e+00  1.9431715737213522e-09 9.5147422745382840e-09 0.0000000000000000e+00  6.4118536071726655e-11 1.2803754569970152e-08 0.0000000000000000e+00  -1.4926927523544563e-09 1.6222701962948383e-08 0.0000000000000000e+00  -2.7359401211696537e-09 1.8690715012824096e-08 0.0000000000000000e+00  -6.6313482189011606e-09 1.8534941000433090e-08 0.0000000000000000e+00  -4.5796360355839212e-09 -1.8375328733791736e-08 0.0000000000000000e+00  -2.0639456463012941e-09 -1.8701977589156685e-08 0.0000000000000000e+00  -1.9948002039215159e-09 -1.6743999219187931e-08 0.0000000000000000e+00  -1.9100000250188744e-09 -1.3780970209161750e-08 0.0000000000000000e+00  -1.3145928263091117e-09 -1.0672938937854355e-08 0.0000000000000000e+00  -3.7758924561657457e-10 -7.9141673834545028e-09 0.0000000000000000e+00  6.3417282330891150e-10 -5.6402906396835775e-09 0.0000000000000000e+00  1.5311241443467638e-09 -3.8100306238669686e-09 0.0000000000000000e+00  2.2131415198166445e-09 -2.3187967086020060e-09 0.0000000000000000e+00  2.6372762086501911e-09 -1.0490684976729822e-09 0.0000000000000000e+00  2.7887865948649848e-09 1.1369059805874566e-10 0.0000000000000000e+00  2.6646189378819334e-09 1.2793974014326317e-09 0.0000000000000000e+00  2.2676490738161050e-09 2.5561323895679735e-09 0.0000000000000000e+00  1.6097540323825907e-09 4.0519202108323634e-09 0.0000000000000000e+00  7.2386942284953609e-10 5.8700449785825197e-09 0.0000000000000000e+00  -3.1377292991425473e-10 8.0888657031654505e-09 0.0000000000000000e+00  -1.3543180919827057e-09 1.0711631644245689e-08 0.0000000000000000e+00  -2.1643856200123413e-09 1.3573348390925047e-08 0.0000000000000000e+00  -2.5243782960472693e-09 1.6229879411478764e-08 0.0000000000000000e+00  -2.7145654546879091e-09 1.7986014334275853e-08 0.0000000000000000e+00  -5.2927223466380218e-09 1.8286932053039670e-08 0.0000000000000000e+00  -3.9019499237212418e-09 -1.6941187556540704e-08 0.0000000000000000e+00  -2.1953361209580998e-09 -1.7411149333433074e-08 0.0000000000000000e+00  -2.6655945363087153e-09 -1.6021521968846409e-08 0.0000000000000000e+00  -3.2437231852972123e-09 -1.3767473748116887e-08 0.0000000000000000e+00  -3.4043662909013970e-09 -1.1177407979569470e-08 0.0000000000000000e+00  -3.1795369707369541e-09 -8.6558265826359661e-09 0.0000000000000000e+00  -2.7438899098533441e-09 -6.3998275699166644e-09 0.0000000000000000e+00  -2.2633313829756464e-09 -4.4528447502196210e-09 0.0000000000000000e+00  -1.8530841131141091e-09 -2.7741771885838533e-09 0.0000000000000000e+00  -1.5805890088571745e-09 -1.2852451370000359e-09 0.0000000000000000e+00  -1.4792872097489891e-09 1.0647431519610729e-10 0.0000000000000000e+00  -1.5596791396585568e-09 1.4967158262645556e-09 0.0000000000000000e+00  -1.8139604905153516e-09 2.9791182462832230e-09 0.0000000000000000e+00  -2.2139328813301416e-09 4.6394982827711276e-09 0.0000000000000000e+00  -2.7028540857195333e-09 6.5442982852574095e-09 0.0000000000000000e+00  -3.1836680933042639e-09 8.7172797970108334e-09 0.0000000000000000e+00  -3.5120047623085105e-09 1.1099801822351892e-08 0.0000000000000000e+00  -3.5179025660316081e-09 1.3499830699448637e-08 0.0000000000000000e+00  -3.1181275628451983e-09 1.5563906664293718e-08 0.0000000000000000e+00  -2.6997744222317531e-09 1.6862910191114765e-08 0.0000000000000000e+00  -4.4269576091480413e-09 1.7380253367745467e-08 0.0000000000000000e+00  -3.4317153779096578e-09 -1.5307958570269786e-08 0.0000000000000000e+00  -2.3037879122421781e-09 -1.5881350192419403e-08 0.0000000000000000e+00  -3.1317892098575814e-09 -1.4858137614357265e-08 0.0000000000000000e+00  -4.1423661791797094e-09 -1.3119008071510018e-08 0.0000000000000000e+00  -4.8335502226007533e-09 -1.0997520691818810e-08 0.0000000000000000e+00  -5.1606837559448014e-09 -8.7899148328867612e-09 0.0000000000000000e+00  -5.2202026083979758e-09 -6.6842516846969400e-09 0.0000000000000000e+00  -5.1332801574373285e-09 -4.7605209138352491e-09 0.0000000000000000e+00  -5.0009692553484222e-09 -3.0219367388256521e-09 0.0000000000000000e+00  -4.8925362596216025e-09 -1.4264138154851964e-09 0.0000000000000000e+00  -4.8471915838023628e-09 9.0981585494989993e-11 0.0000000000000000e+00  -4.8785469510475446e-09 1.6036705743190863e-09 0.0000000000000000e+00  -4.9771095175954045e-09 3.1833874055272019e-09 0.0000000000000000e+00  -5.1095364859292593e-09 4.8900818895372885e-09 0.0000000000000000e+00  -5.2155326644569947e-09 6.7582043110809212e-09 0.0000000000000000e+00  -5.2057659636508180e-09 8.7767723829178932e-09 0.0000000000000000e+00  -4.9685776343616797e-09 1.0864039132249873e-08 0.0000000000000000e+00  -4.4018234667312204e-09 1.2845987538628822e-08 0.0000000000000000e+00  -3.5087786313322673e-09 1.4462860899616404e-08 0.0000000000000000e+00  -2.6990058034058017e-09 1.5451435108870104e-08 0.0000000000000000e+00  -3.8259706107133666e-09 1.6088751078552786e-08 0.0000000000000000e+00  -3.0881757510393548e-09 -1.3529372579329563e-08 0.0000000000000000e+00  -2.3928252444419187e-09 -1.4179427425713534e-08 0.0000000000000000e+00  -3.4743350641233334e-09 -1.3407852651542474e-08 0.0000000000000000e+00  -4.7773516695043340e-09 -1.2050131058347174e-08 0.0000000000000000e+00  -5.8379893086442539e-09 -1.0324875882558488e-08 0.0000000000000000e+00  -6.5735286979034257e-09 -8.4417368064689685e-09 0.0000000000000000e+00  -7.0251559047172647e-09 -6.5560782666796887e-09 0.0000000000000000e+00  -7.2705227283851166e-09 -4.7541959146322530e-09 0.0000000000000000e+00  -7.3856291597926645e-09 -3.0628918436748602e-09 0.0000000000000000e+00  -7.4288977689868221e-09 -1.4673471679520480e-09 0.0000000000000000e+00  -7.4363362478668063e-09 7.1773462015327550e-11 0.0000000000000000e+00  -7.4212334523948532e-09 1.6044046241995276e-09 0.0000000000000000e+00  -7.3747836571861402e-09 3.1794403562364985e-09 0.0000000000000000e+00  -7.2663837805708752e-09 4.8333904303729642e-09 0.0000000000000000e+00  -7.0443092800856568e-09 6.5775680325505355e-09 0.0000000000000000e+00  -6.6394669910515030e-09 8.3834028030114262e-09 0.0000000000000000e+00  -5.9774458679399959e-09 1.0168475903500822e-08 0.0000000000000000e+00  -5.0087490153679477e-09 1.1790867339594349e-08 0.0000000000000000e+00  -3.7846557662045930e-09 1.3065958111533031e-08 0.0000000000000000e+00  -2.7047948368977399e-09 1.3832928146239334e-08 0.0000000000000000e+00  -3.3885467559521262e-09 1.4546116522418802e-08 0.0000000000000000e+00  -2.8301289817089217e-09 -1.1641464758560687e-08 0.0000000000000000e+00  -2.4645683898171720e-09 -1.2349197988137425e-08 0.0000000000000000e+00  -3.7317258794124302e-09 -1.1760999048531649e-08 0.0000000000000000e+00  -5.2375183141317734e-09 -1.0696329275851517e-08 0.0000000000000000e+00  -6.5552893452307324e-09 -9.3041724591972092e-09 0.0000000000000000e+00  -7.5852673554967390e-09 -7.7314516519859654e-09 0.0000000000000000e+00  -8.3325291038495427e-09 -6.0984199295467981e-09 0.0000000000000000e+00  -8.8396898168373743e-09 -4.4831942956019215e-09 0.0000000000000000e+00  -9.1571192843629766e-09 -2.9216709696238585e-09 0.0000000000000000e+00  -9.3278008119980515e-09 -1.4163126231593902e-09 0.0000000000000000e+00  -9.3801302176491826e-09 5.2250134821763976e-11 0.0000000000000000e+00  -9.3251312224542243e-09 1.5137155431825452e-09 0.0000000000000000e+00  -9.1559265122242000e-09 2.9973258718644593e-09 0.0000000000000000e+00  -8.8486014886536238e-09 4.5213886750501253e-09 0.0000000000000000e+00  -8.3648784185923948e-09 6.0827456193836266e-09 0.0000000000000000e+00  -7.6582308925171461e-09 7.6468418685544294e-09 0.0000000000000000e+00  -6.6863722956002452e-09 9.1409514135676894e-09 0.0000000000000000e+00  -5.4362631859956546e-09 1.0455519896235045e-08 0.0000000000000000e+00  -3.9842745878033982e-09 1.1461475240657522e-08 0.0000000000000000e+00  -2.7109930420826380e-09 1.2062225857779921e-08 0.0000000000000000e+00  -3.0605231885245100e-09 1.2827073221139156e-08 0.0000000000000000e+00  -2.6347703231104321e-09 -9.6715423965645537e-09 0.0000000000000000e+00  -2.5213977741671996e-09 -1.0422947102164250e-08 0.0000000000000000e+00  -3.9258344209118828e-09 -9.9762509896476891e-09 0.0000000000000000e+00  -5.5736679277952654e-09 -9.1466964271839144e-09 0.0000000000000000e+00  -7.0698073548071854e-09 -8.0397157442910764e-09 0.0000000000000000e+00  -8.3079352600002868e-09 -6.7579349637221769e-09 0.0000000000000000e+00  -9.2703846724808705e-09 -5.3910318879842168e-09 0.0000000000000000e+00  -9.9739588200827283e-09 -4.0036772661703961e-09 0.0000000000000000e+00  -1.0447213912593614e-08 -2.6321542791234556e-09 0.0000000000000000e+00  -1.0717879398705724e-08 -1.2880311664338970e-09 0.0000000000000000e+00  -1.0805651300065158e-08 3.4524293478412616e-11 0.0000000000000000e+00  -1.0718596974603711e-08 1.3501203559011882e-09 0.0000000000000000e+00  -1.0452115188275296e-08 2.6733200411983752e-09 0.0000000000000000e+00  -9.9899822431680280e-09 4.0100461762788422e-09 0.0000000000000000e+00  -9.3076605817979310e-09 5.3496122297751871e-09 0.0000000000000000e+00  -8.3786384983094420e-09 6.6583570623247443e-09 0.0000000000000000e+00  -7.1852863974898185e-09 7.8768335539531035e-09 0.0000000000000000e+00  -5.7386211185464234e-09 8.9234636712908411e-09 0.0000000000000000e+00  -4.1277403285303342e-09 9.7092330615412244e-09 0.0000000000000000e+00  -2.7141910125603302e-09 1.0178807984212464e-08 0.0000000000000000e+00  -2.8107704557146165e-09 1.0979557172205488e-08 0.0000000000000000e+00  -2.4887815735544521e-09 -7.6414261200333075e-09 0.0000000000000000e+00  -2.5659548161332191e-09 -8.4258848940169201e-09 0.0000000000000000e+00  -4.0710896714134720e-09 -8.0945262512861362e-09 0.0000000000000000e+00  -5.8178445647116144e-09 -7.4622549228627141e-09 0.0000000000000000e+00  -7.4362274416359071e-09 -6.6062586763963494e-09 0.0000000000000000e+00  -8.8183117261197664e-09 -5.5977333378425842e-09 0.0000000000000000e+00  -9.9324165675055626e-09 -4.5014832626475695e-09 0.0000000000000000e+00  -1.0777321194435117e-08 -3.3678026544594559e-09 0.0000000000000000e+00  -1.1364773670966237e-08 -2.2286617461600412e-09 0.0000000000000000e+00  -1.1709647437815422e-08 -1.0988423277875495e-09 0.0000000000000000e+00  -1.1823722489786141e-08 1.9689764496265553e-11 0.0000000000000000e+00  -1.1712200433485312e-08 1.1317616906214239e-09 0.0000000000000000e+00  -1.1372562719195864e-08 2.2423974683285262e-09 0.0000000000000000e+00  -1.0795577255000689e-08 3.3503570108741179e-09 0.0000000000000000e+00  -9.9684776256271559e-09 4.4424757245424128e-09 0.0000000000000000e+00  -8.8805562142619613e-09 5.4897337520526108e-09 0.0000000000000000e+00  -7.5319156087764943e-09 6.4463815089454342e-09 0.0000000000000000e+00  -5.9490961167072253e-09 7.2537502657954693e-09 0.0000000000000000e+00  -4.2275796490401230e-09 7.8517957226496767e-09 0.0000000000000000e+00  -2.7130570581156357e-09 8.2124650533682641e-09 0.0000000000000000e+00  -2.6205650731389858e-09 9.0376115745565545e-09 0.0000000000000000e+00  -2.3841720443193738e-09 -5.5689375140317030e-09 0.0000000000000000e+00  -2.6008949996968160e-09 -6.3782182931925693e-09 0.0000000000000000e+00  -4.1779121500867708e-09 -6.1457572673009197e-09 0.0000000000000000e+00  -5.9917653059839532e-09 -5.6862699188002954e-09 0.0000000000000000e+00  -7.6915449090189016e-09 -5.0578070383766245e-09 0.0000000000000000e+00  -9.1698550664036199e-09 -4.3087016738209611e-09 0.0000000000000000e+00  -1.0386601969710315e-08 -3.4837873333540891e-09 0.0000000000000000e+00  -1.1328549030673485e-08 -2.6197069755628039e-09 0.0000000000000000e+00  -1.1995416877856108e-08 -1.7417828089514773e-09 0.0000000000000000e+00  -1.2392312131300436e-08 -8.6406739303399783e-10 0.0000000000000000e+00  -1.2524698825784778e-08 8.1767822578227665e-12 0.0000000000000000e+00  -1.2395387491217755e-08 8.7454772091138514e-10 0.0000000000000000e+00  -1.2003489547248193e-08 1.7349619561016330e-09 0.0000000000000000e+00  -1.1345299410248517e-08 2.5851768934679361e-09 0.0000000000000000e+00  -1.0417051173670965e-08 3.4130165895538434e-09 0.0000000000000000e+00  -9.2195268919139213e-09 4.1960280249950917e-09 0.0000000000000000e+00  -7.7649540358959483e-09 4.9014078932326357e-09 0.0000000000000000e+00  -6.0897298862453680e-09 5.4891073153595130e-09 0.0000000000000000e+00  -4.2926133251382528e-09 5.9205251301067320e-09 0.0000000000000000e+00  -2.7075230096010902e-09 6.1863388981693480e-09 0.0000000000000000e+00  -2.4783489094041960e-09 7.0269340308274443e-09 0.0000000000000000e+00  -2.3161632790882783e-09 -3.4688743993431983e-09 0.0000000000000000e+00  -2.6286344671401555e-09 -4.2964068738710824e-09 0.0000000000000000e+00  -4.2540096535110816e-09 -4.1526545835946534e-09 0.0000000000000000e+00  -6.1105460202702397e-09 -3.8504395490086307e-09 0.0000000000000000e+00  -7.8610882057072468e-09 -3.4340660548550422e-09 0.0000000000000000e+00  -9.3995528711126225e-09 -2.9344761869609783e-09 0.0000000000000000e+00  -1.0681084724695408e-08 -2.3801481100234431