<?xml version="1.0"?>
<VTKFile type="UnstructuredGrid"  version="0.1"  >
<UnstructuredGrid>
<Piece  NumberOfPoints="651" NumberOfCells="1200">
<Points>
<DataArray  type="Float64"  NumberOfComponents="3"  format="ascii">0 0 0  50000 0 0  100000 0 0  150000 0 0  200000 0 0  250000 0 0  300000 0 0  350000 0 0  400000 0 0  450000 0 0  500000 0 0  550000 0 0  600000 0 0  650000 0 0  700000 0 0  750000 0 0  800000 0 0  850000 0 0  900000 0 0  950000 0 0  1000000 0 0  0 50000 0  50000 50000 0  100000 50000 0  150000 50000 0  200000 50000 0  250000 50000 0  300000 50000 0  350000 50000 0  400000 50000 0  450000 50000 0  500000 50000 0  550000 50000 0  600000 50000 0  650000 50000 0  700000 50000 0  750000 50000 0  800000 50000 0  850000 50000 0  900000 50000 0  950000 50000 0  1000000 50000 0  0 100000 0  50000 100000 0  100000 100000 0  150000 100000 0  200000 100000 0  250000 100000 0  300000 100000 0  350000 100000 0  400000 100000 0  450000 100000 0  500000 100000 0  550000 100000 0  600000 100000 0  650000 100000 0  700000 100000 0  750000 100000 0  800000 100000 0  850000 100000 0  900000 100000 0  950000 100000 0  1000000 100000 0  0 150000 0  50000 150000 0  100000 150000 0  150000 150000 0  200000 150000 0  250000 150000 0  300000 150000 0  350000 150000 0  400000 150000 0  450000 150000 0  500000 150000 0  550000 150000 0  600000 150000 0  650000 150000 0  700000 150000 0  750000 150000 0  800000 150000 0  850000 150000 0  900000 150000 0  950000 150000 0  1000000 150000 0  0 200000 0  50000 200000 0  100000 200000 0  150000 200000 0  200000 200000 0  250000 200000 0  300000 200000 0  350000 200000 0  400000 200000 0  450000 200000 0  500000 200000 0  550000 200000 0  600000 200000 0  650000 200000 0  700000 200000 0  750000 200000 0  800000 200000 0  850000 200000 0  900000 200000 0  950000 200000 0  1000000 200000 0  0 250000 0  50000 250000 0  100000 250000 0  150000 250000 0  200000 250000 0  250000 250000 0  300000 250000 0  350000 250000 0  400000 250000 0  450000 250000 0  500000 250000 0  550000 250000 0  600000 250000 0  650000 250000 0  700000 250000 0  750000 250000 0  800000 250000 0  850000 250000 0  900000 250000 0  950000 250000 0  1000000 250000 0  0 300000 0  50000 300000 0  100000 300000 0  150000 300000 0  200000 300000 0  250000 300000 0  300000 300000 0  350000 300000 0  400000 300000 0  450000 300000 0  500000 300000 0  550000 300000 0  600000 300000 0  650000 300000 0  700000 300000 0  750000 300000 0  800000 300000 0  850000 300000 0  900000 300000 0  950000 300000 0  1000000 300000 0  0 350000 0  50000 350000 0  100000 350000 0  150000 350000 0  200000 350000 0  250000 350000 0  300000 350000 0  350000 350000 0  400000 350000 0  450000 350000 0  500000 350000 0  550000 350000 0  600000 350000 0  650000 350000 0  700000 350000 0  750000 350000 0  800000 350000 0  850000 350000 0  900000 350000 0  950000 350000 0  1000000 350000 0  0 400000 0  50000 400000 0  100000 400000 0  150000 400000 0  200000 400000 0  250000 400000 0  300000 400000 0  350000 400000 0  400000 400000 0  450000 400000 0  500000 400000 0  550000 400000 0  600000 400000 0  650000 400000 0  700000 400000 0  750000 400000 0  800000 400000 0  850000 400000 0  900000 400000 0  950000 400000 0  1000000 400000 0  0 450000 0  50000 450000 0  100000 450000 0  150000 450000 0  200000 450000 0  250000 450000 0  300000 450000 0  350000 450000 0  400000 450000 0  450000 450000 0  500000 450000 0  550000 450000 0  600000 450000 0  650000 450000 0  700000 450000 0  750000 450000 0  800000 450000 0  850000 450000 0  900000 450000 0  950000 450000 0  1000000 450000 0  0 500000 0  50000 500000 0  100000 500000 0  150000 500000 0  200000 500000 0  250000 500000 0  300000 500000 0  350000 500000 0  400000 500000 0  450000 500000 0  500000 500000 0  550000 500000 0  600000 500000 0  650000 500000 0  700000 500000 0  750000 500000 0  800000 500000 0  850000 500000 0  900000 500000 0  950000 500000 0  1000000 500000 0  0 550000 0  50000 550000 0  100000 550000 0  150000 550000 0  200000 550000 0  250000 550000 0  300000 550000 0  350000 550000 0  400000 550000 0  450000 550000 0  500000 550000 0  550000 550000 0  600000 550000 0  650000 550000 0  700000 550000 0  750000 550000 0  800000 550000 0  850000 550000 0  900000 550000 0  950000 550000 0  1000000 550000 0  0 600000 0  50000 600000 0  100000 600000 0  150000 600000 0  200000 600000 0  250000 600000 0  300000 600000 0  350000 600000 0  400000 600000 0  450000 600000 0  500000 600000 0  550000 600000 0  600000 600000 0  650000 600000 0  700000 600000 0  750000 600000 0  800000 600000 0  850000 600000 0  900000 600000 0  950000 600000 0  1000000 600000 0  0 650000 0  50000 650000 0  100000 650000 0  150000 650000 0  200000 650000 0  250000 650000 0  300000 650000 0  350000 650000 0  400000 650000 0  450000 650000 0  500000 650000 0  550000 650000 0  600000 650000 0  650000 650000 0  700000 650000 0  750000 650000 0  800000 650000 0  850000 650000 0  900000 650000 0  950000 650000 0  1000000 650000 0  0 700000 0  50000 700000 0  100000 700000 0  150000 700000 0  200000 700000 0  250000 700000 0  300000 700000 0  350000 700000 0  400000 700000 0  450000 700000 0  500000 700000 0  550000 700000 0  600000 700000 0  650000 700000 0  700000 700000 0  750000 700000 0  800000 700000 0  850000 700000 0  900000 700000 0  950000 700000 0  1000000 700000 0  0 750000 0  50000 750000 0  100000 750000 0  150000 750000 0  200000 750000 0  250000 750000 0  300000 750000 0  350000 750000 0  400000 750000 0  450000 750000 0  500000 750000 0  550000 750000 0  600000 750000 0  650000 750000 0  700000 750000 0  750000 750000 0  800000 750000 0  850000 750000 0  900000 750000 0  950000 750000 0  1000000 750000 0  0 800000 0  50000 800000 0  100000 800000 0  150000 800000 0  200000 800000 0  250000 800000 0  300000 800000 0  350000 800000 0  400000 800000 0  450000 800000 0  500000 800000 0  550000 800000 0  600000 800000 0  650000 800000 0  700000 800000 0  750000 800000 0  800000 800000 0  850000 800000 0  900000 800000 0  950000 800000 0  1000000 800000 0  0 850000 0  50000 850000 0  100000 850000 0  150000 850000 0  200000 850000 0  250000 850000 0  300000 850000 0  350000 850000 0  400000 850000 0  450000 850000 0  500000 850000 0  550000 850000 0  600000 850000 0  650000 850000 0  700000 850000 0  750000 850000 0  800000 850000 0  850000 850000 0  900000 850000 0  950000 850000 0  1000000 850000 0  0 900000 0  50000 900000 0  100000 900000 0  150000 900000 0  200000 900000 0  250000 900000 0  300000 900000 0  350000 900000 0  400000 900000 0  450000 900000 0  500000 900000 0  550000 900000 0  600000 900000 0  650000 900000 0  700000 900000 0  750000 900000 0  800000 900000 0  850000 900000 0  900000 900000 0  950000 900000 0  1000000 900000 0  0 950000 0  50000 950000 0  100000 950000 0  150000 950000 0  200000 950000 0  250000 950000 0  300000 950000 0  350000 950000 0  400000 950000 0  450000 950000 0  500000 950000 0  550000 950000 0  600000 950000 0  650000 950000 0  700000 950000 0  750000 950000 0  800000 950000 0  850000 950000 0  900000 950000 0  950000 950000 0  1000000 950000 0  0 1000000 0  50000 1000000 0  100000 1000000 0  150000 1000000 0  200000 1000000 0  250000 1000000 0  300000 1000000 0  350000 1000000 0  400000 1000000 0  450000 1000000 0  500000 1000000 0  550000 1000000 0  600000 1000000 0  650000 1000000 0  700000 1000000 0  750000 1000000 0  800000 1000000 0  850000 1000000 0  900000 1000000 0  950000 1000000 0  1000000 1000000 0  0 1050000 0  50000 1050000 0  100000 1050000 0  150000 1050000 0  200000 1050000 0  250000 1050000 0  300000 1050000 0  350000 1050000 0  400000 1050000 0  450000 1050000 0  500000 1050000 0  550000 1050000 0  600000 1050000 0  650000 1050000 0  700000 1050000 0  750000 1050000 0  800000 1050000 0  850000 1050000 0  900000 1050000 0  950000 1050000 0  1000000 1050000 0  0 1100000 0  50000 1100000 0  100000 1100000 0  150000 1100000 0  200000 1100000 0  250000 1100000 0  300000 1100000 0  350000 1100000 0  400000 1100000 0  450000 1100000 0  500000 1100000 0  550000 1100000 0  600000 1100000 0  650000 1100000 0  700000 1100000 0  750000 1100000 0  800000 1100000 0  850000 1100000 0  900000 1100000 0  950000 1100000 0  1000000 1100000 0  0 1150000 0  50000 1150000 0  100000 1150000 0  150000 1150000 0  200000 1150000 0  250000 1150000 0  300000 1150000 0  350000 1150000 0  400000 1150000 0  450000 1150000 0  500000 1150000 0  550000 1150000 0  600000 1150000 0  650000 1150000 0  700000 1150000 0  750000 1150000 0  800000 1150000 0  850000 1150000 0  900000 1150000 0  950000 1150000 0  1000000 1150000 0  0 1200000 0  50000 1200000 0  100000 1200000 0  150000 1200000 0  200000 1200000 0  250000 1200000 0  300000 1200000 0  350000 1200000 0  400000 1200000 0  450000 1200000 0  500000 1200000 0  550000 1200000 0  600000 1200000 0  650000 1200000 0  700000 1200000 0  750000 1200000 0  800000 1200000 0  850000 1200000 0  900000 1200000 0  950000 1200000 0  1000000 1200000 0  0 1250000 0  50000 1250000 0  100000 1250000 0  150000 1250000 0  200000 1250000 0  250000 1250000 0  300000 1250000 0  350000 1250000 0  400000 1250000 0  450000 1250000 0  500000 1250000 0  550000 1250000 0  600000 1250000 0  650000 1250000 0  700000 1250000 0  750000 1250000 0  800000 1250000 0  850000 1250000 0  900000 1250000 0  950000 1250000 0  1000000 1250000 0  0 1300000 0  50000 1300000 0  100000 1300000 0  150000 1300000 0  200000 1300000 0  250000 1300000 0  300000 1300000 0  350000 1300000 0  400000 1300000 0  450000 1300000 0  500000 1300000 0  550000 1300000 0  600000 1300000 0  650000 1300000 0  700000 1300000 0  750000 1300000 0  800000 1300000 0  850000 1300000 0  900000 1300000 0  950000 1300000 0  1000000 1300000 0  0 1350000 0  50000 1350000 0  100000 1350000 0  150000 1350000 0  200000 1350000 0  250000 1350000 0  300000 1350000 0  350000 1350000 0  400000 1350000 0  450000 1350000 0  500000 1350000 0  550000 1350000 0  600000 1350000 0  650000 1350000 0  700000 135
[...]
<PointData  Vectors="f_1513"> 
<DataArray  type="Float64"  Name="f_1513"  NumberOfComponents="3" format="ascii">-2.4315411255135878e-08 -1.0549156873058957e-08 0.0000000000000000e+00  4.8729024032646324e-08 -6.6230488193146431e-09 0.0000000000000000e+00  4.2988616719734508e-08 -2.3076594750799984e-09 0.0000000000000000e+00  4.0527774747498587e-08 -9.2946555786612896e-10 0.0000000000000000e+00  3.9318658230841115e-08 -4.4528766764114102e-10 0.0000000000000000e+00  3.8528324238552989e-08 -2.3593182971571314e-10 0.0000000000000000e+00  3.7959822953829700e-08 -1.3357539854591468e-10 0.0000000000000000e+00  3.7556199782390976e-08 -8.0679384712401554e-11 0.0000000000000000e+00  3.7299494419964720e-08 -5.2657924473187409e-11 0.0000000000000000e+00  3.7185006284940203e-08 -3.6338353709379379e-11 0.0000000000000000e+00  3.7213545894993867e-08 -2.2591005770368767e-11 0.0000000000000000e+00  3.7389668707242884e-08 -2.9901222059965665e-12 0.0000000000000000e+00  3.7723262877855309e-08 3.2713522264394453e-11 0.0000000000000000e+00  3.8235588399288645e-08 1.0013601176885268e-10 0.0000000000000000e+00  3.8975341720378496e-08 2.2756893523897595e-10 0.0000000000000000e+00  4.0061168614534829e-08 4.7408584960214420e-10 0.0000000000000000e+00  4.1794003347085813e-08 9.7818167123223299e-10 0.0000000000000000e+00  4.4920441837539355e-08 2.0844009584441135e-09 0.0000000000000000e+00  5.0769950165565521e-08 4.6101592467421102e-09 0.0000000000000000e+00  5.8013365837829059e-08 9.1230922284035952e-09 0.0000000000000000e+00  -1.6441642488093899e-08 7.0158373938727316e-09 0.0000000000000000e+00  -1.8065592477790709e-08 -1.6092320859512292e-08 0.0000000000000000e+00  7.2857172495844277e-09 -1.1358819192469283e-08 0.0000000000000000e+00  1.8201108783732283e-08 -5.2643546256311117e-09 0.0000000000000000e+00  2.3255954328075860e-08 -2.4085563560396922e-09 0.0000000000000000e+00  2.5832684055471618e-08 -1.1540995303565131e-09 0.0000000000000000e+00  2.7287071231372318e-08 -5.6338119606418484e-10 0.0000000000000000e+00  2.8130832673713554e-08 -2.6779668077291719e-10 0.0000000000000000e+00  2.8623029871149541e-08 -1.1699533396437050e-10 0.0000000000000000e+00  2.8906728165997439e-08 -4.1980833896802152e-11 0.0000000000000000e+00  2.9061675838431435e-08 -5.4549546442363931e-12 0.0000000000000000e+00  2.9129389738883586e-08 1.7102893942851673e-11 0.0000000000000000e+00  2.9124668378581350e-08 4.6138635829036853e-11 0.0000000000000000e+00  2.9039573251415340e-08 1.0378990376908136e-10 0.0000000000000000e+00  2.8841890156934789e-08 2.2049585150496120e-10 0.0000000000000000e+00  2.8467064344983030e-08 4.4678444834380156e-10 0.0000000000000000e+00  2.7797569420547888e-08 8.7917066949566505e-10 0.0000000000000000e+00  2.6607666364801085e-08 1.7210121257978621e-09 0.0000000000000000e+00  2.4385962903998231e-08 3.4182802589599348e-09 0.0000000000000000e+00  1.9687795656634577e-08 6.8611856073158531e-09 0.0000000000000000e+00  8.2657830591845128e-09 1.3012671381722197e-08 0.0000000000000000e+00  -1.8409327350601278e-08 1.0948368493454650e-08 0.0000000000000000e+00  -1.1074205999948223e-08 -1.9666368533008492e-08 0.0000000000000000e+00  -2.4551885428557296e-10 -1.8514687481571348e-08 0.0000000000000000e+00  5.8811979212453069e-09 -1.1329731874420672e-08 0.0000000000000000e+00  1.0768692109077429e-08 -6.5466613999617010e-09 0.0000000000000000e+00  1.4577094783411100e-08 -3.7859178864028608e-09 0.0000000000000000e+00  1.7214883770331405e-08 -2.2181001477282010e-09 0.0000000000000000e+00  1.8976195467530456e-08 -1.3020611736613735e-09 0.0000000000000000e+00  2.0127737126709696e-08 -7.4645979670058267e-10 0.0000000000000000e+00  2.0848913984845250e-08 -3.9229014402106351e-10 0.0000000000000000e+00  2.1250037944236467e-08 -1.4528497168255888e-10 0.0000000000000000e+00  2.1390906516304469e-08 5.8749904822223319e-11 0.0000000000000000e+00  2.1291875832804120e-08 2.7284835450166779e-10 0.0000000000000000e+00  2.0937875356347623e-08 5.5202777806544751e-10 0.0000000000000000e+00  2.0276027804694218e-08 9.6691475704464128e-10 0.0000000000000000e+00  1.9206291572129774e-08 1.6237877846015169e-09 0.0000000000000000e+00  1.7563218481366478e-08 2.6987477759017515e-09 0.0000000000000000e+00  1.5087457598877475e-08 4.4924505340796827e-09 0.0000000000000000e+00  1.1397197708453104e-08 7.4786022466939329e-09 0.0000000000000000e+00  6.0263954411580960e-09 1.2123383433793766e-08 0.0000000000000000e+00  -1.2867104646414316e-09 1.7575549176451577e-08 0.0000000000000000e+00  -1.3242363515267673e-08 1.4695961290859175e-08 0.0000000000000000e+00  -7.3665059110811782e-09 -2.0260116964085560e-08 0.0000000000000000e+00  -1.5480625517043870e-09 -1.9959082032594936e-08 0.0000000000000000e+00  1.1382487095325860e-09 -1.5306029414128362e-08 0.0000000000000000e+00  3.9206120394040136e-09 -1.0415770446563044e-08 0.0000000000000000e+00  6.8181605360783527e-09 -6.8369823654665251e-09 0.0000000000000000e+00  9.3342174511838825e-09 -4.4289558535781388e-09 0.0000000000000000e+00  1.1272561033474550e-08 -2.8316796315391305e-09 0.0000000000000000e+00  1.2658706486636616e-08 -1.7528829470494401e-09 0.0000000000000000e+00  1.3577493385409573e-08 -9.9166182106445459e-10 0.0000000000000000e+00  1.4103744824553751e-08 -4.0992017646435491e-10 0.0000000000000000e+00  1.4284768882399389e-08 9.5056354135992895e-11 0.0000000000000000e+00  1.4137792486063700e-08 6.1087778202642241e-10 0.0000000000000000e+00  1.3650212598751111e-08 1.2260988523890982e-09 0.0000000000000000e+00  1.2779855159755512e-08 2.0457172404191642e-09 0.0000000000000000e+00  1.1456491591410528e-08 3.2087162030024614e-09 0.0000000000000000e+00  9.5908208015683829e-09 4.9060499006523920e-09 0.0000000000000000e+00  7.1077629069682096e-09 7.3812683258868931e-09 0.0000000000000000e+00  4.0381501891581936e-09 1.0843330387538684e-08 0.0000000000000000e+00  6.7475503213262128e-10 1.5100422631470462e-08 0.0000000000000000e+00  -2.6201307377256889e-09 1.8742728215723754e-08 0.0000000000000000e+00  -8.9393204336891517e-09 1.7539061752546725e-08 0.0000000000000000e+00  -5.4929898203319994e-09 -1.9639349403382421e-08 0.0000000000000000e+00  -1.8895044656648655e-09 -1.9698948798579708e-08 0.0000000000000000e+00  -9.2800446635693193e-10 -1.6728376255181470e-08 0.0000000000000000e+00  2.1495119935431761e-10 -1.2794614806170186e-08 0.0000000000000000e+00  1.8584848967559584e-09 -9.2372071422260467e-09 0.0000000000000000e+00  3.6326933551144181e-09 -6.4528692464575962e-09 0.0000000000000000e+00  5.2157379867588329e-09 -4.3812810135110977e-09 0.0000000000000000e+00  6.4644019416388393e-09 -2.8468975551192225e-09 0.0000000000000000e+00  7.3457346799437387e-09 -1.6777813673558267e-09 0.0000000000000000e+00  7.8695295579581128e-09 -7.2980607771399931e-10 0.0000000000000000e+00  8.0519766627451756e-09 1.1781206985106995e-10 0.0000000000000000e+00  7.9007789111059185e-09 9.7358329430477657e-10 0.0000000000000000e+00  7.4110887473250264e-09 1.9452785898510718e-09 0.0000000000000000e+00  6.5681760902216535e-09 3.1502564451658241e-09 0.0000000000000000e+00  5.3580821098500920e-09 4.7220603352794792e-09 0.0000000000000000e+00  3.7923103208116307e-09 6.8047367694536494e-09 0.0000000000000000e+00  1.9559109461272516e-09 9.5115348015497328e-09 0.0000000000000000e+00  7.5961310989368134e-11 1.2800274305925704e-08 0.0000000000000000e+00  -1.4831633881919229e-09 1.6219553085710839e-08 0.0000000000000000e+00  -2.7310738523627229e-09 1.8691697453029268e-08 0.0000000000000000e+00  -6.6500438088336734e-09 1.8526849779948645e-08 0.0000000000000000e+00  -4.4292236733413565e-09 -1.8479514548145389e-08 0.0000000000000000e+00  -2.0634607663686467e-09 -1.8764803188596987e-08 0.0000000000000000e+00  -2.0146171775795501e-09 -1.6755674588729168e-08 0.0000000000000000e+00  -1.9251301767213169e-09 -1.3765461494988995e-08 0.0000000000000000e+00  -1.3206685192210442e-09 -1.0645295109288343e-08 0.0000000000000000e+00  -3.7618735963619867e-10 -7.8835117903359955e-09 0.0000000000000000e+00  6.4058653520979847e-10 -5.6115007827624409e-09 0.0000000000000000e+00  1.5405830632283683e-09 -3.7853940402169807e-09 0.0000000000000000e+00  2.2243735273972911e-09 -2.2991288522192678e-09 0.0000000000000000e+00  2.6495599922451173e-09 -1.0343876782833779e-09 0.0000000000000000e+00  2.8017614489992745e-09 1.2378431526282803e-10 0.0000000000000000e+00  2.6781285046573665e-09 1.2855179650889433e-09 0.0000000000000000e+00  2.2816269220400508e-09 2.5589989507354881e-09 0.0000000000000000e+00  1.6241393506487852e-09 4.0522977723720165e-09 0.0000000000000000e+00  7.3853820492805957e-10 5.8687097147501403e-09 0.0000000000000000e+00  -2.9907516063225272e-10 8.0865844710967954e-09 0.0000000000000000e+00  -1.3400581583012716e-09 1.0709160868919468e-08 0.0000000000000000e+00  -2.1513761420354432e-09 1.3571497341569106e-08 0.0000000000000000e+00  -2.5141587473637762e-09 1.6229809758949957e-08 0.0000000000000000e+00  -2.7087383235351336e-09 1.7992586019211304e-08 0.0000000000000000e+00  -5.3073055869607225e-09 1.8285047060074399e-08 0.0000000000000000e+00  -3.7515786841233881e-09 -1.7022470616607450e-08 0.0000000000000000e+00  -2.1950244721946744e-09 -1.7463469332754712e-08 0.0000000000000000e+00  -2.6905417567555512e-09 -1.6036956588657775e-08 0.0000000000000000e+00  -3.2679115243372197e-09 -1.3760203835864815e-08 0.0000000000000000e+00  -3.4214377994848975e-09 -1.1157791518416029e-08 0.0000000000000000e+00  -3.1889844768669905e-09 -8.6314245562038035e-09 0.0000000000000000e+00  -2.7469313621098615e-09 -6.3754428186910572e-09 0.0000000000000000e+00  -2.2614732371409152e-09 -4.4311761242017331e-09 0.0000000000000000e+00  -1.8476128367910254e-09 -2.7565042197572973e-09 0.0000000000000000e+00  -1.5724580985859666e-09 -1.2719553051279492e-09 0.0000000000000000e+00  -1.4691568436119198e-09 1.1553252705062896e-10 0.0000000000000000e+00  -1.5480002888317427e-09 1.5020145930495627e-09 0.0000000000000000e+00  -1.8010619957720743e-09 2.9813219373647868e-09 0.0000000000000000e+00  -2.2001010558714196e-09 4.6393907151920511e-09 0.0000000000000000e+00  -2.6884070010040861e-09 6.5427440339392906e-09 0.0000000000000000e+00  -3.1690310494127796e-09 8.7152091741261489e-09 0.0000000000000000e+00  -3.4977958333589810e-09 1.1098222724525405e-08 0.0000000000000000e+00  -3.5050491278380225e-09 1.3499907395195275e-08 0.0000000000000000e+00  -3.1081460326316802e-09 1.5567274097937845e-08 0.0000000000000000e+00  -2.6933076153317808e-09 1.6875329322240711e-08 0.0000000000000000e+00  -4.4364051028069953e-09 1.7384679109733985e-08 0.0000000000000000e+00  -3.2839412818004116e-09 -1.5368212961282290e-08 0.0000000000000000e+00  -2.3029686403092114e-09 -1.5921370000463803e-08 0.0000000000000000e+00  -3.1588874702342031e-09 -1.4873487901406141e-08 0.0000000000000000e+00  -4.1715365294279425e-09 -1.3117216510747719e-08 0.0000000000000000e+00  -4.8577512741751042e-09 -1.0985057782273849e-08 0.0000000000000000e+00  -5.1781476553629072e-09 -8.7723169870181804e-09 0.0000000000000000e+00  -5.2310840833668985e-09 -6.6655658559115890e-09 0.0000000000000000e+00  -5.1384522544654697e-09 -4.7433502758142024e-09 0.0000000000000000e+00  -5.0014589497648742e-09 -3.0077323825744973e-09 0.0000000000000000e+00  -4.8892795380798151e-09 -1.4157962542096593e-09 0.0000000000000000e+00  -4.8409590391975253e-09 9.7959266281131025e-11 0.0000000000000000e+00  -4.8699522473357493e-09 1.6073358786596407e-09 0.0000000000000000e+00  -4.9666535775856234e-09 3.1843274862984363e-09 0.0000000000000000e+00  -5.0976659123929926e-09 4.8890718249811412e-09 0.0000000000000000e+00  -5.2027050368983547e-09 6.7561705470781582e-09 0.0000000000000000e+00  -5.1925212344392141e-09 8.7747830797101839e-09 0.0000000000000000e+00  -4.9556175927694848e-09 1.0863323041596186e-08 0.0000000000000000e+00  -4.3901062574101179e-09 1.2848017846416689e-08 0.0000000000000000e+00  -3.4996952758854377e-09 1.4469676200279580e-08 0.0000000000000000e+00  -2.6920897364329185e-09 1.5469584079042556e-08 0.0000000000000000e+00  -3.8292805891157193e-09 1.6099399296639881e-08 0.0000000000000000e+00  -2.9451733167327218e-09 -1.3570590859374566e-08 0.0000000000000000e+00  -2.3912159302460745e-09 -1.4206686234498999e-08 0.0000000000000000e+00  -3.5017077298965304e-09 -1.3420753593642949e-08 0.0000000000000000e+00  -4.8086571411805119e-09 -1.2051434135254179e-08 0.0000000000000000e+00  -5.8662229358975600e-09 -1.0318097110573442e-08 0.0000000000000000e+00  -6.5962943136867979e-09 -8.4304866668472492e-09 0.0000000000000000e+00  -7.0418728339555039e-09 -6.5433740837864655e-09 0.0000000000000000e+00  -7.2814887350050637e-09 -4.7422168742519347e-09 0.0000000000000000e+00  -7.3915214654288422e-09 -3.0530044890176652e-09 0.0000000000000000e+00  -7.4304943768751649e-09 -1.4602432288669894e-09 0.0000000000000000e+00  -7.4343799358501212e-09 7.5921883808458313e-11 0.0000000000000000e+00  -7.4163839646717596e-09 1.6058149672872565e-09 0.0000000000000000e+00  -7.3676206074402680e-09 3.1786267481990487e-09 0.0000000000000000e+00  -7.2574379453533434e-09 4.8311065595015305e-09 0.0000000000000000e+00  -7.0341108031151482e-09 6.5747800984093569e-09 0.0000000000000000e+00  -6.6286051924128207e-09 8.3812877427918065e-09 0.0000000000000000e+00  -5.9666376966310308e-09 1.0168446524892997e-08 0.0000000000000000e+00  -4.9989106481898131e-09 1.1794659903535441e-08 0.0000000000000000e+00  -3.7769717406750637e-09 1.3075962545852303e-08 0.0000000000000000e+00  -2.6975603736436497e-09 1.3856399040964940e-08 0.0000000000000000e+00  -3.3847514068612394e-09 1.4562694689075396e-08 0.0000000000000000e+00  -2.6937370000020329e-09 -1.1665733162405052e-08 0.0000000000000000e+00  -2.4620778479811730e-09 -1.2364050056932038e-08 0.0000000000000000e+00  -3.7581475485283898e-09 -1.1770110006751533e-08 0.0000000000000000e+00  -5.2689677523504473e-09 -1.0698920173156732e-08 0.0000000000000000e+00  -6.5851847915208041e-09 -9.3015616049551349e-09 0.0000000000000000e+00  -7.6110088253464276e-09 -7.7256188913798021e-09 0.0000000000000000e+00  -8.3531076479419391e-09 -6.0913319606385912e-09 0.0000000000000000e+00  -8.8549736929987404e-09 -4.4764525651685554e-09 0.0000000000000000e+00  -9.1674564793073724e-09 -2.9163873522785262e-09 0.0000000000000000e+00  -9.3337610631561010e-09 -1.4131143136882803e-09 0.0000000000000000e+00  -9.3823495885839975e-09 5.3161722001360692e-11 0.0000000000000000e+00  -9.3242321343317550e-09 1.5124969568904128e-09 0.0000000000000000e+00  -9.1524894510113188e-09 2.9944369489755531e-09 0.0000000000000000e+00  -8.8431708690596567e-09 4.5175590998320546e-09 0.0000000000000000e+00  -8.3579914372866021e-09 6.0789638096640382e-09 0.0000000000000000e+00  -7.6504626006698038e-09 7.6443650293785265e-09 0.0000000000000000e+00  -6.6783910929908703e-09 9.1413396694285011e-09 0.0000000000000000e+00  -5.4288790704613064e-09 1.0460731260865738e-08 0.0000000000000000e+00  -3.9783923829604958e-09 1.1474211268452668e-08 0.0000000000000000e+00  -2.7035451952073126e-09 1.2090376480572310e-08 0.0000000000000000e+00  -3.0487011010560470e-09 1.2849076233194689e-08 0.0000000000000000e+00  -2.5065172654675347e-09 -9.6810169346775450e-09 0.0000000000000000e+00  -2.5180272432850245e-09 -1.0426266100862818e-08 0.0000000000000000e+00  -3.9504784466524349e-09 -9.9809395377950856e-09 0.0000000000000000e+00  -5.6038568225681837e-09 -9.1493000616000519e-09 0.0000000000000000e+00  -7.0995832672749898e-09 -8.0399296062917527e-09 0.0000000000000000e+00  -8.3347620839581705e-09 -6.7564325199277611e-09 0.0000000000000000e+00  -9.2930645511924015e-09 -5.3888320783274764e-09 0.0000000000000000e+00  -9.9920876960836547e-09 -4.0017728136400102e-09 0.0000000000000000e+00  -1.0460882159216868e-08 -2.6313169053211472e-09 0.0000000000000000e+00  -1.0727456547510651e-08 -1.2887332696568818e-09 0.0000000000000000e+00  -1.0811636977302501e-08 3.2123611374760999e-11 0.0000000000000000e+00  -1.0721528409704616e-08 1.3461628228209522e-09 0.0000000000000000e+00  -1.0452519370882043e-08 2.6682328114978279e-09 0.0000000000000000e+00  -9.9883616337354009e-09 4.0045359728016880e-09 0.0000000000000000e+00  -9.3045039821495469e-09 5.3446744034359615e-09 0.0000000000000000e+00  -8.3744510668436804e-09 6.6553014392016559e-09 0.0000000000000000e+00  -7.1806316850003088e-09 7.8773318075971029e-09 0.0000000000000000e+00  -5.7341448434585433e-09 8.9296571409137918e-09 0.0000000000000000e+00  -4.1239960601673937e-09 9.7240998093478675e-09 0.0000000000000000e+00  -2.7066252374333405e-09 1.0210797733933205e-08 0.0000000000000000e+00  -2.7900612438852156e-09 1.1006261539120167e-08 0.0000000000000000e+00  -2.3699010898572848e-09 -7.6383053979176920e-09 0.0000000000000000e+00  -2.5617520234379914e-09 -8.4188782612738506e-09 0.0000000000000000e+00  -4.0933899257858038e-09 -8.0946532820584403e-09 0.0000000000000000e+00  -5.8457779481172933e-09 -7.4640309550591944e-09 0.0000000000000000e+00  -7.4645592073560058e-09 -6.6081920092834508e-09 0.0000000000000000e+00  -8.8447313336927996e-09 -5.5994856304111433e-09 0.0000000000000000e+00  -9.9557084618202559e-09 -4.5032754233212406e-09 0.0000000000000000e+00  -1.0796945922477996e-08 -3.3700594607368479e-09 0.0000000000000000e+00  -1.1380650102009886e-08 -2.2317933890104469e-09 0.0000000000000000e+00  -1.1721983938975155e-08 -1.1031209495362882e-09 0.0000000000000000e+00  -1.1832886506946232e-08 1.4192805957242085e-11 0.0000000000000000e+00  -1.1718626186170982e-08 1.1252064104034447e-09 0.0000000000000000e+00  -1.1376693339759596e-08 2.2351945460576442e-09 0.0000000000000000e+00  -1.0797836084005198e-08 3.3431891844479375e-09 0.0000000000000000e+00  -9.9692638324333014e-09 4.4363288197241256e-09 0.0000000000000000e+00  -8.8802606436431024e-09 5.4859413658034707e-09 0.0000000000000000e+00  -7.5309492260328993e-09 6.4466898598617070e-09 0.0000000000000000e+00  -5.9478873319913460e-09 7.2604442225296846e-09 0.0000000000000000e+00  -4.2262594281214104e-09 7.8680913802184495e-09 0.0000000000000000e+00  -2.7054673428510346e-09 8.2472800369624921e-09 0.0000000000000000e+00  -2.5901869437051278e-09 9.0680728097220694e-09 0.0000000000000000e+00  -2.2756146976856632e-09 -5.5554318435545808e-09 0.0000000000000000e+00  -2.5959322794852918e-09 -6.3623045314791941e-09 0.0000000000000000e+00  -4.1974858350696593e-09 -6.1415281017552804e-09 0.0000000000000000e+00  -6.0167444455954558e-09 -5.6867193284675851e-09 0.0000000000000000e+00  -7.7174593465803780e-09 -5.0605932128899952e-09 0.0000000000000000e+00  -9.1947126771094227e-09 -4.3127257188860990e-09 0.0000000000000000e+00  -1.0409285546127972e-08 -3.4886295644693287e-09 0.0000000000000000e+00  -1.1348491702704548e-08 -2.6253003690584656e-09 0.0000000000000000e+00  -1.2012447998444848e-08 -1.7481961282094995e-09 0.0000000000000000e+00  -1.2406530383206548e-08 -8.7136246763230098e-10 0.0000000000000000e+00  -1.2536364108706030e-08 3.6391460886884426e-14 0.0000000000000000e+00  -1.2404835433196938e-08 8.6575722151800002e-10 0.0000000000000000e+00  -1.2011069907973181e-08 1.7259220342406681e-09 0.0000000000000000e+00  -1.1351337453520814e-08 2.5765392377174495e-09 0.0000000000000000e+00  -1.0421830530591599e-08 3.4057365717606925e-09 0.0000000000000000e+00  -9.2232920895930717e-09 4.1914299481419090e-09 0.0000000000000000e+00  -7.7679248678508427e-09 4.9012707446209113e-09 0.0000000000000000e+00  -6.0920695557906827e-09 5.4958133826540185e-09 0.0000000000000000e+00  -4.2939599237720565e-09 5.9374799638960259e-09 0.0000000000000000e+00  -2.7000055460645562e-09 6.2228118165285122e-09 0.0000000000000000e+00  -2.4376193106243470e-09 7.0599882922853220e-09 0.0000000000000000e+00  -2.2186081817573330e-09 -3.4471719963035813e-09 0.0000000000000000e+00  -2.6229980266547975e-09 -4.2731288734083049e-09 0.0000000000000000e+00  -4.2706122236024675e-09 -4.1445141596657335e-09 0.0000000000000000e+00  -6.1320952241857450e-09 -3.8493275164639014e-09 0.0000000000000000e+00  -7.8838851094896338e-09 -3.4370553050509975e-09 0.0000000000000000e+00  -9.4219720859257660e-09 -2.9399165372553918e-09 0.0000000000000000e+00  -1.0702182186288809e-08 -2.3871268241