<?xml version="1.0"?>
<VTKFile type="UnstructuredGrid"  version="0.1"  >
<UnstructuredGrid>
<Piece  NumberOfPoints="651" NumberOfCells="1200">
<Points>
<DataArray  type="Float64"  NumberOfComponents="3"  format="ascii">0 0 0  50000 0 0  100000 0 0  150000 0 0  200000 0 0  250000 0 0  300000 0 0  350000 0 0  400000 0 0  450000 0 0  500000 0 0  550000 0 0  600000 0 0  650000 0 0  700000 0 0  750000 0 0  800000 0 0  850000 0 0  900000 0 0  950000 0 0  1000000 0 0  0 50000 0  50000 50000 0  100000 50000 0  150000 50000 0  200000 50000 0  250000 50000 0  300000 50000 0  350000 50000 0  400000 50000 0  450000 50000 0  500000 50000 0  550000 50000 0  600000 50000 0  650000 50000 0  700000 50000 0  750000 50000 0  800000 50000 0  850000 50000 0  900000 50000 0  950000 50000 0  1000000 50000 0  0 100000 0  50000 100000 0  100000 100000 0  150000 100000 0  200000 100000 0  250000 100000 0  300000 100000 0  350000 100000 0  400000 100000 0  450000 100000 0  500000 100000 0  550000 100000 0  600000 100000 0  650000 100000 0  700000 100000 0  750000 100000 0  800000 100000 0  850000 100000 0  900000 100000 0  950000 100000 0  1000000 100000 0  0 150000 0  50000 150000 0  100000 150000 0  150000 150000 0  200000 150000 0  250000 150000 0  300000 150000 0  350000 150000 0  400000 150000 0  450000 150000 0  500000 150000 0  550000 150000 0  600000 150000 0  650000 150000 0  700000 150000 0  750000 150000 0  800000 150000 0  850000 150000 0  900000 150000 0  950000 150000 0  1000000 150000 0  0 200000 0  50000 200000 0  100000 200000 0  150000 200000 0  200000 200000 0  250000 200000 0  300000 200000 0  350000 200000 0  400000 200000 0  450000 200000 0  500000 200000 0  550000 200000 0  600000 200000 0  650000 200000 0  700000 200000 0  750000 200000 0  800000 200000 0  850000 200000 0  900000 200000 0  950000 200000 0  1000000 200000 0  0 250000 0  50000 250000 0  100000 250000 0  150000 250000 0  200000 250000 0  250000 250000 0  300000 250000 0  350000 250000 0  400000 250000 0  450000 250000 0  500000 250000 0  550000 250000 0  600000 250000 0  650000 250000 0  700000 250000 0  750000 250000 0  800000 250000 0  850000 250000 0  900000 250000 0  950000 250000 0  1000000 250000 0  0 300000 0  50000 300000 0  100000 300000 0  150000 300000 0  200000 300000 0  250000 300000 0  300000 300000 0  350000 300000 0  400000 300000 0  450000 300000 0  500000 300000 0  550000 300000 0  600000 300000 0  650000 300000 0  700000 300000 0  750000 300000 0  800000 300000 0  850000 300000 0  900000 300000 0  950000 300000 0  1000000 300000 0  0 350000 0  50000 350000 0  100000 350000 0  150000 350000 0  200000 350000 0  250000 350000 0  300000 350000 0  350000 350000 0  400000 350000 0  450000 350000 0  500000 350000 0  550000 350000 0  600000 350000 0  650000 350000 0  700000 350000 0  750000 350000 0  800000 350000 0  850000 350000 0  900000 350000 0  950000 350000 0  1000000 350000 0  0 400000 0  50000 400000 0  100000 400000 0  150000 400000 0  200000 400000 0  250000 400000 0  300000 400000 0  350000 400000 0  400000 400000 0  450000 400000 0  500000 400000 0  550000 400000 0  600000 400000 0  650000 400000 0  700000 400000 0  750000 400000 0  800000 400000 0  850000 400000 0  900000 400000 0  950000 400000 0  1000000 400000 0  0 450000 0  50000 450000 0  100000 450000 0  150000 450000 0  200000 450000 0  250000 450000 0  300000 450000 0  350000 450000 0  400000 450000 0  450000 450000 0  500000 450000 0  550000 450000 0  600000 450000 0  650000 450000 0  700000 450000 0  750000 450000 0  800000 450000 0  850000 450000 0  900000 450000 0  950000 450000 0  1000000 450000 0  0 500000 0  50000 500000 0  100000 500000 0  150000 500000 0  200000 500000 0  250000 500000 0  300000 500000 0  350000 500000 0  400000 500000 0  450000 500000 0  500000 500000 0  550000 500000 0  600000 500000 0  650000 500000 0  700000 500000 0  750000 500000 0  800000 500000 0  850000 500000 0  900000 500000 0  950000 500000 0  1000000 500000 0  0 550000 0  50000 550000 0  100000 550000 0  150000 550000 0  200000 550000 0  250000 550000 0  300000 550000 0  350000 550000 0  400000 550000 0  450000 550000 0  500000 550000 0  550000 550000 0  600000 550000 0  650000 550000 0  700000 550000 0  750000 550000 0  800000 550000 0  850000 550000 0  900000 550000 0  950000 550000 0  1000000 550000 0  0 600000 0  50000 600000 0  100000 600000 0  150000 600000 0  200000 600000 0  250000 600000 0  300000 600000 0  350000 600000 0  400000 600000 0  450000 600000 0  500000 600000 0  550000 600000 0  600000 600000 0  650000 600000 0  700000 600000 0  750000 600000 0  800000 600000 0  850000 600000 0  900000 600000 0  950000 600000 0  1000000 600000 0  0 650000 0  50000 650000 0  100000 650000 0  150000 650000 0  200000 650000 0  250000 650000 0  300000 650000 0  350000 650000 0  400000 650000 0  450000 650000 0  500000 650000 0  550000 650000 0  600000 650000 0  650000 650000 0  700000 650000 0  750000 650000 0  800000 650000 0  850000 650000 0  900000 650000 0  950000 650000 0  1000000 650000 0  0 700000 0  50000 700000 0  100000 700000 0  150000 700000 0  200000 700000 0  250000 700000 0  300000 700000 0  350000 700000 0  400000 700000 0  450000 700000 0  500000 700000 0  550000 700000 0  600000 700000 0  650000 700000 0  700000 700000 0  750000 700000 0  800000 700000 0  850000 700000 0  900000 700000 0  950000 700000 0  1000000 700000 0  0 750000 0  50000 750000 0  100000 750000 0  150000 750000 0  200000 750000 0  250000 750000 0  300000 750000 0  350000 750000 0  400000 750000 0  450000 750000 0  500000 750000 0  550000 750000 0  600000 750000 0  650000 750000 0  700000 750000 0  750000 750000 0  800000 750000 0  850000 750000 0  900000 750000 0  950000 750000 0  1000000 750000 0  0 800000 0  50000 800000 0  100000 800000 0  150000 800000 0  200000 800000 0  250000 800000 0  300000 800000 0  350000 800000 0  400000 800000 0  450000 800000 0  500000 800000 0  550000 800000 0  600000 800000 0  650000 800000 0  700000 800000 0  750000 800000 0  800000 800000 0  850000 800000 0  900000 800000 0  950000 800000 0  1000000 800000 0  0 850000 0  50000 850000 0  100000 850000 0  150000 850000 0  200000 850000 0  250000 850000 0  300000 850000 0  350000 850000 0  400000 850000 0  450000 850000 0  500000 850000 0  550000 850000 0  600000 850000 0  650000 850000 0  700000 850000 0  750000 850000 0  800000 850000 0  850000 850000 0  900000 850000 0  950000 850000 0  1000000 850000 0  0 900000 0  50000 900000 0  100000 900000 0  150000 900000 0  200000 900000 0  250000 900000 0  300000 900000 0  350000 900000 0  400000 900000 0  450000 900000 0  500000 900000 0  550000 900000 0  600000 900000 0  650000 900000 0  700000 900000 0  750000 900000 0  800000 900000 0  850000 900000 0  900000 900000 0  950000 900000 0  1000000 900000 0  0 950000 0  50000 950000 0  100000 950000 0  150000 950000 0  200000 950000 0  250000 950000 0  300000 950000 0  350000 950000 0  400000 950000 0  450000 950000 0  500000 950000 0  550000 950000 0  600000 950000 0  650000 950000 0  700000 950000 0  750000 950000 0  800000 950000 0  850000 950000 0  900000 950000 0  950000 950000 0  1000000 950000 0  0 1000000 0  50000 1000000 0  100000 1000000 0  150000 1000000 0  200000 1000000 0  250000 1000000 0  300000 1000000 0  350000 1000000 0  400000 1000000 0  450000 1000000 0  500000 1000000 0  550000 1000000 0  600000 1000000 0  650000 1000000 0  700000 1000000 0  750000 1000000 0  800000 1000000 0  850000 1000000 0  900000 1000000 0  950000 1000000 0  1000000 1000000 0  0 1050000 0  50000 1050000 0  100000 1050000 0  150000 1050000 0  200000 1050000 0  250000 1050000 0  300000 1050000 0  350000 1050000 0  400000 1050000 0  450000 1050000 0  500000 1050000 0  550000 1050000 0  600000 1050000 0  650000 1050000 0  700000 1050000 0  750000 1050000 0  800000 1050000 0  850000 1050000 0  900000 1050000 0  950000 1050000 0  1000000 1050000 0  0 1100000 0  50000 1100000 0  100000 1100000 0  150000 1100000 0  200000 1100000 0  250000 1100000 0  300000 1100000 0  350000 1100000 0  400000 1100000 0  450000 1100000 0  500000 1100000 0  550000 1100000 0  600000 1100000 0  650000 1100000 0  700000 1100000 0  750000 1100000 0  800000 1100000 0  850000 1100000 0  900000 1100000 0  950000 1100000 0  1000000 1100000 0  0 1150000 0  50000 1150000 0  100000 1150000 0  150000 1150000 0  200000 1150000 0  250000 1150000 0  300000 1150000 0  350000 1150000 0  400000 1150000 0  450000 1150000 0  500000 1150000 0  550000 1150000 0  600000 1150000 0  650000 1150000 0  700000 1150000 0  750000 1150000 0  800000 1150000 0  850000 1150000 0  900000 1150000 0  950000 1150000 0  1000000 1150000 0  0 1200000 0  50000 1200000 0  100000 1200000 0  150000 1200000 0  200000 1200000 0  250000 1200000 0  300000 1200000 0  350000 1200000 0  400000 1200000 0  450000 1200000 0  500000 1200000 0  550000 1200000 0  600000 1200000 0  650000 1200000 0  700000 1200000 0  750000 1200000 0  800000 1200000 0  850000 1200000 0  900000 1200000 0  950000 1200000 0  1000000 1200000 0  0 1250000 0  50000 1250000 0  100000 1250000 0  150000 1250000 0  200000 1250000 0  250000 1250000 0  300000 1250000 0  350000 1250000 0  400000 1250000 0  450000 1250000 0  500000 1250000 0  550000 1250000 0  600000 1250000 0  650000 1250000 0  700000 1250000 0  750000 1250000 0  800000 1250000 0  850000 1250000 0  900000 1250000 0  950000 1250000 0  1000000 1250000 0  0 1300000 0  50000 1300000 0  100000 1300000 0  150000 1300000 0  200000 1300000 0  250000 1300000 0  300000 1300000 0  350000 1300000 0  400000 1300000 0  450000 1300000 0  500000 1300000 0  550000 1300000 0  600000 1300000 0  650000 1300000 0  700000 1300000 0  750000 1300000 0  800000 1300000 0  850000 1300000 0  900000 1300000 0  950000 1300000 0  1000000 1300000 0  0 1350000 0  50000 1350000 0  100000 1350000 0  150000 1350000 0  200000 1350000 0  250000 1350000 0  300000 1350000 0  350000 1350000 0  400000 1350000 0  450000 1350000 0  500000 1350000 0  550000 1350000 0  600000 1350000 0  650000 1350000 0  700000 135
[...]
<PointData  Vectors="f_1513"> 
<DataArray  type="Float64"  Name="f_1513"  NumberOfComponents="3" format="ascii">-2.4238790396601633e-08 -1.0747917188632923e-08 0.0000000000000000e+00  4.8796865549222228e-08 -6.8174574851621245e-09 0.0000000000000000e+00  4.3043273224897453e-08 -2.4930580442602962e-09 0.0000000000000000e+00  4.0570079816315219e-08 -1.1050304832041740e-09 0.0000000000000000e+00  3.9349254978254999e-08 -6.1060191048289240e-10 0.0000000000000000e+00  3.8548065917323347e-08 -3.9033556527783199e-10 0.0000000000000000e+00  3.7969793399377536e-08 -2.7633924110306812e-10 0.0000000000000000e+00  3.7557710931560309e-08 -2.1115176258009035e-10 0.0000000000000000e+00  3.7294046326322743e-08 -1.7036783642208255e-10 0.0000000000000000e+00  3.7174215366733110e-08 -1.4106972800030795e-10 0.0000000000000000e+00  3.7199051810758974e-08 -1.1442808461908998e-10 0.0000000000000000e+00  3.7373030774032660e-08 -8.2331620035792460e-11 0.0000000000000000e+00  3.7705858364703371e-08 -3.4829423708449628e-11 0.0000000000000000e+00  3.8218524934619410e-08 4.3437296290191545e-11 0.0000000000000000e+00  3.8959393179566956e-08 1.8055891048729218e-10 0.0000000000000000e+00  4.0046738082807731e-08 4.3546641281838662e-10 0.0000000000000000e+00  4.1781108937375791e-08 9.4656100890738565e-10 0.0000000000000000e+00  4.4908715388399911e-08 2.0583228170423517e-09 0.0000000000000000e+00  5.0758662393846276e-08 4.5881094838664026e-09 0.0000000000000000e+00  5.8001645476092882e-08 9.1034812000360006e-09 0.0000000000000000e+00  -1.6453464626701027e-08 6.9961298404885135e-09 0.0000000000000000e+00  -1.7982734735681378e-08 -1.6286426038800814e-08 0.0000000000000000e+00  7.3310645635431704e-09 -1.1427329867120488e-08 0.0000000000000000e+00  1.8270299661180016e-08 -5.2830096647123632e-09 0.0000000000000000e+00  2.3316197673121325e-08 -2.4221445854836200e-09 0.0000000000000000e+00  2.5877135089228109e-08 -1.1659582136320765e-09 0.0000000000000000e+00  2.7317397778849534e-08 -5.7447526976703863e-10 0.0000000000000000e+00  2.8148903209835646e-08 -2.7853625531503186e-10 0.0000000000000000e+00  2.8630670887548744e-08 -1.2760508944831624e-10 0.0000000000000000e+00  2.8905844057783993e-08 -5.2624207354073951e-11 0.0000000000000000e+00  2.9054194577521842e-08 -1.6247424638362432e-11 0.0000000000000000e+00  2.9117197020181220e-08 6.1026361411967458e-12 0.0000000000000000e+00  2.9109546967578591e-08 3.4934598122459231e-11 0.0000000000000000e+00  2.9023146093280507e-08 9.2446044582837695e-11 0.0000000000000000e+00  2.8825572100372546e-08 2.0912296798797479e-10 0.0000000000000000e+00  2.8452028063098129e-08 4.3551696969293211e-10 0.0000000000000000e+00  2.7784729515695976e-08 8.6813420971780353e-10 0.0000000000000000e+00  2.6597678611952549e-08 1.7102819207509887e-09 0.0000000000000000e+00  2.4379179249273717e-08 3.4078461765347232e-09 0.0000000000000000e+00  1.9683906089777097e-08 6.8509451221540875e-09 0.0000000000000000e+00  8.2637499697708534e-09 1.3002239636721067e-08 0.0000000000000000e+00  -1.8420861295244317e-08 1.0929169017488111e-08 0.0000000000000000e+00  -1.0982930910176940e-08 -1.9850268483622443e-08 0.0000000000000000e+00  -2.1833228296521955e-10 -1.8581990449033491e-08 0.0000000000000000e+00  5.9314523338341791e-09 -1.1321947397831612e-08 0.0000000000000000e+00  1.0827926211352112e-08 -6.5234888237504732e-09 0.0000000000000000e+00  1.4632882219270390e-08 -3.7594679221675084e-09 0.0000000000000000e+00  1.7262039121368878e-08 -2.1922120694665489e-09 0.0000000000000000e+00  1.9013865125892668e-08 -1.2783241516014825e-09 0.0000000000000000e+00  2.0156529107871328e-08 -7.2563903401561168e-10 0.0000000000000000e+00  2.0869920099000892e-08 -3.7482061305568556e-10 0.0000000000000000e+00  2.1264523411629550e-08 -1.3141466922291115e-10 0.0000000000000000e+00  2.1400171504006065e-08 6.8932210228367116e-11 0.0000000000000000e+00  2.1297180953501809e-08 2.7940938281682699e-10 0.0000000000000000e+00  2.0940397485503617e-08 5.5518088250577475e-10 0.0000000000000000e+00  2.0276830165966741e-08 9.6699703019926024e-10 0.0000000000000000e+00  1.9206300288929797e-08 1.6212214937946780e-09 0.0000000000000000e+00  1.7563200861325613e-08 2.6939870940237487e-09 0.0000000000000000e+00  1.5087993565650028e-08 4.4859153232277410e-09 0.0000000000000000e+00  1.1398620708802100e-08 7.4706054825462123e-09 0.0000000000000000e+00  6.0285947913607227e-09 1.2114038064092827e-08 0.0000000000000000e+00  -1.2840119419860308e-09 1.7566364993946938e-08 0.0000000000000000e+00  -1.3251397660998864e-08 1.4677667519407445e-08 0.0000000000000000e+00  -7.2671143051512928e-09 -2.0433705086763346e-08 0.0000000000000000e+00  -1.5321719776982339e-09 -2.0046923981763506e-08 0.0000000000000000e+00  1.1647021847792487e-09 -1.5311606192579791e-08 0.0000000000000000e+00  3.9606852456308813e-09 -1.0391469834957871e-08 0.0000000000000000e+00  6.8639854257739253e-09 -6.8026805424653083e-09 0.0000000000000000e+00  9.3789866014461614e-09 -4.3927047180266158e-09 0.0000000000000000e+00  1.1312869557012858e-08 -2.7971166325760121e-09 0.0000000000000000e+00  1.2693308891841045e-08 -1.7217940723225625e-09 0.0000000000000000e+00  1.3606263958188062e-08 -9.6496751287250617e-10 0.0000000000000000e+00  1.4127101455776152e-08 -3.8807800814206435e-10 0.0000000000000000e+00  1.4303384938994086e-08 1.1189101791249125e-10 0.0000000000000000e+00  1.4152449957232336e-08 6.2278427558767120e-10 0.0000000000000000e+00  1.3661722588104978e-08 1.2333524750821321e-09 0.0000000000000000e+00  1.2789009719340056e-08 2.0487532016071492e-09 0.0000000000000000e+00  1.1464027139534994e-08 3.2080867289929013e-09 0.0000000000000000e+00  9.5973805030829042e-09 4.9023721989240235e-09 0.0000000000000000e+00  7.1138465458387107e-09 7.3751656540506957e-09 0.0000000000000000e+00  4.0440276442532878e-09 1.0835387848018280e-08 0.0000000000000000e+00  6.8018396272809438e-10 1.5091286902709297e-08 0.0000000000000000e+00  -2.6150269416426734e-09 1.8736047631172935e-08 0.0000000000000000e+00  -8.9442950751579831e-09 1.7522752163419133e-08 0.0000000000000000e+00  -5.3859964307241472e-09 -1.9802441226137924e-08 0.0000000000000000e+00  -1.8785489036212697e-09 -1.9797481606614728e-08 0.0000000000000000e+00  -9.1705588914357796e-10 -1.6750336481386233e-08 0.0000000000000000e+00  2.3695331153875741e-10 -1.2779540934406249e-08 0.0000000000000000e+00  1.8894473388903575e-09 -9.2051371644052629e-09 0.0000000000000000e+00  3.6675828618986142e-09 -6.4145670100232031e-09 0.0000000000000000e+00  5.2506985961571414e-09 -4.3424762159610005e-09 0.0000000000000000e+00  6.4971642422684897e-09 -2.8106819767908302e-09 0.0000000000000000e+00  7.3751838987214647e-09 -1.6458369327378952e-09 0.0000000000000000e+00  7.8952764886434068e-09 -7.0301586109298981e-10 0.0000000000000000e+00  8.0740633907599893e-09 1.3906367950575425e-10 0.0000000000000000e+00  7.9194978014778768e-09 9.8925970733352323e-10 0.0000000000000000e+00  7.4268731374926960e-09 1.9556074281266009e-09 0.0000000000000000e+00  6.5815294470518732e-09 3.1556733182184296e-09 0.0000000000000000e+00  5.3695227335389994e-09 4.7231619943562276e-09 0.0000000000000000e+00  3.8023151901579390e-09 6.8022376006860966e-09 0.0000000000000000e+00  1.9648437977531553e-09 9.5062315737656859e-09 0.0000000000000000e+00  8.3960043073222033e-11 1.2793062442407696e-08 0.0000000000000000e+00  -1.4764412795761424e-09 1.6211692394943122e-08 0.0000000000000000e+00  -2.7244846569403352e-09 1.8688534489311835e-08 0.0000000000000000e+00  -6.6494924682326840e-09 1.8513242806466911e-08 0.0000000000000000e+00  -4.3152194495395314e-09 -1.8631807625989945e-08 0.0000000000000000e+00  -2.0548372777663441e-09 -1.8865792421637822e-08 0.0000000000000000e+00  -2.0137575743112381e-09 -1.6789444053860607e-08 0.0000000000000000e+00  -1.9171803581768995e-09 -1.3760923858177107e-08 0.0000000000000000e+00  -1.3039709524030532e-09 -1.0619519846248829e-08 0.0000000000000000e+00  -3.5340699096896801e-10 -7.8476266575018179e-09 0.0000000000000000e+00  6.6638990707727882e-10 -5.5723905752220875e-09 0.0000000000000000e+00  1.5670270724264472e-09 -3.7472160975470776e-09 0.0000000000000000e+00  2.2498767283000617e-09 -2.2643462973912506e-09 0.0000000000000000e+00  2.6731927181063640e-09 -1.0044082058840607e-09 0.0000000000000000e+00  2.8230643658401589e-09 1.4823642634809313e-10 0.0000000000000000e+00  2.6969661640652861e-09 1.3041894858418100e-09 0.0000000000000000e+00  2.2980815808669452e-09 2.5719839440486572e-09 0.0000000000000000e+00  1.6384324777331936e-09 4.0599611484325147e-09 0.0000000000000000e+00  7.5096425854152498e-10 5.8716366623902015e-09 0.0000000000000000e+00  -2.8821690157237047e-10 8.0855477422828013e-09 0.0000000000000000e+00  -1.3305469127137647e-09 1.0705112565023526e-08 0.0000000000000000e+00  -2.1431791049919574e-09 1.3565637203466505e-08 0.0000000000000000e+00  -2.5075718815998657e-09 1.6223945266540380e-08 0.0000000000000000e+00  -2.7012469594105698e-09 1.7993438656373840e-08 0.0000000000000000e+00  -5.2998186237177228e-09 1.8274470461775932e-08 0.0000000000000000e+00  -3.6313119491960534e-09 -1.7163584849239836e-08 0.0000000000000000e+00  -2.1875699380496718e-09 -1.7562124213314850e-08 0.0000000000000000e+00  -2.6966277856023910e-09 -1.6077596220346655e-08 0.0000000000000000e+00  -3.2705710681242954e-09 -1.3764408697081184e-08 0.0000000000000000e+00  -3.4169216662261953e-09 -1.1139190528329325e-08 0.0000000000000000e+00  -3.1780504872808283e-09 -8.6001499330347274e-09 0.0000000000000000e+00  -2.7315157704949080e-09 -6.3385617438642751e-09 0.0000000000000000e+00  -2.2435458194298188e-09 -4.3934016032613182e-09 0.0000000000000000e+00  -1.8287807977159519e-09 -2.7208741321290069e-09 0.0000000000000000e+00  -1.5538888375019113e-09 -1.2403536135129448e-09 0.0000000000000000e+00  -1.4516213471058171e-09 1.4201918509744739e-10 0.0000000000000000e+00  -1.5319484183221157e-09 1.5228673590870051e-09 0.0000000000000000e+00  -1.7866966814727648e-09 2.9964462841304262e-09 0.0000000000000000e+00  -2.1874449455439127e-09 4.6490284966882732e-09 0.0000000000000000e+00  -2.6773660383424223e-09 6.5474224823480258e-09 0.0000000000000000e+00  -3.1594629577469202e-09 8.7157192974325240e-09 0.0000000000000000e+00  -3.4895905950774146e-09 1.1095633971934094e-08 0.0000000000000000e+00  -3.4982130350549054e-09 1.3495671401087656e-08 0.0000000000000000e+00  -3.1027936534989439e-09 1.5563640188889549e-08 0.0000000000000000e+00  -2.6853228514443248e-09 1.6880128276465043e-08 0.0000000000000000e+00  -4.4206466305416541e-09 1.7377081633179230e-08 0.0000000000000000e+00  -3.1583512982223863e-09 -1.5497727476440088e-08 0.0000000000000000e+00  -2.2961588923536352e-09 -1.6014620484613247e-08 0.0000000000000000e+00  -3.1700252975428114e-09 -1.4917180012225185e-08 0.0000000000000000e+00  -4.1822658116793115e-09 -1.3127684224850316e-08 0.0000000000000000e+00  -4.8632152236538535e-09 -1.0972967030483961e-08 0.0000000000000000e+00  -5.1778040697865810e-09 -8.7463268944365099e-09 0.0000000000000000e+00  -5.2258524527065119e-09 -6.6322897671259887e-09 0.0000000000000000e+00  -5.1297134643888977e-09 -4.7075788956535220e-09 0.0000000000000000e+00  -4.9905913623183930e-09 -2.9727935378126682e-09 0.0000000000000000e+00  -4.8774570814576916e-09 -1.3839096391434599e-09 0.0000000000000000e+00  -4.8290873466530803e-09 1.2539628035954483e-10 0.0000000000000000e+00  -4.8586707173745457e-09 1.6295416971656556e-09 0.0000000000000000e+00  -4.9563652282633111e-09 3.2009974326420545e-09 0.0000000000000000e+00  -5.0885787411440793e-09 4.9002916126498989e-09 0.0000000000000000e+00  -5.1948807962054558e-09 6.7623704523784249e-09 0.0000000000000000e+00  -5.1859329654624196e-09 8.7767278525965794e-09 0.0000000000000000e+00  -4.9502158209421094e-09 1.0862144640769146e-08 0.0000000000000000e+00  -4.3858656125962085e-09 1.2845343355915383e-08 0.0000000000000000e+00  -3.4964396657208412e-09 1.4468082592844275e-08 0.0000000000000000e+00  -2.6839316433011348e-09 1.5477775360348279e-08 0.0000000000000000e+00  -3.8040229658517141e-09 1.6094352405275399e-08 0.0000000000000000e+00  -2.8154004110762579e-09 -1.3688090156903351e-08 0.0000000000000000e+00  -2.3848286763560678e-09 -1.4292408180104914e-08 0.0000000000000000e+00  -3.5166763557790175e-09 -1.3464683763631873e-08 0.0000000000000000e+00  -4.8255851486442764e-09 -1.2065841897490387e-08 0.0000000000000000e+00  -5.8797051331304412e-09 -1.0311266277881840e-08 0.0000000000000000e+00  -6.6049730851238688e-09 -8.4095667603236199e-09 0.0000000000000000e+00  -7.0458893677748881e-09 -6.5142150645550746e-09 0.0000000000000000e+00  -7.2816567515528257e-09 -4.7093536841529479e-09 0.0000000000000000e+00  -7.3888937093732873e-09 -3.0197980115888302e-09 0.0000000000000000e+00  -7.4261164863177458e-09 -1.4290840614481123e-09 0.0000000000000000e+00  -7.4291629776026032e-09 1.0341581511864590e-10 0.0000000000000000e+00  -7.4110497205572426e-09 1.6286378262114637e-09 0.0000000000000000e+00  -7.3626886572148822e-09 3.1962689322872584e-09 0.0000000000000000e+00  -7.2532367412600567e-09 4.8434814194843654e-09 0.0000000000000000e+00  -7.0308043681443481e-09 6.5821892206661156e-09 0.0000000000000000e+00  -6.6262320042024882e-09 8.3844234911917409e-09 0.0000000000000000e+00  -5.9651554075494350e-09 1.0168440022491560e-08 0.0000000000000000e+00  -4.9981988411485115e-09 1.1793227527338733e-08 0.0000000000000000e+00  -3.7764751055516279e-09 1.3075893372629363e-08 0.0000000000000000e+00  -2.6894913921629298e-09 1.3867034059982810e-08 0.0000000000000000e+00  -3.3489288694937705e-09 1.4559398891325378e-08 0.0000000000000000e+00  -2.5611203803183793e-09 -1.1770859899927400e-08 0.0000000000000000e+00  -2.4560241398919754e-09 -1.2440750739210638e-08 0.0000000000000000e+00  -3.7760644600681745e-09 -1.1812213442709632e-08 0.0000000000000000e+00  -5.2906407490047583e-09 -1.0715327603608406e-08 0.0000000000000000e+00  -6.6049817506348986e-09 -9.2986318426327245e-09 0.0000000000000000e+00  -7.6270972234747445e-09 -7.7091164516040335e-09 0.0000000000000000e+00  -8.3650885920761185e-09 -6.0662396221739327e-09 0.0000000000000000e+00  -8.8631979645996691e-09 -4.4468584749544439e-09 0.0000000000000000e+00  -9.1726528415220272e-09 -2.8854978708240380e-09 0.0000000000000000e+00  -9.3367917745956350e-09 -1.3833452544174525e-09 0.0000000000000000e+00  -9.3840549612164616e-09 8.0068600831325092e-11 0.0000000000000000e+00  -9.3253395779415314e-09 1.5353657403356456e-09 0.0000000000000000e+00  -9.1535664571205332e-09 3.0125740967490629e-09 0.0000000000000000e+00  -8.8446071965085083e-09 4.5307010955361463e-09 0.0000000000000000e+00  -8.3600014059284321e-09 6.0872580637623437e-09 0.0000000000000000e+00  -7.6531015850203663e-09 7.6483863696200706e-09 0.0000000000000000e+00  -6.6815750045154310e-09 9.1421523618412458e-09 0.0000000000000000e+00  -5.4323391930651568e-09 1.0460051189779291e-08 0.0000000000000000e+00  -3.9811218343237943e-09 1.1474920220437541e-08 0.0000000000000000e+00  -2.6957720770021054e-09 1.2102191901672635e-08 0.0000000000000000e+00  -3.0014757267411099e-09 1.2846387112184149e-08 0.0000000000000000e+00  -2.3725801325992600e-09 -9.7735271676642842e-09 0.0000000000000000e+00  -2.5122671305762420e-09 -1.0492932929862456e-08 0.0000000000000000e+00  -3.9706115892155590e-09 -1.0019726465745829e-08 0.0000000000000000e+00  -5.6290538318259570e-09 -9.1661715383491066e-09 0.0000000000000000e+00  -7.1241814096838867e-09 -8.0396467981708086e-09 0.0000000000000000e+00  -8.3566848897418988e-09 -6.7435325071597633e-09 0.0000000000000000e+00  -9.3115699021520604e-09 -5.3674326780495572e-09 0.0000000000000000e+00  -1.0007186904814203e-08 -3.9754274024213386e-09 0.0000000000000000e+00  -1.0473030402454545e-08 -2.6029599165385944e-09 0.0000000000000000e+00  -1.0737330191803439e-08 -1.2606966596817170e-09 0.0000000000000000e+00  -1.0819972858236150e-08 5.8057995669157570e-11 0.0000000000000000e+00  -1.0729013842809612e-08 1.3687032043468652e-09 0.0000000000000000e+00  -1.0459721277399495e-08 2.6865279956675005e-09 0.0000000000000000e+00  -9.9956844732796750e-09 4.0181469220943090e-09 0.0000000000000000e+00  -9.3121686918945615e-09 5.3535729880887579e-09 0.0000000000000000e+00  -8.3824883911476392e-09 6.6599015835594468e-09 0.0000000000000000e+00  -7.1888749416372013e-09 7.8785647265794464e-09 0.0000000000000000e+00  -5.7421341584353521e-09 8.9291464196671707e-09 0.0000000000000000e+00  -4.1302162047029253e-09 9.7246933388116395e-09 0.0000000000000000e+00  -2.6992915497890522e-09 1.0222294695656538e-08 0.0000000000000000e+00  -2.7308902763884114e-09 1.1002742681471095e-08 0.0000000000000000e+00  -2.2363217214526902e-09 -7.7181230461059980e-09 0.0000000000000000e+00  -2.5562512987210896e-09 -8.4749066503195819e-09 0.0000000000000000e+00  -4.1150563142805442e-09 -8.1290967663100129e-09 0.0000000000000000e+00  -5.8733932445055606e-09 -7.4802038594047651e-09 0.0000000000000000e+00  -7.4925639752562945e-09 -6.6094899612279698e-09 0.0000000000000000e+00  -8.8709627018430661e-09 -5.5893646350966754e-09 0.0000000000000000e+00  -9.9792324762818475e-09 -4.4850375000049586e-09 0.0000000000000000e+00  -1.0817548954142000e-08 -3.3466994069023820e-09 0.0000000000000000e+00  -1.1398581374927918e-08 -2.2059117427342254e-09 0.0000000000000000e+00  -1.1737760351074211e-08 -1.0768943937519751e-09 0.0000000000000000e+00  -1.1847138662664902e-08 3.9005164803498254e-11 0.0000000000000000e+00  -1.1731981229409708e-08 1.1472421296792963e-09 0.0000000000000000e+00  -1.1389689045140023e-08 2.2534688883683514e-09 0.0000000000000000e+00  -1.0810859910630234e-08 3.3570898004538843e-09 0.0000000000000000e+00  -9.9825111518198383e-09 4.4456322455771389e-09 0.0000000000000000e+00  -8.8937058218410380e-09 5.4908584146240699e-09 0.0000000000000000e+00  -7.5443116069339619e-09 6.4479527318138989e-09 0.0000000000000000e+00  -5.9604836380928521e-09 7.2594906195806289e-09 0.0000000000000000e+00  -4.2360268085385381e-09 7.8676010016791716e-09 0.0000000000000000e+00  -2.6986473986787953e-09 8.2568083958844696e-09 0.0000000000000000e+00  -2.5188793150785444e-09 9.0620746985052476e-09 0.0000000000000000e+00  -2.1441828169703977e-09 -5.6226988021244183e-09 0.0000000000000000e+00  -2.5906400651518479e-09 -6.4074664952405183e-09 0.0000000000000000e+00  -4.2200009754555943e-09 -6.1709907683236667e-09 0.0000000000000000e+00  -6.0457215604728913e-09 -5.7013625805334564e-09 0.0000000000000000e+00  -7.7475460599584913e-09 -5.0626172337227887e-09 0.0000000000000000e+00  -9.2237701513877418e-09 -4.3046316009306340e-09 0.0000000000000000e+00  -1.0436301010934747e-08 -3.4729701172454641e-09 0.0000000000000000e+00  -1.1373122497346581e-08 -2.6045244847408927e-09 0.0000000000000000e+00  -1.2034805225595889e-08 -1.7245470600565226e-09 0.0000000000000000e+00  -1.2427010365196944e-08 -8.4682150096665044e-10 0.0000000000000000e+00  -1.2555506369249789e-08 2.3774414057430915e-11 0.0000000000000000e+00  -1.2423205460115603e-08 8.8729192219787856e-10 0.0000000000000000e+00  -1.2029164634834951e-08 1.7441530484479678e-09 0.0000000000000000e+00  -1.1369510120795462e-08 2.5906806420353705e-09 0.0000000000000000e+00  -1.0440231105770424e-08 3.4153491220174426e-09 0.0000000000000000e+00  -9.2418176621150063e-09 4.1964791177974134e-09 0.0000000000000000e+00  -7.7861595992624682e-09 4.9022235937220465e-09 0.0000000000000000e+00  -6.1090857050591900e-09 5.4938268236206168e-09 0.0000000000000000e+00  -4.3071276186270596e-09 5.9349262287664684e-09 0.0000000000000000e+00  -2.6937048939149052e-09 6.2286594774657660e-09 0.0000000000000000e+00  -2.3543709833580839e-09 7.0497458615403180e-09 0.0000000000000000e+00  -2.0911669285949230e-09 -3.5022894788361032e-09 0.0000000000000000e+00  -2.6178367974465579e-09 -4.3075589274767947e-09 0.0000000000000000e+00  -4.2932715851482431e-09 -4.1686976355451978e-09 0.0000000000000000e+00  -6.1613983776681833e-09 -3.8619019249848823e-09 0.0000000000000000e+00  -7.9147753373791665e-09 -3.4391596709221644e-09 0.0000000000000000e+00  -9.4524144982983148e-09 -2.9332061071779450e-09 0.0000000000000000e+00  -1.0731168283744765e-08 -2.373476428