<?xml version="1.0"?>
<VTKFile type="UnstructuredGrid"  version="0.1"  >
<UnstructuredGrid>
<Piece  NumberOfPoints="651" NumberOfCells="1200">
<Points>
<DataArray  type="Float64"  NumberOfComponents="3"  format="ascii">0 0 0  50000 0 0  100000 0 0  150000 0 0  200000 0 0  250000 0 0  300000 0 0  350000 0 0  400000 0 0  450000 0 0  500000 0 0  550000 0 0  600000 0 0  650000 0 0  700000 0 0  750000 0 0  800000 0 0  850000 0 0  900000 0 0  950000 0 0  1000000 0 0  0 50000 0  50000 50000 0  100000 50000 0  150000 50000 0  200000 50000 0  250000 50000 0  300000 50000 0  350000 50000 0  400000 50000 0  450000 50000 0  500000 50000 0  550000 50000 0  600000 50000 0  650000 50000 0  700000 50000 0  750000 50000 0  800000 50000 0  850000 50000 0  900000 50000 0  950000 50000 0  1000000 50000 0  0 100000 0  50000 100000 0  100000 100000 0  150000 100000 0  200000 100000 0  250000 100000 0  300000 100000 0  350000 100000 0  400000 100000 0  450000 100000 0  500000 100000 0  550000 100000 0  600000 100000 0  650000 100000 0  700000 100000 0  750000 100000 0  800000 100000 0  850000 100000 0  900000 100000 0  950000 100000 0  1000000 100000 0  0 150000 0  50000 150000 0  100000 150000 0  150000 150000 0  200000 150000 0  250000 150000 0  300000 150000 0  350000 150000 0  400000 150000 0  450000 150000 0  500000 150000 0  550000 150000 0  600000 150000 0  650000 150000 0  700000 150000 0  750000 150000 0  800000 150000 0  850000 150000 0  900000 150000 0  950000 150000 0  1000000 150000 0  0 200000 0  50000 200000 0  100000 200000 0  150000 200000 0  200000 200000 0  250000 200000 0  300000 200000 0  350000 200000 0  400000 200000 0  450000 200000 0  500000 200000 0  550000 200000 0  600000 200000 0  650000 200000 0  700000 200000 0  750000 200000 0  800000 200000 0  850000 200000 0  900000 200000 0  950000 200000 0  1000000 200000 0  0 250000 0  50000 250000 0  100000 250000 0  150000 250000 0  200000 250000 0  250000 250000 0  300000 250000 0  350000 250000 0  400000 250000 0  450000 250000 0  500000 250000 0  550000 250000 0  600000 250000 0  650000 250000 0  700000 250000 0  750000 250000 0  800000 250000 0  850000 250000 0  900000 250000 0  950000 250000 0  1000000 250000 0  0 300000 0  50000 300000 0  100000 300000 0  150000 300000 0  200000 300000 0  250000 300000 0  300000 300000 0  350000 300000 0  400000 300000 0  450000 300000 0  500000 300000 0  550000 300000 0  600000 300000 0  650000 300000 0  700000 300000 0  750000 300000 0  800000 300000 0  850000 300000 0  900000 300000 0  950000 300000 0  1000000 300000 0  0 350000 0  50000 350000 0  100000 350000 0  150000 350000 0  200000 350000 0  250000 350000 0  300000 350000 0  350000 350000 0  400000 350000 0  450000 350000 0  500000 350000 0  550000 350000 0  600000 350000 0  650000 350000 0  700000 350000 0  750000 350000 0  800000 350000 0  850000 350000 0  900000 350000 0  950000 350000 0  1000000 350000 0  0 400000 0  50000 400000 0  100000 400000 0  150000 400000 0  200000 400000 0  250000 400000 0  300000 400000 0  350000 400000 0  400000 400000 0  450000 400000 0  500000 400000 0  550000 400000 0  600000 400000 0  650000 400000 0  700000 400000 0  750000 400000 0  800000 400000 0  850000 400000 0  900000 400000 0  950000 400000 0  1000000 400000 0  0 450000 0  50000 450000 0  100000 450000 0  150000 450000 0  200000 450000 0  250000 450000 0  300000 450000 0  350000 450000 0  400000 450000 0  450000 450000 0  500000 450000 0  550000 450000 0  600000 450000 0  650000 450000 0  700000 450000 0  750000 450000 0  800000 450000 0  850000 450000 0  900000 450000 0  950000 450000 0  1000000 450000 0  0 500000 0  50000 500000 0  100000 500000 0  150000 500000 0  200000 500000 0  250000 500000 0  300000 500000 0  350000 500000 0  400000 500000 0  450000 500000 0  500000 500000 0  550000 500000 0  600000 500000 0  650000 500000 0  700000 500000 0  750000 500000 0  800000 500000 0  850000 500000 0  900000 500000 0  950000 500000 0  1000000 500000 0  0 550000 0  50000 550000 0  100000 550000 0  150000 550000 0  200000 550000 0  250000 550000 0  300000 550000 0  350000 550000 0  400000 550000 0  450000 550000 0  500000 550000 0  550000 550000 0  600000 550000 0  650000 550000 0  700000 550000 0  750000 550000 0  800000 550000 0  850000 550000 0  900000 550000 0  950000 550000 0  1000000 550000 0  0 600000 0  50000 600000 0  100000 600000 0  150000 600000 0  200000 600000 0  250000 600000 0  300000 600000 0  350000 600000 0  400000 600000 0  450000 600000 0  500000 600000 0  550000 600000 0  600000 600000 0  650000 600000 0  700000 600000 0  750000 600000 0  800000 600000 0  850000 600000 0  900000 600000 0  950000 600000 0  1000000 600000 0  0 650000 0  50000 650000 0  100000 650000 0  150000 650000 0  200000 650000 0  250000 650000 0  300000 650000 0  350000 650000 0  400000 650000 0  450000 650000 0  500000 650000 0  550000 650000 0  600000 650000 0  650000 650000 0  700000 650000 0  750000 650000 0  800000 650000 0  850000 650000 0  900000 650000 0  950000 650000 0  1000000 650000 0  0 700000 0  50000 700000 0  100000 700000 0  150000 700000 0  200000 700000 0  250000 700000 0  300000 700000 0  350000 700000 0  400000 700000 0  450000 700000 0  500000 700000 0  550000 700000 0  600000 700000 0  650000 700000 0  700000 700000 0  750000 700000 0  800000 700000 0  850000 700000 0  900000 700000 0  950000 700000 0  1000000 700000 0  0 750000 0  50000 750000 0  100000 750000 0  150000 750000 0  200000 750000 0  250000 750000 0  300000 750000 0  350000 750000 0  400000 750000 0  450000 750000 0  500000 750000 0  550000 750000 0  600000 750000 0  650000 750000 0  700000 750000 0  750000 750000 0  800000 750000 0  850000 750000 0  900000 750000 0  950000 750000 0  1000000 750000 0  0 800000 0  50000 800000 0  100000 800000 0  150000 800000 0  200000 800000 0  250000 800000 0  300000 800000 0  350000 800000 0  400000 800000 0  450000 800000 0  500000 800000 0  550000 800000 0  600000 800000 0  650000 800000 0  700000 800000 0  750000 800000 0  800000 800000 0  850000 800000 0  900000 800000 0  950000 800000 0  1000000 800000 0  0 850000 0  50000 850000 0  100000 850000 0  150000 850000 0  200000 850000 0  250000 850000 0  300000 850000 0  350000 850000 0  400000 850000 0  450000 850000 0  500000 850000 0  550000 850000 0  600000 850000 0  650000 850000 0  700000 850000 0  750000 850000 0  800000 850000 0  850000 850000 0  900000 850000 0  950000 850000 0  1000000 850000 0  0 900000 0  50000 900000 0  100000 900000 0  150000 900000 0  200000 900000 0  250000 900000 0  300000 900000 0  350000 900000 0  400000 900000 0  450000 900000 0  500000 900000 0  550000 900000 0  600000 900000 0  650000 900000 0  700000 900000 0  750000 900000 0  800000 900000 0  850000 900000 0  900000 900000 0  950000 900000 0  1000000 900000 0  0 950000 0  50000 950000 0  100000 950000 0  150000 950000 0  200000 950000 0  250000 950000 0  300000 950000 0  350000 950000 0  400000 950000 0  450000 950000 0  500000 950000 0  550000 950000 0  600000 950000 0  650000 950000 0  700000 950000 0  750000 950000 0  800000 950000 0  850000 950000 0  900000 950000 0  950000 950000 0  1000000 950000 0  0 1000000 0  50000 1000000 0  100000 1000000 0  150000 1000000 0  200000 1000000 0  250000 1000000 0  300000 1000000 0  350000 1000000 0  400000 1000000 0  450000 1000000 0  500000 1000000 0  550000 1000000 0  600000 1000000 0  650000 1000000 0  700000 1000000 0  750000 1000000 0  800000 1000000 0  850000 1000000 0  900000 1000000 0  950000 1000000 0  1000000 1000000 0  0 1050000 0  50000 1050000 0  100000 1050000 0  150000 1050000 0  200000 1050000 0  250000 1050000 0  300000 1050000 0  350000 1050000 0  400000 1050000 0  450000 1050000 0  500000 1050000 0  550000 1050000 0  600000 1050000 0  650000 1050000 0  700000 1050000 0  750000 1050000 0  800000 1050000 0  850000 1050000 0  900000 1050000 0  950000 1050000 0  1000000 1050000 0  0 1100000 0  50000 1100000 0  100000 1100000 0  150000 1100000 0  200000 1100000 0  250000 1100000 0  300000 1100000 0  350000 1100000 0  400000 1100000 0  450000 1100000 0  500000 1100000 0  550000 1100000 0  600000 1100000 0  650000 1100000 0  700000 1100000 0  750000 1100000 0  800000 1100000 0  850000 1100000 0  900000 1100000 0  950000 1100000 0  1000000 1100000 0  0 1150000 0  50000 1150000 0  100000 1150000 0  150000 1150000 0  200000 1150000 0  250000 1150000 0  300000 1150000 0  350000 1150000 0  400000 1150000 0  450000 1150000 0  500000 1150000 0  550000 1150000 0  600000 1150000 0  650000 1150000 0  700000 1150000 0  750000 1150000 0  800000 1150000 0  850000 1150000 0  900000 1150000 0  950000 1150000 0  1000000 1150000 0  0 1200000 0  50000 1200000 0  100000 1200000 0  150000 1200000 0  200000 1200000 0  250000 1200000 0  300000 1200000 0  350000 1200000 0  400000 1200000 0  450000 1200000 0  500000 1200000 0  550000 1200000 0  600000 1200000 0  650000 1200000 0  700000 1200000 0  750000 1200000 0  800000 1200000 0  850000 1200000 0  900000 1200000 0  950000 1200000 0  1000000 1200000 0  0 1250000 0  50000 1250000 0  100000 1250000 0  150000 1250000 0  200000 1250000 0  250000 1250000 0  300000 1250000 0  350000 1250000 0  400000 1250000 0  450000 1250000 0  500000 1250000 0  550000 1250000 0  600000 1250000 0  650000 1250000 0  700000 1250000 0  750000 1250000 0  800000 1250000 0  850000 1250000 0  900000 1250000 0  950000 1250000 0  1000000 1250000 0  0 1300000 0  50000 1300000 0  100000 1300000 0  150000 1300000 0  200000 1300000 0  250000 1300000 0  300000 1300000 0  350000 1300000 0  400000 1300000 0  450000 1300000 0  500000 1300000 0  550000 1300000 0  600000 1300000 0  650000 1300000 0  700000 1300000 0  750000 1300000 0  800000 1300000 0  850000 1300000 0  900000 1300000 0  950000 1300000 0  1000000 1300000 0  0 1350000 0  50000 1350000 0  100000 1350000 0  150000 1350000 0  200000 1350000 0  250000 1350000 0  300000 1350000 0  350000 1350000 0  400000 1350000 0  450000 1350000 0  500000 1350000 0  550000 1350000 0  600000 1350000 0  650000 1350000 0  700000 135
[...]
<PointData  Vectors="f_1513"> 
<DataArray  type="Float64"  Name="f_1513"  NumberOfComponents="3" format="ascii">-2.4206496489339693e-08 -1.1058777268494451e-08 0.0000000000000000e+00  4.8857727160607713e-08 -7.1118738080146900e-09 0.0000000000000000e+00  4.3164641573573824e-08 -2.7744012295332875e-09 0.0000000000000000e+00  4.0745363554217428e-08 -1.3903659576276702e-09 0.0000000000000000e+00  3.9569582586113979e-08 -9.1155502668457179e-10 0.0000000000000000e+00  3.8803596162989804e-08 -7.1387805457111785e-10 0.0000000000000000e+00  3.8249746817389660e-08 -6.2643973252438524e-10 0.0000000000000000e+00  3.7850602846364980e-08 -5.8912278974656897e-10 0.0000000000000000e+00  3.7587873254013238e-08 -5.7474067060004623e-10 0.0000000000000000e+00  3.7456797044331548e-08 -5.6730620810136970e-10 0.0000000000000000e+00  3.7458645082109727e-08 -5.5462890469448462e-10 0.0000000000000000e+00  3.7599270473292317e-08 -5.2512180231172682e-10 0.0000000000000000e+00  3.7891020732791620e-08 -4.6564887785141512e-10 0.0000000000000000e+00  3.8358988727567032e-08 -3.5862669772370159e-10 0.0000000000000000e+00  3.9056968710952677e-08 -1.7560653128604663e-10 0.0000000000000000e+00  4.0109258696555739e-08 1.3986683634757826e-10 0.0000000000000000e+00  4.1821424673373707e-08 7.2023960841891458e-10 0.0000000000000000e+00  4.4941225083300219e-08 1.9007850603610134e-09 0.0000000000000000e+00  5.0793334516251643e-08 4.4880741620719358e-09 0.0000000000000000e+00  5.8039017367869794e-08 9.0405546134285311e-09 0.0000000000000000e+00  -1.6411492118527876e-08 6.9366143813741151e-09 0.0000000000000000e+00  -1.7936357621407928e-08 -1.6630715368996814e-08 0.0000000000000000e+00  7.4400433455978239e-09 -1.1591088376024174e-08 0.0000000000000000e+00  1.8472003628371550e-08 -5.3823310946544730e-09 0.0000000000000000e+00  2.3534208429585621e-08 -2.5183206195055895e-09 0.0000000000000000e+00  2.6103190319994148e-08 -1.2563792528468754e-09 0.0000000000000000e+00  2.7550627899759077e-08 -6.5784297346372666e-10 0.0000000000000000e+00  2.8383102765641137e-08 -3.5380990035817919e-10 0.0000000000000000e+00  2.8857377688346714e-08 -1.9383329114108205e-10 0.0000000000000000e+00  2.9116026960060315e-08 -1.0893694443127005e-10 0.0000000000000000e+00  2.9239140759424461e-08 -6.1932749650236782e-11 0.0000000000000000e+00  2.9269388773279737e-08 -2.8644618803249596e-11 0.0000000000000000e+00  2.9223644561338587e-08 1.0653842676899623e-11 0.0000000000000000e+00  2.9097040994009643e-08 7.6925186457554399e-11 0.0000000000000000e+00  2.8861360945421384e-08 1.9902375739734587e-10 0.0000000000000000e+00  2.8456616962729364e-08 4.2575779246145848e-10 0.0000000000000000e+00  2.7769651231565693e-08 8.5239734571087626e-10 0.0000000000000000e+00  2.6577650028520217e-08 1.6825178724382984e-09 0.0000000000000000e+00  2.4368916109477325e-08 3.3651022761701125e-09 0.0000000000000000e+00  1.9692503171899963e-08 6.7973826269598047e-09 0.0000000000000000e+00  8.2924450212139289e-09 1.2955129242243158e-08 0.0000000000000000e+00  -1.8378420835910219e-08 1.0869591245074679e-08 0.0000000000000000e+00  -1.0908971065940589e-08 -2.0232209487564025e-08 0.0000000000000000e+00  -1.3253615550648235e-10 -1.8761086957180373e-08 0.0000000000000000e+00  6.1104261215161299e-09 -1.1399052167020997e-08 0.0000000000000000e+00  1.1043885702071046e-08 -6.5850524335758592e-09 0.0000000000000000e+00  1.4856438796558039e-08 -3.8083972504882278e-09 0.0000000000000000e+00  1.7480336054635355e-08 -2.2255464901529530e-09 0.0000000000000000e+00  1.9220368757126108e-08 -1.2933016473535241e-09 0.0000000000000000e+00  2.0345893809826940e-08 -7.2032085255911640e-10 0.0000000000000000e+00  2.1037365862934057e-08 -3.4833765889018814e-10 0.0000000000000000e+00  2.1406228667449048e-08 -8.4163957043444999e-11 0.0000000000000000e+00  2.1513760039168931e-08 1.3496437638280602e-10 0.0000000000000000e+00  2.1382168293324482e-08 3.6023003762608338e-10 0.0000000000000000e+00  2.0998504119204726e-08 6.4442591727633086e-10 0.0000000000000000e+00  2.0312040087318581e-08 1.0558490924447105e-09 0.0000000000000000e+00  1.9224540181611451e-08 1.6989188447936514e-09 0.0000000000000000e+00  1.7571565921160924e-08 2.7492663738816680e-09 0.0000000000000000e+00  1.5093569457684788e-08 4.5096526811921625e-09 0.0000000000000000e+00  1.1407195414476895e-08 7.4596703982429653e-09 0.0000000000000000e+00  6.0441119412653701e-09 1.2075583149503090e-08 0.0000000000000000e+00  -1.2452462562972402e-09 1.7529544229397221e-08 0.0000000000000000e+00  -1.3172002900249631e-08 1.4610885688319554e-08 0.0000000000000000e+00  -7.1733606735266337e-09 -2.0843210729081082e-08 0.0000000000000000e+00  -1.4740546252092894e-09 -2.0306280513744630e-08 0.0000000000000000e+00  1.2885052231389626e-09 -1.5433203635432677e-08 0.0000000000000000e+00  4.1295376897641555e-09 -1.0462900977163944e-08 0.0000000000000000e+00  7.0503035051268590e-09 -6.8448703973246773e-09 0.0000000000000000e+00  9.5632274064238870e-09 -4.4094074857176373e-09 0.0000000000000000e+00  1.1483656535005453e-08 -2.7883644377081522e-09 0.0000000000000000e+00  1.2843866834172004e-08 -1.6873325482549210e-09 0.0000000000000000e+00  1.3732511854041413e-08 -9.0539025467357169e-10 0.0000000000000000e+00  1.4226957672889174e-08 -3.0539580721464398e-10 0.0000000000000000e+00  1.4376590893504527e-08 2.1382757050515104e-10 0.0000000000000000e+00  1.4200503774388074e-08 7.3793964952431741e-10 0.0000000000000000e+00  1.3687724144716869e-08 1.3533404352166129e-09 0.0000000000000000e+00  1.2797317024873912e-08 2.1630487591121831e-09 0.0000000000000000e+00  1.1459702834688329e-08 3.3048601165324864e-09 0.0000000000000000e+00  9.5855157586045371e-09 4.9701662428204024e-09 0.0000000000000000e+00  7.0989991655004409e-09 7.4055169793405547e-09 0.0000000000000000e+00  4.0302443895257226e-09 1.0826336886017407e-08 0.0000000000000000e+00  6.7267607178411657e-10 1.5051868978413196e-08 0.0000000000000000e+00  -2.5849994673333690e-09 1.8708084906958303e-08 0.0000000000000000e+00  -8.8066316151116475e-09 1.7446958834408497e-08 0.0000000000000000e+00  -5.2787285502394746e-09 -2.0238917243282633e-08 0.0000000000000000e+00  -1.8312041284763418e-09 -2.0117926767250929e-08 0.0000000000000000e+00  -8.2810446920655897e-10 -1.6923567914672556e-08 0.0000000000000000e+00  3.6211724988387898e-10 -1.2875679994054234e-08 0.0000000000000000e+00  2.0337620197672977e-09 -9.2509704337231461e-09 0.0000000000000000e+00  3.8132239502217152e-09 -6.4213818110898593e-09 0.0000000000000000e+00  5.3848934911306947e-09 -4.3153188505334926e-09 0.0000000000000000e+00  6.6119068147828706e-09 -2.7526112165236309e-09 0.0000000000000000e+00  7.4660096136334075e-09 -1.5598975501845415e-09 0.0000000000000000e+00  7.9603716456613765e-09 -5.9324939926694417e-10 0.0000000000000000e+00  8.1136986900969646e-09 2.6702861012500200e-10 0.0000000000000000e+00  7.9356025535988699e-09 1.1278730147672728e-09 0.0000000000000000e+00  7.4226071420832092e-09 2.0953457814064879e-09 0.0000000000000000e+00  6.5607908750497490e-09 3.2853919073545316e-09 0.0000000000000000e+00  5.3364235266169457e-09 4.8309982643649035e-09 0.0000000000000000e+00  3.7607585708945803e-09 6.8771792603931590e-09 0.0000000000000000e+00  1.9184516023475425e-09 9.5403836515809097e-09 0.0000000000000000e+00  3.6827243438060236e-11 1.2784721686286727e-08 0.0000000000000000e+00  -1.5163376638973860e-09 1.6170219612429701e-08 0.0000000000000000e+00  -2.7088966224367743e-09 1.8661748554781448e-08 0.0000000000000000e+00  -6.4401526617232991e-09 1.8417835626647482e-08 0.0000000000000000e+00  -4.1961371471626182e-09 -1.9095024580597355e-08 0.0000000000000000e+00  -2.0120368448299667e-09 -1.9226546154589000e-08 0.0000000000000000e+00  -1.9460006176121521e-09 -1.7003975336484662e-08 0.0000000000000000e+00  -1.8241003151004811e-09 -1.3881912175602606e-08 0.0000000000000000e+00  -1.1955264331703247e-09 -1.0672458626073530e-08 0.0000000000000000e+00  -2.4333220630100324e-10 -7.8477849915172673e-09 0.0000000000000000e+00  7.6661018054178984e-10 -5.5292176358380609e-09 0.0000000000000000e+00  1.6494439110233061e-09 -3.6674326239931000e-09 0.0000000000000000e+00  2.3098224182018725e-09 -2.1538712879237579e-09 0.0000000000000000e+00  2.7086798033485757e-09 -8.6954098737792642e-10 0.0000000000000000e+00  2.8341910982347821e-09 3.0010939227417359e-10 0.0000000000000000e+00  2.6853719841067995e-09 1.4642338250155506e-09 0.0000000000000000e+00  2.2664274185867182e-09 2.7298891658181659e-09 0.0000000000000000e+00  1.5899065342613882e-09 4.2042988213923482e-09 0.0000000000000000e+00  6.8887510720085641e-10 5.9906743237400828e-09 0.0000000000000000e+00  -3.6062512645848384e-10 8.1685611695012463e-09 0.0000000000000000e+00  -1.4098301619590042e-09 1.0744216071370503e-08 0.0000000000000000e+00  -2.2244076445430596e-09 1.3558343394261668e-08 0.0000000000000000e+00  -2.5790980772764860e-09 1.6177722716900584e-08 0.0000000000000000e+00  -2.6985608661876017e-09 1.7954186868867524e-08 0.0000000000000000e+00  -5.0158114777838018e-09 1.8143272073987769e-08 0.0000000000000000e+00  -3.4999706695687342e-09 -1.7653479442098093e-08 0.0000000000000000e+00  -2.1461810841035702e-09 -1.7952177428393717e-08 0.0000000000000000e+00  -2.6421462836533122e-09 -1.6321440181822321e-08 0.0000000000000000e+00  -3.2000751872130224e-09 -1.3904569529343036e-08 0.0000000000000000e+00  -3.3365160580701800e-09 -1.1198204955435032e-08 0.0000000000000000e+00  -3.0978780255270454e-09 -8.5946595069149793e-09 0.0000000000000000e+00  -2.6609301067246201e-09 -6.2809719257371568e-09 0.0000000000000000e+00  -2.1895569264915136e-09 -4.2935213643909416e-09 0.0000000000000000e+00  -1.7957983912953700e-09 -2.5873229187477022e-09 0.0000000000000000e+00  -1.5439950246966480e-09 -1.0816122808373628e-09 0.0000000000000000e+00  -1.4650245389562055e-09 3.1691042324490263e-10 0.0000000000000000e+00  -1.5674801287349325e-09 1.7039346162157300e-09 0.0000000000000000e+00  -1.8422924882484978e-09 3.1727265390268757e-09 0.0000000000000000e+00  -2.2605583608138022e-09 4.8088514289069970e-09 0.0000000000000000e+00  -2.7652345139969380e-09 6.6790484121842690e-09 0.0000000000000000e+00  -3.2590979347517776e-09 8.8083319683445343e-09 0.0000000000000000e+00  -3.5972688359236355e-09 1.1140685566810329e-08 0.0000000000000000e+00  -3.6077654393726127e-09 1.3488767587153840e-08 0.0000000000000000e+00  -3.1988214853246537e-09 1.5508152335648787e-08 0.0000000000000000e+00  -2.6904777208641624e-09 1.6813801896086664e-08 0.0000000000000000e+00  -4.0684843973712673e-09 1.7194257802839391e-08 0.0000000000000000e+00  -3.0132020394535602e-09 -1.6014034237764072e-08 0.0000000000000000e+00  -2.2544389057608477e-09 -1.6427444709512785e-08 0.0000000000000000e+00  -3.1242571767200402e-09 -1.5181155276820997e-08 0.0000000000000000e+00  -4.1279285798560240e-09 -1.3280401172933459e-08 0.0000000000000000e+00  -4.8043283876574396e-09 -1.1034882449290032e-08 0.0000000000000000e+00  -5.1219360897774487e-09 -8.7344935361856007e-09 0.0000000000000000e+00  -5.1802947056207894e-09 -6.5609458735044985e-09 0.0000000000000000e+00  -5.1002028568899020e-09 -4.5888420324483349e-09 0.0000000000000000e+00  -4.9809317291734292e-09 -2.8175150210188770e-09 0.0000000000000000e+00  -4.8895933428423868e-09 -1.2024664525773810e-09 0.0000000000000000e+00  -4.8634013717803976e-09 3.2250062758027279e-10 0.0000000000000000e+00  -4.9143618749562729e-09 1.8313173289635379e-09 0.0000000000000000e+00  -5.0318271850099648e-09 3.3958683429815905e-09 0.0000000000000000e+00  -5.1816963564742191e-09 5.0762625811862472e-09 0.0000000000000000e+00  -5.3031582825914534e-09 6.9074512479698615e-09 0.0000000000000000e+00  -5.3063317962854855e-09 8.8795819647460982e-09 0.0000000000000000e+00  -5.0784794515028274e-09 1.0912922475005581e-08 0.0000000000000000e+00  -4.5145358970748457e-09 1.2836801544168879e-08 0.0000000000000000e+00  -3.6070572153704758e-09 1.4397986355692140e-08 0.0000000000000000e+00  -2.6910976954626083e-09 1.5371979935748823e-08 0.0000000000000000e+00  -3.3969917684804615e-09 1.5848386727948666e-08 0.0000000000000000e+00  -2.6541724213392697e-09 -1.4230027882748420e-08 0.0000000000000000e+00  -2.3419299440761547e-09 -1.4723345696390437e-08 0.0000000000000000e+00  -3.4773002200364478e-09 -1.3742068250162428e-08 0.0000000000000000e+00  -4.7835455082263003e-09 -1.2225234224254508e-08 0.0000000000000000e+00  -5.8377781356804542e-09 -1.0372377825521106e-08 0.0000000000000000e+00  -6.5689443741484970e-09 -8.3898005053323887e-09 0.0000000000000000e+00  -7.0213285829887273e-09 -6.4290487003593511e-09 0.0000000000000000e+00  -7.2730104173180535e-09 -4.5725812171487812e-09 0.0000000000000000e+00  -7.3991803907311519e-09 -2.8439994909917946e-09 0.0000000000000000e+00  -7.4569285076557424e-09 -1.2261760430014182e-09 0.0000000000000000e+00  -7.4808462547629034e-09 3.2169812443078699e-10 0.0000000000000000e+00  -7.4829637323695923e-09 1.8504086291185178e-09 0.0000000000000000e+00  -7.4534638065789508e-09 3.4093447826231245e-09 0.0000000000000000e+00  -7.3609508802725272e-09 5.0354223081945010e-09 0.0000000000000000e+00  -7.1529928257163494e-09 6.7405027159226991e-09 0.0000000000000000e+00  -6.7596205534325924e-09 8.4968758359971599e-09 0.0000000000000000e+00  -6.1049038560401579e-09 1.0223396381426659e-08 0.0000000000000000e+00  -5.1358300812080282e-09 1.1780036004433222e-08 0.0000000000000000e+00  -3.8916337811778775e-09 1.2986120489110063e-08 0.0000000000000000e+00  -2.6937022379598111e-09 1.3713276571060086e-08 0.0000000000000000e+00  -2.9038293303491600e-09 1.4244669821824699e-08 0.0000000000000000e+00  -2.3810621359537580e-09 -1.2336935297577908e-08 0.0000000000000000e+00  -2.4116527905313248e-09 -1.2885961208223490e-08 0.0000000000000000e+00  -3.7422499489452074e-09 -1.2097852834538491e-08 0.0000000000000000e+00  -5.2589696464610215e-09 -1.0876558370858287e-08 0.0000000000000000e+00  -6.5772742236732222e-09 -9.3554839174610900e-09 0.0000000000000000e+00  -7.6078260864799696e-09 -7.6796087379142925e-09 0.0000000000000000e+00  -8.3584223978654854e-09 -5.9668543357842978e-09 0.0000000000000000e+00  -8.8723935074816051e-09 -4.2926466852377889e-09 0.0000000000000000e+00  -9.1998826950088504e-09 -2.6903508761743696e-09 0.0000000000000000e+00  -9.3831470144682617e-09 -1.1603830822940996e-09 0.0000000000000000e+00  -9.4496565480032182e-09 3.1810848053710947e-10 0.0000000000000000e+00  -9.4095008886889678e-09 1.7758184612858570e-09 0.0000000000000000e+00  -9.2549447188470023e-09 3.2426522828666444e-09 0.0000000000000000e+00  -8.9612775142881760e-09 4.7374142645467099e-09 0.0000000000000000e+00  -8.4893801507038169e-09 6.2574120025628363e-09 0.0000000000000000e+00  -7.7916264023187076e-09 7.7685914598892284e-09 0.0000000000000000e+00  -6.8239533491629640e-09 9.1987378329405746e-09 0.0000000000000000e+00  -5.5695588655303545e-09 1.0438840127337186e-08 0.0000000000000000e+00  -4.0922460484267937e-09 1.1361514206968664e-08 0.0000000000000000e+00  -2.6936292466481600e-09 1.1896362056741927e-08 0.0000000000000000e+00  -2.5357450941855321e-09 1.2463006044866807e-08 0.0000000000000000e+00  -2.1706603620324303e-09 -1.0361393939239896e-08 0.0000000000000000e+00  -2.4664924848095789e-09 -1.0948763844078336e-08 0.0000000000000000e+00  -3.9425226212473113e-09 -1.0309385145652750e-08 0.0000000000000000e+00  -5.6072130518260519e-09 -9.3253102545168706e-09 0.0000000000000000e+00  -7.1094168043506299e-09 -8.0893274128871983e-09 0.0000000000000000e+00  -8.3523658612697908e-09 -6.7026836926513016e-09 0.0000000000000000e+00  -9.3206761866739174e-09 -5.2534754027636941e-09 0.0000000000000000e+00  -1.0031898022424073e-08 -3.8044106718394540e-09 0.0000000000000000e+00  -1.0514674784020484e-08 -2.3897735143839876e-09 0.0000000000000000e+00  -1.0796416579804481e-08 -1.0193837000407428e-09 0.0000000000000000e+00  -1.0896266300960197e-08 3.1396259126336776e-10 0.0000000000000000e+00  -1.0821628791219261e-08 1.6258677255054297e-09 0.0000000000000000e+00  -1.0567192172241334e-08 2.9315797225286439e-09 0.0000000000000000e+00  -1.0115965317793843e-08 4.2374825045731401e-09 0.0000000000000000e+00  -9.4425063339611031e-09 5.5331831846729052e-09 0.0000000000000000e+00  -8.5190996361300054e-09 6.7851332016919040e-09 0.0000000000000000e+00  -7.3262718333063673e-09 7.9337081339787942e-09 0.0000000000000000e+00  -5.8713374937036146e-09 8.8967740883013576e-09 0.0000000000000000e+00  -4.2309215453631007e-09 9.5852652648017920e-09 0.0000000000000000e+00  -2.6890294164691978e-09 9.9643103416947654e-09 0.0000000000000000e+00  -2.2605476118627891e-09 1.0555452618769920e-08 0.0000000000000000e+00  -2.0094216821398078e-09 -8.3244675346154431e-09 0.0000000000000000e+00  -2.5094179872676290e-09 -8.9374765544933110e-09 0.0000000000000000e+00  -4.0935426112879001e-09 -8.4190151499640969e-09 0.0000000000000000e+00  -5.8618260511040080e-09 -7.6340098672133007e-09 0.0000000000000000e+00  -7.4905652255601351e-09 -6.6496960747660711e-09 0.0000000000000000e+00  -8.8808302377798423e-09 -5.5360118332106898e-09 0.0000000000000000e+00  -1.0002862726374033e-08 -4.3564618041776304e-09 0.0000000000000000e+00  -1.0856130365882970e-08 -3.1597744135072207e-09 0.0000000000000000e+00  -1.1452628573579372e-08 -1.9762917581677672e-09 0.0000000000000000e+00  -1.1807173846917183e-08 -8.1931939251097364e-10 0.0000000000000000e+00  -1.1931262099856499e-08 3.1037993716659338e-10 0.0000000000000000e+00  -1.1829647989850131e-08 1.4185278822936469e-09 0.0000000000000000e+00  -1.1499237908281922e-08 2.5107504197262260e-09 0.0000000000000000e+00  -1.0930089576249672e-08 3.5861450000607036e-09 0.0000000000000000e+00  -1.0108537815951379e-08 4.6316211699680711e-09 0.0000000000000000e+00  -9.0226779301172531e-09 5.6179064451102742e-09 0.0000000000000000e+00  -7.6708596461297398e-09 6.4985216426989364e-09 0.0000000000000000e+00  -6.0762026035547692e-09 7.2134555316964016e-09 0.0000000000000000e+00  -4.3222101199351228e-09 7.7014281117871250e-09 0.0000000000000000e+00  -2.6798558453779987e-09 7.9498091231663184e-09 0.0000000000000000e+00  -2.0573431898584795e-09 8.5588353602141920e-09 0.0000000000000000e+00  -1.8893034453832808e-09 -6.2431437730748240e-09 0.0000000000000000e+00  -2.5433315855319086e-09 -6.8723968936643311e-09 0.0000000000000000e+00  -4.2063981967094574e-09 -6.4575931118036399e-09 0.0000000000000000e+00  -6.0455474595589394e-09 -5.8471023771405144e-09 0.0000000000000000e+00  -7.7589127280304168e-09 -5.0916348156071301e-09 0.0000000000000000e+00  -9.2478298478863209e-09 -4.2381536678205614e-09 0.0000000000000000e+00  -1.0473897118676157e-08 -3.3301939999469236e-09 0.0000000000000000e+00  -1.1424511258297184e-08 -2.4030003409639152e-09 0.0000000000000000e+00  -1.2099732892752230e-08 -1.4805023323782448e-09 0.0000000000000000e+00  -1.2504786903182609e-08 -5.7550368013320294e-10 0.0000000000000000e+00  -1.2645048375771478e-08 3.0774686570840662e-10 0.0000000000000000e+00  -1.2523051606608792e-08 1.1695850790867929e-09 0.0000000000000000e+00  -1.2137457853386197e-08 2.0103801144151771e-09 0.0000000000000000e+00  -1.1483932168208496e-08 2.8260523282563140e-09 0.0000000000000000e+00  -1.0557871444241303e-08 3.6042693587213989e-09 0.0000000000000000e+00  -9.3589523066589786e-09 4.3220179984191128e-09 0.0000000000000000e+00  -7.8978471791205782e-09 4.9453755925231397e-09 0.0000000000000000e+00  -6.2079367243914591e-09 5.4324756956458963e-09 0.0000000000000000e+00  -4.3766956263367374e-09 5.7427916269456139e-09 0.0000000000000000e+00  -2.6669344095666732e-09 5.8780542493120352e-09 0.0000000000000000e+00  -1.9119888268316862e-09 6.5003863563419576e-09 0.0000000000000000e+00  -1.8056691918081706e-09 -4.1313175648418927e-09 0.0000000000000000e+00  -2.5708618816513681e-09 -4.7698130107081151e-09 0.0000000000000000e+00  -4.2892521310161285e-09 -4.4484192617054635e-09 0.0000000000000000e+00  -6.1741676987640177e-09 -3.9972292926696781e-09 0.0000000000000000e+00  -7.9405968545123276e-09 -3.4558291377269998e-09 0.0000000000000000e+00  -9.4911703525471084e-09 -2.8535642937210055e-09 0.0000000000000000e+00  -1.0782640468405961e-08 -2.217461