<?xml version="1.0"?>
<VTKFile type="UnstructuredGrid"  version="0.1"  >
<UnstructuredGrid>
<Piece  NumberOfPoints="651" NumberOfCells="1200">
<Points>
<DataArray  type="Float64"  NumberOfComponents="3"  format="ascii">0 0 0  50000 0 0  100000 0 0  150000 0 0  200000 0 0  250000 0 0  300000 0 0  350000 0 0  400000 0 0  450000 0 0  500000 0 0  550000 0 0  600000 0 0  650000 0 0  700000 0 0  750000 0 0  800000 0 0  850000 0 0  900000 0 0  950000 0 0  1000000 0 0  0 50000 0  50000 50000 0  100000 50000 0  150000 50000 0  200000 50000 0  250000 50000 0  300000 50000 0  350000 50000 0  400000 50000 0  450000 50000 0  500000 50000 0  550000 50000 0  600000 50000 0  650000 50000 0  700000 50000 0  750000 50000 0  800000 50000 0  850000 50000 0  900000 50000 0  950000 50000 0  1000000 50000 0  0 100000 0  50000 100000 0  100000 100000 0  150000 100000 0  200000 100000 0  250000 100000 0  300000 100000 0  350000 100000 0  400000 100000 0  450000 100000 0  500000 100000 0  550000 100000 0  600000 100000 0  650000 100000 0  700000 100000 0  750000 100000 0  800000 100000 0  850000 100000 0  900000 100000 0  950000 100000 0  1000000 100000 0  0 150000 0  50000 150000 0  100000 150000 0  150000 150000 0  200000 150000 0  250000 150000 0  300000 150000 0  350000 150000 0  400000 150000 0  450000 150000 0  500000 150000 0  550000 150000 0  600000 150000 0  650000 150000 0  700000 150000 0  750000 150000 0  800000 150000 0  850000 150000 0  900000 150000 0  950000 150000 0  1000000 150000 0  0 200000 0  50000 200000 0  100000 200000 0  150000 200000 0  200000 200000 0  250000 200000 0  300000 200000 0  350000 200000 0  400000 200000 0  450000 200000 0  500000 200000 0  550000 200000 0  600000 200000 0  650000 200000 0  700000 200000 0  750000 200000 0  800000 200000 0  850000 200000 0  900000 200000 0  950000 200000 0  1000000 200000 0  0 250000 0  50000 250000 0  100000 250000 0  150000 250000 0  200000 250000 0  250000 250000 0  300000 250000 0  350000 250000 0  400000 250000 0  450000 250000 0  500000 250000 0  550000 250000 0  600000 250000 0  650000 250000 0  700000 250000 0  750000 250000 0  800000 250000 0  850000 250000 0  900000 250000 0  950000 250000 0  1000000 250000 0  0 300000 0  50000 300000 0  100000 300000 0  150000 300000 0  200000 300000 0  250000 300000 0  300000 300000 0  350000 300000 0  400000 300000 0  450000 300000 0  500000 300000 0  550000 300000 0  600000 300000 0  650000 300000 0  700000 300000 0  750000 300000 0  800000 300000 0  850000 300000 0  900000 300000 0  950000 300000 0  1000000 300000 0  0 350000 0  50000 350000 0  100000 350000 0  150000 350000 0  200000 350000 0  250000 350000 0  300000 350000 0  350000 350000 0  400000 350000 0  450000 350000 0  500000 350000 0  550000 350000 0  600000 350000 0  650000 350000 0  700000 350000 0  750000 350000 0  800000 350000 0  850000 350000 0  900000 350000 0  950000 350000 0  1000000 350000 0  0 400000 0  50000 400000 0  100000 400000 0  150000 400000 0  200000 400000 0  250000 400000 0  300000 400000 0  350000 400000 0  400000 400000 0  450000 400000 0  500000 400000 0  550000 400000 0  600000 400000 0  650000 400000 0  700000 400000 0  750000 400000 0  800000 400000 0  850000 400000 0  900000 400000 0  950000 400000 0  1000000 400000 0  0 450000 0  50000 450000 0  100000 450000 0  150000 450000 0  200000 450000 0  250000 450000 0  300000 450000 0  350000 450000 0  400000 450000 0  450000 450000 0  500000 450000 0  550000 450000 0  600000 450000 0  650000 450000 0  700000 450000 0  750000 450000 0  800000 450000 0  850000 450000 0  900000 450000 0  950000 450000 0  1000000 450000 0  0 500000 0  50000 500000 0  100000 500000 0  150000 500000 0  200000 500000 0  250000 500000 0  300000 500000 0  350000 500000 0  400000 500000 0  450000 500000 0  500000 500000 0  550000 500000 0  600000 500000 0  650000 500000 0  700000 500000 0  750000 500000 0  800000 500000 0  850000 500000 0  900000 500000 0  950000 500000 0  1000000 500000 0  0 550000 0  50000 550000 0  100000 550000 0  150000 550000 0  200000 550000 0  250000 550000 0  300000 550000 0  350000 550000 0  400000 550000 0  450000 550000 0  500000 550000 0  550000 550000 0  600000 550000 0  650000 550000 0  700000 550000 0  750000 550000 0  800000 550000 0  850000 550000 0  900000 550000 0  950000 550000 0  1000000 550000 0  0 600000 0  50000 600000 0  100000 600000 0  150000 600000 0  200000 600000 0  250000 600000 0  300000 600000 0  350000 600000 0  400000 600000 0  450000 600000 0  500000 600000 0  550000 600000 0  600000 600000 0  650000 600000 0  700000 600000 0  750000 600000 0  800000 600000 0  850000 600000 0  900000 600000 0  950000 600000 0  1000000 600000 0  0 650000 0  50000 650000 0  100000 650000 0  150000 650000 0  200000 650000 0  250000 650000 0  300000 650000 0  350000 650000 0  400000 650000 0  450000 650000 0  500000 650000 0  550000 650000 0  600000 650000 0  650000 650000 0  700000 650000 0  750000 650000 0  800000 650000 0  850000 650000 0  900000 650000 0  950000 650000 0  1000000 650000 0  0 700000 0  50000 700000 0  100000 700000 0  150000 700000 0  200000 700000 0  250000 700000 0  300000 700000 0  350000 700000 0  400000 700000 0  450000 700000 0  500000 700000 0  550000 700000 0  600000 700000 0  650000 700000 0  700000 700000 0  750000 700000 0  800000 700000 0  850000 700000 0  900000 700000 0  950000 700000 0  1000000 700000 0  0 750000 0  50000 750000 0  100000 750000 0  150000 750000 0  200000 750000 0  250000 750000 0  300000 750000 0  350000 750000 0  400000 750000 0  450000 750000 0  500000 750000 0  550000 750000 0  600000 750000 0  650000 750000 0  700000 750000 0  750000 750000 0  800000 750000 0  850000 750000 0  900000 750000 0  950000 750000 0  1000000 750000 0  0 800000 0  50000 800000 0  100000 800000 0  150000 800000 0  200000 800000 0  250000 800000 0  300000 800000 0  350000 800000 0  400000 800000 0  450000 800000 0  500000 800000 0  550000 800000 0  600000 800000 0  650000 800000 0  700000 800000 0  750000 800000 0  800000 800000 0  850000 800000 0  900000 800000 0  950000 800000 0  1000000 800000 0  0 850000 0  50000 850000 0  100000 850000 0  150000 850000 0  200000 850000 0  250000 850000 0  300000 850000 0  350000 850000 0  400000 850000 0  450000 850000 0  500000 850000 0  550000 850000 0  600000 850000 0  650000 850000 0  700000 850000 0  750000 850000 0  800000 850000 0  850000 850000 0  900000 850000 0  950000 850000 0  1000000 850000 0  0 900000 0  50000 900000 0  100000 900000 0  150000 900000 0  200000 900000 0  250000 900000 0  300000 900000 0  350000 900000 0  400000 900000 0  450000 900000 0  500000 900000 0  550000 900000 0  600000 900000 0  650000 900000 0  700000 900000 0  750000 900000 0  800000 900000 0  850000 900000 0  900000 900000 0  950000 900000 0  1000000 900000 0  0 950000 0  50000 950000 0  100000 950000 0  150000 950000 0  200000 950000 0  250000 950000 0  300000 950000 0  350000 950000 0  400000 950000 0  450000 950000 0  500000 950000 0  550000 950000 0  600000 950000 0  650000 950000 0  700000 950000 0  750000 950000 0  800000 950000 0  850000 950000 0  900000 950000 0  950000 950000 0  1000000 950000 0  0 1000000 0  50000 1000000 0  100000 1000000 0  150000 1000000 0  200000 1000000 0  250000 1000000 0  300000 1000000 0  350000 1000000 0  400000 1000000 0  450000 1000000 0  500000 1000000 0  550000 1000000 0  600000 1000000 0  650000 1000000 0  700000 1000000 0  750000 1000000 0  800000 1000000 0  850000 1000000 0  900000 1000000 0  950000 1000000 0  1000000 1000000 0  0 1050000 0  50000 1050000 0  100000 1050000 0  150000 1050000 0  200000 1050000 0  250000 1050000 0  300000 1050000 0  350000 1050000 0  400000 1050000 0  450000 1050000 0  500000 1050000 0  550000 1050000 0  600000 1050000 0  650000 1050000 0  700000 1050000 0  750000 1050000 0  800000 1050000 0  850000 1050000 0  900000 1050000 0  950000 1050000 0  1000000 1050000 0  0 1100000 0  50000 1100000 0  100000 1100000 0  150000 1100000 0  200000 1100000 0  250000 1100000 0  300000 1100000 0  350000 1100000 0  400000 1100000 0  450000 1100000 0  500000 1100000 0  550000 1100000 0  600000 1100000 0  650000 1100000 0  700000 1100000 0  750000 1100000 0  800000 1100000 0  850000 1100000 0  900000 1100000 0  950000 1100000 0  1000000 1100000 0  0 1150000 0  50000 1150000 0  100000 1150000 0  150000 1150000 0  200000 1150000 0  250000 1150000 0  300000 1150000 0  350000 1150000 0  400000 1150000 0  450000 1150000 0  500000 1150000 0  550000 1150000 0  600000 1150000 0  650000 1150000 0  700000 1150000 0  750000 1150000 0  800000 1150000 0  850000 1150000 0  900000 1150000 0  950000 1150000 0  1000000 1150000 0  0 1200000 0  50000 1200000 0  100000 1200000 0  150000 1200000 0  200000 1200000 0  250000 1200000 0  300000 1200000 0  350000 1200000 0  400000 1200000 0  450000 1200000 0  500000 1200000 0  550000 1200000 0  600000 1200000 0  650000 1200000 0  700000 1200000 0  750000 1200000 0  800000 1200000 0  850000 1200000 0  900000 1200000 0  950000 1200000 0  1000000 1200000 0  0 1250000 0  50000 1250000 0  100000 1250000 0  150000 1250000 0  200000 1250000 0  250000 1250000 0  300000 1250000 0  350000 1250000 0  400000 1250000 0  450000 1250000 0  500000 1250000 0  550000 1250000 0  600000 1250000 0  650000 1250000 0  700000 1250000 0  750000 1250000 0  800000 1250000 0  850000 1250000 0  900000 1250000 0  950000 1250000 0  1000000 1250000 0  0 1300000 0  50000 1300000 0  100000 1300000 0  150000 1300000 0  200000 1300000 0  250000 1300000 0  300000 1300000 0  350000 1300000 0  400000 1300000 0  450000 1300000 0  500000 1300000 0  550000 1300000 0  600000 1300000 0  650000 1300000 0  700000 1300000 0  750000 1300000 0  800000 1300000 0  850000 1300000 0  900000 1300000 0  950000 1300000 0  1000000 1300000 0  0 1350000 0  50000 1350000 0  100000 1350000 0  150000 1350000 0  200000 1350000 0  250000 1350000 0  300000 1350000 0  350000 1350000 0  400000 1350000 0  450000 1350000 0  500000 1350000 0  550000 1350000 0  600000 1350000 0  650000 1350000 0  700000 135
[...]
<PointData  Vectors="f_1513"> 
<DataArray  type="Float64"  Name="f_1513"  NumberOfComponents="3" format="ascii">-2.4600427867998282e-08 -9.8296929027765185e-09 0.0000000000000000e+00  4.8472507308341756e-08 -5.9249372420679128e-09 0.0000000000000000e+00  4.2766844678736605e-08 -1.6478087745896013e-09 0.0000000000000000e+00  4.0336451244120420e-08 -3.0370555709910918e-10 0.0000000000000000e+00  3.9157618380269112e-08 1.5038063648444826e-10 0.0000000000000000e+00  3.8397581400357408e-08 3.3049047566309906e-10 0.0000000000000000e+00  3.7859286340364123e-08 4.0261521908772774e-10 0.0000000000000000e+00  3.7485339157045123e-08 4.2317280827815666e-10 0.0000000000000000e+00  3.7257063767787216e-08 4.1603685134802106e-10 0.0000000000000000e+00  3.7168846176632546e-08 3.9405741125664325e-10 0.0000000000000000e+00  3.7220472179765938e-08 3.6647434517088191e-10 0.0000000000000000e+00  3.7415487102081560e-08 3.4229914539011824e-10 0.0000000000000000e+00  3.7762956858196125e-08 3.3285026015243162e-10 0.0000000000000000e+00  3.8283713547825863e-08 3.5523937870124825e-10 0.0000000000000000e+00  3.9026623666120823e-08 4.3953962741810489e-10 0.0000000000000000e+00  4.0111247155558961e-08 6.4667474427919424e-10 0.0000000000000000e+00  4.1840207747398579e-08 1.1168075486450927e-09 0.0000000000000000e+00  4.4962441287704184e-08 2.1957648505002860e-09 0.0000000000000000e+00  5.0810012927317397e-08 4.7017718454894790e-09 0.0000000000000000e+00  5.8055312865041125e-08 9.2028476895986298e-09 0.0000000000000000e+00  -1.6399265663445698e-08 7.0958886579279020e-09 0.0000000000000000e+00  -1.8377836793919215e-08 -1.5386399342917501e-08 0.0000000000000000e+00  7.1109958837761827e-09 -1.1106862376552683e-08 0.0000000000000000e+00  1.7930213198572625e-08 -5.1851751939447056e-09 0.0000000000000000e+00  2.3011581442979550e-08 -2.3450753002960832e-09 0.0000000000000000e+00  2.5638496958204655e-08 -1.0977509244372291e-09 0.0000000000000000e+00  2.7137626428819017e-08 -5.1181765420277407e-10 0.0000000000000000e+00  2.8021949606849004e-08 -2.2022448899123361e-10 0.0000000000000000e+00  2.8551302468216380e-08 -7.3018143553718183e-11 0.0000000000000000e+00  2.8868400711880333e-08 -1.0871565251291894e-12 0.0000000000000000e+00  2.9052430314833315e-08 3.3070249799779728e-11 0.0000000000000000e+00  2.9144267397162653e-08 5.4153053040460266e-11 0.0000000000000000e+00  2.9158082727368621e-08 8.2709875090685856e-11 0.0000000000000000e+00  2.9085457845131774e-08 1.4085537540764545e-10 0.0000000000000000e+00  2.8893983664215174e-08 2.5884174981425349e-10 0.0000000000000000e+00  2.8519302015157697e-08 4.8684381179450316e-10 0.0000000000000000e+00  2.7844518848077244e-08 9.2091748468846871e-10 0.0000000000000000e+00  2.6644946080217985e-08 1.7639901614880141e-09 0.0000000000000000e+00  2.4410810456927293e-08 3.4617478356653919e-09 0.0000000000000000e+00  1.9700818078516457e-08 6.9042817863497214e-09 0.0000000000000000e+00  8.2710687219250298e-09 1.3055233709137254e-08 0.0000000000000000e+00  -1.8368329728715096e-08 1.1026313684665135e-08 0.0000000000000000e+00  -1.1423025220663545e-08 -1.8998746951394413e-08 0.0000000000000000e+00  -3.4631149968847378e-10 -1.8267116378781677e-08 0.0000000000000000e+00  5.6931065656132236e-09 -1.1341600434027001e-08 0.0000000000000000e+00  1.0544014035679219e-08 -6.6084292710656505e-09 0.0000000000000000e+00  1.4361557964120074e-08 -3.8605079901865428e-09 0.0000000000000000e+00  1.7027659265141230e-08 -2.2951278148657552e-09 0.0000000000000000e+00  1.8821185287827599e-08 -1.3776714963297067e-09 0.0000000000000000e+00  2.0003961271191864e-08 -8.1876536837584535e-10 0.0000000000000000e+00  2.0753699941315061e-08 -4.5969955063573161e-10 0.0000000000000000e+00  2.1179886520100694e-08 -2.0604092667093188e-10 0.0000000000000000e+00  2.1341862617595597e-08 6.5742028380047107e-12 0.0000000000000000e+00  2.1259758705831399e-08 2.3117935524141989e-10 0.0000000000000000e+00  2.0918465252300107e-08 5.2253447023884397e-10 0.0000000000000000e+00  2.0265242654436539e-08 9.5071719962867111e-10 0.0000000000000000e+00  1.9200354613992075e-08 1.6211980060364241e-09 0.0000000000000000e+00  1.7558812881752720e-08 2.7091273264847120e-09 0.0000000000000000e+00  1.5081898759064456e-08 4.5142641048333434e-09 0.0000000000000000e+00  1.1388733491173144e-08 7.5096914634520470e-09 0.0000000000000000e+00  6.0150547587085605e-09 1.2161547795197664e-08 0.0000000000000000e+00  -1.3010111124387576e-09 1.7612272494262875e-08 0.0000000000000000e+00  -1.3213561046190957e-08 1.4770333115848448e-08 0.0000000000000000e+00  -7.7446785737288192e-09 -1.9632616487918173e-08 0.0000000000000000e+00  -1.6048739804979902e-09 -1.9633164897332795e-08 0.0000000000000000e+00  1.0442134754214553e-09 -1.5266525130289597e-08 0.0000000000000000e+00  3.7746510899218013e-09 -1.0479260883666139e-08 0.0000000000000000e+00  6.6494505633584658e-09 -6.9375076575948234e-09 0.0000000000000000e+00  9.1679768791882821e-09 -4.5415032413195202e-09 0.0000000000000000e+00  1.1121541029021014e-08 -2.9454324791750219e-09 0.0000000000000000e+00  1.2527835157348407e-08 -1.8623828654939186e-09 0.0000000000000000e+00  1.3467608535332837e-08 -1.0934722574151661e-09 0.0000000000000000e+00  1.4013626143815509e-08 -5.0131845737132377e-10 0.0000000000000000e+00  1.4212165401804663e-08 1.6491161029176044e-11 0.0000000000000000e+00  1.4079979128259374e-08 5.4727241440105343e-10 0.0000000000000000e+00  1.3604319936383200e-08 1.1791089171711054e-09 0.0000000000000000e+00  1.2743072869728181e-08 2.0162822384970683e-09 0.0000000000000000e+00  1.1426193724428627e-08 3.1968339292631950e-09 0.0000000000000000e+00  9.5646532832518842e-09 4.9106472382788525e-09 0.0000000000000000e+00  7.0837565866205605e-09 7.4002193532309953e-09 0.0000000000000000e+00  4.0149922718041905e-09 1.0873561089973042e-08 0.0000000000000000e+00  6.5286243698399999e-10 1.5137571671937574e-08 0.0000000000000000e+00  -2.6434325798383955e-09 1.8768749803644211e-08 0.0000000000000000e+00  -8.9306469247446173e-09 1.7605282962375133e-08 0.0000000000000000e+00  -5.8942490156230749e-09 -1.9050813477029024e-08 0.0000000000000000e+00  -1.9288005655522338e-09 -1.9332607175364919e-08 0.0000000000000000e+00  -9.6455633606722402e-10 -1.6627423028559876e-08 0.0000000000000000e+00  1.3776537527785905e-10 -1.2823462496727884e-08 0.0000000000000000e+00  1.7483834543218805e-09 -9.3288087578148399e-09 0.0000000000000000e+00  3.5082869589013410e-09 -6.5721898477093377e-09 0.0000000000000000e+00  5.0911846046335051e-09 -4.5099275828668524e-09 0.0000000000000000e+00  6.3479570511473727e-09 -2.9746721718348442e-09 0.0000000000000000e+00  7.2413748861994639e-09 -1.7984453014836496e-09 0.0000000000000000e+00  7.7785522373402787e-09 -8.3905223126512831e-10 0.0000000000000000e+00  7.9741173649619678e-09 2.3245216363864054e-11 0.0000000000000000e+00  7.8349211360362276e-09 8.9621124531977698e-10 0.0000000000000000e+00  7.3556982030478582e-09 1.8868739132426290e-09 0.0000000000000000e+00  6.5215577601363474e-09 3.1117183381419560e-09 0.0000000000000000e+00  5.3185286964968229e-09 4.7032539437007449e-09 0.0000000000000000e+00  3.7582050117344037e-09 6.8043677373333815e-09 0.0000000000000000e+00  1.9258659576756195e-09 9.5270674461602233e-09 0.0000000000000000e+00  4.9126078838807134e-11 1.2827706593869172e-08 0.0000000000000000e+00  -1.5062692251298134e-09 1.6252168338885312e-08 0.0000000000000000e+00  -2.7585880997601978e-09 1.8703818052748704e-08 0.0000000000000000e+00  -6.6689696635082154e-09 1.8582699409665273e-08 0.0000000000000000e+00  -4.8494052170765219e-09 -1.7928760388541515e-08 0.0000000000000000e+00  -2.0955730186918220e-09 -1.8388774019125293e-08 0.0000000000000000e+00  -2.0164766358429207e-09 -1.6611026067012526e-08 0.0000000000000000e+00  -1.9521965040405143e-09 -1.3755968040318900e-08 0.0000000000000000e+00  -1.3786287850454894e-09 -1.0714418679143222e-08 0.0000000000000000e+00  -4.5508809870858266e-10 -7.9945689717305381e-09 0.0000000000000000e+00  5.5188959809982181e-10 -5.7417074263289707e-09 0.0000000000000000e+00  1.4505692847849265e-09 -3.9205716391644964e-09 0.0000000000000000e+00  2.1384945992783353e-09 -2.4301539111580410e-09 0.0000000000000000e+00  2.5708687957491270e-09 -1.1550633901071165e-09 0.0000000000000000e+00  2.7316511036287050e-09 1.7875258352329459e-11 0.0000000000000000e+00  2.6169276976681349e-09 1.1975515945947796e-09 0.0000000000000000e+00  2.2290172461672137e-09 2.4910950206103521e-09 0.0000000000000000e+00  1.5794249814138719e-09 4.0055150549328772e-09 0.0000000000000000e+00  7.0081602821484246e-10 5.8429534888735446e-09 0.0000000000000000e+00  -3.3078722691273589e-10 8.0804771660961300e-09 0.0000000000000000e+00  -1.3666652827240808e-09 1.0719850259648209e-08 0.0000000000000000e+00  -2.1734698160169078e-09 1.3594148046568263e-08 0.0000000000000000e+00  -2.5318462643219351e-09 1.6255780529942216e-08 0.0000000000000000e+00  -2.7373641057445404e-09 1.7990404033463632e-08 0.0000000000000000e+00  -5.3606263213375706e-09 1.8331022459159697e-08 0.0000000000000000e+00  -4.1873574396827676e-09 -1.6508363060894470e-08 0.0000000000000000e+00  -2.2245745101610015e-09 -1.7094113919575126e-08 0.0000000000000000e+00  -2.6706194086374264e-09 -1.5867090137078486e-08 0.0000000000000000e+00  -3.2596150609694634e-09 -1.3719738339759100e-08 0.0000000000000000e+00  -3.4374683439136514e-09 -1.1202251046794116e-08 0.0000000000000000e+00  -3.2261653899184228e-09 -8.7273186394192491e-09 0.0000000000000000e+00  -2.7981904864670861e-09 -6.4990159831117902e-09 0.0000000000000000e+00  -2.3198898421786515e-09 -4.5660478980862628e-09 0.0000000000000000e+00  -1.9077344834652338e-09 -2.8913910337571169e-09 0.0000000000000000e+00  -1.6304673418365161e-09 -1.3989556798686388e-09 0.0000000000000000e+00  -1.5226178673578775e-09 2.0476245268271777e-12 0.0000000000000000e+00  -1.5955173919167326e-09 1.4060324245201686e-09 0.0000000000000000e+00  -1.8419811715941875e-09 2.9054883550515341e-09 0.0000000000000000e+00  -2.2342882153234150e-09 4.5851008320188877e-09 0.0000000000000000e+00  -2.7160910747006208e-09 6.5101042487667732e-09 0.0000000000000000e+00  -3.1906790539380937e-09 8.7029049525550241e-09 0.0000000000000000e+00  -3.5139860920995312e-09 1.1103249418490467e-08 0.0000000000000000e+00  -3.5164029102976331e-09 1.3516892537000977e-08 0.0000000000000000e+00  -3.1160052093095249e-09 1.5586349325775201e-08 0.0000000000000000e+00  -2.7211688459214008e-09 1.6861125826604082e-08 0.0000000000000000e+00  -4.5297275050316915e-09 1.7423696715412031e-08 0.0000000000000000e+00  -3.7323057389592347e-09 -1.4889786775486284e-08 0.0000000000000000e+00  -2.3320391306176258e-09 -1.5568219967513482e-08 0.0000000000000000e+00  -3.1246540837904480e-09 -1.4692165229756747e-08 0.0000000000000000e+00  -4.1380974704728004e-09 -1.3055301444412998e-08 0.0000000000000000e+00  -4.8411728228383655e-09 -1.1008069215944747e-08 0.0000000000000000e+00  -5.1797125651350189e-09 -8.8515342606216807e-09 0.0000000000000000e+00  -5.2473160487346416e-09 -6.7784749461680366e-09 0.0000000000000000e+00  -5.1645521116737615e-09 -4.8730435794500889e-09 0.0000000000000000e+00  -5.0328285276870075e-09 -3.1417697112268744e-09 0.0000000000000000e+00  -4.9221199335682213e-09 -1.5450705624134181e-09 0.0000000000000000e+00  -4.8723963245555276e-09 -1.9896321283648429e-11 0.0000000000000000e+00  -4.8979584897275552e-09 1.5056878324510803e-09 0.0000000000000000e+00  -4.9899088955577856e-09 3.1021387505029087e-09 0.0000000000000000e+00  -5.1154271982126582e-09 4.8281946533211867e-09 0.0000000000000000e+00  -5.2146997573136102e-09 6.7170526746058208e-09 0.0000000000000000e+00  -5.1988622335204511e-09 8.7563379841385629e-09 0.0000000000000000e+00  -4.9567465797580066e-09 1.0862627719445209e-08 0.0000000000000000e+00  -4.3869405307137388e-09 1.2859573381450368e-08 0.0000000000000000e+00  -3.4952135438911519e-09 1.4483169646954793e-08 0.0000000000000000e+00  -2.7182520987013439e-09 1.5447660468394520e-08 0.0000000000000000e+00  -3.9665596179292914e-09 1.6136216391340004e-08 0.0000000000000000e+00  -3.4032144112133895e-09 -1.3127112903720816e-08 0.0000000000000000e+00  -2.4205996228641638e-09 -1.3875840496846756e-08 0.0000000000000000e+00  -3.4575360536726600e-09 -1.3237792491218024e-08 0.0000000000000000e+00  -4.7569641459152202e-09 -1.1976755500593100e-08 0.0000000000000000e+00  -5.8244801578437383e-09 -1.0324792623076910e-08 0.0000000000000000e+00  -6.5684727150900597e-09 -8.4945697378711138e-09 0.0000000000000000e+00  -7.0271948955052940e-09 -6.6445990701798830e-09 0.0000000000000000e+00  -7.2771634431177212e-09 -4.8643023519730187e-09 0.0000000000000000e+00  -7.3941237104589391e-09 -3.1832527493452417e-09 0.0000000000000000e+00  -7.4367067639172508e-09 -1.5889194922861375e-09 0.0000000000000000e+00  -7.4413417766212116e-09 -4.3812534795244252e-11 0.0000000000000000e+00  -7.4218152829565102e-09 1.5004856013895134e-09 0.0000000000000000e+00  -7.3698369702559270e-09 3.0915511740969765e-09 0.0000000000000000e+00  -7.2553247810632463e-09 4.7646583903780931e-09 0.0000000000000000e+00  -7.0270914618514658e-09 6.5298643129970788e-09 0.0000000000000000e+00  -6.6166210757556586e-09 8.3572182263218037e-09 0.0000000000000000e+00  -5.9501840010189850e-09 1.0162648388590772e-08 0.0000000000000000e+00  -4.9794063903660218e-09 1.1801949066507324e-08 0.0000000000000000e+00  -3.7592464655284159e-09 1.3086340363929942e-08 0.0000000000000000e+00  -2.7218232432818775e-09 1.3832348528948998e-08 0.0000000000000000e+00  -3.5680040820153053e-09 1.4603181293383154e-08 0.0000000000000000e+00  -3.1585128851689856e-09 -1.1256705576683646e-08 0.0000000000000000e+00  -2.4919195430526913e-09 -1.2059591497775624e-08 0.0000000000000000e+00  -3.7066743077929191e-09 -1.1592577671182613e-08 0.0000000000000000e+00  -5.2037172719811194e-09 -1.0618625146026991e-08 0.0000000000000000e+00  -6.5240249780458580e-09 -9.2972796563511799e-09 0.0000000000000000e+00  -7.5594218250094225e-09 -7.7775051713529037e-09 0.0000000000000000e+00  -8.3121671849290875e-09 -6.1817040942757583e-09 0.0000000000000000e+00  -8.8235176805736735e-09 -4.5902997570244340e-09 0.0000000000000000e+00  -9.1432190744028826e-09 -3.0414038685500905e-09 0.0000000000000000e+00  -9.3140978102787444e-09 -1.5394434106584712e-09 0.0000000000000000e+00  -9.3646837202524237e-09 -6.6727450045299176e-11 0.0000000000000000e+00  -9.3063081177537491e-09 1.4050060337576296e-09 0.0000000000000000e+00  -9.1325086938944545e-09 2.9037273228200050e-09 0.0000000000000000e+00  -8.8198654309182501e-09 4.4465494666061963e-09 0.0000000000000000e+00  -8.3306731789527189e-09 6.0291102577332025e-09 0.0000000000000000e+00  -7.6190787914220946e-09 7.6155483631011588e-09 0.0000000000000000e+00  -6.6436560929924917e-09 9.1315971990271886e-09 0.0000000000000000e+00  -5.3928518765601357e-09 1.0465608069571643e-08 0.0000000000000000e+00  -3.9478127509125389e-09 1.1484689658801375e-08 0.0000000000000000e+00  -2.7262347551856166e-09 1.2070412725491391e-08 0.0000000000000000e+00  -3.2779597096285242e-09 1.2899475510085005e-08 0.0000000000000000e+00  -2.9749487796754870e-09 -9.3061522193141508e-09 0.0000000000000000e+00  -2.5481454735541341e-09 -1.0151005687783612e-08 0.0000000000000000e+00  -3.8933927534340750e-09 -9.8139509548122120e-09 0.0000000000000000e+00  -5.5283907714192741e-09 -9.0690104413801519e-09 0.0000000000000000e+00  -7.0235024180425503e-09 -8.0294689967655857e-09 0.0000000000000000e+00  -8.2643234621463814e-09 -6.7994362937726910e-09 0.0000000000000000e+00  -9.2305278688401693e-09 -5.4701203917870824e-09 0.0000000000000000e+00  -9.9374927883136749e-09 -4.1078921328672919e-09 0.0000000000000000e+00  -1.0412946549016531e-08 -2.7507559074199599e-09 0.0000000000000000e+00  -1.0684219059250481e-08 -1.4118882830565198e-09 0.0000000000000000e+00  -1.0770923671946406e-08 -8.6895857875792645e-11 0.0000000000000000e+00  -1.0681275489553536e-08 1.2375547256793920e-09 0.0000000000000000e+00  -1.0410993312104213e-08 2.5748734039320809e-09 0.0000000000000000e+00  -9.9443151145969956e-09 3.9298926207169651e-09 0.0000000000000000e+00  -9.2573004821857999e-09 5.2908320431718567e-09 0.0000000000000000e+00  -8.3241933087565879e-09 6.6228598823773472e-09 0.0000000000000000e+00  -7.1283799006494680e-09 7.8651792258641929e-09 0.0000000000000000e+00  -5.6826720711165868e-09 8.9344206618249555e-09 0.0000000000000000e+00  -4.0818907531390707e-09 9.7382755503981272e-09 0.0000000000000000e+00  -2.7283784268784940e-09 1.0201175773653377e-08 0.0000000000000000e+00  -3.0635505264883821e-09 1.1072559460112009e-08 0.0000000000000000e+00  -2.8386859703469418e-09 -7.2974814268497429e-09 0.0000000000000000e+00  -2.5918046937789793e-09 -8.1747559844286264e-09 0.0000000000000000e+00  -4.0318901911704598e-09 -7.9418713516492546e-09 0.0000000000000000e+00  -5.7626523014070500e-09 -7.3880135024352924e-09 0.0000000000000000e+00  -7.3772295993858416e-09 -6.5955277508191851e-09 0.0000000000000000e+00  -8.7597802965214489e-09 -5.6367302786676964e-09 0.0000000000000000e+00  -9.8760964529506082e-09 -4.5775587158708932e-09 0.0000000000000000e+00  -1.0723530188791004e-08 -3.4695612667790780e-09 0.0000000000000000e+00  -1.1312899154920486e-08 -2.3460098310531938e-09 0.0000000000000000e+00  -1.1658528414881382e-08 -1.2229448999115949e-09 0.0000000000000000e+00  -1.1771966660851236e-08 -1.0349703746493175e-10 0.0000000000000000e+00  -1.1658444107008266e-08 1.0160996826605103e-09 0.0000000000000000e+00  -1.1315686675588485e-08 2.1398913770950576e-09 0.0000000000000000e+00  -1.0734896339007346e-08 3.2657060910872582e-09 0.0000000000000000e+00  -9.9039242569722330e-09 4.3794479150457134e-09 0.0000000000000000e+00  -8.8128871302121065e-09 5.4511157745391028e-09 0.0000000000000000e+00  -7.4630285715176846e-09 6.4338601753009552e-09 0.0000000000000000e+00  -5.8829239404321361e-09 7.2675948655414689e-09 0.0000000000000000e+00  -4.1745423183496865e-09 7.8896140359889138e-09 0.0000000000000000e+00  -2.7270317177012879e-09 8.2538408843067091e-09 0.0000000000000000e+00  -2.9046596685810740e-09 9.1555486845611399e-09 0.0000000000000000e+00  -2.7411561000974056e-09 -5.2486249112666598e-09 0.0000000000000000e+00  -2.6255135551073773e-09 -6.1505840877010805e-09 0.0000000000000000e+00  -4.1325591334444736e-09 -6.0054686989056445e-09 0.0000000000000000e+00  -5.9281088160240975e-09 -5.6180550985654186e-09 0.0000000000000000e+00  -7.6220699259466585e-09 -5.0487959265693363e-09 0.0000000000000000e+00  -9.0992009300990499e-09 -4.3468504461133557e-09 0.0000000000000000e+00  -1.0316966878065007e-08 -3.5579015600573536e-09 0.0000000000000000e+00  -1.1260723220574422e-08 -2.7195017529924505e-09 0.0000000000000000e+00  -1.1929214776958706e-08 -1.8579171023588445e-09 0.0000000000000000e+00  -1.2326916148672200e-08 -9.8812871054219954e-10 0.0000000000000000e+00  -1.2458967081239443e-08 -1.1627728603742117e-10 0.0000000000000000e+00  -1.2328127052711579e-08 7.5641907064414162e-10 0.0000000000000000e+00  -1.1933699900832077e-08 1.6291145111372172e-09 0.0000000000000000e+00  -1.1272396773079689e-08 2.4968360551075051e-09 0.0000000000000000e+00  -1.0341088827594353e-08 3.3466814319785981e-09 0.0000000000000000e+00  -9.1414379009222828e-09 4.1554462524622609e-09 0.0000000000000000e+00  -7.6869053068137390e-09 4.8895135189627473e-09 0.0000000000000000e+00  -6.0160917195285491e-09 5.5078209221334213e-09 0.0000000000000000e+00  -4.2348135305739996e-09 5.9697759823071117e-09 0.0000000000000000e+00  -2.7220804354124101e-09 6.2506676780319705e-09 0.0000000000000000e+00  -2.7887679379518636e-09 7.1729642542116705e-09 0.0000000000000000e+00  -2.6769594707317940e-09 -3.1743638710109949e-09 0.0000000000000000e+00  -2.6517059747561857e-09 -4.0944661347817650e-09 0.0000000000000000e+00  -4.2032189709771547e-09 -4.0267232395588570e-09 0.0000000000000000e+00  -6.0399496246091703e-09 -3.7900470430376676e-09 0.0000000000000000e+00  -7.7833935085314935e-09 -3.4282966443051001e-09 0.0000000000000000e+00  -9.3196353448690636e-09 -2.9729419377170037e-09 0.0000000000000000e+00  -1.0601422162702071e-08 -2.4530678734278