<?xml version="1.0"?>
<VTKFile type="UnstructuredGrid"  version="0.1"  >
<UnstructuredGrid>
<Piece  NumberOfPoints="651" NumberOfCells="1200">
<Points>
<DataArray  type="Float64"  NumberOfComponents="3"  format="ascii">0 0 0  50000 0 0  100000 0 0  150000 0 0  200000 0 0  250000 0 0  300000 0 0  350000 0 0  400000 0 0  450000 0 0  500000 0 0  550000 0 0  600000 0 0  650000 0 0  700000 0 0  750000 0 0  800000 0 0  850000 0 0  900000 0 0  950000 0 0  1000000 0 0  0 50000 0  50000 50000 0  100000 50000 0  150000 50000 0  200000 50000 0  250000 50000 0  300000 50000 0  350000 50000 0  400000 50000 0  450000 50000 0  500000 50000 0  550000 50000 0  600000 50000 0  650000 50000 0  700000 50000 0  750000 50000 0  800000 50000 0  850000 50000 0  900000 50000 0  950000 50000 0  1000000 50000 0  0 100000 0  50000 100000 0  100000 100000 0  150000 100000 0  200000 100000 0  250000 100000 0  300000 100000 0  350000 100000 0  400000 100000 0  450000 100000 0  500000 100000 0  550000 100000 0  600000 100000 0  650000 100000 0  700000 100000 0  750000 100000 0  800000 100000 0  850000 100000 0  900000 100000 0  950000 100000 0  1000000 100000 0  0 150000 0  50000 150000 0  100000 150000 0  150000 150000 0  200000 150000 0  250000 150000 0  300000 150000 0  350000 150000 0  400000 150000 0  450000 150000 0  500000 150000 0  550000 150000 0  600000 150000 0  650000 150000 0  700000 150000 0  750000 150000 0  800000 150000 0  850000 150000 0  900000 150000 0  950000 150000 0  1000000 150000 0  0 200000 0  50000 200000 0  100000 200000 0  150000 200000 0  200000 200000 0  250000 200000 0  300000 200000 0  350000 200000 0  400000 200000 0  450000 200000 0  500000 200000 0  550000 200000 0  600000 200000 0  650000 200000 0  700000 200000 0  750000 200000 0  800000 200000 0  850000 200000 0  900000 200000 0  950000 200000 0  1000000 200000 0  0 250000 0  50000 250000 0  100000 250000 0  150000 250000 0  200000 250000 0  250000 250000 0  300000 250000 0  350000 250000 0  400000 250000 0  450000 250000 0  500000 250000 0  550000 250000 0  600000 250000 0  650000 250000 0  700000 250000 0  750000 250000 0  800000 250000 0  850000 250000 0  900000 250000 0  950000 250000 0  1000000 250000 0  0 300000 0  50000 300000 0  100000 300000 0  150000 300000 0  200000 300000 0  250000 300000 0  300000 300000 0  350000 300000 0  400000 300000 0  450000 300000 0  500000 300000 0  550000 300000 0  600000 300000 0  650000 300000 0  700000 300000 0  750000 300000 0  800000 300000 0  850000 300000 0  900000 300000 0  950000 300000 0  1000000 300000 0  0 350000 0  50000 350000 0  100000 350000 0  150000 350000 0  200000 350000 0  250000 350000 0  300000 350000 0  350000 350000 0  400000 350000 0  450000 350000 0  500000 350000 0  550000 350000 0  600000 350000 0  650000 350000 0  700000 350000 0  750000 350000 0  800000 350000 0  850000 350000 0  900000 350000 0  950000 350000 0  1000000 350000 0  0 400000 0  50000 400000 0  100000 400000 0  150000 400000 0  200000 400000 0  250000 400000 0  300000 400000 0  350000 400000 0  400000 400000 0  450000 400000 0  500000 400000 0  550000 400000 0  600000 400000 0  650000 400000 0  700000 400000 0  750000 400000 0  800000 400000 0  850000 400000 0  900000 400000 0  950000 400000 0  1000000 400000 0  0 450000 0  50000 450000 0  100000 450000 0  150000 450000 0  200000 450000 0  250000 450000 0  300000 450000 0  350000 450000 0  400000 450000 0  450000 450000 0  500000 450000 0  550000 450000 0  600000 450000 0  650000 450000 0  700000 450000 0  750000 450000 0  800000 450000 0  850000 450000 0  900000 450000 0  950000 450000 0  1000000 450000 0  0 500000 0  50000 500000 0  100000 500000 0  150000 500000 0  200000 500000 0  250000 500000 0  300000 500000 0  350000 500000 0  400000 500000 0  450000 500000 0  500000 500000 0  550000 500000 0  600000 500000 0  650000 500000 0  700000 500000 0  750000 500000 0  800000 500000 0  850000 500000 0  900000 500000 0  950000 500000 0  1000000 500000 0  0 550000 0  50000 550000 0  100000 550000 0  150000 550000 0  200000 550000 0  250000 550000 0  300000 550000 0  350000 550000 0  400000 550000 0  450000 550000 0  500000 550000 0  550000 550000 0  600000 550000 0  650000 550000 0  700000 550000 0  750000 550000 0  800000 550000 0  850000 550000 0  900000 550000 0  950000 550000 0  1000000 550000 0  0 600000 0  50000 600000 0  100000 600000 0  150000 600000 0  200000 600000 0  250000 600000 0  300000 600000 0  350000 600000 0  400000 600000 0  450000 600000 0  500000 600000 0  550000 600000 0  600000 600000 0  650000 600000 0  700000 600000 0  750000 600000 0  800000 600000 0  850000 600000 0  900000 600000 0  950000 600000 0  1000000 600000 0  0 650000 0  50000 650000 0  100000 650000 0  150000 650000 0  200000 650000 0  250000 650000 0  300000 650000 0  350000 650000 0  400000 650000 0  450000 650000 0  500000 650000 0  550000 650000 0  600000 650000 0  650000 650000 0  700000 650000 0  750000 650000 0  800000 650000 0  850000 650000 0  900000 650000 0  950000 650000 0  1000000 650000 0  0 700000 0  50000 700000 0  100000 700000 0  150000 700000 0  200000 700000 0  250000 700000 0  300000 700000 0  350000 700000 0  400000 700000 0  450000 700000 0  500000 700000 0  550000 700000 0  600000 700000 0  650000 700000 0  700000 700000 0  750000 700000 0  800000 700000 0  850000 700000 0  900000 700000 0  950000 700000 0  1000000 700000 0  0 750000 0  50000 750000 0  100000 750000 0  150000 750000 0  200000 750000 0  250000 750000 0  300000 750000 0  350000 750000 0  400000 750000 0  450000 750000 0  500000 750000 0  550000 750000 0  600000 750000 0  650000 750000 0  700000 750000 0  750000 750000 0  800000 750000 0  850000 750000 0  900000 750000 0  950000 750000 0  1000000 750000 0  0 800000 0  50000 800000 0  100000 800000 0  150000 800000 0  200000 800000 0  250000 800000 0  300000 800000 0  350000 800000 0  400000 800000 0  450000 800000 0  500000 800000 0  550000 800000 0  600000 800000 0  650000 800000 0  700000 800000 0  750000 800000 0  800000 800000 0  850000 800000 0  900000 800000 0  950000 800000 0  1000000 800000 0  0 850000 0  50000 850000 0  100000 850000 0  150000 850000 0  200000 850000 0  250000 850000 0  300000 850000 0  350000 850000 0  400000 850000 0  450000 850000 0  500000 850000 0  550000 850000 0  600000 850000 0  650000 850000 0  700000 850000 0  750000 850000 0  800000 850000 0  850000 850000 0  900000 850000 0  950000 850000 0  1000000 850000 0  0 900000 0  50000 900000 0  100000 900000 0  150000 900000 0  200000 900000 0  250000 900000 0  300000 900000 0  350000 900000 0  400000 900000 0  450000 900000 0  500000 900000 0  550000 900000 0  600000 900000 0  650000 900000 0  700000 900000 0  750000 900000 0  800000 900000 0  850000 900000 0  900000 900000 0  950000 900000 0  1000000 900000 0  0 950000 0  50000 950000 0  100000 950000 0  150000 950000 0  200000 950000 0  250000 950000 0  300000 950000 0  350000 950000 0  400000 950000 0  450000 950000 0  500000 950000 0  550000 950000 0  600000 950000 0  650000 950000 0  700000 950000 0  750000 950000 0  800000 950000 0  850000 950000 0  900000 950000 0  950000 950000 0  1000000 950000 0  0 1000000 0  50000 1000000 0  100000 1000000 0  150000 1000000 0  200000 1000000 0  250000 1000000 0  300000 1000000 0  350000 1000000 0  400000 1000000 0  450000 1000000 0  500000 1000000 0  550000 1000000 0  600000 1000000 0  650000 1000000 0  700000 1000000 0  750000 1000000 0  800000 1000000 0  850000 1000000 0  900000 1000000 0  950000 1000000 0  1000000 1000000 0  0 1050000 0  50000 1050000 0  100000 1050000 0  150000 1050000 0  200000 1050000 0  250000 1050000 0  300000 1050000 0  350000 1050000 0  400000 1050000 0  450000 1050000 0  500000 1050000 0  550000 1050000 0  600000 1050000 0  650000 1050000 0  700000 1050000 0  750000 1050000 0  800000 1050000 0  850000 1050000 0  900000 1050000 0  950000 1050000 0  1000000 1050000 0  0 1100000 0  50000 1100000 0  100000 1100000 0  150000 1100000 0  200000 1100000 0  250000 1100000 0  300000 1100000 0  350000 1100000 0  400000 1100000 0  450000 1100000 0  500000 1100000 0  550000 1100000 0  600000 1100000 0  650000 1100000 0  700000 1100000 0  750000 1100000 0  800000 1100000 0  850000 1100000 0  900000 1100000 0  950000 1100000 0  1000000 1100000 0  0 1150000 0  50000 1150000 0  100000 1150000 0  150000 1150000 0  200000 1150000 0  250000 1150000 0  300000 1150000 0  350000 1150000 0  400000 1150000 0  450000 1150000 0  500000 1150000 0  550000 1150000 0  600000 1150000 0  650000 1150000 0  700000 1150000 0  750000 1150000 0  800000 1150000 0  850000 1150000 0  900000 1150000 0  950000 1150000 0  1000000 1150000 0  0 1200000 0  50000 1200000 0  100000 1200000 0  150000 1200000 0  200000 1200000 0  250000 1200000 0  300000 1200000 0  350000 1200000 0  400000 1200000 0  450000 1200000 0  500000 1200000 0  550000 1200000 0  600000 1200000 0  650000 1200000 0  700000 1200000 0  750000 1200000 0  800000 1200000 0  850000 1200000 0  900000 1200000 0  950000 1200000 0  1000000 1200000 0  0 1250000 0  50000 1250000 0  100000 1250000 0  150000 1250000 0  200000 1250000 0  250000 1250000 0  300000 1250000 0  350000 1250000 0  400000 1250000 0  450000 1250000 0  500000 1250000 0  550000 1250000 0  600000 1250000 0  650000 1250000 0  700000 1250000 0  750000 1250000 0  800000 1250000 0  850000 1250000 0  900000 1250000 0  950000 1250000 0  1000000 1250000 0  0 1300000 0  50000 1300000 0  100000 1300000 0  150000 1300000 0  200000 1300000 0  250000 1300000 0  300000 1300000 0  350000 1300000 0  400000 1300000 0  450000 1300000 0  500000 1300000 0  550000 1300000 0  600000 1300000 0  650000 1300000 0  700000 1300000 0  750000 1300000 0  800000 1300000 0  850000 1300000 0  900000 1300000 0  950000 1300000 0  1000000 1300000 0  0 1350000 0  50000 1350000 0  100000 1350000 0  150000 1350000 0  200000 1350000 0  250000 1350000 0  300000 1350000 0  350000 1350000 0  400000 1350000 0  450000 1350000 0  500000 1350000 0  550000 1350000 0  600000 1350000 0  650000 1350000 0  700000 135
[...]
<PointData  Vectors="f_1513"> 
<DataArray  type="Float64"  Name="f_1513"  NumberOfComponents="3" format="ascii">-2.4198337469350331e-08 -1.0849933492816792e-08 0.0000000000000000e+00  4.8836607322958561e-08 -6.9191046116329818e-09 0.0000000000000000e+00  4.3081297389888213e-08 -2.5940993269228994e-09 0.0000000000000000e+00  4.0604970782853237e-08 -1.2054727444892885e-09 0.0000000000000000e+00  3.9379868110715177e-08 -7.1001874144710788e-10 0.0000000000000000e+00  3.8573507639939973e-08 -4.8793516183733660e-10 0.0000000000000000e+00  3.7989445394448119e-08 -3.7107279992916796e-10 0.0000000000000000e+00  3.7571287879861537e-08 -3.0180039373258796e-10 0.0000000000000000e+00  3.7301640771005953e-08 -2.5564518203633408e-10 0.0000000000000000e+00  3.7176312499103776e-08 -2.1974256743727807e-10 0.0000000000000000e+00  3.7196502939224231e-08 -1.8544319221111944e-10 0.0000000000000000e+00  3.7366978454111899e-08 -1.4493222436684819e-10 0.0000000000000000e+00  3.7697614633232984e-08 -8.8642387915707800e-11 0.0000000000000000e+00  3.8209415146471900e-08 -1.6397269237141847e-12 0.0000000000000000e+00  3.8950588576969360e-08 1.4375483774915126e-10 0.0000000000000000e+00  4.0039106243093916e-08 4.0612519182859478e-10 0.0000000000000000e+00  4.1775108321830244e-08 9.2362184230113239e-10 0.0000000000000000e+00  4.4904346901642843e-08 2.0405747828000435e-09 0.0000000000000000e+00  5.0755473587073773e-08 4.5742668943118685e-09 0.0000000000000000e+00  5.7998824226136587e-08 9.0921422435296571e-09 0.0000000000000000e+00  -1.6455951207710699e-08 6.9851240778696993e-09 0.0000000000000000e+00  -1.7941123722352772e-08 -1.6388466262657675e-08 0.0000000000000000e+00  7.3585619127986315e-09 -1.1469517414177165e-08 0.0000000000000000e+00  1.8312494270279215e-08 -5.2995530862707061e-09 0.0000000000000000e+00  2.3356793800840047e-08 -2.4346599441031633e-09 0.0000000000000000e+00  2.5911546642331552e-08 -1.1763422009645807e-09 0.0000000000000000e+00  2.7345038477453417e-08 -5.8335436477163762e-10 0.0000000000000000e+00  2.8169536166524458e-08 -2.8624551856901230e-10 0.0000000000000000e+00  2.8644335724482933e-08 -1.3442219306564715e-10 0.0000000000000000e+00  2.8912923320377137e-08 -5.8841812549276645e-11 0.0000000000000000e+00  2.9055393147243718e-08 -2.2174189629141303e-11 0.0000000000000000e+00  2.9113498306908145e-08 1.6602469108499624e-13 0.0000000000000000e+00  2.9102146269548454e-08 2.8730325262865621e-11 0.0000000000000000e+00  2.9013360698594525e-08 8.5796199714129296e-11 0.0000000000000000e+00  2.8814736981251497e-08 2.0195834213156119e-10 0.0000000000000000e+00  2.8441391039279520e-08 4.2788723195646953e-10 0.0000000000000000e+00  2.7775360104775419e-08 8.6019273222944414e-10 0.0000000000000000e+00  2.6590397209941162e-08 1.7022469155827570e-09 0.0000000000000000e+00  2.4374478389257565e-08 3.3999590513899935e-09 0.0000000000000000e+00  1.9681728113975999e-08 6.8434423204962055e-09 0.0000000000000000e+00  8.2635946436634022e-09 1.2995408608549295e-08 0.0000000000000000e+00  -1.8423362830165274e-08 1.0918039393840610e-08 0.0000000000000000e+00  -1.0939316057647295e-08 -1.9951790240041406e-08 0.0000000000000000e+00  -2.0111594720522330e-10 -1.8626918591088928e-08 0.0000000000000000e+00  5.9626473511352362e-09 -1.1327810853847965e-08 0.0000000000000000e+00  1.0865423806333341e-08 -6.5185578090573374e-09 0.0000000000000000e+00  1.4669942148848072e-08 -3.7497678903897496e-09 0.0000000000000000e+00  1.7295311279605457e-08 -2.1799512422515586e-09 0.0000000000000000e+00  1.9042174981904513e-08 -1.2646975198375681e-09 0.0000000000000000e+00  2.0179593665226664e-08 -7.1152635837360155e-10 0.0000000000000000e+00  2.0887891352965478e-08 -3.6102218565459700e-10 0.0000000000000000e+00  2.1277822410677694e-08 -1.1869609849506289e-10 0.0000000000000000e+00  2.1409395236186942e-08 7.9871216798943867e-11 0.0000000000000000e+00  2.1303035699541969e-08 2.8799313532270767e-10 0.0000000000000000e+00  2.0943645836891771e-08 5.6101836512398098e-10 0.0000000000000000e+00  2.0278246863382033e-08 9.6992690344023716e-10 0.0000000000000000e+00  1.9206634157574221e-08 1.6213272473942553e-09 0.0000000000000000e+00  1.7563138598991492e-08 2.6915750381187114e-09 0.0000000000000000e+00  1.5088117193414438e-08 4.4814580603600792e-09 0.0000000000000000e+00  1.1399347820169654e-08 7.4646642137045396e-09 0.0000000000000000e+00  6.0300724397791413e-09 1.2107161293417134e-08 0.0000000000000000e+00  -1.2812049383777528e-09 1.7560102922093731e-08 0.0000000000000000e+00  -1.3251494902052777e-08 1.4665989785231711e-08 0.0000000000000000e+00  -7.2210185549857864e-09 -2.0534546507068815e-08 0.0000000000000000e+00  -1.5206983896776713e-09 -2.0104947952057720e-08 0.0000000000000000e+00  1.1840953433514401e-09 -1.5325927193120757e-08 0.0000000000000000e+00  3.9880982745255046e-09 -1.0387231510767177e-08 0.0000000000000000e+00  6.8949883097765216e-09 -6.7895536179645637e-09 0.0000000000000000e+00  9.4097166547533465e-09 -4.3750052424014828e-09 0.0000000000000000e+00  1.1341174959873583e-08 -2.7771941909800794e-09 0.0000000000000000e+00  1.2718195783406135e-08 -1.7012058879075257e-09 0.0000000000000000e+00  1.3627405303375953e-08 -9.4492337627737213e-10 0.0000000000000000e+00  1.4144545593241778e-08 -3.6959894275778245e-10 0.0000000000000000e+00  1.4317394471632561e-08 1.2794391981121238e-10 0.0000000000000000e+00  1.4163410044438261e-08 6.3573656601153138e-10 0.0000000000000000e+00  1.3670088285131082e-08 1.2427590288593669e-09 0.0000000000000000e+00  1.2795276543605554e-08 2.0544328477293876e-09 0.0000000000000000e+00  1.1468713098849204e-08 3.2101338222078311e-09 0.0000000000000000e+00  9.6010079490815726e-09 4.9011384001727755e-09 0.0000000000000000e+00  7.1169117742792384e-09 7.3712140805169947e-09 0.0000000000000000e+00  4.0469458609390135e-09 1.0829438312749634e-08 0.0000000000000000e+00  6.8315818497842623e-10 1.5084237349003582e-08 0.0000000000000000e+00  -2.6107305907771024e-09 1.8731027644399174e-08 0.0000000000000000e+00  -8.9406556689263348e-09 1.7511289102107248e-08 0.0000000000000000e+00  -5.3369476236773311e-09 -1.9902633248436456e-08 0.0000000000000000e+00  -1.8694854052520693e-09 -1.9863828185768109e-08 0.0000000000000000e+00  -9.0506181363963861e-10 -1.6774289248481054e-08 0.0000000000000000e+00  2.5543643766859290e-10 -1.2780753475524832e-08 0.0000000000000000e+00  1.9127327453917159e-09 -9.1934920579927688e-09 0.0000000000000000e+00  3.6927686448583998e-09 -6.3957712150946893e-09 0.0000000000000000e+00  5.2755578774563638e-09 -4.3199953778335582e-09 0.0000000000000000e+00  6.5203283163019037e-09 -2.7868161198572652e-09 0.0000000000000000e+00  7.3959255841307318e-09 -1.6222632855479199e-09 0.0000000000000000e+00  7.9132881166937144e-09 -6.8104083537039778e-10 0.0000000000000000e+00  8.0892982875412666e-09 1.5840676904975785e-10 0.0000000000000000e+00  7.9320712157893533e-09 1.0051900420110631e-09 0.0000000000000000e+00  7.4370064622004081e-09 1.9676083994876848e-09 0.0000000000000000e+00  6.5895221964915487e-09 3.1635095474034013e-09 0.0000000000000000e+00  5.3757380817409373e-09 4.7268861313462401e-09 0.0000000000000000e+00  3.8071649738893304e-09 6.8021809082242408e-09 0.0000000000000000e+00  1.9687583427036839e-09 9.5029833685634595e-09 0.0000000000000000e+00  8.7328688219323853e-11 1.2787473609539276e-08 0.0000000000000000e+00  -1.4733664850151333e-09 1.6205049697801899e-08 0.0000000000000000e+00  -2.7194097887053535e-09 1.8685338085602304e-08 0.0000000000000000e+00  -6.6408022744444994e-09 1.8502495641495183e-08 0.0000000000000000e+00  -4.2627303448599037e-09 -1.8731206051320152e-08 0.0000000000000000e+00  -2.0468673466163507e-09 -1.8936445435764770e-08 0.0000000000000000e+00  -2.0065603706465491e-09 -1.6820639786369582e-08 0.0000000000000000e+00  -1.9055880034636687e-09 -1.3767924002334168e-08 0.0000000000000000e+00  -1.2879194625011612e-09 -1.0611067387296775e-08 0.0000000000000000e+00  -3.3463732806832895e-10 -7.8297540840413639e-09 0.0000000000000000e+00  6.8609774395486983e-10 -5.5492271672393549e-09 0.0000000000000000e+00  1.5863169060293311e-09 -3.7216610361078288e-09 0.0000000000000000e+00  2.2678464496103412e-09 -2.2385193965111867e-09 0.0000000000000000e+00  2.6893018490720332e-09 -9.7991671312469760e-10 0.0000000000000000e+00  2.8370323769956605e-09 1.7015997920973560e-10 0.0000000000000000e+00  2.7086957475715551e-09 1.3226280527302438e-09 0.0000000000000000e+00  2.3076109152664705e-09 2.5863182468899296e-09 0.0000000000000000e+00  1.6459097906284112e-09 4.0698689685452427e-09 0.0000000000000000e+00  7.5663391918349890e-10 5.8770951345051303e-09 0.0000000000000000e+00  -2.8402938464694768e-10 8.0868345005790414e-09 0.0000000000000000e+00  -1.3274640243376915e-09 1.0702814860458322e-08 0.0000000000000000e+00  -2.1408176080129628e-09 1.3560715411555927e-08 0.0000000000000000e+00  -2.5055312527987864e-09 1.6218022519256856e-08 0.0000000000000000e+00  -2.6959165102517399e-09 1.7992115967412105e-08 0.0000000000000000e+00  -5.2848340437290336e-09 1.8264481502683745e-08 0.0000000000000000e+00  -3.5749712587661488e-09 -1.7261892853976157e-08 0.0000000000000000e+00  -2.1801264347554878e-09 -1.7634662586503434e-08 0.0000000000000000e+00  -2.6928807162212142e-09 -1.6113513185689066e-08 0.0000000000000000e+00  -3.2643667796281005e-09 -1.3776112226437375e-08 0.0000000000000000e+00  -3.4072041833261342e-09 -1.1134119321494074e-08 0.0000000000000000e+00  -3.1656415376819071e-09 -8.5840603289833866e-09 0.0000000000000000e+00  -2.7176289014632373e-09 -6.3157951644112351e-09 0.0000000000000000e+00  -2.2293042392327668e-09 -4.3672049612368031e-09 0.0000000000000000e+00  -1.8150689897580925e-09 -2.6936956340029351e-09 0.0000000000000000e+00  -1.5413413824526028e-09 -1.2140626560527395e-09 0.0000000000000000e+00  -1.4406579769525644e-09 1.6599223300958604e-10 0.0000000000000000e+00  -1.5228137758401531e-09 1.5434535130661381e-09 0.0000000000000000e+00  -1.7794894328756574e-09 3.0129009012764676e-09 0.0000000000000000e+00  -2.1821346317738375e-09 4.6609175916925967e-09 0.0000000000000000e+00  -2.6738029600480525e-09 6.5546221840932673e-09 0.0000000000000000e+00  -3.1573895755918571e-09 8.7184268994611757e-09 0.0000000000000000e+00  -3.4886619703192095e-09 1.1094402524002711e-08 0.0000000000000000e+00  -3.4980111363546830e-09 1.3491518891611728e-08 0.0000000000000000e+00  -3.1026658610527074e-09 1.5558417448436520e-08 0.0000000000000000e+00  -2.6801383289949909e-09 1.6880243904891784e-08 0.0000000000000000e+00  -4.3982626605970432e-09 1.7367419083185846e-08 0.0000000000000000e+00  -3.0978637629440339e-09 -1.5594499002197720e-08 0.0000000000000000e+00  -2.2890171425303216e-09 -1.6087338078393186e-08 0.0000000000000000e+00  -3.1690548235957317e-09 -1.4955806677188875e-08 0.0000000000000000e+00  -4.1805024819881899e-09 -1.3142710103977846e-08 0.0000000000000000e+00  -4.8590274150338971e-09 -1.0970763423699780e-08 0.0000000000000000e+00  -5.1713725068261873e-09 -8.7321667933710609e-09 0.0000000000000000e+00  -5.2178837357522732e-09 -6.6104328925626015e-09 0.0000000000000000e+00  -5.1210272860341626e-09 -4.6813903764561851e-09 0.0000000000000000e+00  -4.9819439401347229e-09 -2.9449070777429109e-09 0.0000000000000000e+00  -4.8694725786127173e-09 -1.3563819345372310e-09 0.0000000000000000e+00  -4.8222414570564844e-09 1.5096780580863901e-10 0.0000000000000000e+00  -4.8532940425478669e-09 1.6519414282316057e-09 0.0000000000000000e+00  -4.9526497077906829e-09 3.2193471529008289e-09 0.0000000000000000e+00  -5.0865811506642930e-09 4.9140303619477074e-09 0.0000000000000000e+00  -5.1945239224144886e-09 6.7712532126943351e-09 0.0000000000000000e+00  -5.1870081058086886e-09 8.7808441803143498e-09 0.0000000000000000e+00  -4.9523870977373397e-09 1.0861970611775826e-08 0.0000000000000000e+00  -4.3886407181213121e-09 1.2841879056502485e-08 0.0000000000000000e+00  -3.4988356364742397e-09 1.4463268213133866e-08 0.0000000000000000e+00  -2.6791829917261321e-09 1.5478499326077766e-08 0.0000000000000000e+00  -3.7733703586057396e-09 1.6084151957490370e-08 0.0000000000000000e+00  -2.7506123246853907e-09 -1.3782732965808858e-08 0.0000000000000000e+00  -2.3779403764088940e-09 -1.4363921845965466e-08 0.0000000000000000e+00  -3.5181710014326181e-09 -1.3504431588887017e-08 0.0000000000000000e+00  -4.8276893478404338e-09 -1.2082885020515900e-08 0.0000000000000000e+00  -5.8804223974999576e-09 -1.0311166968003301e-08 0.0000000000000000e+00  -6.6040496353098067e-09 -8.3970935767903054e-09 0.0000000000000000e+00  -7.0436316519298125e-09 -6.4933968509665529e-09 0.0000000000000000e+00  -7.2785932730321415e-09 -4.6835110650672979e-09 0.0000000000000000e+00  -7.3856109612856685e-09 -2.9916225196172210e-09 0.0000000000000000e+00  -7.4231682768283206e-09 -1.4007360832676932e-09 0.0000000000000000e+00  -7.4270225417202197e-09 1.3021870989266999e-10 0.0000000000000000e+00  -7.4100848994955824e-09 1.6525544879165446e-09 0.0000000000000000e+00  -7.3631471105991276e-09 3.2162919791641927e-09 0.0000000000000000e+00  -7.2552343339456846e-09 4.8589162628539777e-09 0.0000000000000000e+00  -7.0343144305762818e-09 6.5926535431466617e-09 0.0000000000000000e+00  -6.6310749626750381e-09 8.3898704002971839e-09 0.0000000000000000e+00  -5.9709824714085356e-09 1.0169218563778965e-08 0.0000000000000000e+00  -5.0044141166007367e-09 1.1790231956094399e-08 0.0000000000000000e+00  -3.7817177402036799e-09 1.3070999430150078e-08 0.0000000000000000e+00  -2.6853437161271414e-09 1.3867244901332220e-08 0.0000000000000000e+00  -3.3094784127040114e-09 1.4547455793153394e-08 0.0000000000000000e+00  -2.4920469118421908e-09 -1.1862649271270604e-08 0.0000000000000000e+00  -2.4494301872785792e-09 -1.2509848011642778e-08 0.0000000000000000e+00  -3.7798912486200756e-09 -1.1851790500045674e-08 0.0000000000000000e+00  -5.2962508139442903e-09 -1.0733257736807402e-08 0.0000000000000000e+00  -6.6101137419266568e-09 -9.2998492167567672e-09 0.0000000000000000e+00  -7.6311975238149011e-09 -7.6979225500597256e-09 0.0000000000000000e+00  -8.3681639788632840e-09 -6.0463690930148768e-09 0.0000000000000000e+00  -8.8655313737927883e-09 -4.4214867032165199e-09 0.0000000000000000e+00  -9.1746624609516779e-09 -2.8572776593514095e-09 0.0000000000000000e+00  -9.3389373651494448e-09 -1.3544660590846452e-09 0.0000000000000000e+00  -9.3867741462059259e-09 1.0781879092661488e-10 0.0000000000000000e+00  -9.3290042063628818e-09 1.5605486648634477e-09 0.0000000000000000e+00  -9.1584507387676952e-09 3.0340652446848271e-09 0.0000000000000000e+00  -8.8508617297582956e-09 4.5476713728864736e-09 0.0000000000000000e+00  -8.3676294525590447e-09 6.0991746649734059e-09 0.0000000000000000e+00  -7.6619341110091336e-09 7.6550372200238258e-09 0.0000000000000000e+00  -6.6912323769297770e-09 9.1437071005779924e-09 0.0000000000000000e+00  -5.4421045539132900e-09 1.0457207247797737e-08 0.0000000000000000e+00  -3.9892396936688387e-09 1.1469331415984858e-08 0.0000000000000000e+00  -2.6922587784238317e-09 1.2100591013367218e-08 0.0000000000000000e+00  -2.9531189094296037e-09 1.2831293924257391e-08 0.0000000000000000e+00  -2.2994333707636272e-09 -9.8616303293692169e-09 0.0000000000000000e+00  -2.5060501821527963e-09 -1.0558507895484781e-08 0.0000000000000000e+00  -3.9767045049448285e-09 -1.0058063101777687e-08 0.0000000000000000e+00  -5.6379000962996615e-09 -9.1840490205251539e-09 0.0000000000000000e+00  -7.1333007668707026e-09 -8.0414743969879853e-09 0.0000000000000000e+00  -8.3653084343924293e-09 -6.7331834063882575e-09 0.0000000000000000e+00  -9.3194849297519194e-09 -5.3483238503858599e-09 0.0000000000000000e+00  -1.0014483695391552e-08 -3.9505308596375701e-09 0.0000000000000000e+00  -1.0479981550615242e-08 -2.5748232970704764e-09 0.0000000000000000e+00  -1.0744301338825832e-08 -1.2314798892116660e-09 0.0000000000000000e+00  -1.0827352652270904e-08 8.6540576077913359e-11 0.0000000000000000e+00  -1.0737159011176844e-08 1.3949448469983696e-09 0.0000000000000000e+00  -1.0468912267501005e-08 2.7093016542526706e-09 0.0000000000000000e+00  -1.0006087248692070e-08 4.0364908700651441e-09 0.0000000000000000e+00  -9.3237986819380828e-09 5.3667927287860328e-09 0.0000000000000000e+00  -8.3951712591552922e-09 6.6675924974904735e-09 0.0000000000000000e+00  -7.2021875220859299e-09 7.8806666694709283e-09 0.0000000000000000e+00  -5.7552330385892841e-09 8.9260737899728988e-09 0.0000000000000000e+00  -4.1409642842764106e-09 9.7177299002028541e-09 0.0000000000000000e+00  -2.6963258048238798e-09 1.0217528964302756e-08 0.0000000000000000e+00  -2.6739744702358167e-09 1.0983051513898757e-08 0.0000000000000000e+00  -2.1595360894321160e-09 -7.8016352089481145e-09 0.0000000000000000e+00  -2.5505065359382942e-09 -8.5359440929737408e-09 0.0000000000000000e+00  -4.1233452910130118e-09 -8.1653094047282372e-09 0.0000000000000000e+00  -5.8852135754724824e-09 -7.4972765182470912e-09 0.0000000000000000e+00  -7.5052414843095560e-09 -6.6113494467942948e-09 0.0000000000000000e+00  -8.8835679491162112e-09 -5.5794775265269815e-09 0.0000000000000000e+00  -9.9913944507574550e-09 -4.4664934873545850e-09 0.0000000000000000e+00  -1.0829214685452794e-08 -3.3222340738708423e-09 0.0000000000000000e+00  -1.1409908437833942e-08 -2.1779244231388341e-09 0.0000000000000000e+00  -1.1749033109602035e-08 -1.0474732951113435e-09 0.0000000000000000e+00  -1.1858696585840041e-08 6.8054055207974010e-11 0.0000000000000000e+00  -1.1744157707543786e-08 1.1743680146230144e-09 0.0000000000000000e+00  -1.1402758445239028e-08 2.2773556389400430e-09 0.0000000000000000e+00  -1.0824989703246604e-08 3.3766452804285896e-09 0.0000000000000000e+00  -9.9977152482304942e-09 4.4599902695415515e-09 0.0000000000000000e+00  -8.9097928407012154e-09 5.4993969592553364e-09 0.0000000000000000e+00  -7.5608082068035166e-09 6.4503369654570937e-09 0.0000000000000000e+00  -5.9764255568956680e-09 7.2557772551969912e-09 0.0000000000000000e+00  -4.2489354650319221e-09 7.8585779332302082e-09 0.0000000000000000e+00  -2.6960513157884133e-09 8.2475909587242937e-09 0.0000000000000000e+00  -2.4541891440691699e-09 9.0364561155246850e-09 0.0000000000000000e+00  -2.0644339367538941e-09 -5.7006918212342568e-09 0.0000000000000000e+00  -2.5854533536114559e-09 -6.4630568004063777e-09 0.0000000000000000e+00  -4.2303630611932670e-09 -6.2043696182991443e-09 0.0000000000000000e+00  -6.0602023912190999e-09 -5.7170606518031176e-09 0.0000000000000000e+00  -7.7633003489622312e-09 -5.0640771186412542e-09 0.0000000000000000e+00  -9.2397474922401551e-09 -4.2949159013188429e-09 0.0000000000000000e+00  -1.0452019386894180e-08 -3.4548338418352014e-09 0.0000000000000000e+00  -1.1388428411570118e-08 -2.5804473644788711e-09 0.0000000000000000e+00  -1.2049772518958684e-08 -1.6967532816198935e-09 0.0000000000000000e+00  -1.2441860535260056e-08 -8.1729931117590227e-10 0.0000000000000000e+00  -1.2570537073624435e-08 5.3252211624942333e-11 0.0000000000000000e+00  -1.2438726102340250e-08 9.1514888790305000e-10 0.0000000000000000e+00  -1.2045437789224790e-08 1.7689942997524671e-09 0.0000000000000000e+00  -1.1386696447728216e-08 2.6112848151223497e-09 0.0000000000000000e+00  -1.0458334254375296e-08 3.4306691797672249e-09 0.0000000000000000e+00  -9.2606226460389520e-09 4.2056542368152543e-09 0.0000000000000000e+00  -7.8051428949830837e-09 4.9046075063612246e-09 0.0000000000000000e+00  -6.1271782777794735e-09 5.4890607453469882e-09 0.0000000000000000e+00  -4.3215715835682884e-09 5.9232089209105823e-09 0.0000000000000000e+00  -2.6912490700379837e-09 6.2138758804389218e-09 0.0000000000000000e+00  -2.2830607768865467e-09 7.0171199024015297e-09 0.0000000000000000e+00  -2.0093791888809998e-09 -3.5738730086429355e-09 0.0000000000000000e+00  -2.6132661158958864e-09 -4.3569323862049076e-09 0.0000000000000000e+00  -4.3054959913078873e-09 -4.1987083415579400e-09 0.0000000000000000e+00  -6.1781348054772276e-09 -3.8758332943646320e-09 0.0000000000000000e+00  -7.9330384888554300e-09 -3.4399390260736016e-09 0.0000000000000000e+00  -9.4710666359868075e-09 -2.9234799702344664e-09 0.0000000000000000e+00  -1.0749654576999235e-08 -2.35565650