<?xml version="1.0"?>
<VTKFile type="UnstructuredGrid"  version="0.1"  >
<UnstructuredGrid>
<Piece  NumberOfPoints="651" NumberOfCells="1200">
<Points>
<DataArray  type="Float64"  NumberOfComponents="3"  format="ascii">0 0 0  50000 0 0  100000 0 0  150000 0 0  200000 0 0  250000 0 0  300000 0 0  350000 0 0  400000 0 0  450000 0 0  500000 0 0  550000 0 0  600000 0 0  650000 0 0  700000 0 0  750000 0 0  800000 0 0  850000 0 0  900000 0 0  950000 0 0  1000000 0 0  0 50000 0  50000 50000 0  100000 50000 0  150000 50000 0  200000 50000 0  250000 50000 0  300000 50000 0  350000 50000 0  400000 50000 0  450000 50000 0  500000 50000 0  550000 50000 0  600000 50000 0  650000 50000 0  700000 50000 0  750000 50000 0  800000 50000 0  850000 50000 0  900000 50000 0  950000 50000 0  1000000 50000 0  0 100000 0  50000 100000 0  100000 100000 0  150000 100000 0  200000 100000 0  250000 100000 0  300000 100000 0  350000 100000 0  400000 100000 0  450000 100000 0  500000 100000 0  550000 100000 0  600000 100000 0  650000 100000 0  700000 100000 0  750000 100000 0  800000 100000 0  850000 100000 0  900000 100000 0  950000 100000 0  1000000 100000 0  0 150000 0  50000 150000 0  100000 150000 0  150000 150000 0  200000 150000 0  250000 150000 0  300000 150000 0  350000 150000 0  400000 150000 0  450000 150000 0  500000 150000 0  550000 150000 0  600000 150000 0  650000 150000 0  700000 150000 0  750000 150000 0  800000 150000 0  850000 150000 0  900000 150000 0  950000 150000 0  1000000 150000 0  0 200000 0  50000 200000 0  100000 200000 0  150000 200000 0  200000 200000 0  250000 200000 0  300000 200000 0  350000 200000 0  400000 200000 0  450000 200000 0  500000 200000 0  550000 200000 0  600000 200000 0  650000 200000 0  700000 200000 0  750000 200000 0  800000 200000 0  850000 200000 0  900000 200000 0  950000 200000 0  1000000 200000 0  0 250000 0  50000 250000 0  100000 250000 0  150000 250000 0  200000 250000 0  250000 250000 0  300000 250000 0  350000 250000 0  400000 250000 0  450000 250000 0  500000 250000 0  550000 250000 0  600000 250000 0  650000 250000 0  700000 250000 0  750000 250000 0  800000 250000 0  850000 250000 0  900000 250000 0  950000 250000 0  1000000 250000 0  0 300000 0  50000 300000 0  100000 300000 0  150000 300000 0  200000 300000 0  250000 300000 0  300000 300000 0  350000 300000 0  400000 300000 0  450000 300000 0  500000 300000 0  550000 300000 0  600000 300000 0  650000 300000 0  700000 300000 0  750000 300000 0  800000 300000 0  850000 300000 0  900000 300000 0  950000 300000 0  1000000 300000 0  0 350000 0  50000 350000 0  100000 350000 0  150000 350000 0  200000 350000 0  250000 350000 0  300000 350000 0  350000 350000 0  400000 350000 0  450000 350000 0  500000 350000 0  550000 350000 0  600000 350000 0  650000 350000 0  700000 350000 0  750000 350000 0  800000 350000 0  850000 350000 0  900000 350000 0  950000 350000 0  1000000 350000 0  0 400000 0  50000 400000 0  100000 400000 0  150000 400000 0  200000 400000 0  250000 400000 0  300000 400000 0  350000 400000 0  400000 400000 0  450000 400000 0  500000 400000 0  550000 400000 0  600000 400000 0  650000 400000 0  700000 400000 0  750000 400000 0  800000 400000 0  850000 400000 0  900000 400000 0  950000 400000 0  1000000 400000 0  0 450000 0  50000 450000 0  100000 450000 0  150000 450000 0  200000 450000 0  250000 450000 0  300000 450000 0  350000 450000 0  400000 450000 0  450000 450000 0  500000 450000 0  550000 450000 0  600000 450000 0  650000 450000 0  700000 450000 0  750000 450000 0  800000 450000 0  850000 450000 0  900000 450000 0  950000 450000 0  1000000 450000 0  0 500000 0  50000 500000 0  100000 500000 0  150000 500000 0  200000 500000 0  250000 500000 0  300000 500000 0  350000 500000 0  400000 500000 0  450000 500000 0  500000 500000 0  550000 500000 0  600000 500000 0  650000 500000 0  700000 500000 0  750000 500000 0  800000 500000 0  850000 500000 0  900000 500000 0  950000 500000 0  1000000 500000 0  0 550000 0  50000 550000 0  100000 550000 0  150000 550000 0  200000 550000 0  250000 550000 0  300000 550000 0  350000 550000 0  400000 550000 0  450000 550000 0  500000 550000 0  550000 550000 0  600000 550000 0  650000 550000 0  700000 550000 0  750000 550000 0  800000 550000 0  850000 550000 0  900000 550000 0  950000 550000 0  1000000 550000 0  0 600000 0  50000 600000 0  100000 600000 0  150000 600000 0  200000 600000 0  250000 600000 0  300000 600000 0  350000 600000 0  400000 600000 0  450000 600000 0  500000 600000 0  550000 600000 0  600000 600000 0  650000 600000 0  700000 600000 0  750000 600000 0  800000 600000 0  850000 600000 0  900000 600000 0  950000 600000 0  1000000 600000 0  0 650000 0  50000 650000 0  100000 650000 0  150000 650000 0  200000 650000 0  250000 650000 0  300000 650000 0  350000 650000 0  400000 650000 0  450000 650000 0  500000 650000 0  550000 650000 0  600000 650000 0  650000 650000 0  700000 650000 0  750000 650000 0  800000 650000 0  850000 650000 0  900000 650000 0  950000 650000 0  1000000 650000 0  0 700000 0  50000 700000 0  100000 700000 0  150000 700000 0  200000 700000 0  250000 700000 0  300000 700000 0  350000 700000 0  400000 700000 0  450000 700000 0  500000 700000 0  550000 700000 0  600000 700000 0  650000 700000 0  700000 700000 0  750000 700000 0  800000 700000 0  850000 700000 0  900000 700000 0  950000 700000 0  1000000 700000 0  0 750000 0  50000 750000 0  100000 750000 0  150000 750000 0  200000 750000 0  250000 750000 0  300000 750000 0  350000 750000 0  400000 750000 0  450000 750000 0  500000 750000 0  550000 750000 0  600000 750000 0  650000 750000 0  700000 750000 0  750000 750000 0  800000 750000 0  850000 750000 0  900000 750000 0  950000 750000 0  1000000 750000 0  0 800000 0  50000 800000 0  100000 800000 0  150000 800000 0  200000 800000 0  250000 800000 0  300000 800000 0  350000 800000 0  400000 800000 0  450000 800000 0  500000 800000 0  550000 800000 0  600000 800000 0  650000 800000 0  700000 800000 0  750000 800000 0  800000 800000 0  850000 800000 0  900000 800000 0  950000 800000 0  1000000 800000 0  0 850000 0  50000 850000 0  100000 850000 0  150000 850000 0  200000 850000 0  250000 850000 0  300000 850000 0  350000 850000 0  400000 850000 0  450000 850000 0  500000 850000 0  550000 850000 0  600000 850000 0  650000 850000 0  700000 850000 0  750000 850000 0  800000 850000 0  850000 850000 0  900000 850000 0  950000 850000 0  1000000 850000 0  0 900000 0  50000 900000 0  100000 900000 0  150000 900000 0  200000 900000 0  250000 900000 0  300000 900000 0  350000 900000 0  400000 900000 0  450000 900000 0  500000 900000 0  550000 900000 0  600000 900000 0  650000 900000 0  700000 900000 0  750000 900000 0  800000 900000 0  850000 900000 0  900000 900000 0  950000 900000 0  1000000 900000 0  0 950000 0  50000 950000 0  100000 950000 0  150000 950000 0  200000 950000 0  250000 950000 0  300000 950000 0  350000 950000 0  400000 950000 0  450000 950000 0  500000 950000 0  550000 950000 0  600000 950000 0  650000 950000 0  700000 950000 0  750000 950000 0  800000 950000 0  850000 950000 0  900000 950000 0  950000 950000 0  1000000 950000 0  0 1000000 0  50000 1000000 0  100000 1000000 0  150000 1000000 0  200000 1000000 0  250000 1000000 0  300000 1000000 0  350000 1000000 0  400000 1000000 0  450000 1000000 0  500000 1000000 0  550000 1000000 0  600000 1000000 0  650000 1000000 0  700000 1000000 0  750000 1000000 0  800000 1000000 0  850000 1000000 0  900000 1000000 0  950000 1000000 0  1000000 1000000 0  0 1050000 0  50000 1050000 0  100000 1050000 0  150000 1050000 0  200000 1050000 0  250000 1050000 0  300000 1050000 0  350000 1050000 0  400000 1050000 0  450000 1050000 0  500000 1050000 0  550000 1050000 0  600000 1050000 0  650000 1050000 0  700000 1050000 0  750000 1050000 0  800000 1050000 0  850000 1050000 0  900000 1050000 0  950000 1050000 0  1000000 1050000 0  0 1100000 0  50000 1100000 0  100000 1100000 0  150000 1100000 0  200000 1100000 0  250000 1100000 0  300000 1100000 0  350000 1100000 0  400000 1100000 0  450000 1100000 0  500000 1100000 0  550000 1100000 0  600000 1100000 0  650000 1100000 0  700000 1100000 0  750000 1100000 0  800000 1100000 0  850000 1100000 0  900000 1100000 0  950000 1100000 0  1000000 1100000 0  0 1150000 0  50000 1150000 0  100000 1150000 0  150000 1150000 0  200000 1150000 0  250000 1150000 0  300000 1150000 0  350000 1150000 0  400000 1150000 0  450000 1150000 0  500000 1150000 0  550000 1150000 0  600000 1150000 0  650000 1150000 0  700000 1150000 0  750000 1150000 0  800000 1150000 0  850000 1150000 0  900000 1150000 0  950000 1150000 0  1000000 1150000 0  0 1200000 0  50000 1200000 0  100000 1200000 0  150000 1200000 0  200000 1200000 0  250000 1200000 0  300000 1200000 0  350000 1200000 0  400000 1200000 0  450000 1200000 0  500000 1200000 0  550000 1200000 0  600000 1200000 0  650000 1200000 0  700000 1200000 0  750000 1200000 0  800000 1200000 0  850000 1200000 0  900000 1200000 0  950000 1200000 0  1000000 1200000 0  0 1250000 0  50000 1250000 0  100000 1250000 0  150000 1250000 0  200000 1250000 0  250000 1250000 0  300000 1250000 0  350000 1250000 0  400000 1250000 0  450000 1250000 0  500000 1250000 0  550000 1250000 0  600000 1250000 0  650000 1250000 0  700000 1250000 0  750000 1250000 0  800000 1250000 0  850000 1250000 0  900000 1250000 0  950000 1250000 0  1000000 1250000 0  0 1300000 0  50000 1300000 0  100000 1300000 0  150000 1300000 0  200000 1300000 0  250000 1300000 0  300000 1300000 0  350000 1300000 0  400000 1300000 0  450000 1300000 0  500000 1300000 0  550000 1300000 0  600000 1300000 0  650000 1300000 0  700000 1300000 0  750000 1300000 0  800000 1300000 0  850000 1300000 0  900000 1300000 0  950000 1300000 0  1000000 1300000 0  0 1350000 0  50000 1350000 0  100000 1350000 0  150000 1350000 0  200000 1350000 0  250000 1350000 0  300000 1350000 0  350000 1350000 0  400000 1350000 0  450000 1350000 0  500000 1350000 0  550000 1350000 0  600000 1350000 0  650000 1350000 0  700000 135
[...]
<PointData  Vectors="f_1513"> 
<DataArray  type="Float64"  Name="f_1513"  NumberOfComponents="3" format="ascii">-2.4168913445894239e-08 -1.1048074590950417e-08 0.0000000000000000e+00  4.8886548639823259e-08 -7.1085637989606179e-09 0.0000000000000000e+00  4.3172858693015689e-08 -2.7789525118964323e-09 0.0000000000000000e+00  4.0732934768490028e-08 -1.3971839945714888e-09 0.0000000000000000e+00  3.9537278114238653e-08 -9.1623282545748187e-10 0.0000000000000000e+00  3.8752674206238545e-08 -7.1306655298261801e-10 0.0000000000000000e+00  3.8181936687942561e-08 -6.1726693971462268e-10 0.0000000000000000e+00  3.7768149362902189e-08 -5.6903867270769943e-10 0.0000000000000000e+00  3.7493702552515623e-08 -5.4158512889622571e-10 0.0000000000000000e+00  3.7354677051104858e-08 -5.1954959384420657e-10 0.0000000000000000e+00  3.7353251128186936e-08 -4.9176075443251565e-10 0.0000000000000000e+00  3.7496060562795438e-08 -4.4813552952659958e-10 0.0000000000000000e+00  3.7795813593448766e-08 -3.7751134596474681e-10 0.0000000000000000e+00  3.8277165934347329e-08 -2.6453662591448783e-10 0.0000000000000000e+00  3.8992330440133336e-08 -8.2766509721492673e-11 0.0000000000000000e+00  4.0062784981903744e-08 2.2324356102805244e-10 0.0000000000000000e+00  4.1790516171702424e-08 7.8679382140058603e-10 0.0000000000000000e+00  4.4920277976636201e-08 1.9464417458136454e-09 0.0000000000000000e+00  5.0776286231357834e-08 4.5141055518093811e-09 0.0000000000000000e+00  5.8022519958007358e-08 9.0535118694738767e-09 0.0000000000000000e+00  -1.6429335281141695e-08 6.9491696492167404e-09 0.0000000000000000e+00  -1.7904748331544180e-08 -1.6608806335341592e-08 0.0000000000000000e+00  7.4327868697254247e-09 -1.1579446493266899e-08 0.0000000000000000e+00  1.8447096918994045e-08 -5.3689947059688897e-09 0.0000000000000000e+00  2.3504919304641221e-08 -2.5008547934379179e-09 0.0000000000000000e+00  2.6066535827516195e-08 -1.2376760813690000e-09 0.0000000000000000e+00  2.7504557804111374e-08 -6.3896581409811442e-10 0.0000000000000000e+00  2.8328036398846664e-08 -3.3534154852802370e-10 0.0000000000000000e+00  2.8795071692632255e-08 -1.7628056890647991e-10 0.0000000000000000e+00  2.9049131328848789e-08 -9.2924175066651112e-11 0.0000000000000000e+00  2.9171001563848876e-08 -4.8275770413062540e-11 0.0000000000000000e+00  2.9203831390793110e-08 -1.8308125323827231e-11 0.0000000000000000e+00  2.9164632803280859e-08 1.6726278359350442e-11 0.0000000000000000e+00  2.9048151921596856e-08 7.8123632956123698e-11 0.0000000000000000e+00  2.8825078578989414e-08 1.9550655390268946e-10 0.0000000000000000e+00  2.8433555128286348e-08 4.1890083232288901e-10 0.0000000000000000e+00  2.7757958511885998e-08 8.4501712493177493e-10 0.0000000000000000e+00  2.6572982501840383e-08 1.6784920871453361e-09 0.0000000000000000e+00  2.4365423871930090e-08 3.3679568881433154e-09 0.0000000000000000e+00  1.9685256549078946e-08 6.8076093259952666e-09 0.0000000000000000e+00  8.2794272223346075e-09 1.2966261560756890e-08 0.0000000000000000e+00  -1.8396769600050453e-08 1.0880978918643058e-08 0.0000000000000000e+00  -1.0888055918556511e-08 -2.0198452194173358e-08 0.0000000000000000e+00  -1.4434944428226992e-10 -1.8750131182562273e-08 0.0000000000000000e+00  6.0783260065893328e-09 -1.1386397433931808e-08 0.0000000000000000e+00  1.1005927457591515e-08 -6.5644180797594522e-09 0.0000000000000000e+00  1.4816519376638698e-08 -3.7843356541639135e-09 0.0000000000000000e+00  1.7439013878174523e-08 -2.2013154520607081e-09 0.0000000000000000e+00  1.9177983188173031e-08 -1.2711716455943084e-09 0.0000000000000000e+00  2.0303458943021759e-08 -7.0209892576801502e-10 0.0000000000000000e+00  2.0996441663652812e-08 -3.3563951563667441e-10 0.0000000000000000e+00  2.1368635265832963e-08 -7.8488069425417692e-11 0.0000000000000000e+00  2.1481277684601473e-08 1.3235941111751902e-10 0.0000000000000000e+00  2.1356217697446561e-08 3.4862969597274858e-10 0.0000000000000000e+00  2.0979827235275721e-08 6.2410614365385467e-10 0.0000000000000000e+00  2.0300446559756204e-08 1.0285652063998997e-09 0.0000000000000000e+00  1.9218822896374169e-08 1.6682371227950059e-09 0.0000000000000000e+00  1.7569691781798131e-08 2.7204269373652824e-09 0.0000000000000000e+00  1.5093182050687931e-08 4.4885937188171778e-09 0.0000000000000000e+00  1.1406280509357957e-08 7.4509272772950320e-09 0.0000000000000000e+00  6.0412483576966698e-09 1.2079207543924545e-08 0.0000000000000000e+00  -1.2562959066567736e-09 1.7535695594069990e-08 0.0000000000000000e+00  -1.3203798467192413e-08 1.4623339582437283e-08 0.0000000000000000e+00  -7.1594314301152167e-09 -2.0801258746810571e-08 0.0000000000000000e+00  -1.4815913271856559e-09 -2.0279942980961960e-08 0.0000000000000000e+00  1.2646614271791646e-09 -1.5413791506114082e-08 0.0000000000000000e+00  4.0973645521290328e-09 -1.0440422489537067e-08 0.0000000000000000e+00  7.0156888030102358e-09 -6.8203265859751725e-09 0.0000000000000000e+00  9.5293309429862455e-09 -4.3855778130207788e-09 0.0000000000000000e+00  1.1452233645078437e-08 -2.7677861964508774e-09 0.0000000000000000e+00  1.2816237123314762e-08 -1.6721294772622028e-09 0.0000000000000000e+00  1.3709862674915542e-08 -8.9734122870837353e-10 0.0000000000000000e+00  1.4210304790975560e-08 -3.0592404269310359e-10 0.0000000000000000e+00  1.4366609982363082e-08 2.0380931162362652e-10 0.0000000000000000e+00  1.4197345984470593e-08 7.1832224620688891e-10 0.0000000000000000e+00  1.3690889725415114e-08 1.3251924052945662e-09 0.0000000000000000e+00  1.2805655316810691e-08 2.1289515398763932e-09 0.0000000000000000e+00  1.1471591421024768e-08 3.2690138630171594e-09 0.0000000000000000e+00  9.5992141894607422e-09 4.9380228263224074e-09 0.0000000000000000e+00  7.1130530579359974e-09 7.3827109486555936e-09 0.0000000000000000e+00  4.0436069134645632e-09 1.0816796099534969e-08 0.0000000000000000e+00  6.8373766251690410e-10 1.5055128489948463e-08 0.0000000000000000e+00  -2.5880103033728163e-09 1.8711758883893566e-08 0.0000000000000000e+00  -8.8591676803991586e-09 1.7464155043523312e-08 0.0000000000000000e+00  -5.2684925590845428e-09 -2.0189204232042593e-08 0.0000000000000000e+00  -1.8371481092892526e-09 -2.0078466797650244e-08 0.0000000000000000e+00  -8.4599604832457054e-10 -1.6895098308629694e-08 0.0000000000000000e+00  3.3729692870595998e-10 -1.2849902572966798e-08 0.0000000000000000e+00  2.0065854065252006e-09 -9.2268364137681033e-09 0.0000000000000000e+00  3.7873985437464847e-09 -6.4001977557506651e-09 0.0000000000000000e+00  5.3629440591919810e-09 -4.2989470376767218e-09 0.0000000000000000e+00  6.5955175888208079e-09 -2.7428382194553329e-09 0.0000000000000000e+00  7.4562920305162474e-09 -1.5582119639785570e-09 0.0000000000000000e+00  7.9579464607852121e-09 -6.0069817811793628e-10 0.0000000000000000e+00  8.1186743008103725e-09 2.5002990924959594e-10 0.0000000000000000e+00  7.9475386700287082e-09 1.1017947929673318e-09 0.0000000000000000e+00  7.4405364162425315e-09 2.0618160941731100e-09 0.0000000000000000e+00  6.5833478841032547e-09 3.2473838815610672e-09 0.0000000000000000e+00  5.3620905403394149e-09 4.7927900139970395e-09 0.0000000000000000e+00  3.7881679224813987e-09 6.8439316889992205e-09 0.0000000000000000e+00  1.9465778990851501e-09 9.5172218303665990e-09 0.0000000000000000e+00  6.4717544968859683e-11 1.2775270363708464e-08 0.0000000000000000e+00  -1.4913421902180682e-09 1.6174438532410226e-08 0.0000000000000000e+00  -2.7041087919724038e-09 1.8668219947889183e-08 0.0000000000000000e+00  -6.5156968025004549e-09 1.8446585642228470e-08 0.0000000000000000e+00  -4.1879419394663402e-09 -1.9037677515873556e-08 0.0000000000000000e+00  -2.0172553890371428e-09 -1.9178032227521819e-08 0.0000000000000000e+00  -1.9601980575694670e-09 -1.6967750680659983e-08 0.0000000000000000e+00  -1.8432801229237321e-09 -1.3852712013102668e-08 0.0000000000000000e+00  -1.2162078694076352e-09 -1.0648829630230110e-08 0.0000000000000000e+00  -2.6216914561856499e-10 -7.8299615096849588e-09 0.0000000000000000e+00  7.5221622722204634e-10 -5.5181640331028528e-09 0.0000000000000000e+00  1.6412811422204839e-09 -3.6642577993111873e-09 0.0000000000000000e+00  2.3089637270137358e-09 -2.1594982865494201e-09 0.0000000000000000e+00  2.7155673097135446e-09 -8.8447658830266523e-10 0.0000000000000000e+00  2.8486905352493131e-09 2.7598870400785374e-10 0.0000000000000000e+00  2.7068324010848517e-09 1.4319000922986079e-09 0.0000000000000000e+00  2.2937871568812089e-09 2.6913535547579244e-09 0.0000000000000000e+00  1.6218669340413361e-09 4.1627036378101251e-09 0.0000000000000000e+00  7.2412416513887579e-10 5.9501954397471738e-09 0.0000000000000000e+00  -3.2321598226955957e-10 8.1340394109710681e-09 0.0000000000000000e+00  -1.3711961040721291e-09 1.0720480233685670e-08 0.0000000000000000e+00  -2.1858124242470074e-09 1.3549227344412112e-08 0.0000000000000000e+00  -2.5444748975176727e-09 1.6184629821124912e-08 0.0000000000000000e+00  -2.6892517700064890e-09 1.7969777849599225e-08 0.0000000000000000e+00  -5.1112977816101480e-09 1.8190562562350408e-08 0.0000000000000000e+00  -3.4929968685774600e-09 -1.7588389705155441e-08 0.0000000000000000e+00  -2.1511969372096210e-09 -1.7896572072698023e-08 0.0000000000000000e+00  -2.6542643067529632e-09 -1.6279512418379239e-08 0.0000000000000000e+00  -3.2155741658659416e-09 -1.3872842178208960e-08 0.0000000000000000e+00  -3.3525147797590537e-09 -1.1175429137025551e-08 0.0000000000000000e+00  -3.1115258134516515e-09 -8.5804882584326968e-09 0.0000000000000000e+00  -2.6698670550683626e-09 -6.2755955326655497e-09 0.0000000000000000e+00  -2.1921042116375788e-09 -4.2973106670399952e-09 0.0000000000000000e+00  -1.7909724819782429e-09 -2.6005375478910938e-09 0.0000000000000000e+00  -1.5314554723426316e-09 -1.1041615356744202e-09 0.0000000000000000e+00  -1.4449975067605338e-09 2.8567794799915051e-10 0.0000000000000000e+00  -1.5406575346268055e-09 1.6654171778242212e-09 0.0000000000000000e+00  -1.8096961624856243e-09 3.1292082653688678e-09 0.0000000000000000e+00  -2.2233710809950815e-09 4.7635505006895811e-09 0.0000000000000000e+00  -2.7246294482301335e-09 6.6360262260012355e-09 0.0000000000000000e+00  -3.2161410388876510e-09 8.7722348281805921e-09 0.0000000000000000e+00  -3.5530322915387455e-09 1.1116335530804689e-08 0.0000000000000000e+00  -3.5639768056235900e-09 1.3480662145652065e-08 0.0000000000000000e+00  -3.1604441279221160e-09 1.5519817413802393e-08 0.0000000000000000e+00  -2.6805234315672801e-09 1.6843539993797145e-08 0.0000000000000000e+00  -4.1771831559092869e-09 1.7264463018598147e-08 0.0000000000000000e+00  -3.0071102059994715e-09 -1.5940968219240694e-08 0.0000000000000000e+00  -2.2596450431170998e-09 -1.6365653924405398e-08 0.0000000000000000e+00  -3.1354626358618487e-09 -1.5135052259943807e-08 0.0000000000000000e+00  -4.1413662740401497e-09 -1.3247195296208008e-08 0.0000000000000000e+00  -4.8174163114865267e-09 -1.1013480501911169e-08 0.0000000000000000e+00  -5.1322229365915487e-09 -8.7241809370763947e-09 0.0000000000000000e+00  -5.1857356090108599e-09 -6.5612963237129919e-09 0.0000000000000000e+00  -5.0993304979578575e-09 -4.5995482575330327e-09 0.0000000000000000e+00  -4.9729044652280909e-09 -2.8381864632189825e-09 0.0000000000000000e+00  -4.8741656682907287e-09 -1.2324291125997857e-09 0.0000000000000000e+00  -4.8408488378485414e-09 2.8438849671550854e-10 0.0000000000000000e+00  -4.8853738964882168e-09 1.7868223861152823e-09 0.0000000000000000e+00  -4.9973749646541080e-09 3.3474933826444651e-09 0.0000000000000000e+00  -5.1428914133887192e-09 5.0272875609939036e-09 0.0000000000000000e+00  -5.2611368648690320e-09 6.8618861488272248e-09 0.0000000000000000e+00  -5.2622287148885615e-09 8.8420383141007888e-09 0.0000000000000000e+00  -5.0336012725643002e-09 1.0888455823136693e-08 0.0000000000000000e+00  -4.4710161855813347e-09 1.2830828075289540e-08 0.0000000000000000e+00  -3.5703540346458592e-09 1.4416298613804247e-08 0.0000000000000000e+00  -2.6835371503961570e-09 1.5418549170210661e-08 0.0000000000000000e+00  -3.5107599578318023e-09 1.5942308949212047e-08 0.0000000000000000e+00  -2.6489824289165778e-09 -1.4148707599450414e-08 0.0000000000000000e+00  -2.3476021057679692e-09 -1.4655775812977526e-08 0.0000000000000000e+00  -3.4883734714459708e-09 -1.3692744775110705e-08 0.0000000000000000e+00  -4.7960984204406896e-09 -1.2191394902492815e-08 0.0000000000000000e+00  -5.8493624375375113e-09 -1.0352842604195326e-08 0.0000000000000000e+00  -6.5773915713728257e-09 -8.3835094082071553e-09 0.0000000000000000e+00  -7.0248869366500597e-09 -6.4350464502469400e-09 0.0000000000000000e+00  -7.2704522323245443e-09 -4.5899580833555180e-09 0.0000000000000000e+00  -7.3898384461805788e-09 -2.8717700370516686e-09 0.0000000000000000e+00  -7.4406710110696292e-09 -1.2631299796284785e-09 0.0000000000000000e+00  -7.4580079301552983e-09 2.7714635836101176e-10 0.0000000000000000e+00  -7.4542474491142504e-09 1.8003528351121004e-09 0.0000000000000000e+00  -7.4198266266456628e-09 3.3564866857862619e-09 0.0000000000000000e+00  -7.3234945212152522e-09 4.9831263511792457e-09 0.0000000000000000e+00  -7.1128905560910201e-09 6.6928068165987682e-09 0.0000000000000000e+00  -6.7181287382225766e-09 8.4584850204323879e-09 0.0000000000000000e+00  -6.0635368304984968e-09 1.0199728582963150e-08 0.0000000000000000e+00  -5.0969240649399058e-09 1.1777439725613517e-08 0.0000000000000000e+00  -3.8605289463633230e-09 1.3012329103789099e-08 0.0000000000000000e+00  -2.6902232697037801e-09 1.3776909206568093e-08 0.0000000000000000e+00  -3.0150278591750268e-09 1.4359996946294409e-08 0.0000000000000000e+00  -2.3770969932964426e-09 -1.2247085592079332e-08 0.0000000000000000e+00  -2.4179884697900337e-09 -1.2812732150862321e-08 0.0000000000000000e+00  -3.7536614153520582e-09 -1.2045866250397679e-08 0.0000000000000000e+00  -5.2713896081620250e-09 -1.0842668132957091e-08 0.0000000000000000e+00  -6.5883139585047898e-09 -9.3381903419039111e-09 0.0000000000000000e+00  -7.6155167246422630e-09 -7.6774399249405107e-09 0.0000000000000000e+00  -8.3612621231996042e-09 -5.9783487626142630e-09 0.0000000000000000e+00  -8.8693898820324775e-09 -4.3163454551484802e-09 0.0000000000000000e+00  -9.1905584200469480e-09 -2.7247311515368556e-09 0.0000000000000000e+00  -9.3675062046047173e-09 -1.2037518921614126e-09 0.0000000000000000e+00  -9.4281189717453334e-09 2.6773474847041517e-10 0.0000000000000000e+00  -9.3828150551193813e-09 1.7208297217957420e-09 0.0000000000000000e+00  -9.2240934218610175e-09 3.1859430214170184e-09 0.0000000000000000e+00  -8.9273940736481344e-09 4.6824605277680476e-09 0.0000000000000000e+00  -8.4536998996224213e-09 6.2083377440626979e-09 0.0000000000000000e+00  -7.7555049536678515e-09 7.7302587164948997e-09 0.0000000000000000e+00  -6.7890000919685639e-09 9.1769302587878082e-09 0.0000000000000000e+00  -5.5380525095511120e-09 1.0440650813959586e-08 0.0000000000000000e+00  -4.0688871170739999e-09 1.1396008714010131e-08 0.0000000000000000e+00  -2.6946629457141638e-09 1.1975318027027968e-08 0.0000000000000000e+00  -2.6384090517513944e-09 1.2595415466484918e-08 0.0000000000000000e+00  -2.1685181622025135e-09 -1.0262778191615568e-08 0.0000000000000000e+00  -2.4736381456512882e-09 -1.0869856438431137e-08 0.0000000000000000e+00  -3.9544974730497848e-09 -1.0255055902407846e-08 0.0000000000000000e+00  -5.6198787193003532e-09 -9.2917494435678271e-09 0.0000000000000000e+00  -7.1204315312366160e-09 -8.0745280159884860e-09 0.0000000000000000e+00  -8.3599185528240523e-09 -6.7046694397069135e-09 0.0000000000000000e+00  -9.3234832338131404e-09 -5.2702631862192865e-09 0.0000000000000000e+00  -1.0029191609945249e-08 -3.8340202317366466e-09 0.0000000000000000e+00  -1.0506174116519099e-08 -2.4301905241365355e-09 0.0000000000000000e+00  -1.0782278778751692e-08 -1.0684814305668135e-09 0.0000000000000000e+00  -1.0877019207534992e-08 2.5852349570348424e-10 0.0000000000000000e+00  -1.0798092266468200e-08 1.5667451616404747e-09 0.0000000000000000e+00  -1.0540397970696809e-08 2.8718525025025180e-09 0.0000000000000000e+00  -1.0087088751712643e-08 4.1807494701911081e-09 0.0000000000000000e+00  -9.4128252095317364e-09 5.4836728729374674e-09 0.0000000000000000e+00  -8.4899965694204471e-09 6.7478569823196557e-09 0.0000000000000000e+00  -7.2993032447131343e-09 7.9147149315173120e-09 0.0000000000000000e+00  -5.8484856370989344e-09 8.9035936874897248e-09 0.0000000000000000e+00  -4.2159039812827129e-09 9.6276017138783973e-09 0.0000000000000000e+00  -2.6941250094210968e-09 1.0055599521862637e-08 0.0000000000000000e+00  -2.3508082872165680e-09 1.0699766714547781e-08 0.0000000000000000e+00  -2.0099640817061257e-09 -8.2169246211076119e-09 0.0000000000000000e+00  -2.5174778855949805e-09 -8.8528551041200345e-09 0.0000000000000000e+00  -4.1060973255213658e-09 -8.3625628906177782e-09 0.0000000000000000e+00  -5.8747888597035931e-09 -7.6010482657874759e-09 0.0000000000000000e+00  -7.5016704059291338e-09 -6.6375597644018587e-09 0.0000000000000000e+00  -8.8884192818857136e-09 -5.5421294245253683e-09 0.0000000000000000e+00  -1.0005859549252442e-08 -4.3782979896224338e-09 0.0000000000000000e+00  -1.0853987094011690e-08 -3.1948394737634712e-09 0.0000000000000000e+00  -1.1445264596428500e-08 -2.0221150591402963e-09 0.0000000000000000e+00  -1.1794909303495324e-08 -8.7338373826454235e-10 0.0000000000000000e+00  -1.1914745696192543e-08 2.5072888985942095e-10 0.0000000000000000e+00  -1.1809781821461536e-08 1.3561845105323925e-09 0.0000000000000000e+00  -1.1477104800936851e-08 2.4489577879943816e-09 0.0000000000000000e+00  -1.0906890182397000e-08 3.5286111787834818e-09 0.0000000000000000e+00  -1.0085544356591254e-08 4.5826559206368443e-09 0.0000000000000000e+00  -9.0012084512411267e-09 5.5826042765949401e-09 0.0000000000000000e+00  -7.6522782794702514e-09 6.4830325222483606e-09 0.0000000000000000e+00  -6.0620246417046907e-09 7.2254022070683793e-09 0.0000000000000000e+00  -4.3150190492309515e-09 7.7505216015577936e-09 0.0000000000000000e+00  -2.6880960710782824e-09 8.0498979801153704e-09 0.0000000000000000e+00  -2.1333159824793780e-09 8.7099182122376213e-09 0.0000000000000000e+00  -1.8936514686752315e-09 -6.1266350602700722e-09 0.0000000000000000e+00  -2.5523626939760540e-09 -6.7821164872587946e-09 0.0000000000000000e+00  -4.2193528022840859e-09 -6.3992526218952320e-09 0.0000000000000000e+00  -6.0585613055424185e-09 -5.8149889001058693e-09 0.0000000000000000e+00  -7.7698569033033823e-09 -5.0822984276660966e-09 0.0000000000000000e+00  -9.2552230701900626e-09 -4.2483488136751308e-09 0.0000000000000000e+00  -1.0476880861199502e-08 -3.3568029420885596e-09 0.0000000000000000e+00  -1.1422762154169204e-08 -2.4430315840507812e-09 0.0000000000000000e+00  -1.2093373988634550e-08 -1.5310600166967803e-09 0.0000000000000000e+00  -1.2494304640958702e-08 -6.3372174373316822e-10 0.0000000000000000e+00  -1.2631213801786025e-08 2.4479494574814913e-10 0.0000000000000000e+00  -1.2506845016894066e-08 1.1049912063426992e-09 0.0000000000000000e+00  -1.2119997958364755e-08 1.9475164484304839e-09 0.0000000000000000e+00  -1.1466411544149295e-08 2.7686979891623677e-09 0.0000000000000000e+00  -1.0541498350061885e-08 3.5567583141329465e-09 0.0000000000000000e+00  -9.3448945334088801e-09 4.2894252359238364e-09 0.0000000000000000e+00  -7.8871730785380483e-09 4.9337658757760517e-09 0.0000000000000000e+00  -6.2016072075390908e-09 5.4492495099415370e-09 0.0000000000000000e+00  -4.3761675537535862e-09 5.7971768667170413e-09 0.0000000000000000e+00  -2.6772668476691213e-09 5.9834180029652256e-09 0.0000000000000000e+00  -1.9733794399345965e-09 6.6536972813921981e-09 0.0000000000000000e+00  -1.8151968176824540e-09 -4.0059909474670597e-09 0.0000000000000000e+00  -2.5808575070603308e-09 -4.6741211584282689e-09 0.0000000000000000e+00  -4.3022249938190145e-09 -4.3885377825646982e-09 0.0000000000000000e+00  -6.1867045536034713e-09 -3.9662669423624293e-09 0.0000000000000000e+00  -7.9507951287256670e-09 -3.4494430206781957e-09 0.0000000000000000e+00  -9.4977745903509656e-09 -2.8677724612838200e-09 0.0000000000000000e+00  -1.0785036330555625e-08 -2.248544