<?xml version="1.0"?>
<VTKFile type="UnstructuredGrid"  version="0.1"  >
<UnstructuredGrid>
<Piece  NumberOfPoints="651" NumberOfCells="1200">
<Points>
<DataArray  type="Float64"  NumberOfComponents="3"  format="ascii">0 0 0  50000 0 0  100000 0 0  150000 0 0  200000 0 0  250000 0 0  300000 0 0  350000 0 0  400000 0 0  450000 0 0  500000 0 0  550000 0 0  600000 0 0  650000 0 0  700000 0 0  750000 0 0  800000 0 0  850000 0 0  900000 0 0  950000 0 0  1000000 0 0  0 50000 0  50000 50000 0  100000 50000 0  150000 50000 0  200000 50000 0  250000 50000 0  300000 50000 0  350000 50000 0  400000 50000 0  450000 50000 0  500000 50000 0  550000 50000 0  600000 50000 0  650000 50000 0  700000 50000 0  750000 50000 0  800000 50000 0  850000 50000 0  900000 50000 0  950000 50000 0  1000000 50000 0  0 100000 0  50000 100000 0  100000 100000 0  150000 100000 0  200000 100000 0  250000 100000 0  300000 100000 0  350000 100000 0  400000 100000 0  450000 100000 0  500000 100000 0  550000 100000 0  600000 100000 0  650000 100000 0  700000 100000 0  750000 100000 0  800000 100000 0  850000 100000 0  900000 100000 0  950000 100000 0  1000000 100000 0  0 150000 0  50000 150000 0  100000 150000 0  150000 150000 0  200000 150000 0  250000 150000 0  300000 150000 0  350000 150000 0  400000 150000 0  450000 150000 0  500000 150000 0  550000 150000 0  600000 150000 0  650000 150000 0  700000 150000 0  750000 150000 0  800000 150000 0  850000 150000 0  900000 150000 0  950000 150000 0  1000000 150000 0  0 200000 0  50000 200000 0  100000 200000 0  150000 200000 0  200000 200000 0  250000 200000 0  300000 200000 0  350000 200000 0  400000 200000 0  450000 200000 0  500000 200000 0  550000 200000 0  600000 200000 0  650000 200000 0  700000 200000 0  750000 200000 0  800000 200000 0  850000 200000 0  900000 200000 0  950000 200000 0  1000000 200000 0  0 250000 0  50000 250000 0  100000 250000 0  150000 250000 0  200000 250000 0  250000 250000 0  300000 250000 0  350000 250000 0  400000 250000 0  450000 250000 0  500000 250000 0  550000 250000 0  600000 250000 0  650000 250000 0  700000 250000 0  750000 250000 0  800000 250000 0  850000 250000 0  900000 250000 0  950000 250000 0  1000000 250000 0  0 300000 0  50000 300000 0  100000 300000 0  150000 300000 0  200000 300000 0  250000 300000 0  300000 300000 0  350000 300000 0  400000 300000 0  450000 300000 0  500000 300000 0  550000 300000 0  600000 300000 0  650000 300000 0  700000 300000 0  750000 300000 0  800000 300000 0  850000 300000 0  900000 300000 0  950000 300000 0  1000000 300000 0  0 350000 0  50000 350000 0  100000 350000 0  150000 350000 0  200000 350000 0  250000 350000 0  300000 350000 0  350000 350000 0  400000 350000 0  450000 350000 0  500000 350000 0  550000 350000 0  600000 350000 0  650000 350000 0  700000 350000 0  750000 350000 0  800000 350000 0  850000 350000 0  900000 350000 0  950000 350000 0  1000000 350000 0  0 400000 0  50000 400000 0  100000 400000 0  150000 400000 0  200000 400000 0  250000 400000 0  300000 400000 0  350000 400000 0  400000 400000 0  450000 400000 0  500000 400000 0  550000 400000 0  600000 400000 0  650000 400000 0  700000 400000 0  750000 400000 0  800000 400000 0  850000 400000 0  900000 400000 0  950000 400000 0  1000000 400000 0  0 450000 0  50000 450000 0  100000 450000 0  150000 450000 0  200000 450000 0  250000 450000 0  300000 450000 0  350000 450000 0  400000 450000 0  450000 450000 0  500000 450000 0  550000 450000 0  600000 450000 0  650000 450000 0  700000 450000 0  750000 450000 0  800000 450000 0  850000 450000 0  900000 450000 0  950000 450000 0  1000000 450000 0  0 500000 0  50000 500000 0  100000 500000 0  150000 500000 0  200000 500000 0  250000 500000 0  300000 500000 0  350000 500000 0  400000 500000 0  450000 500000 0  500000 500000 0  550000 500000 0  600000 500000 0  650000 500000 0  700000 500000 0  750000 500000 0  800000 500000 0  850000 500000 0  900000 500000 0  950000 500000 0  1000000 500000 0  0 550000 0  50000 550000 0  100000 550000 0  150000 550000 0  200000 550000 0  250000 550000 0  300000 550000 0  350000 550000 0  400000 550000 0  450000 550000 0  500000 550000 0  550000 550000 0  600000 550000 0  650000 550000 0  700000 550000 0  750000 550000 0  800000 550000 0  850000 550000 0  900000 550000 0  950000 550000 0  1000000 550000 0  0 600000 0  50000 600000 0  100000 600000 0  150000 600000 0  200000 600000 0  250000 600000 0  300000 600000 0  350000 600000 0  400000 600000 0  450000 600000 0  500000 600000 0  550000 600000 0  600000 600000 0  650000 600000 0  700000 600000 0  750000 600000 0  800000 600000 0  850000 600000 0  900000 600000 0  950000 600000 0  1000000 600000 0  0 650000 0  50000 650000 0  100000 650000 0  150000 650000 0  200000 650000 0  250000 650000 0  300000 650000 0  350000 650000 0  400000 650000 0  450000 650000 0  500000 650000 0  550000 650000 0  600000 650000 0  650000 650000 0  700000 650000 0  750000 650000 0  800000 650000 0  850000 650000 0  900000 650000 0  950000 650000 0  1000000 650000 0  0 700000 0  50000 700000 0  100000 700000 0  150000 700000 0  200000 700000 0  250000 700000 0  300000 700000 0  350000 700000 0  400000 700000 0  450000 700000 0  500000 700000 0  550000 700000 0  600000 700000 0  650000 700000 0  700000 700000 0  750000 700000 0  800000 700000 0  850000 700000 0  900000 700000 0  950000 700000 0  1000000 700000 0  0 750000 0  50000 750000 0  100000 750000 0  150000 750000 0  200000 750000 0  250000 750000 0  300000 750000 0  350000 750000 0  400000 750000 0  450000 750000 0  500000 750000 0  550000 750000 0  600000 750000 0  650000 750000 0  700000 750000 0  750000 750000 0  800000 750000 0  850000 750000 0  900000 750000 0  950000 750000 0  1000000 750000 0  0 800000 0  50000 800000 0  100000 800000 0  150000 800000 0  200000 800000 0  250000 800000 0  300000 800000 0  350000 800000 0  400000 800000 0  450000 800000 0  500000 800000 0  550000 800000 0  600000 800000 0  650000 800000 0  700000 800000 0  750000 800000 0  800000 800000 0  850000 800000 0  900000 800000 0  950000 800000 0  1000000 800000 0  0 850000 0  50000 850000 0  100000 850000 0  150000 850000 0  200000 850000 0  250000 850000 0  300000 850000 0  350000 850000 0  400000 850000 0  450000 850000 0  500000 850000 0  550000 850000 0  600000 850000 0  650000 850000 0  700000 850000 0  750000 850000 0  800000 850000 0  850000 850000 0  900000 850000 0  950000 850000 0  1000000 850000 0  0 900000 0  50000 900000 0  100000 900000 0  150000 900000 0  200000 900000 0  250000 900000 0  300000 900000 0  350000 900000 0  400000 900000 0  450000 900000 0  500000 900000 0  550000 900000 0  600000 900000 0  650000 900000 0  700000 900000 0  750000 900000 0  800000 900000 0  850000 900000 0  900000 900000 0  950000 900000 0  1000000 900000 0  0 950000 0  50000 950000 0  100000 950000 0  150000 950000 0  200000 950000 0  250000 950000 0  300000 950000 0  350000 950000 0  400000 950000 0  450000 950000 0  500000 950000 0  550000 950000 0  600000 950000 0  650000 950000 0  700000 950000 0  750000 950000 0  800000 950000 0  850000 950000 0  900000 950000 0  950000 950000 0  1000000 950000 0  0 1000000 0  50000 1000000 0  100000 1000000 0  150000 1000000 0  200000 1000000 0  250000 1000000 0  300000 1000000 0  350000 1000000 0  400000 1000000 0  450000 1000000 0  500000 1000000 0  550000 1000000 0  600000 1000000 0  650000 1000000 0  700000 1000000 0  750000 1000000 0  800000 1000000 0  850000 1000000 0  900000 1000000 0  950000 1000000 0  1000000 1000000 0  0 1050000 0  50000 1050000 0  100000 1050000 0  150000 1050000 0  200000 1050000 0  250000 1050000 0  300000 1050000 0  350000 1050000 0  400000 1050000 0  450000 1050000 0  500000 1050000 0  550000 1050000 0  600000 1050000 0  650000 1050000 0  700000 1050000 0  750000 1050000 0  800000 1050000 0  850000 1050000 0  900000 1050000 0  950000 1050000 0  1000000 1050000 0  0 1100000 0  50000 1100000 0  100000 1100000 0  150000 1100000 0  200000 1100000 0  250000 1100000 0  300000 1100000 0  350000 1100000 0  400000 1100000 0  450000 1100000 0  500000 1100000 0  550000 1100000 0  600000 1100000 0  650000 1100000 0  700000 1100000 0  750000 1100000 0  800000 1100000 0  850000 1100000 0  900000 1100000 0  950000 1100000 0  1000000 1100000 0  0 1150000 0  50000 1150000 0  100000 1150000 0  150000 1150000 0  200000 1150000 0  250000 1150000 0  300000 1150000 0  350000 1150000 0  400000 1150000 0  450000 1150000 0  500000 1150000 0  550000 1150000 0  600000 1150000 0  650000 1150000 0  700000 1150000 0  750000 1150000 0  800000 1150000 0  850000 1150000 0  900000 1150000 0  950000 1150000 0  1000000 1150000 0  0 1200000 0  50000 1200000 0  100000 1200000 0  150000 1200000 0  200000 1200000 0  250000 1200000 0  300000 1200000 0  350000 1200000 0  400000 1200000 0  450000 1200000 0  500000 1200000 0  550000 1200000 0  600000 1200000 0  650000 1200000 0  700000 1200000 0  750000 1200000 0  800000 1200000 0  850000 1200000 0  900000 1200000 0  950000 1200000 0  1000000 1200000 0  0 1250000 0  50000 1250000 0  100000 1250000 0  150000 1250000 0  200000 1250000 0  250000 1250000 0  300000 1250000 0  350000 1250000 0  400000 1250000 0  450000 1250000 0  500000 1250000 0  550000 1250000 0  600000 1250000 0  650000 1250000 0  700000 1250000 0  750000 1250000 0  800000 1250000 0  850000 1250000 0  900000 1250000 0  950000 1250000 0  1000000 1250000 0  0 1300000 0  50000 1300000 0  100000 1300000 0  150000 1300000 0  200000 1300000 0  250000 1300000 0  300000 1300000 0  350000 1300000 0  400000 1300000 0  450000 1300000 0  500000 1300000 0  550000 1300000 0  600000 1300000 0  650000 1300000 0  700000 1300000 0  750000 1300000 0  800000 1300000 0  850000 1300000 0  900000 1300000 0  950000 1300000 0  1000000 1300000 0  0 1350000 0  50000 1350000 0  100000 1350000 0  150000 1350000 0  200000 1350000 0  250000 1350000 0  300000 1350000 0  350000 1350000 0  400000 1350000 0  450000 1350000 0  500000 1350000 0  550000 1350000 0  600000 1350000 0  650000 1350000 0  700000 135
[...]
<PointData  Vectors="f_1513"> 
<DataArray  type="Float64"  Name="f_1513"  NumberOfComponents="3" format="ascii">-2.4353305498967764e-08 -1.0451023557046602e-08 0.0000000000000000e+00  4.8698319312222084e-08 -6.5295656591481156e-09 0.0000000000000000e+00  4.2966860092890641e-08 -2.2230011441827376e-09 0.0000000000000000e+00  4.0512775069630341e-08 -8.5323973576034442e-10 0.0000000000000000e+00  3.9309227982043039e-08 -3.7663755091933370e-10 0.0000000000000000e+00  3.8523448418478015e-08 -1.7431996501324546e-10 0.0000000000000000e+00  3.7958604835615534e-08 -7.8596661181369324e-11 0.0000000000000000e+00  3.7557837119487631e-08 -3.1954597894099945e-11 0.0000000000000000e+00  3.7303272979697412e-08 -9.7976997758504681e-12 0.0000000000000000e+00  3.7190303251986669e-08 1.0695059342189524e-12 0.0000000000000000e+00  3.7219835301282805e-08 9.8020835754799984e-12 0.0000000000000000e+00  3.7396525745064856e-08 2.4848728393987211e-11 0.0000000000000000e+00  3.7730366276737369e-08 5.6477088532563204e-11 0.0000000000000000e+00  3.8242721141239807e-08 1.2031704501784991e-10 0.0000000000000000e+00  3.8982390959428419e-08 2.4467038573583196e-10 0.0000000000000000e+00  4.0068125980354281e-08 4.8861887462691845e-10 0.0000000000000000e+00  4.1800967143498232e-08 9.9066575485110735e-10 0.0000000000000000e+00  4.4927621569810583e-08 2.0953678332757453e-09 0.0000000000000000e+00  5.0777648291398756e-08 4.6201588918056705e-09 0.0000000000000000e+00  5.8021802891395396e-08 9.1326360912897083e-09 0.0000000000000000e+00  -1.6432821933454728e-08 7.0257471026783512e-09 0.0000000000000000e+00  -1.8109107667199506e-08 -1.5998154383566742e-08 0.0000000000000000e+00  7.2655273261155472e-09 -1.1330636046600276e-08 0.0000000000000000e+00  1.8169828449576866e-08 -5.2595002061591082e-09 0.0000000000000000e+00  2.3230971974885902e-08 -2.4045567182426483e-09 0.0000000000000000e+00  2.5816281776549044e-08 -1.1500698568974463e-09 0.0000000000000000e+00  2.7277267370297479e-08 -5.5915322005700862e-10 0.0000000000000000e+00  2.8126069579075837e-08 -2.6337457567204377e-10 0.0000000000000000e+00  2.8622104308032994e-08 -1.1244252021535121e-10 0.0000000000000000e+00  2.8908618723781926e-08 -3.7360717853029025e-11 0.0000000000000000e+00  2.9065513925109566e-08 -8.2345078206074740e-13 0.0000000000000000e+00  2.9134445764507402e-08 2.1695718235079596e-11 0.0000000000000000e+00  2.9130338383689939e-08 5.0648213545086333e-11 0.0000000000000000e+00  2.9045368063593124e-08 1.0817812621884672e-10 0.0000000000000000e+00  2.8847426241463411e-08 2.2473293553191304e-10 0.0000000000000000e+00  2.8472054477542980e-08 4.5085235933551017e-10 0.0000000000000000e+00  2.7801810560164321e-08 8.8307055599313695e-10 0.0000000000000000e+00  2.6611023777358720e-08 1.7247806393484103e-09 0.0000000000000000e+00  2.4388379963512218e-08 3.4220116757428082e-09 0.0000000000000000e+00  1.9689476151299753e-08 6.8650406715824743e-09 0.0000000000000000e+00  8.2673205298454277e-09 1.3017106685746966e-08 0.0000000000000000e+00  -1.8400821827024470e-08 1.0957675296002690e-08 0.0000000000000000e+00  -1.1124866161728452e-08 -1.9581765764325389e-08 0.0000000000000000e+00  -2.5623886017382355e-10 -1.8490227846465248e-08 0.0000000000000000e+00  5.8604516898510838e-09 -1.1339909437995681e-08 0.0000000000000000e+00  1.0744483902726057e-08 -6.5609978183157170e-09 0.0000000000000000e+00  1.4555363175324667e-08 -3.7993914479175204e-09 0.0000000000000000e+00  1.7197626117080639e-08 -2.2295907826797725e-09 0.0000000000000000e+00  1.8963281894333761e-08 -1.3113878624635105e-09 0.0000000000000000e+00  2.0118498461610197e-08 -7.5374901084280537e-10 0.0000000000000000e+00  2.0842612352769339e-08 -3.9774674004938744e-10 0.0000000000000000e+00  2.1245978830924657e-08 -1.4912399350641405e-10 0.0000000000000000e+00  2.1388473507820198e-08 5.6318192015330186e-11 0.0000000000000000e+00  2.1290541071593638e-08 2.7162168399426671e-10 0.0000000000000000e+00  2.0937200164349272e-08 5.5181376509042211e-10 0.0000000000000000e+00  2.0275659720331757e-08 9.6753404290649582e-10 0.0000000000000000e+00  1.9205959852411709e-08 1.6250803175615755e-09 0.0000000000000000e+00  1.7562728872859845e-08 2.7005852938975187e-09 0.0000000000000000e+00  1.5086690845428149e-08 4.4947588731026995e-09 0.0000000000000000e+00  1.1396129468547163e-08 7.4813925485686048e-09 0.0000000000000000e+00  6.0252148679535904e-09 1.2126796206583547e-08 0.0000000000000000e+00  -1.2873514838608557e-09 1.7579175242088913e-08 0.0000000000000000e+00  -1.3234467052893018e-08 1.4703932056331276e-08 0.0000000000000000e+00  -7.4225920295048355e-09 -2.0185268937209353e-08 0.0000000000000000e+00  -1.5526569132612214e-09 -1.9926203766194976e-08 0.0000000000000000e+00  1.1308590218356378e-09 -1.5310654967353282e-08 0.0000000000000000e+00  3.9070602019264110e-09 -1.0431519914123475e-08 0.0000000000000000e+00  6.8020910172082845e-09 -6.8545560102289749e-09 0.0000000000000000e+00  9.3187325994178532e-09 -4.4451956520346167e-09 0.0000000000000000e+00  1.1259017709074533e-08 -2.8455515954342919e-09 0.0000000000000000e+00  1.2647437086809140e-08 -1.7641638807377950e-09 0.0000000000000000e+00  1.3568359483840112e-08 -1.0004489131955798e-09 0.0000000000000000e+00  1.4096422973277854e-08 -4.1643227286010235e-10 0.0000000000000000e+00  1.4278881771844066e-08 9.0557280288699478e-11 0.0000000000000000e+00  1.4132969659353174e-08 6.0811782324371905e-10 0.0000000000000000e+00  1.3646119936156206e-08 1.2248059933030382e-09 0.0000000000000000e+00  1.2776210176934388e-08 2.0456297354579899e-09 0.0000000000000000e+00  1.1453072742237788e-08 3.2095910860240079e-09 0.0000000000000000e+00  9.5874760182474352e-09 4.9076750469571216e-09 0.0000000000000000e+00  7.1044240716570441e-09 7.3834789682833636e-09 0.0000000000000000e+00  4.0348719758969752e-09 1.0846019954638760e-08 0.0000000000000000e+00  6.7188811006738679e-10 1.5103487482131120e-08 0.0000000000000000e+00  -2.6218343090976041e-09 1.8744895306602663e-08 0.0000000000000000e+00  -8.9325914210835617e-09 1.7545244677482429e-08 0.0000000000000000e+00  -5.5528724850294752e-09 -1.9574135215839692e-08 0.0000000000000000e+00  -1.8916412305471884e-09 -1.9663096069837026e-08 0.0000000000000000e+00  -9.2710405038368182e-10 -1.6725712165266426e-08 0.0000000000000000e+00  2.1104412646822759e-10 -1.2806293525081724e-08 0.0000000000000000e+00  1.8502755952865133e-09 -9.2538695508279982e-09 0.0000000000000000e+00  3.6224245418903227e-09 -6.4699754566135586e-09 0.0000000000000000e+00  5.2050968813152005e-09 -4.3967995158761629e-09 0.0000000000000000e+00  6.4543075624662114e-09 -2.8600287708287425e-09 0.0000000000000000e+00  7.3365725354786599e-09 -1.6883193580610335e-09 0.0000000000000000e+00  7.8613741914468749e-09 -7.3782749345202757e-10 0.0000000000000000e+00  8.0447396062237118e-09 1.1209724760214482e-10 0.0000000000000000e+00  7.8942976903240333e-09 9.6990331189877820e-10 0.0000000000000000e+00  7.4051798047033359e-09 1.9433350464285419e-09 0.0000000000000000e+00  6.5626682036843732e-09 3.1497429448125585e-09 0.0000000000000000e+00  5.3528407662016720e-09 4.7226744265390493e-09 0.0000000000000000e+00  3.7872603972633686e-09 6.8061895456105767e-09 0.0000000000000000e+00  1.9510654736553577e-09 9.5135569238886694e-09 0.0000000000000000e+00  7.1474069476886015e-11 1.2802600055359202e-08 0.0000000000000000e+00  -1.4868339789923367e-09 1.6221803314422403e-08 0.0000000000000000e+00  -2.7334346013116061e-09 1.8691982531474569e-08 0.0000000000000000e+00  -6.6449752576256346e-09 1.8530994794914306e-08 0.0000000000000000e+00  -4.4915844306164357e-09 -1.8423684104190338e-08 0.0000000000000000e+00  -2.0646031956668763e-09 -1.8730338784595401e-08 0.0000000000000000e+00  -2.0087882415786503e-09 -1.6748096202940901e-08 0.0000000000000000e+00  -1.9220646747082035e-09 -1.3772252431664755e-08 0.0000000000000000e+00  -1.3218369589022295e-09 -1.0658856194563847e-08 0.0000000000000000e+00  -3.8057396458149091e-10 -7.8991870699843471e-09 0.0000000000000000e+00  6.3429556665591246e-10 -5.6267176885277600e-09 0.0000000000000000e+00  1.5334035560583599e-09 -3.7988605698768325e-09 0.0000000000000000e+00  2.2169522621297804e-09 -2.3102935395365497e-09 0.0000000000000000e+00  2.6422518113893227e-09 -1.0431119153964421e-09 0.0000000000000000e+00  2.7947241451177374e-09 1.1741258370260303e-10 0.0000000000000000e+00  2.6714001015922765e-09 1.2812864905733204e-09 0.0000000000000000e+00  2.2751824802087811e-09 2.5566264578908098e-09 0.0000000000000000e+00  1.6179330418879356e-09 4.0514637418699420e-09 0.0000000000000000e+00  7.3253743280302337e-10 5.8690703574057211e-09 0.0000000000000000e+00  -3.0485747625590987e-10 8.0877801781585760e-09 0.0000000000000000e+00  -1.3455268566037690e-09 1.0710813662506880e-08 0.0000000000000000e+00  -2.1563013385832938e-09 1.3573178857673263e-08 0.0000000000000000e+00  -2.5180536144254541e-09 1.6230900543894701e-08 0.0000000000000000e+00  -2.7115211029261792e-09 1.7990700978837169e-08 0.0000000000000000e+00  -5.3043826153284503e-09 1.8287015594262452e-08 0.0000000000000000e+00  -3.8152592458286569e-09 -1.6975670773331426e-08 0.0000000000000000e+00  -2.1958437683134248e-09 -1.7432593792407588e-08 0.0000000000000000e+00  -2.6818168733101837e-09 -1.6026982116977926e-08 0.0000000000000000e+00  -3.2601623152087768e-09 -1.3762963642904772e-08 0.0000000000000000e+00  -3.4171445142599782e-09 -1.1167723947803700e-08 0.0000000000000000e+00  -3.1881010454159707e-09 -8.6445030469205937e-09 0.0000000000000000e+00  -2.7487030678173384e-09 -6.3890609767150599e-09 0.0000000000000000e+00  -2.2650736804757366e-09 -4.4437991576446358e-09 0.0000000000000000e+00  -1.8523650856611841e-09 -2.7673242971536091e-09 0.0000000000000000e+00  -1.5778779508419459e-09 -1.2806288688202842e-09 0.0000000000000000e+00  -1.4749282523495551e-09 1.0906118893534272e-10 0.0000000000000000e+00  -1.5539319624976624e-09 1.4976234460941575e-09 0.0000000000000000e+00  -1.8070437913738299e-09 2.9787765218778825e-09 0.0000000000000000e+00  -2.2060647228787458e-09 4.6383809566904475e-09 0.0000000000000000e+00  -2.6942902326192432e-09 6.5429029735650984e-09 0.0000000000000000e+00  -3.1747420216403017e-09 8.7161189754849706e-09 0.0000000000000000e+00  -3.5031750319496054e-09 1.1099407270021714e-08 0.0000000000000000e+00  -3.5098245008726921e-09 1.3500793633591990e-08 0.0000000000000000e+00  -3.1118596363450347e-09 1.5567042925627692e-08 0.0000000000000000e+00  -2.6963743662533670e-09 1.6871186085269350e-08 0.0000000000000000e+00  -4.4360985342931099e-09 1.7384428685978847e-08 0.0000000000000000e+00  -3.3478826025592044e-09 -1.5330003955323208e-08 0.0000000000000000e+00  -2.3037901424732901e-09 -1.5895195840799354e-08 0.0000000000000000e+00  -3.1485494167778690e-09 -1.4862929331029207e-08 0.0000000000000000e+00  -4.1608107374691154e-09 -1.3117149727876859e-08 0.0000000000000000e+00  -4.8495501047878563e-09 -1.0991659071327457e-08 0.0000000000000000e+00  -5.1730476257171359e-09 -8.7824346465179957e-09 0.0000000000000000e+00  -5.2288287693482625e-09 -6.6768887413986039e-09 0.0000000000000000e+00  -5.1384997088276342e-09 -4.7543413238517740e-09 0.0000000000000000e+00  -5.0032370230015880e-09 -3.0174647476073957e-09 0.0000000000000000e+00  -4.8922942878442289e-09 -1.4237843802876033e-09 0.0000000000000000e+00  -4.8448251523487481e-09 9.1895751788931843e-11 0.0000000000000000e+00  -4.8743860233529408e-09 1.6031687022147605e-09 0.0000000000000000e+00  -4.9714501996656535e-09 3.1818824050844266e-09 0.0000000000000000e+00  -5.1026708777666999e-09 4.8880657322102293e-09 0.0000000000000000e+00  -5.2077831378592747e-09 6.7562299860712454e-09 0.0000000000000000e+00  -5.1975235509806019e-09 8.7754485220465089e-09 0.0000000000000000e+00  -4.9603463685399612e-09 1.0864038795968323e-08 0.0000000000000000e+00  -4.3942803674275271e-09 1.2848091096841362e-08 0.0000000000000000e+00  -3.5029275665493927e-09 1.4468123820000737e-08 0.0000000000000000e+00  -2.6953514811503330e-09 1.5463265983820803e-08 0.0000000000000000e+00  -3.8320408824811830e-09 1.6096984336396938e-08 0.0000000000000000e+00  -3.0083990101355803e-09 -1.3540449851923689e-08 0.0000000000000000e+00  -2.3921964904789789e-09 -1.4185727385310863e-08 0.0000000000000000e+00  -3.4906041299136605e-09 -1.3410807369148777e-08 0.0000000000000000e+00  -4.7962026424147799e-09 -1.2049630859129908e-08 0.0000000000000000e+00  -5.8554318853937156e-09 -1.0321974976030455e-08 0.0000000000000000e+00  -6.5880885799790471e-09 -8.4377578174605483e-09 0.0000000000000000e+00  -7.0363592779653995e-09 -6.5521694935071715e-09 0.0000000000000000e+00  -7.2783962953224472e-09 -4.7511605011012559e-09 0.0000000000000000e+00  -7.3904338977989854e-09 -3.0611750188611958e-09 0.0000000000000000e+00  -7.4309790267605117e-09 -1.4670907993859691e-09 0.0000000000000000e+00  -7.4360496759218143e-09 7.0661946425012614e-11 0.0000000000000000e+00  -7.4189182352423200e-09 1.6021928338744801e-09 0.0000000000000000e+00  -7.3707632646792498e-09 3.1765282859953329e-09 0.0000000000000000e+00  -7.2609824117690205e-09 4.8302842519670311e-09 0.0000000000000000e+00  -7.0378779086667864e-09 6.5748677263888145e-09 0.0000000000000000e+00  -6.6324162553194486e-09 8.3818014891212496e-09 0.0000000000000000e+00  -5.9702849833569868e-09 1.0168772206424722e-08 0.0000000000000000e+00  -5.0021340357590009e-09 1.1794010095854327e-08 0.0000000000000000e+00  -3.7794891721591477e-09 1.3073218606383307e-08 0.0000000000000000e+00  -2.7009504478970046e-09 1.3848125158980128e-08 0.0000000000000000e+00  -3.3910033935130212e-09 1.4558268476457626e-08 0.0000000000000000e+00  -2.7553521659594253e-09 -1.1643055392543762e-08 0.0000000000000000e+00  -2.4632933628237714e-09 -1.2348433972505400e-08 0.0000000000000000e+00  -3.7468714210040786e-09 -1.1761529038498693e-08 0.0000000000000000e+00  -5.2557079189427359e-09 -1.0696244600116681e-08 0.0000000000000000e+00  -6.5728707381120006e-09 -9.3033792127561896e-09 0.0000000000000000e+00  -7.6007152932653187e-09 -7.7303984949153175e-09 0.0000000000000000e+00  -8.3451716091388400e-09 -6.0976769742580920e-09 0.0000000000000000e+00  -8.8493370334149157e-09 -4.4832327736342889e-09 0.0000000000000000e+00  -9.1638575073412075e-09 -2.9227743310358773e-09 0.0000000000000000e+00  -9.3318578815351597e-09 -1.4185618453634294e-09 0.0000000000000000e+00  -9.3817940585368850e-09 4.8958427312624875e-11 0.0000000000000000e+00  -9.3247080404652094e-09 1.5096428884889780e-09 0.0000000000000000e+00  -9.1537265047319108e-09 2.9928699535622324e-09 0.0000000000000000e+00  -8.8449430109552768e-09 4.5170701481475497e-09 0.0000000000000000e+00  -8.3601047838203294e-09 6.0792046575373956e-09 0.0000000000000000e+00  -7.6527363015957086e-09 7.6448441054046260e-09 0.0000000000000000e+00  -6.6806345990434274e-09 9.1414051456560543e-09 0.0000000000000000e+00  -5.4308806038885595e-09 1.0459524465631878e-08 0.0000000000000000e+00  -3.9800066167938670e-09 1.1470501386890702e-08 0.0000000000000000e+00  -2.7070066831144763e-09 1.2080476753355171e-08 0.0000000000000000e+00  -3.0588376219224967e-09 1.2842893042169129e-08 0.0000000000000000e+00  -2.5657143061801484e-09 -9.6651196731358878e-09 0.0000000000000000e+00  -2.5195138966532394e-09 -1.0415853885202910e-08 0.0000000000000000e+00  -3.9394679431468847e-09 -9.9741573488982056e-09 0.0000000000000000e+00  -5.5904904310518870e-09 -9.1463943797147633e-09 0.0000000000000000e+00  -7.0865992665796348e-09 -8.0402967023188766e-09 0.0000000000000000e+00  -8.3232617638272051e-09 -6.7591701407317233e-09 0.0000000000000000e+00  -9.2835074934823585e-09 -5.3929864482792374e-09 0.0000000000000000e+00  -9.9845616635477889e-09 -4.0064873937194404e-09 0.0000000000000000e+00  -1.0455252903687018e-08 -2.6359053666492974e-09 0.0000000000000000e+00  -1.0723474542736526e-08 -1.2927013646322281e-09 0.0000000000000000e+00  -1.0809011032099163e-08 2.9083496655430058e-11 0.0000000000000000e+00  -1.0719971742434730e-08 1.3441869294419691e-09 0.0000000000000000e+00  -1.0451774402839933e-08 2.6673002670184608e-09 0.0000000000000000e+00  -9.9882090969711495e-09 4.0044763633869590e-09 0.0000000000000000e+00  -9.3047604849551490e-09 5.3451662781945373e-09 0.0000000000000000e+00  -8.3749580897604176e-09 6.6558610015660619e-09 0.0000000000000000e+00  -7.1812401907307807e-09 7.8772897447521500e-09 0.0000000000000000e+00  -5.7347164219114812e-09 8.9281057570781634e-09 0.0000000000000000e+00  -4.1245531681305016e-09 9.7197179215660839e-09 0.0000000000000000e+00  -2.7101052195519312e-09 1.0199695339192407e-08 0.0000000000000000e+00  -2.8044349496340072e-09 1.0998678096561312e-08 0.0000000000000000e+00  -2.4259685949284841e-09 -7.6284362324055439e-09 0.0000000000000000e+00  -2.5635249625306929e-09 -8.4133407528965310e-09 0.0000000000000000e+00  -4.0829810155836880e-09 -8.0898699193420435e-09 0.0000000000000000e+00  -5.8328442129433086e-09 -7.4613475208483972e-09 0.0000000000000000e+00  -7.4515865475949054e-09 -6.6076266751874656e-09 0.0000000000000000e+00  -8.8327670638255462e-09 -5.6006444328792886e-09 0.0000000000000000e+00  -9.9452551808329259e-09 -4.5055924145493806e-09 0.0000000000000000e+00  -1.0788176522398627e-08 -3.3729449076982118e-09 0.0000000000000000e+00  -1.1373521832338497e-08 -2.2347224353395462e-09 0.0000000000000000e+00  -1.1716325659100745e-08 -1.1056794896455027e-09 0.0000000000000000e+00  -1.1828465607491263e-08 1.2289102309968301e-11 0.0000000000000000e+00  -1.1715196342168485e-08 1.1241063933895330e-09 0.0000000000000000e+00  -1.1374025524981092e-08 2.2349093367280218e-09 0.0000000000000000e+00  -1.0795735793119328e-08 3.3435870463965452e-09 0.0000000000000000e+00  -9.9675770585157817e-09 4.4371235737535170e-09 0.0000000000000000e+00  -8.8788707522681481e-09 5.4866724204068695e-09 0.0000000000000000e+00  -7.5297692167825627e-09 6.4466908224662342e-09 0.0000000000000000e+00  -5.9468748505568415e-09 7.2587813306652269e-09 0.0000000000000000e+00  -4.2256353616982526e-09 7.8633770329471084e-09 0.0000000000000000e+00  -2.7089146260390316e-09 8.2354773986015442e-09 0.0000000000000000e+00  -2.6091000498576650e-09 9.0595479735514752e-09 0.0000000000000000e+00  -2.3279467775528310e-09 -5.5507815068069911e-09 0.0000000000000000e+00  -2.5979938185929593e-09 -6.3611742755862431e-09 0.0000000000000000e+00  -4.1879395994563974e-09 -6.1387707884828477e-09 0.0000000000000000e+00  -6.0046629663850450e-09 -5.6845549232228522e-09 0.0000000000000000e+00  -7.7050414735206153e-09 -5.0595142252404661e-09 0.0000000000000000e+00  -9.1829017148021608e-09 -4.3127403883348867e-09 0.0000000000000000e+00  -1.0398570964328749e-08 -3.4894975490279615e-09 0.0000000000000000e+00  -1.1339082037280259e-08 -2.6266734429631955e-09 0.0000000000000000e+00  -1.2004356191009080e-08 -1.7497102320669107e-09 0.0000000000000000e+00  -1.2399642671760622e-08 -8.7269538514269901e-10 0.0000000000000000e+00  -1.2530497876049953e-08 -8.6912268835267364e-13 0.0000000000000000e+00  -1.2399785117370519e-08 8.6542866614882961e-10 0.0000000000000000e+00  -1.2006641052140576e-08 1.7262078595245640e-09 0.0000000000000000e+00  -1.1347369816745080e-08 2.5773482968121947e-09 0.0000000000000000e+00  -1.0418211287148699e-08 3.4068276172337993e-09 0.0000000000000000e+00  -9.2199602580887152e-09 4.1923822497149997e-09 0.0000000000000000e+00  -7.7648716257072373e-09 4.9014430035927962e-09 0.0000000000000000e+00  -6.0893685828031963e-09 5.4942716400549365e-09 0.0000000000000000e+00  -4.2920599344087586e-09 5.9327994288026786e-09 0.0000000000000000e+00  -2.7033704114156165e-09 6.2108779860127656e-09 0.0000000000000000e+00  -2.4613115509685012e-09 7.0510798340718543e-09 0.0000000000000000e+00  -2.2667123606570586e-09 -3.4468912977394158e-09 0.0000000000000000e+00  -2.6253409599344142e-09 -4.2758390806978675e-09 0.0000000000000000e+00  -4.2621288716936173e-09 -4.1436811174463466e-09 0.0000000000000000e+00  -6.1211900801892941e-09 -3.8478528599176385e-09 0.0000000000000000e+00  -7.8724522278823902e-09 -3.4357861999054398e-09 0.0000000000000000e+00  -9.4108210695905510e-09 -2.9391724053657604e-09 0.0000000000000000e+00  -1.0691751290362869e-08 -2.386932039690