<?xml version="1.0"?>
<VTKFile type="UnstructuredGrid"  version="0.1"  >
<UnstructuredGrid>
<Piece  NumberOfPoints="651" NumberOfCells="1200">
<Points>
<DataArray  type="Float64"  NumberOfComponents="3"  format="ascii">0 0 0  50000 0 0  100000 0 0  150000 0 0  200000 0 0  250000 0 0  300000 0 0  350000 0 0  400000 0 0  450000 0 0  500000 0 0  550000 0 0  600000 0 0  650000 0 0  700000 0 0  750000 0 0  800000 0 0  850000 0 0  900000 0 0  950000 0 0  1000000 0 0  0 50000 0  50000 50000 0  100000 50000 0  150000 50000 0  200000 50000 0  250000 50000 0  300000 50000 0  350000 50000 0  400000 50000 0  450000 50000 0  500000 50000 0  550000 50000 0  600000 50000 0  650000 50000 0  700000 50000 0  750000 50000 0  800000 50000 0  850000 50000 0  900000 50000 0  950000 50000 0  1000000 50000 0  0 100000 0  50000 100000 0  100000 100000 0  150000 100000 0  200000 100000 0  250000 100000 0  300000 100000 0  350000 100000 0  400000 100000 0  450000 100000 0  500000 100000 0  550000 100000 0  600000 100000 0  650000 100000 0  700000 100000 0  750000 100000 0  800000 100000 0  850000 100000 0  900000 100000 0  950000 100000 0  1000000 100000 0  0 150000 0  50000 150000 0  100000 150000 0  150000 150000 0  200000 150000 0  250000 150000 0  300000 150000 0  350000 150000 0  400000 150000 0  450000 150000 0  500000 150000 0  550000 150000 0  600000 150000 0  650000 150000 0  700000 150000 0  750000 150000 0  800000 150000 0  850000 150000 0  900000 150000 0  950000 150000 0  1000000 150000 0  0 200000 0  50000 200000 0  100000 200000 0  150000 200000 0  200000 200000 0  250000 200000 0  300000 200000 0  350000 200000 0  400000 200000 0  450000 200000 0  500000 200000 0  550000 200000 0  600000 200000 0  650000 200000 0  700000 200000 0  750000 200000 0  800000 200000 0  850000 200000 0  900000 200000 0  950000 200000 0  1000000 200000 0  0 250000 0  50000 250000 0  100000 250000 0  150000 250000 0  200000 250000 0  250000 250000 0  300000 250000 0  350000 250000 0  400000 250000 0  450000 250000 0  500000 250000 0  550000 250000 0  600000 250000 0  650000 250000 0  700000 250000 0  750000 250000 0  800000 250000 0  850000 250000 0  900000 250000 0  950000 250000 0  1000000 250000 0  0 300000 0  50000 300000 0  100000 300000 0  150000 300000 0  200000 300000 0  250000 300000 0  300000 300000 0  350000 300000 0  400000 300000 0  450000 300000 0  500000 300000 0  550000 300000 0  600000 300000 0  650000 300000 0  700000 300000 0  750000 300000 0  800000 300000 0  850000 300000 0  900000 300000 0  950000 300000 0  1000000 300000 0  0 350000 0  50000 350000 0  100000 350000 0  150000 350000 0  200000 350000 0  250000 350000 0  300000 350000 0  350000 350000 0  400000 350000 0  450000 350000 0  500000 350000 0  550000 350000 0  600000 350000 0  650000 350000 0  700000 350000 0  750000 350000 0  800000 350000 0  850000 350000 0  900000 350000 0  950000 350000 0  1000000 350000 0  0 400000 0  50000 400000 0  100000 400000 0  150000 400000 0  200000 400000 0  250000 400000 0  300000 400000 0  350000 400000 0  400000 400000 0  450000 400000 0  500000 400000 0  550000 400000 0  600000 400000 0  650000 400000 0  700000 400000 0  750000 400000 0  800000 400000 0  850000 400000 0  900000 400000 0  950000 400000 0  1000000 400000 0  0 450000 0  50000 450000 0  100000 450000 0  150000 450000 0  200000 450000 0  250000 450000 0  300000 450000 0  350000 450000 0  400000 450000 0  450000 450000 0  500000 450000 0  550000 450000 0  600000 450000 0  650000 450000 0  700000 450000 0  750000 450000 0  800000 450000 0  850000 450000 0  900000 450000 0  950000 450000 0  1000000 450000 0  0 500000 0  50000 500000 0  100000 500000 0  150000 500000 0  200000 500000 0  250000 500000 0  300000 500000 0  350000 500000 0  400000 500000 0  450000 500000 0  500000 500000 0  550000 500000 0  600000 500000 0  650000 500000 0  700000 500000 0  750000 500000 0  800000 500000 0  850000 500000 0  900000 500000 0  950000 500000 0  1000000 500000 0  0 550000 0  50000 550000 0  100000 550000 0  150000 550000 0  200000 550000 0  250000 550000 0  300000 550000 0  350000 550000 0  400000 550000 0  450000 550000 0  500000 550000 0  550000 550000 0  600000 550000 0  650000 550000 0  700000 550000 0  750000 550000 0  800000 550000 0  850000 550000 0  900000 550000 0  950000 550000 0  1000000 550000 0  0 600000 0  50000 600000 0  100000 600000 0  150000 600000 0  200000 600000 0  250000 600000 0  300000 600000 0  350000 600000 0  400000 600000 0  450000 600000 0  500000 600000 0  550000 600000 0  600000 600000 0  650000 600000 0  700000 600000 0  750000 600000 0  800000 600000 0  850000 600000 0  900000 600000 0  950000 600000 0  1000000 600000 0  0 650000 0  50000 650000 0  100000 650000 0  150000 650000 0  200000 650000 0  250000 650000 0  300000 650000 0  350000 650000 0  400000 650000 0  450000 650000 0  500000 650000 0  550000 650000 0  600000 650000 0  650000 650000 0  700000 650000 0  750000 650000 0  800000 650000 0  850000 650000 0  900000 650000 0  950000 650000 0  1000000 650000 0  0 700000 0  50000 700000 0  100000 700000 0  150000 700000 0  200000 700000 0  250000 700000 0  300000 700000 0  350000 700000 0  400000 700000 0  450000 700000 0  500000 700000 0  550000 700000 0  600000 700000 0  650000 700000 0  700000 700000 0  750000 700000 0  800000 700000 0  850000 700000 0  900000 700000 0  950000 700000 0  1000000 700000 0  0 750000 0  50000 750000 0  100000 750000 0  150000 750000 0  200000 750000 0  250000 750000 0  300000 750000 0  350000 750000 0  400000 750000 0  450000 750000 0  500000 750000 0  550000 750000 0  600000 750000 0  650000 750000 0  700000 750000 0  750000 750000 0  800000 750000 0  850000 750000 0  900000 750000 0  950000 750000 0  1000000 750000 0  0 800000 0  50000 800000 0  100000 800000 0  150000 800000 0  200000 800000 0  250000 800000 0  300000 800000 0  350000 800000 0  400000 800000 0  450000 800000 0  500000 800000 0  550000 800000 0  600000 800000 0  650000 800000 0  700000 800000 0  750000 800000 0  800000 800000 0  850000 800000 0  900000 800000 0  950000 800000 0  1000000 800000 0  0 850000 0  50000 850000 0  100000 850000 0  150000 850000 0  200000 850000 0  250000 850000 0  300000 850000 0  350000 850000 0  400000 850000 0  450000 850000 0  500000 850000 0  550000 850000 0  600000 850000 0  650000 850000 0  700000 850000 0  750000 850000 0  800000 850000 0  850000 850000 0  900000 850000 0  950000 850000 0  1000000 850000 0  0 900000 0  50000 900000 0  100000 900000 0  150000 900000 0  200000 900000 0  250000 900000 0  300000 900000 0  350000 900000 0  400000 900000 0  450000 900000 0  500000 900000 0  550000 900000 0  600000 900000 0  650000 900000 0  700000 900000 0  750000 900000 0  800000 900000 0  850000 900000 0  900000 900000 0  950000 900000 0  1000000 900000 0  0 950000 0  50000 950000 0  100000 950000 0  150000 950000 0  200000 950000 0  250000 950000 0  300000 950000 0  350000 950000 0  400000 950000 0  450000 950000 0  500000 950000 0  550000 950000 0  600000 950000 0  650000 950000 0  700000 950000 0  750000 950000 0  800000 950000 0  850000 950000 0  900000 950000 0  950000 950000 0  1000000 950000 0  0 1000000 0  50000 1000000 0  100000 1000000 0  150000 1000000 0  200000 1000000 0  250000 1000000 0  300000 1000000 0  350000 1000000 0  400000 1000000 0  450000 1000000 0  500000 1000000 0  550000 1000000 0  600000 1000000 0  650000 1000000 0  700000 1000000 0  750000 1000000 0  800000 1000000 0  850000 1000000 0  900000 1000000 0  950000 1000000 0  1000000 1000000 0  0 1050000 0  50000 1050000 0  100000 1050000 0  150000 1050000 0  200000 1050000 0  250000 1050000 0  300000 1050000 0  350000 1050000 0  400000 1050000 0  450000 1050000 0  500000 1050000 0  550000 1050000 0  600000 1050000 0  650000 1050000 0  700000 1050000 0  750000 1050000 0  800000 1050000 0  850000 1050000 0  900000 1050000 0  950000 1050000 0  1000000 1050000 0  0 1100000 0  50000 1100000 0  100000 1100000 0  150000 1100000 0  200000 1100000 0  250000 1100000 0  300000 1100000 0  350000 1100000 0  400000 1100000 0  450000 1100000 0  500000 1100000 0  550000 1100000 0  600000 1100000 0  650000 1100000 0  700000 1100000 0  750000 1100000 0  800000 1100000 0  850000 1100000 0  900000 1100000 0  950000 1100000 0  1000000 1100000 0  0 1150000 0  50000 1150000 0  100000 1150000 0  150000 1150000 0  200000 1150000 0  250000 1150000 0  300000 1150000 0  350000 1150000 0  400000 1150000 0  450000 1150000 0  500000 1150000 0  550000 1150000 0  600000 1150000 0  650000 1150000 0  700000 1150000 0  750000 1150000 0  800000 1150000 0  850000 1150000 0  900000 1150000 0  950000 1150000 0  1000000 1150000 0  0 1200000 0  50000 1200000 0  100000 1200000 0  150000 1200000 0  200000 1200000 0  250000 1200000 0  300000 1200000 0  350000 1200000 0  400000 1200000 0  450000 1200000 0  500000 1200000 0  550000 1200000 0  600000 1200000 0  650000 1200000 0  700000 1200000 0  750000 1200000 0  800000 1200000 0  850000 1200000 0  900000 1200000 0  950000 1200000 0  1000000 1200000 0  0 1250000 0  50000 1250000 0  100000 1250000 0  150000 1250000 0  200000 1250000 0  250000 1250000 0  300000 1250000 0  350000 1250000 0  400000 1250000 0  450000 1250000 0  500000 1250000 0  550000 1250000 0  600000 1250000 0  650000 1250000 0  700000 1250000 0  750000 1250000 0  800000 1250000 0  850000 1250000 0  900000 1250000 0  950000 1250000 0  1000000 1250000 0  0 1300000 0  50000 1300000 0  100000 1300000 0  150000 1300000 0  200000 1300000 0  250000 1300000 0  300000 1300000 0  350000 1300000 0  400000 1300000 0  450000 1300000 0  500000 1300000 0  550000 1300000 0  600000 1300000 0  650000 1300000 0  700000 1300000 0  750000 1300000 0  800000 1300000 0  850000 1300000 0  900000 1300000 0  950000 1300000 0  1000000 1300000 0  0 1350000 0  50000 1350000 0  100000 1350000 0  150000 1350000 0  200000 1350000 0  250000 1350000 0  300000 1350000 0  350000 1350000 0  400000 1350000 0  450000 1350000 0  500000 1350000 0  550000 1350000 0  600000 1350000 0  650000 1350000 0  700000 135
[...]
<PointData  Vectors="f_1513"> 
<DataArray  type="Float64"  Name="f_1513"  NumberOfComponents="3" format="ascii">-2.4401569953958599e-08 -1.0354919469646846e-08 0.0000000000000000e+00  4.8659650956827728e-08 -6.4395667977142114e-09 0.0000000000000000e+00  4.2939132826374767e-08 -2.1444267109525029e-09 0.0000000000000000e+00  4.0492543739500216e-08 -7.8468838381501099e-10 0.0000000000000000e+00  3.9295011205370261e-08 -3.1632555348572820e-10 0.0000000000000000e+00  3.8514070889372550e-08 -1.2117047020171927e-10 0.0000000000000000e+00  3.7953116113367922e-08 -3.1846192452923440e-11 0.0000000000000000e+00  3.7555455059330897e-08 9.0374172539178769e-12 0.0000000000000000e+00  3.7303347634297606e-08 2.6015451788611157e-11 0.0000000000000000e+00  3.7192300587941083e-08 3.2249397537666603e-11 0.0000000000000000e+00  3.7223328797695489e-08 3.6874367151676695e-11 0.0000000000000000e+00  3.7401190983856329e-08 4.8326266503623383e-11 0.0000000000000000e+00  3.7735977032544843e-08 7.6863450265336064e-11 0.0000000000000000e+00  3.8249146509097858e-08 1.3810815078470844e-10 0.0000000000000000e+00  3.8989593464542852e-08 2.6035532294752525e-10 0.0000000000000000e+00  4.0076160889976881e-08 5.0268059249085083e-10 0.0000000000000000e+00  4.1809983832180509e-08 1.0035828033722820e-09 0.0000000000000000e+00  4.4937866315112911e-08 2.1076209295182963e-09 0.0000000000000000e+00  5.0789422514739965e-08 4.6322379090754190e-09 0.0000000000000000e+00  5.8035155092324966e-08 9.1448908659616734e-09 0.0000000000000000e+00  -1.6418599368580915e-08 7.0387981862359797e-09 0.0000000000000000e+00  -1.8164474038570455e-08 -1.5908222319591567e-08 0.0000000000000000e+00  7.2448395108874619e-09 -1.1306715929460731e-08 0.0000000000000000e+00  1.8139204976391352e-08 -5.2566585855705405e-09 0.0000000000000000e+00  2.3206629171606144e-08 -2.4018742369284670e-09 0.0000000000000000e+00  2.5800000053091968e-08 -1.1472114996459083e-09 0.0000000000000000e+00  2.7266779463760853e-08 -5.5602380965520137e-10 0.0000000000000000e+00  2.8119807397578850e-08 -2.6001068356439859e-10 0.0000000000000000e+00  2.8618959022690573e-08 -1.0893737405594877e-10 0.0000000000000000e+00  2.8907704455502891e-08 -3.3795039792285812e-11 0.0000000000000000e+00  2.9066121857178396e-08 2.7403334013691271e-12 0.0000000000000000e+00  2.9136019418856816e-08 2.5208151097707432e-11 0.0000000000000000e+00  2.9132451833306183e-08 5.4069637125853324e-11 0.0000000000000000e+00  2.9047709129033776e-08 1.1147763909683961e-10 0.0000000000000000e+00  2.8849782549162575e-08 2.2788944782950667e-10 0.0000000000000000e+00  2.8474298791464300e-08 4.5385926654445560e-10 0.0000000000000000e+00  2.7803880435217764e-08 8.8594823245334491e-10 0.0000000000000000e+00  2.6612892204254905e-08 1.7276051570740020e-09 0.0000000000000000e+00  2.4390055720242031e-08 3.4249580554288847e-09 0.0000000000000000e+00  1.9691232467365700e-08 6.8684081272017262e-09 0.0000000000000000e+00  8.2698921789376781e-09 1.3021767159161121e-08 0.0000000000000000e+00  -1.8387209242385103e-08 1.0969595550118122e-08 0.0000000000000000e+00  -1.1188556521159440e-08 -1.9506471616069222e-08 0.0000000000000000e+00  -2.6408358723167712e-10 -1.8471358026184126e-08 0.0000000000000000e+00  5.8461693751871981e-09 -1.1351297168544332e-08 0.0000000000000000e+00  1.0726831097447279e-08 -6.5746791093115486e-09 0.0000000000000000e+00  1.4539480287881360e-08 -3.8115013682615948e-09 0.0000000000000000e+00  1.7185161042832911e-08 -2.2394689894653243e-09 0.0000000000000000e+00  1.8953971932865730e-08 -1.3190847083749417e-09 0.0000000000000000e+00  2.0111683739009555e-08 -7.5953953779680740e-10 0.0000000000000000e+00  2.0837645636282055e-08 -4.0193231972743558e-10 0.0000000000000000e+00  2.1242301963369722e-08 -1.5197924934508186e-10 0.0000000000000000e+00  2.1385633812160349e-08 5.4549161084515397e-11 0.0000000000000000e+00  2.1288190809641901e-08 2.7072089386944715e-10 0.0000000000000000e+00  2.0935089154194596e-08 5.5158648125530240e-10 0.0000000000000000e+00  2.0273625253911023e-08 9.6781018528171403e-10 0.0000000000000000e+00  1.9203914387753098e-08 1.6257230863878693e-09 0.0000000000000000e+00  1.7560645249189996e-08 2.7015120528141718e-09 0.0000000000000000e+00  1.5084590709521053e-08 4.4959803939027025e-09 0.0000000000000000e+00  1.1394101184362339e-08 7.4830710535504662e-09 0.0000000000000000e+00  6.0235758883924345e-09 1.2129330908038593e-08 0.0000000000000000e+00  -1.2873764998548317e-09 1.7582503037279601e-08 0.0000000000000000e+00  -1.3221014420946722e-08 1.4713258480767911e-08 0.0000000000000000e+00  -7.4911209306608651e-09 -2.0124348628588471e-08 0.0000000000000000e+00  -1.5543245950891407e-09 -1.9901511490036715e-08 0.0000000000000000e+00  1.1311179192757132e-09 -1.5317163755820939e-08 0.0000000000000000e+00  3.9020488604656403e-09 -1.0446258796928155e-08 0.0000000000000000e+00  6.7942578289980693e-09 -6.8697367570303314e-09 0.0000000000000000e+00  9.3105878255486055e-09 -4.4584747066037204e-09 0.0000000000000000e+00  1.1251621434751081e-08 -2.8563465806224187e-09 0.0000000000000000e+00  1.2641009303172038e-08 -1.7725249186206354e-09 0.0000000000000000e+00  1.3562765264629540e-08 -1.0066459004545930e-09 0.0000000000000000e+00  1.4091416896073254e-08 -4.2079272849901002e-10 0.0000000000000000e+00  1.4274213733768086e-08 8.7705635008632516e-11 0.0000000000000000e+00  1.4128429343872772e-08 6.0646534670684234e-10 0.0000000000000000e+00  1.3641554886832535e-08 1.2240676929077437e-09 0.0000000000000000e+00  1.2771531866401561e-08 2.0455512647417099e-09 0.0000000000000000e+00  1.1448257353270280e-08 3.2099600387501335e-09 0.0000000000000000e+00  9.5825649649904317e-09 4.9083417155246496e-09 0.0000000000000000e+00  7.0995331595826574e-09 7.3843876913647808e-09 0.0000000000000000e+00  4.0302379708974924e-09 1.0847239309945492e-08 0.0000000000000000e+00  6.6812275627189931e-10 1.5105170800423652e-08 0.0000000000000000e+00  -2.6230510249693284e-09 1.8746135347187765e-08 0.0000000000000000e+00  -8.9197881661585838e-09 1.7551503058325045e-08 0.0000000000000000e+00  -5.6234097228476269e-09 -1.9526660756926271e-08 0.0000000000000000e+00  -1.8913660432858021e-09 -1.9638536402837765e-08 0.0000000000000000e+00  -9.1907132385521690e-10 -1.6726304915098849e-08 0.0000000000000000e+00  2.1565642247403601e-10 -1.2817206650421120e-08 0.0000000000000000e+00  1.8507800582676898e-09 -9.2676061370348902e-09 0.0000000000000000e+00  3.6203459403606006e-09 -6.4831120418476993e-09 0.0000000000000000e+00  5.2016863982692314e-09 -4.4079854754112556e-09 0.0000000000000000e+00  6.4502470748524083e-09 -2.8688923418483629e-09 0.0000000000000000e+00  7.3321504438516202e-09 -1.6949298339830750e-09 0.0000000000000000e+00  7.8566656951790274e-09 -7.4243994009569830e-10 0.0000000000000000e+00  8.0397261432892548e-09 1.0915857775916013e-10 0.0000000000000000e+00  7.8889365646736538e-09 9.6829702628791333e-10 0.0000000000000000e+00  7.3994432497717830e-09 1.9427268662832024e-09 0.0000000000000000e+00  6.5565661686433857e-09 3.1498201077926388e-09 0.0000000000000000e+00  5.3464366813483359e-09 4.7231591615780551e-09 0.0000000000000000e+00  3.7806872810578060e-09 6.8068553985434636e-09 0.0000000000000000e+00  1.9445523408787549e-09 9.5142453943396201e-09 0.0000000000000000e+00  6.5411240619738050e-11 1.2803216828765279e-08 0.0000000000000000e+00  -1.4916399196639042e-09 1.6222214254260904e-08 0.0000000000000000e+00  -2.7353543903225388e-09 1.8690749871192379e-08 0.0000000000000000e+00  -6.6332156112297575e-09 1.8534001627387652e-08 0.0000000000000000e+00  -4.5621488959827238e-09 -1.8388573695521884e-08 0.0000000000000000e+00  -2.0638823653325491e-09 -1.8709952852898834e-08 0.0000000000000000e+00  -1.9969462234058404e-09 -1.6745424248406459e-08 0.0000000000000000e+00  -1.9114909081793896e-09 -1.3778946095781488e-08 0.0000000000000000e+00  -1.3149629264813840e-09 -1.0669381387452297e-08 0.0000000000000000e+00  -3.7707422799612808e-10 -7.9102304157892368e-09 0.0000000000000000e+00  6.3524528823772093e-10 -5.6365892261780669e-09 0.0000000000000000e+00  1.5324999918937566e-09 -3.8068533534330470e-09 0.0000000000000000e+00  2.2146605396664268e-09 -2.3162480046267822e-09 0.0000000000000000e+00  2.6388515917219126e-09 -1.0471539021048978e-09 0.0000000000000000e+00  2.7903796551882662e-09 1.1501687070250858e-10 0.0000000000000000e+00  2.6662186575646229e-09 1.2802071320481628e-09 0.0000000000000000e+00  2.2692572207380582e-09 2.5565102253183896e-09 0.0000000000000000e+00  1.6113742608401183e-09 4.0519569635724663e-09 0.0000000000000000e+00  7.2549848688415417e-10 5.8698342473502658e-09 0.0000000000000000e+00  -3.1215355382105480e-10 8.0885024869703725e-09 0.0000000000000000e+00  -1.3527519836644625e-09 1.0711213460967732e-08 0.0000000000000000e+00  -2.1629563366579194e-09 1.3572984031611260e-08 0.0000000000000000e+00  -2.5232489160004234e-09 1.6229725250350450e-08 0.0000000000000000e+00  -2.7138678427095969e-09 1.7986669180361486e-08 0.0000000000000000e+00  -5.2940859529868642e-09 1.8286662060966998e-08 0.0000000000000000e+00  -3.8843473267937682e-09 -1.6951739177315553e-08 0.0000000000000000e+00  -2.1953116309746652e-09 -1.7417955070818876e-08 0.0000000000000000e+00  -2.6684177806487514e-09 -1.6023489918524561e-08 0.0000000000000000e+00  -3.2463699580073993e-09 -1.3766494079341458e-08 0.0000000000000000e+00  -3.4061120036698784e-09 -1.1174826489768146e-08 0.0000000000000000e+00  -3.1803576708837409e-09 -8.6526172001213145e-09 0.0000000000000000e+00  -2.7439624555281498e-09 -6.3966077094973768e-09 0.0000000000000000e+00  -2.2628582572887864e-09 -4.4499628574871218e-09 0.0000000000000000e+00  -1.8522326299071168e-09 -2.7718015706376380e-09 0.0000000000000000e+00  -1.5794792895675321e-09 -1.2834315792758602e-09 0.0000000000000000e+00  -1.4779986722510491e-09 1.0773763542681458e-10 0.0000000000000000e+00  -1.5582620804776461e-09 1.4974808415400280e-09 0.0000000000000000e+00  -1.8124476847397961e-09 2.9794611310818205e-09 0.0000000000000000e+00  -2.2123499718088477e-09 4.6395108540496291e-09 0.0000000000000000e+00  -2.7012290583532246e-09 6.5440839017650727e-09 0.0000000000000000e+00  -3.1820406171351854e-09 8.7169523781904792e-09 0.0000000000000000e+00  -3.5104363449919518e-09 1.1099488215115350e-08 0.0000000000000000e+00  -3.5164893931799074e-09 1.3499680936309686e-08 0.0000000000000000e+00  -3.1170278627543558e-09 1.5564131813304147e-08 0.0000000000000000e+00  -2.6990012750530929e-09 1.6864214836296871e-08 0.0000000000000000e+00  -4.4276972803296122e-09 1.7380665220083460e-08 0.0000000000000000e+00  -3.4143125601440624e-09 -1.5316017798220098e-08 0.0000000000000000e+00  -2.3037140098364709e-09 -1.5886742445670828e-08 0.0000000000000000e+00  -3.1349228682256057e-09 -1.4860171975809471e-08 0.0000000000000000e+00  -4.1456756898786416e-09 -1.3118744823269654e-08 0.0000000000000000e+00  -4.8362134654325197e-09 -1.0995826552640908e-08 0.0000000000000000e+00  -5.1625154009517290e-09 -8.7875204356424565e-09 0.0000000000000000e+00  -5.2212473977515994e-09 -6.6816894495646657e-09 0.0000000000000000e+00  -5.1336643944212536e-09 -4.7581352951864148e-09 0.0000000000000000e+00  -5.0008315642672655e-09 -3.0199237297437969e-09 0.0000000000000000e+00  -4.8919983003189761e-09 -1.4248630812578957e-09 0.0000000000000000e+00  -4.8463499376152582e-09 9.2052688953039176e-11 0.0000000000000000e+00  -4.8774751202548611e-09 1.6042931171898345e-09 0.0000000000000000e+00  -4.9758641258514049e-09 3.1836256768791223e-09 0.0000000000000000e+00  -5.1081650007769135e-09 4.8900246718009521e-09 0.0000000000000000e+00  -5.2140817207908339e-09 6.7579607881149432e-09 0.0000000000000000e+00  -5.2042901597847927e-09 8.7764715407005850e-09 0.0000000000000000e+00  -4.9671489237968127e-09 1.0863832677690272e-08 0.0000000000000000e+00  -4.4005413685627711e-09 1.2846060463371313e-08 0.0000000000000000e+00  -3.5077852187843528e-09 1.4463469912873228e-08 0.0000000000000000e+00  -2.6981791513147974e-09 1.5453375583387209e-08 0.0000000000000000e+00  -3.8259699872766372e-09 1.6089834135979206e-08 0.0000000000000000e+00  -3.0712443742931435e-09 -1.3535160079945873e-08 0.0000000000000000e+00  -2.3926624778570635e-09 -1.4183328162272602e-08 0.0000000000000000e+00  -3.4775438671376400e-09 -1.3409653595350642e-08 0.0000000000000000e+00  -4.7809737132433169e-09 -1.2050293986685143e-08 0.0000000000000000e+00  -5.8411954495035521e-09 -1.0323899581365348e-08 0.0000000000000000e+00  -6.5760494117572148e-09 -8.4401163670427873e-09 0.0000000000000000e+00  -7.0269421225339057e-09 -6.5542239665923966e-09 0.0000000000000000e+00  -7.2716294324528868e-09 -4.7524056525362189e-09 0.0000000000000000e+00  -7.3861532634943929e-09 -3.0613566999215895e-09 0.0000000000000000e+00  -7.4289438557873090e-09 -1.4661704129906131e-09 0.0000000000000000e+00  -7.4360002762682896e-09 7.2555761966926698e-11 0.0000000000000000e+00  -7.4205974361647787e-09 1.6048066354601897e-09 0.0000000000000000e+00  -7.3739165374868479e-09 3.1795145658053251e-09 0.0000000000000000e+00  -7.2653456527463275e-09 4.8332205146368354e-09 0.0000000000000000e+00  -7.0431575112808943e-09 6.5772657080191499e-09 0.0000000000000000e+00  -6.6382635317639523e-09 8.3831079461312649e-09 0.0000000000000000e+00  -5.9762652865840505e-09 1.0168359973063468e-08 0.0000000000000000e+00  -5.0076859861254300e-09 1.1791144136290424e-08 0.0000000000000000e+00  -3.7838272205836679e-09 1.3066923078033146e-08 0.0000000000000000e+00  -2.7039300662383907e-09 1.3835456326382212e-08 0.0000000000000000e+00  -3.3876945842599446e-09 1.4547836217856535e-08 0.0000000000000000e+00  -2.8139010142407868e-09 -1.1645217246987498e-08 0.0000000000000000e+00  -2.4643013614521943e-09 -1.2351631945930757e-08 0.0000000000000000e+00  -3.7348534326684052e-09 -1.1762390874102246e-08 0.0000000000000000e+00  -5.2412042854589360e-09 -1.0696694149233965e-08 0.0000000000000000e+00  -6.5587470947305814e-09 -9.3037330475656424e-09 0.0000000000000000e+00  -7.5881958058847922e-09 -7.7305012149516516e-09 0.0000000000000000e+00  -8.3348223883399607e-09 -6.0972413260004670e-09 0.0000000000000000e+00  -8.8413481804868504e-09 -4.4820178105810354e-09 0.0000000000000000e+00  -9.1581990284217693e-09 -2.9206604040929131e-09 0.0000000000000000e+00  -9.3283820432265267e-09 -1.4155673323764717e-09 0.0000000000000000e+00  -9.3802976678490621e-09 5.2686767004468387e-11 0.0000000000000000e+00  -9.3249645753138363e-09 1.5138468642366191e-09 0.0000000000000000e+00  -9.1554971429626836e-09 2.9971946886119211e-09 0.0000000000000000e+00  -8.8479733521510119e-09 4.5210729065457015e-09 0.0000000000000000e+00  -8.3641116441539586e-09 6.0823569348465962e-09 0.0000000000000000e+00  -7.6573872026043960e-09 7.6465270632164647e-09 0.0000000000000000e+00  -6.6855214368138443e-09 9.1408967271266064e-09 0.0000000000000000e+00  -5.4354876470891823e-09 1.0455962458312310e-08 0.0000000000000000e+00  -3.9836579673761576e-09 1.1462743963298397e-08 0.0000000000000000e+00  -2.7101025835207366e-09 1.2065265951942022e-08 0.0000000000000000e+00  -3.0587146035727849e-09 1.2829370452343393e-08 0.0000000000000000e+00  -2.6194399244355412e-09 -9.6735088129653795e-09 0.0000000000000000e+00  -2.5210233407789039e-09 -1.0424005457108974e-08 0.0000000000000000e+00  -3.9287735872732975e-09 -9.9771447550641201e-09 0.0000000000000000e+00  -5.5772401793967728e-09 -9.1471017545956824e-09 0.0000000000000000e+00  -7.0732950185434806e-09 -8.0396497243648022e-09 0.0000000000000000e+00  -8.3110394035189191e-09 -6.7575275070847109e-09 0.0000000000000000e+00  -9.2729719931134525e-09 -5.3904491972449549e-09 0.0000000000000000e+00  -9.9759935011072233e-09 -4.0030763922571931e-09 0.0000000000000000e+00  -1.0448719530850137e-08 -2.6316597820183908e-09 0.0000000000000000e+00  -1.0718911636301637e-08 -1.2877263718109811e-09 0.0000000000000000e+00  -1.0806279194149101e-08 3.4598107778466629e-11 0.0000000000000000e+00  -1.0718891369142418e-08 1.3499616741217946e-09 0.0000000000000000e+00  -1.0452142785965725e-08 2.6729646884899221e-09 0.0000000000000000e+00  -9.9898037925236330e-09 4.0095663025125436e-09 0.0000000000000000e+00  -9.3073320996791865e-09 5.3491173172277293e-09 0.0000000000000000e+00  -8.3782147406305918e-09 6.6579971060638450e-09 0.0000000000000000e+00  -7.1848256145845642e-09 7.8768048590505022e-09 0.0000000000000000e+00  -5.7381868743747129e-09 8.9240217052630985e-09 0.0000000000000000e+00  -4.1273747907619541e-09 9.7107356721506223e-09 0.0000000000000000e+00  -2.7132862164154860e-09 1.0182260834628924e-08 0.0000000000000000e+00  -2.8079084434319887e-09 1.0982347839835364e-08 0.0000000000000000e+00  -2.4745062434863034e-09 -7.6418632830977182e-09 0.0000000000000000e+00  -2.5654765616100273e-09 -8.4257020841336152e-09 0.0000000000000000e+00  -4.0737662708601597e-09 -8.0948940932874939e-09 0.0000000000000000e+00  -5.8211759231504811e-09 -7.4625914560917286e-09 0.0000000000000000e+00  -7.4395783971515485e-09 -6.6064294773261458e-09 0.0000000000000000e+00  -8.8214061835594649e-09 -5.5977405293106296e-09 0.0000000000000000e+00  -9.9351150966682501e-09 -4.5013935483259045e-09 0.0000000000000000e+00  -1.0779568540362377e-08 -3.3677034522625699e-09 0.0000000000000000e+00  -1.1366570760902960e-08 -2.2286344559690959e-09 0.0000000000000000e+00  -1.1711029687708398e-08 -1.0989476256165863e-09 0.0000000000000000e+00  -1.1824743127820977e-08 1.9419025914202894e-11 0.0000000000000000e+00  -1.1712918723910672e-08 1.1313236561750103e-09 0.0000000000000000e+00  -1.1373036542467968e-08 2.2418231891469782e-09 0.0000000000000000e+00  -1.0795859315974164e-08 3.3497127691333229e-09 0.0000000000000000e+00  -9.9686146404965734e-09 4.4418666870177558e-09 0.0000000000000000e+00  -8.8805905349259068e-09 5.4893093892618719e-09 0.0000000000000000e+00  -7.5318882777925961e-09 6.4463434572811264e-09 0.0000000000000000e+00  -5.9490455572926018e-09 7.2543673119111142e-09 0.0000000000000000e+00  -4.2274984233942092e-09 7.8534499023876638e-09 0.0000000000000000e+00  -2.7121492190397957e-09 8.2162112160122216e-09 0.0000000000000000e+00  -2.6165622260661210e-09 9.0407863234623720e-09 0.0000000000000000e+00  -2.3710737407415421e-09 -5.5681053262328646e-09 0.0000000000000000e+00  -2.6003205290973955e-09 -6.3769564280411853e-09 0.0000000000000000e+00  -4.1802757394799966e-09 -6.1456144517111261e-09 0.0000000000000000e+00  -5.9947657598851597e-09 -5.6864700801184589e-09 0.0000000000000000e+00  -7.6946356479930788e-09 -5.0581062177372194e-09 0.0000000000000000e+00  -9.1727949662612315e-09 -4.3090048355740030e-09 0.0000000000000000e+00  -1.0389260127692806e-08 -3.4840802262237582e-09 0.0000000000000000e+00  -1.1330864075608304e-08 -2.6200156835793458e-09 0.0000000000000000e+00  -1.1997376943663213e-08 -1.7421469631892442e-09 0.0000000000000000e+00  -1.2393938309292903e-08 -8.6452282996799423e-10 0.0000000000000000e+00  -1.2526031115966277e-08 7.6088569341761878e-12 0.0000000000000000e+00  -1.2396473695423120e-08 8.7386773198134285e-10 0.0000000000000000e+00  -1.2004377205594744e-08 1.7341973147491500e-09 0.0000000000000000e+00  -1.1346030614700767e-08 2.5843873090829584e-09 0.0000000000000000e+00  -1.0417660038830500e-08 3.4123003715037235e-09 0.0000000000000000e+00  -9.2200394366850964e-09 4.1955300052988883e-09 0.0000000000000000e+00  -7.7653894710685314e-09 4.9013298392949243e-09 0.0000000000000000e+00  -6.0900958480574170e-09 5.4897256648089046e-09 0.0000000000000000e+00  -4.2928446267562133e-09 5.9222402973161113e-09 0.0000000000000000e+00  -2.7066239061950264e-09 6.1902410742482689e-09 0.0000000000000000e+00  -2.4731295493830506e-09 7.0303583043017825e-09 0.0000000000000000e+00  -2.3043298822490296e-09 -3.4670308234580783e-09 0.0000000000000000e+00  -2.6279739664198139e-09 -4.2942445806796571e-09 0.0000000000000000e+00  -4.2560279672680637e-09 -4.1520467715192523e-09 0.0000000000000000e+00  -6.1131539192548482e-09 -3.8504685349105930e-09 0.0000000000000000e+00  -7.8638291689350967e-09 -3.4344114294175382e-09 0.0000000000000000e+00  -9.4022272748358208e-09 -2.9349714002945122e-09 0.0000000000000000e+00  -1.0683579801723853e-08 -2.3807155621370382