<?xml version="1.0"?>
<VTKFile type="UnstructuredGrid"  version="0.1"  >
<UnstructuredGrid>
<Piece  NumberOfPoints="651" NumberOfCells="1200">
<Points>
<DataArray  type="Float64"  NumberOfComponents="3"  format="ascii">0 0 0  50000 0 0  100000 0 0  150000 0 0  200000 0 0  250000 0 0  300000 0 0  350000 0 0  400000 0 0  450000 0 0  500000 0 0  550000 0 0  600000 0 0  650000 0 0  700000 0 0  750000 0 0  800000 0 0  850000 0 0  900000 0 0  950000 0 0  1000000 0 0  0 50000 0  50000 50000 0  100000 50000 0  150000 50000 0  200000 50000 0  250000 50000 0  300000 50000 0  350000 50000 0  400000 50000 0  450000 50000 0  500000 50000 0  550000 50000 0  600000 50000 0  650000 50000 0  700000 50000 0  750000 50000 0  800000 50000 0  850000 50000 0  900000 50000 0  950000 50000 0  1000000 50000 0  0 100000 0  50000 100000 0  100000 100000 0  150000 100000 0  200000 100000 0  250000 100000 0  300000 100000 0  350000 100000 0  400000 100000 0  450000 100000 0  500000 100000 0  550000 100000 0  600000 100000 0  650000 100000 0  700000 100000 0  750000 100000 0  800000 100000 0  850000 100000 0  900000 100000 0  950000 100000 0  1000000 100000 0  0 150000 0  50000 150000 0  100000 150000 0  150000 150000 0  200000 150000 0  250000 150000 0  300000 150000 0  350000 150000 0  400000 150000 0  450000 150000 0  500000 150000 0  550000 150000 0  600000 150000 0  650000 150000 0  700000 150000 0  750000 150000 0  800000 150000 0  850000 150000 0  900000 150000 0  950000 150000 0  1000000 150000 0  0 200000 0  50000 200000 0  100000 200000 0  150000 200000 0  200000 200000 0  250000 200000 0  300000 200000 0  350000 200000 0  400000 200000 0  450000 200000 0  500000 200000 0  550000 200000 0  600000 200000 0  650000 200000 0  700000 200000 0  750000 200000 0  800000 200000 0  850000 200000 0  900000 200000 0  950000 200000 0  1000000 200000 0  0 250000 0  50000 250000 0  100000 250000 0  150000 250000 0  200000 250000 0  250000 250000 0  300000 250000 0  350000 250000 0  400000 250000 0  450000 250000 0  500000 250000 0  550000 250000 0  600000 250000 0  650000 250000 0  700000 250000 0  750000 250000 0  800000 250000 0  850000 250000 0  900000 250000 0  950000 250000 0  1000000 250000 0  0 300000 0  50000 300000 0  100000 300000 0  150000 300000 0  200000 300000 0  250000 300000 0  300000 300000 0  350000 300000 0  400000 300000 0  450000 300000 0  500000 300000 0  550000 300000 0  600000 300000 0  650000 300000 0  700000 300000 0  750000 300000 0  800000 300000 0  850000 300000 0  900000 300000 0  950000 300000 0  1000000 300000 0  0 350000 0  50000 350000 0  100000 350000 0  150000 350000 0  200000 350000 0  250000 350000 0  300000 350000 0  350000 350000 0  400000 350000 0  450000 350000 0  500000 350000 0  550000 350000 0  600000 350000 0  650000 350000 0  700000 350000 0  750000 350000 0  800000 350000 0  850000 350000 0  900000 350000 0  950000 350000 0  1000000 350000 0  0 400000 0  50000 400000 0  100000 400000 0  150000 400000 0  200000 400000 0  250000 400000 0  300000 400000 0  350000 400000 0  400000 400000 0  450000 400000 0  500000 400000 0  550000 400000 0  600000 400000 0  650000 400000 0  700000 400000 0  750000 400000 0  800000 400000 0  850000 400000 0  900000 400000 0  950000 400000 0  1000000 400000 0  0 450000 0  50000 450000 0  100000 450000 0  150000 450000 0  200000 450000 0  250000 450000 0  300000 450000 0  350000 450000 0  400000 450000 0  450000 450000 0  500000 450000 0  550000 450000 0  600000 450000 0  650000 450000 0  700000 450000 0  750000 450000 0  800000 450000 0  850000 450000 0  900000 450000 0  950000 450000 0  1000000 450000 0  0 500000 0  50000 500000 0  100000 500000 0  150000 500000 0  200000 500000 0  250000 500000 0  300000 500000 0  350000 500000 0  400000 500000 0  450000 500000 0  500000 500000 0  550000 500000 0  600000 500000 0  650000 500000 0  700000 500000 0  750000 500000 0  800000 500000 0  850000 500000 0  900000 500000 0  950000 500000 0  1000000 500000 0  0 550000 0  50000 550000 0  100000 550000 0  150000 550000 0  200000 550000 0  250000 550000 0  300000 550000 0  350000 550000 0  400000 550000 0  450000 550000 0  500000 550000 0  550000 550000 0  600000 550000 0  650000 550000 0  700000 550000 0  750000 550000 0  800000 550000 0  850000 550000 0  900000 550000 0  950000 550000 0  1000000 550000 0  0 600000 0  50000 600000 0  100000 600000 0  150000 600000 0  200000 600000 0  250000 600000 0  300000 600000 0  350000 600000 0  400000 600000 0  450000 600000 0  500000 600000 0  550000 600000 0  600000 600000 0  650000 600000 0  700000 600000 0  750000 600000 0  800000 600000 0  850000 600000 0  900000 600000 0  950000 600000 0  1000000 600000 0  0 650000 0  50000 650000 0  100000 650000 0  150000 650000 0  200000 650000 0  250000 650000 0  300000 650000 0  350000 650000 0  400000 650000 0  450000 650000 0  500000 650000 0  550000 650000 0  600000 650000 0  650000 650000 0  700000 650000 0  750000 650000 0  800000 650000 0  850000 650000 0  900000 650000 0  950000 650000 0  1000000 650000 0  0 700000 0  50000 700000 0  100000 700000 0  150000 700000 0  200000 700000 0  250000 700000 0  300000 700000 0  350000 700000 0  400000 700000 0  450000 700000 0  500000 700000 0  550000 700000 0  600000 700000 0  650000 700000 0  700000 700000 0  750000 700000 0  800000 700000 0  850000 700000 0  900000 700000 0  950000 700000 0  1000000 700000 0  0 750000 0  50000 750000 0  100000 750000 0  150000 750000 0  200000 750000 0  250000 750000 0  300000 750000 0  350000 750000 0  400000 750000 0  450000 750000 0  500000 750000 0  550000 750000 0  600000 750000 0  650000 750000 0  700000 750000 0  750000 750000 0  800000 750000 0  850000 750000 0  900000 750000 0  950000 750000 0  1000000 750000 0  0 800000 0  50000 800000 0  100000 800000 0  150000 800000 0  200000 800000 0  250000 800000 0  300000 800000 0  350000 800000 0  400000 800000 0  450000 800000 0  500000 800000 0  550000 800000 0  600000 800000 0  650000 800000 0  700000 800000 0  750000 800000 0  800000 800000 0  850000 800000 0  900000 800000 0  950000 800000 0  1000000 800000 0  0 850000 0  50000 850000 0  100000 850000 0  150000 850000 0  200000 850000 0  250000 850000 0  300000 850000 0  350000 850000 0  400000 850000 0  450000 850000 0  500000 850000 0  550000 850000 0  600000 850000 0  650000 850000 0  700000 850000 0  750000 850000 0  800000 850000 0  850000 850000 0  900000 850000 0  950000 850000 0  1000000 850000 0  0 900000 0  50000 900000 0  100000 900000 0  150000 900000 0  200000 900000 0  250000 900000 0  300000 900000 0  350000 900000 0  400000 900000 0  450000 900000 0  500000 900000 0  550000 900000 0  600000 900000 0  650000 900000 0  700000 900000 0  750000 900000 0  800000 900000 0  850000 900000 0  900000 900000 0  950000 900000 0  1000000 900000 0  0 950000 0  50000 950000 0  100000 950000 0  150000 950000 0  200000 950000 0  250000 950000 0  300000 950000 0  350000 950000 0  400000 950000 0  450000 950000 0  500000 950000 0  550000 950000 0  600000 950000 0  650000 950000 0  700000 950000 0  750000 950000 0  800000 950000 0  850000 950000 0  900000 950000 0  950000 950000 0  1000000 950000 0  0 1000000 0  50000 1000000 0  100000 1000000 0  150000 1000000 0  200000 1000000 0  250000 1000000 0  300000 1000000 0  350000 1000000 0  400000 1000000 0  450000 1000000 0  500000 1000000 0  550000 1000000 0  600000 1000000 0  650000 1000000 0  700000 1000000 0  750000 1000000 0  800000 1000000 0  850000 1000000 0  900000 1000000 0  950000 1000000 0  1000000 1000000 0  0 1050000 0  50000 1050000 0  100000 1050000 0  150000 1050000 0  200000 1050000 0  250000 1050000 0  300000 1050000 0  350000 1050000 0  400000 1050000 0  450000 1050000 0  500000 1050000 0  550000 1050000 0  600000 1050000 0  650000 1050000 0  700000 1050000 0  750000 1050000 0  800000 1050000 0  850000 1050000 0  900000 1050000 0  950000 1050000 0  1000000 1050000 0  0 1100000 0  50000 1100000 0  100000 1100000 0  150000 1100000 0  200000 1100000 0  250000 1100000 0  300000 1100000 0  350000 1100000 0  400000 1100000 0  450000 1100000 0  500000 1100000 0  550000 1100000 0  600000 1100000 0  650000 1100000 0  700000 1100000 0  750000 1100000 0  800000 1100000 0  850000 1100000 0  900000 1100000 0  950000 1100000 0  1000000 1100000 0  0 1150000 0  50000 1150000 0  100000 1150000 0  150000 1150000 0  200000 1150000 0  250000 1150000 0  300000 1150000 0  350000 1150000 0  400000 1150000 0  450000 1150000 0  500000 1150000 0  550000 1150000 0  600000 1150000 0  650000 1150000 0  700000 1150000 0  750000 1150000 0  800000 1150000 0  850000 1150000 0  900000 1150000 0  950000 1150000 0  1000000 1150000 0  0 1200000 0  50000 1200000 0  100000 1200000 0  150000 1200000 0  200000 1200000 0  250000 1200000 0  300000 1200000 0  350000 1200000 0  400000 1200000 0  450000 1200000 0  500000 1200000 0  550000 1200000 0  600000 1200000 0  650000 1200000 0  700000 1200000 0  750000 1200000 0  800000 1200000 0  850000 1200000 0  900000 1200000 0  950000 1200000 0  1000000 1200000 0  0 1250000 0  50000 1250000 0  100000 1250000 0  150000 1250000 0  200000 1250000 0  250000 1250000 0  300000 1250000 0  350000 1250000 0  400000 1250000 0  450000 1250000 0  500000 1250000 0  550000 1250000 0  600000 1250000 0  650000 1250000 0  700000 1250000 0  750000 1250000 0  800000 1250000 0  850000 1250000 0  900000 1250000 0  950000 1250000 0  1000000 1250000 0  0 1300000 0  50000 1300000 0  100000 1300000 0  150000 1300000 0  200000 1300000 0  250000 1300000 0  300000 1300000 0  350000 1300000 0  400000 1300000 0  450000 1300000 0  500000 1300000 0  550000 1300000 0  600000 1300000 0  650000 1300000 0  700000 1300000 0  750000 1300000 0  800000 1300000 0  850000 1300000 0  900000 1300000 0  950000 1300000 0  1000000 1300000 0  0 1350000 0  50000 1350000 0  100000 1350000 0  150000 1350000 0  200000 1350000 0  250000 1350000 0  300000 1350000 0  350000 1350000 0  400000 1350000 0  450000 1350000 0  500000 1350000 0  550000 1350000 0  600000 1350000 0  650000 1350000 0  700000 135
[...]
<PointData  Vectors="f_1513"> 
<DataArray  type="Float64"  Name="f_1513"  NumberOfComponents="3" format="ascii">-2.4548685164725944e-08 -9.9761555416747682e-09 0.0000000000000000e+00  4.8529847526648194e-08 -6.0704722908414595e-09 0.0000000000000000e+00  4.2833840843534503e-08 -1.7944474828642532e-09 0.0000000000000000e+00  4.0409512667325437e-08 -4.5429936987307385e-10 0.0000000000000000e+00  3.9233064693856911e-08 -5.3716053580442387e-12 0.0000000000000000e+00  3.8471818875685190e-08 1.6967416456784865e-10 0.0000000000000000e+00  3.7928860023450011e-08 2.3783863952455583e-10 0.0000000000000000e+00  3.7547128307212609e-08 2.5646325251231597e-10 0.0000000000000000e+00  3.7308524096042691e-08 2.5025118324999048e-10 0.0000000000000000e+00  3.7208268744281092e-08 2.3270464170057885e-10 0.0000000000000000e+00  3.7247219099736412e-08 2.1343284356499900e-10 0.0000000000000000e+00  3.7430144915077411e-08 2.0143124006690484e-10 0.0000000000000000e+00  3.7767341265531173e-08 2.0754716417001052e-10 0.0000000000000000e+00  3.8280669573917173e-08 2.4796325631631661e-10 0.0000000000000000e+00  3.9019599763791971e-08 3.5145608038577983e-10 0.0000000000000000e+00  4.0103680789801535e-08 5.7747246521102679e-10 0.0000000000000000e+00  4.1834830719195620e-08 1.0647675346332094e-09 0.0000000000000000e+00  4.4960666220106436e-08 2.1580674254187765e-09 0.0000000000000000e+00  5.0811561099920335e-08 4.6749378125164790e-09 0.0000000000000000e+00  5.8058301784163974e-08 9.1829481524658894e-09 0.0000000000000000e+00  -1.6395151214305639e-08 7.0771328382281342e-09 0.0000000000000000e+00  -1.8324786053902614e-08 -1.5538587239680729e-08 0.0000000000000000e+00  7.1580051215392598e-09 -1.1177565315333713e-08 0.0000000000000000e+00  1.8006137274343569e-08 -5.2212097230380098e-09 0.0000000000000000e+00  2.3090662475735082e-08 -2.3753121406341615e-09 0.0000000000000000e+00  2.5713737750660533e-08 -1.1238424483050851e-09 0.0000000000000000e+00  2.7206773031705450e-08 -5.3423442568064390e-10 0.0000000000000000e+00  2.8082600178323873e-08 -2.3914392457764336e-10 0.0000000000000000e+00  2.8601320954927559e-08 -8.8632079959062929e-11 0.0000000000000000e+00  2.8906285842167976e-08 -1.3746974661030496e-11 0.0000000000000000e+00  2.9077497984688516e-08 2.2799185707619005e-11 0.0000000000000000e+00  2.9156778404325231e-08 4.5481409005862714e-11 0.0000000000000000e+00  2.9159291693655599e-08 7.4666697915555825e-11 0.0000000000000000e+00  2.9077547184366341e-08 1.3239457038257639e-10 0.0000000000000000e+00  2.8879864730979138e-08 2.4900883145426940e-10 0.0000000000000000e+00  2.8502291838968988e-08 4.7497557270804432e-10 0.0000000000000000e+00  2.7827931329480210e-08 9.0682355319704828e-10 0.0000000000000000e+00  2.6631653785921629e-08 1.7480577831773609e-09 0.0000000000000000e+00  2.4402791438165253e-08 3.4449497172372831e-09 0.0000000000000000e+00  1.9698526824870566e-08 6.8880768927396620e-09 0.0000000000000000e+00  8.2737876958931462e-09 1.3041833703508196e-08 0.0000000000000000e+00  -1.8364389098253969e-08 1.1006834443820731e-08 0.0000000000000000e+00  -1.1366479999961400e-08 -1.9158066095611679e-08 0.0000000000000000e+00  -3.1509507776881495e-10 -1.8345612152568788e-08 0.0000000000000000e+00  5.7513559701283432e-09 -1.1366421216576227e-08 0.0000000000000000e+00  1.0614842240459332e-08 -6.6174496339429073e-09 0.0000000000000000e+00  1.4434001487168626e-08 -3.8599485852270552e-09 0.0000000000000000e+00  1.7095926262606425e-08 -2.2869109677820028e-09 0.0000000000000000e+00  1.8882505809646341e-08 -1.3628569742607831e-09 0.0000000000000000e+00  2.0056823345456391e-08 -7.9837740824274839e-10 0.0000000000000000e+00  2.0797362597466383e-08 -4.3505897665276407e-10 0.0000000000000000e+00  2.1214256693233995e-08 -1.7885638574504661e-10 0.0000000000000000e+00  2.1367419568603205e-08 3.4244416359892887e-11 0.0000000000000000e+00  2.1277466887542274e-08 2.5706561178157727e-10 0.0000000000000000e+00  2.0929662204289114e-08 5.4438616183019777e-10 0.0000000000000000e+00  2.0271505628607061e-08 9.6660144096809327e-10 0.0000000000000000e+00  1.9203360086355064e-08 1.6298167753859352e-09 0.0000000000000000e+00  1.7560202410253378e-08 2.7100822568439821e-09 0.0000000000000000e+00  1.5083149746639636e-08 4.5081978702455258e-09 0.0000000000000000e+00  1.1391018820097255e-08 7.4982636771518835e-09 0.0000000000000000e+00  6.0190770899463928e-09 1.2147191813500032e-08 0.0000000000000000e+00  -1.2926720254255729e-09 1.7600035577537639e-08 0.0000000000000000e+00  -1.3202999941795151e-08 1.4748475897790134e-08 0.0000000000000000e+00  -7.6848471049639554e-09 -1.9797558563922423e-08 0.0000000000000000e+00  -1.5832986627238862e-09 -1.9736853239109066e-08 0.0000000000000000e+00  1.0830357539654217e-09 -1.5306909248893171e-08 0.0000000000000000e+00  3.8279692551427909e-09 -1.0491246345835573e-08 0.0000000000000000e+00  6.7091392391335918e-09 -6.9329740815552711e-09 0.0000000000000000e+00  9.2273522632266208e-09 -4.5253373023667928e-09 0.0000000000000000e+00  1.1176671795637325e-08 -2.9203668768124774e-09 0.0000000000000000e+00  1.2576650312704809e-08 -1.8305557730043110e-09 0.0000000000000000e+00  1.3509197319377949e-08 -1.0570208836171207e-09 0.0000000000000000e+00  1.4047831862946751e-08 -4.6259228651765432e-10 0.0000000000000000e+00  1.4239340223043762e-08 5.4923566062856925e-11 0.0000000000000000e+00  1.4100809743216836e-08 5.8275243917230890e-10 0.0000000000000000e+00  1.3619693130725720e-08 1.2091153647384887e-09 0.0000000000000000e+00  1.2753978487813329e-08 2.0387192405029664e-09 0.0000000000000000e+00  1.1433669322396311e-08 3.2103281405611784e-09 0.0000000000000000e+00  9.5697668595567071e-09 4.9147940473795805e-09 0.0000000000000000e+00  7.0876063932781688e-09 7.3957252406291469e-09 0.0000000000000000e+00  4.0186901204672260e-09 1.0862274865787901e-08 0.0000000000000000e+00  6.5745406372822041e-10 1.5122551650445449e-08 0.0000000000000000e+00  -2.6329686825348794e-09 1.8758689919841090e-08 0.0000000000000000e+00  -8.9096561203693420e-09 1.7582596763175540e-08 0.0000000000000000e+00  -5.8310043956369523e-09 -1.9221512916520405e-08 0.0000000000000000e+00  -1.9110158593580748e-09 -1.9454151361840089e-08 0.0000000000000000e+00  -9.3735160786282339e-10 -1.6684916075754683e-08 0.0000000000000000e+00  1.7649958281308790e-10 -1.2844662172208191e-08 0.0000000000000000e+00  1.7945489001266830e-09 -9.3265560167716234e-09 0.0000000000000000e+00  3.5565627424628486e-09 -6.5537303819752634e-09 0.0000000000000000e+00  5.1376206063642682e-09 -4.4798344035325612e-09 0.0000000000000000e+00  6.3901396868400564e-09 -2.9363655262755750e-09 0.0000000000000000e+00  7.2780541300445620e-09 -1.7549397378615318e-09 0.0000000000000000e+00  7.8092730530760572e-09 -7.9328603341042322e-10 0.0000000000000000e+00  7.9989364642954278e-09 6.8325404788114314e-11 0.0000000000000000e+00  7.8542027652997953e-09 9.3772261080432002e-10 0.0000000000000000e+00  7.3699774667151863e-09 1.9221733400114810e-09 0.0000000000000000e+00  6.5314669133279508e-09 3.1386371827018900e-09 0.0000000000000000e+00  5.3247822309217233e-09 4.7203457646822727e-09 0.0000000000000000e+00  3.7616295527522841e-09 6.8111256625462389e-09 0.0000000000000000e+00  1.9274443690633697e-09 9.5240885610754743e-09 0.0000000000000000e+00  5.0021912717130039e-11 1.2816863281111725e-08 0.0000000000000000e+00  -1.5046194192563508e-09 1.6237121972647547e-08 0.0000000000000000e+00  -2.7480488939806976e-09 1.8696430593625057e-08 0.0000000000000000e+00  -6.6338644318149643e-09 1.8559622654454803e-08 0.0000000000000000e+00  -4.7819343915437764e-09 -1.8105203705187315e-08 0.0000000000000000e+00  -2.0793353932977775e-09 -1.8521683708491243e-08 0.0000000000000000e+00  -1.9963410402745965e-09 -1.6681764897361823e-08 0.0000000000000000e+00  -1.9240853741715508e-09 -1.3786420771797246e-08 0.0000000000000000e+00  -1.3441102688212955e-09 -1.0716358684367712e-08 0.0000000000000000e+00  -4.1778790552958371e-10 -7.9761754528015303e-09 0.0000000000000000e+00  5.8871234386582343e-10 -5.7088552538551623e-09 0.0000000000000000e+00  1.4845994816311063e-09 -3.8778109179670513e-09 0.0000000000000000e+00  2.1683232650871288e-09 -2.3813403602896885e-09 0.0000000000000000e+00  2.5957839540885978e-09 -1.1037088265556862e-09 0.0000000000000000e+00  2.7514187455789678e-09 6.8463367824770777e-11 0.0000000000000000e+00  2.6316158639447663e-09 1.2442808934955881e-09 0.0000000000000000e+00  2.2388794330643404e-09 2.5312006192645070e-09 0.0000000000000000e+00  1.5848466141109825e-09 4.0367318372961905e-09 0.0000000000000000e+00  7.0231922547102660e-10 5.8637116345098406e-09 0.0000000000000000e+00  -3.3249644237472739e-10 8.0900952357321136e-09 0.0000000000000000e+00  -1.3706335635214218e-09 1.0718732012108295e-08 0.0000000000000000e+00  -2.1784115342017191e-09 1.3584092367907066e-08 0.0000000000000000e+00  -2.5356974825374272e-09 1.6240830284109325e-08 0.0000000000000000e+00  -2.7281459703480122e-09 1.7984602237526353e-08 0.0000000000000000e+00  -5.3083052602731770e-09 1.8306275329814146e-08 0.0000000000000000e+00  -4.1145988588908585e-09 -1.6690361142029107e-08 0.0000000000000000e+00  -2.2088602631802362e-09 -1.7234718471915203e-08 0.0000000000000000e+00  -2.6552352817181907e-09 -1.5947038729524688e-08 0.0000000000000000e+00  -3.2393964335166006e-09 -1.3757482997015362e-08 0.0000000000000000e+00  -3.4126034776052916e-09 -1.1208233342065140e-08 0.0000000000000000e+00  -3.1989491830790707e-09 -8.7098002581242006e-09 0.0000000000000000e+00  -2.7710451106800978e-09 -6.4645606320125680e-09 0.0000000000000000e+00  -2.2947661466809973e-09 -4.5199954762613858e-09 0.0000000000000000e+00  -1.8859890927504569e-09 -2.8382733632034815e-09 0.0000000000000000e+00  -1.6129321812852306e-09 -1.3427857172507724e-09 0.0000000000000000e+00  -1.5097276048096615e-09 5.7625275076437465e-11 0.0000000000000000e+00  -1.5874292000674306e-09 1.4577098524341079e-09 0.0000000000000000e+00  -1.8386559635345915e-09 2.9503515818025534e-09 0.0000000000000000e+00  -2.2355213828292171e-09 4.6207453987775648e-09 0.0000000000000000e+00  -2.7214932033742547e-09 6.5347837895178217e-09 0.0000000000000000e+00  -3.1996168775126021e-09 8.7157016188670576e-09 0.0000000000000000e+00  -3.5254938481326331e-09 1.1104290110459791e-08 0.0000000000000000e+00  -3.5289989306116634e-09 1.3507740005443016e-08 0.0000000000000000e+00  -3.1267896628558612e-09 1.5571025711169070e-08 0.0000000000000000e+00  -2.7140282614681601e-09 1.6854645053642878e-08 0.0000000000000000e+00  -4.4581042180533470e-09 1.7394533885297238e-08 0.0000000000000000e+00  -3.6531321955863173e-09 -1.5076900340398167e-08 0.0000000000000000e+00  -2.3163920177396785e-09 -1.5714043015196477e-08 0.0000000000000000e+00  -3.1129303060271333e-09 -1.4778154574107430e-08 0.0000000000000000e+00  -4.1242038407458349e-09 -1.3098021092211078e-08 0.0000000000000000e+00  -4.8245100666613212e-09 -1.1017010876307187e-08 0.0000000000000000e+00  -5.1616528266895337e-09 -8.8347575443856463e-09 0.0000000000000000e+00  -5.2295393475268928e-09 -6.7428184914770259e-09 0.0000000000000000e+00  -5.1485613005746054e-09 -4.8243096939085247e-09 0.0000000000000000e+00  -5.0197921099937773e-09 -3.0849558937419498e-09 0.0000000000000000e+00  -4.9128613433975167e-09 -1.4845742770174057e-09 0.0000000000000000e+00  -4.8674456059630983e-09 4.0352230729456587e-11 0.0000000000000000e+00  -4.8976143128683526e-09 1.5621736136488897e-09 0.0000000000000000e+00  -4.9942799842975376e-09 3.1517795254633666e-09 0.0000000000000000e+00  -5.1244375370409027e-09 4.8684109129882647e-09 0.0000000000000000e+00  -5.2280529170096599e-09 6.7458751715717301e-09 0.0000000000000000e+00  -5.2159661455904815e-09 8.7725510620400326e-09 0.0000000000000000e+00  -4.9765887326453877e-09 1.0865978283521202e-08 0.0000000000000000e+00  -4.4077869890159187e-09 1.2851171973537659e-08 0.0000000000000000e+00  -3.5132281318798350e-09 1.4466539981366194e-08 0.0000000000000000e+00  -2.7133304798924498e-09 1.5437493929938388e-08 0.0000000000000000e+00  -3.8749069406380386e-09 1.6098998920986686e-08 0.0000000000000000e+00  -3.3165151078218394e-09 -1.3318579243250715e-08 0.0000000000000000e+00  -2.4048944197215501e-09 -1.4024841307826487e-08 0.0000000000000000e+00  -3.4491088234220441e-09 -1.3327320025255558e-08 0.0000000000000000e+00  -4.7486451579680830e-09 -1.2022295164344560e-08 0.0000000000000000e+00  -5.8151422143775539e-09 -1.0335312706629184e-08 0.0000000000000000e+00  -6.5588462680669993e-09 -8.4779125639360223e-09 0.0000000000000000e+00  -7.0183629219015905e-09 -6.6076640773274070e-09 0.0000000000000000e+00  -7.2701952540000305e-09 -4.8131143032508825e-09 0.0000000000000000e+00  -7.3899400220581882e-09 -3.1230830242765243e-09 0.0000000000000000e+00  -7.4360363238834120e-09 -1.5244230711130462e-09 0.0000000000000000e+00  -7.4447234514992013e-09 2.0864292598124471e-11 0.0000000000000000e+00  -7.4296133798554987e-09 1.5616465916982305e-09 0.0000000000000000e+00  -7.3822461112608036e-09 3.1459417974643330e-09 0.0000000000000000e+00  -7.2723491936729635e-09 4.8095005027257067e-09 0.0000000000000000e+00  -7.0484902695144418e-09 6.5629267376766537e-09 0.0000000000000000e+00  -6.6418123682665912e-09 8.3769253386315586e-09 0.0000000000000000e+00  -5.9780794071093522e-09 1.0168253488903678e-08 0.0000000000000000e+00  -5.0079963329240678e-09 1.1793882393239551e-08 0.0000000000000000e+00  -3.7837783647543484e-09 1.3067162655903047e-08 0.0000000000000000e+00  -2.7187406457284321e-09 1.3815204573475070e-08 0.0000000000000000e+00  -3.4570994935759245e-09 1.4554059758676879e-08 0.0000000000000000e+00  -3.0632685483371518e-09 -1.1451392566205824e-08 0.0000000000000000e+00  -2.4762289205287351e-09 -1.2209855319209131e-08 0.0000000000000000e+00  -3.7016056731316714e-09 -1.1683544821191839e-08 0.0000000000000000e+00  -5.2007453748223440e-09 -1.0665103788381242e-08 0.0000000000000000e+00  -6.5215684754791665e-09 -9.3080131210377099e-09 0.0000000000000000e+00  -7.5577269525536856e-09 -7.7601815035471966e-09 0.0000000000000000e+00  -8.3118412380917343e-09 -6.1431862920657826e-09 0.0000000000000000e+00  -8.8252457775741627e-09 -4.5366784251123427e-09 0.0000000000000000e+00  -9.1476638429423691e-09 -2.9780740883275141e-09 0.0000000000000000e+00  -9.3218484658083574e-09 -1.4712031522653559e-09 0.0000000000000000e+00  -9.3762295705445511e-09 2.1335451435088370e-12 0.0000000000000000e+00  -9.3220203275125588e-09 1.4706460090544253e-09 0.0000000000000000e+00  -9.1526151630664939e-09 2.9627267495640361e-09 0.0000000000000000e+00  -8.8444062742625682e-09 4.4959178508894314e-09 0.0000000000000000e+00  -8.3594265346857089e-09 6.0663220389498286e-09 0.0000000000000000e+00  -7.6514436030061358e-09 7.6386094532113486e-09 0.0000000000000000e+00  -6.6784502808452829e-09 9.1391603869155328e-09 0.0000000000000000e+00  -5.4278053293769156e-09 1.0457222775145715e-08 0.0000000000000000e+00  -3.9773847183363765e-09 1.1461572973457033e-08 0.0000000000000000e+00  -2.7242592579630399e-09 1.2043155965753514e-08 0.0000000000000000e+00  -3.1499885689776534e-09 1.2835029777454403e-08 0.0000000000000000e+00  -2.8703147556933204e-09 -9.5025321438207124e-09 0.0000000000000000e+00  -2.5326687473073184e-09 -1.0300584462235935e-08 0.0000000000000000e+00  -3.8919811512693814e-09 -9.9045051248187977e-09 0.0000000000000000e+00  -5.5308400509933607e-09 -9.1148196609620444e-09 0.0000000000000000e+00  -7.0277535176662454e-09 -8.0392146103534663e-09 0.0000000000000000e+00  -8.2702100672037641e-09 -6.7807033721406978e-09 0.0000000000000000e+00  -9.2382644136264238e-09 -5.4296859636568839e-09 0.0000000000000000e+00  -9.9474334844198039e-09 -4.0518107262887252e-09 0.0000000000000000e+00  -1.0425511297557362e-08 -2.6844355008460483e-09 0.0000000000000000e+00  -1.0699843016623223e-08 -1.3401763763395507e-09 0.0000000000000000e+00  -1.0790014374983402e-08 -1.4160139680582385e-11 0.0000000000000000e+00  -1.0704171439625815e-08 1.3073639559276734e-09 0.0000000000000000e+00  -1.0437915728332442e-08 2.6381841519778180e-09 0.0000000000000000e+00  -9.9753034149696339e-09 3.9834946748780952e-09 0.0000000000000000e+00  -9.2921209805115440e-09 5.3318797477722942e-09 0.0000000000000000e+00  -8.3622046194655928e-09 6.6488922825909857e-09 0.0000000000000000e+00  -7.1683059187369577e-09 7.8741648306235079e-09 0.0000000000000000e+00  -5.7220350286468862e-09 8.9248852109829091e-09 0.0000000000000000e+00  -4.1145731618578164e-09 9.7098436951185264e-09 0.0000000000000000e+00  -2.7266259758684372e-09 1.0161195393059066e-08 0.0000000000000000e+00  -2.9218067740234890e-09 1.0990278162984702e-08 0.0000000000000000e+00  -2.7240858404186418e-09 -7.4936247476160153e-09 0.0000000000000000e+00  -2.5768273590769073e-09 -8.3215941286412359e-09 0.0000000000000000e+00  -4.0345446058187621e-09 -8.0303259170995267e-09 0.0000000000000000e+00  -5.7707342298055745e-09 -7.4318027266082033e-09 0.0000000000000000e+00  -7.3881362202041207e-09 -6.6033187863181361e-09 0.0000000000000000e+00  -8.7729549150490101e-09 -5.6160122326407027e-09 0.0000000000000000e+00  -9.8914130029105739e-09 -4.5349799892734775e-09 0.0000000000000000e+00  -1.0741059385001248e-08 -3.4110661489492770e-09 0.0000000000000000e+00  -1.1332845307546539e-08 -2.2769369588349632e-09 0.0000000000000000e+00  -1.1681177942075319e-08 -1.1481186279260012e-09 0.0000000000000000e+00  -1.1797633933246121e-08 -2.7309140489718221e-11 0.0000000000000000e+00  -1.1687413567680424e-08 1.0896230228822226e-09 0.0000000000000000e+00  -1.1348147376960703e-08 2.2070388320113399e-09 0.0000000000000000e+00  -1.0770862118045117e-08 3.3230443187602560e-09 0.0000000000000000e+00  -9.9431299279464675e-09 4.4237933382825291e-09 0.0000000000000000e+00  -8.8546437479788689e-09 5.4795083395939733e-09 0.0000000000000000e+00  -7.5059863712395870e-09 6.4435354579149187e-09 0.0000000000000000e+00  -5.9244817321084452e-09 7.2559870037372746e-09 0.0000000000000000e+00  -4.2082670217450003e-09 7.8546585042809212e-09 0.0000000000000000e+00  -2.7246472795316462e-09 8.1993025138748381e-09 0.0000000000000000e+00  -2.7531289850463257e-09 9.0540934033643929e-09 0.0000000000000000e+00  -2.6163856752245967e-09 -5.4422197634402727e-09 0.0000000000000000e+00  -2.6113766198749592e-09 -6.2925067872482792e-09 0.0000000000000000e+00  -4.1397021050614283e-09 -6.0902769135308848e-09 0.0000000000000000e+00  -5.9420429508274743e-09 -5.6587279953520371e-09 0.0000000000000000e+00  -7.6395750942970060e-09 -5.0539366882212134e-09 0.0000000000000000e+00  -9.1193309375150165e-09 -4.3238075970997768e-09 0.0000000000000000e+00  -1.0339290586501871e-08 -3.5131396104767255e-09 0.0000000000000000e+00  -1.1285069809490710e-08 -2.6587906124188061e-09 0.0000000000000000e+00  -1.1955605698375645e-08 -1.7864618065797772e-09 0.0000000000000000e+00  -1.2355507078181641e-08 -9.1067477157666257e-10 0.0000000000000000e+00  -1.2489983431695223e-08 -3.7198852037449531e-11 0.0000000000000000e+00  -1.2361793568794602e-08 8.3304596928774225e-10 0.0000000000000000e+00  -1.1970162767642375e-08 1.6994507141651203e-09 0.0000000000000000e+00  -1.1311633452304837e-08 2.5572248501637771e-09 0.0000000000000000e+00  -1.0382797580899307e-08 3.3935929577320776e-09 0.0000000000000000e+00  -9.1848916821476567e-09 4.1854095200794998e-09 0.0000000000000000e+00  -7.7307205190604335e-09 4.8990234289897272e-09 0.0000000000000000e+00  -6.0576481142317838e-09 5.4932305989214829e-09 0.0000000000000000e+00  -4.2676370941166579e-09 5.9273803026531499e-09 0.0000000000000000e+00  -2.7183686866229104e-09 6.1806326964240043e-09 0.0000000000000000e+00  -2.6316855982962278e-09 7.0522226670678991e-09 0.0000000000000000e+00  -2.5422969881001736e-09 -3.3627692605572815e-09 0.0000000000000000e+00  -2.6387741611571400e-09 -4.2292177952653697e-09 0.0000000000000000e+00  -4.2151987083080305e-09 -4.1064908520032873e-09 0.0000000000000000e+00  -6.0598525762844021e-09 -3.8267706015392109e-09 0.0000000000000000e+00  -7.8073255065222806e-09 -3.4303820143321789e-09 0.0000000000000000e+00  -9.3462606712130279e-09 -2.9475037204377395e-09 0.0000000000000000e+00  -1.0630035386181047e-08 -2.406312637285854