<?xml version="1.0"?>
<VTKFile type="UnstructuredGrid"  version="0.1"  >
<UnstructuredGrid>
<Piece  NumberOfPoints="651" NumberOfCells="1200">
<Points>
<DataArray  type="Float64"  NumberOfComponents="3"  format="ascii">0 0 0  50000 0 0  100000 0 0  150000 0 0  200000 0 0  250000 0 0  300000 0 0  350000 0 0  400000 0 0  450000 0 0  500000 0 0  550000 0 0  600000 0 0  650000 0 0  700000 0 0  750000 0 0  800000 0 0  850000 0 0  900000 0 0  950000 0 0  1000000 0 0  0 50000 0  50000 50000 0  100000 50000 0  150000 50000 0  200000 50000 0  250000 50000 0  300000 50000 0  350000 50000 0  400000 50000 0  450000 50000 0  500000 50000 0  550000 50000 0  600000 50000 0  650000 50000 0  700000 50000 0  750000 50000 0  800000 50000 0  850000 50000 0  900000 50000 0  950000 50000 0  1000000 50000 0  0 100000 0  50000 100000 0  100000 100000 0  150000 100000 0  200000 100000 0  250000 100000 0  300000 100000 0  350000 100000 0  400000 100000 0  450000 100000 0  500000 100000 0  550000 100000 0  600000 100000 0  650000 100000 0  700000 100000 0  750000 100000 0  800000 100000 0  850000 100000 0  900000 100000 0  950000 100000 0  1000000 100000 0  0 150000 0  50000 150000 0  100000 150000 0  150000 150000 0  200000 150000 0  250000 150000 0  300000 150000 0  350000 150000 0  400000 150000 0  450000 150000 0  500000 150000 0  550000 150000 0  600000 150000 0  650000 150000 0  700000 150000 0  750000 150000 0  800000 150000 0  850000 150000 0  900000 150000 0  950000 150000 0  1000000 150000 0  0 200000 0  50000 200000 0  100000 200000 0  150000 200000 0  200000 200000 0  250000 200000 0  300000 200000 0  350000 200000 0  400000 200000 0  450000 200000 0  500000 200000 0  550000 200000 0  600000 200000 0  650000 200000 0  700000 200000 0  750000 200000 0  800000 200000 0  850000 200000 0  900000 200000 0  950000 200000 0  1000000 200000 0  0 250000 0  50000 250000 0  100000 250000 0  150000 250000 0  200000 250000 0  250000 250000 0  300000 250000 0  350000 250000 0  400000 250000 0  450000 250000 0  500000 250000 0  550000 250000 0  600000 250000 0  650000 250000 0  700000 250000 0  750000 250000 0  800000 250000 0  850000 250000 0  900000 250000 0  950000 250000 0  1000000 250000 0  0 300000 0  50000 300000 0  100000 300000 0  150000 300000 0  200000 300000 0  250000 300000 0  300000 300000 0  350000 300000 0  400000 300000 0  450000 300000 0  500000 300000 0  550000 300000 0  600000 300000 0  650000 300000 0  700000 300000 0  750000 300000 0  800000 300000 0  850000 300000 0  900000 300000 0  950000 300000 0  1000000 300000 0  0 350000 0  50000 350000 0  100000 350000 0  150000 350000 0  200000 350000 0  250000 350000 0  300000 350000 0  350000 350000 0  400000 350000 0  450000 350000 0  500000 350000 0  550000 350000 0  600000 350000 0  650000 350000 0  700000 350000 0  750000 350000 0  800000 350000 0  850000 350000 0  900000 350000 0  950000 350000 0  1000000 350000 0  0 400000 0  50000 400000 0  100000 400000 0  150000 400000 0  200000 400000 0  250000 400000 0  300000 400000 0  350000 400000 0  400000 400000 0  450000 400000 0  500000 400000 0  550000 400000 0  600000 400000 0  650000 400000 0  700000 400000 0  750000 400000 0  800000 400000 0  850000 400000 0  900000 400000 0  950000 400000 0  1000000 400000 0  0 450000 0  50000 450000 0  100000 450000 0  150000 450000 0  200000 450000 0  250000 450000 0  300000 450000 0  350000 450000 0  400000 450000 0  450000 450000 0  500000 450000 0  550000 450000 0  600000 450000 0  650000 450000 0  700000 450000 0  750000 450000 0  800000 450000 0  850000 450000 0  900000 450000 0  950000 450000 0  1000000 450000 0  0 500000 0  50000 500000 0  100000 500000 0  150000 500000 0  200000 500000 0  250000 500000 0  300000 500000 0  350000 500000 0  400000 500000 0  450000 500000 0  500000 500000 0  550000 500000 0  600000 500000 0  650000 500000 0  700000 500000 0  750000 500000 0  800000 500000 0  850000 500000 0  900000 500000 0  950000 500000 0  1000000 500000 0  0 550000 0  50000 550000 0  100000 550000 0  150000 550000 0  200000 550000 0  250000 550000 0  300000 550000 0  350000 550000 0  400000 550000 0  450000 550000 0  500000 550000 0  550000 550000 0  600000 550000 0  650000 550000 0  700000 550000 0  750000 550000 0  800000 550000 0  850000 550000 0  900000 550000 0  950000 550000 0  1000000 550000 0  0 600000 0  50000 600000 0  100000 600000 0  150000 600000 0  200000 600000 0  250000 600000 0  300000 600000 0  350000 600000 0  400000 600000 0  450000 600000 0  500000 600000 0  550000 600000 0  600000 600000 0  650000 600000 0  700000 600000 0  750000 600000 0  800000 600000 0  850000 600000 0  900000 600000 0  950000 600000 0  1000000 600000 0  0 650000 0  50000 650000 0  100000 650000 0  150000 650000 0  200000 650000 0  250000 650000 0  300000 650000 0  350000 650000 0  400000 650000 0  450000 650000 0  500000 650000 0  550000 650000 0  600000 650000 0  650000 650000 0  700000 650000 0  750000 650000 0  800000 650000 0  850000 650000 0  900000 650000 0  950000 650000 0  1000000 650000 0  0 700000 0  50000 700000 0  100000 700000 0  150000 700000 0  200000 700000 0  250000 700000 0  300000 700000 0  350000 700000 0  400000 700000 0  450000 700000 0  500000 700000 0  550000 700000 0  600000 700000 0  650000 700000 0  700000 700000 0  750000 700000 0  800000 700000 0  850000 700000 0  900000 700000 0  950000 700000 0  1000000 700000 0  0 750000 0  50000 750000 0  100000 750000 0  150000 750000 0  200000 750000 0  250000 750000 0  300000 750000 0  350000 750000 0  400000 750000 0  450000 750000 0  500000 750000 0  550000 750000 0  600000 750000 0  650000 750000 0  700000 750000 0  750000 750000 0  800000 750000 0  850000 750000 0  900000 750000 0  950000 750000 0  1000000 750000 0  0 800000 0  50000 800000 0  100000 800000 0  150000 800000 0  200000 800000 0  250000 800000 0  300000 800000 0  350000 800000 0  400000 800000 0  450000 800000 0  500000 800000 0  550000 800000 0  600000 800000 0  650000 800000 0  700000 800000 0  750000 800000 0  800000 800000 0  850000 800000 0  900000 800000 0  950000 800000 0  1000000 800000 0  0 850000 0  50000 850000 0  100000 850000 0  150000 850000 0  200000 850000 0  250000 850000 0  300000 850000 0  350000 850000 0  400000 850000 0  450000 850000 0  500000 850000 0  550000 850000 0  600000 850000 0  650000 850000 0  700000 850000 0  750000 850000 0  800000 850000 0  850000 850000 0  900000 850000 0  950000 850000 0  1000000 850000 0  0 900000 0  50000 900000 0  100000 900000 0  150000 900000 0  200000 900000 0  250000 900000 0  300000 900000 0  350000 900000 0  400000 900000 0  450000 900000 0  500000 900000 0  550000 900000 0  600000 900000 0  650000 900000 0  700000 900000 0  750000 900000 0  800000 900000 0  850000 900000 0  900000 900000 0  950000 900000 0  1000000 900000 0  0 950000 0  50000 950000 0  100000 950000 0  150000 950000 0  200000 950000 0  250000 950000 0  300000 950000 0  350000 950000 0  400000 950000 0  450000 950000 0  500000 950000 0  550000 950000 0  600000 950000 0  650000 950000 0  700000 950000 0  750000 950000 0  800000 950000 0  850000 950000 0  900000 950000 0  950000 950000 0  1000000 950000 0  0 1000000 0  50000 1000000 0  100000 1000000 0  150000 1000000 0  200000 1000000 0  250000 1000000 0  300000 1000000 0  350000 1000000 0  400000 1000000 0  450000 1000000 0  500000 1000000 0  550000 1000000 0  600000 1000000 0  650000 1000000 0  700000 1000000 0  750000 1000000 0  800000 1000000 0  850000 1000000 0  900000 1000000 0  950000 1000000 0  1000000 1000000 0  0 1050000 0  50000 1050000 0  100000 1050000 0  150000 1050000 0  200000 1050000 0  250000 1050000 0  300000 1050000 0  350000 1050000 0  400000 1050000 0  450000 1050000 0  500000 1050000 0  550000 1050000 0  600000 1050000 0  650000 1050000 0  700000 1050000 0  750000 1050000 0  800000 1050000 0  850000 1050000 0  900000 1050000 0  950000 1050000 0  1000000 1050000 0  0 1100000 0  50000 1100000 0  100000 1100000 0  150000 1100000 0  200000 1100000 0  250000 1100000 0  300000 1100000 0  350000 1100000 0  400000 1100000 0  450000 1100000 0  500000 1100000 0  550000 1100000 0  600000 1100000 0  650000 1100000 0  700000 1100000 0  750000 1100000 0  800000 1100000 0  850000 1100000 0  900000 1100000 0  950000 1100000 0  1000000 1100000 0  0 1150000 0  50000 1150000 0  100000 1150000 0  150000 1150000 0  200000 1150000 0  250000 1150000 0  300000 1150000 0  350000 1150000 0  400000 1150000 0  450000 1150000 0  500000 1150000 0  550000 1150000 0  600000 1150000 0  650000 1150000 0  700000 1150000 0  750000 1150000 0  800000 1150000 0  850000 1150000 0  900000 1150000 0  950000 1150000 0  1000000 1150000 0  0 1200000 0  50000 1200000 0  100000 1200000 0  150000 1200000 0  200000 1200000 0  250000 1200000 0  300000 1200000 0  350000 1200000 0  400000 1200000 0  450000 1200000 0  500000 1200000 0  550000 1200000 0  600000 1200000 0  650000 1200000 0  700000 1200000 0  750000 1200000 0  800000 1200000 0  850000 1200000 0  900000 1200000 0  950000 1200000 0  1000000 1200000 0  0 1250000 0  50000 1250000 0  100000 1250000 0  150000 1250000 0  200000 1250000 0  250000 1250000 0  300000 1250000 0  350000 1250000 0  400000 1250000 0  450000 1250000 0  500000 1250000 0  550000 1250000 0  600000 1250000 0  650000 1250000 0  700000 1250000 0  750000 1250000 0  800000 1250000 0  850000 1250000 0  900000 1250000 0  950000 1250000 0  1000000 1250000 0  0 1300000 0  50000 1300000 0  100000 1300000 0  150000 1300000 0  200000 1300000 0  250000 1300000 0  300000 1300000 0  350000 1300000 0  400000 1300000 0  450000 1300000 0  500000 1300000 0  550000 1300000 0  600000 1300000 0  650000 1300000 0  700000 1300000 0  750000 1300000 0  800000 1300000 0  850000 1300000 0  900000 1300000 0  950000 1300000 0  1000000 1300000 0  0 1350000 0  50000 1350000 0  100000 1350000 0  150000 1350000 0  200000 1350000 0  250000 1350000 0  300000 1350000 0  350000 1350000 0  400000 1350000 0  450000 1350000 0  500000 1350000 0  550000 1350000 0  600000 1350000 0  650000 1350000 0  700000 135
[...]
<PointData  Vectors="f_1513"> 
<DataArray  type="Float64"  Name="f_1513"  NumberOfComponents="3" format="ascii">-2.4474510321909543e-08 -1.0164946402387910e-08 0.0000000000000000e+00  4.8599169105801252e-08 -6.2572051044565119e-09 0.0000000000000000e+00  4.2894898240739385e-08 -1.9767867623579646e-09 0.0000000000000000e+00  4.0461253077958158e-08 -6.3157533131835362e-10 0.0000000000000000e+00  3.9274751450545893e-08 -1.7673386454067953e-10 0.0000000000000000e+00  3.8503108043105400e-08 5.4515385927433085e-12 0.0000000000000000e+00  3.7949821912086168e-08 8.2191957206265940e-11 0.0000000000000000e+00  3.7558284388344723e-08 1.1088957784646263e-10 0.0000000000000000e+00  3.7310848990575690e-08 1.1616110334205605e-10 0.0000000000000000e+00  3.7203145521131524e-08 1.1127728020574941e-10 0.0000000000000000e+00  3.7236345651120259e-08 1.0548772496134038e-10 0.0000000000000000e+00  3.7415395250484522e-08 1.0733366849521185e-10 0.0000000000000000e+00  3.7750594456318223e-08 1.2716133105943670e-10 0.0000000000000000e+00  3.8263627654559746e-08 1.8066044512642209e-10 0.0000000000000000e+00  3.9003620765762592e-08 2.9617464174360705e-10 0.0000000000000000e+00  4.0089651170959772e-08 5.3281416667350000e-10 0.0000000000000000e+00  4.1823091018121234e-08 1.0291054224127147e-09 0.0000000000000000e+00  4.4950987677036898e-08 2.1296378598164268e-09 0.0000000000000000e+00  5.0803168654895252e-08 4.6518949488448105e-09 0.0000000000000000e+00  5.8050051787699838e-08 9.1633010534958223e-09 0.0000000000000000e+00  -1.6403136907989602e-08 7.0577483231246466e-09 0.0000000000000000e+00  -1.8246891956480407e-08 -1.5725062429554601e-08 0.0000000000000000e+00  7.2048043688890700e-09 -1.1249257738951367e-08 0.0000000000000000e+00  1.8077483744985467e-08 -5.2451986874063833e-09 0.0000000000000000e+00  2.3156204117539792e-08 -2.3929528511418436e-09 0.0000000000000000e+00  2.5765869859605218e-08 -1.1386458605996461e-09 0.0000000000000000e+00  2.7245688480020415e-08 -5.4731222088665687e-10 0.0000000000000000e+00  2.8109017698529284e-08 -2.5105110167244232e-10 0.0000000000000000e+00  2.8616243973560913e-08 -9.9767682123191906e-11 0.0000000000000000e+00  2.8911086363526236e-08 -2.4476595389806697e-11 0.0000000000000000e+00  2.9073849539355642e-08 1.2139137861535607e-11 0.0000000000000000e+00  2.9146566747678941e-08 3.4610691721054925e-11 0.0000000000000000e+00  2.9144512706527245e-08 6.3392798720221881e-11 0.0000000000000000e+00  2.9060192818924243e-08 1.2063724301085153e-10 0.0000000000000000e+00  2.8861808069086736e-08 2.3680838220930590e-10 0.0000000000000000e+00  2.8485185364153784e-08 4.6247854650199432e-10 0.0000000000000000e+00  2.7813130255349753e-08 8.9424420722542896e-10 0.0000000000000000e+00  2.6620165311485433e-08 1.7356203893301941e-09 0.0000000000000000e+00  2.4395193305858564e-08 3.4328387666230633e-09 0.0000000000000000e+00  1.9694603284195625e-08 6.8764170019570833e-09 0.0000000000000000e+00  8.2725941351521373e-09 1.3030656006241747e-08 0.0000000000000000e+00  -1.8372261686112699e-08 1.0987568203834715e-08 0.0000000000000000e+00  -1.1283168603153027e-08 -1.9339334659334525e-08 0.0000000000000000e+00  -2.8629017796595484e-10 -1.8419447810034890e-08 0.0000000000000000e+00  5.8038245181656461e-09 -1.1367990493035336e-08 0.0000000000000000e+00  1.0677336322297246e-08 -6.6012959800925576e-09 0.0000000000000000e+00  1.4494435642083976e-08 -3.8376781783837367e-09 0.0000000000000000e+00  1.7148723727554048e-08 -2.2625757699922442e-09 0.0000000000000000e+00  1.8926165633251043e-08 -1.3384401694024666e-09 0.0000000000000000e+00  2.0091386354597520e-08 -7.7513367529969780e-10 0.0000000000000000e+00  2.0823513207765481e-08 -4.1396849274823982e-10 0.0000000000000000e+00  2.1233010740400412e-08 -1.6073451840149096e-10 0.0000000000000000e+00  2.1379966191443097e-08 4.8759195055468924e-11 0.0000000000000000e+00  2.1285069308980222e-08 2.6755440391180058e-10 0.0000000000000000e+00  2.0933588262415305e-08 5.5068614340103163e-10 0.0000000000000000e+00  2.0272974460209075e-08 9.6881723601007620e-10 0.0000000000000000e+00  1.9203497328258615e-08 1.6282970978784711e-09 0.0000000000000000e+00  1.7559997089300462e-08 2.7053605769149413e-09 0.0000000000000000e+00  1.5083401910054497e-08 4.5009040238773807e-09 0.0000000000000000e+00  1.1392258455988304e-08 7.4890222231553187e-09 0.0000000000000000e+00  6.0213772905759124e-09 1.2136496304816270e-08 0.0000000000000000e+00  -1.2889354679309880e-09 1.7589941324953048e-08 0.0000000000000000e+00  -1.3207543770427760e-08 1.4729119648041453e-08 0.0000000000000000e+00  -7.5955601839557545e-09 -1.9973528063590945e-08 0.0000000000000000e+00  -1.5650034717742050e-09 -1.9832418186141227e-08 0.0000000000000000e+00  1.1136559272696939e-09 -1.5322594661456817e-08 0.0000000000000000e+00  3.8723857844957249e-09 -1.0475205481498735e-08 0.0000000000000000e+00  6.7595887781376522e-09 -6.9037893593581060e-09 0.0000000000000000e+00  9.2770587839243468e-09 -4.4910186160668754e-09 0.0000000000000000e+00  1.1222029725456694e-08 -2.8849562121842542e-09 0.0000000000000000e+00  1.2616143026420755e-08 -1.7964296986391459e-09 0.0000000000000000e+00  1.3542455323708610e-08 -1.0257723535422000e-09 0.0000000000000000e+00  1.4075090738204512e-08 -4.3537148227734733e-10 0.0000000000000000e+00  1.4261155812034528e-08 7.7300010746426679e-11 0.0000000000000000e+00  1.4117905512573631e-08 5.9978296263950885e-10 0.0000000000000000e+00  1.3632875542557224e-08 1.2206187124412179e-09 0.0000000000000000e+00  1.2764087222058276e-08 2.0448308530770161e-09 0.0000000000000000e+00  1.1441541195123618e-08 3.2114728081006425e-09 0.0000000000000000e+00  9.5761970075301915e-09 4.9116312644969336e-09 0.0000000000000000e+00  7.0932918725573698e-09 7.3890726888910513e-09 0.0000000000000000e+00  4.0241357452496750e-09 1.0853037305321054e-08 0.0000000000000000e+00  6.6271934300916656e-10 1.5111792340545450e-08 0.0000000000000000e+00  -2.6267150308695217e-09 1.8750889781069225e-08 0.0000000000000000e+00  -8.9089637752618971e-09 1.7564347192788013e-08 0.0000000000000000e+00  -5.7353313086616153e-09 -1.9392099113993946e-08 0.0000000000000000e+00  -1.8972643513849947e-09 -1.9562458963356525e-08 0.0000000000000000e+00  -9.2079041498342978e-10 -1.6717214365701974e-08 0.0000000000000000e+00  2.0427536975804848e-10 -1.2838036226242719e-08 0.0000000000000000e+00  1.8310119324260144e-09 -9.2998236870635311e-09 0.0000000000000000e+00  3.5966704505350029e-09 -6.5174472627682317e-09 0.0000000000000000e+00  5.1774918920392414e-09 -4.4400576051150431e-09 0.0000000000000000e+00  6.4274238895022828e-09 -2.8967747877713489e-09 0.0000000000000000e+00  7.3115334357794332e-09 -1.7179208063361030e-09 0.0000000000000000e+00  7.8384593625176585e-09 -7.6045657193070035e-10 0.0000000000000000e+00  8.0237899362664969e-09 9.5876265058838667e-11 0.0000000000000000e+00  7.8749581894958643e-09 9.5933290177616432e-10 0.0000000000000000e+00  7.3870430635360314e-09 1.9375653078947517e-09 0.0000000000000000e+00  6.5453644920117154e-09 3.1478905422441161e-09 0.0000000000000000e+00  5.3361043059768886e-09 4.7238667710126742e-09 0.0000000000000000e+00  3.7709932338645847e-09 6.8096059714039704e-09 0.0000000000000000e+00  1.9354231649522600e-09 9.5184619739491258e-09 0.0000000000000000e+00  5.7032838400153273e-11 1.2808312066131591e-08 0.0000000000000000e+00  -1.4985284473546656e-09 1.6227357418480150e-08 0.0000000000000000e+00  -2.7403268999528143e-09 1.8691962614724845e-08 0.0000000000000000e+00  -6.6260897503439745e-09 1.8543294757131399e-08 0.0000000000000000e+00  -4.6795703605010603e-09 -1.8270067501687522e-08 0.0000000000000000e+00  -2.0677233114479565e-09 -1.8635188318056168e-08 0.0000000000000000e+00  -1.9890060908034857e-09 -1.6726331211637290e-08 0.0000000000000000e+00  -1.9093153299428218e-09 -1.3790142528973340e-08 0.0000000000000000e+00  -1.3210491818510902e-09 -1.0695593941252587e-08 0.0000000000000000e+00  -3.8928865085098283e-10 -7.9419330652953903e-09 0.0000000000000000e+00  6.1956057042221153e-10 -5.6683369650892175e-09 0.0000000000000000e+00  1.5154057815718841e-09 -3.8357454394460964e-09 0.0000000000000000e+00  2.1974864440473363e-09 -2.3408887151760417e-09 0.0000000000000000e+00  2.6223424853643276e-09 -1.0670165984614298e-09 0.0000000000000000e+00  2.7748764315764105e-09 9.9956022270686584e-11 0.0000000000000000e+00  2.6518058811043267e-09 1.2696744670567438e-09 0.0000000000000000e+00  2.2558721802326720e-09 2.5500494603317279e-09 0.0000000000000000e+00  1.5988885486321524e-09 4.0489944459948422e-09 0.0000000000000000e+00  7.1378525710115935e-10 5.8697166016481950e-09 0.0000000000000000e+00  -3.2315482974532714e-10 8.0905165002506779e-09 0.0000000000000000e+00  -1.3629614988637432e-09 1.0714585076100747e-08 0.0000000000000000e+00  -2.1720521918039140e-09 1.3576816671555430e-08 0.0000000000000000e+00  -2.5304593128262950e-09 1.6232712172270240e-08 0.0000000000000000e+00  -2.7196793097503419e-09 1.7983796405732873e-08 0.0000000000000000e+00  -5.2916840622335857e-09 1.8292118141116093e-08 0.0000000000000000e+00  -4.0054371926173705e-09 -1.6848959680380387e-08 0.0000000000000000e+00  -2.1983399380195855e-09 -1.7348891289026962e-08 0.0000000000000000e+00  -2.6544802975605519e-09 -1.5999225624915490e-08 0.0000000000000000e+00  -3.2347240466274335e-09 -1.3769713874593980e-08 0.0000000000000000e+00  -3.4012402957141914e-09 -1.1194037762900044e-08 0.0000000000000000e+00  -3.1819955000401222e-09 -8.6794475035038096e-09 0.0000000000000000e+00  -2.7505333520233142e-09 -6.4255192720918449e-09 0.0000000000000000e+00  -2.2726742583809285e-09 -4.4775671144024228e-09 0.0000000000000000e+00  -1.8639121346878131e-09 -2.7961888786275428e-09 0.0000000000000000e+00  -1.5920299222896880e-09 -1.3036585757257348e-09 0.0000000000000000e+00  -1.4907720147704872e-09 9.1995393421582721e-11 0.0000000000000000e+00  -1.5708725824144944e-09 1.4861488390473744e-09 0.0000000000000000e+00  -1.8246907492782920e-09 2.9721993808141499e-09 0.0000000000000000e+00  -2.2241275791503385e-09 4.6357917133342109e-09 0.0000000000000000e+00  -2.7124806397525990e-09 6.5432338327195364e-09 0.0000000000000000e+00  -3.1926735275492861e-09 8.7181675221550975e-09 0.0000000000000000e+00  -3.5202499552094868e-09 1.1101821739872675e-08 0.0000000000000000e+00  -3.5250894426810593e-09 1.3501964593203447e-08 0.0000000000000000e+00  -3.1237227367242649e-09 1.5564664904773181e-08 0.0000000000000000e+00  -2.7053634430163334e-09 1.6857132494828799e-08 0.0000000000000000e+00  -4.4310074047457329e-09 1.7382218512654336e-08 0.0000000000000000e+00  -3.5373054849034590e-09 -1.5228517723618260e-08 0.0000000000000000e+00  -2.3065267678205302e-09 -1.5825790536904871e-08 0.0000000000000000e+00  -3.1172905080934261e-09 -1.4834291631431329e-08 0.0000000000000000e+00  -4.1276222107101569e-09 -1.3116320751775783e-08 0.0000000000000000e+00  -4.8231357612014084e-09 -1.1008609117047736e-08 0.0000000000000000e+00  -5.1553723351163515e-09 -8.8087662056058241e-09 0.0000000000000000e+00  -5.2194325434808143e-09 -6.7064006319032727e-09 0.0000000000000000e+00  -5.1360444425807199e-09 -4.7829009662020028e-09 0.0000000000000000e+00  -5.0062310457380540e-09 -3.0425891991579311e-09 0.0000000000000000e+00  -4.8994073797439918e-09 -1.4441941262173849e-09 0.0000000000000000e+00  -4.8549850258712446e-09 7.6640762536190396e-11 0.0000000000000000e+00  -4.8867684704415652e-09 1.5929293670642190e-09 0.0000000000000000e+00  -4.9854231825554786e-09 3.1761113594380697e-09 0.0000000000000000e+00  -5.1177199022038870e-09 4.8859106767409571e-09 0.0000000000000000e+00  -5.2234270709606727e-09 6.7565876685994876e-09 0.0000000000000000e+00  -5.2132216412381518e-09 8.7769799468772600e-09 0.0000000000000000e+00  -4.9753947773371992e-09 1.0865142895903263e-08 0.0000000000000000e+00  -4.4076994959837981e-09 1.2846785601285265e-08 0.0000000000000000e+00  -3.5133298987033905e-09 1.4461590992215785e-08 0.0000000000000000e+00  -2.7048931500204429e-09 1.5442319345367357e-08 0.0000000000000000e+00  -3.8359301031720512e-09 1.6087639348208626e-08 0.0000000000000000e+00  -3.1944206562213594e-09 -1.3462360383283251e-08 0.0000000000000000e+00  -2.3955460851406930e-09 -1.4131801533008649e-08 0.0000000000000000e+00  -3.4577460993216263e-09 -1.3384586316069311e-08 0.0000000000000000e+00  -4.7587747055636366e-09 -1.2044361733343339e-08 0.0000000000000000e+00  -5.8222914894601294e-09 -1.0331421080401400e-08 0.0000000000000000e+00  -6.5621051789895139e-09 -8.4559753854354672e-09 0.0000000000000000e+00  -7.0180693553748270e-09 -6.5742530918855049e-09 0.0000000000000000e+00  -7.2672256971014150e-09 -4.7734904564287708e-09 0.0000000000000000e+00  -7.3853476071161169e-09 -3.0813410998158497e-09 0.0000000000000000e+00  -7.4308452737415038e-09 -1.4836825054580836e-09 0.0000000000000000e+00  -7.4398196616024120e-09 5.8280170012098588e-11 0.0000000000000000e+00  -7.4256918221974430e-09 1.5940685115894880e-09 0.0000000000000000e+00  -7.3797888883677373e-09 3.1722551487334521e-09 0.0000000000000000e+00  -7.2716198454014913e-09 4.8290860657929590e-09 0.0000000000000000e+00  -7.0495384739162354e-09 6.5756389749760125e-09 0.0000000000000000e+00  -6.6444871632706236e-09 8.3831107828412270e-09 0.0000000000000000e+00  -5.9820427863643071e-09 1.0168825273687552e-08 0.0000000000000000e+00  -5.0126665356955205e-09 1.1790521813683211e-08 0.0000000000000000e+00  -3.7877220613216993e-09 1.3062940637702873e-08 0.0000000000000000e+00  -2.7108380167246001e-09 1.3820950516092040e-08 0.0000000000000000e+00  -3.4051769554054138e-09 1.4542272644714318e-08 0.0000000000000000e+00  -2.9355910936981408e-09 -1.1586390015007279e-08 0.0000000000000000e+00  -2.4673977719833721e-09 -1.2310121730466144e-08 0.0000000000000000e+00  -3.7139837167741516e-09 -1.1739742897146254e-08 0.0000000000000000e+00  -5.2165694875625418e-09 -1.0688974184517155e-08 0.0000000000000000e+00  -6.5359902913915520e-09 -9.3072725884175104e-09 0.0000000000000000e+00  -7.5693253645513644e-09 -7.7416303021453711e-09 0.0000000000000000e+00  -8.3204179322089906e-09 -6.1126945488826429e-09 0.0000000000000000e+00  -8.8312296416145800e-09 -4.4991478931165606e-09 0.0000000000000000e+00  -9.1517983342074504e-09 -2.9374828793791154e-09 0.0000000000000000e+00  -9.3249837479694864e-09 -1.4307070696493512e-09 0.0000000000000000e+00  -9.3791853528568051e-09 4.0085536634077485e-11 0.0000000000000000e+00  -9.3254989093345952e-09 1.5042094471446138e-09 0.0000000000000000e+00  -9.1571475896049714e-09 2.9905854990684601e-09 0.0000000000000000e+00  -8.8503194616506635e-09 4.5172391703912422e-09 0.0000000000000000e+00  -8.3668239438583815e-09 6.0807457470103923e-09 0.0000000000000000e+00  -7.6601938371298788e-09 7.6462766432834993e-09 0.0000000000000000e+00  -6.6881681504321463e-09 9.1407984080057675e-09 0.0000000000000000e+00  -5.4377280959410907e-09 1.0454356721273337e-08 0.0000000000000000e+00  -3.9855049906624356e-09 1.1457162755743735e-08 0.0000000000000000e+00  -2.7170674993572422e-09 1.2048071578298081e-08 0.0000000000000000e+00  -3.0845044382529410e-09 1.2821044910060495e-08 0.0000000000000000e+00  -2.7380428555848740e-09 -9.6277648277361548e-09 0.0000000000000000e+00  -2.5244091432941395e-09 -1.0392586219066238e-08 0.0000000000000000e+00  -3.9076750733030054e-09 -9.9579175683961741e-09 0.0000000000000000e+00  -5.5515104513091863e-09 -9.1388977090932945e-09 0.0000000000000000e+00  -7.0483167506253507e-09 -8.0403886916446430e-09 0.0000000000000000e+00  -8.2889237243025196e-09 -6.7647654302805885e-09 0.0000000000000000e+00  -9.2545625692324616e-09 -5.4017810285597646e-09 0.0000000000000000e+00  -9.9614058210534152e-09 -4.0163848921432289e-09 0.0000000000000000e+00  -1.0437637450474340e-08 -2.6452327276073560e-09 0.0000000000000000e+00  -1.0710798813970162e-08 -1.3002825355265979e-09 0.0000000000000000e+00  -1.0800526418808029e-08 2.3931244231938784e-11 0.0000000000000000e+00  -1.0714910869688071e-08 1.3416861832607694e-09 0.0000000000000000e+00  -1.0449421571060714e-08 2.6672462459315559e-09 0.0000000000000000e+00  -9.9879267195657907e-09 4.0062531516923421e-09 0.0000000000000000e+00  -9.3059825840515295e-09 5.3477391987662086e-09 0.0000000000000000e+00  -8.3771589175879233e-09 6.6577418988051231e-09 0.0000000000000000e+00  -7.1838892977550040e-09 7.8764674022807592e-09 0.0000000000000000e+00  -5.7372757859444566e-09 8.9218860874800479e-09 0.0000000000000000e+00  -4.1268646252179056e-09 9.7041964720902877e-09 0.0000000000000000e+00  -2.7201856139851328e-09 1.0163335006818467e-08 0.0000000000000000e+00  -2.8426768699450949e-09 1.0972092136831466e-08 0.0000000000000000e+00  -2.5885168694358107e-09 -7.6081476906543614e-09 0.0000000000000000e+00  -2.5691993312882853e-09 -8.4040568386362054e-09 0.0000000000000000e+00  -4.0531286453245357e-09 -8.0796341918209781e-09 0.0000000000000000e+00  -5.7954405634917109e-09 -7.4548433668646924e-09 0.0000000000000000e+00  -7.4137404095175329e-09 -6.6053758681425914e-09 0.0000000000000000e+00  -8.7975221991979412e-09 -5.6019539330417722e-09 0.0000000000000000e+00  -9.9141400407615401e-09 -4.5092385269645668e-09 0.0000000000000000e+00  -1.0761797708637533e-08 -3.3775893597386566e-09 0.0000000000000000e+00  -1.1351871839597397e-08 -2.2391650999545492e-09 0.0000000000000000e+00  -1.1699019257961137e-08 -1.1089944477018295e-09 0.0000000000000000e+00  -1.1814922689915724e-08 1.0691697561788636e-11 0.0000000000000000e+00  -1.1704773282544636e-08 1.1244563126857489e-09 0.0000000000000000e+00  -1.1366100780250384e-08 2.2370632988450680e-09 0.0000000000000000e+00  -1.0789757226991831e-08 3.3470092156801926e-09 0.0000000000000000e+00  -9.9630777029255703e-09 4.4408492088400657e-09 0.0000000000000000e+00  -8.8754589069032051e-09 5.4892484592136424e-09 0.0000000000000000e+00  -7.5271054503803805e-09 6.4460831299497130e-09 0.0000000000000000e+00  -5.9447110898297169e-09 7.2521906645444612e-09 0.0000000000000000e+00  -4.2244082487949341e-09 7.8466790491492664e-09 0.0000000000000000e+00  -2.7188751390516853e-09 8.1966706971670964e-09 0.0000000000000000e+00  -2.6608353869795815e-09 9.0296458125979062e-09 0.0000000000000000e+00  -2.4791146144678322e-09 -5.5452031506150522e-09 0.0000000000000000e+00  -2.6044145752179955e-09 -6.3644591096609045e-09 0.0000000000000000e+00  -4.1606827645275388e-09 -6.1345185282507122e-09 0.0000000000000000e+00  -5.9699311740134877e-09 -5.6798136473028862e-09 0.0000000000000000e+00  -7.6690857652933527e-09 -5.0560776147920968e-09 0.0000000000000000e+00  -9.1484302833679970e-09 -4.3110079686769464e-09 0.0000000000000000e+00  -1.0367037221423738e-08 -3.4891427521471126e-09 0.0000000000000000e+00  -1.1311162998832850e-08 -2.6270340388740947e-09 0.0000000000000000e+00  -1.1980181141969636e-08 -1.7500461494716371e-09 0.0000000000000000e+00  -1.2378977789403533e-08 -8.7235429539383837e-10 0.0000000000000000e+00  -1.2512902321031616e-08 6.1179298757184038e-13 0.0000000000000000e+00  -1.2384735461108025e-08 8.6825830359833424e-10 0.0000000000000000e+00  -1.1993623549473019e-08 1.7302918797997091e-09 0.0000000000000000e+00  -1.1335942561745785e-08 2.5822381547752853e-09 0.0000000000000000e+00  -1.0408038866808283e-08 3.4116563843910314e-09 0.0000000000000000e+00  -9.2108241851442125e-09 4.1957790705584085e-09 0.0000000000000000e+00  -7.7566699805388095e-09 4.9014140035451356e-09 0.0000000000000000e+00  -6.0822006763647464e-09 5.4879880940626096e-09 0.0000000000000000e+00  -4.2870412002858460e-09 5.9160069343872418e-09 0.0000000000000000e+00  -2.7130855012929784e-09 6.1713257054215683e-09 0.0000000000000000e+00  -2.5272568686071682e-09 7.0195695687399284e-09 0.0000000000000000e+00  -2.4051844519796127e-09 -3.4535832022159174e-09 0.0000000000000000e+00  -2.6324655627110102e-09 -4.2900216063345633e-09 0.0000000000000000e+00  -4.2379777583823232e-09 -4.1450380396407935e-09 0.0000000000000000e+00  -6.0899803648291975e-09 -3.8452873891372331e-09 0.0000000000000000e+00  -7.8395376704283982e-09 -3.4320410461909590e-09 0.0000000000000000e+00  -9.3784978051761203e-09 -2.9354861736175006e-09 0.0000000000000000e+00  -1.0661294508944825e-08 -2.3836996148207346e-