<?xml version="1.0"?>
<VTKFile type="UnstructuredGrid"  version="0.1"  >
<UnstructuredGrid>
<Piece  NumberOfPoints="651" NumberOfCells="1200">
<Points>
<DataArray  type="Float64"  NumberOfComponents="3"  format="ascii">0 0 0  50000 0 0  100000 0 0  150000 0 0  200000 0 0  250000 0 0  300000 0 0  350000 0 0  400000 0 0  450000 0 0  500000 0 0  550000 0 0  600000 0 0  650000 0 0  700000 0 0  750000 0 0  800000 0 0  850000 0 0  900000 0 0  950000 0 0  1000000 0 0  0 50000 0  50000 50000 0  100000 50000 0  150000 50000 0  200000 50000 0  250000 50000 0  300000 50000 0  350000 50000 0  400000 50000 0  450000 50000 0  500000 50000 0  550000 50000 0  600000 50000 0  650000 50000 0  700000 50000 0  750000 50000 0  800000 50000 0  850000 50000 0  900000 50000 0  950000 50000 0  1000000 50000 0  0 100000 0  50000 100000 0  100000 100000 0  150000 100000 0  200000 100000 0  250000 100000 0  300000 100000 0  350000 100000 0  400000 100000 0  450000 100000 0  500000 100000 0  550000 100000 0  600000 100000 0  650000 100000 0  700000 100000 0  750000 100000 0  800000 100000 0  850000 100000 0  900000 100000 0  950000 100000 0  1000000 100000 0  0 150000 0  50000 150000 0  100000 150000 0  150000 150000 0  200000 150000 0  250000 150000 0  300000 150000 0  350000 150000 0  400000 150000 0  450000 150000 0  500000 150000 0  550000 150000 0  600000 150000 0  650000 150000 0  700000 150000 0  750000 150000 0  800000 150000 0  850000 150000 0  900000 150000 0  950000 150000 0  1000000 150000 0  0 200000 0  50000 200000 0  100000 200000 0  150000 200000 0  200000 200000 0  250000 200000 0  300000 200000 0  350000 200000 0  400000 200000 0  450000 200000 0  500000 200000 0  550000 200000 0  600000 200000 0  650000 200000 0  700000 200000 0  750000 200000 0  800000 200000 0  850000 200000 0  900000 200000 0  950000 200000 0  1000000 200000 0  0 250000 0  50000 250000 0  100000 250000 0  150000 250000 0  200000 250000 0  250000 250000 0  300000 250000 0  350000 250000 0  400000 250000 0  450000 250000 0  500000 250000 0  550000 250000 0  600000 250000 0  650000 250000 0  700000 250000 0  750000 250000 0  800000 250000 0  850000 250000 0  900000 250000 0  950000 250000 0  1000000 250000 0  0 300000 0  50000 300000 0  100000 300000 0  150000 300000 0  200000 300000 0  250000 300000 0  300000 300000 0  350000 300000 0  400000 300000 0  450000 300000 0  500000 300000 0  550000 300000 0  600000 300000 0  650000 300000 0  700000 300000 0  750000 300000 0  800000 300000 0  850000 300000 0  900000 300000 0  950000 300000 0  1000000 300000 0  0 350000 0  50000 350000 0  100000 350000 0  150000 350000 0  200000 350000 0  250000 350000 0  300000 350000 0  350000 350000 0  400000 350000 0  450000 350000 0  500000 350000 0  550000 350000 0  600000 350000 0  650000 350000 0  700000 350000 0  750000 350000 0  800000 350000 0  850000 350000 0  900000 350000 0  950000 350000 0  1000000 350000 0  0 400000 0  50000 400000 0  100000 400000 0  150000 400000 0  200000 400000 0  250000 400000 0  300000 400000 0  350000 400000 0  400000 400000 0  450000 400000 0  500000 400000 0  550000 400000 0  600000 400000 0  650000 400000 0  700000 400000 0  750000 400000 0  800000 400000 0  850000 400000 0  900000 400000 0  950000 400000 0  1000000 400000 0  0 450000 0  50000 450000 0  100000 450000 0  150000 450000 0  200000 450000 0  250000 450000 0  300000 450000 0  350000 450000 0  400000 450000 0  450000 450000 0  500000 450000 0  550000 450000 0  600000 450000 0  650000 450000 0  700000 450000 0  750000 450000 0  800000 450000 0  850000 450000 0  900000 450000 0  950000 450000 0  1000000 450000 0  0 500000 0  50000 500000 0  100000 500000 0  150000 500000 0  200000 500000 0  250000 500000 0  300000 500000 0  350000 500000 0  400000 500000 0  450000 500000 0  500000 500000 0  550000 500000 0  600000 500000 0  650000 500000 0  700000 500000 0  750000 500000 0  800000 500000 0  850000 500000 0  900000 500000 0  950000 500000 0  1000000 500000 0  0 550000 0  50000 550000 0  100000 550000 0  150000 550000 0  200000 550000 0  250000 550000 0  300000 550000 0  350000 550000 0  400000 550000 0  450000 550000 0  500000 550000 0  550000 550000 0  600000 550000 0  650000 550000 0  700000 550000 0  750000 550000 0  800000 550000 0  850000 550000 0  900000 550000 0  950000 550000 0  1000000 550000 0  0 600000 0  50000 600000 0  100000 600000 0  150000 600000 0  200000 600000 0  250000 600000 0  300000 600000 0  350000 600000 0  400000 600000 0  450000 600000 0  500000 600000 0  550000 600000 0  600000 600000 0  650000 600000 0  700000 600000 0  750000 600000 0  800000 600000 0  850000 600000 0  900000 600000 0  950000 600000 0  1000000 600000 0  0 650000 0  50000 650000 0  100000 650000 0  150000 650000 0  200000 650000 0  250000 650000 0  300000 650000 0  350000 650000 0  400000 650000 0  450000 650000 0  500000 650000 0  550000 650000 0  600000 650000 0  650000 650000 0  700000 650000 0  750000 650000 0  800000 650000 0  850000 650000 0  900000 650000 0  950000 650000 0  1000000 650000 0  0 700000 0  50000 700000 0  100000 700000 0  150000 700000 0  200000 700000 0  250000 700000 0  300000 700000 0  350000 700000 0  400000 700000 0  450000 700000 0  500000 700000 0  550000 700000 0  600000 700000 0  650000 700000 0  700000 700000 0  750000 700000 0  800000 700000 0  850000 700000 0  900000 700000 0  950000 700000 0  1000000 700000 0  0 750000 0  50000 750000 0  100000 750000 0  150000 750000 0  200000 750000 0  250000 750000 0  300000 750000 0  350000 750000 0  400000 750000 0  450000 750000 0  500000 750000 0  550000 750000 0  600000 750000 0  650000 750000 0  700000 750000 0  750000 750000 0  800000 750000 0  850000 750000 0  900000 750000 0  950000 750000 0  1000000 750000 0  0 800000 0  50000 800000 0  100000 800000 0  150000 800000 0  200000 800000 0  250000 800000 0  300000 800000 0  350000 800000 0  400000 800000 0  450000 800000 0  500000 800000 0  550000 800000 0  600000 800000 0  650000 800000 0  700000 800000 0  750000 800000 0  800000 800000 0  850000 800000 0  900000 800000 0  950000 800000 0  1000000 800000 0  0 850000 0  50000 850000 0  100000 850000 0  150000 850000 0  200000 850000 0  250000 850000 0  300000 850000 0  350000 850000 0  400000 850000 0  450000 850000 0  500000 850000 0  550000 850000 0  600000 850000 0  650000 850000 0  700000 850000 0  750000 850000 0  800000 850000 0  850000 850000 0  900000 850000 0  950000 850000 0  1000000 850000 0  0 900000 0  50000 900000 0  100000 900000 0  150000 900000 0  200000 900000 0  250000 900000 0  300000 900000 0  350000 900000 0  400000 900000 0  450000 900000 0  500000 900000 0  550000 900000 0  600000 900000 0  650000 900000 0  700000 900000 0  750000 900000 0  800000 900000 0  850000 900000 0  900000 900000 0  950000 900000 0  1000000 900000 0  0 950000 0  50000 950000 0  100000 950000 0  150000 950000 0  200000 950000 0  250000 950000 0  300000 950000 0  350000 950000 0  400000 950000 0  450000 950000 0  500000 950000 0  550000 950000 0  600000 950000 0  650000 950000 0  700000 950000 0  750000 950000 0  800000 950000 0  850000 950000 0  900000 950000 0  950000 950000 0  1000000 950000 0  0 1000000 0  50000 1000000 0  100000 1000000 0  150000 1000000 0  200000 1000000 0  250000 1000000 0  300000 1000000 0  350000 1000000 0  400000 1000000 0  450000 1000000 0  500000 1000000 0  550000 1000000 0  600000 1000000 0  650000 1000000 0  700000 1000000 0  750000 1000000 0  800000 1000000 0  850000 1000000 0  900000 1000000 0  950000 1000000 0  1000000 1000000 0  0 1050000 0  50000 1050000 0  100000 1050000 0  150000 1050000 0  200000 1050000 0  250000 1050000 0  300000 1050000 0  350000 1050000 0  400000 1050000 0  450000 1050000 0  500000 1050000 0  550000 1050000 0  600000 1050000 0  650000 1050000 0  700000 1050000 0  750000 1050000 0  800000 1050000 0  850000 1050000 0  900000 1050000 0  950000 1050000 0  1000000 1050000 0  0 1100000 0  50000 1100000 0  100000 1100000 0  150000 1100000 0  200000 1100000 0  250000 1100000 0  300000 1100000 0  350000 1100000 0  400000 1100000 0  450000 1100000 0  500000 1100000 0  550000 1100000 0  600000 1100000 0  650000 1100000 0  700000 1100000 0  750000 1100000 0  800000 1100000 0  850000 1100000 0  900000 1100000 0  950000 1100000 0  1000000 1100000 0  0 1150000 0  50000 1150000 0  100000 1150000 0  150000 1150000 0  200000 1150000 0  250000 1150000 0  300000 1150000 0  350000 1150000 0  400000 1150000 0  450000 1150000 0  500000 1150000 0  550000 1150000 0  600000 1150000 0  650000 1150000 0  700000 1150000 0  750000 1150000 0  800000 1150000 0  850000 1150000 0  900000 1150000 0  950000 1150000 0  1000000 1150000 0  0 1200000 0  50000 1200000 0  100000 1200000 0  150000 1200000 0  200000 1200000 0  250000 1200000 0  300000 1200000 0  350000 1200000 0  400000 1200000 0  450000 1200000 0  500000 1200000 0  550000 1200000 0  600000 1200000 0  650000 1200000 0  700000 1200000 0  750000 1200000 0  800000 1200000 0  850000 1200000 0  900000 1200000 0  950000 1200000 0  1000000 1200000 0  0 1250000 0  50000 1250000 0  100000 1250000 0  150000 1250000 0  200000 1250000 0  250000 1250000 0  300000 1250000 0  350000 1250000 0  400000 1250000 0  450000 1250000 0  500000 1250000 0  550000 1250000 0  600000 1250000 0  650000 1250000 0  700000 1250000 0  750000 1250000 0  800000 1250000 0  850000 1250000 0  900000 1250000 0  950000 1250000 0  1000000 1250000 0  0 1300000 0  50000 1300000 0  100000 1300000 0  150000 1300000 0  200000 1300000 0  250000 1300000 0  300000 1300000 0  350000 1300000 0  400000 1300000 0  450000 1300000 0  500000 1300000 0  550000 1300000 0  600000 1300000 0  650000 1300000 0  700000 1300000 0  750000 1300000 0  800000 1300000 0  850000 1300000 0  900000 1300000 0  950000 1300000 0  1000000 1300000 0  0 1350000 0  50000 1350000 0  100000 1350000 0  150000 1350000 0  200000 1350000 0  250000 1350000 0  300000 1350000 0  350000 1350000 0  400000 1350000 0  450000 1350000 0  500000 1350000 0  550000 1350000 0  600000 1350000 0  650000 1350000 0  700000 135
[...]
<PointData  Vectors="f_1513"> 
<DataArray  type="Float64"  Name="f_1513"  NumberOfComponents="3" format="ascii">-2.4490777388340402e-08 -1.0122768227091361e-08 0.0000000000000000e+00  4.8584722842536511e-08 -6.2158785018613700e-09 0.0000000000000000e+00  4.2883253393852604e-08 -1.9372636366475152e-09 0.0000000000000000e+00  4.0452272171031541e-08 -5.9407410519405252e-10 0.0000000000000000e+00  3.9268305899486567e-08 -1.4138584530325345e-10 0.0000000000000000e+00  3.8499014513006448e-08 3.8476721791123900e-11 0.0000000000000000e+00  3.7947840504593057e-08 1.1271912270978696e-10 0.0000000000000000e+00  3.7558121840664431e-08 1.3876793464655235e-10 0.0000000000000000e+00  3.7312170102096294e-08 1.4128572032660016e-10 0.0000000000000000e+00  3.7205591296587396e-08 1.3360403547191333e-10 0.0000000000000000e+00  3.7239555579272361e-08 1.2504129884730186e-10 0.0000000000000000e+00  3.7419030926830084e-08 1.2420827345027709e-10 0.0000000000000000e+00  3.7754361573658061e-08 1.4151481467380224e-10 0.0000000000000000e+00  3.8267293705134248e-08 1.9270349008091918e-10 0.0000000000000000e+00  3.9007026790959586e-08 3.0615763550858747e-10 0.0000000000000000e+00  4.0092717434375581e-08 5.4101460038928484e-10 0.0000000000000000e+00  4.1825818223538548e-08 1.0358182752327015e-09 0.0000000000000000e+00  4.4953456362052936e-08 2.1351705415781470e-09 0.0000000000000000e+00  5.0805534199308780e-08 4.6565669685817018e-09 0.0000000000000000e+00  5.8052500257125794e-08 9.1674496128151119e-09 0.0000000000000000e+00  -1.6400672345168004e-08 7.0619122422949408e-09 0.0000000000000000e+00  -1.8264412588571931e-08 -1.5683855518608280e-08 0.0000000000000000e+00  7.1951704956201554e-09 -1.1234621904019991e-08 0.0000000000000000e+00  1.8062814940123084e-08 -5.2411949205188732e-09 0.0000000000000000e+00  2.3143412552414205e-08 -2.3900685186434017e-09 0.0000000000000000e+00  2.5756434160767534e-08 -1.1361426809518788e-09 0.0000000000000000e+00  2.7239275979293941e-08 -5.4497345572640759e-10 0.0000000000000000e+00  2.8105234965670553e-08 -2.4878235770026978e-10 0.0000000000000000e+00  2.8614697699918761e-08 -9.7516528855033233e-11 0.0000000000000000e+00  2.8911363269654805e-08 -2.2206334559601226e-11 0.0000000000000000e+00  2.9075530766557628e-08 1.4452393895665575e-11 0.0000000000000000e+00  2.9149243789679552e-08 3.6976571762754470e-11 0.0000000000000000e+00  2.9147801426670030e-08 6.5806208379523518e-11 0.0000000000000000e+00  2.9063745833133596e-08 1.2308002692979162e-10 0.0000000000000000e+00  2.8865324597094037e-08 2.3925322507395664e-10 0.0000000000000000e+00  2.8488417638992706e-08 4.6489471851431085e-10 0.0000000000000000e+00  2.7815885983773108e-08 8.9660468993044320e-10 0.0000000000000000e+00  2.6622307108202603e-08 1.7379102680895639e-09 0.0000000000000000e+00  2.4396647718448982e-08 3.4350617750125782e-09 0.0000000000000000e+00  1.9695435978862649e-08 6.8785962496395803e-09 0.0000000000000000e+00  8.2730227867396658e-09 1.3032872116737711e-08 0.0000000000000000e+00  -1.8369854762180216e-08 1.0991630611879786e-08 0.0000000000000000e+00  -1.1302388681835325e-08 -1.9300203705348703e-08 0.0000000000000000e+00  -2.9210338405124657e-10 -1.8405000784536946e-08 0.0000000000000000e+00  5.7931097903404739e-09 -1.1369566699773822e-08 0.0000000000000000e+00  1.0664707321831438e-08 -6.6062298378694511e-09 0.0000000000000000e+00  1.4482528424958474e-08 -3.8433542931074080e-09 0.0000000000000000e+00  1.7138648966178791e-08 -2.2681490094757695e-09 0.0000000000000000e+00  1.8918113845561324e-08 -1.3435533581727736e-09 0.0000000000000000e+00  2.0085232957241683e-08 -7.7961161374723312e-10 0.0000000000000000e+00  2.0819027354644266e-08 -4.1771231036255864e-10 0.0000000000000000e+00  2.1229922803736610e-08 -1.6369052203022563e-10 0.0000000000000000e+00  2.1377998119911236e-08 4.6606510348415262e-11 0.0000000000000000e+00  2.1283950970490088e-08 2.6618466743119301e-10 0.0000000000000000e+00  2.0933067121550483e-08 5.5004679727093263e-10 0.0000000000000000e+00  2.0272822152931526e-08 9.6883016330506956e-10 0.0000000000000000e+00  1.9203514879005021e-08 1.6288681228104856e-09 0.0000000000000000e+00  1.7560019761682399e-08 2.7063913146273497e-09 0.0000000000000000e+00  1.5083305382711139e-08 4.5023056489599736e-09 0.0000000000000000e+00  1.1391971118678964e-08 7.4907300157981114e-09 0.0000000000000000e+00  6.0209212192342375e-09 1.2138488343516492e-08 0.0000000000000000e+00  -1.2895078993596766e-09 1.7591898670725610e-08 0.0000000000000000e+00  -1.3205670959280468e-08 1.4733005102969494e-08 0.0000000000000000e+00  -7.6164690958982669e-09 -1.9936483593200181e-08 0.0000000000000000e+00  -1.5684450399617916e-09 -1.9813595063691029e-08 0.0000000000000000e+00  1.1079284912210797e-09 -1.5321323061884402e-08 0.0000000000000000e+00  3.8637663961182737e-09 -1.0480365027720204e-08 0.0000000000000000e+00  6.7497462843961926e-09 -6.9111309865782710e-09 0.0000000000000000e+00  9.2674402355454424e-09 -4.4988013070260612e-09 0.0000000000000000e+00  1.1213363379147623e-08 -2.8923837376000339e-09 0.0000000000000000e+00  1.2608698644986711e-08 -1.8031067633996052e-09 0.0000000000000000e+00  1.3536263552613014e-08 -1.0314945653266940e-09 0.0000000000000000e+00  1.4070065189711500e-08 -4.4003891016138295e-10 0.0000000000000000e+00  1.4257154288334134e-08 7.3718250464678754e-11 0.0000000000000000e+00  1.4114761290527292e-08 5.9726467853792169e-10 0.0000000000000000e+00  1.3630414451784213e-08 1.2190986755602015e-09 0.0000000000000000e+00  1.2762138231393236e-08 2.0442101603402159e-09 0.0000000000000000e+00  1.1439944695298582e-08 3.2116292783680294e-09 0.0000000000000000e+00  9.5748133499387958e-09 4.9124311444028300e-09 0.0000000000000000e+00  7.0920123836621660e-09 7.3903831942035534e-09 0.0000000000000000e+00  4.0229010065819826e-09 1.0854735634589807e-08 0.0000000000000000e+00  6.6157799267595435e-10 1.5113744011203066e-08 0.0000000000000000e+00  -2.6277981590093011e-09 1.8752323396523981e-08 0.0000000000000000e+00  -8.9079545213676864e-09 1.7567827636300782e-08 0.0000000000000000e+00  -5.7578644453178409e-09 -1.9357188652327105e-08 0.0000000000000000e+00  -1.8996599881868191e-09 -1.9541330028206593e-08 0.0000000000000000e+00  -9.2324854703282833e-10 -1.6712458868915697e-08 0.0000000000000000e+00  1.9946287380454567e-10 -1.2841230992643524e-08 0.0000000000000000e+00  1.8242970916926058e-09 -9.3066882142331778e-09 0.0000000000000000e+00  3.5891237508922045e-09 -6.5256680101673418e-09 0.0000000000000000e+00  5.1699352623525943e-09 -4.4483943897585581e-09 0.0000000000000000e+00  6.4203434777584096e-09 -2.9045540789192644e-09 0.0000000000000000e+00  7.3051701183198250e-09 -1.7247751051827874e-09 0.0000000000000000e+00  7.8328990433390022e-09 -7.6619397799773195e-10 0.0000000000000000e+00  8.0190255585862750e-09 9.1336965919955901e-11 0.0000000000000000e+00  7.8709279601802483e-09 9.5599575584650460e-10 0.0000000000000000e+00  7.3836537116493365e-09 1.9353765410796257e-09 0.0000000000000000e+00  6.5425066204651483e-09 3.1467519910048996e-09 0.0000000000000000e+00  5.3336646479739855e-09 4.7236469999242077e-09 0.0000000000000000e+00  3.7688671639490407e-09 6.8101502384665837e-09 0.0000000000000000e+00  1.9335304315107131e-09 9.5196000416179829e-09 0.0000000000000000e+00  5.5341544207306789e-11 1.2809854862424656e-08 0.0000000000000000e+00  -1.4999487082092774e-09 1.6229040666882223e-08 0.0000000000000000e+00  -2.7417279648906833e-09 1.8692655298941346e-08 0.0000000000000000e+00  -6.6262537806916597e-09 1.8546216360443200e-08 0.0000000000000000e+00  -4.7036318173794315e-09 -1.8237370412775181e-08 0.0000000000000000e+00  -2.0696171874411819e-09 -1.8613490429799701e-08 0.0000000000000000e+00  -1.9893174574484048e-09 -1.6719057168084114e-08 0.0000000000000000e+00  -1.9111448894681772e-09 -1.3791096802309550e-08 0.0000000000000000e+00  -1.3247380527853735e-09 -1.0701121155493474e-08 0.0000000000000000e+00  -3.9426737180736549e-10 -7.9496432353378279e-09 0.0000000000000000e+00  6.1394465799931906e-10 -5.6767456305902757e-09 0.0000000000000000e+00  1.5096620846427521e-09 -3.8439529917614551e-09 0.0000000000000000e+00  2.1919545030944618e-09 -2.3483611817788608e-09 0.0000000000000000e+00  2.6172229523085386e-09 -1.0734495026543511e-09 0.0000000000000000e+00  2.7702690168843799e-09 9.4717609773418920e-11 0.0000000000000000e+00  2.6477401016862195e-09 1.2656822489518133e-09 0.0000000000000000e+00  2.2523298333518497e-09 2.5472795135428965e-09 0.0000000000000000e+00  1.5958205820070860e-09 4.0473646948800475e-09 0.0000000000000000e+00  7.1112625472974011e-10 5.8690985708013924e-09 0.0000000000000000e+00  -3.2547163452203670e-10 8.0907429894728730e-09 0.0000000000000000e+00  -1.3649860270348339e-09 1.0715452409908221e-08 0.0000000000000000e+00  -2.1737940075834473e-09 1.3578070655111762e-08 0.0000000000000000e+00  -2.5318582495731213e-09 1.6233972152398875e-08 0.0000000000000000e+00  -2.7212769071241594e-09 1.7983640090853970e-08 0.0000000000000000e+00  -5.2933187935598088e-09 1.8294408267839626e-08 0.0000000000000000e+00  -4.0308876964367007e-09 -1.6818576518316746e-08 0.0000000000000000e+00  -2.1999744260269873e-09 -1.7327647441313517e-08 0.0000000000000000e+00  -2.6532952617515929e-09 -1.5990477647811860e-08 0.0000000000000000e+00  -3.2342802834381102e-09 -1.3768806930955102e-08 0.0000000000000000e+00  -3.4023247033727083e-09 -1.1198040810949387e-08 0.0000000000000000e+00  -3.1844429923089635e-09 -8.6861808665445732e-09 0.0000000000000000e+00  -2.7539297194160409e-09 -6.4334602145060711e-09 0.0000000000000000e+00  -2.2765980246741590e-09 -4.4856984068090748e-09 0.0000000000000000e+00  -1.8680186671933315e-09 -2.8038543098272598e-09 0.0000000000000000e+00  -1.5960682965176922e-09 -1.3104517387652696e-09 0.0000000000000000e+00  -1.4945763160289360e-09 8.6307627377307079e-11 0.0000000000000000e+00  -1.5743462922128951e-09 1.4816760538821232e-09 0.0000000000000000e+00  -1.8277911360424981e-09 2.9689591300939165e-09 0.0000000000000000e+00  -2.2268514441038935e-09 4.6337291894670320e-09 0.0000000000000000e+00  -2.7148504981463819e-09 6.5422335354015385e-09 0.0000000000000000e+00  -3.1947225978469327e-09 8.7180585032779045e-09 0.0000000000000000e+00  -3.5220045385198269e-09 1.1102375042024765e-08 0.0000000000000000e+00  -3.5265506137954430e-09 1.3502871840055107e-08 0.0000000000000000e+00  -3.1248680785252341e-09 1.5565450915339648e-08 0.0000000000000000e+00  -2.7070724069523693e-09 1.6856138926059410e-08 0.0000000000000000e+00  -4.4343954294210373e-09 1.7383882910083546e-08 0.0000000000000000e+00  -3.5639573013679364e-09 -1.5200560577299385e-08 0.0000000000000000e+00  -2.3080103017171644e-09 -1.5805666206219646e-08 0.0000000000000000e+00  -3.1150005592026315e-09 -1.4824881476733167e-08 0.0000000000000000e+00  -4.1254304024233658e-09 -1.3114077558274413e-08 0.0000000000000000e+00  -4.8220684242505785e-09 -1.1011227238160212e-08 0.0000000000000000e+00  -5.1555413260699711e-09 -8.8143776817141369e-09 0.0000000000000000e+00  -5.2206397696140200e-09 -6.7135792705471173e-09 0.0000000000000000e+00  -5.1379936812676859e-09 -4.7906133682320431e-09 0.0000000000000000e+00  -5.0086264835274504e-09 -3.0501175442765813e-09 0.0000000000000000e+00  -4.9019968494472321e-09 -1.4510601586782399e-09 0.0000000000000000e+00  -4.8575740107420680e-09 7.0737162499038861e-11 0.0000000000000000e+00  -4.8892200259958686e-09 1.5881548523628348e-09 0.0000000000000000e+00  -4.9876517832738674e-09 3.1725294295600629e-09 0.0000000000000000e+00  -5.1196826388192969e-09 4.8835008205541823e-09 0.0000000000000000e+00  -5.2251130719851671e-09 6.7552557472873269e-09 0.0000000000000000e+00  -5.2146394595708097e-09 8.7765608633650496e-09 0.0000000000000000e+00  -4.9765577922897703e-09 1.0865394118622330e-08 0.0000000000000000e+00  -4.4086153759496912e-09 1.2847360582913360e-08 0.0000000000000000e+00  -3.5140372368473728e-09 1.4461943465627826e-08 0.0000000000000000e+00  -2.7066456722766470e-09 1.5440602949291947e-08 0.0000000000000000e+00  -3.8413331699898905e-09 1.6088762272180316e-08 0.0000000000000000e+00  -3.2220360670791498e-09 -1.3436941461099972e-08 0.0000000000000000e+00  -2.3969243891486098e-09 -1.4113264477559580e-08 0.0000000000000000e+00  -3.4546048499909456e-09 -1.3375116227417654e-08 0.0000000000000000e+00  -4.7552244697000787e-09 -1.2041275152579741e-08 0.0000000000000000e+00  -5.8194804060508642e-09 -1.0332917614754062e-08 0.0000000000000000e+00  -6.5603200676726186e-09 -8.4605076461837392e-09 0.0000000000000000e+00  -7.0172780223229232e-09 -6.5805574373099839e-09 0.0000000000000000e+00  -7.2672526113100927e-09 -4.7805882115563412e-09 0.0000000000000000e+00  -7.3859662281511813e-09 -3.0885074878004026e-09 0.0000000000000000e+00  -7.4318307111042750e-09 -1.4904025779727913e-09 0.0000000000000000e+00  -7.4409761627039276e-09 5.2354194545706240e-11 0.0000000000000000e+00  -7.4268647415802534e-09 1.5891520213787609e-09 0.0000000000000000e+00  -7.3808676456688807e-09 3.1684563841746702e-09 0.0000000000000000e+00  -7.2725356195716509e-09 4.8264222539030437e-09 0.0000000000000000e+00  -7.0502583992211821e-09 6.5740441670367946e-09 0.0000000000000000e+00  -6.6450057513412207e-09 8.3824356664757397e-09 0.0000000000000000e+00  -5.9823719039257211e-09 1.0168827272833641e-08 0.0000000000000000e+00  -5.0128340624150273e-09 1.1790834315850686e-08 0.0000000000000000e+00  -3.7878467757121050e-09 1.3062969982442185e-08 0.0000000000000000e+00  -2.7125766586908607e-09 1.3818710002401403e-08 0.0000000000000000e+00  -3.4128255573620761e-09 1.4543017058906703e-08 0.0000000000000000e+00  -2.9638832839904500e-09 -1.1563608822931898e-08 0.0000000000000000e+00  -2.4686894995950549e-09 -1.2293506268741173e-08 0.0000000000000000e+00  -3.7101771134636019e-09 -1.1730657493391400e-08 0.0000000000000000e+00  -5.2119672246797559e-09 -1.0685456903609266e-08 0.0000000000000000e+00  -6.5317941593460663e-09 -9.3079341492993824e-09 0.0000000000000000e+00  -7.5659251908173314e-09 -7.7452188986797283e-09 0.0000000000000000e+00  -8.3178970883741691e-09 -6.1181317550404271e-09 0.0000000000000000e+00  -8.8295112338931664e-09 -4.5055505795676353e-09 0.0000000000000000e+00  -9.1507247102876092e-09 -2.9441592883549092e-09 0.0000000000000000e+00  -9.3243689114111731e-09 -1.4371366283004236e-09 0.0000000000000000e+00  -9.3788484147088980e-09 3.4277594897737701e-11 0.0000000000000000e+00  -9.3252837619796046e-09 1.4992756214323405e-09 0.0000000000000000e+00  -9.1569331334374287e-09 2.9866742396295636e-09 0.0000000000000000e+00  -8.8500234907897251e-09 4.5144064018159704e-09 0.0000000000000000e+00  -8.3664026041438386e-09 6.0789592114681813e-09 0.0000000000000000e+00  -7.6596378857609650e-09 7.6454125497484212e-09 0.0000000000000000e+00  -6.6874983472642678e-09 9.1406282846227368e-09 0.0000000000000000e+00  -5.4370040196726477e-09 1.0454512891745211e-08 0.0000000000000000e+00  -3.9849415890291716e-09 1.1457028907339215e-08 0.0000000000000000e+00  -2.7187449123898706e-09 1.2045573908559050e-08 0.0000000000000000e+00  -3.0945839710898419e-09 1.2821649098897798e-08 0.0000000000000000e+00  -2.7666796929814690e-09 -9.6076947463297717e-09 0.0000000000000000e+00  -2.5256237899194656e-09 -1.0378123429565285e-08 0.0000000000000000e+00  -3.9033608331429536e-09 -9.9495395251850922e-09 0.0000000000000000e+00  -5.5461177672701258e-09 -9.1352770218211645e-09 0.0000000000000000e+00  -7.0430587761252526e-09 -8.0404801096985508e-09 0.0000000000000000e+00  -8.2842441627309193e-09 -6.7675806779088804e-09 0.0000000000000000e+00  -9.2506186076959863e-09 -5.4064271428702278e-09 0.0000000000000000e+00  -9.9581930268207780e-09 -4.0220933199962785e-09 0.0000000000000000e+00  -1.0435056355236336e-08 -2.6513698502771085e-09 0.0000000000000000e+00  -1.0708702812253240e-08 -1.3063454556080200e-09 0.0000000000000000e+00  -1.0798756381989383e-08 1.8326370381219832e-11 0.0000000000000000e+00  -1.0713318881038395e-08 1.3368173451908337e-09 0.0000000000000000e+00  -1.0447886247171811e-08 2.6632964557317783e-09 0.0000000000000000e+00  -9.9863622980091836e-09 4.0033167462439668e-09 0.0000000000000000e+00  -9.3043434179342025e-09 5.3458222324751306e-09 0.0000000000000000e+00  -8.3754407503430413e-09 6.6567554761148127e-09 0.0000000000000000e+00  -7.1821304329978679e-09 7.8762114195827483e-09 0.0000000000000000e+00  -5.7355767707685149e-09 8.9220114539351893e-09 0.0000000000000000e+00  -4.1255494139670889e-09 9.7040909956134972e-09 0.0000000000000000e+00  -2.7217668186213498e-09 1.0160899482527914e-08 0.0000000000000000e+00  -2.8553124492702370e-09 1.0972860493542643e-08 0.0000000000000000e+00  -2.6171280394211163e-09 -7.5908227190248543e-09 0.0000000000000000e+00  -2.5703464497113876e-09 -8.3918883164719196e-09 0.0000000000000000e+00  -4.0484573597733882e-09 -8.0721871218104494e-09 0.0000000000000000e+00  -5.7894984932068634e-09 -7.4513675345550827e-09 0.0000000000000000e+00  -7.4077225505951955e-09 -6.6051226183379321e-09 0.0000000000000000e+00  -8.7918923028192605e-09 -5.6041685664500284e-09 0.0000000000000000e+00  -9.9090968678027051e-09 -4.5132037380873245e-09 0.0000000000000000e+00  -1.0757384972071034e-08 -3.3826565743479349e-09 0.0000000000000000e+00  -1.1348033914029567e-08 -2.2447722037261626e-09 0.0000000000000000e+00  -1.1695643326063974e-08 -1.1146715352774072e-09 0.0000000000000000e+00  -1.1811871957766969e-08 5.3240734088871694e-12 0.0000000000000000e+00  -1.1701912257919042e-08 1.1196919208810019e-09 0.0000000000000000e+00  -1.1363313813038156e-08 2.2331145157044761e-09 0.0000000000000000e+00  -1.0786961653978315e-08 3.3440083055155731e-09 0.0000000000000000e+00  -9.9602328181765719e-09 4.4388448134891678e-09 0.0000000000000000e+00  -8.8725720741341850e-09 5.4881957223737843e-09 0.0000000000000000e+00  -7.5242391229655499e-09 6.4458246284537589e-09 0.0000000000000000e+00  -5.9420137783719648e-09 7.2524162039367061e-09 0.0000000000000000e+00  -4.2223220738340089e-09 7.8468096453896944e-09 0.0000000000000000e+00  -2.7203398462198397e-09 8.1946516794508448e-09 0.0000000000000000e+00  -2.6760780357105740e-09 9.0309333213789530e-09 0.0000000000000000e+00  -2.5073023364338712e-09 -5.5306057542412661e-09 0.0000000000000000e+00  -2.6055084698589881e-09 -6.3546424693493467e-09 0.0000000000000000e+00  -4.1558080760839008e-09 -6.1281419674131736e-09 0.0000000000000000e+00  -5.9636733526815655e-09 -5.6766605021218112e-09 0.0000000000000000e+00  -7.6625982313179826e-09 -5.0556608826498446e-09 0.0000000000000000e+00  -9.1421728605440181e-09 -4.3127804661274691e-09 0.0000000000000000e+00  -1.0361226077123402e-08 -3.4925491340330803e-09 0.0000000000000000e+00  -1.1305869615450305e-08 -2.6315432942591114e-09 0.0000000000000000e+00  -1.1975379378968872e-08 -1.7551728276707750e-09 0.0000000000000000e+00  -1.2374580410103077e-08 -8.7767016310873367e-10 0.0000000000000000e+00  -1.2508791684187446e-08 -4.5271785015553242e-12 0.0000000000000000e+00  -1.2380788823994533e-08 8.6359869288284091e-10 0.0000000000000000e+00  -1.1989733457899183e-08 1.7263494642496069e-09 0.0000000000000000e+00  -1.1332033053583355e-08 2.5791831394934711e-09 0.0000000000000000e+00  -1.0404078303782183e-08 3.4095843932236925e-09 0.0000000000000000e+00  -9.2068358889284852e-09 4.1946984482740003e-09 0.0000000000000000e+00  -7.7527449974368930e-09 4.9012244543628962e-09 0.0000000000000000e+00  -6.0785400717011818e-09 5.4884392078451739e-09 0.0000000000000000e+00  -4.2842100851500058e-09 5.9165837891380803e-09 0.0000000000000000e+00  -2.7144290616504388e-09 6.1700937048884026e-09 0.0000000000000000e+00  -2.5450737156957779e-09 7.0217611178918735e-09 0.0000000000000000e+00  -2.4325376822147988e-09 -3.4416344269053324e-09 0.0000000000000000e+00  -2.6335271691343308e-09 -4.2825327771074773e-09 0.0000000000000000e+00  -4.2330594759686724e-09 -4.1397979300137020e-09 0.0000000000000000e+00  -6.0836380456003095e-09 -3.8425727092542290e-09 0.0000000000000000e+00  -7.8328628389807431e-09 -3.4315983413745865e-09 0.0000000000000000e+00  -9.3719288252879816e-09 -2.9369528943227856e-09 0.0000000000000000e+00  -1.0655047133605007e-08 -2.3866674535041856e