<?xml version="1.0"?>
<VTKFile type="UnstructuredGrid"  version="0.1"  >
<UnstructuredGrid>
<Piece  NumberOfPoints="651" NumberOfCells="1200">
<Points>
<DataArray  type="Float64"  NumberOfComponents="3"  format="ascii">0 0 0  50000 0 0  100000 0 0  150000 0 0  200000 0 0  250000 0 0  300000 0 0  350000 0 0  400000 0 0  450000 0 0  500000 0 0  550000 0 0  600000 0 0  650000 0 0  700000 0 0  750000 0 0  800000 0 0  850000 0 0  900000 0 0  950000 0 0  1000000 0 0  0 50000 0  50000 50000 0  100000 50000 0  150000 50000 0  200000 50000 0  250000 50000 0  300000 50000 0  350000 50000 0  400000 50000 0  450000 50000 0  500000 50000 0  550000 50000 0  600000 50000 0  650000 50000 0  700000 50000 0  750000 50000 0  800000 50000 0  850000 50000 0  900000 50000 0  950000 50000 0  1000000 50000 0  0 100000 0  50000 100000 0  100000 100000 0  150000 100000 0  200000 100000 0  250000 100000 0  300000 100000 0  350000 100000 0  400000 100000 0  450000 100000 0  500000 100000 0  550000 100000 0  600000 100000 0  650000 100000 0  700000 100000 0  750000 100000 0  800000 100000 0  850000 100000 0  900000 100000 0  950000 100000 0  1000000 100000 0  0 150000 0  50000 150000 0  100000 150000 0  150000 150000 0  200000 150000 0  250000 150000 0  300000 150000 0  350000 150000 0  400000 150000 0  450000 150000 0  500000 150000 0  550000 150000 0  600000 150000 0  650000 150000 0  700000 150000 0  750000 150000 0  800000 150000 0  850000 150000 0  900000 150000 0  950000 150000 0  1000000 150000 0  0 200000 0  50000 200000 0  100000 200000 0  150000 200000 0  200000 200000 0  250000 200000 0  300000 200000 0  350000 200000 0  400000 200000 0  450000 200000 0  500000 200000 0  550000 200000 0  600000 200000 0  650000 200000 0  700000 200000 0  750000 200000 0  800000 200000 0  850000 200000 0  900000 200000 0  950000 200000 0  1000000 200000 0  0 250000 0  50000 250000 0  100000 250000 0  150000 250000 0  200000 250000 0  250000 250000 0  300000 250000 0  350000 250000 0  400000 250000 0  450000 250000 0  500000 250000 0  550000 250000 0  600000 250000 0  650000 250000 0  700000 250000 0  750000 250000 0  800000 250000 0  850000 250000 0  900000 250000 0  950000 250000 0  1000000 250000 0  0 300000 0  50000 300000 0  100000 300000 0  150000 300000 0  200000 300000 0  250000 300000 0  300000 300000 0  350000 300000 0  400000 300000 0  450000 300000 0  500000 300000 0  550000 300000 0  600000 300000 0  650000 300000 0  700000 300000 0  750000 300000 0  800000 300000 0  850000 300000 0  900000 300000 0  950000 300000 0  1000000 300000 0  0 350000 0  50000 350000 0  100000 350000 0  150000 350000 0  200000 350000 0  250000 350000 0  300000 350000 0  350000 350000 0  400000 350000 0  450000 350000 0  500000 350000 0  550000 350000 0  600000 350000 0  650000 350000 0  700000 350000 0  750000 350000 0  800000 350000 0  850000 350000 0  900000 350000 0  950000 350000 0  1000000 350000 0  0 400000 0  50000 400000 0  100000 400000 0  150000 400000 0  200000 400000 0  250000 400000 0  300000 400000 0  350000 400000 0  400000 400000 0  450000 400000 0  500000 400000 0  550000 400000 0  600000 400000 0  650000 400000 0  700000 400000 0  750000 400000 0  800000 400000 0  850000 400000 0  900000 400000 0  950000 400000 0  1000000 400000 0  0 450000 0  50000 450000 0  100000 450000 0  150000 450000 0  200000 450000 0  250000 450000 0  300000 450000 0  350000 450000 0  400000 450000 0  450000 450000 0  500000 450000 0  550000 450000 0  600000 450000 0  650000 450000 0  700000 450000 0  750000 450000 0  800000 450000 0  850000 450000 0  900000 450000 0  950000 450000 0  1000000 450000 0  0 500000 0  50000 500000 0  100000 500000 0  150000 500000 0  200000 500000 0  250000 500000 0  300000 500000 0  350000 500000 0  400000 500000 0  450000 500000 0  500000 500000 0  550000 500000 0  600000 500000 0  650000 500000 0  700000 500000 0  750000 500000 0  800000 500000 0  850000 500000 0  900000 500000 0  950000 500000 0  1000000 500000 0  0 550000 0  50000 550000 0  100000 550000 0  150000 550000 0  200000 550000 0  250000 550000 0  300000 550000 0  350000 550000 0  400000 550000 0  450000 550000 0  500000 550000 0  550000 550000 0  600000 550000 0  650000 550000 0  700000 550000 0  750000 550000 0  800000 550000 0  850000 550000 0  900000 550000 0  950000 550000 0  1000000 550000 0  0 600000 0  50000 600000 0  100000 600000 0  150000 600000 0  200000 600000 0  250000 600000 0  300000 600000 0  350000 600000 0  400000 600000 0  450000 600000 0  500000 600000 0  550000 600000 0  600000 600000 0  650000 600000 0  700000 600000 0  750000 600000 0  800000 600000 0  850000 600000 0  900000 600000 0  950000 600000 0  1000000 600000 0  0 650000 0  50000 650000 0  100000 650000 0  150000 650000 0  200000 650000 0  250000 650000 0  300000 650000 0  350000 650000 0  400000 650000 0  450000 650000 0  500000 650000 0  550000 650000 0  600000 650000 0  650000 650000 0  700000 650000 0  750000 650000 0  800000 650000 0  850000 650000 0  900000 650000 0  950000 650000 0  1000000 650000 0  0 700000 0  50000 700000 0  100000 700000 0  150000 700000 0  200000 700000 0  250000 700000 0  300000 700000 0  350000 700000 0  400000 700000 0  450000 700000 0  500000 700000 0  550000 700000 0  600000 700000 0  650000 700000 0  700000 700000 0  750000 700000 0  800000 700000 0  850000 700000 0  900000 700000 0  950000 700000 0  1000000 700000 0  0 750000 0  50000 750000 0  100000 750000 0  150000 750000 0  200000 750000 0  250000 750000 0  300000 750000 0  350000 750000 0  400000 750000 0  450000 750000 0  500000 750000 0  550000 750000 0  600000 750000 0  650000 750000 0  700000 750000 0  750000 750000 0  800000 750000 0  850000 750000 0  900000 750000 0  950000 750000 0  1000000 750000 0  0 800000 0  50000 800000 0  100000 800000 0  150000 800000 0  200000 800000 0  250000 800000 0  300000 800000 0  350000 800000 0  400000 800000 0  450000 800000 0  500000 800000 0  550000 800000 0  600000 800000 0  650000 800000 0  700000 800000 0  750000 800000 0  800000 800000 0  850000 800000 0  900000 800000 0  950000 800000 0  1000000 800000 0  0 850000 0  50000 850000 0  100000 850000 0  150000 850000 0  200000 850000 0  250000 850000 0  300000 850000 0  350000 850000 0  400000 850000 0  450000 850000 0  500000 850000 0  550000 850000 0  600000 850000 0  650000 850000 0  700000 850000 0  750000 850000 0  800000 850000 0  850000 850000 0  900000 850000 0  950000 850000 0  1000000 850000 0  0 900000 0  50000 900000 0  100000 900000 0  150000 900000 0  200000 900000 0  250000 900000 0  300000 900000 0  350000 900000 0  400000 900000 0  450000 900000 0  500000 900000 0  550000 900000 0  600000 900000 0  650000 900000 0  700000 900000 0  750000 900000 0  800000 900000 0  850000 900000 0  900000 900000 0  950000 900000 0  1000000 900000 0  0 950000 0  50000 950000 0  100000 950000 0  150000 950000 0  200000 950000 0  250000 950000 0  300000 950000 0  350000 950000 0  400000 950000 0  450000 950000 0  500000 950000 0  550000 950000 0  600000 950000 0  650000 950000 0  700000 950000 0  750000 950000 0  800000 950000 0  850000 950000 0  900000 950000 0  950000 950000 0  1000000 950000 0  0 1000000 0  50000 1000000 0  100000 1000000 0  150000 1000000 0  200000 1000000 0  250000 1000000 0  300000 1000000 0  350000 1000000 0  400000 1000000 0  450000 1000000 0  500000 1000000 0  550000 1000000 0  600000 1000000 0  650000 1000000 0  700000 1000000 0  750000 1000000 0  800000 1000000 0  850000 1000000 0  900000 1000000 0  950000 1000000 0  1000000 1000000 0  0 1050000 0  50000 1050000 0  100000 1050000 0  150000 1050000 0  200000 1050000 0  250000 1050000 0  300000 1050000 0  350000 1050000 0  400000 1050000 0  450000 1050000 0  500000 1050000 0  550000 1050000 0  600000 1050000 0  650000 1050000 0  700000 1050000 0  750000 1050000 0  800000 1050000 0  850000 1050000 0  900000 1050000 0  950000 1050000 0  1000000 1050000 0  0 1100000 0  50000 1100000 0  100000 1100000 0  150000 1100000 0  200000 1100000 0  250000 1100000 0  300000 1100000 0  350000 1100000 0  400000 1100000 0  450000 1100000 0  500000 1100000 0  550000 1100000 0  600000 1100000 0  650000 1100000 0  700000 1100000 0  750000 1100000 0  800000 1100000 0  850000 1100000 0  900000 1100000 0  950000 1100000 0  1000000 1100000 0  0 1150000 0  50000 1150000 0  100000 1150000 0  150000 1150000 0  200000 1150000 0  250000 1150000 0  300000 1150000 0  350000 1150000 0  400000 1150000 0  450000 1150000 0  500000 1150000 0  550000 1150000 0  600000 1150000 0  650000 1150000 0  700000 1150000 0  750000 1150000 0  800000 1150000 0  850000 1150000 0  900000 1150000 0  950000 1150000 0  1000000 1150000 0  0 1200000 0  50000 1200000 0  100000 1200000 0  150000 1200000 0  200000 1200000 0  250000 1200000 0  300000 1200000 0  350000 1200000 0  400000 1200000 0  450000 1200000 0  500000 1200000 0  550000 1200000 0  600000 1200000 0  650000 1200000 0  700000 1200000 0  750000 1200000 0  800000 1200000 0  850000 1200000 0  900000 1200000 0  950000 1200000 0  1000000 1200000 0  0 1250000 0  50000 1250000 0  100000 1250000 0  150000 1250000 0  200000 1250000 0  250000 1250000 0  300000 1250000 0  350000 1250000 0  400000 1250000 0  450000 1250000 0  500000 1250000 0  550000 1250000 0  600000 1250000 0  650000 1250000 0  700000 1250000 0  750000 1250000 0  800000 1250000 0  850000 1250000 0  900000 1250000 0  950000 1250000 0  1000000 1250000 0  0 1300000 0  50000 1300000 0  100000 1300000 0  150000 1300000 0  200000 1300000 0  250000 1300000 0  300000 1300000 0  350000 1300000 0  400000 1300000 0  450000 1300000 0  500000 1300000 0  550000 1300000 0  600000 1300000 0  650000 1300000 0  700000 1300000 0  750000 1300000 0  800000 1300000 0  850000 1300000 0  900000 1300000 0  950000 1300000 0  1000000 1300000 0  0 1350000 0  50000 1350000 0  100000 1350000 0  150000 1350000 0  200000 1350000 0  250000 1350000 0  300000 1350000 0  350000 1350000 0  400000 1350000 0  450000 1350000 0  500000 1350000 0  550000 1350000 0  600000 1350000 0  650000 1350000 0  700000 135
[...]
<PointData  Vectors="f_1513"> 
<DataArray  type="Float64"  Name="f_1513"  NumberOfComponents="3" format="ascii">-2.4783243921529934e-08 -1.0897734957204639e-08 0.0000000000000000e+00  4.8229822529330389e-08 -6.8510763401339529e-09 0.0000000000000000e+00  4.2534198243667291e-08 -2.4051262627844581e-09 0.0000000000000000e+00  4.0125684917590702e-08 -9.9091245923240084e-10 0.0000000000000000e+00  3.8992078909705637e-08 -5.1052890437765462e-10 0.0000000000000000e+00  3.8283452388697528e-08 -3.2495171506505221e-10 0.0000000000000000e+00  3.7797924632456150e-08 -2.5932427485196585e-10 0.0000000000000000e+00  3.7477594670131224e-08 -2.5297225128065328e-10 0.0000000000000000e+00  3.7304453798854868e-08 -2.8048009587888840e-10 0.0000000000000000e+00  3.7273850670298390e-08 -3.2924638284343426e-10 0.0000000000000000e+00  3.7386219230805607e-08 -3.9151497849323104e-10 0.0000000000000000e+00  3.7644760637180766e-08 -4.6050545448434973e-10 0.0000000000000000e+00  3.8056300830641579e-08 -5.2705802389211330e-10 0.0000000000000000e+00  3.8636365882059722e-08 -5.7444137405788198e-10 0.0000000000000000e+00  3.9424247505889414e-08 -5.6778949755630706e-10 0.0000000000000000e+00  4.0525373844409749e-08 -4.3029286164895337e-10 0.0000000000000000e+00  4.2227057435247529e-08 1.3164330117552936e-11 0.0000000000000000e+00  4.5275324157230224e-08 1.1670803485312804e-09 0.0000000000000000e+00  5.1041485703068467e-08 3.9073038042747568e-09 0.0000000000000000e+00  5.8310718377687208e-08 8.6856769887503474e-09 0.0000000000000000e+00  -1.6024631613384416e-08 6.5068323705111852e-09 0.0000000000000000e+00  -1.8387976072177628e-08 -1.6689242710375248e-08 0.0000000000000000e+00  7.4367027046984134e-09 -1.1511957370638890e-08 0.0000000000000000e+00  1.8480634800124906e-08 -5.2872816901265688e-09 0.0000000000000000e+00  2.3424717641079366e-08 -2.4518952349717139e-09 0.0000000000000000e+00  2.5931717153873467e-08 -1.2186678670548692e-09 0.0000000000000000e+00  2.7358916583402638e-08 -6.4372360939778385e-10 0.0000000000000000e+00  2.8198131392496460e-08 -3.5974549028058710e-10 0.0000000000000000e+00  2.8699000022661534e-08 -2.1917654970467773e-10 0.0000000000000000e+00  2.8998871220530854e-08 -1.5446103634244616e-10 0.0000000000000000e+00  2.9173341667148215e-08 -1.2866847595556373e-10 0.0000000000000000e+00  2.9260341953260012e-08 -1.1687548111636982e-10 0.0000000000000000e+00  2.9270841982526134e-08 -9.7389444806714860e-11 0.0000000000000000e+00  2.9192261779390956e-08 -4.5670042693460502e-11 0.0000000000000000e+00  2.8986773656922104e-08 7.2662519293965990e-11 0.0000000000000000e+00  2.8584069128171287e-08 3.1359444745637781e-10 0.0000000000000000e+00  2.7863839631962069e-08 7.7886000866512744e-10 0.0000000000000000e+00  2.6607946642151624e-08 1.6704351430751640e-09 0.0000000000000000e+00  2.4336318965177307e-08 3.4115625612483404e-09 0.0000000000000000e+00  1.9673141615009946e-08 6.8263949570146260e-09 0.0000000000000000e+00  8.5072095491867320e-09 1.2808038888248452e-08 0.0000000000000000e+00  -1.8013062778883489e-08 1.0606551400112959e-08 0.0000000000000000e+00  -1.1188357475411728e-08 -2.0498583074055009e-08 0.0000000000000000e+00  -5.2492842335497765e-11 -1.8608808645663659e-08 0.0000000000000000e+00  6.3191996443012055e-09 -1.1225632512755033e-08 0.0000000000000000e+00  1.1219528635302312e-08 -6.4756878153015420e-09 0.0000000000000000e+00  1.4963144027048044e-08 -3.7642006755574549e-09 0.0000000000000000e+00  1.7528990205518103e-08 -2.2347422721852413e-09 0.0000000000000000e+00  1.9231289402513939e-08 -1.3442979547951604e-09 0.0000000000000000e+00  2.0336560913518956e-08 -8.0494342675534247e-10 0.0000000000000000e+00  2.1020435771681183e-08 -4.6052388350673987e-10 0.0000000000000000e+00  2.1389286485630007e-08 -2.1800246656121468e-10 0.0000000000000000e+00  2.1499247518525859e-08 -1.2957403486423580e-11 0.0000000000000000e+00  2.1367339505664168e-08 2.0913733215463431e-10 0.0000000000000000e+00  2.0975683905769958e-08 5.0586092420622263e-10 0.0000000000000000e+00  2.0269819456682569e-08 9.5089658341227674e-10 0.0000000000000000e+00  1.9150841225903220e-08 1.6523492066387977e-09 0.0000000000000000e+00  1.7459434742288916e-08 2.7828006593744149e-09 0.0000000000000000e+00  1.4949143596531519e-08 4.6266088412055953e-09 0.0000000000000000e+00  1.1254656536373057e-08 7.6215030938369212e-09 0.0000000000000000e+00  5.9159189624341422e-09 1.2195441602331398e-08 0.0000000000000000e+00  -1.2537701115529005e-09 1.7628234542850789e-08 0.0000000000000000e+00  -1.2551241190406613e-08 1.4458511494046904e-08 0.0000000000000000e+00  -7.3589039232507151e-09 -2.1197997200611083e-08 0.0000000000000000e+00  -1.4332131203538506e-09 -2.0267871657227583e-08 0.0000000000000000e+00  1.4629935671563935e-09 -1.5255894821454207e-08 0.0000000000000000e+00  4.3457884566750722e-09 -1.0309018716359026e-08 0.0000000000000000e+00  7.2482232461920077e-09 -6.7520955256505760e-09 0.0000000000000000e+00  9.7211136591340316e-09 -4.3788667890042025e-09 0.0000000000000000e+00  1.1599240927327729e-08 -2.8114545257328912e-09 0.0000000000000000e+00  1.2921863661265318e-08 -1.7539891971453412e-09 0.0000000000000000e+00  1.3778136344706766e-08 -1.0057541743167249e-09 0.0000000000000000e+00  1.4243208000360761e-08 -4.2912982263384514e-10 0.0000000000000000e+00  1.4363378388068352e-08 7.8811846788875264e-11 0.0000000000000000e+00  1.4154770959318476e-08 6.0665341191383999e-10 0.0000000000000000e+00  1.3604440132329327e-08 1.2442658497371690e-09 0.0000000000000000e+00  1.2671532434059902e-08 2.0972603414227289e-09 0.0000000000000000e+00  1.1289738818891826e-08 3.3024519791995833e-09 0.0000000000000000e+00  9.3765927000822096e-09 5.0425251551362921e-09 0.0000000000000000e+00  6.8648210579004854e-09 7.5434218511742124e-09 0.0000000000000000e+00  3.7885168098703152e-09 1.0990089307922143e-08 0.0000000000000000e+00  4.4267288458482829e-10 1.5184064197323895e-08 0.0000000000000000e+00  -2.6608811677334942e-09 1.8821943263734263e-08 0.0000000000000000e+00  -7.9702163661419911e-09 1.7254246085739252e-08 0.0000000000000000e+00  -5.4222552099411724e-09 -2.0629627266167508e-08 0.0000000000000000e+00  -1.8142199972471189e-09 -2.0185931485693265e-08 0.0000000000000000e+00  -7.0371302239775532e-10 -1.6804631899010339e-08 0.0000000000000000e+00  5.4648660439532230e-10 -1.2725745296992582e-08 0.0000000000000000e+00  2.2340151875672250e-09 -9.1319378000835042e-09 0.0000000000000000e+00  3.9986051586410544e-09 -6.3531635293612199e-09 0.0000000000000000e+00  5.5392939989075370e-09 -4.2988401221620848e-09 0.0000000000000000e+00  6.7283553309988754e-09 -2.7811038814426300e-09 0.0000000000000000e+00  7.5416453182150482e-09 -1.6234159000874263e-09 0.0000000000000000e+00  7.9933924893132817e-09 -6.7988216803603312e-10 0.0000000000000000e+00  8.1020108870434173e-09 1.7120108752810604e-10 0.0000000000000000e+00  7.8767519745735767e-09 1.0389792960935178e-09 0.0000000000000000e+00  7.3147203544398918e-09 2.0313146348124568e-09 0.0000000000000000e+00  6.4043148220286354e-09 3.2641793605168653e-09 0.0000000000000000e+00  5.1362129332740826e-09 4.8666996817515280e-09 0.0000000000000000e+00  3.5274503125330427e-09 6.9737336523398454e-09 0.0000000000000000e+00  1.6674869758695166e-09 9.6841695287432610e-09 0.0000000000000000e+00  -2.1453947519184033e-10 1.2940236968250340e-08 0.0000000000000000e+00  -1.7384800829356927e-09 1.6284500038167618e-08 0.0000000000000000e+00  -2.7484593041705144e-09 1.8686981635397472e-08 0.0000000000000000e+00  -5.5637659210078903e-09 1.8133998387549114e-08 0.0000000000000000e+00  -4.3224721403614389e-09 -1.9493684848286031e-08 0.0000000000000000e+00  -2.0133342779651830e-09 -1.9360244028097189e-08 0.0000000000000000e+00  -1.8654578981669004e-09 -1.6952969196875017e-08 0.0000000000000000e+00  -1.6863261048718464e-09 -1.3764159643501691e-08 0.0000000000000000e+00  -1.0278818397326437e-09 -1.0553481158888468e-08 0.0000000000000000e+00  -7.2873760004747838e-11 -7.7584417434665752e-09 0.0000000000000000e+00  9.1966239946547242e-10 -5.4796226226971417e-09 0.0000000000000000e+00  1.7718017548773009e-09 -3.6563667521544313e-09 0.0000000000000000e+00  2.3931163215419443e-09 -2.1740383113760941e-09 0.0000000000000000e+00  2.7475214126932206e-09 -9.1008299715803060e-10 0.0000000000000000e+00  2.8250918293645271e-09 2.5248706146925987e-10 0.0000000000000000e+00  2.6265962018130583e-09 1.4245008652735532e-09 0.0000000000000000e+00  2.1586221945367215e-09 2.7135314884817911e-09 0.0000000000000000e+00  1.4372032542150950e-09 4.2251671760215272e-09 0.0000000000000000e+00  4.9993549619747838e-10 6.0574696862641060e-09 0.0000000000000000e+00  -5.7238706243852385e-10 8.2800836452697773e-09 0.0000000000000000e+00  -1.6273786691557752e-09 1.0884294955175383e-08 0.0000000000000000e+00  -2.4277433431944161e-09 1.3691647275369438e-08 0.0000000000000000e+00  -2.7335105701350259e-09 1.6245883519939195e-08 0.0000000000000000e+00  -2.6802146405977296e-09 1.7869383109065189e-08 0.0000000000000000e+00  -4.2279845026311506e-09 1.7788086721083685e-08 0.0000000000000000e+00  -3.6214542873037461e-09 -1.8043118329609782e-08 0.0000000000000000e+00  -2.1618004730203929e-09 -1.8125357246563294e-08 0.0000000000000000e+00  -2.5963874912070523e-09 -1.6325938527295764e-08 0.0000000000000000e+00  -3.1064766861105407e-09 -1.3826247319469582e-08 0.0000000000000000e+00  -3.2105201513132851e-09 -1.1094471312056988e-08 0.0000000000000000e+00  -2.9595854119423331e-09 -8.4989858564160994e-09 0.0000000000000000e+00  -2.5291877662410082e-09 -6.2090325764954057e-09 0.0000000000000000e+00  -2.0793111751362345e-09 -4.2491494775991675e-09 0.0000000000000000e+00  -1.7178603824632586e-09 -2.5669460120847585e-09 0.0000000000000000e+00  -1.5056117259416573e-09 -1.0770855231732767e-09 0.0000000000000000e+00  -1.4703546536585401e-09 3.1650852618643040e-10 0.0000000000000000e+00  -1.6176424387562683e-09 1.7108806194820810e-09 0.0000000000000000e+00  -1.9349949029495396e-09 3.1990341975263747e-09 0.0000000000000000e+00  -2.3895368523776519e-09 4.8640416306056882e-09 0.0000000000000000e+00  -2.9198957047687774e-09 6.7671192056582341e-09 0.0000000000000000e+00  -3.4248038393487886e-09 8.9240543126631774e-09 0.0000000000000000e+00  -3.7563588603402913e-09 1.1265571815578636e-08 0.0000000000000000e+00  -3.7400004270679660e-09 1.3586648661577360e-08 0.0000000000000000e+00  -3.2741773185796523e-09 1.5519214755590884e-08 0.0000000000000000e+00  -2.6283062120425214e-09 1.6639122223478632e-08 0.0000000000000000e+00  -3.4307519917934036e-09 1.6808309843849893e-08 0.0000000000000000e+00  -3.1361508342901457e-09 -1.6383678003035365e-08 0.0000000000000000e+00  -2.2807660527828239e-09 -1.6622581396244886e-08 0.0000000000000000e+00  -3.1043756155622338e-09 -1.5226386426885981e-08 0.0000000000000000e+00  -4.0707044914992127e-09 -1.3238576432611411e-08 0.0000000000000000e+00  -4.7174603873208694e-09 -1.0952230219446057e-08 0.0000000000000000e+00  -5.0190048074744884e-09 -8.6421730833471398e-09 0.0000000000000000e+00  -5.0765920246588922e-09 -6.4766364311785431e-09 0.0000000000000000e+00  -5.0095516193152422e-09 -4.5198439930065370e-09 0.0000000000000000e+00  -4.9142608078888792e-09 -2.7638306573839553e-09 0.0000000000000000e+00  -4.8545058784614981e-09 -1.1592977096571893e-09 0.0000000000000000e+00  -4.8640706704527238e-09 3.6279880611478343e-10 0.0000000000000000e+00  -4.9514034490250208e-09 1.8775292514163375e-09 0.0000000000000000e+00  -5.1020723073396305e-09 3.4561196864193145e-09 0.0000000000000000e+00  -5.2779922420248186e-09 5.1558809088625215e-09 0.0000000000000000e+00  -5.4144436528801111e-09 7.0063863832237481e-09 0.0000000000000000e+00  -5.4182507167620688e-09 8.9894535270116947e-09 0.0000000000000000e+00  -5.1746219810831134e-09 1.1013809096874434e-08 0.0000000000000000e+00  -4.5777669132279273e-09 1.2893620942487543e-08 0.0000000000000000e+00  -3.6169690919906023e-09 1.4356035903675007e-08 0.0000000000000000e+00  -2.6068342095583423e-09 1.5139810523960249e-08 0.0000000000000000e+00  -2.9235638919768115e-09 1.5467075948989459e-08 0.0000000000000000e+00  -2.7817079638088234e-09 -1.4572956650054107e-08 0.0000000000000000e+00  -2.3756793626873364e-09 -1.4928119995068622e-08 0.0000000000000000e+00  -3.4754064865772647e-09 -1.3815533413232967e-08 0.0000000000000000e+00  -4.7536744423864910e-09 -1.2213564495566214e-08 0.0000000000000000e+00  -5.7829139478538702e-09 -1.0311322834793170e-08 0.0000000000000000e+00  -6.4975464808696797e-09 -8.3060819164474803e-09 0.0000000000000000e+00  -6.9447963017825973e-09 -6.3400122831781844e-09 0.0000000000000000e+00  -7.2028096076766502e-09 -4.4874133653563369e-09 0.0000000000000000e+00  -7.3450137445978704e-09 -2.7655762747254322e-09 0.0000000000000000e+00  -7.4257631714472295e-09 -1.1529687393528643e-09 0.0000000000000000e+00  -7.4764173132135643e-09 3.9385125654812538e-10 0.0000000000000000e+00  -7.5054928315006805e-09 1.9266090266374714e-09 0.0000000000000000e+00  -7.4995025108606113e-09 3.4938789026303082e-09 0.0000000000000000e+00  -7.4234055116494384e-09 5.1298306079018745e-09 0.0000000000000000e+00  -7.2214853329961815e-09 6.8414438328530595e-09 0.0000000000000000e+00  -6.8213761193957677e-09 8.5938565356368198e-09 0.0000000000000000e+00  -6.1463208463542608e-09 1.0296492343952472e-08 0.0000000000000000e+00  -5.1446278993174118e-09 1.1797684800921839e-08 0.0000000000000000e+00  -3.8572942349445416e-09 1.2903007267811030e-08 0.0000000000000000e+00  -2.6055472725492457e-09 1.3453567353549344e-08 0.0000000000000000e+00  -2.5826942002171043e-09 1.3890725600043164e-08 0.0000000000000000e+00  -2.5144222415938448e-09 -1.2649748187621972e-08 0.0000000000000000e+00  -2.4498414329154571e-09 -1.3092103793346559e-08 0.0000000000000000e+00  -3.7515747031599957e-09 -1.2189883508670829e-08 0.0000000000000000e+00  -5.2478118127835996e-09 -1.0888421145305589e-08 0.0000000000000000e+00  -6.5459837095799179e-09 -9.3140609290532411e-09 0.0000000000000000e+00  -7.5611980430580341e-09 -7.6067326317607716e-09 0.0000000000000000e+00  -8.3044408887866844e-09 -5.8783229894605768e-09 0.0000000000000000e+00  -8.8199072051724207e-09 -4.1983668372108639e-09 0.0000000000000000e+00  -9.1568121224222213e-09 -2.5952730029838936e-09 0.0000000000000000e+00  -9.3553302786037140e-09 -1.0658027673846575e-09 0.0000000000000000e+00  -9.4401678175063721e-09 4.1311785768168974e-10 0.0000000000000000e+00  -9.4182866876610716e-09 1.8729134733524826e-09 0.0000000000000000e+00  -9.2787094788063869e-09 3.3426598389490921e-09 0.0000000000000000e+00  -8.9936450297035367e-09 4.8386942297512271e-09 0.0000000000000000e+00  -8.5214326752508947e-09 6.3541812173169054e-09 0.0000000000000000e+00  -7.8129700332503385e-09 7.8493241941482303e-09 0.0000000000000000e+00  -6.8244728177468868e-09 9.2448413302671872e-09 0.0000000000000000e+00  -5.5418907477149012e-09 1.0423849798709722e-08 0.0000000000000000e+00  -4.0336627690137795e-09 1.1250858388907250e-08 0.0000000000000000e+00  -2.6136359874700245e-09 1.1631288928938736e-08 0.0000000000000000e+00  -2.3435489190975265e-09 1.2147090114271982e-08 0.0000000000000000e+00  -2.3098272967410007e-09 -1.0643372418020107e-08 0.0000000000000000e+00  -2.5063994150936397e-09 -1.1151325565240932e-08 0.0000000000000000e+00  -3.9573090483663385e-09 -1.0412996541821985e-08 0.0000000000000000e+00  -5.6070777991869676e-09 -9.3549670329418304e-09 0.0000000000000000e+00  -7.0934919730882800e-09 -8.0646951245573944e-09 0.0000000000000000e+00  -8.3230352474996514e-09 -6.6410504016800353e-09 0.0000000000000000e+00  -9.2832536151231439e-09 -5.1686476565809191e-09 0.0000000000000000e+00  -9.9928591682884764e-09 -3.7063036431577947e-09 0.0000000000000000e+00  -1.0480102527226163e-08 -2.2847260075001684e-09 0.0000000000000000e+00  -1.0770890710925947e-08 -9.1094742818494795e-10 0.0000000000000000e+00  -1.0882159313828227e-08 4.2396497150264918e-10 0.0000000000000000e+00  -1.0818734694477175e-08 1.7361372098218691e-09 0.0000000000000000e+00  -1.0572650485601645e-08 3.0400573362343443e-09 0.0000000000000000e+00  -1.0124497806390733e-08 4.3400499894382996e-09 0.0000000000000000e+00  -9.4470356521131114e-09 5.6224435467198076e-09 0.0000000000000000e+00  -8.5118562925688237e-09 6.8494299710313164e-09 0.0000000000000000e+00  -7.3005068242307252e-09 7.9566261279584132e-09 0.0000000000000000e+00  -5.8236702537901528e-09 8.8573945862214800e-09 0.0000000000000000e+00  -4.1637052298584917e-09 9.4590369637457697e-09 0.0000000000000000e+00  -2.6238003009236192e-09 9.7077087529301241e-09 0.0000000000000000e+00  -2.1712733005409293e-09 1.0279222895746815e-08 0.0000000000000000e+00  -2.1534016834266375e-09 -8.5771009966537240e-09 0.0000000000000000e+00  -2.5485340598144067e-09 -9.1342280230057829e-09 0.0000000000000000e+00  -4.1089115338964616e-09 -8.5295661728146231e-09 0.0000000000000000e+00  -5.8661272397589079e-09 -7.6769173721025067e-09 0.0000000000000000e+00  -7.4826952801133658e-09 -6.6389052559026421e-09 0.0000000000000000e+00  -8.8617639920618085e-09 -5.4849342007987393e-09 0.0000000000000000e+00  -9.9759990186277327e-09 -4.2769338152445189e-09 0.0000000000000000e+00  -1.0826013251094797e-08 -3.0613689497841102e-09 0.0000000000000000e+00  -1.1423702606011922e-08 -1.8662271360906776e-09 0.0000000000000000e+00  -1.1782840035488074e-08 -7.0284967743754618e-10 0.0000000000000000e+00  -1.1913256363019079e-08 4.2925130646632561e-10 0.0000000000000000e+00  -1.1817718784994800e-08 1.5361431047987326e-09 0.0000000000000000e+00  -1.1491109194306533e-08 2.6228096799321689e-09 0.0000000000000000e+00  -1.0921724078315540e-08 3.6867438373254999e-09 0.0000000000000000e+00  -1.0094745455109074e-08 4.7124454909391719e-09 0.0000000000000000e+00  -8.9981331160500352e-09 5.6677662019148716e-09 0.0000000000000000e+00  -7.6315851362219282e-09 6.5034637219134828e-09 0.0000000000000000e+00  -6.0215284858222123e-09 7.1576701101170477e-09 0.0000000000000000e+00  -4.2571503552608154e-09 7.5685848715536540e-09 0.0000000000000000e+00  -2.6320724208243777e-09 7.7085518859057680e-09 0.0000000000000000e+00  -2.0466762462481907e-09 8.3181305457370253e-09 0.0000000000000000e+00  -2.0361923241301907e-09 -6.4697613423055910e-09 0.0000000000000000e+00  -2.5792998643950701e-09 -7.0633198959811020e-09 0.0000000000000000e+00  -4.2182289927277303e-09 -6.5723724688480031e-09 0.0000000000000000e+00  -6.0488076954486678e-09 -5.8998528612201981e-09 0.0000000000000000e+00  -7.7529596769129081e-09 -5.0919101570767970e-09 0.0000000000000000e+00  -9.2329985954944583e-09 -4.1962775531140992e-09 0.0000000000000000e+00  -1.0452321896557340e-08 -3.2563174922594550e-09 0.0000000000000000e+00  -1.1399262824367111e-08 -2.3062591137068670e-09 0.0000000000000000e+00  -1.2073898221393753e-08 -1.3686564974613410e-09 0.0000000000000000e+00  -1.2480749317120790e-08 -4.5503127928794188e-10 0.0000000000000000e+00  -1.2624007728846586e-08 4.3122031326684025e-10 0.0000000000000000e+00  -1.2504784031703393e-08 1.2906493501362810e-09 0.0000000000000000e+00  -1.2120314271477325e-08 2.1231220086449719e-09 0.0000000000000000e+00  -1.1465087863651970e-08 2.9233881008738927e-09 0.0000000000000000e+00  -1.0533852324757363e-08 3.6774780564244486e-09 0.0000000000000000e+00  -9.3264661706059963e-09 4.3606565057944083e-09 0.0000000000000000e+00  -7.8549315667479180e-09 4.9377827673029760e-09 0.0000000000000000e+00  -6.1554323671002552e-09 5.3669918550529238e-09 0.0000000000000000e+00  -4.3204582310306141e-09 5.6091590449050011e-09 0.0000000000000000e+00  -2.6367855438878617e-09 5.6539216379357159e-09 0.0000000000000000e+00  -1.9591107066415681e-09 6.2877585122628630e-09 0.0000000000000000e+00  -1.9525640777166280e-09 -4.3368010623092165e-09 0.0000000000000000e+00  -2.6014113505101277e-09 -4.9566569427057435e-09 0.0000000000000000e+00  -4.2940941936372884e-09 -4.5662093970559731e-09 0.0000000000000000e+00  -6.1719878545510229e-09 -4.0573167458850259e-09 0.0000000000000000e+00  -7.9317062515898951e-09 -3.4645871674357016e-09 0.0000000000000000e+00  -9.4758244629800878e-09 -2.8190688515753323e-09 0.0000000000000000e+00  -1.0762203271880314e-08 -2.1