<?xml version="1.0"?>
<VTKFile type="UnstructuredGrid"  version="0.1"  >
<UnstructuredGrid>
<Piece  NumberOfPoints="651" NumberOfCells="1200">
<Points>
<DataArray  type="Float64"  NumberOfComponents="3"  format="ascii">0 0 0  50000 0 0  100000 0 0  150000 0 0  200000 0 0  250000 0 0  300000 0 0  350000 0 0  400000 0 0  450000 0 0  500000 0 0  550000 0 0  600000 0 0  650000 0 0  700000 0 0  750000 0 0  800000 0 0  850000 0 0  900000 0 0  950000 0 0  1000000 0 0  0 50000 0  50000 50000 0  100000 50000 0  150000 50000 0  200000 50000 0  250000 50000 0  300000 50000 0  350000 50000 0  400000 50000 0  450000 50000 0  500000 50000 0  550000 50000 0  600000 50000 0  650000 50000 0  700000 50000 0  750000 50000 0  800000 50000 0  850000 50000 0  900000 50000 0  950000 50000 0  1000000 50000 0  0 100000 0  50000 100000 0  100000 100000 0  150000 100000 0  200000 100000 0  250000 100000 0  300000 100000 0  350000 100000 0  400000 100000 0  450000 100000 0  500000 100000 0  550000 100000 0  600000 100000 0  650000 100000 0  700000 100000 0  750000 100000 0  800000 100000 0  850000 100000 0  900000 100000 0  950000 100000 0  1000000 100000 0  0 150000 0  50000 150000 0  100000 150000 0  150000 150000 0  200000 150000 0  250000 150000 0  300000 150000 0  350000 150000 0  400000 150000 0  450000 150000 0  500000 150000 0  550000 150000 0  600000 150000 0  650000 150000 0  700000 150000 0  750000 150000 0  800000 150000 0  850000 150000 0  900000 150000 0  950000 150000 0  1000000 150000 0  0 200000 0  50000 200000 0  100000 200000 0  150000 200000 0  200000 200000 0  250000 200000 0  300000 200000 0  350000 200000 0  400000 200000 0  450000 200000 0  500000 200000 0  550000 200000 0  600000 200000 0  650000 200000 0  700000 200000 0  750000 200000 0  800000 200000 0  850000 200000 0  900000 200000 0  950000 200000 0  1000000 200000 0  0 250000 0  50000 250000 0  100000 250000 0  150000 250000 0  200000 250000 0  250000 250000 0  300000 250000 0  350000 250000 0  400000 250000 0  450000 250000 0  500000 250000 0  550000 250000 0  600000 250000 0  650000 250000 0  700000 250000 0  750000 250000 0  800000 250000 0  850000 250000 0  900000 250000 0  950000 250000 0  1000000 250000 0  0 300000 0  50000 300000 0  100000 300000 0  150000 300000 0  200000 300000 0  250000 300000 0  300000 300000 0  350000 300000 0  400000 300000 0  450000 300000 0  500000 300000 0  550000 300000 0  600000 300000 0  650000 300000 0  700000 300000 0  750000 300000 0  800000 300000 0  850000 300000 0  900000 300000 0  950000 300000 0  1000000 300000 0  0 350000 0  50000 350000 0  100000 350000 0  150000 350000 0  200000 350000 0  250000 350000 0  300000 350000 0  350000 350000 0  400000 350000 0  450000 350000 0  500000 350000 0  550000 350000 0  600000 350000 0  650000 350000 0  700000 350000 0  750000 350000 0  800000 350000 0  850000 350000 0  900000 350000 0  950000 350000 0  1000000 350000 0  0 400000 0  50000 400000 0  100000 400000 0  150000 400000 0  200000 400000 0  250000 400000 0  300000 400000 0  350000 400000 0  400000 400000 0  450000 400000 0  500000 400000 0  550000 400000 0  600000 400000 0  650000 400000 0  700000 400000 0  750000 400000 0  800000 400000 0  850000 400000 0  900000 400000 0  950000 400000 0  1000000 400000 0  0 450000 0  50000 450000 0  100000 450000 0  150000 450000 0  200000 450000 0  250000 450000 0  300000 450000 0  350000 450000 0  400000 450000 0  450000 450000 0  500000 450000 0  550000 450000 0  600000 450000 0  650000 450000 0  700000 450000 0  750000 450000 0  800000 450000 0  850000 450000 0  900000 450000 0  950000 450000 0  1000000 450000 0  0 500000 0  50000 500000 0  100000 500000 0  150000 500000 0  200000 500000 0  250000 500000 0  300000 500000 0  350000 500000 0  400000 500000 0  450000 500000 0  500000 500000 0  550000 500000 0  600000 500000 0  650000 500000 0  700000 500000 0  750000 500000 0  800000 500000 0  850000 500000 0  900000 500000 0  950000 500000 0  1000000 500000 0  0 550000 0  50000 550000 0  100000 550000 0  150000 550000 0  200000 550000 0  250000 550000 0  300000 550000 0  350000 550000 0  400000 550000 0  450000 550000 0  500000 550000 0  550000 550000 0  600000 550000 0  650000 550000 0  700000 550000 0  750000 550000 0  800000 550000 0  850000 550000 0  900000 550000 0  950000 550000 0  1000000 550000 0  0 600000 0  50000 600000 0  100000 600000 0  150000 600000 0  200000 600000 0  250000 600000 0  300000 600000 0  350000 600000 0  400000 600000 0  450000 600000 0  500000 600000 0  550000 600000 0  600000 600000 0  650000 600000 0  700000 600000 0  750000 600000 0  800000 600000 0  850000 600000 0  900000 600000 0  950000 600000 0  1000000 600000 0  0 650000 0  50000 650000 0  100000 650000 0  150000 650000 0  200000 650000 0  250000 650000 0  300000 650000 0  350000 650000 0  400000 650000 0  450000 650000 0  500000 650000 0  550000 650000 0  600000 650000 0  650000 650000 0  700000 650000 0  750000 650000 0  800000 650000 0  850000 650000 0  900000 650000 0  950000 650000 0  1000000 650000 0  0 700000 0  50000 700000 0  100000 700000 0  150000 700000 0  200000 700000 0  250000 700000 0  300000 700000 0  350000 700000 0  400000 700000 0  450000 700000 0  500000 700000 0  550000 700000 0  600000 700000 0  650000 700000 0  700000 700000 0  750000 700000 0  800000 700000 0  850000 700000 0  900000 700000 0  950000 700000 0  1000000 700000 0  0 750000 0  50000 750000 0  100000 750000 0  150000 750000 0  200000 750000 0  250000 750000 0  300000 750000 0  350000 750000 0  400000 750000 0  450000 750000 0  500000 750000 0  550000 750000 0  600000 750000 0  650000 750000 0  700000 750000 0  750000 750000 0  800000 750000 0  850000 750000 0  900000 750000 0  950000 750000 0  1000000 750000 0  0 800000 0  50000 800000 0  100000 800000 0  150000 800000 0  200000 800000 0  250000 800000 0  300000 800000 0  350000 800000 0  400000 800000 0  450000 800000 0  500000 800000 0  550000 800000 0  600000 800000 0  650000 800000 0  700000 800000 0  750000 800000 0  800000 800000 0  850000 800000 0  900000 800000 0  950000 800000 0  1000000 800000 0  0 850000 0  50000 850000 0  100000 850000 0  150000 850000 0  200000 850000 0  250000 850000 0  300000 850000 0  350000 850000 0  400000 850000 0  450000 850000 0  500000 850000 0  550000 850000 0  600000 850000 0  650000 850000 0  700000 850000 0  750000 850000 0  800000 850000 0  850000 850000 0  900000 850000 0  950000 850000 0  1000000 850000 0  0 900000 0  50000 900000 0  100000 900000 0  150000 900000 0  200000 900000 0  250000 900000 0  300000 900000 0  350000 900000 0  400000 900000 0  450000 900000 0  500000 900000 0  550000 900000 0  600000 900000 0  650000 900000 0  700000 900000 0  750000 900000 0  800000 900000 0  850000 900000 0  900000 900000 0  950000 900000 0  1000000 900000 0  0 950000 0  50000 950000 0  100000 950000 0  150000 950000 0  200000 950000 0  250000 950000 0  300000 950000 0  350000 950000 0  400000 950000 0  450000 950000 0  500000 950000 0  550000 950000 0  600000 950000 0  650000 950000 0  700000 950000 0  750000 950000 0  800000 950000 0  850000 950000 0  900000 950000 0  950000 950000 0  1000000 950000 0  0 1000000 0  50000 1000000 0  100000 1000000 0  150000 1000000 0  200000 1000000 0  250000 1000000 0  300000 1000000 0  350000 1000000 0  400000 1000000 0  450000 1000000 0  500000 1000000 0  550000 1000000 0  600000 1000000 0  650000 1000000 0  700000 1000000 0  750000 1000000 0  800000 1000000 0  850000 1000000 0  900000 1000000 0  950000 1000000 0  1000000 1000000 0  0 1050000 0  50000 1050000 0  100000 1050000 0  150000 1050000 0  200000 1050000 0  250000 1050000 0  300000 1050000 0  350000 1050000 0  400000 1050000 0  450000 1050000 0  500000 1050000 0  550000 1050000 0  600000 1050000 0  650000 1050000 0  700000 1050000 0  750000 1050000 0  800000 1050000 0  850000 1050000 0  900000 1050000 0  950000 1050000 0  1000000 1050000 0  0 1100000 0  50000 1100000 0  100000 1100000 0  150000 1100000 0  200000 1100000 0  250000 1100000 0  300000 1100000 0  350000 1100000 0  400000 1100000 0  450000 1100000 0  500000 1100000 0  550000 1100000 0  600000 1100000 0  650000 1100000 0  700000 1100000 0  750000 1100000 0  800000 1100000 0  850000 1100000 0  900000 1100000 0  950000 1100000 0  1000000 1100000 0  0 1150000 0  50000 1150000 0  100000 1150000 0  150000 1150000 0  200000 1150000 0  250000 1150000 0  300000 1150000 0  350000 1150000 0  400000 1150000 0  450000 1150000 0  500000 1150000 0  550000 1150000 0  600000 1150000 0  650000 1150000 0  700000 1150000 0  750000 1150000 0  800000 1150000 0  850000 1150000 0  900000 1150000 0  950000 1150000 0  1000000 1150000 0  0 1200000 0  50000 1200000 0  100000 1200000 0  150000 1200000 0  200000 1200000 0  250000 1200000 0  300000 1200000 0  350000 1200000 0  400000 1200000 0  450000 1200000 0  500000 1200000 0  550000 1200000 0  600000 1200000 0  650000 1200000 0  700000 1200000 0  750000 1200000 0  800000 1200000 0  850000 1200000 0  900000 1200000 0  950000 1200000 0  1000000 1200000 0  0 1250000 0  50000 1250000 0  100000 1250000 0  150000 1250000 0  200000 1250000 0  250000 1250000 0  300000 1250000 0  350000 1250000 0  400000 1250000 0  450000 1250000 0  500000 1250000 0  550000 1250000 0  600000 1250000 0  650000 1250000 0  700000 1250000 0  750000 1250000 0  800000 1250000 0  850000 1250000 0  900000 1250000 0  950000 1250000 0  1000000 1250000 0  0 1300000 0  50000 1300000 0  100000 1300000 0  150000 1300000 0  200000 1300000 0  250000 1300000 0  300000 1300000 0  350000 1300000 0  400000 1300000 0  450000 1300000 0  500000 1300000 0  550000 1300000 0  600000 1300000 0  650000 1300000 0  700000 1300000 0  750000 1300000 0  800000 1300000 0  850000 1300000 0  900000 1300000 0  950000 1300000 0  1000000 1300000 0  0 1350000 0  50000 1350000 0  100000 1350000 0  150000 1350000 0  200000 1350000 0  250000 1350000 0  300000 1350000 0  350000 1350000 0  400000 1350000 0  450000 1350000 0  500000 1350000 0  550000 1350000 0  600000 1350000 0  650000 1350000 0  700000 135
[...]
<PointData  Vectors="f_1513"> 
<DataArray  type="Float64"  Name="f_1513"  NumberOfComponents="3" format="ascii">-2.4178960899724202e-08 -1.0900786204646544e-08 0.0000000000000000e+00  4.8857135850809409e-08 -6.9698761306514712e-09 0.0000000000000000e+00  4.3103574233284034e-08 -2.6452981481585526e-09 0.0000000000000000e+00  4.0627846122344819e-08 -1.2576715109218861e-09 0.0000000000000000e+00  3.9402254975340333e-08 -7.6332539276144273e-10 0.0000000000000000e+00  3.8594400869770193e-08 -5.4210164528621825e-10 0.0000000000000000e+00  3.8007942552402013e-08 -4.2557411955089289e-10 0.0000000000000000e+00  3.7586650218776744e-08 -3.5587240352471737e-10 0.0000000000000000e+00  3.7313361403330452e-08 -3.0833376070411016e-10 0.0000000000000000e+00  3.7184178137229477e-08 -2.6997879204161727e-10 0.0000000000000000e+00  3.7200635314735350e-08 -2.3214396008379567e-10 0.0000000000000000e+00  3.7367839516081742e-08 -1.8711820896503398e-10 0.0000000000000000e+00  3.7695962259801658e-08 -1.2555755411069499e-10 0.0000000000000000e+00  3.8206204160702191e-08 -3.2850662919757286e-11 0.0000000000000000e+00  3.8946824997236414e-08 1.1830243275137623e-10 0.0000000000000000e+00  4.0035678122251483e-08 3.8610853442649041e-10 0.0000000000000000e+00  4.1772628313826865e-08 9.0840189106481722e-10 0.0000000000000000e+00  4.4903042353980563e-08 2.0292966572281856e-09 0.0000000000000000e+00  5.0755144280759347e-08 4.5659648319263548e-09 0.0000000000000000e+00  5.7998894309217697e-08 9.0857522959097853e-09 0.0000000000000000e+00  -1.6455567256215750e-08 6.9790514952708090e-09 0.0000000000000000e+00  -1.7921417116479520e-08 -1.6440534143954250e-08 0.0000000000000000e+00  7.3740422918776363e-09 -1.1492989743359076e-08 0.0000000000000000e+00  1.8336896212681272e-08 -5.3106441871478916e-09 0.0000000000000000e+00  2.3381646616974908e-08 -2.4436021025545351e-09 0.0000000000000000e+00  2.5934377839486992e-08 -1.1838953554721939e-09 0.0000000000000000e+00  2.7365152644593905e-08 -5.8976012360144653e-10 0.0000000000000000e+00  2.8186319709041434e-08 -2.9162498780099067e-10 0.0000000000000000e+00  2.8657322871433753e-08 -1.3889397289298416e-10 0.0000000000000000e+00  2.8921882694596975e-08 -6.2568095589960764e-11 0.0000000000000000e+00  2.9060358355794328e-08 -2.5369947287617937e-11 0.0000000000000000e+00  2.9114778792036625e-08 -2.7583116007090153e-12 0.0000000000000000e+00  2.9100312631087224e-08 2.5798541875855521e-11 0.0000000000000000e+00  2.9009198234474796e-08 8.2596786874415014e-11 0.0000000000000000e+00  2.8809168788123474e-08 1.9829583085095398e-10 0.0000000000000000e+00  2.8435379619894605e-08 4.2367282754149193e-10 0.0000000000000000e+00  2.7769802223498623e-08 8.5546817765956380e-10 0.0000000000000000e+00  2.6586026092288219e-08 1.6971804042844550e-09 0.0000000000000000e+00  2.4371768190607596e-08 3.3948198222391292e-09 0.0000000000000000e+00  1.9680736381355896e-08 6.8385633516647612e-09 0.0000000000000000e+00  8.2640712311255789e-09 1.2991259195298244e-08 0.0000000000000000e+00  -1.8423030379234400e-08 1.0911770621305013e-08 0.0000000000000000e+00  -1.0918721225110875e-08 -2.0005366032933224e-08 0.0000000000000000e+00  -1.9111820290205293e-10 -1.8652745811420092e-08 0.0000000000000000e+00  5.9809751573738762e-09 -1.1334590140619670e-08 0.0000000000000000e+00  1.0887664308786925e-08 -6.5196239496810614e-09 0.0000000000000000e+00  1.4692482494828945e-08 -3.7476520631812610e-09 0.0000000000000000e+00  1.7316243071201238e-08 -2.1755442116729046e-09 0.0000000000000000e+00  1.9060651438504499e-08 -1.2585123905286142e-09 0.0000000000000000e+00  2.0195224464570038e-08 -7.0401306701378416e-10 0.0000000000000000e+00  2.0900549871149254e-08 -3.5268290441910940e-10 0.0000000000000000e+00  2.1287581767079830e-08 -1.1010764092105703e-10 0.0000000000000000e+00  2.1416487840026411e-08 8.8081357591144608e-11 0.0000000000000000e+00  2.1307816142886364e-08 2.9519919107315102e-10 0.0000000000000000e+00  2.0946553118742226e-08 5.6666696266310216e-10 0.0000000000000000e+00  2.0279766797931382e-08 9.7361288500409459e-10 0.0000000000000000e+00  1.9207264399484941e-08 1.6228575179246425e-09 0.0000000000000000e+00  1.7563356787265873e-08 2.6910031703270161e-09 0.0000000000000000e+00  1.5088347790736528e-08 4.4790788134570277e-09 0.0000000000000000e+00  1.1399920246163768e-08 7.4609692933060425e-09 0.0000000000000000e+00  6.0311623175966711e-09 1.2102753580552496e-08 0.0000000000000000e+00  -1.2789547893851590e-09 1.7556279809418429e-08 0.0000000000000000e+00  -1.3249343185649965e-08 1.4659074120361725e-08 0.0000000000000000e+00  -7.1994203732870033e-09 -2.0589312527172610e-08 0.0000000000000000e+00  -1.5138157366295510e-09 -2.0138622084350139e-08 0.0000000000000000e+00  1.1961129665207428e-09 -1.5337656660833315e-08 0.0000000000000000e+00  4.0047104193012013e-09 -1.0389104068480297e-08 0.0000000000000000e+00  6.9136587094520534e-09 -6.7859536197141381e-09 0.0000000000000000e+00  9.4282958908168312e-09 -4.3678551963040238e-09 0.0000000000000000e+00  1.1358412986287987e-08 -2.7675956003129134e-09 0.0000000000000000e+00  1.2733459030233966e-08 -1.6899874246273519e-09 0.0000000000000000e+00  1.3640436563505561e-08 -9.3284765138980282e-10 0.0000000000000000e+00  1.4155319703767481e-08 -3.5743140510475072e-10 0.0000000000000000e+00  1.4326032261186738e-08 1.3943731604380900e-10 0.0000000000000000e+00  1.4170122137789624e-08 6.4583181539863814e-10 0.0000000000000000e+00  1.3675137521067600e-08 1.2508379420875188e-09 0.0000000000000000e+00  1.2798955364633833e-08 2.0600521530059065e-09 0.0000000000000000e+00  1.1471333119462389e-08 3.2130833273614721e-09 0.0000000000000000e+00  9.6028961395835685e-09 4.9014742165163551e-09 0.0000000000000000e+00  7.1184038177159746e-09 7.3692593157568010e-09 0.0000000000000000e+00  4.0483658857459741e-09 1.0825758438689500e-08 0.0000000000000000e+00  6.8476580313043298e-10 1.5079642077562150e-08 0.0000000000000000e+00  -2.6076787203479989e-09 1.8727883688984236e-08 0.0000000000000000e+00  -8.9356661049351854e-09 1.7504216948225957e-08 0.0000000000000000e+00  -5.3141561052934089e-09 -1.9958642592969450e-08 0.0000000000000000e+00  -1.8638457438276550e-09 -1.9902904204872242e-08 0.0000000000000000e+00  -8.9684374892767297e-10 -1.6791482820939200e-08 0.0000000000000000e+00  2.6732723612939889e-10 -1.2785643863590492e-08 0.0000000000000000e+00  1.9271230565968229e-09 -9.1906928049023942e-09 0.0000000000000000e+00  3.7079943120236268e-09 -6.3879592048201106e-09 0.0000000000000000e+00  5.2903663106931167e-09 -4.3088730096249635e-09 0.0000000000000000e+00  6.5339505813235951e-09 -2.7736258440692159e-09 0.0000000000000000e+00  7.4079572558105398e-09 -1.6080416724798088e-09 0.0000000000000000e+00  7.9235682555163939e-09 -6.6672905457005205e-10 0.0000000000000000e+00  8.0978185842502008e-09 1.7193442755032538e-10 0.0000000000000000e+00  7.9389147251796493e-09 1.0171451562652714e-09 0.0000000000000000e+00  7.4423110385072242e-09 1.9773329326597135e-09 0.0000000000000000e+00  6.5934641831410870e-09 3.1705289748340447e-09 0.0000000000000000e+00  5.3785310239237656e-09 4.7309571416116639e-09 0.0000000000000000e+00  3.8090653718945532e-09 6.8033237878218487e-09 0.0000000000000000e+00  1.9700669834076853e-09 9.5014974894155689e-09 0.0000000000000000e+00  8.8376361107730021e-11 1.2783958209301961e-08 0.0000000000000000e+00  -1.4722340817954846e-09 1.6200529735546043e-08 0.0000000000000000e+00  -2.7161042161247043e-09 1.8683129278511369e-08 0.0000000000000000e+00  -6.6319647398145560e-09 1.8495513091003915e-08 0.0000000000000000e+00  -4.2384179124090108e-09 -1.8788437190571285e-08 0.0000000000000000e+00  -2.0417478254542173e-09 -1.8978824583668197e-08 0.0000000000000000e+00  -2.0007012608920412e-09 -1.6842026817917283e-08 0.0000000000000000e+00  -1.8971980471886962e-09 -1.3775888016206598e-08 0.0000000000000000e+00  -1.2773170173994805e-09 -1.0609789631346851e-08 0.0000000000000000e+00  -3.2290858277695715e-10 -7.8221674537725525e-09 0.0000000000000000e+00  6.9793577618041813e-10 -5.5374312436975599e-09 0.0000000000000000e+00  1.5975226515021653e-09 -3.7072468149217830e-09 0.0000000000000000e+00  2.2779502549250653e-09 -2.2227804114713843e-09 0.0000000000000000e+00  2.6980437631209211e-09 -9.6396690358195797e-10 0.0000000000000000e+00  2.8442970404285849e-09 1.8533718735377394e-10 0.0000000000000000e+00  2.7144626311000531e-09 1.3361764252878780e-09 0.0000000000000000e+00  2.3119241799511240e-09 2.5975324900729689e-09 0.0000000000000000e+00  1.6488665958388163e-09 4.0782307603280184e-09 0.0000000000000000e+00  7.5838668243310535e-10 5.8823103996235425e-09 0.0000000000000000e+00  -2.8326437450429605e-10 8.0888662684526806e-09 0.0000000000000000e+00  -1.3274014512843111e-09 1.0701916313395125e-08 0.0000000000000000e+00  -2.1411026598882978e-09 1.3557496717439106e-08 0.0000000000000000e+00  -2.5056633919871565e-09 1.6213674043428293e-08 0.0000000000000000e+00  -2.6927654441021917e-09 1.7990670934387948e-08 0.0000000000000000e+00  -5.2712359667755682e-09 1.8257405407156290e-08 0.0000000000000000e+00  -3.5487785355490085e-09 -1.7320248196295940e-08 0.0000000000000000e+00  -2.1752073151001407e-09 -1.7679123759738266e-08 0.0000000000000000e+00  -2.6886597129841155e-09 -1.6137771496618890e-08 0.0000000000000000e+00  -3.2586430578585566e-09 -1.3786523797231082e-08 0.0000000000000000e+00  -3.3998230752553996e-09 -1.1134356473643281e-08 0.0000000000000000e+00  -3.1572376522239390e-09 -8.5770250851851863e-09 0.0000000000000000e+00  -2.7089352683718382e-09 -6.3037704626706056e-09 0.0000000000000000e+00  -2.2209401102595195e-09 -4.3520095989448042e-09 0.0000000000000000e+00  -1.8074883721185730e-09 -2.6768221509662542e-09 0.0000000000000000e+00  -1.5348462923362438e-09 -1.1967745140343640e-09 0.0000000000000000e+00  -1.4354311462166918e-09 1.8260745178629234e-10 0.0000000000000000e+00  -1.5189491771021726e-09 1.5584667780489845e-09 0.0000000000000000e+00  -1.7770114820743086e-09 3.0255490585390610e-09 0.0000000000000000e+00  -2.1810039618230139e-09 4.6706249250396319e-09 0.0000000000000000e+00  -2.6739110383275715e-09 6.5610287651884076e-09 0.0000000000000000e+00  -3.1585473589363759e-09 8.7214217237704506e-09 0.0000000000000000e+00  -3.4905876711578860e-09 1.1094170099521739e-08 0.0000000000000000e+00  -3.5003025480032410e-09 1.3488637869435152e-08 0.0000000000000000e+00  -3.1046004473647890e-09 1.5554144028045513e-08 0.0000000000000000e+00  -2.6774194311140532e-09 1.6879042199055560e-08 0.0000000000000000e+00  -4.3791869037726284e-09 1.7359653368715338e-08 0.0000000000000000e+00  -3.0694441588819157e-09 -1.5653789324706720e-08 0.0000000000000000e+00  -2.2841657916652875e-09 -1.6133030942776690e-08 0.0000000000000000e+00  -3.1661411149684171e-09 -1.4981887494325991e-08 0.0000000000000000e+00  -4.1769687857079204e-09 -1.3154813870168843e-08 0.0000000000000000e+00  -4.8544442737247726e-09 -1.0972180358909375e-08 0.0000000000000000e+00  -5.1660605948596863e-09 -8.7256721791471469e-09 0.0000000000000000e+00  -5.2123245871901618e-09 -6.5983519445516701e-09 0.0000000000000000e+00  -5.1156881539622125e-09 -4.6656576708976911e-09 0.0000000000000000e+00  -4.9772141674371916e-09 -2.9271427952011451e-09 0.0000000000000000e+00  -4.8656491999516532e-09 -1.3379605379775351e-09 0.0000000000000000e+00  -4.8195361517856345e-09 1.6887079432455792e-10 0.0000000000000000e+00  -4.8518446710569747e-09 1.6683265603461204e-09 0.0000000000000000e+00  -4.9525271788899467e-09 3.2333879012035270e-09 0.0000000000000000e+00  -5.0877878647162065e-09 4.9250840067206702e-09 0.0000000000000000e+00  -5.1969838380046924e-09 6.7788817626310275e-09 0.0000000000000000e+00  -5.1905504680566337e-09 8.7848459012899380e-09 0.0000000000000000e+00  -4.9567230111532637e-09 1.0862432415977677e-08 0.0000000000000000e+00  -4.3933010237181451e-09 1.2839288599401539e-08 0.0000000000000000e+00  -3.5028341267123814e-09 1.4458821972744392e-08 0.0000000000000000e+00  -2.6770342259205465e-09 1.5476766384824775e-08 0.0000000000000000e+00  -3.7483982869875493e-09 1.6074785889750848e-08 0.0000000000000000e+00  -2.7196546938145089e-09 -1.3842661487840882e-08 0.0000000000000000e+00  -2.3731292262077948e-09 -1.4410135059179250e-08 0.0000000000000000e+00  -3.5164564539239138e-09 -1.3531497619367035e-08 0.0000000000000000e+00  -4.8261135326101095e-09 -1.2095971865929444e-08 0.0000000000000000e+00  -5.8783704972069862e-09 -1.0313319178651805e-08 0.0000000000000000e+00  -6.6016242370768956e-09 -8.3909528343556269e-09 0.0000000000000000e+00  -7.0411130262608615e-09 -6.4812580673069434e-09 0.0000000000000000e+00  -7.2763023811934273e-09 -4.6673438116655529e-09 0.0000000000000000e+00  -7.3838525926294381e-09 -2.9731104944628741e-09 0.0000000000000000e+00  -7.4222055069157423e-09 -1.3813226210798150e-09 0.0000000000000000e+00  -7.4270673204767271e-09 1.4929328671967604e-10 0.0000000000000000e+00  -7.4112946326368641e-09 1.6702296809339086e-09 0.0000000000000000e+00  -7.3656202298368143e-09 3.2316783179922984e-09 0.0000000000000000e+00  -7.2590009389421141e-09 4.8712988367914282e-09 0.0000000000000000e+00  -7.0393204784411758e-09 6.6015064055700779e-09 0.0000000000000000e+00  -6.6371591392579881e-09 8.3948837326332936e-09 0.0000000000000000e+00  -5.9778394021753658e-09 1.0170348423641212e-08 0.0000000000000000e+00  -5.0114965370535527e-09 1.1787808427188265e-08 0.0000000000000000e+00  -3.7877643745771067e-09 1.3066027050195860e-08 0.0000000000000000e+00  -2.6837623604573904e-09 1.3864059031767899e-08 0.0000000000000000e+00  -3.2785655709013829e-09 1.4535412004452031e-08 0.0000000000000000e+00  -2.4582984730910835e-09 -1.1922803584520632e-08 0.0000000000000000e+00  -2.4446919894608951e-09 -1.2555916340423345e-08 0.0000000000000000e+00  -3.7793906037932277e-09 -1.1879137766380952e-08 0.0000000000000000e+00  -5.2965487072253568e-09 -1.0746706541808904e-08 0.0000000000000000e+00  -6.6104399543877619e-09 -9.3022916553631420e-09 0.0000000000000000e+00  -7.6314927097687074e-09 -7.6918852902201379e-09 0.0000000000000000e+00  -8.3685506663514022e-09 -6.0340837086638954e-09 0.0000000000000000e+00  -8.8662031712826218e-09 -4.4049056953710221e-09 0.0000000000000000e+00  -9.1758381507598856e-09 -2.8380985766414691e-09 0.0000000000000000e+00  -9.3408328828619265e-09 -1.3341631745725245e-09 0.0000000000000000e+00  -9.3895841155217247e-09 1.2796487278475711e-10 0.0000000000000000e+00  -9.3328880872255510e-09 1.5794294273931541e-09 0.0000000000000000e+00  -9.1635192127959819e-09 3.0507326937835188e-09 0.0000000000000000e+00  -8.8571600110485233e-09 4.5613363957456314e-09 0.0000000000000000e+00  -8.3751151369671557e-09 6.1092152100570458e-09 0.0000000000000000e+00  -7.6704465347281526e-09 7.6610183097414719e-09 0.0000000000000000e+00  -6.7004427584034711e-09 9.1454206112019679e-09 0.0000000000000000e+00  -5.4513860847914061e-09 1.0454761867890281e-08 0.0000000000000000e+00  -3.9970738868151287e-09 1.1463418338695298e-08 0.0000000000000000e+00  -2.6911229923634481e-09 1.2094997717999840e-08 0.0000000000000000e+00  -2.9166178687210237e-09 1.2815495834990953e-08 0.0000000000000000e+00  -2.2627255339086048e-09 -9.9214811274114713e-09 0.0000000000000000e+00  -2.5014537134322806e-09 -1.0603768211731941e-08 0.0000000000000000e+00  -3.9774929931346100e-09 -1.0085075842777197e-08 0.0000000000000000e+00  -5.6400639317177501e-09 -9.1973307222797036e-09 0.0000000000000000e+00  -7.1359144159121692e-09 -8.0438134646512613e-09 0.0000000000000000e+00  -8.3681797456973450e-09 -6.7270064340946246e-09 0.0000000000000000e+00  -9.3226104220987985e-09 -5.3357824866003035e-09 0.0000000000000000e+00  -1.0017950755447377e-08 -3.9335273433292273e-09 0.0000000000000000e+00  -1.0483930895148572e-08 -2.5550329563304158e-09 0.0000000000000000e+00  -1.0748899416890211e-08 -1.2103772281765397e-09 0.0000000000000000e+00  -1.0832768370623014e-08 1.0765678436054529e-10 0.0000000000000000e+00  -1.0743542962775791e-08 1.4149315002518228e-09 0.0000000000000000e+00  -1.0476376135548201e-08 2.7271582152788847e-09 0.0000000000000000e+00  -1.0014680850331861e-08 4.0513536767746581e-09 0.0000000000000000e+00  -9.3334819388949155e-09 5.3779368773249404e-09 0.0000000000000000e+00  -8.4057767541960971e-09 6.6744425141851709e-09 0.0000000000000000e+00  -7.2133599565427600e-09 7.8828211042292266e-09 0.0000000000000000e+00  -5.7662744357719607e-09 8.9233672310129511e-09 0.0000000000000000e+00  -4.1501421413025066e-09 9.7104446102153845e-09 0.0000000000000000e+00  -2.6954347495160240e-09 1.0208650097171610e-08 0.0000000000000000e+00  -2.6325992826242440e-09 1.0962576124783920e-08 0.0000000000000000e+00  -2.1198127906992747e-09 -7.8605425340994882e-09 0.0000000000000000e+00  -2.5461418006281541e-09 -8.5797193143590907e-09 0.0000000000000000e+00  -4.1255168141554325e-09 -8.1914392270246637e-09 0.0000000000000000e+00  -5.8892591415761206e-09 -7.5099525349793245e-09 0.0000000000000000e+00  -7.5100685255459639e-09 -6.6132680628518304e-09 0.0000000000000000e+00  -8.8888653800037552e-09 -5.5729665651906059e-09 0.0000000000000000e+00  -9.9970549779629170e-09 -4.4536113317766411e-09 0.0000000000000000e+00  -1.0835238893346112e-08 -3.3048095479889586e-09 0.0000000000000000e+00  -1.1416370882199426e-08 -2.1575846524793963e-09 0.0000000000000000e+00  -1.1756054894172455e-08 -1.0256696045716415e-09 0.0000000000000000e+00  -1.1866419130566692e-08 9.0022688191802573e-11 0.0000000000000000e+00  -1.1752717318442753e-08 1.1953355952226793e-09 0.0000000000000000e+00  -1.1412260599680138e-08 2.2962747991318783e-09 0.0000000000000000e+00  -1.0835481162947575e-08 3.3925780220800629e-09 0.0000000000000000e+00  -1.0009151312168941e-08 4.4721034735295439e-09 0.0000000000000000e+00  -8.9219948635487283e-09 5.5069625414837568e-09 0.0000000000000000e+00  -7.5733961695257232e-09 6.4527386616730820e-09 0.0000000000000000e+00  -5.9886476783896138e-09 7.2525400602375101e-09 0.0000000000000000e+00  -4.2589072614775087e-09 7.8495155221763948e-09 0.0000000000000000e+00  -2.6951724259441194e-09 8.2347144910617268e-09 0.0000000000000000e+00  -2.4089325468990325e-09 9.0106462266813692e-09 0.0000000000000000e+00  -2.0217812481859867e-09 -5.7579207929658279e-09 0.0000000000000000e+00  -2.5814196739166021e-09 -6.5046599295812146e-09 0.0000000000000000e+00  -4.2339979722115376e-09 -6.2291308773061430e-09 0.0000000000000000e+00  -6.0661280667103634e-09 -5.7287833997193682e-09 0.0000000000000000e+00  -7.7702449058565940e-09 -5.0653471783379629e-09 0.0000000000000000e+00  -9.2472883694515542e-09 -4.2879483705838884e-09 0.0000000000000000e+00  -1.0459962053223246e-08 -3.4415777936259995e-09 0.0000000000000000e+00  -1.1396703896565279e-08 -2.5626394651561342e-09 0.0000000000000000e+00  -1.2058402423673388e-08 -1.6759531936283464e-09 0.0000000000000000e+00  -1.2450928289080237e-08 -7.9491793543941673e-10 0.0000000000000000e+00  -1.2580159229252907e-08 7.5929184420408559e-11 0.0000000000000000e+00  -1.2449023569150811e-08 9.3694157345297389e-10 0.0000000000000000e+00  -1.2056506468484230e-08 1.7888130001118090e-09 0.0000000000000000e+00  -1.1398575822260470e-08 2.6281174774954569e-09 0.0000000000000000e+00  -1.0470971490335444e-08 3.4435707633828048e-09 0.0000000000000000e+00  -9.2738274356047872e-09 4.2137363998965934e-09 0.0000000000000000e+00  -7.8185175630490153e-09 4.9070276178575715e-09 0.0000000000000000e+00  -6.1399416592562928e-09 5.4850190694029658e-09 0.0000000000000000e+00  -4.3317597007717536e-09 5.9120304832240733e-09 0.0000000000000000e+00  -2.6901611438480308e-09 6.1965161204861557e-09 0.0000000000000000e+00  -2.2350844827377455e-09 6.9856436801320302e-09 0.0000000000000000e+00  -1.9640537093101775e-09 -3.6286211602918045e-09 0.0000000000000000e+00  -2.6096600090450693e-09 -4.3956860361555477e-09 0.0000000000000000e+00  -4.3106328891348331e-09 -4.2216844130741909e-09 0.0000000000000000e+00  -6.1858878773236820e-09 -3.8863490877289787e-09 0.0000000000000000e+00  -7.9419511468698983e-09 -3.4404269447020026e-09 0.0000000000000000e+00  -9.4806119723253237e-09 -2.9160149971467911e-09 0.0000000000000000e+00  -1.0759565212467806e-08 -2.3420580