<?xml version="1.0"?>
<VTKFile type="UnstructuredGrid"  version="0.1"  >
<UnstructuredGrid>
<Piece  NumberOfPoints="651" NumberOfCells="1200">
<Points>
<DataArray  type="Float64"  NumberOfComponents="3"  format="ascii">0 0 0  50000 0 0  100000 0 0  150000 0 0  200000 0 0  250000 0 0  300000 0 0  350000 0 0  400000 0 0  450000 0 0  500000 0 0  550000 0 0  600000 0 0  650000 0 0  700000 0 0  750000 0 0  800000 0 0  850000 0 0  900000 0 0  950000 0 0  1000000 0 0  0 50000 0  50000 50000 0  100000 50000 0  150000 50000 0  200000 50000 0  250000 50000 0  300000 50000 0  350000 50000 0  400000 50000 0  450000 50000 0  500000 50000 0  550000 50000 0  600000 50000 0  650000 50000 0  700000 50000 0  750000 50000 0  800000 50000 0  850000 50000 0  900000 50000 0  950000 50000 0  1000000 50000 0  0 100000 0  50000 100000 0  100000 100000 0  150000 100000 0  200000 100000 0  250000 100000 0  300000 100000 0  350000 100000 0  400000 100000 0  450000 100000 0  500000 100000 0  550000 100000 0  600000 100000 0  650000 100000 0  700000 100000 0  750000 100000 0  800000 100000 0  850000 100000 0  900000 100000 0  950000 100000 0  1000000 100000 0  0 150000 0  50000 150000 0  100000 150000 0  150000 150000 0  200000 150000 0  250000 150000 0  300000 150000 0  350000 150000 0  400000 150000 0  450000 150000 0  500000 150000 0  550000 150000 0  600000 150000 0  650000 150000 0  700000 150000 0  750000 150000 0  800000 150000 0  850000 150000 0  900000 150000 0  950000 150000 0  1000000 150000 0  0 200000 0  50000 200000 0  100000 200000 0  150000 200000 0  200000 200000 0  250000 200000 0  300000 200000 0  350000 200000 0  400000 200000 0  450000 200000 0  500000 200000 0  550000 200000 0  600000 200000 0  650000 200000 0  700000 200000 0  750000 200000 0  800000 200000 0  850000 200000 0  900000 200000 0  950000 200000 0  1000000 200000 0  0 250000 0  50000 250000 0  100000 250000 0  150000 250000 0  200000 250000 0  250000 250000 0  300000 250000 0  350000 250000 0  400000 250000 0  450000 250000 0  500000 250000 0  550000 250000 0  600000 250000 0  650000 250000 0  700000 250000 0  750000 250000 0  800000 250000 0  850000 250000 0  900000 250000 0  950000 250000 0  1000000 250000 0  0 300000 0  50000 300000 0  100000 300000 0  150000 300000 0  200000 300000 0  250000 300000 0  300000 300000 0  350000 300000 0  400000 300000 0  450000 300000 0  500000 300000 0  550000 300000 0  600000 300000 0  650000 300000 0  700000 300000 0  750000 300000 0  800000 300000 0  850000 300000 0  900000 300000 0  950000 300000 0  1000000 300000 0  0 350000 0  50000 350000 0  100000 350000 0  150000 350000 0  200000 350000 0  250000 350000 0  300000 350000 0  350000 350000 0  400000 350000 0  450000 350000 0  500000 350000 0  550000 350000 0  600000 350000 0  650000 350000 0  700000 350000 0  750000 350000 0  800000 350000 0  850000 350000 0  900000 350000 0  950000 350000 0  1000000 350000 0  0 400000 0  50000 400000 0  100000 400000 0  150000 400000 0  200000 400000 0  250000 400000 0  300000 400000 0  350000 400000 0  400000 400000 0  450000 400000 0  500000 400000 0  550000 400000 0  600000 400000 0  650000 400000 0  700000 400000 0  750000 400000 0  800000 400000 0  850000 400000 0  900000 400000 0  950000 400000 0  1000000 400000 0  0 450000 0  50000 450000 0  100000 450000 0  150000 450000 0  200000 450000 0  250000 450000 0  300000 450000 0  350000 450000 0  400000 450000 0  450000 450000 0  500000 450000 0  550000 450000 0  600000 450000 0  650000 450000 0  700000 450000 0  750000 450000 0  800000 450000 0  850000 450000 0  900000 450000 0  950000 450000 0  1000000 450000 0  0 500000 0  50000 500000 0  100000 500000 0  150000 500000 0  200000 500000 0  250000 500000 0  300000 500000 0  350000 500000 0  400000 500000 0  450000 500000 0  500000 500000 0  550000 500000 0  600000 500000 0  650000 500000 0  700000 500000 0  750000 500000 0  800000 500000 0  850000 500000 0  900000 500000 0  950000 500000 0  1000000 500000 0  0 550000 0  50000 550000 0  100000 550000 0  150000 550000 0  200000 550000 0  250000 550000 0  300000 550000 0  350000 550000 0  400000 550000 0  450000 550000 0  500000 550000 0  550000 550000 0  600000 550000 0  650000 550000 0  700000 550000 0  750000 550000 0  800000 550000 0  850000 550000 0  900000 550000 0  950000 550000 0  1000000 550000 0  0 600000 0  50000 600000 0  100000 600000 0  150000 600000 0  200000 600000 0  250000 600000 0  300000 600000 0  350000 600000 0  400000 600000 0  450000 600000 0  500000 600000 0  550000 600000 0  600000 600000 0  650000 600000 0  700000 600000 0  750000 600000 0  800000 600000 0  850000 600000 0  900000 600000 0  950000 600000 0  1000000 600000 0  0 650000 0  50000 650000 0  100000 650000 0  150000 650000 0  200000 650000 0  250000 650000 0  300000 650000 0  350000 650000 0  400000 650000 0  450000 650000 0  500000 650000 0  550000 650000 0  600000 650000 0  650000 650000 0  700000 650000 0  750000 650000 0  800000 650000 0  850000 650000 0  900000 650000 0  950000 650000 0  1000000 650000 0  0 700000 0  50000 700000 0  100000 700000 0  150000 700000 0  200000 700000 0  250000 700000 0  300000 700000 0  350000 700000 0  400000 700000 0  450000 700000 0  500000 700000 0  550000 700000 0  600000 700000 0  650000 700000 0  700000 700000 0  750000 700000 0  800000 700000 0  850000 700000 0  900000 700000 0  950000 700000 0  1000000 700000 0  0 750000 0  50000 750000 0  100000 750000 0  150000 750000 0  200000 750000 0  250000 750000 0  300000 750000 0  350000 750000 0  400000 750000 0  450000 750000 0  500000 750000 0  550000 750000 0  600000 750000 0  650000 750000 0  700000 750000 0  750000 750000 0  800000 750000 0  850000 750000 0  900000 750000 0  950000 750000 0  1000000 750000 0  0 800000 0  50000 800000 0  100000 800000 0  150000 800000 0  200000 800000 0  250000 800000 0  300000 800000 0  350000 800000 0  400000 800000 0  450000 800000 0  500000 800000 0  550000 800000 0  600000 800000 0  650000 800000 0  700000 800000 0  750000 800000 0  800000 800000 0  850000 800000 0  900000 800000 0  950000 800000 0  1000000 800000 0  0 850000 0  50000 850000 0  100000 850000 0  150000 850000 0  200000 850000 0  250000 850000 0  300000 850000 0  350000 850000 0  400000 850000 0  450000 850000 0  500000 850000 0  550000 850000 0  600000 850000 0  650000 850000 0  700000 850000 0  750000 850000 0  800000 850000 0  850000 850000 0  900000 850000 0  950000 850000 0  1000000 850000 0  0 900000 0  50000 900000 0  100000 900000 0  150000 900000 0  200000 900000 0  250000 900000 0  300000 900000 0  350000 900000 0  400000 900000 0  450000 900000 0  500000 900000 0  550000 900000 0  600000 900000 0  650000 900000 0  700000 900000 0  750000 900000 0  800000 900000 0  850000 900000 0  900000 900000 0  950000 900000 0  1000000 900000 0  0 950000 0  50000 950000 0  100000 950000 0  150000 950000 0  200000 950000 0  250000 950000 0  300000 950000 0  350000 950000 0  400000 950000 0  450000 950000 0  500000 950000 0  550000 950000 0  600000 950000 0  650000 950000 0  700000 950000 0  750000 950000 0  800000 950000 0  850000 950000 0  900000 950000 0  950000 950000 0  1000000 950000 0  0 1000000 0  50000 1000000 0  100000 1000000 0  150000 1000000 0  200000 1000000 0  250000 1000000 0  300000 1000000 0  350000 1000000 0  400000 1000000 0  450000 1000000 0  500000 1000000 0  550000 1000000 0  600000 1000000 0  650000 1000000 0  700000 1000000 0  750000 1000000 0  800000 1000000 0  850000 1000000 0  900000 1000000 0  950000 1000000 0  1000000 1000000 0  0 1050000 0  50000 1050000 0  100000 1050000 0  150000 1050000 0  200000 1050000 0  250000 1050000 0  300000 1050000 0  350000 1050000 0  400000 1050000 0  450000 1050000 0  500000 1050000 0  550000 1050000 0  600000 1050000 0  650000 1050000 0  700000 1050000 0  750000 1050000 0  800000 1050000 0  850000 1050000 0  900000 1050000 0  950000 1050000 0  1000000 1050000 0  0 1100000 0  50000 1100000 0  100000 1100000 0  150000 1100000 0  200000 1100000 0  250000 1100000 0  300000 1100000 0  350000 1100000 0  400000 1100000 0  450000 1100000 0  500000 1100000 0  550000 1100000 0  600000 1100000 0  650000 1100000 0  700000 1100000 0  750000 1100000 0  800000 1100000 0  850000 1100000 0  900000 1100000 0  950000 1100000 0  1000000 1100000 0  0 1150000 0  50000 1150000 0  100000 1150000 0  150000 1150000 0  200000 1150000 0  250000 1150000 0  300000 1150000 0  350000 1150000 0  400000 1150000 0  450000 1150000 0  500000 1150000 0  550000 1150000 0  600000 1150000 0  650000 1150000 0  700000 1150000 0  750000 1150000 0  800000 1150000 0  850000 1150000 0  900000 1150000 0  950000 1150000 0  1000000 1150000 0  0 1200000 0  50000 1200000 0  100000 1200000 0  150000 1200000 0  200000 1200000 0  250000 1200000 0  300000 1200000 0  350000 1200000 0  400000 1200000 0  450000 1200000 0  500000 1200000 0  550000 1200000 0  600000 1200000 0  650000 1200000 0  700000 1200000 0  750000 1200000 0  800000 1200000 0  850000 1200000 0  900000 1200000 0  950000 1200000 0  1000000 1200000 0  0 1250000 0  50000 1250000 0  100000 1250000 0  150000 1250000 0  200000 1250000 0  250000 1250000 0  300000 1250000 0  350000 1250000 0  400000 1250000 0  450000 1250000 0  500000 1250000 0  550000 1250000 0  600000 1250000 0  650000 1250000 0  700000 1250000 0  750000 1250000 0  800000 1250000 0  850000 1250000 0  900000 1250000 0  950000 1250000 0  1000000 1250000 0  0 1300000 0  50000 1300000 0  100000 1300000 0  150000 1300000 0  200000 1300000 0  250000 1300000 0  300000 1300000 0  350000 1300000 0  400000 1300000 0  450000 1300000 0  500000 1300000 0  550000 1300000 0  600000 1300000 0  650000 1300000 0  700000 1300000 0  750000 1300000 0  800000 1300000 0  850000 1300000 0  900000 1300000 0  950000 1300000 0  1000000 1300000 0  0 1350000 0  50000 1350000 0  100000 1350000 0  150000 1350000 0  200000 1350000 0  250000 1350000 0  300000 1350000 0  350000 1350000 0  400000 1350000 0  450000 1350000 0  500000 1350000 0  550000 1350000 0  600000 1350000 0  650000 1350000 0  700000 135
[...]
<PointData  Vectors="f_1513"> 
<DataArray  type="Float64"  Name="f_1513"  NumberOfComponents="3" format="ascii">-2.5255942146903253e-08 -1.0583507795944356e-08 0.0000000000000000e+00  4.7165258919739068e-08 -6.3514764969758672e-09 0.0000000000000000e+00  4.0858046109669785e-08 -1.7781473589253846e-09 0.0000000000000000e+00  3.8082228480324415e-08 -4.3266227243357142e-10 0.0000000000000000e+00  3.6693278881396676e-08 -4.1682746098621126e-11 0.0000000000000000e+00  3.5782248056734679e-08 6.7878848464230494e-11 0.0000000000000000e+00  3.5136518731257762e-08 7.4595397686507891e-11 0.0000000000000000e+00  3.4694127328790089e-08 3.6681781839968873e-11 0.0000000000000000e+00  3.4435698221632240e-08 -2.3912395175089211e-11 0.0000000000000000e+00  3.4357086009582360e-08 -9.7889657371430888e-11 0.0000000000000000e+00  3.4461019149421028e-08 -1.8081759463639660e-10 0.0000000000000000e+00  3.4755162974693321e-08 -2.7000663345581839e-10 0.0000000000000000e+00  3.5253704815386001e-08 -3.6246874013874116e-10 0.0000000000000000e+00  3.5983395877532257e-08 -4.5185004182430348e-10 0.0000000000000000e+00  3.6999455453392823e-08 -5.2079287721605202e-10 0.0000000000000000e+00  3.8427783541454845e-08 -5.1899356308478669e-10 0.0000000000000000e+00  4.0578690626049022e-08 -2.9933033750630104e-10 0.0000000000000000e+00  4.4222567576430924e-08 5.5344996904084960e-10 0.0000000000000000e+00  5.0740520198959189e-08 3.0759732337786146e-09 0.0000000000000000e+00  5.8705802198015908e-08 7.9466023517884073e-09 0.0000000000000000e+00  -1.5176698710481234e-08 5.5565815193664897e-09 0.0000000000000000e+00  -1.8538054750045267e-08 -1.6900711023862041e-08 0.0000000000000000e+00  7.5099019696153790e-09 -1.1144351475940805e-08 0.0000000000000000e+00  1.8265612754162728e-08 -4.8418734715860480e-09 0.0000000000000000e+00  2.2785107938786616e-08 -2.0271801343317046e-09 0.0000000000000000e+00  2.4944395820321523e-08 -8.5760180287073566e-10 0.0000000000000000e+00  2.6085995922465798e-08 -3.4870816599779941e-10 0.0000000000000000e+00  2.6698558379300948e-08 -1.2561956013431219e-10 0.0000000000000000e+00  2.7029072629787482e-08 -4.1309452183017263e-11 0.0000000000000000e+00  2.7211958912109508e-08 -3.0062277399840691e-11 0.0000000000000000e+00  2.7321152461922750e-08 -5.7233036909616942e-11 0.0000000000000000e+00  2.7394502732277766e-08 -1.0055628920890632e-10 0.0000000000000000e+00  2.7444406157509235e-08 -1.4151221780739302e-10 0.0000000000000000e+00  2.7460806737845038e-08 -1.5933707301006780e-10 0.0000000000000000e+00  2.7408315763798729e-08 -1.2359986525555891e-10 0.0000000000000000e+00  2.7216096810040240e-08 1.9636537735431646e-11 0.0000000000000000e+00  2.6754320576014911e-08 3.7804685875154894e-10 0.0000000000000000e+00  2.5776620579251655e-08 1.1806015376319989e-09 0.0000000000000000e+00  2.3752492351755073e-08 2.9126938942639799e-09 0.0000000000000000e+00  1.9289074821223051e-08 6.4550264156900354e-09 0.0000000000000000e+00  8.5392463544792222e-09 1.2539419175419236e-08 0.0000000000000000e+00  -1.7358549613167559e-08 1.0014744205141846e-08 0.0000000000000000e+00  -1.1057537932307743e-08 -2.1187846765982890e-08 0.0000000000000000e+00  1.1719949336790691e-10 -1.8221494785736882e-08 0.0000000000000000e+00  6.4956662626795466e-09 -1.0595994374213052e-08 0.0000000000000000e+00  1.1226575290578564e-08 -5.8250861508948938e-09 0.0000000000000000e+00  1.4721847733080748e-08 -3.1897605901463298e-09 0.0000000000000000e+00  1.7045754321778218e-08 -1.7610742114251310e-09 0.0000000000000000e+00  1.8543421579382528e-08 -9.7416939581834286e-10 0.0000000000000000e+00  1.9490919323574450e-08 -5.3619698847224353e-10 0.0000000000000000e+00  2.0066921787650764e-08 -2.9126959724238761e-10 0.0000000000000000e+00  2.0378402149904352e-08 -1.4836949724437044e-10 0.0000000000000000e+00  2.0481201248611599e-08 -4.5740044687511781e-11 0.0000000000000000e+00  2.0391437100704297e-08 6.8415057982667760e-11 0.0000000000000000e+00  2.0089075922227923e-08 2.4970819152230180e-10 0.0000000000000000e+00  1.9514698940959414e-08 5.7241167233663715e-10 0.0000000000000000e+00  1.8559224207691565e-08 1.1514569958297273e-09 0.0000000000000000e+00  1.7045528550812113e-08 2.1786188345252363e-09 0.0000000000000000e+00  1.4702697529290481e-08 3.9756651842628081e-09 0.0000000000000000e+00  1.1145057272206280e-08 7.0288720257289982e-09 0.0000000000000000e+00  5.9104392420293421e-09 1.1790635221630643e-08 0.0000000000000000e+00  -1.1473448795419249e-09 1.7613465918547055e-08 0.0000000000000000e+00  -1.1764651554908661e-08 1.4339469675712288e-08 0.0000000000000000e+00  -7.1641000405872191e-09 -2.2081982185595923e-08 0.0000000000000000e+00  -1.2881344267795827e-09 -2.0036147040624056e-08 0.0000000000000000e+00  1.7037040296121906e-09 -1.4552027463905991e-08 0.0000000000000000e+00  4.5827465459224320e-09 -9.4955761464553202e-09 0.0000000000000000e+00  7.3855795986243630e-09 -5.9841208772130226e-09 0.0000000000000000e+00  9.7209552279563444e-09 -3.7213143872070976e-09 0.0000000000000000e+00  1.1461852535270432e-08 -2.2881652770000881e-09 0.0000000000000000e+00  1.2670169691863415e-08 -1.3723666323483103e-09 0.0000000000000000e+00  1.3446197354144047e-08 -7.6777660777995953e-10 0.0000000000000000e+00  1.3869873794343395e-08 -3.3592995905762309e-10 0.0000000000000000e+00  1.3988654523792027e-08 2.5270324257430071e-11 0.0000000000000000e+00  1.3817123026765187e-08 4.0360277962740312e-10 0.0000000000000000e+00  1.3337974628740945e-08 8.8981470315461932e-10 0.0000000000000000e+00  1.2502426488382247e-08 1.5943803097913542e-09 0.0000000000000000e+00  1.1231919676247231e-08 2.6662621691160667e-09 0.0000000000000000e+00  9.4279082651360121e-09 4.3111897894863076e-09 0.0000000000000000e+00  7.0065624522162739e-09 6.7899685875138135e-09 0.0000000000000000e+00  3.9901809200907474e-09 1.0327741263757002e-08 0.0000000000000000e+00  6.6905757206884074e-10 1.4762590385674529e-08 0.0000000000000000e+00  -2.3947781723232999e-09 1.8833884735730599e-08 0.0000000000000000e+00  -7.2948550761674487e-09 1.7662063964633168e-08 0.0000000000000000e+00  -5.2451229953728049e-09 -2.1570077327297282e-08 0.0000000000000000e+00  -1.7114889304443168e-09 -2.0107386252374714e-08 0.0000000000000000e+00  -4.9085648578808439e-10 -1.6166492626842423e-08 0.0000000000000000e+00  8.3682061361465069e-10 -1.1882816927469795e-08 0.0000000000000000e+00  2.5320934613130659e-09 -8.2773734459706719e-09 0.0000000000000000e+00  4.2563347062568655e-09 -5.5893434703515282e-09 0.0000000000000000e+00  5.7367178039578968e-09 -3.6753893451544871e-09 0.0000000000000000e+00  6.8669463603228193e-09 -2.3207663728222280e-09 0.0000000000000000e+00  7.6367382496878908e-09 -1.3361907340555096e-09 0.0000000000000000e+00  8.0678211480842248e-09 -5.7010729711420246e-10 0.0000000000000000e+00  8.1813061781291599e-09 1.0182940614832559e-10 0.0000000000000000e+00  7.9853596265211977e-09 7.9102062358082826e-10 0.0000000000000000e+00  7.4726034203921406e-09 1.6094055526779327e-09 0.0000000000000000e+00  6.6236760191803518e-09 2.6811827146433795e-09 0.0000000000000000e+00  5.4186695242804824e-09 4.1503457925065735e-09 0.0000000000000000e+00  3.8627020003208225e-09 6.1752064525382628e-09 0.0000000000000000e+00  2.0346803415916999e-09 8.8866082383033754e-09 0.0000000000000000e+00  1.5688688853110209e-10 1.2264305508000181e-08 0.0000000000000000e+00  -1.3919793110752211e-09 1.5890738523532174e-08 0.0000000000000000e+00  -2.4380115101577903e-09 1.8773410665442133e-08 0.0000000000000000e+00  -5.1461453281647052e-09 1.8953231535252539e-08 0.0000000000000000e+00  -4.1860815092348161e-09 -2.0423818130801028e-08 0.0000000000000000e+00  -1.9542550589371856e-09 -1.9396441808525415e-08 0.0000000000000000e+00  -1.7056355086318124e-09 -1.6427511206697598e-08 0.0000000000000000e+00  -1.4182311313015057e-09 -1.2976900175407868e-08 0.0000000000000000e+00  -6.8975502979751931e-10 -9.7037039704700727e-09 0.0000000000000000e+00  2.9613028784687558e-10 -6.9677751676201765e-09 0.0000000000000000e+00  1.2933426294508866e-09 -4.8179149920169634e-09 0.0000000000000000e+00  2.1385663537762934e-09 -3.1614599404786924e-09 0.0000000000000000e+00  2.7530518721129973e-09 -1.8653076071522371e-09 0.0000000000000000e+00  3.1081165648620793e-09 -7.9641858608959604e-10 0.0000000000000000e+00  3.1970975487217736e-09 1.6876620168405944e-10 0.0000000000000000e+00  3.0203700293775775e-09 1.1466886153275542e-09 0.0000000000000000e+00  2.5809608336912545e-09 2.2519745364434129e-09 0.0000000000000000e+00  1.8887391496565153e-09 3.6008677120655959e-09 0.0000000000000000e+00  9.7345894990239304e-10 5.3075941301887894e-09 0.0000000000000000e+00  -9.2090124511827577e-11 7.4647364549474571e-09 0.0000000000000000e+00  -1.1618533307331412e-09 1.0093454980865482e-08 0.0000000000000000e+00  -2.0021444557740996e-09 1.3051443692226168e-08 0.0000000000000000e+00  -2.3744672541366561e-09 1.5925368357648962e-08 0.0000000000000000e+00  -2.4180448707352226e-09 1.8084853821012355e-08 0.0000000000000000e+00  -4.0324970110169305e-09 1.8892923996465290e-08 0.0000000000000000e+00  -3.5282063898850186e-09 -1.8918868761194992e-08 0.0000000000000000e+00  -2.1437134116341614e-09 -1.8238543260621157e-08 0.0000000000000000e+00  -2.4951475962740634e-09 -1.5914183826996831e-08 0.0000000000000000e+00  -2.8927390135957446e-09 -1.3135213724138138e-08 0.0000000000000000e+00  -2.8967119481893457e-09 -1.0307708153936701e-08 0.0000000000000000e+00  -2.5705075731439789e-09 -7.7418356372129943e-09 0.0000000000000000e+00  -2.0887110878106676e-09 -5.5617849183710773e-09 0.0000000000000000e+00  -1.6047560215342972e-09 -3.7601966355019864e-09 0.0000000000000000e+00  -1.2193365982694387e-09 -2.2635002318164649e-09 0.0000000000000000e+00  -9.8780385264910343e-10 -9.7243504111490860e-10 0.0000000000000000e+00  -9.3520042219253180e-10 2.1895783159565569e-10 0.0000000000000000e+00  -1.0670821361730957e-09 1.4162638749063270e-09 0.0000000000000000e+00  -1.3733950687914248e-09 2.7219501839385387e-09 0.0000000000000000e+00  -1.8254978630443697e-09 4.2314023247157274e-09 0.0000000000000000e+00  -2.3671104961949984e-09 6.0225608867420337e-09 0.0000000000000000e+00  -2.9016501642669815e-09 8.1334126928026303e-09 0.0000000000000000e+00  -3.2841992296610226e-09 1.0522920751847180e-08 0.0000000000000000e+00  -3.3408834588469378e-09 1.3020940283431619e-08 0.0000000000000000e+00  -2.9696149515618671e-09 1.5302895233654655e-08 0.0000000000000000e+00  -2.4473017599958467e-09 1.6991910712684656e-08 0.0000000000000000e+00  -3.3825099139013067e-09 1.8088506250149716e-08 0.0000000000000000e+00  -3.0818178102966282e-09 -1.7171522939195780e-08 0.0000000000000000e+00  -2.2996591288179386e-09 -1.6778345783490181e-08 0.0000000000000000e+00  -3.0603645879516646e-09 -1.4913232519613728e-08 0.0000000000000000e+00  -3.9233573737035259e-09 -1.2655896215014884e-08 0.0000000000000000e+00  -4.4605553044637783e-09 -1.0259481750956967e-08 0.0000000000000000e+00  -4.6636045825031267e-09 -7.9575879038317771e-09 0.0000000000000000e+00  -4.6405991549420175e-09 -5.8821009517402657e-09 0.0000000000000000e+00  -4.5111837846564495e-09 -4.0685497031017944e-09 0.0000000000000000e+00  -4.3693036161239687e-09 -2.4876838693053808e-09 0.0000000000000000e+00  -4.2761027380420746e-09 -1.0746469115071953e-09 0.0000000000000000e+00  -4.2638237534668995e-09 2.5161476899311127e-10 0.0000000000000000e+00  -4.3409273770251956e-09 1.5767732156016034e-09 0.0000000000000000e+00  -4.4944510946807889e-09 2.9831698568741179e-09 0.0000000000000000e+00  -4.6887508207314058e-09 4.5413908408530951e-09 0.0000000000000000e+00  -4.8617185150856216e-09 6.2977689815067846e-09 0.0000000000000000e+00  -4.9219315716100040e-09 8.2553392711667693e-09 0.0000000000000000e+00  -4.7544292191128024e-09 1.0349236362246381e-08 0.0000000000000000e+00  -4.2506338719667517e-09 1.2426073687925213e-08 0.0000000000000000e+00  -3.3949992343267833e-09 1.4252729615269197e-08 0.0000000000000000e+00  -2.5063704316738582e-09 1.5606202478998292e-08 0.0000000000000000e+00  -2.9614370015067268e-09 1.6830601172835831e-08 0.0000000000000000e+00  -2.7606066357862849e-09 -1.5246386507366148e-08 0.0000000000000000e+00  -2.4268343680953226e-09 -1.5095703556124937e-08 0.0000000000000000e+00  -3.4841567878225476e-09 -1.3580361075341004e-08 0.0000000000000000e+00  -4.6746205965852226e-09 -1.1735841788770933e-08 0.0000000000000000e+00  -5.5970591395072398e-09 -9.7246753415184897e-09 0.0000000000000000e+00  -6.2047261172797603e-09 -7.7154451025041201e-09 0.0000000000000000e+00  -6.5562138441383621e-09 -5.8223775041681544e-09 0.0000000000000000e+00  -6.7349728806851657e-09 -4.0955433888357128e-09 0.0000000000000000e+00  -6.8161067610303308e-09 -2.5325919622208814e-09 0.0000000000000000e+00  -6.8541092055414564e-09 -1.0963841548714244e-09 0.0000000000000000e+00  -6.8802540950157829e-09 2.6937929069508798e-10 0.0000000000000000e+00  -6.9033601461382466e-09 1.6280603253178410e-09 0.0000000000000000e+00  -6.9107078746838803e-09 3.0401518302366090e-09 0.0000000000000000e+00  -6.8681672166839040e-09 4.5533611204864228e-09 0.0000000000000000e+00  -6.7204448929057363e-09 6.1909209353439430e-09 0.0000000000000000e+00  -6.3942530393001455e-09 7.9377693326186736e-09 0.0000000000000000e+00  -5.8095826143543602e-09 9.7272924452685697e-09 0.0000000000000000e+00  -4.9082985217597835e-09 1.1436405311493143e-08 0.0000000000000000e+00  -3.7220952010886759e-09 1.2903738181089970e-08 0.0000000000000000e+00  -2.5730956505124450e-09 1.3996788848405736e-08 0.0000000000000000e+00  -2.6670154272584483e-09 1.5264798943111156e-08 0.0000000000000000e+00  -2.5211169070056696e-09 -1.3187805416061559e-08 0.0000000000000000e+00  -2.5283235724067298e-09 -1.3244570479132338e-08 0.0000000000000000e+00  -3.8069750354904465e-09 -1.2010796727073380e-08 0.0000000000000000e+00  -5.2332945389629506e-09 -1.0504472198965039e-08 0.0000000000000000e+00  -6.4340909554024150e-09 -8.8336995966095158e-09 0.0000000000000000e+00  -7.3432504543156564e-09 -7.1186445880176990e-09 0.0000000000000000e+00  -7.9855447522916865e-09 -5.4503458867673612e-09 0.0000000000000000e+00  -8.4137805337126223e-09 -3.8787894448058561e-09 0.0000000000000000e+00  -8.6819733080511352e-09 -2.4153321037263560e-09 0.0000000000000000e+00  -8.8327955009156440e-09 -1.0422438239496490e-09 0.0000000000000000e+00  -8.8922486898854400e-09 2.7613367135170242e-10 0.0000000000000000e+00  -8.8679930730125028e-09 1.5829069725200064e-09 0.0000000000000000e+00  -8.7493175024659923e-09 2.9190280626944565e-09 0.0000000000000000e+00  -8.5080692634236960e-09 4.3139294382582585e-09 0.0000000000000000e+00  -8.1011117994218455e-09 5.7759421273913395e-09 0.0000000000000000e+00  -7.4760307921360999e-09 7.2831276227877380e-09 0.0000000000000000e+00  -6.5829938748727906e-09 8.7770974072259399e-09 0.0000000000000000e+00  -5.3983303281717699e-09 1.0164811492347062e-08 0.0000000000000000e+00  -3.9778786629645716e-09 1.1336365232713354e-08 0.0000000000000000e+00  -2.6348864931864636e-09 1.2212837148882039e-08 0.0000000000000000e+00  -2.4509340392589013e-09 1.3476173366367812e-08 0.0000000000000000e+00  -2.3396018690335444e-09 -1.1029807896832613e-08 0.0000000000000000e+00  -2.6073325616895344e-09 -1.1265725945658739e-08 0.0000000000000000e+00  -4.0523163486290031e-09 -1.0269037237117220e-08 0.0000000000000000e+00  -5.6499025572476991e-09 -9.0503400186879680e-09 0.0000000000000000e+00  -7.0512706621680915e-09 -7.6841081517386510e-09 0.0000000000000000e+00  -8.1809369924059596e-09 -6.2557952826875201e-09 0.0000000000000000e+00  -9.0413765550715517e-09 -4.8348615006466274e-09 0.0000000000000000e+00  -9.6619582175952920e-09 -3.4649596325570897e-09 0.0000000000000000e+00  -1.0077916592374337e-08 -2.1627441182341105e-09 0.0000000000000000e+00  -1.0319453285720335e-08 -9.2263499721940651e-10 0.0000000000000000e+00  -1.0405930725175482e-08 2.7573819187709989e-10 0.0000000000000000e+00  -1.0343242237950214e-08 1.4593768293859403e-09 0.0000000000000000e+00  -1.0123308941065807e-08 2.6538342310590585e-09 0.0000000000000000e+00  -9.7253138376977193e-09 3.8754269520266169e-09 0.0000000000000000e+00  -9.1189410019784819e-09 5.1240108186359816e-09 0.0000000000000000e+00  -8.2704521175537379e-09 6.3772311930028840e-09 0.0000000000000000e+00  -7.1530564601776743e-09 7.5881494814364288e-09 0.0000000000000000e+00  -5.7654755239202618e-09 8.6890701674911188e-09 0.0000000000000000e+00  -4.1756041798648192e-09 9.6060295075145599e-09 0.0000000000000000e+00  -2.6861033829903595e-09 1.0292623296672807e-08 0.0000000000000000e+00  -2.2884814726641623e-09 1.1521724443256095e-08 0.0000000000000000e+00  -2.2023241984447172e-09 -8.7997617756721429e-09 0.0000000000000000e+00  -2.6672065006524367e-09 -9.1917144741971932e-09 0.0000000000000000e+00  -4.2359245674420468e-09 -8.4020825600697349e-09 0.0000000000000000e+00  -5.9568764958635695e-09 -7.4367291356904408e-09 0.0000000000000000e+00  -7.5010436052748012e-09 -6.3485538231358194e-09 0.0000000000000000e+00  -8.7886436171860841e-09 -5.1980914903313181e-09 0.0000000000000000e+00  -9.8076920164853708e-09 -4.0366387582548794e-09 0.0000000000000000e+00  -1.0570635757293374e-08 -2.8994256905510237e-09 0.0000000000000000e+00  -1.1097774905774064e-08 -1.8034941114052629e-09 0.0000000000000000e+00  -1.1408430651819478e-08 -7.4991265801451818e-10 0.0000000000000000e+00  -1.1515685626420681e-08 2.7146459724730513e-10 0.0000000000000000e+00  -1.1423643268936972e-08 1.2760960938024224e-09 0.0000000000000000e+00  -1.1126760811356651e-08 2.2785755478781325e-09 0.0000000000000000e+00  -1.0611077642051559e-08 3.2867182182980936e-09 0.0000000000000000e+00  -9.8574094283792218e-09 4.2964536880884568e-09 0.0000000000000000e+00  -8.8467892072146002e-09 5.2883638397133028e-09 0.0000000000000000e+00  -7.5688735200327933e-09 6.2271045006327952e-09 0.0000000000000000e+00  -6.0366301239365697e-09 7.0651848269012478e-09 0.0000000000000000e+00  -4.3240434919588939e-09 7.7538999980004371e-09 0.0000000000000000e+00  -2.7250718513190368e-09 8.2673668758599581e-09 0.0000000000000000e+00  -2.1662659525099656e-09 9.4432254568122150e-09 0.0000000000000000e+00  -2.1010484712662401e-09 -6.5201166811552918e-09 0.0000000000000000e+00  -2.7111757782425625e-09 -7.0492146006624903e-09 0.0000000000000000e+00  -4.3692809843382908e-09 -6.4459372150834938e-09 0.0000000000000000e+00  -6.1765545310125090e-09 -5.7106755404594698e-09 0.0000000000000000e+00  -7.8194712457580384e-09 -4.8817929332894599e-09 0.0000000000000000e+00  -9.2164921727265741e-09 -4.0014613949577853e-09 0.0000000000000000e+00  -1.0346413036699532e-08 -3.1060523447029152e-09 0.0000000000000000e+00  -1.1210015737754681e-08 -2.2220554939658732e-09 0.0000000000000000e+00  -1.1816631575568791e-08 -1.3641576820994619e-09 0.0000000000000000e+00  -1.2177125534003187e-08 -5.3621044708640352e-10 0.0000000000000000e+00  -1.2299472482248044e-08 2.6583477009941698e-10 0.0000000000000000e+00  -1.2186267705830103e-08 1.0499316457240402e-09 0.0000000000000000e+00  -1.1834048204208777e-08 1.8235999798323008e-09 0.0000000000000000e+00  -1.1234372929149469e-08 2.5898003026978247e-09 0.0000000000000000e+00  -1.0376628337106214e-08 3.3435589420532230e-09 0.0000000000000000e+00  -9.2525626288641380e-09 4.0699791180364857e-09 0.0000000000000000e+00  -7.8629690028885319e-09 4.7443750060906936e-09 0.0000000000000000e+00  -6.2297332346241860e-09 5.3352530423537706e-09 0.0000000000000000e+00  -4.4300788008849171e-09 5.8122192429049598e-09 0.0000000000000000e+00  -2.7521230685607806e-09 6.1630856365691639e-09 0.0000000000000000e+00  -2.0768010017273876e-09 7.2728261558091803e-09 0.0000000000000000e+00  -2.0307503594403447e-09 -4.2095931757820884e-09 0.0000000000000000e+00  -2.7420876099084149e-09 -4.8605011054734172e-09 0.0000000000000000e+00  -4.4609357044519286e-09 -4.4292601953731410e-09 0.0000000000000000e+00  -6.3247321082937001e-09 -3.9084636720396706e-09 0.0000000000000000e+00  -8.0316728883888810e-09 -3.3260188890324459e-09 0.0000000000000000e+00  -9.4997444452111018e-09 -2.7099118675848440e-09 0.0000000000000000e+00  -1.0702098066307938e-08 -2.08404