<?xml version="1.0"?>
<VTKFile type="UnstructuredGrid"  version="0.1"  >
<UnstructuredGrid>
<Piece  NumberOfPoints="651" NumberOfCells="1200">
<Points>
<DataArray  type="Float64"  NumberOfComponents="3"  format="ascii">0 0 0  50000 0 0  100000 0 0  150000 0 0  200000 0 0  250000 0 0  300000 0 0  350000 0 0  400000 0 0  450000 0 0  500000 0 0  550000 0 0  600000 0 0  650000 0 0  700000 0 0  750000 0 0  800000 0 0  850000 0 0  900000 0 0  950000 0 0  1000000 0 0  0 50000 0  50000 50000 0  100000 50000 0  150000 50000 0  200000 50000 0  250000 50000 0  300000 50000 0  350000 50000 0  400000 50000 0  450000 50000 0  500000 50000 0  550000 50000 0  600000 50000 0  650000 50000 0  700000 50000 0  750000 50000 0  800000 50000 0  850000 50000 0  900000 50000 0  950000 50000 0  1000000 50000 0  0 100000 0  50000 100000 0  100000 100000 0  150000 100000 0  200000 100000 0  250000 100000 0  300000 100000 0  350000 100000 0  400000 100000 0  450000 100000 0  500000 100000 0  550000 100000 0  600000 100000 0  650000 100000 0  700000 100000 0  750000 100000 0  800000 100000 0  850000 100000 0  900000 100000 0  950000 100000 0  1000000 100000 0  0 150000 0  50000 150000 0  100000 150000 0  150000 150000 0  200000 150000 0  250000 150000 0  300000 150000 0  350000 150000 0  400000 150000 0  450000 150000 0  500000 150000 0  550000 150000 0  600000 150000 0  650000 150000 0  700000 150000 0  750000 150000 0  800000 150000 0  850000 150000 0  900000 150000 0  950000 150000 0  1000000 150000 0  0 200000 0  50000 200000 0  100000 200000 0  150000 200000 0  200000 200000 0  250000 200000 0  300000 200000 0  350000 200000 0  400000 200000 0  450000 200000 0  500000 200000 0  550000 200000 0  600000 200000 0  650000 200000 0  700000 200000 0  750000 200000 0  800000 200000 0  850000 200000 0  900000 200000 0  950000 200000 0  1000000 200000 0  0 250000 0  50000 250000 0  100000 250000 0  150000 250000 0  200000 250000 0  250000 250000 0  300000 250000 0  350000 250000 0  400000 250000 0  450000 250000 0  500000 250000 0  550000 250000 0  600000 250000 0  650000 250000 0  700000 250000 0  750000 250000 0  800000 250000 0  850000 250000 0  900000 250000 0  950000 250000 0  1000000 250000 0  0 300000 0  50000 300000 0  100000 300000 0  150000 300000 0  200000 300000 0  250000 300000 0  300000 300000 0  350000 300000 0  400000 300000 0  450000 300000 0  500000 300000 0  550000 300000 0  600000 300000 0  650000 300000 0  700000 300000 0  750000 300000 0  800000 300000 0  850000 300000 0  900000 300000 0  950000 300000 0  1000000 300000 0  0 350000 0  50000 350000 0  100000 350000 0  150000 350000 0  200000 350000 0  250000 350000 0  300000 350000 0  350000 350000 0  400000 350000 0  450000 350000 0  500000 350000 0  550000 350000 0  600000 350000 0  650000 350000 0  700000 350000 0  750000 350000 0  800000 350000 0  850000 350000 0  900000 350000 0  950000 350000 0  1000000 350000 0  0 400000 0  50000 400000 0  100000 400000 0  150000 400000 0  200000 400000 0  250000 400000 0  300000 400000 0  350000 400000 0  400000 400000 0  450000 400000 0  500000 400000 0  550000 400000 0  600000 400000 0  650000 400000 0  700000 400000 0  750000 400000 0  800000 400000 0  850000 400000 0  900000 400000 0  950000 400000 0  1000000 400000 0  0 450000 0  50000 450000 0  100000 450000 0  150000 450000 0  200000 450000 0  250000 450000 0  300000 450000 0  350000 450000 0  400000 450000 0  450000 450000 0  500000 450000 0  550000 450000 0  600000 450000 0  650000 450000 0  700000 450000 0  750000 450000 0  800000 450000 0  850000 450000 0  900000 450000 0  950000 450000 0  1000000 450000 0  0 500000 0  50000 500000 0  100000 500000 0  150000 500000 0  200000 500000 0  250000 500000 0  300000 500000 0  350000 500000 0  400000 500000 0  450000 500000 0  500000 500000 0  550000 500000 0  600000 500000 0  650000 500000 0  700000 500000 0  750000 500000 0  800000 500000 0  850000 500000 0  900000 500000 0  950000 500000 0  1000000 500000 0  0 550000 0  50000 550000 0  100000 550000 0  150000 550000 0  200000 550000 0  250000 550000 0  300000 550000 0  350000 550000 0  400000 550000 0  450000 550000 0  500000 550000 0  550000 550000 0  600000 550000 0  650000 550000 0  700000 550000 0  750000 550000 0  800000 550000 0  850000 550000 0  900000 550000 0  950000 550000 0  1000000 550000 0  0 600000 0  50000 600000 0  100000 600000 0  150000 600000 0  200000 600000 0  250000 600000 0  300000 600000 0  350000 600000 0  400000 600000 0  450000 600000 0  500000 600000 0  550000 600000 0  600000 600000 0  650000 600000 0  700000 600000 0  750000 600000 0  800000 600000 0  850000 600000 0  900000 600000 0  950000 600000 0  1000000 600000 0  0 650000 0  50000 650000 0  100000 650000 0  150000 650000 0  200000 650000 0  250000 650000 0  300000 650000 0  350000 650000 0  400000 650000 0  450000 650000 0  500000 650000 0  550000 650000 0  600000 650000 0  650000 650000 0  700000 650000 0  750000 650000 0  800000 650000 0  850000 650000 0  900000 650000 0  950000 650000 0  1000000 650000 0  0 700000 0  50000 700000 0  100000 700000 0  150000 700000 0  200000 700000 0  250000 700000 0  300000 700000 0  350000 700000 0  400000 700000 0  450000 700000 0  500000 700000 0  550000 700000 0  600000 700000 0  650000 700000 0  700000 700000 0  750000 700000 0  800000 700000 0  850000 700000 0  900000 700000 0  950000 700000 0  1000000 700000 0  0 750000 0  50000 750000 0  100000 750000 0  150000 750000 0  200000 750000 0  250000 750000 0  300000 750000 0  350000 750000 0  400000 750000 0  450000 750000 0  500000 750000 0  550000 750000 0  600000 750000 0  650000 750000 0  700000 750000 0  750000 750000 0  800000 750000 0  850000 750000 0  900000 750000 0  950000 750000 0  1000000 750000 0  0 800000 0  50000 800000 0  100000 800000 0  150000 800000 0  200000 800000 0  250000 800000 0  300000 800000 0  350000 800000 0  400000 800000 0  450000 800000 0  500000 800000 0  550000 800000 0  600000 800000 0  650000 800000 0  700000 800000 0  750000 800000 0  800000 800000 0  850000 800000 0  900000 800000 0  950000 800000 0  1000000 800000 0  0 850000 0  50000 850000 0  100000 850000 0  150000 850000 0  200000 850000 0  250000 850000 0  300000 850000 0  350000 850000 0  400000 850000 0  450000 850000 0  500000 850000 0  550000 850000 0  600000 850000 0  650000 850000 0  700000 850000 0  750000 850000 0  800000 850000 0  850000 850000 0  900000 850000 0  950000 850000 0  1000000 850000 0  0 900000 0  50000 900000 0  100000 900000 0  150000 900000 0  200000 900000 0  250000 900000 0  300000 900000 0  350000 900000 0  400000 900000 0  450000 900000 0  500000 900000 0  550000 900000 0  600000 900000 0  650000 900000 0  700000 900000 0  750000 900000 0  800000 900000 0  850000 900000 0  900000 900000 0  950000 900000 0  1000000 900000 0  0 950000 0  50000 950000 0  100000 950000 0  150000 950000 0  200000 950000 0  250000 950000 0  300000 950000 0  350000 950000 0  400000 950000 0  450000 950000 0  500000 950000 0  550000 950000 0  600000 950000 0  650000 950000 0  700000 950000 0  750000 950000 0  800000 950000 0  850000 950000 0  900000 950000 0  950000 950000 0  1000000 950000 0  0 1000000 0  50000 1000000 0  100000 1000000 0  150000 1000000 0  200000 1000000 0  250000 1000000 0  300000 1000000 0  350000 1000000 0  400000 1000000 0  450000 1000000 0  500000 1000000 0  550000 1000000 0  600000 1000000 0  650000 1000000 0  700000 1000000 0  750000 1000000 0  800000 1000000 0  850000 1000000 0  900000 1000000 0  950000 1000000 0  1000000 1000000 0  0 1050000 0  50000 1050000 0  100000 1050000 0  150000 1050000 0  200000 1050000 0  250000 1050000 0  300000 1050000 0  350000 1050000 0  400000 1050000 0  450000 1050000 0  500000 1050000 0  550000 1050000 0  600000 1050000 0  650000 1050000 0  700000 1050000 0  750000 1050000 0  800000 1050000 0  850000 1050000 0  900000 1050000 0  950000 1050000 0  1000000 1050000 0  0 1100000 0  50000 1100000 0  100000 1100000 0  150000 1100000 0  200000 1100000 0  250000 1100000 0  300000 1100000 0  350000 1100000 0  400000 1100000 0  450000 1100000 0  500000 1100000 0  550000 1100000 0  600000 1100000 0  650000 1100000 0  700000 1100000 0  750000 1100000 0  800000 1100000 0  850000 1100000 0  900000 1100000 0  950000 1100000 0  1000000 1100000 0  0 1150000 0  50000 1150000 0  100000 1150000 0  150000 1150000 0  200000 1150000 0  250000 1150000 0  300000 1150000 0  350000 1150000 0  400000 1150000 0  450000 1150000 0  500000 1150000 0  550000 1150000 0  600000 1150000 0  650000 1150000 0  700000 1150000 0  750000 1150000 0  800000 1150000 0  850000 1150000 0  900000 1150000 0  950000 1150000 0  1000000 1150000 0  0 1200000 0  50000 1200000 0  100000 1200000 0  150000 1200000 0  200000 1200000 0  250000 1200000 0  300000 1200000 0  350000 1200000 0  400000 1200000 0  450000 1200000 0  500000 1200000 0  550000 1200000 0  600000 1200000 0  650000 1200000 0  700000 1200000 0  750000 1200000 0  800000 1200000 0  850000 1200000 0  900000 1200000 0  950000 1200000 0  1000000 1200000 0  0 1250000 0  50000 1250000 0  100000 1250000 0  150000 1250000 0  200000 1250000 0  250000 1250000 0  300000 1250000 0  350000 1250000 0  400000 1250000 0  450000 1250000 0  500000 1250000 0  550000 1250000 0  600000 1250000 0  650000 1250000 0  700000 1250000 0  750000 1250000 0  800000 1250000 0  850000 1250000 0  900000 1250000 0  950000 1250000 0  1000000 1250000 0  0 1300000 0  50000 1300000 0  100000 1300000 0  150000 1300000 0  200000 1300000 0  250000 1300000 0  300000 1300000 0  350000 1300000 0  400000 1300000 0  450000 1300000 0  500000 1300000 0  550000 1300000 0  600000 1300000 0  650000 1300000 0  700000 1300000 0  750000 1300000 0  800000 1300000 0  850000 1300000 0  900000 1300000 0  950000 1300000 0  1000000 1300000 0  0 1350000 0  50000 1350000 0  100000 1350000 0  150000 1350000 0  200000 1350000 0  250000 1350000 0  300000 1350000 0  350000 1350000 0  400000 1350000 0  450000 1350000 0  500000 1350000 0  550000 1350000 0  600000 1350000 0  650000 1350000 0  700000 135
[...]
<PointData  Vectors="f_1513"> 
<DataArray  type="Float64"  Name="f_1513"  NumberOfComponents="3" format="ascii">-2.4273677925723660e-08 -1.1055190695960541e-08 0.0000000000000000e+00  4.8800611907182523e-08 -7.0974094788833045e-09 0.0000000000000000e+00  4.3132399760872289e-08 -2.7471036879977600e-09 0.0000000000000000e+00  4.0738197611344042e-08 -1.3572097414160195e-09 0.0000000000000000e+00  3.9587506654907391e-08 -8.7784757833118958e-10 0.0000000000000000e+00  3.8846034456322887e-08 -6.8366281283188219e-10 0.0000000000000000e+00  3.8315731194426057e-08 -6.0332632264339520e-10 0.0000000000000000e+00  3.7938817617872138e-08 -5.7662758127882089e-10 0.0000000000000000e+00  3.7696398899234440e-08 -5.7640234895392302e-10 0.0000000000000000e+00  3.7582736472187994e-08 -5.8657061779189093e-10 0.0000000000000000e+00  3.7597719039297005e-08 -5.9446691602800675e-10 0.0000000000000000e+00  3.7745490657554399e-08 -5.8734828029131423e-10 0.0000000000000000e+00  3.8036625926716633e-08 -5.4995760771459926e-10 0.0000000000000000e+00  3.8494911163610822e-08 -4.6148778979443921e-10 0.0000000000000000e+00  3.9174117464589721e-08 -2.8940766885732800e-10 0.0000000000000000e+00  4.0200733254379679e-08 2.6757682958851816e-11 0.0000000000000000e+00  4.1885222479829969e-08 6.2163229282819836e-10 0.0000000000000000e+00  4.4981991327979362e-08 1.8284673285453864e-09 0.0000000000000000e+00  5.0820838549512165e-08 4.4458552084793514e-09 0.0000000000000000e+00  5.8063282136365375e-08 9.0203744677607441e-09 0.0000000000000000e+00  -1.6384603285413022e-08 6.9157636096035731e-09 0.0000000000000000e+00  -1.7993899753473880e-08 -1.6642068555507927e-08 0.0000000000000000e+00  7.4407220099324905e-09 -1.1595136340329101e-08 0.0000000000000000e+00  1.8491746686332850e-08 -5.3914462566942876e-09 0.0000000000000000e+00  2.3556052823481602e-08 -2.5340601052992382e-09 0.0000000000000000e+00  2.6133077989650089e-08 -1.2747957526301129e-09 0.0000000000000000e+00  2.7592837690161610e-08 -6.7747074955689679e-10 0.0000000000000000e+00  2.8438638282247314e-08 -3.7403540460577610e-10 0.0000000000000000e+00  2.8925476729693985e-08 -2.1430680492717020e-10 0.0000000000000000e+00  2.9194657298829856e-08 -1.2919091136296847e-10 0.0000000000000000e+00  2.9325108776943844e-08 -8.1145516495014394e-11 0.0000000000000000e+00  2.9358378456139781e-08 -4.5520467715798668e-11 0.0000000000000000e+00  2.9310356476546890e-08 -2.1335800056347825e-12 0.0000000000000000e+00  2.9175603917975373e-08 7.0190399485698803e-11 0.0000000000000000e+00  2.8926172914719703e-08 1.9993933969732372e-10 0.0000000000000000e+00  2.8503678716695824e-08 4.3458599120931062e-10 0.0000000000000000e+00  2.7798218770548025e-08 8.6686694748034146e-10 0.0000000000000000e+00  2.6591618425817185e-08 1.6970044956144237e-09 0.0000000000000000e+00  2.4376783483332538e-08 3.3714816618249502e-09 0.0000000000000000e+00  1.9704145265594948e-08 6.7895259261994927e-09 0.0000000000000000e+00  8.3147162818500469e-09 1.2938967816415175e-08 0.0000000000000000e+00  -1.8350495402756607e-08 1.0853015288584654e-08 0.0000000000000000e+00  -1.0950052321659154e-08 -2.0258151396828355e-08 0.0000000000000000e+00  -1.2184542233648035e-10 -1.8759794837154589e-08 0.0000000000000000e+00  6.1461442761621616e-09 -1.1405312915153081e-08 0.0000000000000000e+00  1.1084572201853560e-08 -6.6053020295909742e-09 0.0000000000000000e+00  1.4898013851161362e-08 -3.8363033678345454e-09 0.0000000000000000e+00  1.7523408921799217e-08 -2.2566947298502598e-09 0.0000000000000000e+00  1.9265689457754821e-08 -1.3247487574419761e-09 0.0000000000000000e+00  2.0393073127087274e-08 -7.4983546415682940e-10 0.0000000000000000e+00  2.1084970191512829e-08 -3.7384941004352605e-10 0.0000000000000000e+00  2.1452073030230053e-08 -1.0344449165121199e-10 0.0000000000000000e+00  2.1555233431154992e-08 1.2436418898936673e-10 0.0000000000000000e+00  2.1416640668643789e-08 3.6075795104875606e-10 0.0000000000000000e+00  2.1023848457773965e-08 6.5796732192508659e-10 0.0000000000000000e+00  2.0327232497836718e-08 1.0828054964647580e-09 0.0000000000000000e+00  1.9230187657329170e-08 1.7370478507948511e-09 0.0000000000000000e+00  1.7570083291848694e-08 2.7927007668848705e-09 0.0000000000000000e+00  1.5088673667136624e-08 4.5489542434762037e-09 0.0000000000000000e+00  1.1402613244556307e-08 7.4842237985735779e-09 0.0000000000000000e+00  6.0424687118100093e-09 1.2079559910777287e-08 0.0000000000000000e+00  -1.2334951066075858e-09 1.7524881204934730e-08 0.0000000000000000e+00  -1.3120802172390252e-08 1.4594167908394458e-08 0.0000000000000000e+00  -7.2034373894544494e-09 -2.0878131662777340e-08 0.0000000000000000e+00  -1.4681576976973638e-09 -2.0322550865300475e-08 0.0000000000000000e+00  1.3154000423305774e-09 -1.5445684735356818e-08 0.0000000000000000e+00  4.1659974769567573e-09 -1.0484097942307917e-08 0.0000000000000000e+00  7.0889174924383905e-09 -6.8731519429674430e-09 0.0000000000000000e+00  9.6006243470439076e-09 -4.4408892406171490e-09 0.0000000000000000e+00  1.1518262678028315e-08 -2.8195401152413711e-09 0.0000000000000000e+00  1.2874442900295210e-08 -1.7152308918494879e-09 0.0000000000000000e+00  1.3757654937678711e-08 -9.2733021902768992e-10 0.0000000000000000e+00  1.4245114809130623e-08 -3.1881184119395713e-10 0.0000000000000000e+00  1.4386306374368899e-08 2.1134999171758869e-10 0.0000000000000000e+00  1.4200770368450351e-08 7.4835889902099995e-10 0.0000000000000000e+00  1.3678354886532862e-08 1.3775670716755122e-09 0.0000000000000000e+00  1.2779224696709297e-08 2.2001256337508940e-09 0.0000000000000000e+00  1.1434926107545876e-08 3.3511214987361718e-09 0.0000000000000000e+00  9.5568317057214942e-09 5.0188086204863392e-09 0.0000000000000000e+00  7.0691138061197884e-09 7.4472548554991850e-09 0.0000000000000000e+00  4.0010432012337807e-09 1.0851930840459620e-08 0.0000000000000000e+00  6.4640735823832405e-10 1.5057146933652175e-08 0.0000000000000000e+00  -2.5895914609730777e-09 1.8707035304758171e-08 0.0000000000000000e+00  -8.7223282215152496e-09 1.7419371456327844e-08 0.0000000000000000e+00  -5.3027700696836650e-09 -2.0281904988649033e-08 0.0000000000000000e+00  -1.8270314693928405e-09 -2.0149709031492667e-08 0.0000000000000000e+00  -8.0828767659244437e-10 -1.6946313644045269e-08 0.0000000000000000e+00  3.9038392506096705e-10 -1.2900052908955239e-08 0.0000000000000000e+00  2.0646204241891645e-09 -9.2782284923565174e-09 0.0000000000000000e+00  3.8422047179247331e-09 -6.4495391819746932e-09 0.0000000000000000e+00  5.4090408184787480e-09 -4.3415716099073052e-09 0.0000000000000000e+00  6.6291795160129158e-09 -2.7741455321955004e-09 0.0000000000000000e+00  7.4748570890543142e-09 -1.5740863515254980e-09 0.0000000000000000e+00  7.9596212045064269e-09 -5.9771797477402620e-10 0.0000000000000000e+00  8.1026502393794013e-09 2.7424598060825138e-10 0.0000000000000000e+00  7.9142138552753263e-09 1.1479980643538753e-09 0.0000000000000000e+00  7.3916574479254419e-09 2.1283395936458020e-09 0.0000000000000000e+00  6.5219073872352572e-09 3.3293420195061760e-09 0.0000000000000000e+00  5.2918662330393058e-09 4.8816112825150459e-09 0.0000000000000000e+00  3.7129333693177983e-09 6.9277072883626493e-09 0.0000000000000000e+00  1.8693281248269882e-09 9.5823851576918505e-09 0.0000000000000000e+00  -1.2081234212237884e-11 1.2809995336937860e-08 0.0000000000000000e+00  -1.5612532992649187e-09 1.6174149230084385e-08 0.0000000000000000e+00  -2.7239871535785382e-09 1.8653302867856675e-08 0.0000000000000000e+00  -6.3248049903078241e-09 1.8367126095856421e-08 0.0000000000000000e+00  -4.2168267819905220e-09 -1.9145693728796336e-08 0.0000000000000000e+00  -2.0087083272103818e-09 -1.9268635585051144e-08 0.0000000000000000e+00  -1.9308542544773950e-09 -1.7035908177299277e-08 0.0000000000000000e+00  -1.8027060555004203e-09 -1.3910145114452786e-08 0.0000000000000000e+00  -1.1723181947619642e-09 -1.0698803183639458e-08 0.0000000000000000e+00  -2.2247723097666782e-10 -7.8716041392947754e-09 0.0000000000000000e+00  7.8184457961284369e-10 -5.5487354234806125e-09 0.0000000000000000e+00  1.6566995104437416e-09 -3.6805103354933356e-09 0.0000000000000000e+00  2.3074987452278120e-09 -2.1583977991070784e-09 0.0000000000000000e+00  2.6958467861511012e-09 -8.6367468087341105e-10 0.0000000000000000e+00  2.8105956640482508e-09 3.1768949195026019e-10 0.0000000000000000e+00  2.6514839566021235e-09 1.4939914895665116e-09 0.0000000000000000e+00  2.2234443776123758e-09 2.7710095437515204e-09 0.0000000000000000e+00  1.5396400744641242e-09 4.2542586681156576e-09 0.0000000000000000e+00  6.3347636149860507e-10 6.0449542549098860e-09 0.0000000000000000e+00  -4.1905171614578298e-10 8.2206980875461848e-09 0.0000000000000000e+00  -1.4694936120910557e-09 1.0786365769935511e-08 0.0000000000000000e+00  -2.2833448533062463e-09 1.3582379303239141e-08 0.0000000000000000e+00  -2.6317538570395603e-09 1.6176789417655908e-08 0.0000000000000000e+00  -2.7158819988637708e-09 1.7928506622759520e-08 0.0000000000000000e+00  -4.8800261850454974e-09 1.8061430664134334e-08 0.0000000000000000e+00  -3.5188328056625199e-09 -1.7711821883965386e-08 0.0000000000000000e+00  -2.1431683586596885e-09 -1.8002010221494184e-08 0.0000000000000000e+00  -2.6297876805620170e-09 -1.6360113180600294e-08 0.0000000000000000e+00  -3.1833954591102639e-09 -1.3935816816560784e-08 0.0000000000000000e+00  -3.3191221418742304e-09 -1.1223419167825330e-08 0.0000000000000000e+00  -3.0833391512160795e-09 -8.6138442863117179e-09 0.0000000000000000e+00  -2.6522911802528973e-09 -6.2932259858217435e-09 0.0000000000000000e+00  -2.1891024902180654e-09 -4.2975193170023315e-09 0.0000000000000000e+00  -1.8050201673070107e-09 -2.5816868154432323e-09 0.0000000000000000e+00  -1.5636162824379573e-09 -1.0652085498837884e-09 0.0000000000000000e+00  -1.4950236284666629e-09 3.4468385303640516e-10 0.0000000000000000e+00  -1.6071231097150139e-09 1.7428314496806914e-09 0.0000000000000000e+00  -1.8902132734815148e-09 3.2213120568980367e-09 0.0000000000000000e+00  -2.3149210955250505e-09 4.8641941369207347e-09 0.0000000000000000e+00  -2.8239761866603044e-09 6.7365337724955329e-09 0.0000000000000000e+00  -3.3201730966835487e-09 8.8616865250580184e-09 0.0000000000000000e+00  -3.6586870160628414e-09 1.1182225049813095e-08 0.0000000000000000e+00  -3.6669062350118192e-09 1.3509714381493018e-08 0.0000000000000000e+00  -3.2490799852849417e-09 1.5498764230520833e-08 0.0000000000000000e+00  -2.7037831879730451e-09 1.6765480218614306e-08 0.0000000000000000e+00  -3.9259470542734197e-09 1.7079989086408737e-08 0.0000000000000000e+00  -3.0311127239037846e-09 -1.6080253488763339e-08 0.0000000000000000e+00  -2.2513128087485424e-09 -1.6483822342615341e-08 0.0000000000000000e+00  -3.1132119377792626e-09 -1.5224667187629238e-08 0.0000000000000000e+00  -4.1139532340776538e-09 -1.3313484086322316e-08 0.0000000000000000e+00  -4.7905924298474091e-09 -1.1058481477299451e-08 0.0000000000000000e+00  -5.1114824478289695e-09 -8.7489218560319567e-09 0.0000000000000000e+00  -5.1757732701392779e-09 -6.5659697627799547e-09 0.0000000000000000e+00  -5.1036246358641526e-09 -4.5839107349151807e-09 0.0000000000000000e+00  -4.9935645033293797e-09 -2.8020297174095062e-09 0.0000000000000000e+00  -4.9119445576004094e-09 -1.1760498590521187e-09 0.0000000000000000e+00  -4.8952462433420796e-09 3.5973100934610800e-10 0.0000000000000000e+00  -4.9548077570915247e-09 1.8784662791681793e-09 0.0000000000000000e+00  -5.0794232641711429e-09 3.4509826177215638e-09 0.0000000000000000e+00  -5.2345931999314338e-09 5.1360873852256694e-09 0.0000000000000000e+00  -5.3592937115261493e-09 6.9672653187961870e-09 0.0000000000000000e+00  -5.3635690763584262e-09 8.9331261544605311e-09 0.0000000000000000e+00  -5.1345448747992716e-09 1.0952352682863790e-08 0.0000000000000000e+00  -4.5663897757265366e-09 1.2852447400019293e-08 0.0000000000000000e+00  -3.6481005207276638e-09 1.4377628483187002e-08 0.0000000000000000e+00  -2.6973421690076017e-09 1.5300336050700129e-08 0.0000000000000000e+00  -3.2601689079625853e-09 1.5706006222606416e-08 0.0000000000000000e+00  -2.6715465307570456e-09 -1.4304449515877399e-08 0.0000000000000000e+00  -2.3383655086363805e-09 -1.4785751316746944e-08 0.0000000000000000e+00  -3.4664872622331290e-09 -1.3789248420302450e-08 0.0000000000000000e+00  -4.7706639394018416e-09 -1.2259193382197442e-08 0.0000000000000000e+00  -5.8257948985097989e-09 -1.0393893034296388e-08 0.0000000000000000e+00  -6.5605154167174974e-09 -8.3994367043208721e-09 0.0000000000000000e+00  -7.0187089711052186e-09 -6.4271250888390534e-09 0.0000000000000000e+00  -7.2778739154264190e-09 -4.5592485696312942e-09 0.0000000000000000e+00  -7.4125155453055608e-09 -2.8194059787606661e-09 0.0000000000000000e+00  -7.4790115008696951e-09 -1.1906782723028531e-09 0.0000000000000000e+00  -7.5112696240129474e-09 3.6730127894755187e-10 0.0000000000000000e+00  -7.5207088778332717e-09 1.9046319466932418e-09 0.0000000000000000e+00  -7.4970119566894946e-09 3.4697774298651169e-09 0.0000000000000000e+00  -7.4084224746530253e-09 5.0985123364249677e-09 0.0000000000000000e+00  -7.2022880391513937e-09 6.8013763261674294e-09 0.0000000000000000e+00  -6.8085076088972682e-09 8.5491688213830574e-09 0.0000000000000000e+00  -6.1509647545024651e-09 1.0259004184500944e-08 0.0000000000000000e+00  -5.1760345952039346e-09 1.1788580591382346e-08 0.0000000000000000e+00  -3.9203013715022157e-09 1.2953903743585348e-08 0.0000000000000000e+00  -2.6925179509806192e-09 1.3621195754863136e-08 0.0000000000000000e+00  -2.7817151916341826e-09 1.4081620171594153e-08 0.0000000000000000e+00  -2.3979422485324277e-09 -1.2419965241975588e-08 0.0000000000000000e+00  -2.4073920413423023e-09 -1.2954319835834668e-08 0.0000000000000000e+00  -3.7309167462994541e-09 -1.2148086226047881e-08 0.0000000000000000e+00  -5.2460140628121523e-09 -1.0910782982791145e-08 0.0000000000000000e+00  -6.5655911074618609e-09 -9.3745983787383718e-09 0.0000000000000000e+00  -7.5998059450270237e-09 -7.6845061222522458e-09 0.0000000000000000e+00  -8.3559836494331872e-09 -5.9583814811708136e-09 0.0000000000000000e+00  -8.8768790346119965e-09 -4.2716045420203969e-09 0.0000000000000000e+00  -9.2119903996018915e-09 -2.6575838422486727e-09 0.0000000000000000e+00  -9.4029157320849938e-09 -1.1169312612391428e-09 0.0000000000000000e+00  -9.4765008118528521e-09 3.7081988739939693e-10 0.0000000000000000e+00  -9.4422852449593799e-09 1.8357714217087257e-09 0.0000000000000000e+00  -9.2920884197169383e-09 3.3070247502787804e-09 0.0000000000000000e+00  -9.0008766714887017e-09 4.8023754580730325e-09 0.0000000000000000e+00  -8.5293265202103150e-09 6.3179205574572105e-09 0.0000000000000000e+00  -7.8296938926190869e-09 7.8181636460899728e-09 0.0000000000000000e+00  -6.8578135911526336e-09 9.2291043752195975e-09 0.0000000000000000e+00  -5.5965991115156776e-09 1.0439345471360662e-08 0.0000000000000000e+00  -4.1082586270754843e-09 1.1318106231842053e-08 0.0000000000000000e+00  -2.6862624560801342e-09 1.1788719237493576e-08 0.0000000000000000e+00  -2.4333761215959443e-09 1.2287538107507265e-08 0.0000000000000000e+00  -2.1867595491151106e-09 -1.0453495258939544e-08 0.0000000000000000e+00  -2.4613127056084790e-09 -1.1023281762830710e-08 0.0000000000000000e+00  -3.9301769911702660e-09 -1.0362430920956158e-08 0.0000000000000000e+00  -5.5934279374335879e-09 -9.3594818839063238e-09 0.0000000000000000e+00  -7.0970772904677803e-09 -8.1058853843044098e-09 0.0000000000000000e+00  -8.3436809569359956e-09 -6.7029716611483629e-09 0.0000000000000000e+00  -9.3172888765289415e-09 -5.2388980178757001e-09 0.0000000000000000e+00  -1.0034850751486860e-08 -3.7763985817744391e-09 0.0000000000000000e+00  -1.0524385922621152e-08 -2.3498228507505710e-09 0.0000000000000000e+00  -1.0812692573069931e-08 -9.6916199244442042e-10 0.0000000000000000e+00  -1.0918349798339014e-08 3.7246527108316352e-10 0.0000000000000000e+00  -1.0848277327901640e-08 1.6901610162135366e-09 0.0000000000000000e+00  -1.0596779926544126e-08 2.9984821736314227e-09 0.0000000000000000e+00  -1.0146598456519479e-08 4.3029238048452909e-09 0.0000000000000000e+00  -9.4721410651233678e-09 5.5919927866713798e-09 0.0000000000000000e+00  -8.5456545765049720e-09 6.8307885749968031e-09 0.0000000000000000e+00  -7.3477302868957674e-09 7.9579892170276592e-09 0.0000000000000000e+00  -5.8857774945030465e-09 8.8892392701210761e-09 0.0000000000000000e+00  -4.2357905013725822e-09 9.5324575989621804e-09 0.0000000000000000e+00  -2.6773719925107548e-09 9.8465873018964187e-09 0.0000000000000000e+00  -2.1795766802900279e-09 1.0375081628706757e-08 0.0000000000000000e+00  -2.0241354341808741e-09 -8.4261411609694075e-09 0.0000000000000000e+00  -2.5031166509288623e-09 -9.0185076877605193e-09 0.0000000000000000e+00  -4.0799092912903085e-09 -8.4748424210176047e-09 0.0000000000000000e+00  -5.8468267399466523e-09 -7.6679864624450078e-09 0.0000000000000000e+00  -7.4770941029446670e-09 -6.6636438761308696e-09 0.0000000000000000e+00  -8.8709605221067918e-09 -5.5318555791945636e-09 0.0000000000000000e+00  -9.9980042196885340e-09 -4.3362212278456449e-09 0.0000000000000000e+00  -1.0857053758298371e-08 -3.1255117062475322e-09 0.0000000000000000e+00  -1.1459489662758252e-08 -1.9301209542312346e-09 0.0000000000000000e+00  -1.1819558139301790e-08 -7.6348082484573122e-10 0.0000000000000000e+00  -1.1948252183466866e-08 3.7339641222254493e-10 0.0000000000000000e+00  -1.1849911634256666e-08 1.4858276653876802e-09 0.0000000000000000e+00  -1.1521133167330094e-08 2.5788595126216890e-09 0.0000000000000000e+00  -1.0951782907449577e-08 3.6508218130591236e-09 0.0000000000000000e+00  -1.0128133452736529e-08 4.6876515844853030e-09 0.0000000000000000e+00  -9.0383635957680163e-09 5.6588680532248717e-09 0.0000000000000000e+00  -7.6810817406202779e-09 6.5164930185984673e-09 0.0000000000000000e+00  -6.0798430593705875e-09 7.1986347217018773e-09 0.0000000000000000e+00  -4.3182745869423353e-09 7.6415997068725404e-09 0.0000000000000000e+00  -2.6657989376315344e-09 7.8271473127971030e-09 0.0000000000000000e+00  -1.9970195088508715e-09 8.3795933984176885e-09 0.0000000000000000e+00  -1.9016995785872900e-09 -6.3549021143379954e-09 0.0000000000000000e+00  -2.5357248869940402e-09 -6.9603258182397688e-09 0.0000000000000000e+00  -4.1914020375503603e-09 -6.5162321459342921e-09 0.0000000000000000e+00  -6.0292921414536851e-09 -5.8807917218051895e-09 0.0000000000000000e+00  -7.7442882489896715e-09 -5.1029358493458595e-09 0.0000000000000000e+00  -9.2367843989282016e-09 -4.2296998703772833e-09 0.0000000000000000e+00  -1.0467623298074379e-08 -3.3046865241460314e-09 0.0000000000000000e+00  -1.1423522708075320e-08 -2.3631450822713607e-09 0.0000000000000000e+00  -1.2103935306900676e-08 -1.4290033230947720e-09 0.0000000000000000e+00  -1.2513557151452234e-08 -5.1511989715650620e-10 0.0000000000000000e+00  -1.2657324370869820e-08 3.7409528090344103e-10 0.0000000000000000e+00  -1.2537433656418419e-08 1.2386768175407027e-09 0.0000000000000000e+00  -1.2152321722689846e-08 2.0785314151923783e-09 0.0000000000000000e+00  -1.1497554971718009e-08 2.8889421303774110e-09 0.0000000000000000e+00  -1.0568574953865396e-08 3.6567534468522052e-09 0.0000000000000000e+00  -9.3652753501114501e-09 4.3579309086678192e-09 0.0000000000000000e+00  -7.8987655256033458e-09 4.9573188483068490e-09 0.0000000000000000e+00  -6.2031177292462772e-09 5.4115868921907042e-09 0.0000000000000000e+00  -4.3664482683603232e-09 5.6784384761247026e-09 0.0000000000000000e+00  -2.6520396415141615e-09 5.7547456606118869e-09 0.0000000000000000e+00  -1.8701274214391021e-09 6.3266522798591614e-09 0.0000000000000000e+00  -1.8144633746352233e-09 -4.2536408972068941e-09 0.0000000000000000e+00  -2.5617957861860899e-09 -4.8649418113771055e-09 0.0000000000000000e+00  -4.2730253503087802e-09 -4.5098268470996117e-09 0.0000000000000000e+00  -6.1569492154186413e-09 -4.0304707324319889e-09 0.0000000000000000e+00  -7.9252277775889323e-09 -3.4643796090571656e-09 0.0000000000000000e+00  -9.4794515868875529e-09 -2.8408891742039084e-09 0.0000000000000000e+00  -1.0775535776253601e-08 -2.1870