<?xml version="1.0"?>
<VTKFile type="UnstructuredGrid"  version="0.1"  >
<UnstructuredGrid>
<Piece  NumberOfPoints="651" NumberOfCells="1200">
<Points>
<DataArray  type="Float64"  NumberOfComponents="3"  format="ascii">0 0 0  50000 0 0  100000 0 0  150000 0 0  200000 0 0  250000 0 0  300000 0 0  350000 0 0  400000 0 0  450000 0 0  500000 0 0  550000 0 0  600000 0 0  650000 0 0  700000 0 0  750000 0 0  800000 0 0  850000 0 0  900000 0 0  950000 0 0  1000000 0 0  0 50000 0  50000 50000 0  100000 50000 0  150000 50000 0  200000 50000 0  250000 50000 0  300000 50000 0  350000 50000 0  400000 50000 0  450000 50000 0  500000 50000 0  550000 50000 0  600000 50000 0  650000 50000 0  700000 50000 0  750000 50000 0  800000 50000 0  850000 50000 0  900000 50000 0  950000 50000 0  1000000 50000 0  0 100000 0  50000 100000 0  100000 100000 0  150000 100000 0  200000 100000 0  250000 100000 0  300000 100000 0  350000 100000 0  400000 100000 0  450000 100000 0  500000 100000 0  550000 100000 0  600000 100000 0  650000 100000 0  700000 100000 0  750000 100000 0  800000 100000 0  850000 100000 0  900000 100000 0  950000 100000 0  1000000 100000 0  0 150000 0  50000 150000 0  100000 150000 0  150000 150000 0  200000 150000 0  250000 150000 0  300000 150000 0  350000 150000 0  400000 150000 0  450000 150000 0  500000 150000 0  550000 150000 0  600000 150000 0  650000 150000 0  700000 150000 0  750000 150000 0  800000 150000 0  850000 150000 0  900000 150000 0  950000 150000 0  1000000 150000 0  0 200000 0  50000 200000 0  100000 200000 0  150000 200000 0  200000 200000 0  250000 200000 0  300000 200000 0  350000 200000 0  400000 200000 0  450000 200000 0  500000 200000 0  550000 200000 0  600000 200000 0  650000 200000 0  700000 200000 0  750000 200000 0  800000 200000 0  850000 200000 0  900000 200000 0  950000 200000 0  1000000 200000 0  0 250000 0  50000 250000 0  100000 250000 0  150000 250000 0  200000 250000 0  250000 250000 0  300000 250000 0  350000 250000 0  400000 250000 0  450000 250000 0  500000 250000 0  550000 250000 0  600000 250000 0  650000 250000 0  700000 250000 0  750000 250000 0  800000 250000 0  850000 250000 0  900000 250000 0  950000 250000 0  1000000 250000 0  0 300000 0  50000 300000 0  100000 300000 0  150000 300000 0  200000 300000 0  250000 300000 0  300000 300000 0  350000 300000 0  400000 300000 0  450000 300000 0  500000 300000 0  550000 300000 0  600000 300000 0  650000 300000 0  700000 300000 0  750000 300000 0  800000 300000 0  850000 300000 0  900000 300000 0  950000 300000 0  1000000 300000 0  0 350000 0  50000 350000 0  100000 350000 0  150000 350000 0  200000 350000 0  250000 350000 0  300000 350000 0  350000 350000 0  400000 350000 0  450000 350000 0  500000 350000 0  550000 350000 0  600000 350000 0  650000 350000 0  700000 350000 0  750000 350000 0  800000 350000 0  850000 350000 0  900000 350000 0  950000 350000 0  1000000 350000 0  0 400000 0  50000 400000 0  100000 400000 0  150000 400000 0  200000 400000 0  250000 400000 0  300000 400000 0  350000 400000 0  400000 400000 0  450000 400000 0  500000 400000 0  550000 400000 0  600000 400000 0  650000 400000 0  700000 400000 0  750000 400000 0  800000 400000 0  850000 400000 0  900000 400000 0  950000 400000 0  1000000 400000 0  0 450000 0  50000 450000 0  100000 450000 0  150000 450000 0  200000 450000 0  250000 450000 0  300000 450000 0  350000 450000 0  400000 450000 0  450000 450000 0  500000 450000 0  550000 450000 0  600000 450000 0  650000 450000 0  700000 450000 0  750000 450000 0  800000 450000 0  850000 450000 0  900000 450000 0  950000 450000 0  1000000 450000 0  0 500000 0  50000 500000 0  100000 500000 0  150000 500000 0  200000 500000 0  250000 500000 0  300000 500000 0  350000 500000 0  400000 500000 0  450000 500000 0  500000 500000 0  550000 500000 0  600000 500000 0  650000 500000 0  700000 500000 0  750000 500000 0  800000 500000 0  850000 500000 0  900000 500000 0  950000 500000 0  1000000 500000 0  0 550000 0  50000 550000 0  100000 550000 0  150000 550000 0  200000 550000 0  250000 550000 0  300000 550000 0  350000 550000 0  400000 550000 0  450000 550000 0  500000 550000 0  550000 550000 0  600000 550000 0  650000 550000 0  700000 550000 0  750000 550000 0  800000 550000 0  850000 550000 0  900000 550000 0  950000 550000 0  1000000 550000 0  0 600000 0  50000 600000 0  100000 600000 0  150000 600000 0  200000 600000 0  250000 600000 0  300000 600000 0  350000 600000 0  400000 600000 0  450000 600000 0  500000 600000 0  550000 600000 0  600000 600000 0  650000 600000 0  700000 600000 0  750000 600000 0  800000 600000 0  850000 600000 0  900000 600000 0  950000 600000 0  1000000 600000 0  0 650000 0  50000 650000 0  100000 650000 0  150000 650000 0  200000 650000 0  250000 650000 0  300000 650000 0  350000 650000 0  400000 650000 0  450000 650000 0  500000 650000 0  550000 650000 0  600000 650000 0  650000 650000 0  700000 650000 0  750000 650000 0  800000 650000 0  850000 650000 0  900000 650000 0  950000 650000 0  1000000 650000 0  0 700000 0  50000 700000 0  100000 700000 0  150000 700000 0  200000 700000 0  250000 700000 0  300000 700000 0  350000 700000 0  400000 700000 0  450000 700000 0  500000 700000 0  550000 700000 0  600000 700000 0  650000 700000 0  700000 700000 0  750000 700000 0  800000 700000 0  850000 700000 0  900000 700000 0  950000 700000 0  1000000 700000 0  0 750000 0  50000 750000 0  100000 750000 0  150000 750000 0  200000 750000 0  250000 750000 0  300000 750000 0  350000 750000 0  400000 750000 0  450000 750000 0  500000 750000 0  550000 750000 0  600000 750000 0  650000 750000 0  700000 750000 0  750000 750000 0  800000 750000 0  850000 750000 0  900000 750000 0  950000 750000 0  1000000 750000 0  0 800000 0  50000 800000 0  100000 800000 0  150000 800000 0  200000 800000 0  250000 800000 0  300000 800000 0  350000 800000 0  400000 800000 0  450000 800000 0  500000 800000 0  550000 800000 0  600000 800000 0  650000 800000 0  700000 800000 0  750000 800000 0  800000 800000 0  850000 800000 0  900000 800000 0  950000 800000 0  1000000 800000 0  0 850000 0  50000 850000 0  100000 850000 0  150000 850000 0  200000 850000 0  250000 850000 0  300000 850000 0  350000 850000 0  400000 850000 0  450000 850000 0  500000 850000 0  550000 850000 0  600000 850000 0  650000 850000 0  700000 850000 0  750000 850000 0  800000 850000 0  850000 850000 0  900000 850000 0  950000 850000 0  1000000 850000 0  0 900000 0  50000 900000 0  100000 900000 0  150000 900000 0  200000 900000 0  250000 900000 0  300000 900000 0  350000 900000 0  400000 900000 0  450000 900000 0  500000 900000 0  550000 900000 0  600000 900000 0  650000 900000 0  700000 900000 0  750000 900000 0  800000 900000 0  850000 900000 0  900000 900000 0  950000 900000 0  1000000 900000 0  0 950000 0  50000 950000 0  100000 950000 0  150000 950000 0  200000 950000 0  250000 950000 0  300000 950000 0  350000 950000 0  400000 950000 0  450000 950000 0  500000 950000 0  550000 950000 0  600000 950000 0  650000 950000 0  700000 950000 0  750000 950000 0  800000 950000 0  850000 950000 0  900000 950000 0  950000 950000 0  1000000 950000 0  0 1000000 0  50000 1000000 0  100000 1000000 0  150000 1000000 0  200000 1000000 0  250000 1000000 0  300000 1000000 0  350000 1000000 0  400000 1000000 0  450000 1000000 0  500000 1000000 0  550000 1000000 0  600000 1000000 0  650000 1000000 0  700000 1000000 0  750000 1000000 0  800000 1000000 0  850000 1000000 0  900000 1000000 0  950000 1000000 0  1000000 1000000 0  0 1050000 0  50000 1050000 0  100000 1050000 0  150000 1050000 0  200000 1050000 0  250000 1050000 0  300000 1050000 0  350000 1050000 0  400000 1050000 0  450000 1050000 0  500000 1050000 0  550000 1050000 0  600000 1050000 0  650000 1050000 0  700000 1050000 0  750000 1050000 0  800000 1050000 0  850000 1050000 0  900000 1050000 0  950000 1050000 0  1000000 1050000 0  0 1100000 0  50000 1100000 0  100000 1100000 0  150000 1100000 0  200000 1100000 0  250000 1100000 0  300000 1100000 0  350000 1100000 0  400000 1100000 0  450000 1100000 0  500000 1100000 0  550000 1100000 0  600000 1100000 0  650000 1100000 0  700000 1100000 0  750000 1100000 0  800000 1100000 0  850000 1100000 0  900000 1100000 0  950000 1100000 0  1000000 1100000 0  0 1150000 0  50000 1150000 0  100000 1150000 0  150000 1150000 0  200000 1150000 0  250000 1150000 0  300000 1150000 0  350000 1150000 0  400000 1150000 0  450000 1150000 0  500000 1150000 0  550000 1150000 0  600000 1150000 0  650000 1150000 0  700000 1150000 0  750000 1150000 0  800000 1150000 0  850000 1150000 0  900000 1150000 0  950000 1150000 0  1000000 1150000 0  0 1200000 0  50000 1200000 0  100000 1200000 0  150000 1200000 0  200000 1200000 0  250000 1200000 0  300000 1200000 0  350000 1200000 0  400000 1200000 0  450000 1200000 0  500000 1200000 0  550000 1200000 0  600000 1200000 0  650000 1200000 0  700000 1200000 0  750000 1200000 0  800000 1200000 0  850000 1200000 0  900000 1200000 0  950000 1200000 0  1000000 1200000 0  0 1250000 0  50000 1250000 0  100000 1250000 0  150000 1250000 0  200000 1250000 0  250000 1250000 0  300000 1250000 0  350000 1250000 0  400000 1250000 0  450000 1250000 0  500000 1250000 0  550000 1250000 0  600000 1250000 0  650000 1250000 0  700000 1250000 0  750000 1250000 0  800000 1250000 0  850000 1250000 0  900000 1250000 0  950000 1250000 0  1000000 1250000 0  0 1300000 0  50000 1300000 0  100000 1300000 0  150000 1300000 0  200000 1300000 0  250000 1300000 0  300000 1300000 0  350000 1300000 0  400000 1300000 0  450000 1300000 0  500000 1300000 0  550000 1300000 0  600000 1300000 0  650000 1300000 0  700000 1300000 0  750000 1300000 0  800000 1300000 0  850000 1300000 0  900000 1300000 0  950000 1300000 0  1000000 1300000 0  0 1350000 0  50000 1350000 0  100000 1350000 0  150000 1350000 0  200000 1350000 0  250000 1350000 0  300000 1350000 0  350000 1350000 0  400000 1350000 0  450000 1350000 0  500000 1350000 0  550000 1350000 0  600000 1350000 0  650000 1350000 0  700000 135
[...]
<PointData  Scalars="f_25"> 
<DataArray  type="Float64"  Name="f_25"  format="ascii">-8.1036941663754902e+00  -7.3836973518961679e+00  -6.5847415935922706e+00  -5.7322057961849522e+00  -4.8525029550554191e+00  -3.9538596824099650e+00  -3.0407257287085483e+00  -2.1164942396799433e+00  -1.1842179585876844e+00  -2.4685716902507376e-01  6.9262199613927455e-01  1.6312014115696041e+00  2.5657742719412164e+00  3.4930855275020236e+00  4.4096072239757271e+00  5.3112735061401368e+00  6.1929219018540991e+00  7.0470524482848242e+00  7.8602217519384574e+00  8.5981950461958849e+00  9.0765902713969204e+00  -7.6474494807585867e+00  -7.3197210204894905e+00  -6.5715675768028792e+00  -5.7303990924228296e+00  -4.8534744859680945e+00  -3.9554729561753406e+00  -3.0423255904437432e+00  -2.1178148202328377e+00  -1.1851190051370539e+00  -2.4724495577235447e-01  6.9282511696738236e-01  1.6320746489464724e+00  2.5674158310278390e+00  3.4956358427416077e+00  4.4132751573002329e+00  5.3163149872529720e+00  6.1992748209355151e+00  7.0522444551817269e+00  7.8502772041611983e+00  8.5155256871359200e+00  8.8024152601383658e+00  -7.1206709537427075e+00  -6.9607243786725457e+00  -6.3974988539754021e+00  -5.6452296350127922e+00  -4.8097160380571138e+00  -3.9321825313457230e+00  -3.0297576364551446e+00  -2.1110807212645053e+00  -1.1816190974234753e+00  -2.4559618405766565e-01  6.9324840248564745e-01  1.6313145777399671e+00  2.5649273930652758e+00  3.4900979691140765e+00  4.4020877741046700e+00  5.2944279970527042e+00  6.1565250955829685e+00  6.9676387178518429e+00  7.6821584273666685e+00  8.1986379196391361e+00  8.3289901234781034e+00  -6.6165334262146915e+00  -6.5213913753425032e+00  -6.0981426806208141e+00  -5.4581807436933385e+00  -4.6946053448260825e+00  -3.8610767716034196e+00  -2.9858187456118248e+00  -2.0843853217312565e+00  -1.1663719933061862e+00  -2.3857488481586731e-01  6.9348727218077566e-01  1.6247629195242224e+00  2.5501157870876012e+00  3.4637494363521668e+00  4.3583214444317697e+00  5.2232936774581020e+00  6.0416887498904606e+00  6.7838719215184096e+00  7.3970565904358399e+00  7.7940327287493680e+00  7.8688894938622775e+00  -6.1402156192564048e+00  -6.0739094237149347e+00  -5.7418338887209091e+00  -5.2000869447286346e+00  -4.5160484720459353e+00  -3.7402759652229789e+00  -2.9056086840859847e+00  -2.0328524726453048e+00  -1.1357897883776498e+00  -2.2436330779246216e-01  6.9344463307230442e-01  1.6104429786619670e+00  2.5193593284761557e+00  3.4119570283483451e+00  4.2778452100938367e+00  5.1026184816656786e+00  5.8648889709698926e+00  6.5319630151131811e+00  7.0552375513645460e+00  7.3709658616800571e+00  7.4239195993404081e+00  -5.6937438773277655e+00  -5.6425860939106744e+00  -5.3703990368889833e+00  -4.9058957161756851e+00  -4.2953367466514347e+00  -3.5806377907108011e+00  -2.7938484020197425e+00  -1.9580938975760434e+00  -1.0901695662353610e+00  -2.0288946026095933e-01  6.9317536836860738e-01  1.5884276881410373e+00  2.4732080299262598e+00  3.3367635008036078e+00  4.1660074371812703e+00  4.9438826721711076e+00  5.6472677267151612e+00  6.2448129865320965e+00  6.6962888565235499e+00  6.9575307733091636e+00  6.9997444549367875e+00  -5.2800013558827565e+00  -5.2379786322117594e+00  -5.0068130500683496e+00  -4.6015461208432704e+00  -4.0539600253673358e+00  -3.3972319837217193e+00  -2.6601164322386870e+00  -1.8657675889313006e+00  -1.0325550303058899e+00  -1.7542501724193479e-01  6.9278610490782022e-01  1.5602175001806822e+00  2.4149723109410348e+00  3.2441195691323705e+00  4.0326093094959656e+00  4.7620685080469149e+00  5.4096240123686155e+00  5.9472877164470033e+00  6.3431447964233136e+00  6.5666479214686273e+00  6.6024498239708933e+00  -4.9020536708157376e+00  -4.8661050222662876e+00  -4.6642751711611696e+00  -4.3045234701368953e+00  -3.8092375222880492e+00  -3.2044740427246650e+00  -2.5151352679499093e+00  -1.7631606839749654e+00  -9.6735895912567549e-01  -1.4399404109028216e-01  6.9237750548286758e-01  1.5280353863597000e+00  2.3492472722995110e+00  3.1414351585317286e+00  3.8883513853685341e+00  4.5713251817344238e+00  5.1687852263951175e+00  5.6565049104380805e+00  6.0093407923704412e+00  6.2056503781439938e+00  6.2371091597238051e+00  -4.5626995135171216e+00  -4.5310591859647156e+00  -4.3509410902475638e+00  -4.0264767289971752e+00  -3.5740255038785533e+00  -3.0143127872202897e+00  -2.3687257552227043e+00  -1.6575308080864468e+00  -8.9927083819027809e-01  -1.1085225497588316e-01  6.9202081607965882e-01  1.4942685116224319e+00  2.2808159534028953e+00  3.0359858597166678e+00  3.7429558031029417e+00  4.3833783685276098e+00  4.9373506943616210e+00  5.3840367974483296e+00  5.7033649833738940e+00  5.8794321233603366e+00  5.9077381051130002e+00  -4.2643112424079099e+00  -4.2358534471332945e+00  -4.0721709447268344e+00  -3.7752491991856751e+00  -3.3575566108981318e+00  -2.8359771508879299e+00  -2.2290112040578842e+00  -1.5552399816533387e+00  -8.3258968725291083e-01  -7.8136626027220560e-02  6.9175527581391538e-01  1.4611204529983124e+00  2.2140078639709846e+00  2.9341053067687461e+00  3.6044482570947820e+00  4.2073137074449045e+00  4.7244407618694506e+00  5.1377610017472470e+00  5.4308559968527117e+00  5.5915377282378396e+00  5.6174765249399394e+00  -4.0088068468707840e+00  -3.9827522239750834e+00  -3.8316279555659096e+00  -3.5561854178617853e+00  -3.1663565722479849e+00  -2.6763110207383489e+00  -2.1023101364734846e+00  -1.4614470356514813e+00  -7.7091737162672380e-01  -4.7682329926730056e-02  6.9159456421784704e-01  1.4304447937856883e+00  2.1524179383378561e+00  2.8409097286196947e+00  3.4790726526114524e+00  4.0498953137525566e+00  4.5365483395335486e+00  4.9230989286258984e+00  5.1957066926784501e+00  5.3446106292145332e+00  5.3687560603465441e+00  -3.7976761151617442e+00  -3.7734449968101327e+00  -3.6318569090052160e+00  -3.3729461432329604e+00  -3.0049825303532396e+00  -2.5402463146467293e+00  -1.9933301571127195e+00  -1.3801128467027604e+00  -7.1708731189788300e-01  -2.0961080415959506e-02  6.9153507462792507e-01  1.4037007565470807e+00  2.0988531824469754e+00  2.7603171501512644e+00  3.3714855703430961e+00  3.9160179910428927e+00  4.3782408057176800e+00  4.7438031641299316e+00  5.0006538647409187e+00  5.1406252995479473e+00  5.1634311949159351e+00  -3.6320279734156573e+00  -3.6091603226528060e+00  -3.4746179072639274e+00  -3.2280233109828780e+00  -2.8765666953421127e+00  -2.4312432625832914e+00  -1.9054520518118716e+00  -1.3141446367943008e+00  -6.7321743794788835e-01  9.0971357218933686e-04  6.9156287519328463e-01  1.3819756974628403e+00  2.0553964888804774e+00  2.6951966284758506e+00  3.2850354459137519e+00  3.8091319533456431e+00  4.2526837412463596e+00  4.6024608903682305e+00  4.8476217174921610e+00  4.9810350455567054e+00  5.0028843865218962e+00  -3.5126428049397078e+00  -3.4907514630296976e+00  -3.3610949842414244e+00  -3.1230728012593936e+00  -2.7832017749185716e+00  -2.3516462234305315e+00  -1.8410046851742394e+00  -1.2655773958128833e+00  -6.4081117896860595e-01  1.7125917076789867e-02  6.9165856505107193e-01  1.3660349457015795e+00  2.0235135654822618e+00  2.6475506584485604e+00  3.2220322070736547e+00  3.7315882623892112e+00  4.1620154007216232e+00  4.5008220684806330e+00  4.7379381765523787e+00  4.8668785206498484e+00  4.8881122137552833e+00  -3.4400202298033342e+00  -3.4187620078334477e+00  -3.2920321945612097e+00  -3.0591312394514474e+00  -2.7262057739644772e+00  -2.3029480878801438e+00  -1.8014899838387766e+00  -1.2357399095703028e+00  -6.2086173489004459e-01  2.7148733674339877e-02  6.9180023344970387e-01  1.3563748570636336e+00  2.0041599995423081e+00  2.6186805079731164e+00  3.1839678612698439e+00  3.6848964951353405e+00  4.1076055137923957e+00  4.4400148971171793e+00  4.6724771435155468e+00  4.7988592849193932e+00  4.8197945165456764e+00  -3.4144160903192002e+00  -3.3934727758490819e+00  -3.2678206646505017e+00  -3.0367527809564177e+00  -2.7062939116454618e+00  -2.2859701812752955e+00  -1.7877448236666917e+00  -1.2253815345204015e+00  -6.1393636561107789e-01  3.0663914371318587e-02  6.9196502293297169e-01  1.3532661314946113e+00  1.9978664114770033e+00  2.6093115803863238e+00  3.1716748695326169e+00  3.6699002271412193e+00  4.0902239575113777e+00  4.4206828268223681e+00  4.6517507105164446e+00  4.7774028217150359e+00  4.7983461361851649e+00  -3.4358644706797143e+00  -3.4149292390534374e+00  -3.2885470976496043e+00  -3.0560848512512440e+00  -2.7236754679264776e+00  -2.3009664492694357e+00  -1.8000378154039287e+00  -1.2347504621072087e+00  -6.2022995367640144e-01  2.7555188802295370e-02  6.9212981241624516e-01  1.3567813121916052e+00  2.0047917807559834e+00  2.6196699554362310e+00  3.1854200297047064e+00  3.6868781337460819e+00  4.1101358198304192e+00  4.4430612853173992e+00  4.6759622404272045e+00  4.8026920536994631e+00  4.8239502756693486e+00  -3.5041821678893119e+00  -3.4829484747838926e+00  -3.3540081306864407e+00  -3.1168920226146928e+00  -2.7780853548557176e+00  -2.3476582165233251e+00  -1.8381021612077577e+00  -1.2636206125826583e+00  -6.3958351961634441e-01  1.7895100164366903e-02  6.9227148081489476e-01  1.3668041287891797e+00  2.0247412248345644e+00  2.6495074416788329e+00  3.2249347310402019e+00  3.7355762692964971e+00  4.1671318207845411e+00  4.5070028471253627e+00  4.7450250301074650e+00  4.8746815088957849e+00  4.8965728508057831e+00  -3.6189543406558955e+00  -3.5971049996906981e+00  -3.4636916716261723e+00  -3.2185308445022409e+00  -2.8687536953804207e+00  -2.4252019074797397e+00  -1.9011054000478316e+00  -1.3112665826099235e+00  -6.7146644301452596e-01  1.9543484031302872e-03  6.9236717067271525e-01  1.3830203322938210e+00  2.0571474838138855e+00  2.6980746826602826e+00  3.2893820976778549e+00  3.8151733084492796e+00  4.2604967412081427e+00  4.6119533568489013e+00  4.8585479531299560e+00  4.9930903685188355e+00  5.0159580192816895e+00  -3.7795011490499233e+00  -3.7566952536819445e+00  -3.6167238188749189e+00  -3.3598731182639603e+00  -2.9943107598517149e+00  -2.5320879451769489e+00  -1.9875555244771492e+00  -1.3763871042853018e+00  -7.1492313658099005e-01  -1.9770710681077493e-02  6.9239497123810378e-01  1.4048911262819976e+00  2.1010173577639151e+00  2.7640428925687641e+00  3.3772602029787158e+00  3.9241763605127145e+00  4.3889125762192700e+00  4.7568761890989810e+00  5.0157869548712029e+00  5.1573750426761062e+00  5.1816061610277311e+00  -3.9848260144804826e+00  -3.9606805833484811e+00  -3.8117766468124068e+00  -3.5391688827598817e+00  -3.1526182936675275e+00  -2.6659652678865351e+00  -2.0951426067454326e+00  -1.4569796827536761e+00  -7.6848789247181837e-01  -4.6514747919636598e-02  6.9233548164822645e-01  1.4316123757928108e+00  2.1548474174928045e+00  2.8453770815175563e+00  3.4862401823395617e+00  4.0602410666044086e+00  4.5502866181140265e+00  4.9401154637277980e+00  5.2155580014319156e+00  5.3666822698410632e+00  5.3927368927367585e+00  -4.2335464790738042e+00  -4.2076076823717496e+00  -4.0469259509866102e+00  -3.7538309558811815e+00  -3.3405107160033829e+00  -2.8233836615788270e+00  -2.2205182112287072e+00  -1.5501752609026755e+00  -8.3007781810489323e-01  -7.7190407132193009e-02  6.9217477005222017e-01  1.4620666718933657e+00  2.2165197331190503e+00  2.9391700275194927e+00  3.6129412499240390e+00  4.2199071967540585e+00  4.7414866567642155e+00  5.1591792450517158e+00  5.4561009905928586e+00  5.6197834929992840e+00  5.6482412882738595e+00  -4.5238080592468526e+00  -4.4955020774942103e+00  -4.3194349375077437e+00  -4.0001067515822024e+00  -3.5534206484955031e+00  -2.9994483226614803e+00  -2.3590257572368127e+00  -1.6520558138505137e+00  -8.9688590753672126e-01  -1.1033846575624459e-01  6.9190922978654501e-01  1.4947823008421028e+00  2.2832008840564972e+00  3.0414608539526755e+00  3.7526558010889213e+00  4.3982428330864609e+00  4.9579555497446739e+00  5.4104067748632563e+00  5.7348711361136058e+00  5.9149892318307389e+00  5.9466295593831404e+00  -4.8531791138576166e+00  -4.8217203322777911e+00  -4.6254107465042438e+00  -4.2725748645719221e+00  -3.7848551805289468e+00  -3.1873951358682349e+00  -2.5044213395023300e+00  -1.7575051126654972e+00  -9.6531722643327300e-01  -1.4410534049344639e-01  6.9155254038339886e-01  1.5279240869565582e+00  2.3512890049919473e+00  3.1470907298412278e+00  3.8990653138161484e+00  4.5884040885908703e+00  5.1931675681542275e+00  5.6884535160030181e+00  6.0482052170272516e+00  6.2500350681323571e+00  6.2859837166818053e+00  -5.2185197781046915e+00  -5.1827178756024272e+00  -4.9592147505571313e+00  -4.5633576705808236e+00  -4.0256939665023852e+00  -3.3781384621806674e+00  -2.6486792636296808e+00  -1.8601895232660590e+00  -1.0310422650747135e+00  -1.7628745431435364e-01  6.9114394095851361e-01  1.5593550631082749e+00  2.4164850761722234e+00  3.2496976347975979e+00  4.0440464781049572e+00  4.7811620295879553e+00  5.4378900712335687e+00  5.9854761667094687e+00  6.3907430959345053e+00  6.6219086780778831e+00  6.6639314017488855e+00  -5.6158144090705360e+00  -5.5736007274429413e+00  -5.3123588106573019e+00  -4.8608829406658352e+00  -4.2633376808488741e+00  -3.5599526263048249e+00  -2.7820773913149357e+00  -1.9528334549372184e+00  -1.0892779840598701e+00  -2.0449764227464828e-01  6.9075467749778807e-01  1.5868195061273576e+00  2.4740996121017522e+00  3.3420239434424022e+00  4.1777784478860696e+00  4.9645678365771202e+00  5.6792667925177351e+00  6.2898257620419411e+00  6.7543290827551816e+00  7.0265161397768727e+00  7.0776739231939665e+00  -6.0399895534741148e+00  -5.9870358158137682e+00  -5.6713075054982331e+00  -5.1480329692468674e+00  -4.4809589251035620e+00  -3.7186884357993453e+00  -2.8939151642274497e+00  -2.0280269824819133e+00  -1.1354292826097205e+00  -2.2651293279553505e-01  6.9048541279413489e-01  1.6082933536589021e+00  2.5197198342440736e+00  3.4167825185117016e+00  4.2895387299523735e+00  5.1242060110893854e+00  5.8999785179122908e+00  6.5840169905949528e+00  7.1257639345872095e+00  7.4578394695812049e+00  7.5241456651226724e+00  -6.4849594479959229e+00  -6.4101026828830197e+00  -6.0131265445695030e+00  -5.3999418756520683e+00  -4.6577587040241069e+00  -3.8393636315917172e+00  -2.9743913985653379e+00  -2.0798193904857154e+00  -1.1661857412211349e+00  -2.4083287365776082e-01  6.9044277368568763e-01  1.6225049306823314e+00  2.5503020391726325e+00  3.4683153675976812e+00  4.3697487914782718e+00  5.2450068174698758e+00  6.0785353906925161e+00  6.8421107895597038e+00  7.4820727264871580e+00  7.9053214212088294e+00  8.0004634720810177e+00  -6.9450600776117257e+00  -6.8147078737727185e+00  -6.2982283815003148e+00  -5.5837086719854847e+00  -4.7725950497166219e+00  -3.9104979511863145e+00  -3.0181577282382364e+00  -2.1061679232476043e+00  -1.1809973471988164e+00  -2.4738453187349735e-01  6.9068164338083060e-01  1.6295262299241395e+00  2.5655491432899380e+00  3.4950107671309398e+00  4.4136876823215969e+00  5.3161125772121762e+00  6.1936460839235608e+00  7.0291596808791930e+00  7.7814288998417691e+00  8.3446544245388896e+00  8.5046009996091083e+00  -7.4184852142720086e+00  -7.1315956412695618e+00  -6.4663471582949184e+00  -5.6683144093154194e+00  -4.8153447750691765e+00  -3.9323849413865890e+00  -3.0293451114338010e+00  -2.1117057968751496e+00  -1.1834857851613694e+00  -2.4814460307999711e-01  6.9110492889909625e-01  1.6311750016388351e+00  2.5690490510035278e+00  3.5017448660993011e+00  4.4262556363102039e+00  5.3394030020417631e+00  6.2374045318345281e+00  7.1143291382892313e+00  7.9554976226692924e+00  8.7036510663558762e+00  9.0313795266249759e+00  -7.6926602255305632e+00  -7.2142650003295241e+00  -6.4762917060721437e+00  -5.6631224024185070e+00  -4.8089918559877454e+00  -3.9273434602737525e+00  -3.0256771781092935e+00  -2.1091554816355660e+00  -1.1818442260747402e+00  -2.4727136570312463e-01  6.9130804972721038e-01  1.6307872148915468e+00  2.5681480044541627e+00  3.5004242855464076e+00  4.4246557745750028e+00  5.3377897282763875e+00  6.2364330009218527e+00  7.1161358420513716e+00  7.9686716394586599e+00  8.7676273977625652e+00  9.4876242122418883e+00  </DataArray> 
</PointData> 
</Piece>
</UnstructuredGrid>
</VTKFile>