<?xml version="1.0"?>
<VTKFile type="UnstructuredGrid"  version="0.1"  >
<UnstructuredGrid>
<Piece  NumberOfPoints="651" NumberOfCells="1200">
<Points>
<DataArray  type="Float64"  NumberOfComponents="3"  format="ascii">0 0 0  50000 0 0  100000 0 0  150000 0 0  200000 0 0  250000 0 0  300000 0 0  350000 0 0  400000 0 0  450000 0 0  500000 0 0  550000 0 0  600000 0 0  650000 0 0  700000 0 0  750000 0 0  800000 0 0  850000 0 0  900000 0 0  950000 0 0  1000000 0 0  0 50000 0  50000 50000 0  100000 50000 0  150000 50000 0  200000 50000 0  250000 50000 0  300000 50000 0  350000 50000 0  400000 50000 0  450000 50000 0  500000 50000 0  550000 50000 0  600000 50000 0  650000 50000 0  700000 50000 0  750000 50000 0  800000 50000 0  850000 50000 0  900000 50000 0  950000 50000 0  1000000 50000 0  0 100000 0  50000 100000 0  100000 100000 0  150000 100000 0  200000 100000 0  250000 100000 0  300000 100000 0  350000 100000 0  400000 100000 0  450000 100000 0  500000 100000 0  550000 100000 0  600000 100000 0  650000 100000 0  700000 100000 0  750000 100000 0  800000 100000 0  850000 100000 0  900000 100000 0  950000 100000 0  1000000 100000 0  0 150000 0  50000 150000 0  100000 150000 0  150000 150000 0  200000 150000 0  250000 150000 0  300000 150000 0  350000 150000 0  400000 150000 0  450000 150000 0  500000 150000 0  550000 150000 0  600000 150000 0  650000 150000 0  700000 150000 0  750000 150000 0  800000 150000 0  850000 150000 0  900000 150000 0  950000 150000 0  1000000 150000 0  0 200000 0  50000 200000 0  100000 200000 0  150000 200000 0  200000 200000 0  250000 200000 0  300000 200000 0  350000 200000 0  400000 200000 0  450000 200000 0  500000 200000 0  550000 200000 0  600000 200000 0  650000 200000 0  700000 200000 0  750000 200000 0  800000 200000 0  850000 200000 0  900000 200000 0  950000 200000 0  1000000 200000 0  0 250000 0  50000 250000 0  100000 250000 0  150000 250000 0  200000 250000 0  250000 250000 0  300000 250000 0  350000 250000 0  400000 250000 0  450000 250000 0  500000 250000 0  550000 250000 0  600000 250000 0  650000 250000 0  700000 250000 0  750000 250000 0  800000 250000 0  850000 250000 0  900000 250000 0  950000 250000 0  1000000 250000 0  0 300000 0  50000 300000 0  100000 300000 0  150000 300000 0  200000 300000 0  250000 300000 0  300000 300000 0  350000 300000 0  400000 300000 0  450000 300000 0  500000 300000 0  550000 300000 0  600000 300000 0  650000 300000 0  700000 300000 0  750000 300000 0  800000 300000 0  850000 300000 0  900000 300000 0  950000 300000 0  1000000 300000 0  0 350000 0  50000 350000 0  100000 350000 0  150000 350000 0  200000 350000 0  250000 350000 0  300000 350000 0  350000 350000 0  400000 350000 0  450000 350000 0  500000 350000 0  550000 350000 0  600000 350000 0  650000 350000 0  700000 350000 0  750000 350000 0  800000 350000 0  850000 350000 0  900000 350000 0  950000 350000 0  1000000 350000 0  0 400000 0  50000 400000 0  100000 400000 0  150000 400000 0  200000 400000 0  250000 400000 0  300000 400000 0  350000 400000 0  400000 400000 0  450000 400000 0  500000 400000 0  550000 400000 0  600000 400000 0  650000 400000 0  700000 400000 0  750000 400000 0  800000 400000 0  850000 400000 0  900000 400000 0  950000 400000 0  1000000 400000 0  0 450000 0  50000 450000 0  100000 450000 0  150000 450000 0  200000 450000 0  250000 450000 0  300000 450000 0  350000 450000 0  400000 450000 0  450000 450000 0  500000 450000 0  550000 450000 0  600000 450000 0  650000 450000 0  700000 450000 0  750000 450000 0  800000 450000 0  850000 450000 0  900000 450000 0  950000 450000 0  1000000 450000 0  0 500000 0  50000 500000 0  100000 500000 0  150000 500000 0  200000 500000 0  250000 500000 0  300000 500000 0  350000 500000 0  400000 500000 0  450000 500000 0  500000 500000 0  550000 500000 0  600000 500000 0  650000 500000 0  700000 500000 0  750000 500000 0  800000 500000 0  850000 500000 0  900000 500000 0  950000 500000 0  1000000 500000 0  0 550000 0  50000 550000 0  100000 550000 0  150000 550000 0  200000 550000 0  250000 550000 0  300000 550000 0  350000 550000 0  400000 550000 0  450000 550000 0  500000 550000 0  550000 550000 0  600000 550000 0  650000 550000 0  700000 550000 0  750000 550000 0  800000 550000 0  850000 550000 0  900000 550000 0  950000 550000 0  1000000 550000 0  0 600000 0  50000 600000 0  100000 600000 0  150000 600000 0  200000 600000 0  250000 600000 0  300000 600000 0  350000 600000 0  400000 600000 0  450000 600000 0  500000 600000 0  550000 600000 0  600000 600000 0  650000 600000 0  700000 600000 0  750000 600000 0  800000 600000 0  850000 600000 0  900000 600000 0  950000 600000 0  1000000 600000 0  0 650000 0  50000 650000 0  100000 650000 0  150000 650000 0  200000 650000 0  250000 650000 0  300000 650000 0  350000 650000 0  400000 650000 0  450000 650000 0  500000 650000 0  550000 650000 0  600000 650000 0  650000 650000 0  700000 650000 0  750000 650000 0  800000 650000 0  850000 650000 0  900000 650000 0  950000 650000 0  1000000 650000 0  0 700000 0  50000 700000 0  100000 700000 0  150000 700000 0  200000 700000 0  250000 700000 0  300000 700000 0  350000 700000 0  400000 700000 0  450000 700000 0  500000 700000 0  550000 700000 0  600000 700000 0  650000 700000 0  700000 700000 0  750000 700000 0  800000 700000 0  850000 700000 0  900000 700000 0  950000 700000 0  1000000 700000 0  0 750000 0  50000 750000 0  100000 750000 0  150000 750000 0  200000 750000 0  250000 750000 0  300000 750000 0  350000 750000 0  400000 750000 0  450000 750000 0  500000 750000 0  550000 750000 0  600000 750000 0  650000 750000 0  700000 750000 0  750000 750000 0  800000 750000 0  850000 750000 0  900000 750000 0  950000 750000 0  1000000 750000 0  0 800000 0  50000 800000 0  100000 800000 0  150000 800000 0  200000 800000 0  250000 800000 0  300000 800000 0  350000 800000 0  400000 800000 0  450000 800000 0  500000 800000 0  550000 800000 0  600000 800000 0  650000 800000 0  700000 800000 0  750000 800000 0  800000 800000 0  850000 800000 0  900000 800000 0  950000 800000 0  1000000 800000 0  0 850000 0  50000 850000 0  100000 850000 0  150000 850000 0  200000 850000 0  250000 850000 0  300000 850000 0  350000 850000 0  400000 850000 0  450000 850000 0  500000 850000 0  550000 850000 0  600000 850000 0  650000 850000 0  700000 850000 0  750000 850000 0  800000 850000 0  850000 850000 0  900000 850000 0  950000 850000 0  1000000 850000 0  0 900000 0  50000 900000 0  100000 900000 0  150000 900000 0  200000 900000 0  250000 900000 0  300000 900000 0  350000 900000 0  400000 900000 0  450000 900000 0  500000 900000 0  550000 900000 0  600000 900000 0  650000 900000 0  700000 900000 0  750000 900000 0  800000 900000 0  850000 900000 0  900000 900000 0  950000 900000 0  1000000 900000 0  0 950000 0  50000 950000 0  100000 950000 0  150000 950000 0  200000 950000 0  250000 950000 0  300000 950000 0  350000 950000 0  400000 950000 0  450000 950000 0  500000 950000 0  550000 950000 0  600000 950000 0  650000 950000 0  700000 950000 0  750000 950000 0  800000 950000 0  850000 950000 0  900000 950000 0  950000 950000 0  1000000 950000 0  0 1000000 0  50000 1000000 0  100000 1000000 0  150000 1000000 0  200000 1000000 0  250000 1000000 0  300000 1000000 0  350000 1000000 0  400000 1000000 0  450000 1000000 0  500000 1000000 0  550000 1000000 0  600000 1000000 0  650000 1000000 0  700000 1000000 0  750000 1000000 0  800000 1000000 0  850000 1000000 0  900000 1000000 0  950000 1000000 0  1000000 1000000 0  0 1050000 0  50000 1050000 0  100000 1050000 0  150000 1050000 0  200000 1050000 0  250000 1050000 0  300000 1050000 0  350000 1050000 0  400000 1050000 0  450000 1050000 0  500000 1050000 0  550000 1050000 0  600000 1050000 0  650000 1050000 0  700000 1050000 0  750000 1050000 0  800000 1050000 0  850000 1050000 0  900000 1050000 0  950000 1050000 0  1000000 1050000 0  0 1100000 0  50000 1100000 0  100000 1100000 0  150000 1100000 0  200000 1100000 0  250000 1100000 0  300000 1100000 0  350000 1100000 0  400000 1100000 0  450000 1100000 0  500000 1100000 0  550000 1100000 0  600000 1100000 0  650000 1100000 0  700000 1100000 0  750000 1100000 0  800000 1100000 0  850000 1100000 0  900000 1100000 0  950000 1100000 0  1000000 1100000 0  0 1150000 0  50000 1150000 0  100000 1150000 0  150000 1150000 0  200000 1150000 0  250000 1150000 0  300000 1150000 0  350000 1150000 0  400000 1150000 0  450000 1150000 0  500000 1150000 0  550000 1150000 0  600000 1150000 0  650000 1150000 0  700000 1150000 0  750000 1150000 0  800000 1150000 0  850000 1150000 0  900000 1150000 0  950000 1150000 0  1000000 1150000 0  0 1200000 0  50000 1200000 0  100000 1200000 0  150000 1200000 0  200000 1200000 0  250000 1200000 0  300000 1200000 0  350000 1200000 0  400000 1200000 0  450000 1200000 0  500000 1200000 0  550000 1200000 0  600000 1200000 0  650000 1200000 0  700000 1200000 0  750000 1200000 0  800000 1200000 0  850000 1200000 0  900000 1200000 0  950000 1200000 0  1000000 1200000 0  0 1250000 0  50000 1250000 0  100000 1250000 0  150000 1250000 0  200000 1250000 0  250000 1250000 0  300000 1250000 0  350000 1250000 0  400000 1250000 0  450000 1250000 0  500000 1250000 0  550000 1250000 0  600000 1250000 0  650000 1250000 0  700000 1250000 0  750000 1250000 0  800000 1250000 0  850000 1250000 0  900000 1250000 0  950000 1250000 0  1000000 1250000 0  0 1300000 0  50000 1300000 0  100000 1300000 0  150000 1300000 0  200000 1300000 0  250000 1300000 0  300000 1300000 0  350000 1300000 0  400000 1300000 0  450000 1300000 0  500000 1300000 0  550000 1300000 0  600000 1300000 0  650000 1300000 0  700000 1300000 0  750000 1300000 0  800000 1300000 0  850000 1300000 0  900000 1300000 0  950000 1300000 0  1000000 1300000 0  0 1350000 0  50000 1350000 0  100000 1350000 0  150000 1350000 0  200000 1350000 0  250000 1350000 0  300000 1350000 0  350000 1350000 0  400000 1350000 0  450000 1350000 0  500000 1350000 0  550000 1350000 0  600000 1350000 0  650000 1350000 0  700000 135
[...]
<PointData  Scalars="f_25"> 
<DataArray  type="Float64"  Name="f_25"  format="ascii">-4.4897255533955791e+00  -4.0646502960208677e+00  -3.5933522649978826e+00  -3.0906004085791503e+00  -2.5719036339271120e+00  -2.0420895966370840e+00  -1.5037677828441391e+00  -9.5892871321233708e-01  -4.0936427481308024e-01  1.4318708403461686e-01  6.9698296059506648e-01  1.2502501961591661e+00  1.8011636347855517e+00  2.3478115264716641e+00  2.8881229457463613e+00  3.4197135047495411e+00  3.9395606083617536e+00  4.4432833703947576e+00  4.9230428593939513e+00  5.3588056343095740e+00  5.6416942899105100e+00  -4.2201488566855749e+00  -4.0264030284452801e+00  -3.5852349005271571e+00  -3.0892899793705544e+00  -2.5722960514083479e+00  -2.0429014407950072e+00  -1.5045998096173729e+00  -9.5961711321769649e-01  -4.0982245314505839e-01  1.4301650661842466e-01  6.9714674526300724e-01  1.2507951269929165e+00  1.8021467410477860e+00  2.3493133750908148e+00  2.8902620782598700e+00  3.4226315699494938e+00  3.9432020993910841e+00  4.4461519523267752e+00  4.9168240939479135e+00  5.3094466236656288e+00  5.4794680173949706e+00  -3.9088461158925978e+00  -3.8141272327592119e+00  -3.4819706435165600e+00  -3.0385367631316904e+00  -2.5460645160347206e+00  -2.0288290071402062e+00  -1.4969250277220993e+00  -9.5544595234700136e-01  -4.0761428749051515e-01  1.4408193905952940e-01  6.9744073958366182e-01  1.2503428804303849e+00  1.8006252691512314e+00  2.3459399132095360e+00  2.8834971555182438e+00  3.4094882979261243e+00  3.9176766897714415e+00  4.3958557156441467e+00  4.8171892981749211e+00  5.1219910305268463e+00  5.1995475841107250e+00  -3.6109194757557885e+00  -3.5544904275638416e+00  -3.3048541682212713e+00  -2.9276548868371370e+00  -2.4776652516227111e+00  -1.9864605426975861e+00  -1.4706609216424336e+00  -9.3943155169407633e-01  -3.9842825821801159e-01  1.4834314797052420e-01  6.9763034302605875e-01  1.2464568868046957e+00  1.7917967966228574e+00  2.3302353550059096e+00  2.8574473662634436e+00  3.3672260836109649e+00  3.8495748507100847e+00  4.2870497072203815e+00  4.6485870758635830e+00  4.8828697165233050e+00  4.9275193605862748e+00  -3.3294365958268792e+00  -3.2900754232799976e+00  -3.0942047509859361e+00  -2.7749172801230073e+00  -2.3718572291649513e+00  -1.9147682049663175e+00  -1.4229785092960570e+00  -9.0874077388115349e-01  -3.8017507137235129e-01  1.5685937452421186e-01  6.9765825511963153e-01  1.2379837819648063e+00  1.7735506606694780e+00  2.2995060734439607e+00  2.8097291255546559e+00  3.2957361530192739e+00  3.7449349207912763e+00  4.1380823773749738e+00  4.4465779749687249e+00  4.6329094964333519e+00  4.6645190836354145e+00  -3.0656026313067781e+00  -3.0352250472487770e+00  -2.8746849966632881e+00  -2.6009481277840125e+00  -2.2412337626112566e+00  -1.8201986797588598e+00  -1.3567013801782135e+00  -8.6435519814189621e-01  -3.5305124270145699e-01  1.6966171962854065e-01  6.9755523035172562e-01  1.2249743742210806e+00  1.7462279285047442e+00  2.2549813651742263e+00  2.7435269335378503e+00  3.2018208570503250e+00  3.6162521975798008e+00  3.9683712635418860e+00  4.2345072338331704e+00  4.3886710658682579e+00  4.4138660367923519e+00  -2.8211233151062189e+00  -2.7961718905947226e+00  -2.6598420887778143e+00  -2.4210435907303309e+00  -2.0984770428257065e+00  -1.7116564909828016e+00  -1.2774984649885563e+00  -8.0962982466464428e-01  -3.1886555132112454e-01  1.8599216896007331e-01  6.9738223205516126e-01  1.2083175859986364e+00  1.7117901856152244e+00  2.2001837909549655e+00  2.6646358229807290e+00  3.0943294135370718e+00  3.4758018163077047e+00  3.7925840065198480e+00  4.0259001198415811e+00  4.1577751725319141e+00  4.1791331300845025e+00  -2.5978084881903221e+00  -2.5764692309602770e+00  -2.4574594958522433e+00  -2.2455123580080270e+00  -1.9538003609452632e+00  -1.5976472522806378e+00  -1.1917008948855461e+00  -7.4887073609833144e-01  -2.8022773768127657e-01  2.0465226813793158e-01  6.9719701748737528e-01  1.1893259535647605e+00  1.6729515185603201e+00  2.1394889965358344e+00  2.5793721335316140e+00  2.9816104910240071e+00  3.3335095113915076e+00  3.6208158660181282e+00  3.8287400092312942e+00  3.9445483049724306e+00  3.9633039434795752e+00  -2.3973085391503255e+00  -2.3785333125431531e+00  -2.2723463960236896e+00  -2.0812211599237149e+00  -1.8147823714639955e+00  -1.4852164050566103e+00  -1.1051014873049654e+00  -6.8636060797280207e-01  -2.3990626281055180e-01  2.2430947624591527e-01  6.9704051820584290e-01  1.1694074498130944e+00  1.6325337771991615e+00  2.0771890983629464e+00  2.4934703696976070e+00  2.8705791703200068e+00  3.1968046845027258e+00  3.4598906123483082e+00  3.6480331936388946e+00  3.7518773533461416e+00  3.7687418505838526e+00  -2.2210212663864337e+00  -2.2041407747847406e+00  -2.1076628674372766e+00  -1.9327925288775107e+00  -1.6868641173704018e+00  -1.3798033599563189e+00  -1.0224889284911747e+00  -6.2585072351852766e-01  -2.0043663810916934e-01  2.4370297392277476e-01  6.9693530285470062e-01  1.1498611400892755e+00  1.5930897529020869e+00  2.0170185131814562e+00  2.4116622850341738e+00  2.7665917350824460e+00  3.0710639246245046e+00  3.3144525582319431e+00  3.4871046483497419e+00  3.5818522965348905e+00  3.5972951935838098e+00  -2.0700758668522452e+00  -2.0546260645411083e+00  -1.9655677567800345e+00  -1.8033755148294646e+00  -1.5738903352907829e+00  -1.2854404548005751e+00  -9.4758639968558711e-01  -5.7038132091274563e-01  -1.6394184007545934e-01  2.6175091005013801e-01  6.9688927894983488e-01  1.1317795025397772e+00  1.5567383720652657e+00  1.9619928003213709e+00  2.3376279644164284e+00  2.6736347511706353e+00  2.9601139784495492e+00  3.1876971701449102e+00  3.3482491536002539e+00  3.4360309842088608e+00  3.4503952833852223e+00  -1.9453487227721145e+00  -1.9309839438791676e+00  -1.8475600048585754e+00  -1.6951263376598456e+00  -1.4785451327873009e+00  -1.2050325971046085e+00  -8.8316685116991656e-01  -5.2228566896349737e-01  -1.3209107578782270e-01  2.7758628283848774e-01  6.9690045619548946e-01  1.1160225080590742e+00  1.5251337740157727e+00  1.9144207129037567e+00  2.2741112660591454e+00  2.5945923801359849e+00  2.8666460893468582e+00  3.0818356747079632e+00  3.2330793803980868e+00  3.3155764401832579e+00  3.3291334679113769e+00  -1.8474915841008872e+00  -1.8339371102558037e+00  -1.7546756969913180e+00  -1.6095121500533049e+00  -1.4026727177767624e+00  -1.1406172031129975e+00  -8.3122100463769211e-01  -4.8327569474747906e-01  -1.0613148208562051e-01  2.9055122909616959e-01  6.9696095307341566e-01  1.1032310015381175e+00  1.4995032336722420e+00  1.8759925948158056e+00  2.2230848570411927e+00  2.5314971750299970e+00  2.7925250942356699e+00  2.9983921510922955e+00  3.1427287384640650e+00  3.2213443208175936e+00  3.2343231189031663e+00  -1.7769626281575797e+00  -1.7639869786191604e+00  -1.6876113009931462e+00  -1.5475073774422730e+00  -1.3475047682398473e+00  -1.0935741648300230e+00  -7.9311968657950427e-01  -4.5454924425476184e-01  -8.6947940623793421e-02  3.0017264251409032e-01  6.9705978747060271e-01  1.0938561385255823e+00  1.4807103610940033e+00  1.8478881437697723e+00  2.1859094234290843e+00  2.4857339637495293e+00  2.7390104064846281e+00  2.9383972384720187e+00  3.0779791677736772e+00  3.1539459509406109e+00  3.1665504871378598e+00  -1.7340547936659960e+00  -1.7214525893303352e+00  -1.6468040941464190e+00  -1.5097216651878127e+00  -1.3138166421913273e+00  -1.0647818360647807e+00  -7.6974660592388389e-01  -4.3688812477414574e-01  -7.5124704116148244e-02  3.0613380043910843e-01  6.9718457129019662e-01  1.0881906826077488e+00  1.4693183005087800e+00  1.8308740025819752e+00  2.1634638506574277e+00  2.4581918911048097e+00  2.7069087316816480e+00  2.9025153220164417e+00  3.0393451947716335e+00  3.1137953998641579e+00  3.1262155367734219e+00  -1.7189177063039793e+00  -1.7064984109193446e+00  -1.6324836250469188e+00  -1.4964806197772249e+00  -1.3020287987124617e+00  -1.0547231542108098e+00  -7.6159386514225302e-01  -4.3073292703812449e-01  -7.0995170652652359e-02  3.0825025124942501e-01  6.9732239870319368e-01  1.0863945461569549e+00  1.4656399680590326e+00  1.8253777244445004e+00  2.1562386625486241e+00  2.4493679516171816e+00  2.6966735961188291e+00  2.8911254171835981e+00  3.0271284224532886e+00  3.1011432083257184e+00  3.1135625037103587e+00  -1.7315707393670474e+00  -1.7191506024577863e+00  -1.6447003973652647e+00  -1.5078705246100732e+00  -1.3122639342752804e+00  -1.0635470936984415e+00  -7.6881905325105715e-01  -4.3622920517560065e-01  -7.4673503102405517e-02  3.0645411479863277e-01  6.9746022611619574e-01  1.0885109969672806e+00  1.4697695015225354e+00  1.8315329221805234e+00  2.1643914033302560e+00  2.4594266334711570e+00  2.7084614395977060e+00  2.9043664625941918e+00  3.0414488915528124e+00  3.1160973867367341e+00  3.1286995910723960e+00  -1.7719056897314842e+00  -1.7593011535342384e+00  -1.6833343703673120e+00  -1.5437524410656456e+00  -1.3443656090782652e+00  -1.0910891663431668e+00  -7.9126462602271741e-01  -4.5324334636340013e-01  -8.6065563687622873e-02  3.0078865888080858e-01  6.9758500993579997e-01  1.0944721548923111e+00  1.4815927380301896e+00  1.8491940416611505e+00  2.1877644839858976e+00  2.4882189622364153e+00  2.7421495656462436e+00  2.9421521748486654e+00  3.0822560983995615e+00  3.1586317760255924e+00  3.1716074255640057e+00  -1.8396783214967720e+00  -1.8266995234111965e+00  -1.7480839410576743e+00  -1.6037473536859035e+00  -1.3978802968292876e+00  -1.1368523776236257e+00  -8.2844005963481215e-01  -4.8134779740942074e-01  -1.0485843626584346e-01  2.9141379586828781e-01  6.9768384433300579e-01  1.1040935683102560e+00  1.5007762794920378e+00  1.8779204921538839e+00  2.2258658020440980e+00  2.5352620005194031e+00  2.7973175151831824e+00  3.0041569474597245e+00  3.1493204943977369e+00  3.2285819076622224e+00  3.2421363815073043e+00  -1.9344886705049713e+00  -1.9209316427768557e+00  -1.8384345829916857e+00  -1.6871908773015680e+00  -1.4720012919404617e+00  -1.1999475827295927e+00  -8.7946646865274714e-01  -5.1977591549735147e-01  -1.3048897660935452e-01  2.7862228934734962e-01  6.9774434121094864e-01  1.1170585145679539e+00  1.5267358731942609e+00  1.9169304663699183e+00  2.2778116485763360e+00  2.5996773945110232e+00  2.8731899301937287e+00  3.0897711350662700e+00  3.2422048022649848e+00  3.3256287412855730e+00  3.3399935201785227e+00  -2.0557504859787903e+00  -2.0413861868024310e+00  -1.9536043561938266e+00  -1.7930523727384886e+00  -1.5654691810431218e+00  -1.2789899537642080e+00  -9.4298316700999629e-01  -5.6734800291493392e-01  -1.6209357465881558e-01  2.6286529486667759e-01  6.9775551845662998e-01  1.1328938873563290e+00  1.5585866374819275e+00  1.9650261183192101e+00  2.3422311970920484e+00  2.6800852522070322e+00  2.9685351326972285e+00  3.1980203122358937e+00  3.3602125541864618e+00  3.4492708619475230e+00  3.4647206642586577e+00  -2.2026503961773423e+00  -2.1872074991284349e+00  -2.0924598509432828e+00  -1.9198077608254900e+00  -1.6764191272180495e+00  -1.3719469376759839e+00  -1.0170174876277100e+00  -6.2237371577498779e-01  -1.9844495549560329e-01  2.4478365731721946e-01  6.9770949455180087e-01  1.1509418234837321e+00  1.5950814355156757e+00  2.0204955209250359e+00  2.4171337258976804e+00  2.7744481573628135e+00  3.0815089147768773e+00  3.3274373262839632e+00  3.5023076648437188e+00  3.5987855721911703e+00  3.6156660637928502e+00  -2.3740970531773677e+00  -2.3572325559396639e+00  -2.2533883962324071e+00  -2.0652458149418242e+00  -1.8021598870962423e+00  -1.4759343729135124e+00  -1.0988255722911080e+00  -6.8254430095643137e-01  -2.3788897979263407e-01  2.2523734759343891e-01  6.9760427920070023e-01  1.1703353211606353e+00  1.6345510602171069e+00  2.0810054053793530e+00  2.4997462847115073e+00  2.8798612024631329e+00  3.2094271688704943e+00  3.4758659573301944e+00  3.6669911934301496e+00  3.7731781099496016e+00  3.7919533365567748e+00  -2.5686591460730659e+00  -2.5499035075659164e+00  -2.4340952118247796e+00  -2.2261710686116216e+00  -1.9388647139849891e+00  -1.5869656936174750e+00  -1.1847273361250730e+00  -7.4484419912928224e-01  -2.7830672115375693e-01  2.0531884384181034e-01  6.9744777991920515e-01  1.1899925292686548e+00  1.6748725350878662e+00  2.1435155335049094e+00  2.5863456922921113e+00  2.9922920496871868e+00  3.3484451583517951e+00  3.6401571554145309e+00  3.8521042932587264e+00  3.9711140283667534e+00  3.9924532855967962e+00  -2.7844883326779715e+00  -2.7631303751253857e+00  -2.6312553224350590e+00  -2.3979392091133200e+00  -2.0811570189011559e+00  -1.6996846161305068e+00  -1.2699910255741451e+00  -8.0553899354836722e-01  -3.1714538820861388e-01  1.8632721140797867e-01  6.9726256535146003e-01  1.2086526284465513e+00  1.7135103487277488e+00  2.2042746220712486e+00  2.6721432623951475e+00  3.1063012883893744e+00  3.4931218402322686e+00  3.8156883881368766e+00  4.0544868861843364e+00  4.1908166880012310e+00  4.2157681125127278e+00  -3.0192212393857876e+00  -2.9940262684617016e+00  -2.8398624364266056e+00  -2.5737264661353154e+00  -2.2216074001732165e+00  -1.8071760596437332e+00  -1.3488821361312335e+00  -8.6033656776758383e-01  -3.5158313109809414e-01  1.6967042318557035e-01  6.9708956705493275e-01  1.2249830777781205e+00  1.7476960401081163e+00  2.2589999955485394e+00  2.7513461775848405e+00  3.2148434771654775e+00  3.6358785600178587e+00  3.9955929251905906e+00  4.2693297940698427e+00  4.4298698446553271e+00  4.4602474287133207e+00  -3.2698742862288181e+00  -3.2382646990267574e+00  -3.0519331775621210e+00  -2.7434375799683717e+00  -2.3502901233846640e+00  -1.9010913556126530e+00  -1.4150843281480094e+00  -9.0486127603729172e-01  -3.7890586326280218e-01  1.5666101544186989e-01  6.9698654228705292e-01  1.2377854228824752e+00  1.7748198687790315e+00  2.3033855712878228e+00  2.8176233067027199e+00  3.3094130023729793e+00  3.7665020265715841e+00  4.1695620775296200e+00  4.4888495483925324e+00  4.6847202206865850e+00  4.7240813932334618e+00  -3.5328745631796523e+00  -3.4882249191166790e+00  -3.2539422784569552e+00  -2.8924049098137528e+00  -2.4549300533034502e+00  -1.9725812862043157e+00  -1.4628025688567707e+00  -9.3559055759922383e-01  -3.9715199921616351e-01  1.4818791060199854e-01  6.9701445438064225e-01  1.2463016494361796e+00  1.7930730556247068e+00  2.3340763491007617e+00  2.8653057190491240e+00  3.3811053401042699e+00  3.8723100490293794e+00  4.3222996842437764e+00  4.6994989656278916e+00  4.9491352249704530e+00  5.0055642731623982e+00  -3.8049027867040870e+00  -3.7273462331201941e+00  -3.4225445007682795e+00  -3.0012109182374980e+00  -2.5230318923648016e+00  -2.0148435005194680e+00  -1.4888523581115656e+00  -9.5129511580283754e-01  -4.0598047174453405e-01  1.4430191697631845e-01  6.9720405782304984e-01  1.2505628583471824e+00  1.8022590848972224e+00  2.3500907497536954e+00  2.8915698251287987e+00  3.4234738045468958e+00  3.9407093134413969e+00  4.4331815605383431e+00  4.8766154409231959e+00  5.2087720301658367e+00  5.3034909132992416e+00  -4.0848232199883343e+00  -3.9148018262589908e+00  -3.5221792965412955e+00  -3.0515071549201425e+00  -2.5485573019844430e+00  -2.0279867725428353e+00  -1.4956172808531865e+00  -9.5466857768411950e-01  -4.0750194364108278e-01  1.4384967041379090e-01  6.9749805214370397e-01  1.2516282907882896e+00  1.8044672505517694e+00  2.3542619106244023e+00  2.8992446070240732e+00  3.4375462382016848e+00  3.9669408488150193e+00  4.4839347767772084e+00  4.9798796979338098e+00  5.4210478258519190e+00  5.6147936540922174e+00  -4.2470494925038702e+00  -3.9641608369029315e+00  -3.5283980619873216e+00  -3.0486385729881218e+00  -2.5449158109551040e+00  -2.0250687073428808e+00  -1.4934781483396777e+00  -9.5316672906497046e-01  -4.0651883737884487e-01  1.4439460124754377e-01  6.9766183681164906e-01  1.2514577133720930e+00  1.8040090722197937e+00  2.3535735106190434e+00  2.8984125802508385e+00  3.4367343940437629e+00  3.9665484313337855e+00  4.4852452059858150e+00  4.9879970624045304e+00  5.4592950934275120e+00  5.8843703508022251e+00  </DataArray> 
</PointData> 
</Piece>
</UnstructuredGrid>
</VTKFile>