<?xml version="1.0"?>
<VTKFile type="UnstructuredGrid"  version="0.1"  >
<UnstructuredGrid>
<Piece  NumberOfPoints="651" NumberOfCells="1200">
<Points>
<DataArray  type="Float64"  NumberOfComponents="3"  format="ascii">0 0 0  50000 0 0  100000 0 0  150000 0 0  200000 0 0  250000 0 0  300000 0 0  350000 0 0  400000 0 0  450000 0 0  500000 0 0  550000 0 0  600000 0 0  650000 0 0  700000 0 0  750000 0 0  800000 0 0  850000 0 0  900000 0 0  950000 0 0  1000000 0 0  0 50000 0  50000 50000 0  100000 50000 0  150000 50000 0  200000 50000 0  250000 50000 0  300000 50000 0  350000 50000 0  400000 50000 0  450000 50000 0  500000 50000 0  550000 50000 0  600000 50000 0  650000 50000 0  700000 50000 0  750000 50000 0  800000 50000 0  850000 50000 0  900000 50000 0  950000 50000 0  1000000 50000 0  0 100000 0  50000 100000 0  100000 100000 0  150000 100000 0  200000 100000 0  250000 100000 0  300000 100000 0  350000 100000 0  400000 100000 0  450000 100000 0  500000 100000 0  550000 100000 0  600000 100000 0  650000 100000 0  700000 100000 0  750000 100000 0  800000 100000 0  850000 100000 0  900000 100000 0  950000 100000 0  1000000 100000 0  0 150000 0  50000 150000 0  100000 150000 0  150000 150000 0  200000 150000 0  250000 150000 0  300000 150000 0  350000 150000 0  400000 150000 0  450000 150000 0  500000 150000 0  550000 150000 0  600000 150000 0  650000 150000 0  700000 150000 0  750000 150000 0  800000 150000 0  850000 150000 0  900000 150000 0  950000 150000 0  1000000 150000 0  0 200000 0  50000 200000 0  100000 200000 0  150000 200000 0  200000 200000 0  250000 200000 0  300000 200000 0  350000 200000 0  400000 200000 0  450000 200000 0  500000 200000 0  550000 200000 0  600000 200000 0  650000 200000 0  700000 200000 0  750000 200000 0  800000 200000 0  850000 200000 0  900000 200000 0  950000 200000 0  1000000 200000 0  0 250000 0  50000 250000 0  100000 250000 0  150000 250000 0  200000 250000 0  250000 250000 0  300000 250000 0  350000 250000 0  400000 250000 0  450000 250000 0  500000 250000 0  550000 250000 0  600000 250000 0  650000 250000 0  700000 250000 0  750000 250000 0  800000 250000 0  850000 250000 0  900000 250000 0  950000 250000 0  1000000 250000 0  0 300000 0  50000 300000 0  100000 300000 0  150000 300000 0  200000 300000 0  250000 300000 0  300000 300000 0  350000 300000 0  400000 300000 0  450000 300000 0  500000 300000 0  550000 300000 0  600000 300000 0  650000 300000 0  700000 300000 0  750000 300000 0  800000 300000 0  850000 300000 0  900000 300000 0  950000 300000 0  1000000 300000 0  0 350000 0  50000 350000 0  100000 350000 0  150000 350000 0  200000 350000 0  250000 350000 0  300000 350000 0  350000 350000 0  400000 350000 0  450000 350000 0  500000 350000 0  550000 350000 0  600000 350000 0  650000 350000 0  700000 350000 0  750000 350000 0  800000 350000 0  850000 350000 0  900000 350000 0  950000 350000 0  1000000 350000 0  0 400000 0  50000 400000 0  100000 400000 0  150000 400000 0  200000 400000 0  250000 400000 0  300000 400000 0  350000 400000 0  400000 400000 0  450000 400000 0  500000 400000 0  550000 400000 0  600000 400000 0  650000 400000 0  700000 400000 0  750000 400000 0  800000 400000 0  850000 400000 0  900000 400000 0  950000 400000 0  1000000 400000 0  0 450000 0  50000 450000 0  100000 450000 0  150000 450000 0  200000 450000 0  250000 450000 0  300000 450000 0  350000 450000 0  400000 450000 0  450000 450000 0  500000 450000 0  550000 450000 0  600000 450000 0  650000 450000 0  700000 450000 0  750000 450000 0  800000 450000 0  850000 450000 0  900000 450000 0  950000 450000 0  1000000 450000 0  0 500000 0  50000 500000 0  100000 500000 0  150000 500000 0  200000 500000 0  250000 500000 0  300000 500000 0  350000 500000 0  400000 500000 0  450000 500000 0  500000 500000 0  550000 500000 0  600000 500000 0  650000 500000 0  700000 500000 0  750000 500000 0  800000 500000 0  850000 500000 0  900000 500000 0  950000 500000 0  1000000 500000 0  0 550000 0  50000 550000 0  100000 550000 0  150000 550000 0  200000 550000 0  250000 550000 0  300000 550000 0  350000 550000 0  400000 550000 0  450000 550000 0  500000 550000 0  550000 550000 0  600000 550000 0  650000 550000 0  700000 550000 0  750000 550000 0  800000 550000 0  850000 550000 0  900000 550000 0  950000 550000 0  1000000 550000 0  0 600000 0  50000 600000 0  100000 600000 0  150000 600000 0  200000 600000 0  250000 600000 0  300000 600000 0  350000 600000 0  400000 600000 0  450000 600000 0  500000 600000 0  550000 600000 0  600000 600000 0  650000 600000 0  700000 600000 0  750000 600000 0  800000 600000 0  850000 600000 0  900000 600000 0  950000 600000 0  1000000 600000 0  0 650000 0  50000 650000 0  100000 650000 0  150000 650000 0  200000 650000 0  250000 650000 0  300000 650000 0  350000 650000 0  400000 650000 0  450000 650000 0  500000 650000 0  550000 650000 0  600000 650000 0  650000 650000 0  700000 650000 0  750000 650000 0  800000 650000 0  850000 650000 0  900000 650000 0  950000 650000 0  1000000 650000 0  0 700000 0  50000 700000 0  100000 700000 0  150000 700000 0  200000 700000 0  250000 700000 0  300000 700000 0  350000 700000 0  400000 700000 0  450000 700000 0  500000 700000 0  550000 700000 0  600000 700000 0  650000 700000 0  700000 700000 0  750000 700000 0  800000 700000 0  850000 700000 0  900000 700000 0  950000 700000 0  1000000 700000 0  0 750000 0  50000 750000 0  100000 750000 0  150000 750000 0  200000 750000 0  250000 750000 0  300000 750000 0  350000 750000 0  400000 750000 0  450000 750000 0  500000 750000 0  550000 750000 0  600000 750000 0  650000 750000 0  700000 750000 0  750000 750000 0  800000 750000 0  850000 750000 0  900000 750000 0  950000 750000 0  1000000 750000 0  0 800000 0  50000 800000 0  100000 800000 0  150000 800000 0  200000 800000 0  250000 800000 0  300000 800000 0  350000 800000 0  400000 800000 0  450000 800000 0  500000 800000 0  550000 800000 0  600000 800000 0  650000 800000 0  700000 800000 0  750000 800000 0  800000 800000 0  850000 800000 0  900000 800000 0  950000 800000 0  1000000 800000 0  0 850000 0  50000 850000 0  100000 850000 0  150000 850000 0  200000 850000 0  250000 850000 0  300000 850000 0  350000 850000 0  400000 850000 0  450000 850000 0  500000 850000 0  550000 850000 0  600000 850000 0  650000 850000 0  700000 850000 0  750000 850000 0  800000 850000 0  850000 850000 0  900000 850000 0  950000 850000 0  1000000 850000 0  0 900000 0  50000 900000 0  100000 900000 0  150000 900000 0  200000 900000 0  250000 900000 0  300000 900000 0  350000 900000 0  400000 900000 0  450000 900000 0  500000 900000 0  550000 900000 0  600000 900000 0  650000 900000 0  700000 900000 0  750000 900000 0  800000 900000 0  850000 900000 0  900000 900000 0  950000 900000 0  1000000 900000 0  0 950000 0  50000 950000 0  100000 950000 0  150000 950000 0  200000 950000 0  250000 950000 0  300000 950000 0  350000 950000 0  400000 950000 0  450000 950000 0  500000 950000 0  550000 950000 0  600000 950000 0  650000 950000 0  700000 950000 0  750000 950000 0  800000 950000 0  850000 950000 0  900000 950000 0  950000 950000 0  1000000 950000 0  0 1000000 0  50000 1000000 0  100000 1000000 0  150000 1000000 0  200000 1000000 0  250000 1000000 0  300000 1000000 0  350000 1000000 0  400000 1000000 0  450000 1000000 0  500000 1000000 0  550000 1000000 0  600000 1000000 0  650000 1000000 0  700000 1000000 0  750000 1000000 0  800000 1000000 0  850000 1000000 0  900000 1000000 0  950000 1000000 0  1000000 1000000 0  0 1050000 0  50000 1050000 0  100000 1050000 0  150000 1050000 0  200000 1050000 0  250000 1050000 0  300000 1050000 0  350000 1050000 0  400000 1050000 0  450000 1050000 0  500000 1050000 0  550000 1050000 0  600000 1050000 0  650000 1050000 0  700000 1050000 0  750000 1050000 0  800000 1050000 0  850000 1050000 0  900000 1050000 0  950000 1050000 0  1000000 1050000 0  0 1100000 0  50000 1100000 0  100000 1100000 0  150000 1100000 0  200000 1100000 0  250000 1100000 0  300000 1100000 0  350000 1100000 0  400000 1100000 0  450000 1100000 0  500000 1100000 0  550000 1100000 0  600000 1100000 0  650000 1100000 0  700000 1100000 0  750000 1100000 0  800000 1100000 0  850000 1100000 0  900000 1100000 0  950000 1100000 0  1000000 1100000 0  0 1150000 0  50000 1150000 0  100000 1150000 0  150000 1150000 0  200000 1150000 0  250000 1150000 0  300000 1150000 0  350000 1150000 0  400000 1150000 0  450000 1150000 0  500000 1150000 0  550000 1150000 0  600000 1150000 0  650000 1150000 0  700000 1150000 0  750000 1150000 0  800000 1150000 0  850000 1150000 0  900000 1150000 0  950000 1150000 0  1000000 1150000 0  0 1200000 0  50000 1200000 0  100000 1200000 0  150000 1200000 0  200000 1200000 0  250000 1200000 0  300000 1200000 0  350000 1200000 0  400000 1200000 0  450000 1200000 0  500000 1200000 0  550000 1200000 0  600000 1200000 0  650000 1200000 0  700000 1200000 0  750000 1200000 0  800000 1200000 0  850000 1200000 0  900000 1200000 0  950000 1200000 0  1000000 1200000 0  0 1250000 0  50000 1250000 0  100000 1250000 0  150000 1250000 0  200000 1250000 0  250000 1250000 0  300000 1250000 0  350000 1250000 0  400000 1250000 0  450000 1250000 0  500000 1250000 0  550000 1250000 0  600000 1250000 0  650000 1250000 0  700000 1250000 0  750000 1250000 0  800000 1250000 0  850000 1250000 0  900000 1250000 0  950000 1250000 0  1000000 1250000 0  0 1300000 0  50000 1300000 0  100000 1300000 0  150000 1300000 0  200000 1300000 0  250000 1300000 0  300000 1300000 0  350000 1300000 0  400000 1300000 0  450000 1300000 0  500000 1300000 0  550000 1300000 0  600000 1300000 0  650000 1300000 0  700000 1300000 0  750000 1300000 0  800000 1300000 0  850000 1300000 0  900000 1300000 0  950000 1300000 0  1000000 1300000 0  0 1350000 0  50000 1350000 0  100000 1350000 0  150000 1350000 0  200000 1350000 0  250000 1350000 0  300000 1350000 0  350000 1350000 0  400000 1350000 0  450000 1350000 0  500000 1350000 0  550000 1350000 0  600000 1350000 0  650000 1350000 0  700000 135
[...]
<PointData  Scalars="f_25"> 
<DataArray  type="Float64"  Name="f_25"  format="ascii">-1.6946614655244567e+00  -1.4989402368264113e+00  -1.2824834959348921e+00  -1.0518041469091024e+00  -8.1392639649632703e-01  -5.7103123099707032e-01  -3.2429362410407747e-01  -7.4609684384438421e-02  1.7721315496559029e-01  4.3039081986554273e-01  6.8413689224848062e-01  9.3765060020110824e-01  1.1901072055633624e+00  1.4406423145519531e+00  1.6883192171305663e+00  1.9320601838691747e+00  2.1705034751184997e+00  2.4016887126974771e+00  2.6221299000610210e+00  2.8228346863603124e+00  2.9536527553032861e+00  -1.5702624522020208e+00  -1.4807050094783722e+00  -1.2782995454201693e+00  -1.0508753050317381e+00  -8.1385645440408450e-01  -5.7119837453261613e-01  -3.2449635684255634e-01  -7.4762911831179210e-02  1.7715424156509579e-01  4.3045444038917657e-01  6.8434394299066414e-01  9.3801978942741415e-01  1.1906597138809292e+00  1.4414075825807540e+00  1.6893407037631016e+00  1.9333862839531948e+00  2.1720808466854518e+00  2.4027794875656228e+00  2.6188249979292597e+00  2.7993912067216757e+00  2.8785011400769878e+00  -1.4265280493237142e+00  -1.3825275219849060e+00  -1.2300888282941698e+00  -1.0268710951371984e+00  -8.0123260057492240e-01  -5.6426420331024874e-01  -3.2058807164747061e-01  -7.2537327033461552e-02  1.7841393592154739e-01  4.3112998445655742e-01  6.8460728430277806e-01  9.3788071127965744e-01  1.1899650187628292e+00  1.4397898202845136e+00  1.6860818111169136e+00  1.9271009076574366e+00  2.1599979153613038e+00  2.3792017775004743e+00  2.5724770201786047e+00  2.7126165702179601e+00  2.7490876256349188e+00  -1.2889564550049608e+00  -1.2626246463228545e+00  -1.1480183448866790e+00  -9.7519929135467742e-01  -7.6912998506818075e-01  -5.4420754397728910e-01  -3.0802569543396363e-01  -6.4778706557417534e-02  1.8294372103553336e-01  4.3330802675936431e-01  6.8482661127762912e-01  9.3613880751735745e-01  1.1858614456668846e+00  1.4324332738978389e+00  1.6738762570047090e+00  1.9073522858864922e+00  2.1282933581820118e+00  2.3287360935451669e+00  2.4945115912435738e+00  2.6022189273088774e+00  2.6233385521551047e+00  -1.1589715327229704e+00  -1.1405550128796911e+00  -1.0506194759738212e+00  -9.0436416604174286e-01  -7.1986077151442174e-01  -5.1066356361767340e-01  -2.8559119412503559e-01  -5.0242413375958202e-02  1.9166831333380252e-01  4.3745935943465147e-01  6.8497752089149788e-01  9.3228336793096811e-01  1.1774160196593380e+00  1.4181552689932324e+00  1.6517015944266811e+00  1.8741769136898025e+00  2.0798293965787042e+00  2.2598766583488068e+00  2.4012747538124608e+00  2.4869154592130580e+00  2.5018722491148453e+00  -1.0371389622030536e+00  -1.0229114206283547e+00  -9.4920594061718511e-01  -8.2385042070006209e-01  -6.5925376227119992e-01  -4.6664845762680468e-01  -2.5463235959861680e-01  -2.9419476383647537e-02  2.0447022069722320e-01  4.4358443180139701e-01  6.8507345847877055e-01  9.2634967678092628e-01  1.1648090945881797e+00  1.3975541966553156e+00  1.6210609639666953e+00  1.8307402083188213e+00  2.0203774278463502e+00  2.1815552606389335e+00  2.3034808334782335e+00  2.3743004146067879e+00  2.3861905854460272e+00  -9.2424829243500251e-01  -9.1256285666751968e-01  -8.4999262544434206e-01  -7.4067690820877385e-01  -5.9314116333438860e-01  -4.1627181566413446e-01  -2.1777730609375662e-01  -3.8733961642000289e-03  2.2050171674826663e-01  4.5132555841020183e-01  6.8514091224261042e-01  9.1875223601354283e-01  1.1489544800502409e+00  1.3722653986949980e+00  1.5846348180445091e+00  1.7811225169879417e+00  1.9555842294713148e+00  2.1005091539325242e+00  2.2073392436776391e+00  2.2678762140418329e+00  2.2779181184998136e+00  -8.2113230457748609e-01  -8.1114556302248730e-01  -7.5655094587068972e-01  -6.5957083865344024e-01  -5.2620976480185266e-01  -3.6344289698269494e-01  -1.7794172129614791e-01  2.4408473905810468e-02  2.3855575554158123e-01  4.6012694819740019e-01  6.8520496117729657e-01  9.1009629042579254e-01  1.1311041626304323e+00  1.3443054764862488e+00  1.5453305064741267e+00  1.7291619584808740e+00  1.8900086225033124e+00  2.0213729874585189e+00  2.1165169372457995e+00  2.1696337319577981e+00  2.1784174376293826e+00  -7.2854803616882180e-01  -7.1977093665153336e-01  -6.7108743445310104e-01  -5.8367972648413502e-01  -4.6193372640314306e-01  -3.1139366144066960e-01  -1.3778566157812377e-01  5.3457292970252562e-02  2.5735813606204722e-01  4.6937436114139852e-01  6.8528335215943292e-01  9.0102870743736285e-01  1.1125551715003401e+00  1.3156466410449235e+00  1.5057816150540344e+00  1.6780326104330103e+00  1.8270595577010507e+00  1.9472780068924993e+00  2.0333131004801794e+00  2.0809002922078879e+00  2.0887690557246379e+00  -6.4713525309209430e-01  -6.3925467357922039e-01  -5.9505128823595888e-01  -5.1512141208492257e-01  -4.0280543679834946e-01  -2.6261644277514673e-01  -9.9504472881789485e-02  8.1552191581599667e-02  2.7574490958852749e-01  4.7848847151964585e-01  6.8538581838206913e-01  8.9214523470879770e-01  1.0944786278659671e+00  1.2880019152302851e+00  1.4681581310968865e+00  1.6301902830951924e+00  1.7692018954834807e+00  1.8803537734389200e+00  1.9592532490092254e+00  2.0026346083003341e+00  2.0098168544316812e+00  -5.7740984314645238e-01  -5.7020824336164766e-01  -5.2943170556754515e-01  -4.5533780813664054e-01  -3.5058488286862011e-01  -2.1895725239114822e-01  -6.4803114010813706e-02  1.0730042299581147e-01  2.9274312040180156e-01  4.8697319175447595e-01  6.8551567726943630e-01  8.8394630998940982e-01  1.0778453829420884e+00  1.2627529012476904e+00  1.4341458834374545e+00  1.5874609461043250e+00  1.7181882784232743e+00  1.8220638693809006e+00  1.8953883864087038e+00  1.9355490365420034e+00  1.9422124056889807e+00  -5.1977157848401301e-01  -5.1308664278948002e-01  -4.7491480410557751e-01  -4.0531555817865350e-01  -3.0649996828761694e-01  -1.8174499463964855e-01  -3.4950309458370112e-02  1.2963419186388370e-01  3.0758867701398090e-01  4.9443151774646543e-01  6.8567189404173290e-01  8.7682552492629851e-01  1.0634125826856036e+00  1.2409563147200666e+00  1.4050005702911419e+00  1.5511642875451868e+00  1.6752498826020510e+00  1.7734195529870711e+00  1.8424553484603192e+00  1.8801734072413769e+00  1.8864505915573397e+00  -4.7451744919557215e-01  -4.6821997338669574e-01  -4.3197438438305857e-01  -3.6572556745410689e-01  -2.7139387910022128e-01  -1.5191115275248995e-01  -1.0856258085624888e-02  1.4777066667807465e-01  3.1971119978931134e-01  5.0056252219098674e-01  6.8585082143151743e-01  8.7107595624870127e-01  1.0517414965649674e+00  1.2233851142226180e+00  1.3816240779218729e+00  1.5222293106767231e+00  1.6412386762380391e+00  1.7351165230651144e+00  1.8009704916045033e+00  1.8368958921499607e+00  1.8428985625686043e+00  -4.4185623769178894e-01  -4.3583715735734385e-01  -4.0092878912725100e-01  -3.3701325147557887e-01  -2.4582952918375012e-01  -1.3008632128563993e-01  6.8525868068602652e-03  1.6116241152235203e-01  3.2870624913775498e-01  5.0514994755936449e-01  6.8604741607493214e-01  8.6690377293387855e-01  1.0432267523945418e+00  1.2105782647788166e+00  1.3646378704449804e+00  1.5012882040736746e+00  1.6167291326347837e+00  1.7076241839707718e+00  1.7712888472007373e+00  1.8059925275963571e+00  1.8118195791720741e+00  -4.2192177430808886e-01  -4.1608409463812812e-01  -3.8197805369063709e-01  -3.1945738259656925e-01  -2.3016131273491391e-01  -1.1667186315214378e-01  1.7772465840405319e-02  1.6945223760925548e-01  3.3430688963930871e-01  5.0804907553856360e-01  6.8625598310009706e-01  8.6444265178576274e-01  1.0381254647973785e+00  1.2028856946378335e+00  1.3544429198757919e+00  1.4887463121869717e+00  1.6020885384319672e+00  1.6912443101451706e+00  1.7536430922217294e+00  1.7876492680310632e+00  1.7933921506889692e+00  -4.1478318542827558e-01  -4.0903662784362110e-01  -3.7522769087064073e-01  -3.1320723729538313e-01  -2.2458168510395654e-01  -1.1188863193357806e-01  2.1678446355266130e-02  1.7243881056191954e-01  3.3636078644581147e-01  5.0917561645912357e-01  6.8647057375145182e-01  8.6376553104377551e-01  1.0365803610570874e+00  1.2005023369409766e+00  1.3512627011476261e+00  1.4848297794364704e+00  1.5975228326068469e+00  1.6861483847982717e+00  1.7481688383735281e+00  1.7819777753465069e+00  1.7877243329311623e+00  -4.2045100318608275e-01  -4.1470812052817690e-01  -3.8070194471884206e-01  -3.1830316264228359e-01  -2.2914739092907685e-01  -1.1580516468407728e-01  1.8498227627103226e-02  1.7005545286506465e-01  3.3481568270551859e-01  5.0849849571713890e-01  6.8668516440280924e-01  8.6489207196434148e-01  1.0386342578635921e+00  1.2034889098936399e+00  1.3551686816624866e+00  1.4896130106550365e+00  1.6031024602378086e+00  1.6923985300994620e+00  1.7549192011935313e+00  1.7890252421410215e+00  1.7948629218109831e+00  -4.3887843166918739e-01  -4.3305138009346966e-01  -3.9834769969785139e-01  -3.3468303646788339e-01  -2.4378798513189373e-01  -1.2834705657078230e-01  8.3032770579153092e-03  1.6236288272408295e-01  3.2971439510835904e-01  5.0603737456902687e-01  6.8689373142797805e-01  8.6779119994354326e-01  1.0442348983651495e+00  1.2117787359805487e+00  1.3660885606960400e+00  1.5030274687885399e+00  1.6187706766866521e+00  1.7099543989784785e+00  1.7738699366301540e+00  1.8087783048602486e+00  1.8147973851946921e+00  -4.6995741506570993e-01  -4.6395474464706588e-01  -4.2802934410160814e-01  -3.6217537556221757e-01  -2.6829752873514140e-01  -1.4928816317382523e-01  -8.6829304189698694e-03  1.4955603328028652e-01  3.2119965093794123e-01  5.0186519125421014e-01  6.8709032607140064e-01  8.7237862531193167e-01  1.0532299477136025e+00  1.2251704808248329e+00  1.3837974055885327e+00  1.5248523002553962e+00  1.6443350266031325e+00  1.7386667149570170e+00  1.8049155318859669e+00  1.8411611208896028e+00  1.8474585966984789e+00  -5.1350944405443955e-01  -5.0723225973847719e-01  -4.6951420095741803e-01  -4.0047840548416891e-01  -3.0230873509914613e-01  -1.7822314004228218e-01  -3.2059422788231012e-02  1.3198483278284653e-01  3.0952856481731389e-01  4.9611562257662145e-01  6.8726925346119183e-01  8.7850962975646030e-01  1.0653524704889412e+00  1.2433069556390342e+00  1.4078914569612855e+00  1.5546861421425615e+00  1.6794411157905351e+00  1.7782567056815686e+00  1.8478559516084874e+00  1.8860277902923885e+00  1.8927127259869221e+00  -5.6927125818606716e-01  -5.6260788903909031e-01  -5.2244723890579059e-01  -4.4912272187798707e-01  -3.4524713092035547e-01  -2.1451979860140519e-01  -6.1204735934529068e-02  1.1018824625523838e-01  2.9509576456084446e-01  4.8899483751352457e-01  6.8742547023350176e-01  8.8596795574846254e-01  1.0801980271011351e+00  1.2656407245071259e+00  1.4377442615137499e+00  1.5918983998940823e+00  1.7235260303715509e+00  1.8282789556395642e+00  1.9023728530704649e+00  1.9431493908645618e+00  1.9503509906493677e+00  -6.3687570692875295e-01  -6.2969346079740907e-01  -5.8631210150629764e-01  -5.0741262593599201e-01  -3.9626074798054978e-01  -2.5724913559225770e-01  -9.5216983593947188e-02  8.4939232272657844e-02  2.7846251963698260e-01  4.8079591279415546e-01  6.8755532912088568e-01  8.9445267598331135e-01  1.0971962379144284e+00  1.2913889559213576e+00  1.4724456203847456e+00  1.6355575902780970e+00  1.7757465843012934e+00  1.8880625595878573e+00  1.9679924357388878e+00  2.0121958210821447e+00  2.0200764005950158e+00  -7.1582790822170106e-01  -7.0795914470495303e-01  -6.6037195297723872e-01  -5.7433685938955825e-01  -4.5411841019810639e-01  -3.0509146293005868e-01  -1.3284046755107951e-01  5.7294506458039220e-02  2.6038597600262803e-01  4.7191244006560751e-01  6.8765779534354154e-01  9.0356678636157883e-01  1.1155830114409313e+00  1.3194838545327241e+00  1.5107268090810948e+00  1.6843348089436339e+00  1.8348748739060998e+00  1.9566208739870823e+00  2.0440285819560393e+00  2.0927120841544662e+00  2.1014891836717555e+00  -8.0547629012643263e-01  -7.9669258445484648e-01  -7.4357578974284610e-01  -6.4843183995556564e-01  -5.1706747500035355e-01  -3.5622081097790942e-01  -1.7238935897115498e-01  2.8635671016729737e-02  2.4183698487255206e-01  4.6284485707719508e-01  6.8773618632569511e-01  9.1281419930559449e-01  1.1343853919614160e+00  1.3485326735971823e+00  1.5508828687991345e+00  1.7363840444856706e+00  1.8991509123048227e+00  2.0325119861564023e+00  2.1294920933736403e+00  2.1840867105254325e+00  2.1940734520804313e+00  -9.0497697099685115e-01  -8.9493506653887134e-01  -8.3439809617467686e-01  -7.2756800642956054e-01  -5.8264308196834247e-01  -4.0818136948496020e-01  -2.1169367054151841e-01  6.7574880800058679e-04  2.2398666745276236e-01  4.5418891148946439e-01  6.8780023526039991e-01  9.2161558909281127e-01  1.1524394307547476e+00  1.3768145436672059e+00  1.5907184535967573e+00  1.7892129631671254e+00  1.9660823108373735e+00  2.1136180557117510e+00  2.2229337729473104e+00  2.2855040041704804e+00  2.2971894399379624e+00  -1.0132494379430490e+00  -1.0013592671038105e+00  -9.3053968597525305e-01  -8.0861411313595000e-01  -6.4743628034336054e-01  -4.5779906081582672e-01  -2.4811981646369097e-01  -2.4613049152298418e-02  2.0813205291484144e-01  4.4659147072209693e-01  6.8786768902425777e-01  9.2935671570163225e-01  1.1684709268058067e+00  1.4023606238866704e+00  1.6275735071016322e+00  1.8395896051298148e+00  2.0321949097742018e+00  2.1967915682030559e+00  2.3221470881201673e+00  2.3958525681313314e+00  2.4100801097060272e+00  -1.1289311016118526e+00  -1.1139743117100658e+00  -1.0283336063094646e+00  -8.8693551084580846e-01  -7.0688824907569903e-01  -5.0123576618679244e-01  -2.7876044692366087e-01  -4.5214121490201133e-02  1.9552512784369658e-01  4.4065777957206687e-01  6.8796362661154198e-01  9.3548178806839000e-01  1.1812728341692376e+00  1.4231835608789940e+00  1.6585323416280648e+00  1.8836047111207015e+00  2.0928019190174356e+00  2.2773053135447481e+00  2.4235606234768166e+00  2.5134961603826809e+00  2.5319126802259588e+00  -1.2503974046521014e+00  -1.2292777798058723e+00  -1.1215704437405647e+00  -9.5579494604215365e-01  -7.5535221067899472e-01  -5.3441113838346943e-01  -3.0093510950167723e-01  -5.9492126394799033e-02  1.8707970183615913e-01  4.3680233998568724e-01  6.8811453622541929e-01  9.3963312074368543e-01  1.1899974264675148e+00  1.4377198540604617e+00  1.6809668429370050e+00  1.9171486914803244e+00  2.1420711325712087e+00  2.3481404388576936e+00  2.5209594923896819e+00  2.6355657938258492e+00  2.6618976025079557e+00  -1.3761464781319064e+00  -1.3396754227149434e+00  -1.1995358726755849e+00  -1.0062606299974499e+00  -7.8705676785827872e-01  -5.5415976015440849e-01  -3.1314066361387682e-01  -6.6848672781467819e-02  1.8297612874021760e-01  4.3506043622339219e-01  6.8833386320027590e-01  9.4181116304649659e-01  1.1945272115815062e+00  1.4454784745365117e+00  1.6935292191505187e+00  1.9372053508132914e+00  2.1741737480779553e+00  2.3998122426402206e+00  2.6030299757971820e+00  2.7554686694879096e+00  2.7994691968267182e+00  -1.5055599925739729e+00  -1.4264500592186600e+00  -1.2458838504262446e+00  -1.0298383400626019e+00  -7.9913969918242456e-01  -5.6044513645016203e-01  -3.1639955626006150e-01  -6.8466435077707374e-02  1.8228143362212026e-01  4.3492135807563692e-01  6.8859720451238959e-01  9.4248670711387850e-01  1.1957869059379593e+00  1.4477040593342330e+00  1.6974375043456060e+00  1.9441395220356590e+00  2.1867976019071191e+00  2.4238164525347625e+00  2.6512406929231900e+00  2.8536461569813842e+00  2.9432035997050310e+00  -1.5807116078002694e+00  -1.4498935388572953e+00  -1.2491887525580034e+00  -1.0287475651944542e+00  -7.9756232761547174e-01  -5.5911903636614213e-01  -3.1537806962752440e-01  -6.7701167048907829e-02  1.8283394193968930e-01  4.3529054730194461e-01  6.8880425525457523e-01  9.4255032763751023e-01  1.1957279925374660e+00  1.4475508318874930e+00  1.6972347716071279e+00  1.9439723785001131e+00  2.1868675439993641e+00  2.4247452944121304e+00  2.6554246434379105e+00  2.8718813843294257e+00  3.0676026130274696e+00  </DataArray> 
</PointData> 
</Piece>
</UnstructuredGrid>
</VTKFile>