<?xml version="1.0"?>
<VTKFile type="UnstructuredGrid"  version="0.1"  >
<UnstructuredGrid>
<Piece  NumberOfPoints="651" NumberOfCells="1200">
<Points>
<DataArray  type="Float64"  NumberOfComponents="3"  format="ascii">0 0 0  50000 0 0  100000 0 0  150000 0 0  200000 0 0  250000 0 0  300000 0 0  350000 0 0  400000 0 0  450000 0 0  500000 0 0  550000 0 0  600000 0 0  650000 0 0  700000 0 0  750000 0 0  800000 0 0  850000 0 0  900000 0 0  950000 0 0  1000000 0 0  0 50000 0  50000 50000 0  100000 50000 0  150000 50000 0  200000 50000 0  250000 50000 0  300000 50000 0  350000 50000 0  400000 50000 0  450000 50000 0  500000 50000 0  550000 50000 0  600000 50000 0  650000 50000 0  700000 50000 0  750000 50000 0  800000 50000 0  850000 50000 0  900000 50000 0  950000 50000 0  1000000 50000 0  0 100000 0  50000 100000 0  100000 100000 0  150000 100000 0  200000 100000 0  250000 100000 0  300000 100000 0  350000 100000 0  400000 100000 0  450000 100000 0  500000 100000 0  550000 100000 0  600000 100000 0  650000 100000 0  700000 100000 0  750000 100000 0  800000 100000 0  850000 100000 0  900000 100000 0  950000 100000 0  1000000 100000 0  0 150000 0  50000 150000 0  100000 150000 0  150000 150000 0  200000 150000 0  250000 150000 0  300000 150000 0  350000 150000 0  400000 150000 0  450000 150000 0  500000 150000 0  550000 150000 0  600000 150000 0  650000 150000 0  700000 150000 0  750000 150000 0  800000 150000 0  850000 150000 0  900000 150000 0  950000 150000 0  1000000 150000 0  0 200000 0  50000 200000 0  100000 200000 0  150000 200000 0  200000 200000 0  250000 200000 0  300000 200000 0  350000 200000 0  400000 200000 0  450000 200000 0  500000 200000 0  550000 200000 0  600000 200000 0  650000 200000 0  700000 200000 0  750000 200000 0  800000 200000 0  850000 200000 0  900000 200000 0  950000 200000 0  1000000 200000 0  0 250000 0  50000 250000 0  100000 250000 0  150000 250000 0  200000 250000 0  250000 250000 0  300000 250000 0  350000 250000 0  400000 250000 0  450000 250000 0  500000 250000 0  550000 250000 0  600000 250000 0  650000 250000 0  700000 250000 0  750000 250000 0  800000 250000 0  850000 250000 0  900000 250000 0  950000 250000 0  1000000 250000 0  0 300000 0  50000 300000 0  100000 300000 0  150000 300000 0  200000 300000 0  250000 300000 0  300000 300000 0  350000 300000 0  400000 300000 0  450000 300000 0  500000 300000 0  550000 300000 0  600000 300000 0  650000 300000 0  700000 300000 0  750000 300000 0  800000 300000 0  850000 300000 0  900000 300000 0  950000 300000 0  1000000 300000 0  0 350000 0  50000 350000 0  100000 350000 0  150000 350000 0  200000 350000 0  250000 350000 0  300000 350000 0  350000 350000 0  400000 350000 0  450000 350000 0  500000 350000 0  550000 350000 0  600000 350000 0  650000 350000 0  700000 350000 0  750000 350000 0  800000 350000 0  850000 350000 0  900000 350000 0  950000 350000 0  1000000 350000 0  0 400000 0  50000 400000 0  100000 400000 0  150000 400000 0  200000 400000 0  250000 400000 0  300000 400000 0  350000 400000 0  400000 400000 0  450000 400000 0  500000 400000 0  550000 400000 0  600000 400000 0  650000 400000 0  700000 400000 0  750000 400000 0  800000 400000 0  850000 400000 0  900000 400000 0  950000 400000 0  1000000 400000 0  0 450000 0  50000 450000 0  100000 450000 0  150000 450000 0  200000 450000 0  250000 450000 0  300000 450000 0  350000 450000 0  400000 450000 0  450000 450000 0  500000 450000 0  550000 450000 0  600000 450000 0  650000 450000 0  700000 450000 0  750000 450000 0  800000 450000 0  850000 450000 0  900000 450000 0  950000 450000 0  1000000 450000 0  0 500000 0  50000 500000 0  100000 500000 0  150000 500000 0  200000 500000 0  250000 500000 0  300000 500000 0  350000 500000 0  400000 500000 0  450000 500000 0  500000 500000 0  550000 500000 0  600000 500000 0  650000 500000 0  700000 500000 0  750000 500000 0  800000 500000 0  850000 500000 0  900000 500000 0  950000 500000 0  1000000 500000 0  0 550000 0  50000 550000 0  100000 550000 0  150000 550000 0  200000 550000 0  250000 550000 0  300000 550000 0  350000 550000 0  400000 550000 0  450000 550000 0  500000 550000 0  550000 550000 0  600000 550000 0  650000 550000 0  700000 550000 0  750000 550000 0  800000 550000 0  850000 550000 0  900000 550000 0  950000 550000 0  1000000 550000 0  0 600000 0  50000 600000 0  100000 600000 0  150000 600000 0  200000 600000 0  250000 600000 0  300000 600000 0  350000 600000 0  400000 600000 0  450000 600000 0  500000 600000 0  550000 600000 0  600000 600000 0  650000 600000 0  700000 600000 0  750000 600000 0  800000 600000 0  850000 600000 0  900000 600000 0  950000 600000 0  1000000 600000 0  0 650000 0  50000 650000 0  100000 650000 0  150000 650000 0  200000 650000 0  250000 650000 0  300000 650000 0  350000 650000 0  400000 650000 0  450000 650000 0  500000 650000 0  550000 650000 0  600000 650000 0  650000 650000 0  700000 650000 0  750000 650000 0  800000 650000 0  850000 650000 0  900000 650000 0  950000 650000 0  1000000 650000 0  0 700000 0  50000 700000 0  100000 700000 0  150000 700000 0  200000 700000 0  250000 700000 0  300000 700000 0  350000 700000 0  400000 700000 0  450000 700000 0  500000 700000 0  550000 700000 0  600000 700000 0  650000 700000 0  700000 700000 0  750000 700000 0  800000 700000 0  850000 700000 0  900000 700000 0  950000 700000 0  1000000 700000 0  0 750000 0  50000 750000 0  100000 750000 0  150000 750000 0  200000 750000 0  250000 750000 0  300000 750000 0  350000 750000 0  400000 750000 0  450000 750000 0  500000 750000 0  550000 750000 0  600000 750000 0  650000 750000 0  700000 750000 0  750000 750000 0  800000 750000 0  850000 750000 0  900000 750000 0  950000 750000 0  1000000 750000 0  0 800000 0  50000 800000 0  100000 800000 0  150000 800000 0  200000 800000 0  250000 800000 0  300000 800000 0  350000 800000 0  400000 800000 0  450000 800000 0  500000 800000 0  550000 800000 0  600000 800000 0  650000 800000 0  700000 800000 0  750000 800000 0  800000 800000 0  850000 800000 0  900000 800000 0  950000 800000 0  1000000 800000 0  0 850000 0  50000 850000 0  100000 850000 0  150000 850000 0  200000 850000 0  250000 850000 0  300000 850000 0  350000 850000 0  400000 850000 0  450000 850000 0  500000 850000 0  550000 850000 0  600000 850000 0  650000 850000 0  700000 850000 0  750000 850000 0  800000 850000 0  850000 850000 0  900000 850000 0  950000 850000 0  1000000 850000 0  0 900000 0  50000 900000 0  100000 900000 0  150000 900000 0  200000 900000 0  250000 900000 0  300000 900000 0  350000 900000 0  400000 900000 0  450000 900000 0  500000 900000 0  550000 900000 0  600000 900000 0  650000 900000 0  700000 900000 0  750000 900000 0  800000 900000 0  850000 900000 0  900000 900000 0  950000 900000 0  1000000 900000 0  0 950000 0  50000 950000 0  100000 950000 0  150000 950000 0  200000 950000 0  250000 950000 0  300000 950000 0  350000 950000 0  400000 950000 0  450000 950000 0  500000 950000 0  550000 950000 0  600000 950000 0  650000 950000 0  700000 950000 0  750000 950000 0  800000 950000 0  850000 950000 0  900000 950000 0  950000 950000 0  1000000 950000 0  0 1000000 0  50000 1000000 0  100000 1000000 0  150000 1000000 0  200000 1000000 0  250000 1000000 0  300000 1000000 0  350000 1000000 0  400000 1000000 0  450000 1000000 0  500000 1000000 0  550000 1000000 0  600000 1000000 0  650000 1000000 0  700000 1000000 0  750000 1000000 0  800000 1000000 0  850000 1000000 0  900000 1000000 0  950000 1000000 0  1000000 1000000 0  0 1050000 0  50000 1050000 0  100000 1050000 0  150000 1050000 0  200000 1050000 0  250000 1050000 0  300000 1050000 0  350000 1050000 0  400000 1050000 0  450000 1050000 0  500000 1050000 0  550000 1050000 0  600000 1050000 0  650000 1050000 0  700000 1050000 0  750000 1050000 0  800000 1050000 0  850000 1050000 0  900000 1050000 0  950000 1050000 0  1000000 1050000 0  0 1100000 0  50000 1100000 0  100000 1100000 0  150000 1100000 0  200000 1100000 0  250000 1100000 0  300000 1100000 0  350000 1100000 0  400000 1100000 0  450000 1100000 0  500000 1100000 0  550000 1100000 0  600000 1100000 0  650000 1100000 0  700000 1100000 0  750000 1100000 0  800000 1100000 0  850000 1100000 0  900000 1100000 0  950000 1100000 0  1000000 1100000 0  0 1150000 0  50000 1150000 0  100000 1150000 0  150000 1150000 0  200000 1150000 0  250000 1150000 0  300000 1150000 0  350000 1150000 0  400000 1150000 0  450000 1150000 0  500000 1150000 0  550000 1150000 0  600000 1150000 0  650000 1150000 0  700000 1150000 0  750000 1150000 0  800000 1150000 0  850000 1150000 0  900000 1150000 0  950000 1150000 0  1000000 1150000 0  0 1200000 0  50000 1200000 0  100000 1200000 0  150000 1200000 0  200000 1200000 0  250000 1200000 0  300000 1200000 0  350000 1200000 0  400000 1200000 0  450000 1200000 0  500000 1200000 0  550000 1200000 0  600000 1200000 0  650000 1200000 0  700000 1200000 0  750000 1200000 0  800000 1200000 0  850000 1200000 0  900000 1200000 0  950000 1200000 0  1000000 1200000 0  0 1250000 0  50000 1250000 0  100000 1250000 0  150000 1250000 0  200000 1250000 0  250000 1250000 0  300000 1250000 0  350000 1250000 0  400000 1250000 0  450000 1250000 0  500000 1250000 0  550000 1250000 0  600000 1250000 0  650000 1250000 0  700000 1250000 0  750000 1250000 0  800000 1250000 0  850000 1250000 0  900000 1250000 0  950000 1250000 0  1000000 1250000 0  0 1300000 0  50000 1300000 0  100000 1300000 0  150000 1300000 0  200000 1300000 0  250000 1300000 0  300000 1300000 0  350000 1300000 0  400000 1300000 0  450000 1300000 0  500000 1300000 0  550000 1300000 0  600000 1300000 0  650000 1300000 0  700000 1300000 0  750000 1300000 0  800000 1300000 0  850000 1300000 0  900000 1300000 0  950000 1300000 0  1000000 1300000 0  0 1350000 0  50000 1350000 0  100000 1350000 0  150000 1350000 0  200000 1350000 0  250000 1350000 0  300000 1350000 0  350000 1350000 0  400000 1350000 0  450000 1350000 0  500000 1350000 0  550000 1350000 0  600000 1350000 0  650000 1350000 0  700000 135
[...]
<PointData  Scalars="f_25"> 
<DataArray  type="Float64"  Name="f_25"  format="ascii">-4.6488552162455337e+00  -4.2073283030475990e+00  -3.7177783397761148e+00  -3.1955567256000497e+00  -2.6567779285024029e+00  -2.1064577338900463e+00  -1.5473068437238369e+00  -9.8139251112074899e-01  -4.1057533442146932e-01  1.6333980379600940e-01  7.3854401152130555e-01  1.3131964363828892e+00  1.8854020833828258e+00  2.4531757498102222e+00  3.0143664817908786e+00  3.5664970894166919e+00  4.1064263816677027e+00  4.6296001510383133e+00  5.1278677528340681e+00  5.5804060469965036e+00  5.8741410525622610e+00  -4.3691078560702934e+00  -4.1678363847328717e+00  -3.7095503392477625e+00  -3.1943771892035868e+00  -2.6573498136931488e+00  -2.1074502475152137e+00  -1.5483063778697095e+00  -9.8222942632208976e-01  -4.1115997464831577e-01  1.6306676853002708e-01  7.3863079557100608e-01  1.3136911459446770e+00  1.8863633402245514e+00  2.4546865574798384e+00  3.0165493526062401e+00  3.5694988597110386e+00  4.1101899417797689e+00  4.6325736584132615e+00  5.1214209263050767e+00  5.5291771046708460e+00  5.7056770218128774e+00  -4.0460184688004253e+00  -3.9475824999050904e+00  -3.6025133883949660e+00  -3.1418614198250205e+00  -2.6302832055548260e+00  -2.0929938052665134e+00  -1.5404773856381013e+00  -9.7802304676043095e-01  -4.0897677394264803e-01  1.6407820340293647e-01  7.3885564582983088e-01  1.3131551536328989e+00  1.8847306355274778e+00  2.4511437767984763e+00  3.0094972907843727e+00  3.5558351047491636e+00  4.0836786706035584e+00  4.5803471536173488e+00  5.0179610439651032e+00  5.3345132266470463e+00  5.4149908336017107e+00  -3.7368037305780311e+00  -3.6781223064753727e+00  -3.4187559781244712e+00  -3.0268883438564291e+00  -2.5594194236477645e+00  -2.0491497772939304e+00  -1.5133427601820348e+00  -9.6151716543165255e-01  -3.9954646901308388e-01  1.6840965372872288e-01  7.3897405160046259e-01  1.3090559973728080e+00  1.8755131522092561e+00  2.4347992148438622e+00  2.9824219192057240e+00  3.5119342294279887e+00  4.0129517810519149e+00  4.4673532075666555e+00  4.8428676948724414e+00  5.0861832980342134e+00  5.1325023994464507e+00  -3.4446495645975359e+00  -3.4036831064086197e+00  -3.2001529622213005e+00  -2.8684280501623443e+00  -2.4496918546047546e+00  -1.9748427872163725e+00  -1.4639583545474282e+00  -9.2976507681228615e-01  -3.8069641073829585e-01  1.7716266820598423e-01  7.3892675863822854e-01  1.3001949231675394e+00  1.8565167202795321e+00  2.4028520019565347e+00  2.9328431453237940e+00  3.4376778019300738e+00  3.9042751776830782e+00  4.3126448232662629e+00  4.6330745596797875e+00  4.8265940817711721e+00  4.8593852998167408e+00  -3.1708072231452218e+00  -3.1391614962557854e+00  -2.9723202802712767e+00  -2.6879000952581760e+00  -2.3141767005913221e+00  -1.8767643226080735e+00  -1.3952529783656062e+00  -8.8378320756405304e-01  -3.5262853460354388e-01  1.9037081945113254e-01  7.3874610932063900e-01  1.2866242679807511e+00  1.8280943627192636e+00  2.3565770126277537e+00  2.8640660937375628e+00  3.3401284752490250e+00  3.7706249392003666e+00  4.1363890048575094e+00  4.4128295713847558e+00  4.5729472793292834e+00  4.5990893595863263e+00  -2.9170481596889943e+00  -2.8910305675986572e+00  -2.7493289323260703e+00  -2.5011918233404451e+00  -2.1660453257921728e+00  -1.7641612790991157e+00  -1.3131126392204528e+00  -8.2705438886644189e-01  -3.1722010959948205e-01  2.0724769079205843e-01  7.3849576386512517e-01  1.2692671158127675e+00  1.7922828114659286e+00  2.2996319305932356e+00  2.7821085879875533e+00  3.2284764047323282e+00  3.6247499316427163e+00  3.9538200992645591e+00  4.1961808001653882e+00  4.3331580866376198e+00  4.3553270626386764e+00  -2.6852522490478319e+00  -2.6629807855421235e+00  -2.5392634403289285e+00  -2.3190107079981899e+00  -2.0159058149192495e+00  -1.6458675868068013e+00  -1.2241124106458481e+00  -7.6405028939561082e-01  -2.7718100936177975e-01  2.2654900730099076e-01  7.3823592250472858e-01  1.2494866529966664e+00  1.7519007291879900e+00  2.2365610429900564e+00  2.6935305874277238e+00  3.1113925283517485e+00  3.4769592827215008e+00  3.7754234030011093e+00  3.9914198911200360e+00  4.1117197621164374e+00  4.1311977449114607e+00  -2.4771339358178195e+00  -2.4575218793837843e+00  -2.3471191502330644e+00  -2.1484893551750370e+00  -1.8716301673070546e+00  -1.5292012036225224e+00  -1.1342689719066461e+00  -6.9921892665313456e-01  -2.3538647457155784e-01  2.4689089216597626e-01  7.3800915765770037e-01  1.2287452079543961e+00  1.7098788675133436e+00  2.1718221408840206e+00  2.6042880226147291e+00  2.9960590210181621e+00  3.3349693807895986e+00  3.6082861699045647e+00  3.8037461471480536e+00  3.9116301578066284e+00  3.9291558967169316e+00  -2.2941454474908207e+00  -2.2764994575483652e+00  -2.1761786791876454e+00  -1.9944295115723687e+00  -1.7388703142134911e+00  -1.4198122778455777e+00  -1.0485564470788897e+00  -6.3645678606660983e-01  -1.9447013777875108e-01  2.6696370906348582e-01  7.3783882146114432e-01  1.2083919449931226e+00  1.6688685529099536e+00  2.1092938373548633e+00  2.5192953900223709e+00  2.8880390313825033e+00  3.2043643918112119e+00  3.4572318216807547e+00  3.6366124278024352e+00  3.7350592555036446e+00  3.7511206182960577e+00  -2.1374601501723727e+00  -2.1213000131681627e+00  -2.0286848325614386e+00  -1.8601025606876651e+00  -1.6216202675512617e+00  -1.3218896436182768e+00  -9.7084247416336367e-01  -5.7892205528660168e-01  -1.5663737225537294e-01  2.8564352448831121e-01  7.3773290708587569e-01  1.1895613761688248e+00  1.6310704351392862e+00  2.0521080761557378e+00  2.4423748296221266e+00  2.7914729740898099e+00  3.0891186201140273e+00  3.3255787967170338e+00  3.4924014466201561e+00  3.5836241758619187e+00  3.5985775206369226e+00  -2.0079889460050224e+00  -1.9929573696064207e+00  -1.9061951165924294e+00  -1.7477487506747382e+00  -1.5226686058950072e+00  -1.2384512021424492e+00  -9.0400783762190273e-01  -5.2903875669746936e-01  -1.2362238017933561e-01  3.0202942984802278e-01  7.3768901686602573e-01  1.1731464284310289e+00  1.5982023337489215e+00  2.0026625979808688e+00  2.3763759783061218e+00  2.7093561404407160e+00  2.9920268523856115e+00  3.2156231236855062e+00  3.3727873205177170e+00  3.4585318009034176e+00  3.4726588540690826e+00  -1.9064095516679023e+00  -1.8922229001769155e+00  -1.8097863960670257e+00  -1.6588926947912592e+00  -1.4439315869975788e+00  -1.1716138742982625e+00  -8.5012091313195626e-01  -4.8858562619317919e-01  -9.6721063415387082e-02  3.1543764954064224e-01  7.3769854480471375e-01  1.1598123449486903e+00  1.5715386154950386e+00  1.9627127366877546e+00  2.3233473695537277e+00  2.6437991837822503e+00  2.9150254110381648e+00  3.1289470150833631e+00  3.2789462779346441e+00  3.3606696440415842e+00  3.3742079688771431e+00  -1.8331987671507730e+00  -1.8196182650494923e+00  -1.7401828866183715e+00  -1.5945472949959463e+00  -1.3866892976139198e+00  -1.1228116655794500e+00  -8.1060624714205609e-01  -4.5880748486568423e-01  -7.6853115729665314e-02  3.2537624588875408e-01  7.3774959504263127e-01  1.1500272701882659e+00  1.5519758404976769e+00  1.9334833491645227e+00  2.2847018018244878e+00  2.5962398946649614e+00  2.8594216974176443e+00  3.0666200859386392e+00  3.2116894182780649e+00  3.2906713652369506e+00  3.3038322144253103e+00  -1.7886619119916021e+00  -1.7754758170844740e+00  -1.6978396812538250e+00  -1.5553466273081145e+00  -1.3517478937669540e+00  -1.0929576695245224e+00  -7.8638244887216080e-01  -4.4051704845739215e-01  -6.4626006931386856e-02  3.3151567166406815e-01  7.3782876062494962e-01  1.1440947714948237e+00  1.5400984157187574e+00  1.9157701901165383e+00  2.2613515645920406e+00  2.5676011379624635e+00  2.8260528333276040e+00  3.0293314828197180e+00  3.1715500497597251e+00  3.2489657130524332e+00  3.2619454258363607e+00  -1.7729556001620514e+00  -1.7599674717301450e+00  -1.6829961907684623e+00  -1.5416297941351804e+00  -1.3395449327693243e+00  -1.0825542805766271e+00  -7.7796137927125109e-01  -4.3417262464977380e-01  -6.0386662439106918e-02  3.3366374416820094e-01  7.3792206363498647e-01  1.1421803831017641e+00  1.5362307897090719e+00  1.9100167519197340e+00  2.2538055065412066e+00  2.5583984078465831e+00  2.8153890600392750e+00  3.0174739214051378e+00  3.1588403180384161e+00  3.2358115990001024e+00  3.2487997274320146e+00  -1.7861012985664022e+00  -1.7731215857824778e+00  -1.6957059224897730e+00  -1.5534873555497655e+00  -1.3502087060576526e+00  -1.0917570106925125e+00  -7.8550743732208617e-01  -4.3992606284658031e-01  -6.4254288448799310e-02  3.3174935577514236e-01  7.3801536664502798e-01  1.1443284556059061e+00  1.5404701342013591e+00  1.9163611757273546e+00  2.2622265761421185e+00  2.5688017967944856e+00  2.8275920210369176e+00  3.0311907545780787e+00  3.1736838085238048e+00  3.2513199443544591e+00  3.2645060392615881e+00  -1.8279880871553504e+00  -1.8148272379669943e+00  -1.7358452910081161e+00  -1.5907759586686825e+00  -1.3835775701476978e+00  -1.1203957673950165e+00  -8.0885767455453750e-01  -4.5763922189456652e-01  -7.6131713227712630e-02  3.2581685708170999e-01  7.3809453222735710e-01  1.1504678813812332e+00  1.5526972429996468e+00  1.9346516121356583e+00  2.2864503744120359e+00  2.5986557928494287e+00  2.8625334248839027e+00  3.0703914222659248e+00  3.2160270138883753e+00  3.2954623923195134e+00  3.3090428944207879e+00  -1.8983638416071633e+00  -1.8848255167716010e+00  -1.8031021506646681e+00  -1.6531028878133862e+00  -1.4391812837681988e+00  -1.1679550565122971e+00  -8.4750324228376406e-01  -4.8686860941778609e-01  -9.5694488225055468e-02  3.1603178232130064e-01  7.3814558246529416e-01  1.1604064777293699e+00  1.5725651906853906e+00  1.9644297534631703e+00  2.3259650404019494e+00  2.6474580015682556e+00  2.9197757142675873e+00  3.1347368220612664e+00  3.2856305233370318e+00  3.3680670274469215e+00  3.3822536789379072e+00  -1.9968147267990917e+00  -1.9826876736334298e+00  -1.8969431932477308e+00  -1.7397789964155266e+00  -1.5161827251156306e+00  -1.2335120131707400e+00  -9.0053185103613953e-01  -5.2681847071087906e-01  -1.2235820647891814e-01  3.0269769883898129e-01  7.3815511040399928e-01  1.1738146974220058e+00  1.5994665074493606e+00  2.0048828839674768e+00  2.3798519648919099e+00  2.7142953294124510e+00  2.9985127331650241e+00  3.2235928779447498e+00  3.3820392438624256e+00  3.4688014968764125e+00  3.4838330732750173e+00  -2.1227333933669041e+00  -2.1077800485919029e+00  -2.0165573193501434e+00  -1.8497346694470271e+00  -1.6132744928440144e+00  -1.3156288468197972e+00  -9.6653070235210903e-01  -5.7626394888571508e-01  -1.5522630786924951e-01  2.8628275110121698e-01  7.3811122018417696e-01  1.1902006027817438e+00  1.6324814995254291e+00  2.0547661825566546e+00  2.4466866014334139e+00  2.7977337708883225e+00  3.0974643948212952e+00  3.3359466879576813e+00  3.5045289598314531e+00  3.5971441404381634e+00  3.6133042774423716e+00  -2.2752764910260015e+00  -2.2592151282336017e+00  -2.1607683005323906e+00  -1.9813876944107156e+00  -1.7285202645411704e+00  -1.4121949041124535e+00  -1.0434512627523205e+00  -6.3344971008480766e-01  -1.9302442563988206e-01  2.6745218227696138e-01  7.3800530580894674e-01  1.2088804182066106e+00  1.6703142650488467e+00  2.1123009133367083e+00  2.5244005743489852e+00  2.8956564051156621e+00  3.2147144414835558e+00  3.4702736388424089e+00  3.6520228064576745e+00  3.7523435848183815e+00  3.7699895747608227e+00  -2.4533117694468580e+00  -2.4357860305365615e+00  -2.3279020198779783e+00  -2.1324420426344921e+00  -1.8591252535195273e+00  -1.5202148937480791e+00  -1.1284438953446414e+00  -6.9597801361391631e-01  -2.3403474024322632e-01  2.4709891931572783e-01  7.3783496961243389e-01  1.2289532351041659e+00  1.7112306018417045e+00  2.1750630539232776e+00  2.6101130991767802e+00  3.0050453308926364e+00  3.3474742945771441e+00  3.6243334824451057e+00  3.8229632775031108e+00  3.9333660066538187e+00  3.9529780630878548e+00  -2.6553536176413615e+00  -2.6358756348463337e+00  -2.5155757638499323e+00  -2.2995792757310127e+00  -2.0011151554513931e+00  -1.6355484010816264e+00  -1.2176864601575919e+00  -7.6071691571991240e-01  -2.7605660191783504e-01  2.2635747427349662e-01  7.3760820476544442e-01  1.2492951199691884e+00  1.7530251366319618e+00  2.2398944166657815e+00  2.6999565379160058e+00  3.1217117140769428e+00  3.4917499421893732e+00  3.7948548352682829e+00  4.0151075675990002e+00  4.1388249128121872e+00  4.1610963763178939e+00  -2.8794829353685549e+00  -2.8573139593675010e+00  -2.7203366728952774e+00  -2.4779759719944421e+00  -2.1489058043725779e+00  -1.7526322774621719e+00  -1.3062644607173761e+00  -8.2378780332304369e-01  -3.1643868419572396e-01  2.0657701145744117e-01  7.3734836340509013e-01  1.2685964364781601e+00  1.7930642368696998e+00  2.3028985161366391e+00  2.7889567664906370e+00  3.2400054063692805e+00  3.6418894530623271e+00  3.9770359506105826e+00  4.2251730595961821e+00  4.3668746948687538e+00  4.3928922869590918e+00  -3.1232452323161688e+00  -3.0971031520591352e+00  -2.9369854441146002e+00  -2.6605448775873470e+00  -2.2947808119301909e+00  -1.8642843479788416e+00  -1.3882219664673525e+00  -8.8073288535751670e-01  -3.5225023544901896e-01  1.8921985928949445e-01  7.3709801794961449e-01  1.2854733078191241e+00  1.8284726618737983e+00  2.3596273348342907e+00  2.8710971056358274e+00  3.3526084498782853e+00  3.7900208278615182e+00  4.1637442225283463e+00  4.4481644075414222e+00  4.6150056235259278e+00  4.6466513504153557e+00  -3.3835411725465514e+00  -3.3507499545009845e+00  -3.1572304324095897e+00  -2.8368006959960672e+00  -2.4284310504128741e+00  -1.9618336746598612e+00  -1.4569990180535533e+00  -9.2700787468627044e-01  -3.8067259300926076e-01  1.7564920410273263e-01  7.3691736863205215e-01  1.2986814590642992e+00  1.8565405380085720e+00  2.4056092040825510e+00  2.9398024818176869e+00  3.4506869144866306e+00  3.9255359818749813e+00  4.3442721774325506e+00  4.6759970894914913e+00  4.8795272336788020e+00  4.9204936918677129e+00  -3.6566582721762333e+00  -3.6103391707639929e+00  -3.3670235676022204e+00  -2.9915090802964337e+00  -2.5371076537816881e+00  -2.0360901021577469e+00  -1.5065777919354553e+00  -9.5895508757358050e-01  -3.9966902493896600e-01  1.6678812989748262e-01  7.3687007566983520e-01  1.3074344735415779e+00  1.8753905962833752e+00  2.4373612927019344e+00  2.9891868874523220e+00  3.5249939045642114e+00  4.0352635509180290e+00  4.5027324711266656e+00  4.8946001053946873e+00  5.1539664337455804e+00  5.2126478578482365e+00  -3.9391467063314782e+00  -3.8586690993767991e+00  -3.5421169166948676e+00  -3.1045030263471061e+00  -2.6078345433333268e+00  -2.0799909774789147e+00  -1.5336531635140995e+00  -9.7529964952818116e-01  -4.0888650825718448e-01  1.6268897363740073e-01  7.3698848144047768e-01  1.3117659238673725e+00  1.8848209012129522e+00  2.4538671740307216e+00  3.0163215129083971e+00  3.5688379325367992e+00  4.1061273328250989e+00  4.6177055470952704e+00  5.0783575156651981e+00  5.4234266271753109e+00  5.5218625960706671e+00  -4.2298328945426480e+00  -4.0533329774006157e+00  -3.6455767990348682e+00  -3.1567295311430379e+00  -2.6343458145095360e+00  -2.0936547324407875e+00  -1.5407052253359623e+00  -9.7884243020954731e-01  -4.1051921295425181e-01  1.6215298132562686e-01  7.3721333169930203e-01  1.3127773587402845e+00  1.8870041019186243e+00  2.4580735535923925e+00  3.0241505051400073e+00  3.5832943747854871e+00  4.1331939409634169e+00  4.6702213164738380e+00  5.1853944665180132e+00  5.6436805120031082e+00  5.8449519833405352e+00  -4.3982969252920281e+00  -4.1045619197262679e+00  -3.6520236255638476e+00  -3.1537560237680857e+00  -2.6305822543974613e+00  -2.0906529621464385e+00  -1.5385223545206008e+00  -9.7733162253993355e-01  -4.0955795611252271e-01  1.6264769088741718e-01  7.3730011574900700e-01  1.3125043234742977e+00  1.8864194616917802e+00  2.4572366383910524e+00  3.0231509709941333e+00  3.5823018611603210e+00  4.1326220557726732e+00  4.6714008528703115e+00  5.1936224670463593e+00  5.6831724303178417e+00  6.1246993435157782e+00  </DataArray> 
</PointData> 
</Piece>
</UnstructuredGrid>
</VTKFile>