<?xml version="1.0"?>
<VTKFile type="UnstructuredGrid"  version="0.1"  >
<UnstructuredGrid>
<Piece  NumberOfPoints="651" NumberOfCells="1200">
<Points>
<DataArray  type="Float64"  NumberOfComponents="3"  format="ascii">0 0 0  50000 0 0  100000 0 0  150000 0 0  200000 0 0  250000 0 0  300000 0 0  350000 0 0  400000 0 0  450000 0 0  500000 0 0  550000 0 0  600000 0 0  650000 0 0  700000 0 0  750000 0 0  800000 0 0  850000 0 0  900000 0 0  950000 0 0  1000000 0 0  0 50000 0  50000 50000 0  100000 50000 0  150000 50000 0  200000 50000 0  250000 50000 0  300000 50000 0  350000 50000 0  400000 50000 0  450000 50000 0  500000 50000 0  550000 50000 0  600000 50000 0  650000 50000 0  700000 50000 0  750000 50000 0  800000 50000 0  850000 50000 0  900000 50000 0  950000 50000 0  1000000 50000 0  0 100000 0  50000 100000 0  100000 100000 0  150000 100000 0  200000 100000 0  250000 100000 0  300000 100000 0  350000 100000 0  400000 100000 0  450000 100000 0  500000 100000 0  550000 100000 0  600000 100000 0  650000 100000 0  700000 100000 0  750000 100000 0  800000 100000 0  850000 100000 0  900000 100000 0  950000 100000 0  1000000 100000 0  0 150000 0  50000 150000 0  100000 150000 0  150000 150000 0  200000 150000 0  250000 150000 0  300000 150000 0  350000 150000 0  400000 150000 0  450000 150000 0  500000 150000 0  550000 150000 0  600000 150000 0  650000 150000 0  700000 150000 0  750000 150000 0  800000 150000 0  850000 150000 0  900000 150000 0  950000 150000 0  1000000 150000 0  0 200000 0  50000 200000 0  100000 200000 0  150000 200000 0  200000 200000 0  250000 200000 0  300000 200000 0  350000 200000 0  400000 200000 0  450000 200000 0  500000 200000 0  550000 200000 0  600000 200000 0  650000 200000 0  700000 200000 0  750000 200000 0  800000 200000 0  850000 200000 0  900000 200000 0  950000 200000 0  1000000 200000 0  0 250000 0  50000 250000 0  100000 250000 0  150000 250000 0  200000 250000 0  250000 250000 0  300000 250000 0  350000 250000 0  400000 250000 0  450000 250000 0  500000 250000 0  550000 250000 0  600000 250000 0  650000 250000 0  700000 250000 0  750000 250000 0  800000 250000 0  850000 250000 0  900000 250000 0  950000 250000 0  1000000 250000 0  0 300000 0  50000 300000 0  100000 300000 0  150000 300000 0  200000 300000 0  250000 300000 0  300000 300000 0  350000 300000 0  400000 300000 0  450000 300000 0  500000 300000 0  550000 300000 0  600000 300000 0  650000 300000 0  700000 300000 0  750000 300000 0  800000 300000 0  850000 300000 0  900000 300000 0  950000 300000 0  1000000 300000 0  0 350000 0  50000 350000 0  100000 350000 0  150000 350000 0  200000 350000 0  250000 350000 0  300000 350000 0  350000 350000 0  400000 350000 0  450000 350000 0  500000 350000 0  550000 350000 0  600000 350000 0  650000 350000 0  700000 350000 0  750000 350000 0  800000 350000 0  850000 350000 0  900000 350000 0  950000 350000 0  1000000 350000 0  0 400000 0  50000 400000 0  100000 400000 0  150000 400000 0  200000 400000 0  250000 400000 0  300000 400000 0  350000 400000 0  400000 400000 0  450000 400000 0  500000 400000 0  550000 400000 0  600000 400000 0  650000 400000 0  700000 400000 0  750000 400000 0  800000 400000 0  850000 400000 0  900000 400000 0  950000 400000 0  1000000 400000 0  0 450000 0  50000 450000 0  100000 450000 0  150000 450000 0  200000 450000 0  250000 450000 0  300000 450000 0  350000 450000 0  400000 450000 0  450000 450000 0  500000 450000 0  550000 450000 0  600000 450000 0  650000 450000 0  700000 450000 0  750000 450000 0  800000 450000 0  850000 450000 0  900000 450000 0  950000 450000 0  1000000 450000 0  0 500000 0  50000 500000 0  100000 500000 0  150000 500000 0  200000 500000 0  250000 500000 0  300000 500000 0  350000 500000 0  400000 500000 0  450000 500000 0  500000 500000 0  550000 500000 0  600000 500000 0  650000 500000 0  700000 500000 0  750000 500000 0  800000 500000 0  850000 500000 0  900000 500000 0  950000 500000 0  1000000 500000 0  0 550000 0  50000 550000 0  100000 550000 0  150000 550000 0  200000 550000 0  250000 550000 0  300000 550000 0  350000 550000 0  400000 550000 0  450000 550000 0  500000 550000 0  550000 550000 0  600000 550000 0  650000 550000 0  700000 550000 0  750000 550000 0  800000 550000 0  850000 550000 0  900000 550000 0  950000 550000 0  1000000 550000 0  0 600000 0  50000 600000 0  100000 600000 0  150000 600000 0  200000 600000 0  250000 600000 0  300000 600000 0  350000 600000 0  400000 600000 0  450000 600000 0  500000 600000 0  550000 600000 0  600000 600000 0  650000 600000 0  700000 600000 0  750000 600000 0  800000 600000 0  850000 600000 0  900000 600000 0  950000 600000 0  1000000 600000 0  0 650000 0  50000 650000 0  100000 650000 0  150000 650000 0  200000 650000 0  250000 650000 0  300000 650000 0  350000 650000 0  400000 650000 0  450000 650000 0  500000 650000 0  550000 650000 0  600000 650000 0  650000 650000 0  700000 650000 0  750000 650000 0  800000 650000 0  850000 650000 0  900000 650000 0  950000 650000 0  1000000 650000 0  0 700000 0  50000 700000 0  100000 700000 0  150000 700000 0  200000 700000 0  250000 700000 0  300000 700000 0  350000 700000 0  400000 700000 0  450000 700000 0  500000 700000 0  550000 700000 0  600000 700000 0  650000 700000 0  700000 700000 0  750000 700000 0  800000 700000 0  850000 700000 0  900000 700000 0  950000 700000 0  1000000 700000 0  0 750000 0  50000 750000 0  100000 750000 0  150000 750000 0  200000 750000 0  250000 750000 0  300000 750000 0  350000 750000 0  400000 750000 0  450000 750000 0  500000 750000 0  550000 750000 0  600000 750000 0  650000 750000 0  700000 750000 0  750000 750000 0  800000 750000 0  850000 750000 0  900000 750000 0  950000 750000 0  1000000 750000 0  0 800000 0  50000 800000 0  100000 800000 0  150000 800000 0  200000 800000 0  250000 800000 0  300000 800000 0  350000 800000 0  400000 800000 0  450000 800000 0  500000 800000 0  550000 800000 0  600000 800000 0  650000 800000 0  700000 800000 0  750000 800000 0  800000 800000 0  850000 800000 0  900000 800000 0  950000 800000 0  1000000 800000 0  0 850000 0  50000 850000 0  100000 850000 0  150000 850000 0  200000 850000 0  250000 850000 0  300000 850000 0  350000 850000 0  400000 850000 0  450000 850000 0  500000 850000 0  550000 850000 0  600000 850000 0  650000 850000 0  700000 850000 0  750000 850000 0  800000 850000 0  850000 850000 0  900000 850000 0  950000 850000 0  1000000 850000 0  0 900000 0  50000 900000 0  100000 900000 0  150000 900000 0  200000 900000 0  250000 900000 0  300000 900000 0  350000 900000 0  400000 900000 0  450000 900000 0  500000 900000 0  550000 900000 0  600000 900000 0  650000 900000 0  700000 900000 0  750000 900000 0  800000 900000 0  850000 900000 0  900000 900000 0  950000 900000 0  1000000 900000 0  0 950000 0  50000 950000 0  100000 950000 0  150000 950000 0  200000 950000 0  250000 950000 0  300000 950000 0  350000 950000 0  400000 950000 0  450000 950000 0  500000 950000 0  550000 950000 0  600000 950000 0  650000 950000 0  700000 950000 0  750000 950000 0  800000 950000 0  850000 950000 0  900000 950000 0  950000 950000 0  1000000 950000 0  0 1000000 0  50000 1000000 0  100000 1000000 0  150000 1000000 0  200000 1000000 0  250000 1000000 0  300000 1000000 0  350000 1000000 0  400000 1000000 0  450000 1000000 0  500000 1000000 0  550000 1000000 0  600000 1000000 0  650000 1000000 0  700000 1000000 0  750000 1000000 0  800000 1000000 0  850000 1000000 0  900000 1000000 0  950000 1000000 0  1000000 1000000 0  0 1050000 0  50000 1050000 0  100000 1050000 0  150000 1050000 0  200000 1050000 0  250000 1050000 0  300000 1050000 0  350000 1050000 0  400000 1050000 0  450000 1050000 0  500000 1050000 0  550000 1050000 0  600000 1050000 0  650000 1050000 0  700000 1050000 0  750000 1050000 0  800000 1050000 0  850000 1050000 0  900000 1050000 0  950000 1050000 0  1000000 1050000 0  0 1100000 0  50000 1100000 0  100000 1100000 0  150000 1100000 0  200000 1100000 0  250000 1100000 0  300000 1100000 0  350000 1100000 0  400000 1100000 0  450000 1100000 0  500000 1100000 0  550000 1100000 0  600000 1100000 0  650000 1100000 0  700000 1100000 0  750000 1100000 0  800000 1100000 0  850000 1100000 0  900000 1100000 0  950000 1100000 0  1000000 1100000 0  0 1150000 0  50000 1150000 0  100000 1150000 0  150000 1150000 0  200000 1150000 0  250000 1150000 0  300000 1150000 0  350000 1150000 0  400000 1150000 0  450000 1150000 0  500000 1150000 0  550000 1150000 0  600000 1150000 0  650000 1150000 0  700000 1150000 0  750000 1150000 0  800000 1150000 0  850000 1150000 0  900000 1150000 0  950000 1150000 0  1000000 1150000 0  0 1200000 0  50000 1200000 0  100000 1200000 0  150000 1200000 0  200000 1200000 0  250000 1200000 0  300000 1200000 0  350000 1200000 0  400000 1200000 0  450000 1200000 0  500000 1200000 0  550000 1200000 0  600000 1200000 0  650000 1200000 0  700000 1200000 0  750000 1200000 0  800000 1200000 0  850000 1200000 0  900000 1200000 0  950000 1200000 0  1000000 1200000 0  0 1250000 0  50000 1250000 0  100000 1250000 0  150000 1250000 0  200000 1250000 0  250000 1250000 0  300000 1250000 0  350000 1250000 0  400000 1250000 0  450000 1250000 0  500000 1250000 0  550000 1250000 0  600000 1250000 0  650000 1250000 0  700000 1250000 0  750000 1250000 0  800000 1250000 0  850000 1250000 0  900000 1250000 0  950000 1250000 0  1000000 1250000 0  0 1300000 0  50000 1300000 0  100000 1300000 0  150000 1300000 0  200000 1300000 0  250000 1300000 0  300000 1300000 0  350000 1300000 0  400000 1300000 0  450000 1300000 0  500000 1300000 0  550000 1300000 0  600000 1300000 0  650000 1300000 0  700000 1300000 0  750000 1300000 0  800000 1300000 0  850000 1300000 0  900000 1300000 0  950000 1300000 0  1000000 1300000 0  0 1350000 0  50000 1350000 0  100000 1350000 0  150000 1350000 0  200000 1350000 0  250000 1350000 0  300000 1350000 0  350000 1350000 0  400000 1350000 0  450000 1350000 0  500000 1350000 0  550000 1350000 0  600000 1350000 0  650000 1350000 0  700000 135
[...]
<PointData  Scalars="f_25"> 
<DataArray  type="Float64"  Name="f_25"  format="ascii">-1.8751103760386729e+00  -1.6629420351142974e+00  -1.4281999225512185e+00  -1.1779844779749076e+00  -9.1993273986635615e-01  -6.5641949998613791e-01  -3.8872668050815889e-01  -1.1783318768533441e-01  1.5537842251779696e-01  4.3005097504630924e-01  7.0532489860631342e-01  9.8032552590910105e-01  1.2541532166818532e+00  1.5258670640998762e+00  1.7944502035951155e+00  2.0587356501172023e+00  2.3172504100773583e+00  2.5678709175704273e+00  2.8068098871480545e+00  3.0242918494857962e+00  3.1659659645112672e+00  -1.7406905492562961e+00  -1.6435895166018510e+00  -1.4240269196376050e+00  -1.1773117688602601e+00  -9.2017590062990640e-01  -6.5691233997317722e-01  -3.8925509184410456e-01  -1.1830677026011981e-01  1.5500834074957029e-01  4.2981684468124109e-01  7.0525295824692358e-01  9.8044133056460936e-01  1.2544865186111098e+00  1.5264576734678785e+00  1.7953535257454993e+00  2.0600119582299961e+00  2.3188485858633388e+00  2.5689971214905185e+00  2.8032337742293563e+00  2.9989521402825967e+00  3.0845587057608306e+00  -1.5853409169259283e+00  -1.5375891570675195e+00  -1.3721907290672384e+00  -1.1516914249302921e+00  -9.0686728559709695e-01  -6.4975129060423276e-01  -3.8535814030257054e-01  -1.1622035626989512e-01  1.5606055131423552e-01  4.3024964956523182e-01  7.0525531446216416e-01  9.8002785332887377e-01  1.2534963803507504e+00  1.5244986534999263e+00  1.7916536033803110e+00  2.0530751560829481e+00  2.3056749201937463e+00  2.5434109513562650e+00  2.7530070449014512e+00  2.9049357892831487e+00  2.9443622254022830e+00  -1.4366591243422842e+00  -1.4080335259402263e+00  -1.2836440543414362e+00  -1.0960908612115929e+00  -8.7246364588892100e-01  -6.2838603158916329e-01  -3.7209709769184496e-01  -1.0814744618589731e-01  1.6065259060842293e-01  4.3231254735159108e-01  7.0521710268277149e-01  9.7788877376257966e-01  1.2488261075407627e+00  1.5163351697164378e+00  1.7782707521533223e+00  2.0315553820108483e+00  2.2712351021732777e+00  2.4886711849122949e+00  2.6684889782686203e+00  2.7852927320220480e+00  2.8081425647562930e+00  -1.2961909245909846e+00  -1.2761227367751842e+00  -1.1784700572950932e+00  -1.0197087703482246e+00  -8.1944998133558311e-01  -5.9240364099547183e-01  -3.4813914391585815e-01  -9.2731114409676851e-02  1.6979037311220077e-01  4.3651566299847216e-01  7.0510830711196237e-01  9.7346388005945350e-01  1.2394549892771207e+00  1.5006733736205566e+00  1.7540828060533782e+00  1.9954772927518709e+00  2.2186178132758245e+00  2.4139761915865012e+00  2.5673981417542677e+00  2.6603178137574286e+00  2.6765498780957739e+00  -1.1645494735748476e+00  -1.1490027405303642e+00  -1.0689341697152741e+00  -9.3282363015675851e-01  -7.5413691119882731e-01  -5.4506471945461554e-01  -3.1493759359113921e-01  -7.0498225438495654e-02  1.8334934776734688e-01  4.4285969242073048e-01  7.0494126001584190e-01  9.6678697157122728e-01  1.2255722201581702e+00  1.4781542508294314e+00  1.7207108809535221e+00  1.9482643823473098e+00  2.1540733005499937e+00  2.3290051178064597e+00  2.4613483320761556e+00  2.5382404543419579e+00  2.5512059388061612e+00  -1.0425906318933380e+00  -1.0297829197914563e+00  -9.6177433621973663e-01  -8.4304453975671700e-01  -6.8284507313208886e-01  -4.9082088411648572e-01  -2.7533777864887443e-01  -4.3140760102814930e-02  2.0041215602848950e-01  4.5095695962912014e-01  7.0474319128355301e-01  9.5830449886940117e-01  1.2081644160341936e+00  1.4505459284418019e+00  1.6810559749257667e+00  1.8943357752509473e+00  2.0837198149072957e+00  2.2410591226431027e+00  2.3570676185032351e+00  2.4228507772256580e+00  2.4338637065948068e+00  -9.3121761975588213e-01  -9.2023665172119706e-01  -8.6086256545724205e-01  -7.5549685532682997e-01  -6.1065547315607005e-01  -4.3390936381278122e-01  -2.3249930966227295e-01  -1.2812007011439846e-02  2.1967089921390923e-01  4.6020479178968582e-01  7.0454027370632433e-01  9.4867079298878565e-01  1.1885864442866139e+00  1.4200318979305337e+00  1.6382672900924407e+00  1.8378500406451164e+00  2.0124975386320911e+00  2.1551603026607657e+00  2.2585274901570078e+00  2.3163006623245153e+00  2.3259925233633312e+00  -8.3125166770835190e-01  -8.2156862435971112e-01  -7.6859110766992322e-01  -6.7359338754563669e-01  -5.4133505614070365e-01  -3.7783421841784981e-01  -1.8930591367166144e-01  1.8353774628684441e-02  2.3974424347028264e-01  4.6993700000749766e-01  7.0435105993331903e-01  9.3858607206012346e-01  1.1682431199641952e+00  1.3887488699846999e+00  1.5951986308926509e+00  1.7822470867041664e+00  1.9441009862761944e+00  2.0747015925012753e+00  2.1682176312672752e+00  2.2200246673537030e+00  2.2287585256923435e+00  -7.4338674062682497e-01  -7.3466304677870642e-01  -6.8653109015607960e-01  -5.9963051233905740e-01  -4.7758644329558481e-01  -3.2529796990001802e-01  -1.4813799149195747e-01  4.8490696181227984e-02  2.5937009345042239e-01  4.7952522045874235e-01  7.0418567990198178e-01  9.2869567286032262e-01  1.1484035151638359e+00  1.3585534516024742e+00  1.5542021200568670e+00  1.7301889914330710e+00  1.8812019733596568e+00  2.0019909311639474e+00  2.0877904676905170e+00  2.1350601358905776e+00  2.1430745556592194e+00  -6.6818222897590762e-01  -6.6018263246070452e-01  -6.1575479898776053e-01  -5.3517159503054623e-01  -4.2131806431722563e-01  -2.7830239394441686e-01  -1.1084436518900198e-01  7.6088495914586288e-02  2.7749336978995676e-01  4.8843140930362672e-01  7.0404754447477302e-01  9.1954199636874656e-01  1.1301201024803529e+00  1.3309435456118706e+00  1.5171056220144057e+00  1.6836556553965518e+00  1.8257009097311292e+00  1.9386152283646552e+00  2.0183854664361491e+00  2.0621794877420263e+00  2.0696478454549339e+00  -6.0607125871952838e-01  -5.9862022629403644e-01  -5.5700571639587526e-01  -4.8128615939012154e-01  -3.7386123255089410e-01  -2.3828844139884076e-01  -7.8800778436832836e-02  9.9989301548894571e-02  2.9328553093512905e-01  4.9622508851840508e-01  7.0393556339052354e-01  9.1155190249906226e-01  1.1142140301059344e+00  1.3070652424816376e+00  1.4852711257619664e+00  1.6440785967633627e+00  1.7789334741044183e+00  1.8856718519296298e+00  1.9608026978436486e+00  2.0019589113916472e+00  2.0090178498501623e+00  -5.5737505822018674e-01  -5.5033292981731485e-01  -5.1079684628141087e-01  -4.3870111722445387e-01  -3.3612986478248869e-01  -2.0626592238034280e-01  -5.2994047413416019e-02  1.1934437650834052e-01  3.0612822010580737e-01  5.0258011677394410e-01  7.0384600943361020e-01  9.0504350144398482e-01  1.1012943380389484e+00  1.2877572738268290e+00  1.4596773408196999e+00  1.6124661301954881e+00  1.7418246835231412e+00  1.8439166785109009e+00  1.9156040482608843e+00  1.9548221023066801e+00  1.9615868041142399e+00  -5.2231868161704720e-01  -5.1556773145288182e-01  -4.7747230009843794e-01  -4.0789858228390474e-01  -3.0873369756221447e-01  -1.8291813742973906e-01  -3.4103098838443209e-02  1.3356041753737130e-01  3.1558318223940068e-01  5.0726232460806309e-01  7.0377380848289850e-01  9.0024084564158291e-01  1.0917895659255470e+00  1.2736048570047320e+00  1.4409991426631028e+00  1.5895050000915478e+00  1.7149989961336032e+00  1.8138606322231421e+00  1.8831769981753761e+00  1.9210717565058126e+00  1.9276448594261384e+00  -5.0104531476380687e-01  -4.9448113533042881e-01  -4.5724753703611398e-01  -3.8917965589306863e-01  -2.9205607900426395e-01  -1.6867956846043178e-01  -2.2565160195613398e-02  1.4225060695273795e-01  3.2136142983412880e-01  5.1011526099334714e-01  7.0371331123275860e-01  8.9728950361074822e-01  1.0859792598401325e+00  1.2649883465202023e+00  1.4296724421832279e+00  1.5756361148890945e+00  1.6988563766807019e+00  1.7958330683060657e+00  1.8637765693090063e+00  1.9009130692846463e+00  1.9073903028805463e+00  -4.9362733874744202e-01  -4.8715318848420197e-01  -4.5023513947249760e-01  -3.8270470715565957e-01  -2.8630448846318812e-01  -1.6378872468063824e-01  -1.8623341822833202e-02  1.4519730292356131e-01  3.2329838696677610e-01  5.1104811656739280e-01  7.0365868342646243e-01  8.9626925028552729e-01  1.0840189798861439e+00  1.2621200639293562e+00  1.4259407086757465e+00  1.5711060915335513e+00  1.6936218553160991e+00  1.7900220740085691e+00  1.8575525063254059e+00  1.8944705553371088e+00  1.9009447056003499e+00  -5.0007293602763858e-01  -4.9359570243173889e-01  -4.5645920245609806e-01  -3.8851570145315800e-01  -2.9153900982779107e-01  -1.6831874803617916e-01  -2.2355075330311575e-02  1.4232902033271716e-01  3.2133810701278548e-01  5.1002786324217453e-01  7.0360405562016926e-01  8.9720210585957938e-01  1.0859559370187934e+00  1.2650667599001788e+00  1.4298825270485263e+00  1.5759969353133461e+00  1.6993734458571796e+00  1.7964970227459824e+00  1.8645649038890300e+00  1.9017985021833437e+00  1.9083626816167225e+00  -5.2032749257323041e-01  -5.1375438965290365e-01  -4.7585963132246956e-01  -4.0654326537023261e-01  -3.0768162928069298e-01  -1.8218763323863513e-01  -3.3681775810186283e-02  1.3371250984818814e-01  3.1552780092737520e-01  5.0707652121134394e-01  7.0354355837003346e-01  9.0005504224486632e-01  1.0917341846135253e+00  1.2737569493155509e+00  1.4414204656913652e+00  1.5902355042826606e+00  1.7160510644151381e+00  1.8152159491368260e+00  1.8847896669513640e+00  1.9228850983058097e+00  1.9296360484699731e+00  -5.5426943726132338e-01  -5.4750473545376299e-01  -5.0828668140796740e-01  -4.3659931165798227e-01  -3.3450731667022238e-01  -2.0514876334256987e-01  -5.2359973966775539e-02  1.1956009302609696e-01  3.0602302881398186e-01  5.0227386540894825e-01  7.0347135741933009e-01  9.0473725007899686e-01  1.1011891467471289e+00  1.2879729903445891e+00  1.4603114142663460e+00  1.6135832892332709e+00  1.7434472316354224e+00  1.8460184840773866e+00  1.9181142131343418e+00  1.9576502966702445e+00  1.9646924250731159e+00  -6.0170048299723933e-01  -5.9464154453872486e-01  -5.5348533099072528e-01  -4.7835448507670586e-01  -3.7161610725149169e-01  -2.3676122991043635e-01  -7.7953758909033249e-02  1.0025212437129809e-01  2.9310333674700534e-01  4.9576546435388014e-01  7.0338180346242418e-01  9.1109227833454398e-01  1.1140318359178163e+00  1.3073280653040460e+00  1.4861181452897709e+00  1.6456058082517757e+00  1.7811785994038352e+00  1.8886035262430596e+00  1.9643230832488074e+00  2.0059375931469670e+00  2.0133886255724596e+00  -6.6233047860199690e-01  -6.5486212088908935e-01  -6.1106809958321284e-01  -5.3129786151171887e-01  -4.1838354287818730e-01  -2.7633828854360859e-01  -1.0978825516145670e-01  7.6373821241082038e-02  2.7719726437260378e-01  4.8777537048421121e-01  7.0326982237818914e-01  9.1888595754933577e-01  1.1298239970630040e+00  1.3312288709383753e+00  1.5181617320419623e+00  1.6856197607973751e+00  1.8286354311701800e+00  1.9424889618834928e+00  2.0230721658407029e+00  2.0674999993136409e+00  2.0754995958288451e+00  -7.3575718880626684e-01  -7.2774276903762869e-01  -6.8047310083756540e-01  -5.9467356431099483e-01  -4.7388460650670172e-01  -3.2287162458011209e-01  -1.4688475320390318e-01  4.8763915250493409e-02  2.5891385168913894e-01  4.7862169399265553e-01  7.0313168695099859e-01  9.2779214639424057e-01  1.1479472734025593e+00  1.3588266706717553e+00  1.5554553583449398e+00  1.7326153367529940e+00  1.8849038101485540e+00  2.0069478791920159e+00  2.0938484570090319e+00  2.1419804136316531e+00  2.1507041074797684e+00  -8.2144115883938063e-01  -8.1270730050074247e-01  -7.6090026441430780e-01  -6.6738422564830857e-01  -5.3678361942322517e-01  -3.7492971985118939e-01  -1.8788126403967023e-01  1.8568496868289288e-02  2.3907424688879975e-01  4.6873129479287351e-01  7.0296630691968254e-01  9.3738036684550707e-01  1.1675731233827236e+00  1.3889635922243195e+00  1.5966232805246596e+00  1.7851515852708411e+00  1.9486524229936859e+00  2.0809107543986092e+00  2.1759084745228852e+00  2.2288859912126675e+00  2.2385690345613094e+00  -9.1867515651035370e-01  -9.0898329547153622e-01  -8.5121012330402701e-01  -7.4784293580778638e-01  -6.0518017177910644e-01  -4.3053267379212540e-01  -2.3094992323944161e-01  -1.2714531077527503e-02  2.1873092256639837e-01  4.5864657386423008e-01  7.0277709314669567e-01  9.4711257506333746e-01  1.1876464676391167e+00  1.4201293738644611e+00  1.6398166765152873e+00  1.8412267306657846e+00  2.0179728400090671e+00  2.1628142221798177e+00  2.2681799323102183e+00  2.3275540185741672e+00  2.3385349866088521e+00  -1.0265463397418166e+00  -1.0155334103726690e+00  -9.4975025165024540e-01  -8.3374175579011189e-01  -6.7640244805429606e-01  -4.8701840839793742e-01  -2.7373860807274680e-01  -4.3228561588773647e-02  1.9915295081883935e-01  4.4901286798363593e-01  7.0257417556948742e-01  9.5636040722392324e-01  1.2069052108245550e+00  1.4504581269558505e+00  1.6826551455019043e+00  1.8981382509695051e+00  2.0901624399851020e+00  2.2503619066097218e+00  2.3690917030727316e+00  2.4371002866444424e+00  2.4499079987463239e+00  -1.1438885719531537e+00  -1.1309230874889522e+00  -1.0540309652231463e+00  -9.2168775095344746e-01  -7.4675593369697524e-01  -5.4094701549428559e-01  -3.1339351410048727e-01  -7.0836883976382811e-02  1.8174514669488206e-01  4.4053039528182697e-01  7.0237610683721796e-01  9.6445767443233044e-01  1.2239680190857145e+00  1.4778155922915495e+00  1.7222549604441846e+00  1.9523820863076553e+00  2.1614542780518580e+00  2.3401409970097800e+00  2.4762515365682836e+00  2.5563201073833683e+00  2.5718668404278486e+00  -1.2692325112427512e+00  -1.2530004469044065e+00  -1.1600807749012405e+00  -1.0066588247334725e+00  -8.1130044642278931e-01  -5.8815992589883026e-01  -3.4676543920032671e-01  -9.3356006767493310e-02  1.6786237757594602e-01  4.3385348679361374e-01  7.0220905974111003e-01  9.7080170385460196e-01  1.2375269937408717e+00  1.5000484812627441e+00  1.7554565107689184e+00  1.9997210078485312e+00  2.2267673481886274e+00  2.4270261372012594e+00  2.5857874241481178e+00  2.6834401036282030e+00  2.7035082914440012e+00  -1.4008251979032587e+00  -1.3779753651690119e+00  -1.2611716114155802e+00  -1.0813538180592503e+00  -8.6391773532022909e-01  -6.2423801515779409e-01  -3.7095338530025862e-01  -1.0901780286336515e-01  1.5849125931231420e-01  4.2942859309049797e-01  7.0210026417031013e-01  9.7500481950149176e-01  1.2466647762446581e+00  1.5154648130389736e+00  1.7794144645449186e+00  2.0357033984422306e+00  2.2797810127419811e+00  2.5034082280646395e+00  2.6909614211944688e+00  2.8153508927932500e+00  2.8439764911953080e+00  -1.5370448585492384e+00  -1.4976184224300997e+00  -1.3456896780483998e+00  -1.1360935845032085e+00  -8.9835755334068945e-01  -6.4575778922988814e-01  -3.8433623652724180e-01  -1.1718128664684721e-01  1.5382098650232964e-01  4.2728951352420919e-01  7.0206205239092345e-01  9.7706771728785569e-01  1.2512568155388513e+00  1.5235377231229781e+00  1.7926755071556515e+00  2.0570686574573078e+00  2.3141846524501624e+00  2.5590087917833455e+00  2.7795080959202809e+00  2.9449065239205532e+00  2.9926582837789630e+00  -1.6772413389077838e+00  -1.5916347734295486e+00  -1.3959164073763100e+00  -1.1616797546374662e+00  -9.1153121901027978e-01  -6.5269459137693142e-01  -3.8803615889242643e-01  -1.1914030661479853e-01  1.5283084824197324e-01  4.2687603628847537e-01  7.0206440860616381e-01  9.7750052217184746e-01  1.2523090261035184e+00  1.5256241371132067e+00  1.7965724586971867e+00  2.0642297068262514e+00  2.3274932674829727e+00  2.5846291357133153e+00  2.8313442864906571e+00  3.0509068834548931e+00  3.1480079161093366e+00  -1.7586485976582189e+00  -1.6169744826327470e+00  -1.3994925202950050e+00  -1.1605535507173723e+00  -9.0993304322429802e-01  -6.5141828326413731e-01  -3.8713283674204102e-01  -1.1854969724679769e-01  1.5316415017123208e-01  4.2699184094398535e-01  7.0199246824677630e-01  9.7726639180677699e-01  1.2519389443352928e+00  1.5251505545384221e+00  1.7960440473612418e+00  2.0637368668392124e+00  2.3272501067194247e+00  2.5853018448279665e+00  2.8355172894042684e+00  3.0702594019673426e+00  3.2824277428917163e+00  </DataArray> 
</PointData> 
</Piece>
</UnstructuredGrid>
</VTKFile>