<?xml version="1.0"?>
<VTKFile type="UnstructuredGrid"  version="0.1"  >
<UnstructuredGrid>
<Piece  NumberOfPoints="651" NumberOfCells="1200">
<Points>
<DataArray  type="Float64"  NumberOfComponents="3"  format="ascii">0 0 0  50000 0 0  100000 0 0  150000 0 0  200000 0 0  250000 0 0  300000 0 0  350000 0 0  400000 0 0  450000 0 0  500000 0 0  550000 0 0  600000 0 0  650000 0 0  700000 0 0  750000 0 0  800000 0 0  850000 0 0  900000 0 0  950000 0 0  1000000 0 0  0 50000 0  50000 50000 0  100000 50000 0  150000 50000 0  200000 50000 0  250000 50000 0  300000 50000 0  350000 50000 0  400000 50000 0  450000 50000 0  500000 50000 0  550000 50000 0  600000 50000 0  650000 50000 0  700000 50000 0  750000 50000 0  800000 50000 0  850000 50000 0  900000 50000 0  950000 50000 0  1000000 50000 0  0 100000 0  50000 100000 0  100000 100000 0  150000 100000 0  200000 100000 0  250000 100000 0  300000 100000 0  350000 100000 0  400000 100000 0  450000 100000 0  500000 100000 0  550000 100000 0  600000 100000 0  650000 100000 0  700000 100000 0  750000 100000 0  800000 100000 0  850000 100000 0  900000 100000 0  950000 100000 0  1000000 100000 0  0 150000 0  50000 150000 0  100000 150000 0  150000 150000 0  200000 150000 0  250000 150000 0  300000 150000 0  350000 150000 0  400000 150000 0  450000 150000 0  500000 150000 0  550000 150000 0  600000 150000 0  650000 150000 0  700000 150000 0  750000 150000 0  800000 150000 0  850000 150000 0  900000 150000 0  950000 150000 0  1000000 150000 0  0 200000 0  50000 200000 0  100000 200000 0  150000 200000 0  200000 200000 0  250000 200000 0  300000 200000 0  350000 200000 0  400000 200000 0  450000 200000 0  500000 200000 0  550000 200000 0  600000 200000 0  650000 200000 0  700000 200000 0  750000 200000 0  800000 200000 0  850000 200000 0  900000 200000 0  950000 200000 0  1000000 200000 0  0 250000 0  50000 250000 0  100000 250000 0  150000 250000 0  200000 250000 0  250000 250000 0  300000 250000 0  350000 250000 0  400000 250000 0  450000 250000 0  500000 250000 0  550000 250000 0  600000 250000 0  650000 250000 0  700000 250000 0  750000 250000 0  800000 250000 0  850000 250000 0  900000 250000 0  950000 250000 0  1000000 250000 0  0 300000 0  50000 300000 0  100000 300000 0  150000 300000 0  200000 300000 0  250000 300000 0  300000 300000 0  350000 300000 0  400000 300000 0  450000 300000 0  500000 300000 0  550000 300000 0  600000 300000 0  650000 300000 0  700000 300000 0  750000 300000 0  800000 300000 0  850000 300000 0  900000 300000 0  950000 300000 0  1000000 300000 0  0 350000 0  50000 350000 0  100000 350000 0  150000 350000 0  200000 350000 0  250000 350000 0  300000 350000 0  350000 350000 0  400000 350000 0  450000 350000 0  500000 350000 0  550000 350000 0  600000 350000 0  650000 350000 0  700000 350000 0  750000 350000 0  800000 350000 0  850000 350000 0  900000 350000 0  950000 350000 0  1000000 350000 0  0 400000 0  50000 400000 0  100000 400000 0  150000 400000 0  200000 400000 0  250000 400000 0  300000 400000 0  350000 400000 0  400000 400000 0  450000 400000 0  500000 400000 0  550000 400000 0  600000 400000 0  650000 400000 0  700000 400000 0  750000 400000 0  800000 400000 0  850000 400000 0  900000 400000 0  950000 400000 0  1000000 400000 0  0 450000 0  50000 450000 0  100000 450000 0  150000 450000 0  200000 450000 0  250000 450000 0  300000 450000 0  350000 450000 0  400000 450000 0  450000 450000 0  500000 450000 0  550000 450000 0  600000 450000 0  650000 450000 0  700000 450000 0  750000 450000 0  800000 450000 0  850000 450000 0  900000 450000 0  950000 450000 0  1000000 450000 0  0 500000 0  50000 500000 0  100000 500000 0  150000 500000 0  200000 500000 0  250000 500000 0  300000 500000 0  350000 500000 0  400000 500000 0  450000 500000 0  500000 500000 0  550000 500000 0  600000 500000 0  650000 500000 0  700000 500000 0  750000 500000 0  800000 500000 0  850000 500000 0  900000 500000 0  950000 500000 0  1000000 500000 0  0 550000 0  50000 550000 0  100000 550000 0  150000 550000 0  200000 550000 0  250000 550000 0  300000 550000 0  350000 550000 0  400000 550000 0  450000 550000 0  500000 550000 0  550000 550000 0  600000 550000 0  650000 550000 0  700000 550000 0  750000 550000 0  800000 550000 0  850000 550000 0  900000 550000 0  950000 550000 0  1000000 550000 0  0 600000 0  50000 600000 0  100000 600000 0  150000 600000 0  200000 600000 0  250000 600000 0  300000 600000 0  350000 600000 0  400000 600000 0  450000 600000 0  500000 600000 0  550000 600000 0  600000 600000 0  650000 600000 0  700000 600000 0  750000 600000 0  800000 600000 0  850000 600000 0  900000 600000 0  950000 600000 0  1000000 600000 0  0 650000 0  50000 650000 0  100000 650000 0  150000 650000 0  200000 650000 0  250000 650000 0  300000 650000 0  350000 650000 0  400000 650000 0  450000 650000 0  500000 650000 0  550000 650000 0  600000 650000 0  650000 650000 0  700000 650000 0  750000 650000 0  800000 650000 0  850000 650000 0  900000 650000 0  950000 650000 0  1000000 650000 0  0 700000 0  50000 700000 0  100000 700000 0  150000 700000 0  200000 700000 0  250000 700000 0  300000 700000 0  350000 700000 0  400000 700000 0  450000 700000 0  500000 700000 0  550000 700000 0  600000 700000 0  650000 700000 0  700000 700000 0  750000 700000 0  800000 700000 0  850000 700000 0  900000 700000 0  950000 700000 0  1000000 700000 0  0 750000 0  50000 750000 0  100000 750000 0  150000 750000 0  200000 750000 0  250000 750000 0  300000 750000 0  350000 750000 0  400000 750000 0  450000 750000 0  500000 750000 0  550000 750000 0  600000 750000 0  650000 750000 0  700000 750000 0  750000 750000 0  800000 750000 0  850000 750000 0  900000 750000 0  950000 750000 0  1000000 750000 0  0 800000 0  50000 800000 0  100000 800000 0  150000 800000 0  200000 800000 0  250000 800000 0  300000 800000 0  350000 800000 0  400000 800000 0  450000 800000 0  500000 800000 0  550000 800000 0  600000 800000 0  650000 800000 0  700000 800000 0  750000 800000 0  800000 800000 0  850000 800000 0  900000 800000 0  950000 800000 0  1000000 800000 0  0 850000 0  50000 850000 0  100000 850000 0  150000 850000 0  200000 850000 0  250000 850000 0  300000 850000 0  350000 850000 0  400000 850000 0  450000 850000 0  500000 850000 0  550000 850000 0  600000 850000 0  650000 850000 0  700000 850000 0  750000 850000 0  800000 850000 0  850000 850000 0  900000 850000 0  950000 850000 0  1000000 850000 0  0 900000 0  50000 900000 0  100000 900000 0  150000 900000 0  200000 900000 0  250000 900000 0  300000 900000 0  350000 900000 0  400000 900000 0  450000 900000 0  500000 900000 0  550000 900000 0  600000 900000 0  650000 900000 0  700000 900000 0  750000 900000 0  800000 900000 0  850000 900000 0  900000 900000 0  950000 900000 0  1000000 900000 0  0 950000 0  50000 950000 0  100000 950000 0  150000 950000 0  200000 950000 0  250000 950000 0  300000 950000 0  350000 950000 0  400000 950000 0  450000 950000 0  500000 950000 0  550000 950000 0  600000 950000 0  650000 950000 0  700000 950000 0  750000 950000 0  800000 950000 0  850000 950000 0  900000 950000 0  950000 950000 0  1000000 950000 0  0 1000000 0  50000 1000000 0  100000 1000000 0  150000 1000000 0  200000 1000000 0  250000 1000000 0  300000 1000000 0  350000 1000000 0  400000 1000000 0  450000 1000000 0  500000 1000000 0  550000 1000000 0  600000 1000000 0  650000 1000000 0  700000 1000000 0  750000 1000000 0  800000 1000000 0  850000 1000000 0  900000 1000000 0  950000 1000000 0  1000000 1000000 0  0 1050000 0  50000 1050000 0  100000 1050000 0  150000 1050000 0  200000 1050000 0  250000 1050000 0  300000 1050000 0  350000 1050000 0  400000 1050000 0  450000 1050000 0  500000 1050000 0  550000 1050000 0  600000 1050000 0  650000 1050000 0  700000 1050000 0  750000 1050000 0  800000 1050000 0  850000 1050000 0  900000 1050000 0  950000 1050000 0  1000000 1050000 0  0 1100000 0  50000 1100000 0  100000 1100000 0  150000 1100000 0  200000 1100000 0  250000 1100000 0  300000 1100000 0  350000 1100000 0  400000 1100000 0  450000 1100000 0  500000 1100000 0  550000 1100000 0  600000 1100000 0  650000 1100000 0  700000 1100000 0  750000 1100000 0  800000 1100000 0  850000 1100000 0  900000 1100000 0  950000 1100000 0  1000000 1100000 0  0 1150000 0  50000 1150000 0  100000 1150000 0  150000 1150000 0  200000 1150000 0  250000 1150000 0  300000 1150000 0  350000 1150000 0  400000 1150000 0  450000 1150000 0  500000 1150000 0  550000 1150000 0  600000 1150000 0  650000 1150000 0  700000 1150000 0  750000 1150000 0  800000 1150000 0  850000 1150000 0  900000 1150000 0  950000 1150000 0  1000000 1150000 0  0 1200000 0  50000 1200000 0  100000 1200000 0  150000 1200000 0  200000 1200000 0  250000 1200000 0  300000 1200000 0  350000 1200000 0  400000 1200000 0  450000 1200000 0  500000 1200000 0  550000 1200000 0  600000 1200000 0  650000 1200000 0  700000 1200000 0  750000 1200000 0  800000 1200000 0  850000 1200000 0  900000 1200000 0  950000 1200000 0  1000000 1200000 0  0 1250000 0  50000 1250000 0  100000 1250000 0  150000 1250000 0  200000 1250000 0  250000 1250000 0  300000 1250000 0  350000 1250000 0  400000 1250000 0  450000 1250000 0  500000 1250000 0  550000 1250000 0  600000 1250000 0  650000 1250000 0  700000 1250000 0  750000 1250000 0  800000 1250000 0  850000 1250000 0  900000 1250000 0  950000 1250000 0  1000000 1250000 0  0 1300000 0  50000 1300000 0  100000 1300000 0  150000 1300000 0  200000 1300000 0  250000 1300000 0  300000 1300000 0  350000 1300000 0  400000 1300000 0  450000 1300000 0  500000 1300000 0  550000 1300000 0  600000 1300000 0  650000 1300000 0  700000 1300000 0  750000 1300000 0  800000 1300000 0  850000 1300000 0  900000 1300000 0  950000 1300000 0  1000000 1300000 0  0 1350000 0  50000 1350000 0  100000 1350000 0  150000 1350000 0  200000 1350000 0  250000 1350000 0  300000 1350000 0  350000 1350000 0  400000 1350000 0  450000 1350000 0  500000 1350000 0  550000 1350000 0  600000 1350000 0  650000 1350000 0  700000 135
[...]
<PointData  Scalars="f_25"> 
<DataArray  type="Float64"  Name="f_25"  format="ascii">-5.1171040976700324e+00  -4.6428160329085379e+00  -4.1168663575635973e+00  -3.5557854496963626e+00  -2.9768992326034631e+00  -2.3856011066110940e+00  -1.7848062519898098e+00  -1.1767378247252944e+00  -5.6339662718966965e-01  5.3276539348369761e-02  6.7133661215078078e-01  1.2888041815179048e+00  1.9036416113069969e+00  2.5137142208694567e+00  3.1167089751994315e+00  3.7099617146698289e+00  4.2900934019489627e+00  4.8522032426253361e+00  5.3875179076786095e+00  5.8736364247468638e+00  6.1890956080913266e+00  -4.8165941058104442e+00  -4.6004443530733399e+00  -4.1080562848673834e+00  -3.5545312651094627e+00  -2.9775167432213725e+00  -2.3866648494527012e+00  -1.7858743208076402e+00  -1.1776293806800497e+00  -5.6401618166165435e-01  5.2992251466620149e-02  6.7143917225731353e-01  1.2893452811011417e+00  1.9046844806893413e+00  2.5153485978199885e+00  3.1190675314941521e+00  3.7132041394083233e+00  4.2941620265405103e+00  4.8554379639446141e+00  5.3806596130909172e+00  5.8187084837031762e+00  6.0081947626443970e+00  -4.4695420123224068e+00  -4.3638679459472813e+00  -3.9931327528535991e+00  -3.4981728475430467e+00  -2.9484849164547176e+00  -2.3711673118200385e+00  -1.7774857699683511e+00  -1.1731234564799053e+00  -5.6167587087782178e-01  5.4080820581768170e-02  6.7168939572471953e-01  1.2887847690671774e+00  1.9029527170610283e+00  2.5115724661166694e+00  3.1115300714277190e+00  3.6985738072536947e+00  4.2657409806133071e+00  4.7994025619072724e+00  5.2695930461499110e+00  5.6096654223703535e+00  5.6960098732099205e+00  -4.1373948430395968e+00  -4.0744221234618676e+00  -3.7957745354089614e+00  -3.3747189472764849e+00  -2.8724139848478258e+00  -2.3241141435855392e+00  -1.7483721204383620e+00  -1.1554166572912867e+00  -5.5155905949121420e-01  5.8730858461402767e-02  6.7182400557452449e-01  1.2843989626157224e+00  1.8930787920947849e+00  2.4940524446473900e+00  3.0824923130956265e+00  3.6514700296595559e+00  4.1898255602931247e+00  4.6780830130173703e+00  5.0815579517880813e+00  5.3429504336677045e+00  5.3926260043386440e+00  -3.8235730514028119e+00  -3.7796235898203907e+00  -3.5609693334467192e+00  -3.2045353704812394e+00  -2.7545869714978508e+00  -2.2443352585284297e+00  -1.6953590217148355e+00  -1.1213352147752567e+00  -5.3132653578382849e-01  6.8128225416438523e-02  6.7177933756588581e-01  1.2748976150678815e+00  1.8727006113559250e+00  2.4597721020202306e+00  3.0292799449663907e+00  3.5717537677924533e+00  4.0731354586745745e+00  4.5119400653575878e+00  4.8562329540105891e+00  5.0641289590361582e+00  5.0992911441741740e+00  -3.5294191537573640e+00  -3.4954761461737367e+00  -3.3162401986780745e+00  -3.0106331465233165e+00  -2.6090465068234230e+00  -2.1390122258182704e+00  -1.6215860668302939e+00  -1.0719655375697827e+00  -5.0119138144579767e-01  8.2311055065815042e-02  6.7159041913691708e-01  1.2603355113825192e+00  1.8421943900468596e+00  2.4100966617021058e+00  2.9554384775800613e+00  3.4670073942632578e+00  3.9296074458664982e+00  4.3226388360119570e+00  4.6196706427228351e+00  4.7916840800958926e+00  4.8197156120329625e+00  -3.2568354778570909e+00  -3.2289334301617076e+00  -3.0767056736033074e+00  -2.8100821686046160e+00  -2.4499425780983604e+00  -2.0180769492227206e+00  -1.5333736426091977e+00  -1.0110463223130377e+00  -4.6316805907890019e-01  1.0043587194388250e-01  6.7132599116500902e-01  1.2417036818144946e+00  1.8037467212227323e+00  2.3489535870587468e+00  2.8674308437795082e+00  3.3471024948888624e+00  3.7729374684244443e+00  4.1265468015339692e+00  4.3869645367959036e+00  4.5341198624730277e+00  4.5578911215883950e+00  -3.0078414969035250e+00  -2.9839598079231666e+00  -2.8510520600292097e+00  -2.6143873261563000e+00  -2.2886728191123300e+00  -1.8910200059193532e+00  -1.4377847387453739e+00  -9.4338044983833436e-01  -4.2016676340129522e-01  1.2116668143823503e-01  6.7105103229528573e-01  1.2204664794833100e+00  1.7603852733062322e+00  2.2812243101755678e+00  2.7723041423765205e+00  3.2213545189335604e+00  3.6142015225957804e+00  3.9349295593707287e+00  4.1670232200764392e+00  4.2962636923846524e+00  4.3171492996650160e+00  -2.7842793275182878e+00  -2.7632514747794614e+00  -2.6446465756091913e+00  -2.4312126056723748e+00  -2.1336956392185540e+00  -1.7657041726664282e+00  -1.3412835853195821e+00  -8.7374647515422632e-01  -3.7527616737566805e-01  1.4301704657011513e-01  6.7081149867346135e-01  1.1981950471284064e+00  1.7152587236905117e+00  2.2116981375175917e+00  2.6764573977696049e+00  3.0974801838872499e+00  3.4616904775851274e+00  3.7554020320514825e+00  3.9654329515239231e+00  4.0813365423788621e+00  4.1001283640975830e+00  -2.5877095749475263e+00  -2.5687914031133965e+00  -2.4610163321913343e+00  -2.2657176435191810e+00  -1.9910842712811647e+00  -1.6482006584938933e+00  -1.2492148149920665e+00  -8.0633095479921735e-01  -3.3132583422266776e-01  1.6457999867664577e-01  6.7063261428955190e-01  1.1763390723185256e+00  1.6712158374069663e+00  2.1445425149058748e+00  2.5851711389168490e+00  2.9814570622244871e+00  3.3214045397948597e+00  3.5931469873676667e+00  3.7859037801650750e+00  3.8916701671709357e+00  3.9088911126831669e+00  -2.4193933466617694e+00  -2.4020694850434170e+00  -2.3025713339341261e+00  -2.1214177945148815e+00  -1.8651306297080148e+00  -1.5430106956672831e+00  -1.1657344325174024e+00  -7.4452746490452781e-01  -2.9068544261957990e-01  1.8464792108083664e-01  6.7052303693689197e-01  1.1561176618099216e+00  1.6306212979487780e+00  2.0831228341102399e+00  2.5025524253613201e+00  2.8777342500318137e+00  3.1976143378582171e+00  3.4517302990433736e+00  3.6309961248224156e+00  3.7290024899112399e+00  3.7450345388828796e+00  -2.2803097960036283e+00  -2.2641968008468956e+00  -2.1709853357763120e+00  -2.0007205040514022e+00  -1.7588314209284854e+00  -1.4533774112120337e+00  -1.0939381782971398e+00  -6.9094086111836317e-01  -2.5521853452492665e-01  2.0225273685663775e-01  6.7048021580510897e-01  1.1384903576879484e+00  1.5953210592320541e+00  2.0300156903984004e+00  2.4316634767391521e+00  2.7895305165654416e+00  3.0933232113504916e+00  3.3336193776776315e+00  3.5025091588063404e+00  3.5946307515581903e+00  3.6097759415473907e+00  -2.1711875208225200e+00  -2.1559809869271453e+00  -2.0674156847329108e+00  -1.9052642703160698e+00  -1.6742460220743463e+00  -1.3815758150531592e+00  -1.0360488708514792e+00  -6.4748267523118130e-01  -2.2631774692570930e-01  2.1665963403633914e-01  6.7049490164722159e-01  1.1241720499191061e+00  1.5666845977977499e+00  1.9871074356247278e+00  2.3747057510153327e+00  2.7191141094546700e+00  3.0106121059375308e+00  3.2405146802012341e+00  3.4017071319275454e+00  3.4895090698155187e+00  3.5040221586149314e+00  -2.0925391851892332e+00  -2.0779828373302349e+00  -1.9926407930969989e+00  -1.8361377222094122e+00  -1.6127501898120882e+00  -1.3291470680648596e+00  -9.9359749177040602e-01  -6.1549072594008247e-01  -2.0497147848344949e-01  2.2733992063398079e-01  6.7055429414446410e-01  1.1136658271386708e+00  1.5456754157773149e+00  1.9557143989154937e+00  2.3331975788150920e+00  2.6680302531892299e+00  2.9508861645258055e+00  3.1735658620824263e+00  3.3294619545846245e+00  3.4143187707338933e+00  3.4284263677465225e+00  -2.0446931066722924e+00  -2.0305596708680551e+00  -1.9471498442789661e+00  -1.7940223733037177e+00  -1.5752103631309831e+00  -1.2970725296382428e+00  -9.6757132126563772e-01  -5.9583848130984729e-01  -1.9183261159326453e-01  2.3393940353005951e-01  6.7064396060641596e-01  1.1072979144881749e+00  1.5329215665805425e+00  1.9366917862056869e+00  2.3081194315575759e+00  2.6372708183137510e+00  2.9150451507871344e+00  3.1335137075589321e+00  3.2863469931723865e+00  3.3695209281682597e+00  3.3834337021216725e+00  -2.0278176954781579e+00  -2.0138963164595536e+00  -1.9312001828331655e+00  -1.7792826977809595e+00  -1.5620968257712176e+00  -1.2858921666820762e+00  -9.5852050107506215e-01  -5.8901852787713227e-01  -1.8727402666902015e-01  2.3625150926686159e-01  6.7074885058898936e-01  1.1052461919111081e+00  1.5287717278469883e+00  1.9305162290550966e+00  2.3000182022530229e+00  2.6273898678600385e+00  2.9035945269491741e+00  3.1207803989589240e+00  3.2726978840111274e+00  3.3553940176375208e+00  3.3693153966561318e+00  -2.0419360009437049e+00  -2.0280232269902965e+00  -1.9448492919944271e+00  -1.7920160063809725e+00  -1.5735474496091757e+00  -1.2957731171357962e+00  -9.6662173037961785e-01  -5.9519408502772631e-01  -1.9142386540258222e-01  2.3419978668979541e-01  6.7085374057156721e-01  1.1075582976479199e+00  1.5333303127712417e+00  1.9373361824878144e+00  2.3090690224435999e+00  2.6385702308162133e+00  2.9167080643089540e+00  3.1355200744816893e+00  3.2886475454569566e+00  3.3720573720460538e+00  3.3861908078502916e+00  -2.0869286665685536e+00  -2.0728210695559297e+00  -1.9879642534066693e+00  -1.8320681609044625e+00  -1.6093884633478521e+00  -1.3265325520112812e+00  -9.9169987763714007e-01  -6.1421669773753562e-01  -2.0417771459934789e-01  2.2783187403931038e-01  6.7094340703353084e-01  1.1141577805440139e+00  1.5464691796614369e+00  1.9569884271180629e+00  2.3350951929483927e+00  2.6706447692428470e+00  2.9542478909900809e+00  3.1776354233873989e+00  3.3341384942750163e+00  3.4194805385082723e+00  3.4340368863672635e+00  -2.1625244574369407e+00  -2.1480113686375235e+00  -2.0602094307495591e+00  -1.8990169790232463e+00  -1.6691144047595572e+00  -1.3776164082767131e+00  -1.0332080498373648e+00  -6.4560973444675585e-01  -2.2518689661976218e-01  2.1732565125889103e-01  6.7100279953079467e-01  1.1248380671416811e+00  1.5678154481037205e+00  1.9889803764091800e+00  2.3775465720294822e+00  2.7230735162311626e+00  3.0157437232523678e+00  3.2467619714940890e+00  3.4089133859109295e+00  3.4974786881051623e+00  3.5126852220005373e+00  -2.2682782403693902e+00  -2.2531330503801921e+00  -2.1610114576283430e+00  -1.9921216764996421e+00  -1.7518255101725027e+00  -1.4480328153874591e+00  -1.0901657755611653e+00  -6.8851798922040575e-01  -2.5382335805404466e-01  2.0300734349006988e-01  6.7101748537292549e-01  1.1392449643214011e+00  1.5967162357029616e+00  2.0324385622963801e+00  2.4354358794751585e+00  2.7948751123900455e+00  3.1003291221065159e+00  3.3422182052294267e+00  3.5124830369543183e+00  3.6056945020248969e+00  3.6218074971816332e+00  -2.4035368377048498e+00  -2.3875047887332124e+00  -2.2894984236443916e+00  -2.1102325978653558e+00  -1.8561166366801942e+00  -1.5362365488537923e+00  -1.1610547241832945e+00  -7.4162513293221033e-01  -2.8912359677073246e-01  1.8538003936813011e-01  6.7097466424117214e-01  1.1568497800972306e+00  1.6321831437976486e+00  2.0860251660825937e+00  2.5072321336954682e+00  2.8845083968453431e+00  3.2066283308860601e+00  3.4629154956929082e+00  3.6440690351121501e+00  3.7435671862214281e+00  3.7608910478397779e+00  -2.5673934115050949e+00  -2.5501724659928797e+00  -2.4444060789870155e+00  -2.2516492861896151e+00  -1.9799068386168057e+00  -1.6399593610464229e+00  -1.2436734377387864e+00  -8.0304481372780967e-01  -3.2971813622888241e-01  1.6515862885957197e-01  6.7086508688855417e-01  1.1769177025014661e+00  1.6728235354007779e+00  2.1478286559773330e+00  2.5907125161701798e+00  2.9896983596719950e+00  3.3325819724592436e+00  3.6072153446972317e+00  3.8025140333693739e+00  3.9102891042914201e+00  3.9292072761255348e+00  -2.7586306629194937e+00  -2.7398388412007812e+00  -2.6239352503458302e+00  -2.4139043308733932e+00  -2.1201927764070398e+00  -1.7559824827091506e+00  -1.3349596965915032e+00  -8.7020043633947219e-01  -3.7376102251237830e-01  1.4330265404973444e-01  6.7068620250469091e-01  1.1984806546080455e+00  1.7167738685538325e+00  2.2152441763323885e+00  2.6827812864977365e+00  3.1072018738445584e+00  3.4751933403966593e+00  3.7727103068504562e+00  3.9861442767872468e+00  4.1047491759575054e+00  4.1257770286963327e+00  -2.9756515984868992e+00  -2.9547659912065298e+00  -2.8255255188983166e+00  -2.5934318581926137e+00  -2.2727038214176538e+00  -1.8798568177554196e+00  -1.4308064411983710e+00  -9.3972660899740479e-01  -4.1888757212805849e-01  1.2103122169487278e-01  6.7044666888290738e-01  1.2203310197399648e+00  1.7616644645794970e+00  2.2848781510165255e+00  2.7792824399235512e+00  3.2325177070975126e+00  3.6301705202904695e+00  3.9558850273344048e+00  4.1925497612072915e+00  4.3254575091012422e+00  4.3493391980815987e+00  -3.2163934204102569e+00  -3.1926221612948904e+00  -3.0454668356177752e+00  -2.7850491003558333e+00  -2.4314397672462853e+00  -2.0056047937106860e+00  -1.5259331426013096e+00  -1.0074558858805320e+00  -4.6224902004450485e-01  9.9794019363737135e-02  6.7017171001322928e-01  1.2410618292343594e+00  1.8046657602571405e+00  2.3525440234912560e+00  2.8748713437874018e+00  3.3595746504009023e+00  3.7914402792765332e+00  4.1515798697827693e+00  4.4182033747814353e+00  4.5704311313398200e+00  4.5983331790352047e+00  -3.4782179108547862e+00  -3.4501863789177278e+00  -3.2781729415446597e+00  -2.9811411348337731e+00  -2.5881097446883015e+00  -2.1255096930850534e+00  -1.6139407764018268e+00  -1.0685989605238426e+00  -5.0069668886858953e-01  8.1162189795751807e-02  6.6990728204136174e-01  1.2591866461124674e+00  1.8426890826240767e+00  2.4134632387480437e+00  2.9630837680085382e+00  3.4805099269965041e+00  3.9505442080016411e+00  4.3521308477015053e+00  4.6577378998562367e+00  4.8369738473519011e+00  4.8709168549355155e+00  -3.7577934429959612e+00  -3.7226312578579481e+00  -3.5147352528323661e+00  -3.1704423641793653e+00  -2.7316377574963462e+00  -2.2302560666142202e+00  -1.6877822437881240e+00  -1.1182744008419376e+00  -5.3120291017762622e-01  6.6600086110417789e-02  6.6971836361242221e-01  1.2733694757618721e+00  1.8728242369621311e+00  2.4628329159535469e+00  3.0368567228931198e+00  3.5858329597067131e+00  4.0960846726761018e+00  4.5460330716594672e+00  4.9024670346249319e+00  5.1211212909985946e+00  5.1650707525810100e+00  -4.0511283031603993e+00  -4.0014527324894571e+00  -3.7400602506098330e+00  -3.3365853118391211e+00  -2.8483278591148742e+00  -2.3099723284812899e+00  -1.7409946119173301e+00  -1.1525547434690790e+00  -5.5158109091646601e-01  5.7098738562597381e-02  6.6967369560380163e-01  1.2827668427169270e+00  1.8930567606695330e+00  2.4969143584695965e+00  3.0898698216166771e+00  3.6656118447638484e+00  4.2139116860261190e+00  4.7162166484547479e+00  5.1372722365872043e+00  5.4159198246400964e+00  5.4788925442178247e+00  -4.3545121720316606e+00  -4.2681677211920777e+00  -3.9280953449716489e+00  -3.4579048607290024e+00  -2.9242432794350521e+00  -2.3570761060754220e+00  -1.7700323702494190e+00  -1.1700747649383458e+00  -5.6145501588270730e-01  5.2712932111150725e-02  6.6980830545361802e-01  1.2874168805965696e+00  1.9031735720561542e+00  2.5146211576582234e+00  3.1189834711466751e+00  3.7126650129983516e+00  4.2899826176330178e+00  4.8396705487213261e+00  5.3346304540318581e+00  5.7053656471255234e+00  5.8110397135006755e+00  -4.6666970614661416e+00  -4.4772107825249199e+00  -4.0391619119126867e+00  -3.5139402627663667e+00  -2.9526643253622540e+00  -2.3717064382300470e+00  -1.7775698303158474e+00  -1.1738508966416690e+00  -5.6318677951101304e-01  5.2152420077190891e-02  6.7005852892102336e-01  1.2885054497117203e+00  1.9055138828399916e+00  2.5191270818583811e+00  3.1273720219859662e+00  3.7281625506310005e+00  4.3190144443996683e+00  4.8960289662877434e+00  5.4495539860456628e+00  5.9419420542516059e+00  6.1580918069887147e+00  -4.8475979069130686e+00  -4.5321387235686013e+00  -4.0460202065003665e+00  -3.5107055414470834e+00  -2.9485957007706971e+00  -2.3684640134915518e+00  -1.7752112740211272e+00  -1.1722165196911403e+00  -5.6214391012866527e-01  5.2693519660430621e-02  6.7016108902756089e-01  1.2882211618299662e+00  1.9048943283680095e+00  2.5182355259036258e+00  3.1263039531681338e+00  3.7270988077893943e+00  4.3183969337817603e+00  4.8972831508746539e+00  5.4583640587418705e+00  5.9843137340868102e+00  6.4586017988483047e+00  </DataArray> 
</PointData> 
</Piece>
</UnstructuredGrid>
</VTKFile>