<?xml version="1.0"?>
<VTKFile type="UnstructuredGrid"  version="0.1"  >
<UnstructuredGrid>
<Piece  NumberOfPoints="651" NumberOfCells="1200">
<Points>
<DataArray  type="Float64"  NumberOfComponents="3"  format="ascii">0 0 0  50000 0 0  100000 0 0  150000 0 0  200000 0 0  250000 0 0  300000 0 0  350000 0 0  400000 0 0  450000 0 0  500000 0 0  550000 0 0  600000 0 0  650000 0 0  700000 0 0  750000 0 0  800000 0 0  850000 0 0  900000 0 0  950000 0 0  1000000 0 0  0 50000 0  50000 50000 0  100000 50000 0  150000 50000 0  200000 50000 0  250000 50000 0  300000 50000 0  350000 50000 0  400000 50000 0  450000 50000 0  500000 50000 0  550000 50000 0  600000 50000 0  650000 50000 0  700000 50000 0  750000 50000 0  800000 50000 0  850000 50000 0  900000 50000 0  950000 50000 0  1000000 50000 0  0 100000 0  50000 100000 0  100000 100000 0  150000 100000 0  200000 100000 0  250000 100000 0  300000 100000 0  350000 100000 0  400000 100000 0  450000 100000 0  500000 100000 0  550000 100000 0  600000 100000 0  650000 100000 0  700000 100000 0  750000 100000 0  800000 100000 0  850000 100000 0  900000 100000 0  950000 100000 0  1000000 100000 0  0 150000 0  50000 150000 0  100000 150000 0  150000 150000 0  200000 150000 0  250000 150000 0  300000 150000 0  350000 150000 0  400000 150000 0  450000 150000 0  500000 150000 0  550000 150000 0  600000 150000 0  650000 150000 0  700000 150000 0  750000 150000 0  800000 150000 0  850000 150000 0  900000 150000 0  950000 150000 0  1000000 150000 0  0 200000 0  50000 200000 0  100000 200000 0  150000 200000 0  200000 200000 0  250000 200000 0  300000 200000 0  350000 200000 0  400000 200000 0  450000 200000 0  500000 200000 0  550000 200000 0  600000 200000 0  650000 200000 0  700000 200000 0  750000 200000 0  800000 200000 0  850000 200000 0  900000 200000 0  950000 200000 0  1000000 200000 0  0 250000 0  50000 250000 0  100000 250000 0  150000 250000 0  200000 250000 0  250000 250000 0  300000 250000 0  350000 250000 0  400000 250000 0  450000 250000 0  500000 250000 0  550000 250000 0  600000 250000 0  650000 250000 0  700000 250000 0  750000 250000 0  800000 250000 0  850000 250000 0  900000 250000 0  950000 250000 0  1000000 250000 0  0 300000 0  50000 300000 0  100000 300000 0  150000 300000 0  200000 300000 0  250000 300000 0  300000 300000 0  350000 300000 0  400000 300000 0  450000 300000 0  500000 300000 0  550000 300000 0  600000 300000 0  650000 300000 0  700000 300000 0  750000 300000 0  800000 300000 0  850000 300000 0  900000 300000 0  950000 300000 0  1000000 300000 0  0 350000 0  50000 350000 0  100000 350000 0  150000 350000 0  200000 350000 0  250000 350000 0  300000 350000 0  350000 350000 0  400000 350000 0  450000 350000 0  500000 350000 0  550000 350000 0  600000 350000 0  650000 350000 0  700000 350000 0  750000 350000 0  800000 350000 0  850000 350000 0  900000 350000 0  950000 350000 0  1000000 350000 0  0 400000 0  50000 400000 0  100000 400000 0  150000 400000 0  200000 400000 0  250000 400000 0  300000 400000 0  350000 400000 0  400000 400000 0  450000 400000 0  500000 400000 0  550000 400000 0  600000 400000 0  650000 400000 0  700000 400000 0  750000 400000 0  800000 400000 0  850000 400000 0  900000 400000 0  950000 400000 0  1000000 400000 0  0 450000 0  50000 450000 0  100000 450000 0  150000 450000 0  200000 450000 0  250000 450000 0  300000 450000 0  350000 450000 0  400000 450000 0  450000 450000 0  500000 450000 0  550000 450000 0  600000 450000 0  650000 450000 0  700000 450000 0  750000 450000 0  800000 450000 0  850000 450000 0  900000 450000 0  950000 450000 0  1000000 450000 0  0 500000 0  50000 500000 0  100000 500000 0  150000 500000 0  200000 500000 0  250000 500000 0  300000 500000 0  350000 500000 0  400000 500000 0  450000 500000 0  500000 500000 0  550000 500000 0  600000 500000 0  650000 500000 0  700000 500000 0  750000 500000 0  800000 500000 0  850000 500000 0  900000 500000 0  950000 500000 0  1000000 500000 0  0 550000 0  50000 550000 0  100000 550000 0  150000 550000 0  200000 550000 0  250000 550000 0  300000 550000 0  350000 550000 0  400000 550000 0  450000 550000 0  500000 550000 0  550000 550000 0  600000 550000 0  650000 550000 0  700000 550000 0  750000 550000 0  800000 550000 0  850000 550000 0  900000 550000 0  950000 550000 0  1000000 550000 0  0 600000 0  50000 600000 0  100000 600000 0  150000 600000 0  200000 600000 0  250000 600000 0  300000 600000 0  350000 600000 0  400000 600000 0  450000 600000 0  500000 600000 0  550000 600000 0  600000 600000 0  650000 600000 0  700000 600000 0  750000 600000 0  800000 600000 0  850000 600000 0  900000 600000 0  950000 600000 0  1000000 600000 0  0 650000 0  50000 650000 0  100000 650000 0  150000 650000 0  200000 650000 0  250000 650000 0  300000 650000 0  350000 650000 0  400000 650000 0  450000 650000 0  500000 650000 0  550000 650000 0  600000 650000 0  650000 650000 0  700000 650000 0  750000 650000 0  800000 650000 0  850000 650000 0  900000 650000 0  950000 650000 0  1000000 650000 0  0 700000 0  50000 700000 0  100000 700000 0  150000 700000 0  200000 700000 0  250000 700000 0  300000 700000 0  350000 700000 0  400000 700000 0  450000 700000 0  500000 700000 0  550000 700000 0  600000 700000 0  650000 700000 0  700000 700000 0  750000 700000 0  800000 700000 0  850000 700000 0  900000 700000 0  950000 700000 0  1000000 700000 0  0 750000 0  50000 750000 0  100000 750000 0  150000 750000 0  200000 750000 0  250000 750000 0  300000 750000 0  350000 750000 0  400000 750000 0  450000 750000 0  500000 750000 0  550000 750000 0  600000 750000 0  650000 750000 0  700000 750000 0  750000 750000 0  800000 750000 0  850000 750000 0  900000 750000 0  950000 750000 0  1000000 750000 0  0 800000 0  50000 800000 0  100000 800000 0  150000 800000 0  200000 800000 0  250000 800000 0  300000 800000 0  350000 800000 0  400000 800000 0  450000 800000 0  500000 800000 0  550000 800000 0  600000 800000 0  650000 800000 0  700000 800000 0  750000 800000 0  800000 800000 0  850000 800000 0  900000 800000 0  950000 800000 0  1000000 800000 0  0 850000 0  50000 850000 0  100000 850000 0  150000 850000 0  200000 850000 0  250000 850000 0  300000 850000 0  350000 850000 0  400000 850000 0  450000 850000 0  500000 850000 0  550000 850000 0  600000 850000 0  650000 850000 0  700000 850000 0  750000 850000 0  800000 850000 0  850000 850000 0  900000 850000 0  950000 850000 0  1000000 850000 0  0 900000 0  50000 900000 0  100000 900000 0  150000 900000 0  200000 900000 0  250000 900000 0  300000 900000 0  350000 900000 0  400000 900000 0  450000 900000 0  500000 900000 0  550000 900000 0  600000 900000 0  650000 900000 0  700000 900000 0  750000 900000 0  800000 900000 0  850000 900000 0  900000 900000 0  950000 900000 0  1000000 900000 0  0 950000 0  50000 950000 0  100000 950000 0  150000 950000 0  200000 950000 0  250000 950000 0  300000 950000 0  350000 950000 0  400000 950000 0  450000 950000 0  500000 950000 0  550000 950000 0  600000 950000 0  650000 950000 0  700000 950000 0  750000 950000 0  800000 950000 0  850000 950000 0  900000 950000 0  950000 950000 0  1000000 950000 0  0 1000000 0  50000 1000000 0  100000 1000000 0  150000 1000000 0  200000 1000000 0  250000 1000000 0  300000 1000000 0  350000 1000000 0  400000 1000000 0  450000 1000000 0  500000 1000000 0  550000 1000000 0  600000 1000000 0  650000 1000000 0  700000 1000000 0  750000 1000000 0  800000 1000000 0  850000 1000000 0  900000 1000000 0  950000 1000000 0  1000000 1000000 0  0 1050000 0  50000 1050000 0  100000 1050000 0  150000 1050000 0  200000 1050000 0  250000 1050000 0  300000 1050000 0  350000 1050000 0  400000 1050000 0  450000 1050000 0  500000 1050000 0  550000 1050000 0  600000 1050000 0  650000 1050000 0  700000 1050000 0  750000 1050000 0  800000 1050000 0  850000 1050000 0  900000 1050000 0  950000 1050000 0  1000000 1050000 0  0 1100000 0  50000 1100000 0  100000 1100000 0  150000 1100000 0  200000 1100000 0  250000 1100000 0  300000 1100000 0  350000 1100000 0  400000 1100000 0  450000 1100000 0  500000 1100000 0  550000 1100000 0  600000 1100000 0  650000 1100000 0  700000 1100000 0  750000 1100000 0  800000 1100000 0  850000 1100000 0  900000 1100000 0  950000 1100000 0  1000000 1100000 0  0 1150000 0  50000 1150000 0  100000 1150000 0  150000 1150000 0  200000 1150000 0  250000 1150000 0  300000 1150000 0  350000 1150000 0  400000 1150000 0  450000 1150000 0  500000 1150000 0  550000 1150000 0  600000 1150000 0  650000 1150000 0  700000 1150000 0  750000 1150000 0  800000 1150000 0  850000 1150000 0  900000 1150000 0  950000 1150000 0  1000000 1150000 0  0 1200000 0  50000 1200000 0  100000 1200000 0  150000 1200000 0  200000 1200000 0  250000 1200000 0  300000 1200000 0  350000 1200000 0  400000 1200000 0  450000 1200000 0  500000 1200000 0  550000 1200000 0  600000 1200000 0  650000 1200000 0  700000 1200000 0  750000 1200000 0  800000 1200000 0  850000 1200000 0  900000 1200000 0  950000 1200000 0  1000000 1200000 0  0 1250000 0  50000 1250000 0  100000 1250000 0  150000 1250000 0  200000 1250000 0  250000 1250000 0  300000 1250000 0  350000 1250000 0  400000 1250000 0  450000 1250000 0  500000 1250000 0  550000 1250000 0  600000 1250000 0  650000 1250000 0  700000 1250000 0  750000 1250000 0  800000 1250000 0  850000 1250000 0  900000 1250000 0  950000 1250000 0  1000000 1250000 0  0 1300000 0  50000 1300000 0  100000 1300000 0  150000 1300000 0  200000 1300000 0  250000 1300000 0  300000 1300000 0  350000 1300000 0  400000 1300000 0  450000 1300000 0  500000 1300000 0  550000 1300000 0  600000 1300000 0  650000 1300000 0  700000 1300000 0  750000 1300000 0  800000 1300000 0  850000 1300000 0  900000 1300000 0  950000 1300000 0  1000000 1300000 0  0 1350000 0  50000 1350000 0  100000 1350000 0  150000 1350000 0  200000 1350000 0  250000 1350000 0  300000 1350000 0  350000 1350000 0  400000 1350000 0  450000 1350000 0  500000 1350000 0  550000 1350000 0  600000 1350000 0  650000 1350000 0  700000 135
[...]
<PointData  Scalars="f_25"> 
<DataArray  type="Float64"  Name="f_25"  format="ascii">-2.4751838824724990e+00  -2.2139510327936178e+00  -1.9246949294377358e+00  -1.6162869800218225e+00  -1.2981758530796330e+00  -9.7329883169914966e-01  -6.4324091451618004e-01  -3.0921118879423692e-01  2.7701130413353307e-02  3.6643846014097087e-01  7.0594001381517224e-01  1.0451255416373164e+00  1.3828824698710271e+00  1.7180450261119855e+00  2.0493505551202760e+00  2.3753468746816653e+00  2.6941978560487598e+00  3.0032531819728376e+00  3.2977859361244564e+00  3.5656518902777119e+00  3.7399217459597165e+00  -2.3092985187656905e+00  -2.1899861978109270e+00  -1.9193728923730098e+00  -1.6152341197619573e+00  -1.2982233013355142e+00  -9.7363663063820149e-01  -6.4361192658389477e-01  -3.0950868189403358e-01  2.7533090927744884e-02  3.6643573822226710e-01  7.0613046629217002e-01  1.0455358884953705e+00  1.3835447017174913e+00  1.7190044325061704e+00  2.0506739191075578e+00  2.3771114779066704e+00  2.6963518477044017e+00  3.0048433014962894e+00  3.2936443503757551e+00  3.5348026540302806e+00  3.6398913495855072e+00  -2.1176836474847716e+00  -2.0592020845209951e+00  -1.8554233401997753e+00  -1.5835771807778936e+00  -1.2817014732460152e+00  -9.6465381257382021e-01  -6.3862001860900042e-01  -3.0672207827191883e-01  2.9065977388664781e-02  3.6722147634868191e-01  7.0639771552916275e-01  1.0452989065956295e+00  1.3826022513026102e+00  1.7168713123556609e+00  2.0463986805877075e+00  2.3688527140027063e+00  2.6804163201264886e+00  2.9736229983306921e+00  3.2320663780303893e+00  3.4192600928303190e+00  3.4674768875027988e+00  -1.9342931191330206e+00  -1.8993706729153259e+00  -1.7461910475707871e+00  -1.5149817489638475e+00  -1.2392219763349333e+00  -9.3821666504234547e-01  -6.2213850914050328e-01  -2.9660218847937320e-01  3.4926253105915399e-02  3.6999216369632598e-01  7.0660315729435774e-01  1.0429362315022959e+00  1.3771380992610225e+00  1.7071172285216869e+00  2.0302243768043691e+00  2.3426586168449917e+00  2.6383008717614733e+00  2.9064793104552229e+00  3.1281984511233549e+00  3.2720816794420129e+00  3.2999359217132418e+00  -1.7610209397349417e+00  -1.7366282813458243e+00  -1.6164316500986100e+00  -1.4207423852307162e+00  -1.1737954270373006e+00  -8.9377038748503357e-01  -5.9248864898363873e-01  -2.7745018535711319e-01  4.6371553832687366e-02  3.7538670672573016e-01  7.0671273720246486e-01  1.0377530283222949e+00  1.3658820420074922e+00  1.6881268926640098e+00  2.0007387011288169e+00  2.2985232973574825e+00  2.5737744841941184e+00  2.8147213968059046e+00  3.0038758126372653e+00  3.1183003513395011e+00  3.1380319139290229e+00  -1.5986156974665362e+00  -1.5797818243560677e+00  -1.4812724175483780e+00  -1.3135260181612938e+00  -1.0931828879964398e+00  -8.3531091670502755e-01  -5.5143956263814731e-01  -2.4989702393434488e-01  6.3261924152332366e-02  3.8341428549903533e-01  7.0674465728261238e-01  1.0297886600222970e+00  1.3490598428308120e+00  1.6606783355031145e+00  1.9599245140639581e+00  2.2406506390455987e+00  2.4945290446414790e+00  2.7102763142664341e+00  2.8734207020523814e+00  2.9680705869353572e+00  2.9837829887144061e+00  -1.4481288434195094e+00  -1.4326612943507182e+00  -1.3490229849735358e+00  -1.2027161591881699e+00  -1.0051733919241144e+00  -7.6831752930972697e-01  -5.0248791901568290e-01  -2.1601787618304255e-01  8.4475154146128703e-02  3.9360283880036484e-01  7.0673514930605030e-01  1.0195929584377925e+00  1.3278843558907969e+00  1.6269457084811885e+00  1.9113517115673673e+00  2.1744830782955407e+00  2.4081046996290585e+00  2.6021466407746128e+00  2.7451320768021019e+00  2.8260702908276611e+00  2.8393682830097409e+00  -1.3106724838818877e+00  -1.2974507091847227e+00  -1.2244581418090963e+00  -1.0946345692558266e+00  -9.1603252700142068e-01  -6.9801251758371541e-01  -4.4952505349589633e-01  -1.7846243405091994e-01  1.0840353001372700e-01  4.0521299405900513e-01  7.0671859317856811e-01  1.0079731438693764e+00  1.3040251402730545e+00  1.5896194118730058e+00  1.8589014096520078e+00  2.1051472409335279e+00  2.3205934768722609e+00  2.4965270143510856e+00  2.6239099220565021e+00  2.6949572648672371e+00  2.7066128461280550e+00  -1.1872590958625979e+00  -1.1756343791375459e+00  -1.1105280375977622e+00  -9.9349132163957310e-01  -8.3040704045216573e-01  -6.2871725823374980e-01  -3.9610594641656349e-01  -1.3986049988136748e-01  1.3334602355657882e-01  4.1742534769825429e-01  7.0671938215573571e-01  9.9579352368084373e-01  1.2792148381995418e+00  1.5513344234698176e+00  1.8060931194286827e+00  2.0368860527566541e+00  2.2365530885256515e+00  2.3976038441846947e+00  2.5128271525766510e+00  2.5765048298763054e+00  2.5869643645339644e+00  -1.0787452485225559e+00  -1.0683026887629188e+00  -1.0091707415252329e+00  -9.0211986073265860e-01  -7.5163171894311331e-01  -5.6376600011068079e-01  -3.4516677725686490e-01  -1.0251294139126818e-01  1.5774691905301144e-01  4.2946595081392586e-01  7.0675098514645296e-01  9.8385084470089601e-01  1.2550193783119066e+00  1.5143813631350587e+00  1.7558288546473726e+00  1.9729841947321425e+00  2.1592805929133791e+00  2.3082256282053026e+00  2.4139240784551652e+00  2.4719959141024068e+00  2.4815552529856659e+00  -9.8582230622727485e-01  -9.7627382834133414e-01  -9.2170971265389967e-01  -8.2244986068180614e-01  -6.8206214785454800e-01  -5.0562933868568705e-01  -2.9898903744223176e-01  -6.8283105125807875e-02  1.8030479632251445e-01  4.4067146356351805e-01  7.0681813500766599e-01  9.7281480290187128e-01  1.2327377477466657e+00  1.4806088208592427e+00  1.7103644286144926e+00  1.9158852352821998e+00  2.0911216527608376e+00  2.2303513848368874e+00  2.3286079585884818e+00  2.3823857476059676e+00  2.3912618190705017e+00  -9.0902647819037963e-01  -9.0015718107582865e-01  -8.4906339114444740e-01  -7.5580215118120520e-01  -6.2334225912902896e-01  -4.5608639709463061e-01  -2.5927113665662166e-01  -3.8600240699705454e-02  1.9999707802319563e-01  4.5051072081326055e-01  7.0691965370881737e-01  9.6321238153889432e-01  1.2133835375893203e+00  1.4514314359530576e+00  1.6713809877431691e+00  1.8673562073480146e+00  2.0337250939013973e+00  2.1653359009975475e+00  2.2578668233359354e+00  2.3083864301574346e+00  2.3167513165391638e+00  -8.4875638391125596e-01  -8.4039518536175040e-01  -7.9186631492060255e-01  -7.0307515686753963e-01  -5.7660121551710364e-01  -4.1638457278048746e-01  -2.2723190121118825e-01  -1.4512523500185608e-02  2.1606015046859858e-01  4.5858094931338889e-01  7.0705083128745971e-01  9.5543618272351916e-01  1.1977084926099173e+00  1.4278845041616806e+00  1.6400866416692370e+00  1.8286417857559341e+00  1.9882327682929517e+00  2.1141122170245739e+00  2.2023942267294934e+00  2.2505209280813170e+00  2.2585200762103281e+00  -8.0529231877127838e-01  -7.9729476568944868e-01  -7.5054492742064838e-01  -6.6486544245030921e-01  -5.4259296403929569e-01  -3.8736846911653178e-01  -2.0371036156159442e-01  3.2468980827019536e-03  2.2795243768450507e-01  4.6459265095097219e-01  7.0720508528478609e-01  9.4976254611273592e-01  1.1862414341869900e+00  1.4106902908238816e+00  1.6173143451348229e+00  1.8005895540052452e+00  1.9554152985557087e+00  2.0773106735433253e+00  2.1626679341800901e+00  2.2091620711077016e+00  2.2169249409071541e+00  -7.7881378787374822e-01  -7.7105139322600003e-01  -7.2536707196467376e-01  -6.4154628539565617e-01  -5.2179210564451206e-01  -3.6957563602354709e-01  -1.8924728968324570e-01  1.4199646063065972e-02  2.3531648397839189e-01  4.6835211547158284e-01  7.0737497191798560e-01  9.4637077970151995e-01  1.1793271116232533e+00  1.4003180109302280e+00  1.6036018807465182e+00  1.7837434012156517e+00  1.9357659046310123e+00  2.0553371228777007e+00  2.1390017405862256e+00  2.1845617210712414e+00  2.1922085825703461e+00  -7.6941304716904657e-01  -7.6176625657146824e-01  -7.1647365896562654e-01  -6.3331725961573504e-01  -5.1445613053585071e-01  -3.6330168185782541e-01  -1.8414381463185742e-01  1.8076173089756595e-02  2.3794837462825816e-01  4.6974659425509646e-01  7.0755272080707687e-01  9.4535884735905140e-01  1.1771570669858897e+00  1.3970292685243888e+00  1.5992492562459977e+00  1.7784071234719649e+00  1.9295615721499884e+00  2.0484227012298719e+00  2.1315791005797626e+00  2.1768716981856033e+00  2.1845184887831839e+00  -7.7710314095621091e-01  -7.6945627945710693e-01  -7.2389629897209062e-01  -6.4023168126356600e-01  -5.2066046301687507e-01  -3.6863795960151119e-01  -1.8849643913237571e-01  1.4787430683918665e-02  2.3577832999089166e-01  4.6873466191263052e-01  7.0773046969617159e-01  9.4675332614257268e-01  1.1797889576357596e+00  1.4009057955510800e+00  1.6043527312973864e+00  1.7846810776376894e+00  1.9368975472586554e+00  2.0566517270097977e+00  2.1404725135788194e+00  2.1861568348401459e+00  2.1939192294878951e+00  -8.0181949929301877e-01  -7.9405662949356659e-01  -7.4756249256595708e-01  -6.6220523192918812e-01  -5.4030985694157252e-01  -3.8548411239110730e-01  -2.0220890352068130e-01  4.4151507902637352e-03  2.2886400742715959e-01  4.6534289550141972e-01  7.0790035632937642e-01  9.5051279066318783e-01  1.1871530039296512e+00  1.4118585435314495e+00  1.6188158031757465e+00  1.8024739107306831e+00  1.9576984056534490e+00  2.0799708840644606e+00  2.1656503690348079e+00  2.2124002073036122e+00  2.2203977603854388e+00  -8.4341463459618260e-01  -8.3541548646717079e-01  -7.8728878511534783e-01  -6.9900677541042622e-01  -5.7312732667880484e-01  -4.1353634414179019e-01  -2.2498120005508615e-01  -1.2779062547526331e-02  2.1739694900424222e-01  4.5966925889064397e-01  7.0805461032671302e-01  9.5652449230078518e-01  1.1990452911455705e+00  1.4296179651143470e+00  1.6423373428253492e+00  1.8314900143946469e+00  1.9917066571312700e+00  2.1181805984817066e+00  2.2069717565347680e+00  2.2555006269759139e+00  2.2638618255254190e+00  -9.0164587492501047e-01  -8.9328098854328286e-01  -8.4276138172178172e-01  -7.5023045938339339e-01  -6.1861965228724103e-01  -4.5225076573385797e-01  -2.5627554612900671e-01  -3.6325994338891075e-02  2.0172190402485130e-01  4.5189306007528074e-01  7.0818578790536491e-01  9.6459472080092379e-01  1.2151083635909850e+00  1.4537056823138788e+00  1.6743765782707913e+00  1.8711918387087974e+00  2.0384477007432036e+00  2.1709075927953774e+00  2.2641688327586125e+00  2.3152626226899922e+00  2.3241319198045440e+00  -9.7615637745633155e-01  -9.6728030599179715e-01  -9.1350251697431195e-01  -8.1524594322271815e-01  -6.7601621114666210e-01  -5.0077979366802261e-01  -2.9525898700031050e-01  -6.5503379245055990e-02  1.8236769386752660e-01  4.4229063871232227e-01  7.0828730660653372e-01  9.7443397805068210e-01  1.2348006452916849e+00  1.4833885467400074e+00  1.7140944790564283e+00  1.9207347802998820e+00  2.0971675894687376e+00  2.2375553022959860e+00  2.3368151542680757e+00  2.3913792699555039e+00  2.4009277478414455e+00  -1.0664498113714758e+00  -1.0568904724882209e+00  -9.9881863684097594e-01  -8.9312018659111359e-01  -7.4417515129918688e-01  -5.5787875311794610e-01  -3.4072341303317255e-01  -9.9275921520853572e-02  1.6008606330230679e-01  4.3125459691332235e-01  7.0835445646776940e-01  9.8563949080029922e-01  1.2573585225612125e+00  1.5176183830054943e+00  1.7602722188710886e+00  1.9788714417248974e+00  2.1667371605573211e+00  2.3172253023468530e+00  2.4242761831394213e+00  2.4834081303771001e+00  2.4938506901367314e+00  -1.1718589229197616e+00  -1.1613993882621052e+00  -1.0977217109624431e+00  -9.8249840257048826e-01  -8.2144764691144301e-01  -6.2178061114243721e-01  -3.9098767781446209e-01  -1.3622898185558585e-01  1.3589060341469739e-01  4.1931191793339834e-01  7.0838605945851263e-01  9.9768009391599777e-01  1.2817594180576755e+00  1.5549659414956192e+00  1.8112113880308074e+00  2.0438226998479849e+00  2.2455124820663883e+00  2.4085967632537848e+00  2.5256334792119626e+00  2.5907398207517391e+00  2.6023645374767916e+00  -1.2915074045138353e+00  -1.2798518232530147e+00  -1.2088044804422784e+00  -1.0814215727368643e+00  -9.0548803525803401e-01  -6.9004179931929210e-01  -4.4379596803776333e-01  -1.7451397025875270e-01  1.1108030134120606e-01  4.0713229774488857e-01  7.0838684843570243e-01  1.0098924475552697e+00  1.3067019116005507e+00  1.5935678756651914e+00  1.8646304951101587e+00  2.1131179591979641e+00  2.3311379686156619e+00  2.5097400108700558e+00  2.6395635834233127e+00  2.7125561507989335e+00  2.7257779254960983e+00  -1.4242628413955061e+00  -1.4109648492134281e+00  -1.3300266351878689e+00  -1.1870411991603758e+00  -9.9299925801481081e-01  -7.5937763668128289e-01  -4.9624626995309623e-01  -2.1184026686690746e-01  8.7221085723491076e-02  3.9551248317649917e-01  7.0837029230824577e-01  1.0215026028139349e+00  1.3306302874681721e+00  1.6311233177973321e+00  1.9175933606299642e+00  2.1834229709239952e+00  2.4202788335383763e+00  2.6178216008024204e+00  2.7641284265877752e+00  2.8477667359649472e+00  2.8632342850337396e+00  -1.5686775471001495e+00  -1.5529651453211040e+00  -1.4583152604381235e+00  -1.2951708726521716e+00  -1.0794236030272104e+00  -8.2554519743132382e-01  -5.4481907244966810e-01  -2.4557289388880810e-01  6.6045598783499845e-02  3.8531678159201599e-01  7.0836078433170790e-01  1.0316911561152862e+00  1.3518435174619896e+00  1.6650024655486564e+00  1.9665450042524488e+00  2.2504163583193209e+00  2.5082883296107235e+00  2.7286314597755656e+00  2.8963778591626359e+00  2.9948872659703190e+00  3.0137211390807841e+00  -1.7229264723147488e+00  -1.7031949097252279e+00  -1.5887703710229859e+00  -1.3996159551916225e+00  -1.1586690425798289e+00  -8.8341785574318754e-01  -5.8563325951450762e-01  -2.7302145104968617e-01  4.9223399606836832e-02  3.7735241329203401e-01  7.0839270441187052e-01  1.0397187348886072e+00  1.3687338877816473e+00  1.6925556269714401e+00  2.0075940905979577e+00  2.3088758290993514e+00  2.5889008686516033e+00  2.8358478268450082e+00  3.0315370917128881e+00  3.1517337229600950e+00  3.1761263813492091e+00  -1.8848304800989533e+00  -1.8569762378277224e+00  -1.7130930095090600e+00  -1.4913738688409233e+00  -1.2231954301471695e+00  -9.2755317523067859e-01  -6.1511893519004424e-01  -2.9201178690735202e-01  3.7967342353318945e-02  3.7216921011204585e-01  7.0850228431998896e-01  1.0451132779180221e+00  1.3801791885084300e+00  1.7117076300937117e+00  2.0372439507548394e+00  2.3533221066566758e+00  2.6543274179492564e+00  2.9300871905781540e+00  3.1612964891850783e+00  3.3144761145296062e+00  3.3493985607473000e+00  -2.0523714458884985e+00  -2.0041546512160138e+00  -1.8169609364160824e+00  -1.5585175567163789e+00  -1.2653108785121756e+00  -9.5374727238838730e-01  -6.3129323897337686e-01  -3.0176587074131761e-01  3.2503190311734799e-02  3.6980653501871869e-01  7.0870772608519139e-01  1.0478839652656720e+00  1.3860394642256881e+00  1.7218275198862651e+00  2.0537254602233457e+00  2.3797592541881594e+00  2.6968069148603444e+00  2.9986826223922085e+00  3.2705287818140776e+00  3.4743075261352869e+00  3.5327890890990670e+00  -2.2247859079712060e+00  -2.1196972124159776e+00  -1.8785389087614566e+00  -1.5897378598819831e+00  -1.2812464060900868e+00  -9.6200603629234571e-01  -6.3556847749322209e-01  -3.0389899089182676e-01  3.1560739896857752e-02  3.6956955311898049e-01  7.0897497532218423e-01  1.0486697033920884e+00  1.3875723506866109e+00  1.7246141235083856e+00  2.0587173681982418e+00  2.3887420722525383e+00  2.7133287429498441e+00  3.0303395613762740e+00  3.3344783339873243e+00  3.6050916394252281e+00  3.7244039603799903e+00  -2.3248163043454135e+00  -2.1505464486634076e+00  -1.8826804945101534e+00  -1.5881477403585276e+00  -1.2790924144344418e+00  -9.6024143306734067e-01  -6.3424511350593893e-01  -3.0293958449764258e-01  3.2222971743324204e-02  3.6997989997703656e-01  7.0916542779918490e-01  1.0486669814733818e+00  1.3874043112010035e+00  1.7243166304085897e+00  2.0583463561305275e+00  2.3884042733134869e+00  2.7132812946939646e+00  3.0313924216361441e+00  3.3398003710520472e+00  3.6290564744079234e+00  3.8902893240868028e+00  </DataArray> 
</PointData> 
</Piece>
</UnstructuredGrid>
</VTKFile>