<?xml version="1.0"?>
<VTKFile type="UnstructuredGrid"  version="0.1"  >
<UnstructuredGrid>
<Piece  NumberOfPoints="651" NumberOfCells="1200">
<Points>
<DataArray  type="Float64"  NumberOfComponents="3"  format="ascii">0 0 0  50000 0 0  100000 0 0  150000 0 0  200000 0 0  250000 0 0  300000 0 0  350000 0 0  400000 0 0  450000 0 0  500000 0 0  550000 0 0  600000 0 0  650000 0 0  700000 0 0  750000 0 0  800000 0 0  850000 0 0  900000 0 0  950000 0 0  1000000 0 0  0 50000 0  50000 50000 0  100000 50000 0  150000 50000 0  200000 50000 0  250000 50000 0  300000 50000 0  350000 50000 0  400000 50000 0  450000 50000 0  500000 50000 0  550000 50000 0  600000 50000 0  650000 50000 0  700000 50000 0  750000 50000 0  800000 50000 0  850000 50000 0  900000 50000 0  950000 50000 0  1000000 50000 0  0 100000 0  50000 100000 0  100000 100000 0  150000 100000 0  200000 100000 0  250000 100000 0  300000 100000 0  350000 100000 0  400000 100000 0  450000 100000 0  500000 100000 0  550000 100000 0  600000 100000 0  650000 100000 0  700000 100000 0  750000 100000 0  800000 100000 0  850000 100000 0  900000 100000 0  950000 100000 0  1000000 100000 0  0 150000 0  50000 150000 0  100000 150000 0  150000 150000 0  200000 150000 0  250000 150000 0  300000 150000 0  350000 150000 0  400000 150000 0  450000 150000 0  500000 150000 0  550000 150000 0  600000 150000 0  650000 150000 0  700000 150000 0  750000 150000 0  800000 150000 0  850000 150000 0  900000 150000 0  950000 150000 0  1000000 150000 0  0 200000 0  50000 200000 0  100000 200000 0  150000 200000 0  200000 200000 0  250000 200000 0  300000 200000 0  350000 200000 0  400000 200000 0  450000 200000 0  500000 200000 0  550000 200000 0  600000 200000 0  650000 200000 0  700000 200000 0  750000 200000 0  800000 200000 0  850000 200000 0  900000 200000 0  950000 200000 0  1000000 200000 0  0 250000 0  50000 250000 0  100000 250000 0  150000 250000 0  200000 250000 0  250000 250000 0  300000 250000 0  350000 250000 0  400000 250000 0  450000 250000 0  500000 250000 0  550000 250000 0  600000 250000 0  650000 250000 0  700000 250000 0  750000 250000 0  800000 250000 0  850000 250000 0  900000 250000 0  950000 250000 0  1000000 250000 0  0 300000 0  50000 300000 0  100000 300000 0  150000 300000 0  200000 300000 0  250000 300000 0  300000 300000 0  350000 300000 0  400000 300000 0  450000 300000 0  500000 300000 0  550000 300000 0  600000 300000 0  650000 300000 0  700000 300000 0  750000 300000 0  800000 300000 0  850000 300000 0  900000 300000 0  950000 300000 0  1000000 300000 0  0 350000 0  50000 350000 0  100000 350000 0  150000 350000 0  200000 350000 0  250000 350000 0  300000 350000 0  350000 350000 0  400000 350000 0  450000 350000 0  500000 350000 0  550000 350000 0  600000 350000 0  650000 350000 0  700000 350000 0  750000 350000 0  800000 350000 0  850000 350000 0  900000 350000 0  950000 350000 0  1000000 350000 0  0 400000 0  50000 400000 0  100000 400000 0  150000 400000 0  200000 400000 0  250000 400000 0  300000 400000 0  350000 400000 0  400000 400000 0  450000 400000 0  500000 400000 0  550000 400000 0  600000 400000 0  650000 400000 0  700000 400000 0  750000 400000 0  800000 400000 0  850000 400000 0  900000 400000 0  950000 400000 0  1000000 400000 0  0 450000 0  50000 450000 0  100000 450000 0  150000 450000 0  200000 450000 0  250000 450000 0  300000 450000 0  350000 450000 0  400000 450000 0  450000 450000 0  500000 450000 0  550000 450000 0  600000 450000 0  650000 450000 0  700000 450000 0  750000 450000 0  800000 450000 0  850000 450000 0  900000 450000 0  950000 450000 0  1000000 450000 0  0 500000 0  50000 500000 0  100000 500000 0  150000 500000 0  200000 500000 0  250000 500000 0  300000 500000 0  350000 500000 0  400000 500000 0  450000 500000 0  500000 500000 0  550000 500000 0  600000 500000 0  650000 500000 0  700000 500000 0  750000 500000 0  800000 500000 0  850000 500000 0  900000 500000 0  950000 500000 0  1000000 500000 0  0 550000 0  50000 550000 0  100000 550000 0  150000 550000 0  200000 550000 0  250000 550000 0  300000 550000 0  350000 550000 0  400000 550000 0  450000 550000 0  500000 550000 0  550000 550000 0  600000 550000 0  650000 550000 0  700000 550000 0  750000 550000 0  800000 550000 0  850000 550000 0  900000 550000 0  950000 550000 0  1000000 550000 0  0 600000 0  50000 600000 0  100000 600000 0  150000 600000 0  200000 600000 0  250000 600000 0  300000 600000 0  350000 600000 0  400000 600000 0  450000 600000 0  500000 600000 0  550000 600000 0  600000 600000 0  650000 600000 0  700000 600000 0  750000 600000 0  800000 600000 0  850000 600000 0  900000 600000 0  950000 600000 0  1000000 600000 0  0 650000 0  50000 650000 0  100000 650000 0  150000 650000 0  200000 650000 0  250000 650000 0  300000 650000 0  350000 650000 0  400000 650000 0  450000 650000 0  500000 650000 0  550000 650000 0  600000 650000 0  650000 650000 0  700000 650000 0  750000 650000 0  800000 650000 0  850000 650000 0  900000 650000 0  950000 650000 0  1000000 650000 0  0 700000 0  50000 700000 0  100000 700000 0  150000 700000 0  200000 700000 0  250000 700000 0  300000 700000 0  350000 700000 0  400000 700000 0  450000 700000 0  500000 700000 0  550000 700000 0  600000 700000 0  650000 700000 0  700000 700000 0  750000 700000 0  800000 700000 0  850000 700000 0  900000 700000 0  950000 700000 0  1000000 700000 0  0 750000 0  50000 750000 0  100000 750000 0  150000 750000 0  200000 750000 0  250000 750000 0  300000 750000 0  350000 750000 0  400000 750000 0  450000 750000 0  500000 750000 0  550000 750000 0  600000 750000 0  650000 750000 0  700000 750000 0  750000 750000 0  800000 750000 0  850000 750000 0  900000 750000 0  950000 750000 0  1000000 750000 0  0 800000 0  50000 800000 0  100000 800000 0  150000 800000 0  200000 800000 0  250000 800000 0  300000 800000 0  350000 800000 0  400000 800000 0  450000 800000 0  500000 800000 0  550000 800000 0  600000 800000 0  650000 800000 0  700000 800000 0  750000 800000 0  800000 800000 0  850000 800000 0  900000 800000 0  950000 800000 0  1000000 800000 0  0 850000 0  50000 850000 0  100000 850000 0  150000 850000 0  200000 850000 0  250000 850000 0  300000 850000 0  350000 850000 0  400000 850000 0  450000 850000 0  500000 850000 0  550000 850000 0  600000 850000 0  650000 850000 0  700000 850000 0  750000 850000 0  800000 850000 0  850000 850000 0  900000 850000 0  950000 850000 0  1000000 850000 0  0 900000 0  50000 900000 0  100000 900000 0  150000 900000 0  200000 900000 0  250000 900000 0  300000 900000 0  350000 900000 0  400000 900000 0  450000 900000 0  500000 900000 0  550000 900000 0  600000 900000 0  650000 900000 0  700000 900000 0  750000 900000 0  800000 900000 0  850000 900000 0  900000 900000 0  950000 900000 0  1000000 900000 0  0 950000 0  50000 950000 0  100000 950000 0  150000 950000 0  200000 950000 0  250000 950000 0  300000 950000 0  350000 950000 0  400000 950000 0  450000 950000 0  500000 950000 0  550000 950000 0  600000 950000 0  650000 950000 0  700000 950000 0  750000 950000 0  800000 950000 0  850000 950000 0  900000 950000 0  950000 950000 0  1000000 950000 0  0 1000000 0  50000 1000000 0  100000 1000000 0  150000 1000000 0  200000 1000000 0  250000 1000000 0  300000 1000000 0  350000 1000000 0  400000 1000000 0  450000 1000000 0  500000 1000000 0  550000 1000000 0  600000 1000000 0  650000 1000000 0  700000 1000000 0  750000 1000000 0  800000 1000000 0  850000 1000000 0  900000 1000000 0  950000 1000000 0  1000000 1000000 0  0 1050000 0  50000 1050000 0  100000 1050000 0  150000 1050000 0  200000 1050000 0  250000 1050000 0  300000 1050000 0  350000 1050000 0  400000 1050000 0  450000 1050000 0  500000 1050000 0  550000 1050000 0  600000 1050000 0  650000 1050000 0  700000 1050000 0  750000 1050000 0  800000 1050000 0  850000 1050000 0  900000 1050000 0  950000 1050000 0  1000000 1050000 0  0 1100000 0  50000 1100000 0  100000 1100000 0  150000 1100000 0  200000 1100000 0  250000 1100000 0  300000 1100000 0  350000 1100000 0  400000 1100000 0  450000 1100000 0  500000 1100000 0  550000 1100000 0  600000 1100000 0  650000 1100000 0  700000 1100000 0  750000 1100000 0  800000 1100000 0  850000 1100000 0  900000 1100000 0  950000 1100000 0  1000000 1100000 0  0 1150000 0  50000 1150000 0  100000 1150000 0  150000 1150000 0  200000 1150000 0  250000 1150000 0  300000 1150000 0  350000 1150000 0  400000 1150000 0  450000 1150000 0  500000 1150000 0  550000 1150000 0  600000 1150000 0  650000 1150000 0  700000 1150000 0  750000 1150000 0  800000 1150000 0  850000 1150000 0  900000 1150000 0  950000 1150000 0  1000000 1150000 0  0 1200000 0  50000 1200000 0  100000 1200000 0  150000 1200000 0  200000 1200000 0  250000 1200000 0  300000 1200000 0  350000 1200000 0  400000 1200000 0  450000 1200000 0  500000 1200000 0  550000 1200000 0  600000 1200000 0  650000 1200000 0  700000 1200000 0  750000 1200000 0  800000 1200000 0  850000 1200000 0  900000 1200000 0  950000 1200000 0  1000000 1200000 0  0 1250000 0  50000 1250000 0  100000 1250000 0  150000 1250000 0  200000 1250000 0  250000 1250000 0  300000 1250000 0  350000 1250000 0  400000 1250000 0  450000 1250000 0  500000 1250000 0  550000 1250000 0  600000 1250000 0  650000 1250000 0  700000 1250000 0  750000 1250000 0  800000 1250000 0  850000 1250000 0  900000 1250000 0  950000 1250000 0  1000000 1250000 0  0 1300000 0  50000 1300000 0  100000 1300000 0  150000 1300000 0  200000 1300000 0  250000 1300000 0  300000 1300000 0  350000 1300000 0  400000 1300000 0  450000 1300000 0  500000 1300000 0  550000 1300000 0  600000 1300000 0  650000 1300000 0  700000 1300000 0  750000 1300000 0  800000 1300000 0  850000 1300000 0  900000 1300000 0  950000 1300000 0  1000000 1300000 0  0 1350000 0  50000 1350000 0  100000 1350000 0  150000 1350000 0  200000 1350000 0  250000 1350000 0  300000 1350000 0  350000 1350000 0  400000 1350000 0  450000 1350000 0  500000 1350000 0  550000 1350000 0  600000 1350000 0  650000 1350000 0  700000 135
[...]
<PointData  Scalars="f_25"> 
<DataArray  type="Float64"  Name="f_25"  format="ascii">-9.1139071867271682e+00  -8.3283762356160054e+00  -7.4566111716231998e+00  -6.5263485064477642e+00  -5.5664243220052674e+00  -4.5858205333361646e+00  -3.5893958442641392e+00  -2.5808551322113154e+00  -1.5635313986423314e+00  -5.4065654070753322e-01  4.8453125406272457e-01  1.5087370753571527e+00  2.5285691804614117e+00  3.5404738920710299e+00  4.5405993744939046e+00  5.5245060418588352e+00  6.4865558519398405e+00  7.4185557015013188e+00  8.3058167770606133e+00  9.1109485071561966e+00  9.6327901087762502e+00  -8.6161703457674665e+00  -8.2586719728362272e+00  -7.4423032018500113e+00  -6.5244214890427870e+00  -5.5675148344175636e+00  -4.5876026093050601e+00  -3.5911575571268908e+00  -2.5823080244974017e+00  -1.5645233725203767e+00  -5.4108585325878011e-01  4.8474907849650395e-01  1.5096884424445873e+00  2.5303614639977559e+00  3.5432608738019291e+00  4.5446100515437058e+00  5.5300218187488532e+00  6.4935132402452176e+00  7.4242655530064496e+00  8.2950455010331012e+00  9.0208778641902185e+00  9.3337384873510416e+00  -8.0414980203298878e+00  -7.8670606030423338e+00  -7.2524902776373210e+00  -6.4315943845368650e+00  -5.5198522747059648e+00  -4.5622549223597506e+00  -3.5774939061635265e+00  -2.5749966199386352e+00  -1.5607292672049919e+00  -5.3930097148685519e-01  4.8520688241421883e-01  1.5088650528555718e+00  2.5276625439509375e+00  3.5372457618633817e+00  4.5324430305774621e+00  5.5061943587480426e+00  6.4469379819184995e+00  7.3320371608833792e+00  8.1117094016454896e+00  8.6752284692785206e+00  8.8173131945418479e+00  -7.4915256371888788e+00  -7.3877852226165786e+00  -6.9259601482228863e+00  -6.2276102427246558e+00  -5.3943523885354470e+00  -4.4847546415784825e+00  -3.5296193011054622e+00  -2.5459202016980904e+00  -1.5441283592382549e+00  -5.3166002058827366e-01  4.8546237545681592e-01  1.5017260681409497e+00  2.5115257698584403e+00  3.5085357114863136e+00  4.4847429260804859e+00  5.4286467144133495e+00  6.3217184003995452e+00  7.1316141841893552e+00  7.8007201492270655e+00  8.2338501385205252e+00  8.3154194624172835e+00  -6.9719010898241933e+00  -6.8996120429084264e+00  -6.5372732957844590e+00  -5.9460950160964812e+00  -5.1996205510519804e+00  -4.3530327041964760e+00  -3.4421731850436226e+00  -2.4897485787623781e+00  -1.5107996889015873e+00  -5.1617667302754067e-01  4.8540962923491177e-01  1.4861118250567074e+00  2.4779936579862789e+00  3.4520664606356664e+00  4.3969904410824601e+00  5.2970442392859978e+00  6.1288853840334339e+00  6.8568311922854805e+00  7.4278336219904180e+00  7.7723161092330209e+00  7.8300124688109616e+00  -6.4848332693320936e+00  -6.4290630498541326e+00  -6.1320704938050499e+00  -5.6251791240870759e+00  -4.9588809596314158e+00  -4.1789269839237280e+00  -3.3202981179614128e+00  -2.4082334835204322e+00  -1.4610626700667324e+00  -4.9276983780463923e-01  4.8510889218082509e-01  1.4621001684507937e+00  2.4276626413072728e+00  3.3700615156486409e+00  4.2750147784219168e+00  5.1239067068518889e+00  5.8915023570851224e+00  6.5435854698094778e+00  7.0362467442189471e+00  7.3212826511726439e+00  7.3672772642608964e+00  -6.0334670532408321e+00  -5.9876565708297669e+00  -5.7354217444133315e+00  -5.2931667253795389e+00  -4.6955807254743238e+00  -3.9788772522569520e+00  -3.1744414189190997e+00  -2.3075446700396114e+00  -1.3982354214910018e+00  -4.6282532815694438e-01  4.8467694260378524e-01  1.4313274453281595e+00  2.3641428752464773e+00  3.2690111737069505e+00  4.1295073677947274e+00  4.9255792642659655e+00  5.6322624975688464e+00  6.2190091679215280e+00  6.6509847002538072e+00  6.8948479412221593e+00  6.9338580356190036e+00  -5.6211472015518309e+00  -5.5819583605195007e+00  -5.3617298331350769e+00  -4.9691379565379146e+00  -4.4286181644449023e+00  -3.7686123148232475e+00  -3.0163014337492395e+00  -2.1956317241989556e+00  -1.3271313885637299e+00  -4.2855066771950373e-01  4.8422398309855075e-01  1.3962189493728181e+00  2.2924474652258056e+00  3.1569996451024522e+00  3.9721430397906348e+00  4.7175001130698302e+00  5.3695269150741671e+00  5.9017805498557792e+00  6.2868167211894850e+00  6.5010132121135529e+00  6.5352926933987980e+00  -5.2509276743223783e+00  -5.2164352243103433e+00  -5.0198941651532651e+00  -4.6658045304387334e+00  -4.1720223619718437e+00  -3.5611706376757861e+00  -2.8565941266156738e+00  -2.0804133680136583e+00  -1.2528669456587660e+00  -3.9240672497447171e-01  4.8382800265036963e-01  1.3593794502609480e+00  2.2177952775117924e+00  3.0419655232087601e+00  3.8135300847348486e+00  4.5124639652998022e+00  5.1170438295146097e+00  5.6045270888084033e+00  5.9530047322098145e+00  6.1451185192956022e+00  6.1759641222751380e+00  -4.9253974922366872e+00  -4.8943741522332695e+00  -4.7157638299470852e+00  -4.3917255093500094e+00  -3.9358685573992687e+00  -3.3666232823783639e+00  -2.7041838396231244e+00  -1.9688317853414714e+00  -1.1801329995870962e+00  -3.5672516060694531e-01  4.8353195256717052e-01  1.3232135369151312e+00  2.1449106595480498e+00  2.9308200604825778e+00  3.6624262029402539e+00  4.3203852310949094e+00  4.8847655665875669e+00  5.3358449682217346e+00  5.6557015653585951e+00  5.8310317536702359e+00  5.8592992904943664e+00  -4.6466500234282169e+00  -4.6182462915076661e+00  -4.4533364040633625e+00  -4.1527333515955336e+00  -3.7272782787661036e+00  -3.1924389383188574e+00  -2.5659658436739110e+00  -1.8665166066674126e+00  -1.1128600547015559e+00  -3.2350854970299314e-01  4.8335080381722695e-01  1.2897439386381491e+00  2.0777165622486282e+00  2.8291463204390421e+00  3.5256450624483127e+00  4.1486452916013938e+00  4.6797775606962491e+00  5.1016503025914588e+00  5.3991552821992590e+00  5.5616376870240556e+00  5.5879522552789203e+00  -4.4163114528666298e+00  -4.3898955674535527e+00  -4.2353891302059781e+00  -3.9528231900295960e+00  -3.5512249203644854e+00  -3.0439999833681153e+00  -2.4470776730679367e+00  -1.7777904004020280e+00  -1.0541402426550401e+00  -2.9436297987564186e-01  4.8328060033992537e-01  1.2605630581995571e+00  2.0192762012599226e+00  2.7412199660119798e+00  3.4082683219852132e+00  4.0025857968593526e+00  4.5070641572805163e+00  4.9060382647628531e+00  5.1863525624607139e+00  5.3390912187280266e+00  5.3639472200089733e+00  -4.2355923726275053e+00  -4.2106630032891221e+00  -4.0638430419448319e+00  -3.7947147171474551e+00  -3.4111269330791725e+00  -2.9250828389801047e+00  -2.3512090215309809e+00  -1.7058260096110516e+00  -1.0062849989456100e+00  -2.7050797393899312e-01  4.8330607646433182e-01  1.2368574907337249e+00  1.9718626247763240e+00  2.6701720140882927e+00  3.3139501736357424e+00  3.8859720353718856e+00  4.3700800411965117e+00  4.7518323461461973e+00  5.0193934254585830e+00  5.1649785727176942e+00  5.1887932436988047e+00  -4.1053448198595595e+00  -4.0814800869818404e+00  -3.9399905486766245e+00  -3.6802152663032568e+00  -3.3092683763962811e+00  -2.8382461962014243e+00  -2.2809016526131711e+00  -1.6528444539384337e+00  -9.7093520228751273e-01  -2.5282122030741039e-01  4.8340597193874735e-01  1.2194623964753064e+00  1.9370753587234126e+00  2.6181878267339482e+00  3.2452115173321205e+00  3.8013698250831371e+00  4.2711588130517706e+00  4.6409424185764951e+00  4.8997272056740702e+00  5.0404334655107075e+00  5.0635782194281802e+00  -4.0261143724141890e+00  -4.0029403280254776e+00  -3.8646438909451195e+00  -3.6104563553051987e+00  -3.2470878471133608e+00  -2.7851195096974748e+00  -2.2377948719588110e+00  -1.6202960647513538e+00  -9.4917492227089928e-01  -2.4189085543391189e-01  4.8355627188071193e-01  1.2089193886051945e+00  1.9159572178560005e+00  2.5866874994078231e+00  3.2036806371020110e+00  3.7504266508410460e+00  4.2117953618979334e+00  4.5745998048210712e+00  4.8283077352378232e+00  4.9662238773012390e+00  4.9890442957634447e+00  -3.9981804768191505e+00  -3.9753503988523882e+00  -3.8382300979208619e+00  -3.5860429235259383e+00  -3.2253660608589421e+00  -2.7665992953281502e+00  -2.2228021639496784e+00  -1.6089988043386105e+00  -9.4162337827663067e-01  -2.3805996118797756e-01  4.8373191975938629e-01  1.2055238007067350e+00  1.9090872177953815e+00  2.5764626438573592e+00  3.1902660034684311e+00  3.7340631348468984e+00  4.1928299003776885e+00  4.5535067630447328e+00  4.8056939374396492e+00  4.9428142383711888e+00  4.9656443163379649e+00  -4.0215804562446360e+00  -3.9987600377824384e+00  -3.8608438957190394e+00  -3.6071359653022990e+00  -3.2443315223791864e+00  -2.7829628113223217e+00  -2.2362167975832756e+00  -1.6192236598890939e+00  -9.4849337833727121e-01  -2.4145554908643899e-01  4.8390756763806669e-01  1.2093546949526879e+00  1.9166387617896663e+00  2.5877599042701096e+00  3.2052587114775721e+00  3.7525833492162444e+00  4.2145516866321353e+00  4.5779201948239923e+00  4.8321077304639664e+00  4.9704041675443502e+00  4.9935782119330581e+00  -4.0961143799093618e+00  -4.0729696259919113e+00  -3.9322633661552930e+00  -3.6734785790577207e+00  -3.3036949735330428e+00  -2.8339059855644391e+00  -2.2777476778134078e+00  -1.6507239872152240e+00  -9.6961151920467248e-01  -2.5199855695653239e-01  4.8405786758005009e-01  1.2202850598262116e+00  1.9383990418063033e+00  2.6203082934572164e+00  3.2483654921319665e+00  3.8057100357202245e+00  4.2767322159150902e+00  4.6476791058220668e+00  4.9074543881955215e+00  5.0489439265007947e+00  5.0728086593784978e+00  -4.2213294041799561e+00  -4.1975147331988385e+00  -4.0519295859397477e+00  -3.7843685066273629e+00  -3.4026162016777457e+00  -2.9185081958531680e+00  -2.3464863341170035e+00  -1.7027081745695409e+00  -1.0043987852575462e+00  -2.6939365121492514e-01  4.8415776305450164e-01  1.2379718134578390e+00  1.9737488384644419e+00  2.6732898491298678e+00  3.3186728610497971e+00  3.8925466784989293e+00  4.3785907725980495e+00  4.7621785566663268e+00  5.0313068814637170e+00  5.1781268428080063e+00  5.2030562121463930e+00  -4.3964833804901122e+00  -4.3716273792091771e+00  -4.2188887229418679e+00  -3.9385744252440409e+00  -3.5396003177617157e+00  -3.0351219573405843e+00  -2.4408044824664445e+00  -1.7737561264931887e+00  -1.0518123617411050e+00  -2.9309921868071970e-01  4.8418323917894074e-01  1.2618268193945181e+00  2.0216040821739107e+00  2.7452542399208686e+00  3.4145415125867662e+00  4.0114638228869310e+00  4.5186887598833616e+00  4.9202870295484624e+00  5.2028529697248125e+00  5.3573594069723702e+00  5.3837752923854634e+00  -4.6204884157600077e+00  -4.5941738475051537e+00  -4.4316914426803669e+00  -4.1341864630725995e+00  -3.7123137211773858e+00  -3.1811814520825319e+00  -2.5581812229294596e+00  -1.8616824809201871e+00  -1.1102527227297532e+00  -3.2228009911925742e-01  4.8411303570168807e-01  1.2909723892219163e+00  2.0803238942204803e+00  2.8339804461863323e+00  3.5334296831928316e+00  4.1599027778377611e+00  4.6947421182849887e+00  5.1201971911143893e+00  5.4208002435822165e+00  5.5857101310264925e+00  5.6141138629470335e+00  -4.8918354509753730e+00  -4.8635679141512940e+00  -4.6882377258396417e+00  -4.3683811287028229e+00  -3.9173017270686517e+00  -3.3529213915759835e+00  -2.6949623634213373e+00  -1.9633562209636688e+00  -1.1774468200291170e+00  -3.5574969739616741e-01  4.8393188695181255e-01  1.3241890001259382e+00  2.1475968391060847e+00  2.9362956248604779e+00  3.6716476791421329e+00  4.3340871218973440e+00  4.9033323969181994e+00  5.3591893488688926e+00  5.6832276694659543e+00  5.8618379917520995e+00  5.8928613317554710e+00  -5.2085002827561402e+00  -5.1776546797766283e+00  -4.9855408926908105e+00  -4.6370632492894215e+00  -4.1495799899956403e+00  -3.5450001257808212e+00  -2.8460662452158751e+00  -2.0745016836897592e+00  -1.2503314379927686e+00  -3.9191561074190967e-01  4.8363583686868655e-01  1.3598705644935452e+00  2.2203307851778407e+00  3.0478772075327454e+00  3.8240579661347502e+00  4.5286344771948110e+00  5.1394862014908131e+00  5.6332683699576620e+00  5.9873580046721502e+00  6.1838990638292017e+00  6.2183915138412331e+00  -5.5678288538797531e+00  -5.5335493725944946e+00  -5.3193528816704347e+00  -4.9343167103367618e+00  -4.4020630755551391e+00  -3.7500362735507844e+00  -3.0046792002715748e+00  -2.1895358055833647e+00  -1.3249836257067109e+00  -4.2875510985370868e-01  4.8323985642057371e-01  1.3960145072386372e+00  2.2945952280828590e+00  3.1630955637180742e+00  3.9837652732683364e+00  4.7360761543423093e+00  5.3960820039639357e+00  5.9366017960568831e+00  6.3291936726539975e+00  6.5494222000384053e+00  6.5886110410707355e+00  -5.9663941960999445e+00  -5.9273841017031055e+00  -5.6835208607347747e+00  -5.2515453284024991e+00  -4.6647986580497527e+00  -3.9581154247468548e+00  -3.1620435282755794e+00  -2.3015473341877759e+00  -1.3966790357272887e+00  -4.6386360580896713e-01  4.8278689691541266e-01  1.4302891676761469e+00  2.3656992610101963e+00  3.2750085095587633e+00  4.1419052584382232e+00  4.9463410917760431e+00  5.6630445649934149e+00  6.2606305648985847e+00  6.7028855839323338e+00  6.9551204103487310e+00  7.0009308927598051e+00  -6.3998134247417786e+00  -6.3538188116535625e+00  -6.0687829046998418e+00  -5.5761216302903653e+00  -4.9240385175659718e+00  -4.1564428673327463e+00  -3.3075509389027165e+00  -2.4025976761293797e+00  -1.4601988017880103e+00  -4.9463632893153653e-01  4.8235494733843864e-01  1.4602336773239044e+00  2.4285265095859923e+00  3.3756973230396534e+00  4.2877619574805994e+00  5.1463908234429070e+00  5.9263447991505771e+00  6.5926429636061821e+00  7.0995343333241001e+00  7.3965268893731810e+00  7.4522971088511492e+00  -6.8625486292917985e+00  -6.8048522697138623e+00  -6.4603697824712381e+00  -5.8893673527663077e+00  -5.1614215445142344e+00  -4.3295803997667939e+00  -3.4295266015632002e+00  -2.4846026211163599e+00  -1.5105298184669675e+00  -5.1864798553740177e-01  4.8205421028439943e-01  1.4836405125468510e+00  2.4782635284208796e+00  3.4572124182816388e+00  4.4096370245628789e+00  5.3204965437157563e+00  6.1670843905711932e+00  6.9135588556156558e+00  7.5047371353036221e+00  7.8670758824275628e+00  7.9393649293433253e+00  -7.3479556228980583e+00  -7.2663862990013044e+00  -6.8332563097078607e+00  -6.1641503446701513e+00  -5.3542545608803271e+00  -4.4611828748940949e+00  -3.5172790865611718e+00  -2.5410718719669863e+00  -1.5440619303390977e+00  -5.3426222862161366e-01  4.8200146406252081e-01  1.4991238601076105e+00  2.5115921987575698e+00  3.5133840412173778e+00  4.4970831406247864e+00  5.4522184810978169e+00  6.3618162280547530e+00  7.1950740822438881e+00  7.8934239877421053e+00  8.3552490621357798e+00  8.4589894767080782e+00  -7.8498493550225978e+00  -7.7077646297592253e+00  -7.1442455621262688e+00  -6.3645733213641584e+00  -5.4794741423992965e+00  -4.5387305192287855e+00  -3.5649791910581525e+00  -2.5697819223440339e+00  -1.5601987044316039e+00  -5.4140121333622848e-01  4.8225695710513361e-01  1.5067648110062020e+00  2.5281931067243253e+00  3.5424604594579341e+00  4.5449577456828516e+00  5.5297187618790833e+00  6.4873161142252833e+00  7.3990582240561409e+00  8.2199541171565667e+00  8.8345244425615590e+00  9.0089618598491796e+00  -8.3662746478318244e+00  -8.0534140246709995e+00  -7.3275816615139737e+00  -6.4568017134872928e+00  -5.5260494007260235e+00  -4.5625579792296040e+00  -3.5771462120243993e+00  -2.5757970342825982e+00  -1.5628976244784099e+00  -5.4222460292523811e-01  4.8271476102284894e-01  1.5085496927781328e+00  2.5319872120397227e+00  3.5497718640167344e+00  4.5586213966462248e+00  5.5550664488243502e+00  6.5349786739368687e+00  7.4918853285620628e+00  8.4097670413693137e+00  9.2261358123554995e+00  9.5836341852867406e+00  -8.6653262692570312e+00  -8.1434846676369759e+00  -7.3383529375414458e+00  -6.4510918619821487e+00  -5.5190920124206295e+00  -4.5570422023395842e+00  -3.5731355349745977e+00  -2.5730100525516999e+00  -1.5611053409420594e+00  -5.4127323583779874e-01  4.8293258545663431e-01  1.5081203802268770e+00  2.5309952381616823e+00  3.5483189717306494e+00  4.5568596837834683e+00  5.5532843728554564e+00  6.5338881615245752e+00  7.4938123459670631e+00  8.4240750111424685e+00  9.2958400751352919e+00  1.0081371026246455e+01  </DataArray> 
</PointData> 
</Piece>
</UnstructuredGrid>
</VTKFile>