<?xml version="1.0"?>
<VTKFile type="UnstructuredGrid"  version="0.1"  >
<UnstructuredGrid>
<Piece  NumberOfPoints="651" NumberOfCells="1200">
<Points>
<DataArray  type="Float64"  NumberOfComponents="3"  format="ascii">0 0 0  50000 0 0  100000 0 0  150000 0 0  200000 0 0  250000 0 0  300000 0 0  350000 0 0  400000 0 0  450000 0 0  500000 0 0  550000 0 0  600000 0 0  650000 0 0  700000 0 0  750000 0 0  800000 0 0  850000 0 0  900000 0 0  950000 0 0  1000000 0 0  0 50000 0  50000 50000 0  100000 50000 0  150000 50000 0  200000 50000 0  250000 50000 0  300000 50000 0  350000 50000 0  400000 50000 0  450000 50000 0  500000 50000 0  550000 50000 0  600000 50000 0  650000 50000 0  700000 50000 0  750000 50000 0  800000 50000 0  850000 50000 0  900000 50000 0  950000 50000 0  1000000 50000 0  0 100000 0  50000 100000 0  100000 100000 0  150000 100000 0  200000 100000 0  250000 100000 0  300000 100000 0  350000 100000 0  400000 100000 0  450000 100000 0  500000 100000 0  550000 100000 0  600000 100000 0  650000 100000 0  700000 100000 0  750000 100000 0  800000 100000 0  850000 100000 0  900000 100000 0  950000 100000 0  1000000 100000 0  0 150000 0  50000 150000 0  100000 150000 0  150000 150000 0  200000 150000 0  250000 150000 0  300000 150000 0  350000 150000 0  400000 150000 0  450000 150000 0  500000 150000 0  550000 150000 0  600000 150000 0  650000 150000 0  700000 150000 0  750000 150000 0  800000 150000 0  850000 150000 0  900000 150000 0  950000 150000 0  1000000 150000 0  0 200000 0  50000 200000 0  100000 200000 0  150000 200000 0  200000 200000 0  250000 200000 0  300000 200000 0  350000 200000 0  400000 200000 0  450000 200000 0  500000 200000 0  550000 200000 0  600000 200000 0  650000 200000 0  700000 200000 0  750000 200000 0  800000 200000 0  850000 200000 0  900000 200000 0  950000 200000 0  1000000 200000 0  0 250000 0  50000 250000 0  100000 250000 0  150000 250000 0  200000 250000 0  250000 250000 0  300000 250000 0  350000 250000 0  400000 250000 0  450000 250000 0  500000 250000 0  550000 250000 0  600000 250000 0  650000 250000 0  700000 250000 0  750000 250000 0  800000 250000 0  850000 250000 0  900000 250000 0  950000 250000 0  1000000 250000 0  0 300000 0  50000 300000 0  100000 300000 0  150000 300000 0  200000 300000 0  250000 300000 0  300000 300000 0  350000 300000 0  400000 300000 0  450000 300000 0  500000 300000 0  550000 300000 0  600000 300000 0  650000 300000 0  700000 300000 0  750000 300000 0  800000 300000 0  850000 300000 0  900000 300000 0  950000 300000 0  1000000 300000 0  0 350000 0  50000 350000 0  100000 350000 0  150000 350000 0  200000 350000 0  250000 350000 0  300000 350000 0  350000 350000 0  400000 350000 0  450000 350000 0  500000 350000 0  550000 350000 0  600000 350000 0  650000 350000 0  700000 350000 0  750000 350000 0  800000 350000 0  850000 350000 0  900000 350000 0  950000 350000 0  1000000 350000 0  0 400000 0  50000 400000 0  100000 400000 0  150000 400000 0  200000 400000 0  250000 400000 0  300000 400000 0  350000 400000 0  400000 400000 0  450000 400000 0  500000 400000 0  550000 400000 0  600000 400000 0  650000 400000 0  700000 400000 0  750000 400000 0  800000 400000 0  850000 400000 0  900000 400000 0  950000 400000 0  1000000 400000 0  0 450000 0  50000 450000 0  100000 450000 0  150000 450000 0  200000 450000 0  250000 450000 0  300000 450000 0  350000 450000 0  400000 450000 0  450000 450000 0  500000 450000 0  550000 450000 0  600000 450000 0  650000 450000 0  700000 450000 0  750000 450000 0  800000 450000 0  850000 450000 0  900000 450000 0  950000 450000 0  1000000 450000 0  0 500000 0  50000 500000 0  100000 500000 0  150000 500000 0  200000 500000 0  250000 500000 0  300000 500000 0  350000 500000 0  400000 500000 0  450000 500000 0  500000 500000 0  550000 500000 0  600000 500000 0  650000 500000 0  700000 500000 0  750000 500000 0  800000 500000 0  850000 500000 0  900000 500000 0  950000 500000 0  1000000 500000 0  0 550000 0  50000 550000 0  100000 550000 0  150000 550000 0  200000 550000 0  250000 550000 0  300000 550000 0  350000 550000 0  400000 550000 0  450000 550000 0  500000 550000 0  550000 550000 0  600000 550000 0  650000 550000 0  700000 550000 0  750000 550000 0  800000 550000 0  850000 550000 0  900000 550000 0  950000 550000 0  1000000 550000 0  0 600000 0  50000 600000 0  100000 600000 0  150000 600000 0  200000 600000 0  250000 600000 0  300000 600000 0  350000 600000 0  400000 600000 0  450000 600000 0  500000 600000 0  550000 600000 0  600000 600000 0  650000 600000 0  700000 600000 0  750000 600000 0  800000 600000 0  850000 600000 0  900000 600000 0  950000 600000 0  1000000 600000 0  0 650000 0  50000 650000 0  100000 650000 0  150000 650000 0  200000 650000 0  250000 650000 0  300000 650000 0  350000 650000 0  400000 650000 0  450000 650000 0  500000 650000 0  550000 650000 0  600000 650000 0  650000 650000 0  700000 650000 0  750000 650000 0  800000 650000 0  850000 650000 0  900000 650000 0  950000 650000 0  1000000 650000 0  0 700000 0  50000 700000 0  100000 700000 0  150000 700000 0  200000 700000 0  250000 700000 0  300000 700000 0  350000 700000 0  400000 700000 0  450000 700000 0  500000 700000 0  550000 700000 0  600000 700000 0  650000 700000 0  700000 700000 0  750000 700000 0  800000 700000 0  850000 700000 0  900000 700000 0  950000 700000 0  1000000 700000 0  0 750000 0  50000 750000 0  100000 750000 0  150000 750000 0  200000 750000 0  250000 750000 0  300000 750000 0  350000 750000 0  400000 750000 0  450000 750000 0  500000 750000 0  550000 750000 0  600000 750000 0  650000 750000 0  700000 750000 0  750000 750000 0  800000 750000 0  850000 750000 0  900000 750000 0  950000 750000 0  1000000 750000 0  0 800000 0  50000 800000 0  100000 800000 0  150000 800000 0  200000 800000 0  250000 800000 0  300000 800000 0  350000 800000 0  400000 800000 0  450000 800000 0  500000 800000 0  550000 800000 0  600000 800000 0  650000 800000 0  700000 800000 0  750000 800000 0  800000 800000 0  850000 800000 0  900000 800000 0  950000 800000 0  1000000 800000 0  0 850000 0  50000 850000 0  100000 850000 0  150000 850000 0  200000 850000 0  250000 850000 0  300000 850000 0  350000 850000 0  400000 850000 0  450000 850000 0  500000 850000 0  550000 850000 0  600000 850000 0  650000 850000 0  700000 850000 0  750000 850000 0  800000 850000 0  850000 850000 0  900000 850000 0  950000 850000 0  1000000 850000 0  0 900000 0  50000 900000 0  100000 900000 0  150000 900000 0  200000 900000 0  250000 900000 0  300000 900000 0  350000 900000 0  400000 900000 0  450000 900000 0  500000 900000 0  550000 900000 0  600000 900000 0  650000 900000 0  700000 900000 0  750000 900000 0  800000 900000 0  850000 900000 0  900000 900000 0  950000 900000 0  1000000 900000 0  0 950000 0  50000 950000 0  100000 950000 0  150000 950000 0  200000 950000 0  250000 950000 0  300000 950000 0  350000 950000 0  400000 950000 0  450000 950000 0  500000 950000 0  550000 950000 0  600000 950000 0  650000 950000 0  700000 950000 0  750000 950000 0  800000 950000 0  850000 950000 0  900000 950000 0  950000 950000 0  1000000 950000 0  0 1000000 0  50000 1000000 0  100000 1000000 0  150000 1000000 0  200000 1000000 0  250000 1000000 0  300000 1000000 0  350000 1000000 0  400000 1000000 0  450000 1000000 0  500000 1000000 0  550000 1000000 0  600000 1000000 0  650000 1000000 0  700000 1000000 0  750000 1000000 0  800000 1000000 0  850000 1000000 0  900000 1000000 0  950000 1000000 0  1000000 1000000 0  0 1050000 0  50000 1050000 0  100000 1050000 0  150000 1050000 0  200000 1050000 0  250000 1050000 0  300000 1050000 0  350000 1050000 0  400000 1050000 0  450000 1050000 0  500000 1050000 0  550000 1050000 0  600000 1050000 0  650000 1050000 0  700000 1050000 0  750000 1050000 0  800000 1050000 0  850000 1050000 0  900000 1050000 0  950000 1050000 0  1000000 1050000 0  0 1100000 0  50000 1100000 0  100000 1100000 0  150000 1100000 0  200000 1100000 0  250000 1100000 0  300000 1100000 0  350000 1100000 0  400000 1100000 0  450000 1100000 0  500000 1100000 0  550000 1100000 0  600000 1100000 0  650000 1100000 0  700000 1100000 0  750000 1100000 0  800000 1100000 0  850000 1100000 0  900000 1100000 0  950000 1100000 0  1000000 1100000 0  0 1150000 0  50000 1150000 0  100000 1150000 0  150000 1150000 0  200000 1150000 0  250000 1150000 0  300000 1150000 0  350000 1150000 0  400000 1150000 0  450000 1150000 0  500000 1150000 0  550000 1150000 0  600000 1150000 0  650000 1150000 0  700000 1150000 0  750000 1150000 0  800000 1150000 0  850000 1150000 0  900000 1150000 0  950000 1150000 0  1000000 1150000 0  0 1200000 0  50000 1200000 0  100000 1200000 0  150000 1200000 0  200000 1200000 0  250000 1200000 0  300000 1200000 0  350000 1200000 0  400000 1200000 0  450000 1200000 0  500000 1200000 0  550000 1200000 0  600000 1200000 0  650000 1200000 0  700000 1200000 0  750000 1200000 0  800000 1200000 0  850000 1200000 0  900000 1200000 0  950000 1200000 0  1000000 1200000 0  0 1250000 0  50000 1250000 0  100000 1250000 0  150000 1250000 0  200000 1250000 0  250000 1250000 0  300000 1250000 0  350000 1250000 0  400000 1250000 0  450000 1250000 0  500000 1250000 0  550000 1250000 0  600000 1250000 0  650000 1250000 0  700000 1250000 0  750000 1250000 0  800000 1250000 0  850000 1250000 0  900000 1250000 0  950000 1250000 0  1000000 1250000 0  0 1300000 0  50000 1300000 0  100000 1300000 0  150000 1300000 0  200000 1300000 0  250000 1300000 0  300000 1300000 0  350000 1300000 0  400000 1300000 0  450000 1300000 0  500000 1300000 0  550000 1300000 0  600000 1300000 0  650000 1300000 0  700000 1300000 0  750000 1300000 0  800000 1300000 0  850000 1300000 0  900000 1300000 0  950000 1300000 0  1000000 1300000 0  0 1350000 0  50000 1350000 0  100000 1350000 0  150000 1350000 0  200000 1350000 0  250000 1350000 0  300000 1350000 0  350000 1350000 0  400000 1350000 0  450000 1350000 0  500000 1350000 0  550000 1350000 0  600000 1350000 0  650000 1350000 0  700000 135
[...]
<PointData  Scalars="f_25"> 
<DataArray  type="Float64"  Name="f_25"  format="ascii">-7.5603182954372681e+00  -6.8894534085747221e+00  -6.1450935706993857e+00  -5.3508450272056836e+00  -4.5313032265901567e+00  -3.6941278888433136e+00  -2.8434615721235166e+00  -1.9824631906930437e+00  -1.1139749129946612e+00  -2.4075298168969403e-01  6.3444079092793493e-01  1.5087960961854070e+00  2.3794200083865040e+00  3.2432815744856298e+00  4.0970958277312635e+00  4.9370772385924528e+00  5.7584199918955035e+00  6.5541439115874445e+00  7.3117395530338953e+00  7.9993388082064074e+00  8.4451430310810132e+00  -7.1352518699547858e+00  -6.8298242388975670e+00  -6.1328141230267308e+00  -5.3491675280932114e+00  -4.5322201540699831e+00  -3.6956452937150353e+00  -2.8449672184395900e+00  -1.9837084506906919e+00  -1.1148286986939111e+00  -2.4112785309719154e-01  6.3461709069435801e-01  1.5095971095859149e+00  2.3809367955454035e+00  3.2456442912252816e+00  4.1004979669042241e+00  4.9417553563664613e+00  5.7643127444846005e+00  6.5589412764110104e+00  7.3024090654613563e+00  7.9222143972779246e+00  8.1896193992108692e+00  -6.6444447321578535e+00  -6.4953347512465927e+00  -5.9705942992983543e+00  -5.2697773914000310e+00  -4.4914218498630651e+00  -3.6739263070948773e+00  -2.8332463037860087e+00  -1.9774296549423029e+00  -1.1115690721961700e+00  -2.3959834206705849e-01  6.3499953559916567e-01  1.5088715769413501e+00  2.3785950479223215e+00  3.2404547330950311e+00  4.0900370372861135e+00  4.9213165644685404e+00  5.7244259199562970e+00  6.4800469743206541e+00  7.1456982147196673e+00  7.6268931109234668e+00  7.7484399273335942e+00  -6.1747259674856281e+00  -6.0859983800717510e+00  -5.6916549050851977e+00  -5.0954626475046219e+00  -4.3841323931991010e+00  -3.6076426861746596e+00  -2.7922826032761026e+00  -1.9525408033512845e+00  -1.0973556867889258e+00  -2.3305792000356720e-01  6.3521184269857034e-01  1.5027481815577755e+00  2.3647667711083624e+00  3.2158683008363242e+00  4.0492133366010625e+00  4.8549857012606603e+00  5.6173714627599267e+00  6.3087676148106215e+00  6.8800079356749286e+00  7.2498643458466638e+00  7.3196811789946103e+00  -5.7309232647412722e+00  -5.6690683663785837e+00  -5.3596609799869714e+00  -4.8549637164955541e+00  -4.2177329588247821e+00  -3.4950564312757093e+00  -2.7175208932000623e+00  -1.9045060857371279e+00  -1.0688502581342187e+00  -2.1981510911702221e-01  6.3516370081774109e-01  1.4893876064148912e+00  2.3360822817041629e+00  3.1675752139960971e+00  3.9741873109648482e+00  4.7425001928258270e+00  5.4525919276444936e+00  6.0740105644315321e+00  6.5614866796150686e+00  6.8556458028982110e+00  6.9050377710491286e+00  -5.3149266520585856e+00  -5.2671917382661020e+00  -5.0135783521778281e+00  -4.5808406435259341e+00  -4.0120649685965724e+00  -3.3462898458237182e+00  -2.6133657191493551e+00  -1.8348320477383682e+00  -1.0263329689180936e+00  -1.9980459915534174e-01  6.3490610252224378e-01  1.4688592282415849e+00  2.2930569003024019e+00  3.0974827841237160e+00  3.8699468130022892e+00  4.5945607765736982e+00  5.2497882901871131e+00  5.8064296766798948e+00  6.2270150323758031e+00  6.4704088887078246e+00  6.5097830177550025e+00  -4.9294235374567119e+00  -4.8902053122733689e+00  -4.6748108055426503e+00  -4.2972586775387365e+00  -3.7871502643297683e+00  -3.1753850332922173e+00  -2.4887439128638076e+00  -1.7487927526497908e+00  -9.7264160917149023e-01  -1.7421236536855975e-01  6.3453815206870612e-01  1.4425616645632680e+00  2.2387763262564344e+00  3.0111371170783512e+00  3.7456254130089031e+00  4.4251276093293823e+00  5.0283389636807829e+00  5.5291911743283810e+00  5.8979591490531638e+00  6.1061908009518353e+00  6.1395838948127412e+00  -4.5772707364852456e+00  -4.5437166791604016e+00  -4.3556552151641039e+00  -4.0205071690661960e+00  -3.5591237991441855e+00  -2.9957725212113373e+00  -2.3536460572306823e+00  -1.6531784654882113e+00  -9.1188841497233808e-01  -1.4492482976657106e-01  6.3415340133714004e-01  1.4125661872138333e+00  2.1775221952444688e+00  2.9154424578827718e+00  3.6111929927290847e+00  4.2473831469690353e+00  4.8039210750041370e+00  5.2582423473882782e+00  5.5869290878741174e+00  5.7698234791776555e+00  5.7991654969358990e+00  -4.2610760621710080e+00  -4.2315405693130659e+00  -4.0637098444998188e+00  -3.7614382752186506e+00  -3.3399623912387728e+00  -2.8185839968037008e+00  -2.2172217199491744e+00  -1.5547510224933161e+00  -8.4844272232320450e-01  -1.1404386465740565e-01  6.3381803515911961e-01  1.3810967544581056e+00  2.1137506715220105e+00  2.8171771362320643e+00  3.4757070615585404e+00  4.0722512649419453e+00  4.5882722481667413e+00  5.0043639518261100e+00  5.3018325998053069e+00  5.4658662908777185e+00  5.4922679730130595e+00  -3.9830499628811546e+00  -3.9564838036662637e+00  -3.8039685211869063e+00  -3.5273587924558272e+00  -3.1382669693203074e+00  -2.6524169720790503e+00  -2.0870385643865310e+00  -1.4594374157818009e+00  -7.8630970771989417e-01  -8.3560474934628134e-02  6.3356845852731847e-01  1.3502061376943550e+00  2.0514950894021804e+00  2.7222415219596572e+00  3.3466442532412195e+00  3.9081959600744547e+00  4.3898887708512824e+00  4.7748946099381175e+00  5.0479225663214189e+00  5.1976212152592032e+00  5.2218157486496759e+00  -3.7449794909158030e+00  -3.7206562682225854e+00  -3.5798441329998654e+00  -3.3232476731553704e+00  -2.9601166992930863e+00  -2.5036469597565008e+00  -1.9689827315527615e+00  -1.3720435219819576e+00  -7.2884487710306367e-01  -5.5184389543269749e-02  6.3341728995954560e-01  1.3216209732399380e+00  1.9941042838677157e+00  2.6354016281105599e+00  3.2298210550528359e+00  3.7615182940165210e+00  4.2148190465739441e+00  4.5748845696180140e+00  4.8288253086304396e+00  4.9675505376469662e+00  4.9900734907117998e+00  -3.5482527389649476e+00  -3.5256321344085757e+00  -3.3937075753435217e+00  -3.1525152770930722e+00  -2.8097568546586729e+00  -2.3768682984921128e+00  -1.8674395999223172e+00  -1.2962591348278114e+00  -6.7868777752430887e-01  -3.0286683310552946e-02  6.3336105482077387e-01  1.2967004741805723e+00  1.9441929800930884e+00  2.5603071242734168e+00  3.1295751057257659e+00  3.6367777926168356e+00  4.0673175737820353e+00  4.4078293088182647e+00  4.6470900236684924e+00  4.7774932137349451e+00  4.7987681787074408e+00  -3.3939029836168908e+00  -3.3725561369911494e+00  -3.2471987120156274e+00  -3.0174831200667742e+00  -2.6901053062073590e+00  -2.2753043664237249e+00  -1.7855585246325119e+00  -1.2347924773262469e+00  -6.3781140104135126e-01  -9.9083530933062134e-03  6.3338665968624441e-01  1.2764574110478484e+00  1.9037012978714938e+00  2.4996304375338911e+00  3.0490253553841575e+00  3.5371881846768578e+00  3.9503329119689963e+00  4.2761385682245123e+00  4.5045088274123737e+00  4.6288026150707013e+00  4.6491870525052219e+00  -3.2826574575689933e+00  -3.2622233896217603e+00  -3.1414207553265809e+00  -2.9196938956570162e+00  -2.6031116000505676e+00  -2.2011390807292801e+00  -1.7255089655204849e+00  -1.1895392556718858e+00  -6.0761630465387984e-01  5.2014330982069245e-03  6.3347591048626983e-01  1.2616045564678868e+00  1.8739943974255930e+00  2.4552367226990368e+00  2.9903233032011132e+00  3.4649392518206175e+00  3.8658565765816846e+00  4.1814421268557611e+00  4.4023183179836627e+00  4.5224458031977361e+00  4.5422578846131891e+00  -3.2149818837067499e+00  -3.1951405509713751e+00  -3.0770670723189335e+00  -2.8601134603933756e+00  -2.5500036515239350e+00  -2.1557632231741066e+00  -1.6886900948229782e+00  -1.1617373485740448e+00  -5.8902776682879066e-01  1.4540667950531241e-02  6.3360826735263920e-01  1.2526041188541379e+00  1.8559622385223919e+00  2.4283379125016853e+00  2.9548585225381712e+00  3.4214368971768416e+00  3.8151641648401053e+00  4.1247905541622352e+00  4.3413321368379894e+00  4.4590776822093527e+00  4.4786134111109606e+00  -3.1911149454064103e+00  -3.1715695368516492e+00  -3.0545022984545129e+00  -2.8392582715663219e+00  -2.5314479061019646e+00  -2.1399420389155464e+00  -1.6758816143368296e+00  -1.1520849159039555e+00  -5.8257431711609764e-01  1.7816500359516551e-02  6.3376230190704952e-01  1.2497081034545690e+00  1.8500989209301812e+00  2.4196095197180356e+00  2.9434062181509115e+00  3.4074666427296307e+00  3.7989725099160392e+00  4.1067828753804205e+00  4.3220269022686031e+00  4.4390941406657474e+00  4.4586395492205186e+00  -3.2110888072968571e+00  -3.1915530783952564e+00  -3.0738075330239010e+00  -2.8572659503481508e+00  -2.5476395610260290e+00  -2.1539122933627759e+00  -1.6873339187240957e+00  -1.1608133086876153e+00  -5.8843763470832389e-01  1.4920484959948393e-02  6.3391633646146484e-01  1.2529839358635673e+00  1.8565523706428859e+00  2.4292619523881300e+00  2.9562146986370617e+00  3.4232878269882012e+00  3.8175282553380327e+00  4.1276380642074777e+00  4.3445916761330707e+00  4.4626651547855296e+00  4.4825064875209035e+00  -3.2747332807990785e+00  -3.2549211993836407e+00  -3.1347937141695801e+00  -2.9139175230416696e+00  -2.5983319727676188e+00  -2.1974146480065655e+00  -1.7227986993870523e+00  -1.1877121188849717e+00  -6.0646979361151498e-01  5.9200473462167041e-03  6.3404869332785208e-01  1.2623231707159168e+00  1.8751409084679931e+00  2.4570638594859906e+00  2.9930335693346013e+00  3.4686636845434005e+00  3.8706362038646920e+00  4.1872184994711352e+00  4.4089453591407608e+00  4.5297479934359783e+00  4.5501820613832020e+00  -3.3816624486910838e+00  -3.3612780112565566e+00  -3.2369842235982440e+00  -3.0086139644103786e+00  -2.6828083081549017e+00  -2.2696635808627943e+00  -1.7815007515700774e+00  -1.2321058337198043e+00  -6.3617669405738486e-01  -8.9328072337223879e-03  6.3413794412790914e-01  1.2774329569074681e+00  1.9053360048555001e+00  2.5023170811403794e+00  3.0530831284466462e+00  3.5428289702378626e+00  3.9576299100215326e+00  4.2850077238809403e+00  4.5147233158297961e+00  4.6400807408053195e+00  4.6614275874310618e+00  -3.5312435748932907e+00  -3.5099686099208043e+00  -3.3795654198543534e+00  -3.1403047050041466e+00  -2.7997929699679220e+00  -2.3692531888027366e+00  -1.8620505019116611e+00  -1.2927825204592973e+00  -6.7666837627894849e-01  -2.9175870366416605e-02  6.3416354899340555e-01  1.2978112871247405e+00  1.9462123813384902e+00  2.5637837386419671e+00  3.1349642037364651e+00  3.6443929023062487e+00  4.0772814584728438e+00  4.4200398809072334e+00  4.6612321791576523e+00  4.7931567382226978e+00  4.8157773427790813e+00  -3.7225488868976044e+00  -3.7000259338327792e+00  -3.5613007048162579e+00  -3.3073599658038533e+00  -2.9472944427597803e+00  -2.4939936902023536e+00  -1.9622964512386676e+00  -1.3678770242963905e+00  -7.2657968005352713e-01  -5.4096369425737360e-02  6.3410731385467523e-01  1.3227089933574967e+00  1.9963694809172909e+00  2.6395681257961789e+00  3.2365073353669840e+00  3.7711715635707055e+00  4.2276413031072719e+00  4.5907722769695285e+00  4.8473687368140181e+00  4.9881808720367165e+00  5.0125040947299295e+00  -3.9542911448354103e+00  -3.9300966114449771e+00  -3.7803979625071840e+00  -3.5073700061239101e+00  -3.1223641670370719e+00  -2.6406713562602366e+00  -2.0791196494270001e+00  -1.4547169181454389e+00  -7.8397048558794158e-01  -8.2681533880090932e-02  6.3395614528695987e-01  1.3510850787489155e+00  2.0538343115341764e+00  2.7269620195960957e+00  3.3545631682008250e+00  3.9199415758933198e+00  4.4057915731345370e+00  4.7948833962700119e+00  5.0714931250010773e+00  5.2240084074804045e+00  5.2505745666952635e+00  -4.2247433691987810e+00  -4.1983416870634569e+00  -4.0343079959910222e+00  -3.7368393480118458e+00  -3.3207476443524868e+00  -2.8047266611276798e+00  -2.2081824577442712e+00  -1.5496525324177710e+00  -8.4622606770769637e-01  -1.1357215064377910e-01  6.3370656865522257e-01  1.3815684684717624e+00  2.1159673261375609e+00  2.8222756263076789e+00  3.4847463237635279e+00  4.0861086006180090e+00  4.6074869950530370e+00  5.0289628790328758e+00  5.3312344483140048e+00  5.4990651731272377e+00  5.5286006659851763e+00  -4.5316408931215815e+00  -4.5022988753633255e+00  -4.3194044840597892e+00  -3.9907177435739825e+00  -3.5363964711898297e+00  -2.9798585431547111e+00  -2.3436683889147445e+00  -1.6479178540684052e+00  -9.0999759143009495e-01  -1.4504158339944498e-01  6.3337120247726075e-01  1.4124494335809819e+00  2.1794130187867462e+00  2.9207030693026086e+00  3.6211706610450558e+00  4.2632971250256775e+00  4.8266484029585017e+00  5.2880317728804593e+00  5.6231798189783273e+00  5.8112412829746178e+00  5.8447953402994601e+00  -4.8720592909984068e+00  -4.8386661971375036e+00  -4.6304345452388453e+00  -4.2616665705140626e+00  -3.7608143598664219e+00  -3.1576030055150026e+00  -2.4781008091944892e+00  -1.7436125132639111e+00  -9.7125172244198343e-01  -1.7503706074880995e-01  6.3298645174575763e-01  1.4417369691830297e+00  2.2401662129859545e+00  3.0163173564642212e+00  3.7562685166782090e+00  4.4429096371065864e+00  5.0546748681441347e+00  5.5647832813530735e+00  5.9423354093569438e+00  6.1577299160876278e+00  6.1969481412709815e+00  -5.2422584139406192e+00  -5.2028842848934689e+00  -4.9594904285614225e+00  -4.5389050728654974e+00  -3.9822636863726979e+00  -3.3270361727592865e+00  -2.6024222091878295e+00  -1.8299581803092040e+00  -1.0255322964878866e+00  -2.0133462442707145e-01  6.3261850129227726e-01  1.4673292029698664e+00  2.2938575727326125e+00  3.1023566515528569e+00  3.8808903229638130e+00  4.6138144496381672e+00  5.2795895724110053e+00  5.8483652473403263e+00  6.2811029559921625e+00  6.5347163420804355e+00  6.5824512558729218e+00  -5.6375131672347045e+00  -5.5881211990837931e+00  -5.2939620758006241e+00  -4.8064859606170849e+00  -4.1850673238300367e+00  -3.4749755890113714e+00  -2.7066627071503397e+00  -1.9000506101815475e+00  -1.0685576778896080e+00  -2.2186300260033767e-01  6.3236090299682068e-01  1.4873397129315857e+00  2.3363748619487676e+00  3.1720306895516530e+00  3.9850454970145761e+00  4.7625810350902400e+00  5.4852575626392603e+00  6.1224883203100005e+00  6.6271855838013991e+00  6.9365929701929838e+00  6.9984478685556697e+00  -6.0521565751801329e+00  -5.9823397420321900e+00  -5.6124833318604610e+00  -5.0412430109961468e+00  -4.3498468589454440e+00  -3.5874610974461536e+00  -2.7816887327865123e+00  -1.9483436970217543e+00  -1.0972421672937787e+00  -2.3522357774319458e-01  6.3231276111601398e-01  1.5005825238181527e+00  2.3648802906034954e+00  3.2200654071658370e+00  4.0598072070906701e+00  4.8751672899892311e+00  5.6516569970136503e+00  6.3629872513191152e+00  6.9591795088996600e+00  7.3535229838861991e+00  7.4422505713000753e+00  -6.4809153235190955e+00  -6.3593685071089343e+00  -5.8781736109051854e+00  -5.2125223705061643e+00  -4.4569013161418178e+00  -3.6537919606540266e+00  -2.8225124334715619e+00  -1.9729301292804409e+00  -1.1110704441077428e+00  -2.4134697312676112e-01  6.3252506821543275e-01  1.5071229458816529e+00  2.3790936760107542e+00  3.2449542587568629e+00  4.1007709076005794e+00  4.9414509109094471e+00  5.7589464536776296e+00  6.5373019952145546e+00  7.2381189031128397e+00  7.7628593550610558e+00  7.9119693359723691e+00  -6.9220947953963865e+00  -6.6546897934634401e+00  -6.0348844616469366e+00  -5.2914166725965632e+00  -4.4967881406701267e+00  -3.6742307525519515e+00  -2.8329733630896716e+00  -1.9781196874107034e+00  -1.1134121917308146e+00  -2.4207250577132022e-01  6.3290751312023996e-01  1.5086524569117912e+00  2.3823533025085042e+00  3.2512330545052772e+00  4.1124918222541700e+00  4.9631698975295810e+00  5.7997447578845405e+00  6.6166921319077368e+00  7.4003387268412570e+00  8.0973488427120639e+00  8.4027764737692898e+00  -7.1776184272665304e+00  -6.7318142043919202e+00  -6.0442149492194481e+00  -5.2866193077729884e+00  -4.4908953880810172e+00  -3.6695526347779421e+00  -2.8295712239167101e+00  -1.9757569706710527e+00  -1.1118954045719089e+00  -2.4127149237080864e-01  6.3308381288666893e-01  1.5082775855042869e+00  2.3814995168092588e+00  3.2499877945076294e+00  4.1109861759380930e+00  4.9616524926578593e+00  5.7988278304047123e+00  6.6183696310202240e+00  7.4126181745138915e+00  8.1569780123892315e+00  8.8278428992517792e+00  </DataArray> 
</PointData> 
</Piece>
</UnstructuredGrid>
</VTKFile>