<?xml version="1.0"?>
<VTKFile type="UnstructuredGrid"  version="0.1"  >
<UnstructuredGrid>
<Piece  NumberOfPoints="651" NumberOfCells="1200">
<Points>
<DataArray  type="Float64"  NumberOfComponents="3"  format="ascii">0 0 0  50000 0 0  100000 0 0  150000 0 0  200000 0 0  250000 0 0  300000 0 0  350000 0 0  400000 0 0  450000 0 0  500000 0 0  550000 0 0  600000 0 0  650000 0 0  700000 0 0  750000 0 0  800000 0 0  850000 0 0  900000 0 0  950000 0 0  1000000 0 0  0 50000 0  50000 50000 0  100000 50000 0  150000 50000 0  200000 50000 0  250000 50000 0  300000 50000 0  350000 50000 0  400000 50000 0  450000 50000 0  500000 50000 0  550000 50000 0  600000 50000 0  650000 50000 0  700000 50000 0  750000 50000 0  800000 50000 0  850000 50000 0  900000 50000 0  950000 50000 0  1000000 50000 0  0 100000 0  50000 100000 0  100000 100000 0  150000 100000 0  200000 100000 0  250000 100000 0  300000 100000 0  350000 100000 0  400000 100000 0  450000 100000 0  500000 100000 0  550000 100000 0  600000 100000 0  650000 100000 0  700000 100000 0  750000 100000 0  800000 100000 0  850000 100000 0  900000 100000 0  950000 100000 0  1000000 100000 0  0 150000 0  50000 150000 0  100000 150000 0  150000 150000 0  200000 150000 0  250000 150000 0  300000 150000 0  350000 150000 0  400000 150000 0  450000 150000 0  500000 150000 0  550000 150000 0  600000 150000 0  650000 150000 0  700000 150000 0  750000 150000 0  800000 150000 0  850000 150000 0  900000 150000 0  950000 150000 0  1000000 150000 0  0 200000 0  50000 200000 0  100000 200000 0  150000 200000 0  200000 200000 0  250000 200000 0  300000 200000 0  350000 200000 0  400000 200000 0  450000 200000 0  500000 200000 0  550000 200000 0  600000 200000 0  650000 200000 0  700000 200000 0  750000 200000 0  800000 200000 0  850000 200000 0  900000 200000 0  950000 200000 0  1000000 200000 0  0 250000 0  50000 250000 0  100000 250000 0  150000 250000 0  200000 250000 0  250000 250000 0  300000 250000 0  350000 250000 0  400000 250000 0  450000 250000 0  500000 250000 0  550000 250000 0  600000 250000 0  650000 250000 0  700000 250000 0  750000 250000 0  800000 250000 0  850000 250000 0  900000 250000 0  950000 250000 0  1000000 250000 0  0 300000 0  50000 300000 0  100000 300000 0  150000 300000 0  200000 300000 0  250000 300000 0  300000 300000 0  350000 300000 0  400000 300000 0  450000 300000 0  500000 300000 0  550000 300000 0  600000 300000 0  650000 300000 0  700000 300000 0  750000 300000 0  800000 300000 0  850000 300000 0  900000 300000 0  950000 300000 0  1000000 300000 0  0 350000 0  50000 350000 0  100000 350000 0  150000 350000 0  200000 350000 0  250000 350000 0  300000 350000 0  350000 350000 0  400000 350000 0  450000 350000 0  500000 350000 0  550000 350000 0  600000 350000 0  650000 350000 0  700000 350000 0  750000 350000 0  800000 350000 0  850000 350000 0  900000 350000 0  950000 350000 0  1000000 350000 0  0 400000 0  50000 400000 0  100000 400000 0  150000 400000 0  200000 400000 0  250000 400000 0  300000 400000 0  350000 400000 0  400000 400000 0  450000 400000 0  500000 400000 0  550000 400000 0  600000 400000 0  650000 400000 0  700000 400000 0  750000 400000 0  800000 400000 0  850000 400000 0  900000 400000 0  950000 400000 0  1000000 400000 0  0 450000 0  50000 450000 0  100000 450000 0  150000 450000 0  200000 450000 0  250000 450000 0  300000 450000 0  350000 450000 0  400000 450000 0  450000 450000 0  500000 450000 0  550000 450000 0  600000 450000 0  650000 450000 0  700000 450000 0  750000 450000 0  800000 450000 0  850000 450000 0  900000 450000 0  950000 450000 0  1000000 450000 0  0 500000 0  50000 500000 0  100000 500000 0  150000 500000 0  200000 500000 0  250000 500000 0  300000 500000 0  350000 500000 0  400000 500000 0  450000 500000 0  500000 500000 0  550000 500000 0  600000 500000 0  650000 500000 0  700000 500000 0  750000 500000 0  800000 500000 0  850000 500000 0  900000 500000 0  950000 500000 0  1000000 500000 0  0 550000 0  50000 550000 0  100000 550000 0  150000 550000 0  200000 550000 0  250000 550000 0  300000 550000 0  350000 550000 0  400000 550000 0  450000 550000 0  500000 550000 0  550000 550000 0  600000 550000 0  650000 550000 0  700000 550000 0  750000 550000 0  800000 550000 0  850000 550000 0  900000 550000 0  950000 550000 0  1000000 550000 0  0 600000 0  50000 600000 0  100000 600000 0  150000 600000 0  200000 600000 0  250000 600000 0  300000 600000 0  350000 600000 0  400000 600000 0  450000 600000 0  500000 600000 0  550000 600000 0  600000 600000 0  650000 600000 0  700000 600000 0  750000 600000 0  800000 600000 0  850000 600000 0  900000 600000 0  950000 600000 0  1000000 600000 0  0 650000 0  50000 650000 0  100000 650000 0  150000 650000 0  200000 650000 0  250000 650000 0  300000 650000 0  350000 650000 0  400000 650000 0  450000 650000 0  500000 650000 0  550000 650000 0  600000 650000 0  650000 650000 0  700000 650000 0  750000 650000 0  800000 650000 0  850000 650000 0  900000 650000 0  950000 650000 0  1000000 650000 0  0 700000 0  50000 700000 0  100000 700000 0  150000 700000 0  200000 700000 0  250000 700000 0  300000 700000 0  350000 700000 0  400000 700000 0  450000 700000 0  500000 700000 0  550000 700000 0  600000 700000 0  650000 700000 0  700000 700000 0  750000 700000 0  800000 700000 0  850000 700000 0  900000 700000 0  950000 700000 0  1000000 700000 0  0 750000 0  50000 750000 0  100000 750000 0  150000 750000 0  200000 750000 0  250000 750000 0  300000 750000 0  350000 750000 0  400000 750000 0  450000 750000 0  500000 750000 0  550000 750000 0  600000 750000 0  650000 750000 0  700000 750000 0  750000 750000 0  800000 750000 0  850000 750000 0  900000 750000 0  950000 750000 0  1000000 750000 0  0 800000 0  50000 800000 0  100000 800000 0  150000 800000 0  200000 800000 0  250000 800000 0  300000 800000 0  350000 800000 0  400000 800000 0  450000 800000 0  500000 800000 0  550000 800000 0  600000 800000 0  650000 800000 0  700000 800000 0  750000 800000 0  800000 800000 0  850000 800000 0  900000 800000 0  950000 800000 0  1000000 800000 0  0 850000 0  50000 850000 0  100000 850000 0  150000 850000 0  200000 850000 0  250000 850000 0  300000 850000 0  350000 850000 0  400000 850000 0  450000 850000 0  500000 850000 0  550000 850000 0  600000 850000 0  650000 850000 0  700000 850000 0  750000 850000 0  800000 850000 0  850000 850000 0  900000 850000 0  950000 850000 0  1000000 850000 0  0 900000 0  50000 900000 0  100000 900000 0  150000 900000 0  200000 900000 0  250000 900000 0  300000 900000 0  350000 900000 0  400000 900000 0  450000 900000 0  500000 900000 0  550000 900000 0  600000 900000 0  650000 900000 0  700000 900000 0  750000 900000 0  800000 900000 0  850000 900000 0  900000 900000 0  950000 900000 0  1000000 900000 0  0 950000 0  50000 950000 0  100000 950000 0  150000 950000 0  200000 950000 0  250000 950000 0  300000 950000 0  350000 950000 0  400000 950000 0  450000 950000 0  500000 950000 0  550000 950000 0  600000 950000 0  650000 950000 0  700000 950000 0  750000 950000 0  800000 950000 0  850000 950000 0  900000 950000 0  950000 950000 0  1000000 950000 0  0 1000000 0  50000 1000000 0  100000 1000000 0  150000 1000000 0  200000 1000000 0  250000 1000000 0  300000 1000000 0  350000 1000000 0  400000 1000000 0  450000 1000000 0  500000 1000000 0  550000 1000000 0  600000 1000000 0  650000 1000000 0  700000 1000000 0  750000 1000000 0  800000 1000000 0  850000 1000000 0  900000 1000000 0  950000 1000000 0  1000000 1000000 0  0 1050000 0  50000 1050000 0  100000 1050000 0  150000 1050000 0  200000 1050000 0  250000 1050000 0  300000 1050000 0  350000 1050000 0  400000 1050000 0  450000 1050000 0  500000 1050000 0  550000 1050000 0  600000 1050000 0  650000 1050000 0  700000 1050000 0  750000 1050000 0  800000 1050000 0  850000 1050000 0  900000 1050000 0  950000 1050000 0  1000000 1050000 0  0 1100000 0  50000 1100000 0  100000 1100000 0  150000 1100000 0  200000 1100000 0  250000 1100000 0  300000 1100000 0  350000 1100000 0  400000 1100000 0  450000 1100000 0  500000 1100000 0  550000 1100000 0  600000 1100000 0  650000 1100000 0  700000 1100000 0  750000 1100000 0  800000 1100000 0  850000 1100000 0  900000 1100000 0  950000 1100000 0  1000000 1100000 0  0 1150000 0  50000 1150000 0  100000 1150000 0  150000 1150000 0  200000 1150000 0  250000 1150000 0  300000 1150000 0  350000 1150000 0  400000 1150000 0  450000 1150000 0  500000 1150000 0  550000 1150000 0  600000 1150000 0  650000 1150000 0  700000 1150000 0  750000 1150000 0  800000 1150000 0  850000 1150000 0  900000 1150000 0  950000 1150000 0  1000000 1150000 0  0 1200000 0  50000 1200000 0  100000 1200000 0  150000 1200000 0  200000 1200000 0  250000 1200000 0  300000 1200000 0  350000 1200000 0  400000 1200000 0  450000 1200000 0  500000 1200000 0  550000 1200000 0  600000 1200000 0  650000 1200000 0  700000 1200000 0  750000 1200000 0  800000 1200000 0  850000 1200000 0  900000 1200000 0  950000 1200000 0  1000000 1200000 0  0 1250000 0  50000 1250000 0  100000 1250000 0  150000 1250000 0  200000 1250000 0  250000 1250000 0  300000 1250000 0  350000 1250000 0  400000 1250000 0  450000 1250000 0  500000 1250000 0  550000 1250000 0  600000 1250000 0  650000 1250000 0  700000 1250000 0  750000 1250000 0  800000 1250000 0  850000 1250000 0  900000 1250000 0  950000 1250000 0  1000000 1250000 0  0 1300000 0  50000 1300000 0  100000 1300000 0  150000 1300000 0  200000 1300000 0  250000 1300000 0  300000 1300000 0  350000 1300000 0  400000 1300000 0  450000 1300000 0  500000 1300000 0  550000 1300000 0  600000 1300000 0  650000 1300000 0  700000 1300000 0  750000 1300000 0  800000 1300000 0  850000 1300000 0  900000 1300000 0  950000 1300000 0  1000000 1300000 0  0 1350000 0  50000 1350000 0  100000 1350000 0  150000 1350000 0  200000 1350000 0  250000 1350000 0  300000 1350000 0  350000 1350000 0  400000 1350000 0  450000 1350000 0  500000 1350000 0  550000 1350000 0  600000 1350000 0  650000 1350000 0  700000 135
[...]
<PointData  Scalars="f_25"> 
<DataArray  type="Float64"  Name="f_25"  format="ascii">-9.2493322455096436e+00  -8.4310345118779519e+00  -7.5228649701100556e+00  -6.5537389827276264e+00  -5.5537041834857286e+00  -4.5321201473467081e+00  -3.4940500636178395e+00  -2.4433546839714371e+00  -1.3835071467310123e+00  -3.1787516278763833e-01  7.5016704694310721e-01  1.8171861745824724e+00  2.8796480046407051e+00  3.9338495429499258e+00  4.9757770109963761e+00  6.0008039564250248e+00  7.0030545517557679e+00  7.9739891242984715e+00  8.8982961523271538e+00  9.7370071651283130e+00  1.0280572026252807e+01  -8.7308483083488841e+00  -8.3584653553158983e+00  -7.5079891876810949e+00  -6.5517510498655280e+00  -5.5548534994872680e+00  -4.5339860053423431e+00  -3.4958921481151721e+00  -2.4448732402567845e+00  -1.3845441510627894e+00  -3.1832485992548359e-01  7.5039255068614819e-01  1.8181768875747073e+00  2.8815158895511419e+00  3.9367550598874437e+00  4.9799592295176973e+00  6.0065570234080958e+00  7.0103142945373893e+00  7.9799580008419326e+00  8.8871116032208608e+00  9.6432359652358297e+00  9.9690821816248931e+00  -8.1322281465728796e+00  -7.9505457557303920e+00  -7.3103033745198864e+00  -6.4550944061815807e+00  -5.5052382355138523e+00  -4.5076091021060893e+00  -3.4816801231648413e+00  -2.4372727139952999e+00  -1.3806025314670638e+00  -3.1647155776585689e-01  7.5086793252804973e-01  1.8173221145383565e+00  2.8787119650204707e+00  3.9305015300718553e+00  4.9673025596571856e+00  5.9817594712732181e+00  6.9618263893875909e+00  7.8839183820571819e+00  8.6961669285195757e+00  9.2832058317389166e+00  9.4311568776926471e+00  -7.5593374878794144e+00  -7.4512983942363489e+00  -6.9701855357279365e+00  -6.2426419695224027e+00  -5.3745431427846020e+00  -4.4269110074506237e+00  -3.4318371616492831e+00  -2.4070053384017980e+00  -1.3633243222641747e+00  -3.0852042767274912e-01  7.5113204751942975e-01  1.8098897367255127e+00  2.8619128399622009e+00  3.9006109200573928e+00  4.9176357361849039e+00  5.9010053054866995e+00  6.8314153065725272e+00  7.6751674106823202e+00  8.3722340458110232e+00  8.8234409932527900e+00  8.9083666435396403e+00  -7.0180588121330949e+00  -6.9427788856623289e+00  -6.5653089858865741e+00  -5.9494154119724572e+00  -5.1717232560273425e+00  -4.2897279867582121e+00  -3.3407725480557033e+00  -2.3485139040255887e+00  -1.3286220385174663e+00  -2.9240085589102360e-01  7.5107454710308907e-01  1.7936286045592067e+00  2.8269931284835761e+00  3.8418034421761149e+00  4.8262452900099664e+00  5.7639393269848282e+00  6.6305657822504385e+00  7.3889474635151160e+00  7.9838138407932009e+00  8.3426734298462559e+00  8.4027411295016936e+00  -6.5106922840376882e+00  -6.4526164253121276e+00  -6.1432216093081387e+00  -5.6151366278013155e+00  -4.9209692117740502e+00  -4.1083880147712941e+00  -3.2138396502563662e+00  -2.2636201503064837e+00  -1.2768262616753261e+00  -2.6802720460949536e-01  7.5075836005992835e-01  1.7686190165906881e+00  2.7745724714973448e+00  3.7563929759142112e+00  4.6992008402147274e+00  5.5836010626741341e+00  6.3833019668822857e+00  7.0626539717101524e+00  7.5759079250589609e+00  7.8728408173051871e+00  7.9207259025874839e+00  -6.0405136419608656e+00  -5.9928098811966333e+00  -5.7300409478411760e+00  -5.2692923255952815e+00  -4.6467067507665520e+00  -3.9000158832124421e+00  -3.0619201825986293e+00  -2.1587497141560337e+00  -1.2113923200442915e+00  -2.3684235795811551e-01  7.5030533872837823e-01  1.7365652655795010e+00  2.7084108908201707e+00  3.6511396078455922e+00  4.5476389380442894e+00  5.3770171024694475e+00  6.1132641287344862e+00  6.7245522207249779e+00  7.1745869291424622e+00  7.4286301915492174e+00  7.4692443611415582e+00  -5.6110072168422338e+00  -5.5701988925462471e+00  -5.3407715579657369e+00  -4.9317600548281195e+00  -4.3686237405758357e+00  -3.6809970523709978e+00  -2.8972004184112969e+00  -2.0421834069566414e+00  -1.1373339936070435e+00  -2.0114557133116590e-01  7.4983045454470254e-01  1.6999938052752963e+00  2.6337304932970040e+00  3.5344646900197842e+00  4.3837215495610033e+00  5.1602701519661327e+00  5.8395802326540700e+00  6.3941007525383800e+00  6.7952369891960620e+00  7.0183768661026740e+00  7.0540666449728713e+00  -5.2253546008053293e+00  -5.1894367044521514e+00  -4.9846847008679616e+00  -4.6157829013872460e+00  -4.1013356756784791e+00  -3.4649148115254480e+00  -2.7308438811001361e+00  -1.9221704993753475e+00  -1.0599811015749474e+00  -1.6350028627684757e-01  7.4941506761282617e-01  1.6616182074028358e+00  2.5559680584062190e+00  3.4146383170481869e+00  4.2185000411717946e+00  4.9466894418390241e+00  5.5765729462240436e+00  6.0844546632268379e+00  6.4475069245231182e+00  6.6476439354482979e+00  6.6797592612589192e+00  -4.8862531421028441e+00  -4.8539476368841799e+00  -4.6678739394358555e+00  -4.3302778057428961e+00  -3.8553390932026086e+00  -3.2622612851206463e+00  -2.5720854280944012e+00  -1.8059432565051277e+00  -9.8422049392591160e-01  -1.2633550996094703e-01  7.4910398563141911e-01  1.6239435671763094e+00  2.4800453528972835e+00  3.2988605511635178e+00  4.0610981169245557e+00  4.7466037687928004e+00  5.3346105864616833e+00  5.8045694173892990e+00  6.1378066713723465e+00  6.3204609526098467e+00  6.3498927325534389e+00  -4.5958838933344053e+00  -4.5663061972790349e+00  -4.3945040243569347e+00  -4.0813211837807035e+00  -3.6380534183141897e+00  -3.0808175617852545e+00  -2.4281087031827746e+00  -1.6993667073180465e+00  -9.1414699345698580e-01  -9.1737516201748567e-02  7.4891282622638733e-01  1.5890771878784322e+00  2.4100493370523006e+00  3.1929478744088375e+00  3.9186143276962606e+00  4.5677031486247532e+00  5.1210748516835709e+00  5.5606084864906133e+00  5.8705618948993044e+00  6.0398333601973011e+00  6.0672323276933451e+00  -4.3559412316187238e+00  -4.3284335280919937e+00  -4.1674684219793043e+00  -3.8730753517982350e+00  -3.4546601679879396e+00  -2.9261912466742013e+00  -2.3042662032150187e+00  -1.6069442641714538e+00  -8.5298208563718458e-01  -6.1379577967125801e-02  7.4883746016956898e-01  1.5586780639429958e+00  2.3491713330334667e+00  3.1013547705811528e+00  3.7963428733061511e+00  4.4155526569727943e+00  4.9411585735968586e+00  5.3568383399111372e+00  5.6488842213373838e+00  5.8080062747087009e+00  5.8338871145486770e+00  -4.1676865746370773e+00  -4.1417268793241426e+00  -3.9887686261384028e+00  -3.7083738760782778e+00  -3.3087209095527408e+00  -2.8023168536266239e+00  -2.2044020729742324e+00  -1.5319815781443651e+00  -8.0313395650337704e-01  -3.6532272898952112e-02  7.4886195693038204e-01  1.5339824120579844e+00  2.2997794690278863e+00  3.0273432388307766e+00  3.6980908267111134e+00  4.2940751225566496e+00  4.7984609924607620e+00  5.1962006275713835e+00  5.4749615818255082e+00  5.6266323838650711e+00  5.6514294583239852e+00  -4.0320077781613950e+00  -4.0071568450702424e+00  -3.8597512279030837e+00  -3.5890998113654882e+00  -3.2026153739053504e+00  -2.7118602359016020e+00  -2.1311645221090205e+00  -1.4767926807663452e+00  -7.6631220681109391e-01  -1.8110063586851837e-02  7.4896412904580922e-01  1.5158603105016055e+00  2.2635401826319348e+00  2.9731900776673621e+00  3.6264845770673340e+00  4.2059437449405062e+00  4.6954133858598102e+00  5.0806851811714413e+00  5.3503040204151810e+00  5.4968929415771699e+00  5.5209929159692122e+00  -3.9494733899903265e+00  -3.9253418869853727e+00  -3.7812625542238161e+00  -3.5164321160364223e+00  -3.1378424489246264e+00  -2.6565191259075878e+00  -2.0862615420325117e+00  -1.4428886728416441e+00  -7.4364633792107193e-01  -6.7257536122068400e-03  7.4911891238564199e-01  1.5048760039952120e+00  2.2415399053141387e+00  2.9403747995365848e+00  3.5832205502257546e+00  4.1528749668678611e+00  4.6335732270154626e+00  5.0115748906198148e+00  5.2759053403021658e+00  5.4195881447048517e+00  5.4433507979258815e+00  -3.9203746494929366e+00  -3.8966015963979466e+00  -3.7537475788249242e+00  -3.4910011155631144e+00  -3.1152155933584482e+00  -2.6372276302902762e+00  -2.0706449174279804e+00  -1.4311218160129247e+00  -7.3578154567314558e-01  -2.7368381721910302e-03  7.4930015392727956e-01  1.5013371460267353e+00  2.2343818535276823e+00  2.9297221238674616e+00  3.5692452252825189e+00  4.1358279381448106e+00  4.6138159012129849e+00  4.9896014234177022e+00  5.2523478866795044e+00  5.3952019042525414e+00  5.4189749573475483e+00  -3.9447504900712782e+00  -3.9209878368502569e+00  -3.7773050324475879e+00  -3.5129745827652510e+00  -3.1349729191609281e+00  -2.6542746590133506e+00  -2.0846202423712357e+00  -1.4417744916820701e+00  -7.4293959745962501e-01  -6.2756961406704708e-03  7.4948139546892345e-01  1.5053260614667694e+00  2.2422466457756265e+00  2.9414889806961879e+00  3.5848618498870612e+00  4.1551194337621480e+00  4.6364427567791928e+00  5.0150324238910100e+00  5.2798628620784598e+00  5.4239421948400439e+00  5.4480736978449942e+00  -4.0223926081145995e+00  -3.9982926337225786e+00  -3.8517037125606106e+00  -3.5820848733168758e+00  -3.1968130780052970e+00  -2.7073434370860290e+00  -2.1278842692128390e+00  -1.4745897698128567e+00  -7.6493987477741210e-01  -1.7260002647045854e-02  7.4963617880877575e-01  1.5167103714414414e+00  2.2649125146656734e+00  2.9753929886209183e+00  3.6297648299636056e+00  4.2104605437561942e+00  4.7012156817599537e+00  5.0877001192200897e+00  5.3583515357577784e+00  5.5057571529249998e+00  5.5306080860161382e+00  -4.1528291504693380e+00  -4.1280320760104159e+00  -3.9763612739708725e+00  -3.6976003197167513e+00  -3.2998606846062053e+00  -2.7954748147021453e+00  -2.1994905188565887e+00  -1.5287429309762395e+00  -8.0117916117332211e-01  -3.5382104203396679e-02  7.4973835092424135e-01  1.5351325807535876e+00  2.3017342643579988e+00  3.0305818859989717e+00  3.7030023808288393e+00  4.3009171614812391e+00  4.8073212174074120e+00  5.2069741839329424e+00  5.4873689339930829e+00  5.6403271871788245e+00  5.6662868824917609e+00  -4.3352868066940173e+00  -4.3094059668540554e+00  -4.1502839134827401e+00  -3.8582380320565259e+00  -3.4425582657422602e+00  -2.9169523491182328e+00  -2.2977425654515935e+00  -1.6027544627265744e+00  -8.5057102517886074e-01  -6.0077756088369280e-02  7.4976284768508761e-01  1.5599798858217928e+00  2.3515823934918467e+00  3.1055445720260857e+00  3.8028665110696402e+00  4.4247915545288041e+00  4.9532604758426091e+00  5.3716756596528930e+00  5.6660687298339294e+00  5.8270338359466018e+00  5.8545415394733480e+00  -4.5686320198386321e+00  -4.5412330523425979e+00  -4.3719615870446127e+00  -4.0620081786359545e+00  -3.6224745438289059e+00  -3.0691028407700900e+00  -2.4200140198416147e+00  -1.6943475665541912e+00  -9.1144902919763393e-01  -9.0476880023748332e-02  7.4968748162832033e-01  1.5903378240564647e+00  2.4127473013117027e+00  3.1979670151727584e+00  3.9267090110374894e+00  4.5794178696399515e+00  5.1366537261688672e+00  5.5799214916353508e+00  5.8931043322115801e+00  6.0649065051336475e+00  6.0944842011890081e+00  -4.8512924246986424e+00  -4.8218606447551071e+00  -4.6392063635175935e+00  -4.3059691095345869e+00  -3.8360102786069672e+00  -3.2480034609380755e+00  -2.5624978090698445e+00  -1.8002602433088171e+00  -9.8144504504255670e-01  -1.2534325932155080e-01  7.4949632222335916e-01  1.6249358178157349e+00  2.4828208017806950e+00  3.3045435643599297e+00  4.0706857359492048e+00  4.7608615929754219e+00  5.3539394010573318e+00  5.8288781135975700e+00  6.1664742472905116e+00  6.3525479447387916e+00  6.3848534499574106e+00  -5.1811589534041183e+00  -5.1490436275935219e+00  -4.9489066166683111e+00  -4.5858543553720530e+00  -4.0779726383692694e+00  -3.4480891339842383e+00  -2.7198997333170216e+00  -1.9160380091933864e+00  -1.0573677505513963e+00  -1.6301789954799964e-01  7.4918524024202859e-01  1.6621005941317193e+00  2.5585814094298196e+00  3.4207708072302321e+00  4.2294441889550098e+00  4.9635151193802693e+00  5.5999359835332418e+00  6.1143832092419643e+00  6.4832850087226346e+00  6.6880370123067943e+00  6.7239549086599695e+00  -5.5554663371180215e+00  -5.5197765582478073e+00  -5.2966366813412060e+00  -4.8955004446835613e+00  -4.3409799247992371e+00  -3.6616698441112798e+00  -2.8851212417061376e+00  -2.0358643821648932e+00  -1.1351301854421068e+00  -2.0139349742038534e-01  7.4876985331022361e-01  1.6997458791861004e+00  2.6359343014619712e+00  3.5407837148115568e+00  4.3958007262661916e+00  5.1795973602258574e+00  5.8672240484306633e+00  6.4303603626828751e+00  6.8393718658204419e+00  7.0687992004009370e+00  7.1096075246969246e+00  -5.9706440532866942e+00  -5.9300298836943588e+00  -5.6759866212876311e+00  -5.2259519128701513e+00  -4.6146638208795849e+00  -3.8784167946145294e+00  -3.0490386301893313e+00  -2.1525392999906110e+00  -1.2098105829651755e+00  -2.3796495772450343e-01  7.4829496912662419e-01  1.7354426658131219e+00  2.7099926278992887e+00  3.6573500220109842e+00  4.5605204904535501e+00  5.3986161910673305e+00  6.1453070586214391e+00  6.7678926334501206e+00  7.2286412556959707e+00  7.4914101890513889e+00  7.5391139498156310e+00  -6.4221255947325577e+00  -6.3742405094502983e+00  -6.0773076172040481e+00  -5.5640536638552351e+00  -4.8847016590273293e+00  -4.0850007548191822e+00  -3.2006005323597146e+00  -2.2577926680591394e+00  -1.2759721636422732e+00  -2.7001870873562323e-01  7.4784194779514201e-01  1.7666275124645670e+00  2.7754265695303908e+00  3.7622204581615062e+00  4.7124399581113527e+00  5.6069883226262762e+00  6.4195695196290128e+00  7.1137369356562257e+00  7.6418219171629866e+00  7.9512167331669747e+00  8.0092925918925424e+00  -6.9041408216467204e+00  -6.8440731219912880e+00  -6.4852135329382090e+00  -5.8903471556601374e+00  -5.1319654743954315e+00  -4.2653390191298115e+00  -3.3276449821548928e+00  -2.3432031343209978e+00  -1.3283928206284552e+00  -2.9502829670409209e-01  7.4752576075203048e-01  1.7910011637461414e+00  2.8272223463725656e+00  3.8471142118806556e+00  4.8393728559107680e+00  5.7883282946133017e+00  6.6703235638823566e+00  7.4480157198274339e+00  8.0639092937415473e+00  8.4413791935172746e+00  8.5166591199880344e+00  -7.4097663356846013e+00  -7.3248406853977572e+00  -6.8736337379560117e+00  -6.1765671028273079e+00  -5.3328149987175033e+00  -4.4024049976316331e+00  -3.4190354283297761e+00  -2.4020106122022558e+00  -1.3633125321070463e+00  -3.1128942887036687e-01  7.4746826033571556e-01  1.8071207355278944e+00  2.8619246301192964e+00  3.9056056462568915e+00  4.9304374695044162e+00  5.9255113153057701e+00  6.8731434506397164e+00  7.7412422773774434e+00  8.4687858435829639e+00  8.9498987020913621e+00  9.0579377957344249e+00  -7.9325565698375824e+00  -7.7846055238838021e+00  -7.1975666206645439e+00  -6.3853180742021562e+00  -5.4632260815325866e+00  -4.4831591634181516e+00  -3.4687022518020640e+00  -2.4319012222166965e+00  -1.3801116571653276e+00  -3.1872180668320405e-01  7.4773237532711123e-01  1.8150718656210116e+00  2.8792028393222044e+00  3.9358730218504019e+00  4.9802804310199713e+00  6.0062094099612322e+00  7.0038385433689818e+00  7.9536947140366685e+00  8.8089036823749414e+00  9.4491460635854310e+00  9.6308284544279861e+00  -8.4704818737698684e+00  -8.1446356573808014e+00  -7.3885112953659355e+00  -6.4813576929869772e+00  -5.5117139866823965e+00  -4.5079567155530409e+00  -3.4813589216625824e+00  -2.4381547520323039e+00  -1.3829155816959853e+00  -3.1957657971954895e-01  7.4820775716901333e-01  1.8169251677806444e+00  2.8831444589179429e+00  3.9434735481119216e+00  4.9944924559703114e+00  6.0325863131974344e+00  7.0534538073423807e+00  8.0503513577206167e+00  9.0065894955362147e+00  9.8570656631709852e+00  1.0229448616203973e+01  -8.7819717183977790e+00  -8.2384068572732847e+00  -7.3996958444721850e+00  -6.4753888164435027e+00  -5.5044542439007573e+00  -4.5022036485699681e+00  -3.4771767031412613e+00  -2.4352492350947879e+00  -1.3810476967855425e+00  -3.1858586672730865e-01  7.4843326091206075e-01  1.8164754706427895e+00  2.8821074545861709e+00  3.9419549918265759e+00  4.9926503714729744e+00  6.0307204552018048e+00  7.0523044913408439e+00  8.0523392905827400e+00  9.0214652779651381e+00  9.9296348197330584e+00  1.0747932553364747e+01  </DataArray> 
</PointData> 
</Piece>
</UnstructuredGrid>
</VTKFile>