<?xml version="1.0"?>
<VTKFile type="UnstructuredGrid"  version="0.1"  >
<UnstructuredGrid>
<Piece  NumberOfPoints="651" NumberOfCells="1200">
<Points>
<DataArray  type="Float64"  NumberOfComponents="3"  format="ascii">0 0 0  50000 0 0  100000 0 0  150000 0 0  200000 0 0  250000 0 0  300000 0 0  350000 0 0  400000 0 0  450000 0 0  500000 0 0  550000 0 0  600000 0 0  650000 0 0  700000 0 0  750000 0 0  800000 0 0  850000 0 0  900000 0 0  950000 0 0  1000000 0 0  0 50000 0  50000 50000 0  100000 50000 0  150000 50000 0  200000 50000 0  250000 50000 0  300000 50000 0  350000 50000 0  400000 50000 0  450000 50000 0  500000 50000 0  550000 50000 0  600000 50000 0  650000 50000 0  700000 50000 0  750000 50000 0  800000 50000 0  850000 50000 0  900000 50000 0  950000 50000 0  1000000 50000 0  0 100000 0  50000 100000 0  100000 100000 0  150000 100000 0  200000 100000 0  250000 100000 0  300000 100000 0  350000 100000 0  400000 100000 0  450000 100000 0  500000 100000 0  550000 100000 0  600000 100000 0  650000 100000 0  700000 100000 0  750000 100000 0  800000 100000 0  850000 100000 0  900000 100000 0  950000 100000 0  1000000 100000 0  0 150000 0  50000 150000 0  100000 150000 0  150000 150000 0  200000 150000 0  250000 150000 0  300000 150000 0  350000 150000 0  400000 150000 0  450000 150000 0  500000 150000 0  550000 150000 0  600000 150000 0  650000 150000 0  700000 150000 0  750000 150000 0  800000 150000 0  850000 150000 0  900000 150000 0  950000 150000 0  1000000 150000 0  0 200000 0  50000 200000 0  100000 200000 0  150000 200000 0  200000 200000 0  250000 200000 0  300000 200000 0  350000 200000 0  400000 200000 0  450000 200000 0  500000 200000 0  550000 200000 0  600000 200000 0  650000 200000 0  700000 200000 0  750000 200000 0  800000 200000 0  850000 200000 0  900000 200000 0  950000 200000 0  1000000 200000 0  0 250000 0  50000 250000 0  100000 250000 0  150000 250000 0  200000 250000 0  250000 250000 0  300000 250000 0  350000 250000 0  400000 250000 0  450000 250000 0  500000 250000 0  550000 250000 0  600000 250000 0  650000 250000 0  700000 250000 0  750000 250000 0  800000 250000 0  850000 250000 0  900000 250000 0  950000 250000 0  1000000 250000 0  0 300000 0  50000 300000 0  100000 300000 0  150000 300000 0  200000 300000 0  250000 300000 0  300000 300000 0  350000 300000 0  400000 300000 0  450000 300000 0  500000 300000 0  550000 300000 0  600000 300000 0  650000 300000 0  700000 300000 0  750000 300000 0  800000 300000 0  850000 300000 0  900000 300000 0  950000 300000 0  1000000 300000 0  0 350000 0  50000 350000 0  100000 350000 0  150000 350000 0  200000 350000 0  250000 350000 0  300000 350000 0  350000 350000 0  400000 350000 0  450000 350000 0  500000 350000 0  550000 350000 0  600000 350000 0  650000 350000 0  700000 350000 0  750000 350000 0  800000 350000 0  850000 350000 0  900000 350000 0  950000 350000 0  1000000 350000 0  0 400000 0  50000 400000 0  100000 400000 0  150000 400000 0  200000 400000 0  250000 400000 0  300000 400000 0  350000 400000 0  400000 400000 0  450000 400000 0  500000 400000 0  550000 400000 0  600000 400000 0  650000 400000 0  700000 400000 0  750000 400000 0  800000 400000 0  850000 400000 0  900000 400000 0  950000 400000 0  1000000 400000 0  0 450000 0  50000 450000 0  100000 450000 0  150000 450000 0  200000 450000 0  250000 450000 0  300000 450000 0  350000 450000 0  400000 450000 0  450000 450000 0  500000 450000 0  550000 450000 0  600000 450000 0  650000 450000 0  700000 450000 0  750000 450000 0  800000 450000 0  850000 450000 0  900000 450000 0  950000 450000 0  1000000 450000 0  0 500000 0  50000 500000 0  100000 500000 0  150000 500000 0  200000 500000 0  250000 500000 0  300000 500000 0  350000 500000 0  400000 500000 0  450000 500000 0  500000 500000 0  550000 500000 0  600000 500000 0  650000 500000 0  700000 500000 0  750000 500000 0  800000 500000 0  850000 500000 0  900000 500000 0  950000 500000 0  1000000 500000 0  0 550000 0  50000 550000 0  100000 550000 0  150000 550000 0  200000 550000 0  250000 550000 0  300000 550000 0  350000 550000 0  400000 550000 0  450000 550000 0  500000 550000 0  550000 550000 0  600000 550000 0  650000 550000 0  700000 550000 0  750000 550000 0  800000 550000 0  850000 550000 0  900000 550000 0  950000 550000 0  1000000 550000 0  0 600000 0  50000 600000 0  100000 600000 0  150000 600000 0  200000 600000 0  250000 600000 0  300000 600000 0  350000 600000 0  400000 600000 0  450000 600000 0  500000 600000 0  550000 600000 0  600000 600000 0  650000 600000 0  700000 600000 0  750000 600000 0  800000 600000 0  850000 600000 0  900000 600000 0  950000 600000 0  1000000 600000 0  0 650000 0  50000 650000 0  100000 650000 0  150000 650000 0  200000 650000 0  250000 650000 0  300000 650000 0  350000 650000 0  400000 650000 0  450000 650000 0  500000 650000 0  550000 650000 0  600000 650000 0  650000 650000 0  700000 650000 0  750000 650000 0  800000 650000 0  850000 650000 0  900000 650000 0  950000 650000 0  1000000 650000 0  0 700000 0  50000 700000 0  100000 700000 0  150000 700000 0  200000 700000 0  250000 700000 0  300000 700000 0  350000 700000 0  400000 700000 0  450000 700000 0  500000 700000 0  550000 700000 0  600000 700000 0  650000 700000 0  700000 700000 0  750000 700000 0  800000 700000 0  850000 700000 0  900000 700000 0  950000 700000 0  1000000 700000 0  0 750000 0  50000 750000 0  100000 750000 0  150000 750000 0  200000 750000 0  250000 750000 0  300000 750000 0  350000 750000 0  400000 750000 0  450000 750000 0  500000 750000 0  550000 750000 0  600000 750000 0  650000 750000 0  700000 750000 0  750000 750000 0  800000 750000 0  850000 750000 0  900000 750000 0  950000 750000 0  1000000 750000 0  0 800000 0  50000 800000 0  100000 800000 0  150000 800000 0  200000 800000 0  250000 800000 0  300000 800000 0  350000 800000 0  400000 800000 0  450000 800000 0  500000 800000 0  550000 800000 0  600000 800000 0  650000 800000 0  700000 800000 0  750000 800000 0  800000 800000 0  850000 800000 0  900000 800000 0  950000 800000 0  1000000 800000 0  0 850000 0  50000 850000 0  100000 850000 0  150000 850000 0  200000 850000 0  250000 850000 0  300000 850000 0  350000 850000 0  400000 850000 0  450000 850000 0  500000 850000 0  550000 850000 0  600000 850000 0  650000 850000 0  700000 850000 0  750000 850000 0  800000 850000 0  850000 850000 0  900000 850000 0  950000 850000 0  1000000 850000 0  0 900000 0  50000 900000 0  100000 900000 0  150000 900000 0  200000 900000 0  250000 900000 0  300000 900000 0  350000 900000 0  400000 900000 0  450000 900000 0  500000 900000 0  550000 900000 0  600000 900000 0  650000 900000 0  700000 900000 0  750000 900000 0  800000 900000 0  850000 900000 0  900000 900000 0  950000 900000 0  1000000 900000 0  0 950000 0  50000 950000 0  100000 950000 0  150000 950000 0  200000 950000 0  250000 950000 0  300000 950000 0  350000 950000 0  400000 950000 0  450000 950000 0  500000 950000 0  550000 950000 0  600000 950000 0  650000 950000 0  700000 950000 0  750000 950000 0  800000 950000 0  850000 950000 0  900000 950000 0  950000 950000 0  1000000 950000 0  0 1000000 0  50000 1000000 0  100000 1000000 0  150000 1000000 0  200000 1000000 0  250000 1000000 0  300000 1000000 0  350000 1000000 0  400000 1000000 0  450000 1000000 0  500000 1000000 0  550000 1000000 0  600000 1000000 0  650000 1000000 0  700000 1000000 0  750000 1000000 0  800000 1000000 0  850000 1000000 0  900000 1000000 0  950000 1000000 0  1000000 1000000 0  0 1050000 0  50000 1050000 0  100000 1050000 0  150000 1050000 0  200000 1050000 0  250000 1050000 0  300000 1050000 0  350000 1050000 0  400000 1050000 0  450000 1050000 0  500000 1050000 0  550000 1050000 0  600000 1050000 0  650000 1050000 0  700000 1050000 0  750000 1050000 0  800000 1050000 0  850000 1050000 0  900000 1050000 0  950000 1050000 0  1000000 1050000 0  0 1100000 0  50000 1100000 0  100000 1100000 0  150000 1100000 0  200000 1100000 0  250000 1100000 0  300000 1100000 0  350000 1100000 0  400000 1100000 0  450000 1100000 0  500000 1100000 0  550000 1100000 0  600000 1100000 0  650000 1100000 0  700000 1100000 0  750000 1100000 0  800000 1100000 0  850000 1100000 0  900000 1100000 0  950000 1100000 0  1000000 1100000 0  0 1150000 0  50000 1150000 0  100000 1150000 0  150000 1150000 0  200000 1150000 0  250000 1150000 0  300000 1150000 0  350000 1150000 0  400000 1150000 0  450000 1150000 0  500000 1150000 0  550000 1150000 0  600000 1150000 0  650000 1150000 0  700000 1150000 0  750000 1150000 0  800000 1150000 0  850000 1150000 0  900000 1150000 0  950000 1150000 0  1000000 1150000 0  0 1200000 0  50000 1200000 0  100000 1200000 0  150000 1200000 0  200000 1200000 0  250000 1200000 0  300000 1200000 0  350000 1200000 0  400000 1200000 0  450000 1200000 0  500000 1200000 0  550000 1200000 0  600000 1200000 0  650000 1200000 0  700000 1200000 0  750000 1200000 0  800000 1200000 0  850000 1200000 0  900000 1200000 0  950000 1200000 0  1000000 1200000 0  0 1250000 0  50000 1250000 0  100000 1250000 0  150000 1250000 0  200000 1250000 0  250000 1250000 0  300000 1250000 0  350000 1250000 0  400000 1250000 0  450000 1250000 0  500000 1250000 0  550000 1250000 0  600000 1250000 0  650000 1250000 0  700000 1250000 0  750000 1250000 0  800000 1250000 0  850000 1250000 0  900000 1250000 0  950000 1250000 0  1000000 1250000 0  0 1300000 0  50000 1300000 0  100000 1300000 0  150000 1300000 0  200000 1300000 0  250000 1300000 0  300000 1300000 0  350000 1300000 0  400000 1300000 0  450000 1300000 0  500000 1300000 0  550000 1300000 0  600000 1300000 0  650000 1300000 0  700000 1300000 0  750000 1300000 0  800000 1300000 0  850000 1300000 0  900000 1300000 0  950000 1300000 0  1000000 1300000 0  0 1350000 0  50000 1350000 0  100000 1350000 0  150000 1350000 0  200000 1350000 0  250000 1350000 0  300000 1350000 0  350000 1350000 0  400000 1350000 0  450000 1350000 0  500000 1350000 0  550000 1350000 0  600000 1350000 0  650000 1350000 0  700000 135
[...]
<PointData  Scalars="f_25"> 
<DataArray  type="Float64"  Name="f_25"  format="ascii">-5.9167680566833090e+00  -5.3769563330165502e+00  -4.7782052679908507e+00  -4.1394035985868012e+00  -3.4803003464103179e+00  -2.8070442969592748e+00  -2.1229597227624271e+00  -1.4305816921577392e+00  -7.3219148339098239e-01  -3.0001757372918256e-02  6.7377010716285080e-01  1.3768676551718453e+00  2.0769680709961507e+00  2.7716378385434162e+00  3.4582398801756979e+00  4.1337361984485659e+00  4.7942721349174997e+00  5.4342537580166086e+00  6.0436623736518591e+00  6.5969413202727196e+00  6.9558489628959492e+00  -5.5747351252891653e+00  -5.3288277761129006e+00  -4.7682341396023569e+00  -4.1380036042785546e+00  -3.4810129356649986e+00  -2.8082545930049694e+00  -2.1241691260059605e+00  -1.4315868488087369e+00  -7.3288511216815155e-01  -3.0312595388599182e-02  6.7390049051237599e-01  1.3774982129836262e+00  2.0781713089841873e+00  2.7735169846786212e+00  3.4609479122697837e+00  4.1374584704566431e+00  4.7989498015438423e+00  5.4380101274737749e+00  6.0359806014477790e+00  6.5346150136102459e+00  6.7500742313385711e+00  -5.1797603846265572e+00  -5.0596092863719049e+00  -4.6375406905209848e+00  -4.0739634159834273e+00  -3.4480544375847377e+00  -2.7906788105762192e+00  -2.1146655072584841e+00  -1.4264858983389008e+00  -7.3023456106209927e-01  -2.9073557962343177e-02  6.7419792752377994e-01  1.3768854668126644e+00  2.0762386191822917e+00  2.7692717517418317e+00  3.4524376637695964e+00  4.1208933767664879e+00  4.7667079466485491e+00  5.3743559733283321e+00  5.9096999591298518e+00  6.2968130771553454e+00  6.3948915718524884e+00  -4.8017515147040557e+00  -4.7301954825278676e+00  -4.4129842939503545e+00  -3.9335514726504606e+00  -3.3615729627948001e+00  -2.7372112278531229e+00  -2.0815977291606762e+00  -1.4063811692329173e+00  -7.1874855523581638e-01  -2.3790001986164648e-02  6.7436151866320460e-01  1.3719232208418624e+00  2.0650490016993985e+00  2.7493983564643698e+00  3.4194730386146488e+00  4.0673820546248232e+00  4.6804140585139029e+00  5.2363841191749723e+00  5.6957805501609542e+00  5.9933273870527044e+00  6.0497164682520443e+00  -4.4445980635470566e+00  -4.3946818940355410e+00  -4.1457783860188027e+00  -3.7399250685755421e+00  -3.2275508685869729e+00  -2.6464924062602209e+00  -2.0213311055313334e+00  -1.3676448397317047e+00  -6.9575482640148312e-01  -1.3107504306813445e-02  6.7431873157221811e-01  1.3611382097508176e+00  2.0419044954706940e+00  2.7104492405367950e+00  3.3589912954103536e+00  3.9767442674701345e+00  4.5476954288495817e+00  5.0473708284306946e+00  5.4393909143247656e+00  5.6760407755495477e+00  5.7159457576732260e+00  -4.1098250810550265e+00  -4.0712867393158190e+00  -3.8672602644696044e+00  -3.5192782133685623e+00  -3.0619636855254249e+00  -2.5266841279725405e+00  -1.9374268495916915e+00  -1.3115033365180584e+00  -6.6148880028221912e-01  3.0211447048665357e-03  6.7410992609915898e-01  1.3445900867432812e+00  2.0072276827622533e+00  2.6539703174396116e+00  3.2750187160842943e+00  3.8576018315247458e+00  4.3844102172904931e+00  4.8319774511241906e+00  5.1701929614020230e+00  5.3659990885626527e+00  5.3978107495422885e+00  -3.7995966305777982e+00  -3.7679247412331898e+00  -3.5946435605117042e+00  -3.2910459137139045e+00  -2.8809186722494915e+00  -2.3890883453908978e+00  -1.8370741436271880e+00  -1.2422071261833325e+00  -6.1823936522373568e-01  2.3638316393408985e-02  6.7381397371888230e-01  1.3234057499665066e+00  1.9635048606295058e+00  2.5844285972059318e+00  3.1749084434918053e+00  3.7211891866744997e+00  4.2061485237091123e+00  4.6088377119732833e+00  4.9053710909742119e+00  5.0728841074371402e+00  5.0998615861579735e+00  -3.5162113535401778e+00  -3.4891080459657018e+00  -3.3378181234265574e+00  -3.0683278893307717e+00  -2.6973925691996996e+00  -2.2445089462733550e+00  -1.7283118318564432e+00  -1.1652215395653513e+00  -5.6931738511027385e-01  4.7224550410104246e-02  6.7350538569600982e-01  1.2992518649841205e+00  1.9141816910903739e+00  2.5073797864079093e+00  3.0666818409139260e+00  3.5781107890352386e+00  4.0255200616188489e+00  4.3907777833039319e+00  4.6550677270588183e+00  4.8021914235199876e+00  4.8258944097652403e+00  -3.2617666639560978e+00  -3.2379057428565590e+00  -3.1028948867997945e+00  -2.8598508713222768e+00  -2.5210165994757308e+00  -2.1018983474530928e+00  -1.6184992550481871e+00  -1.0859862204697213e+00  -5.1823841409134874e-01  7.2088271618437963e-02  6.7323686785156944e-01  1.2739171861356231e+00  1.8628426868045569e+00  2.4282762060820917e+00  2.9576241027162338e+00  3.4371524197443466e+00  3.8519646335884774e+00  4.1864678861615543e+00  4.4256429870670315e+00  4.5575881771265223e+00  4.5789147942307471e+00  -3.0380398560077904e+00  -3.0165754776314868e+00  -2.8938899097215587e+00  -2.6714902451689677e+00  -2.3587065798008311e+00  -1.9681698693922576e+00  -1.5137220605508770e+00  -1.0092678709136029e+00  -4.6822388402944976e-01  9.6627836777187184e-02  6.7303737645339878e-01  1.2490524351330348e+00  1.8127314765703904e+00  2.3518629524686925e+00  2.8537478045712601e+00  3.3051204751751060e+00  3.6923144944786590e+00  4.0018094352971936e+00  4.2213212357667160e+00  4.3417295810473453e+00  4.3612728109345076e+00  -2.8464674330299413e+00  -2.8268138695481988e+00  -2.7135475379981675e+00  -2.5072492658171761e+00  -2.2153501988619557e+00  -1.8484495199508826e+00  -1.4187129742361926e+00  -9.3893083811258637e-01  -4.2197208345574794e-01  1.1946826024101666e-01  6.7291689332033000e-01  1.2260459008565823e+00  1.7665408020061273e+00  2.2819723013355380e+00  2.7597298290825001e+00  3.1870813920089298e+00  3.5514328899546768e+00  3.8408631300453329e+00  4.0450182384106581e+00  4.1565950726749517e+00  4.1747880901420933e+00  -2.6881649447894542e+00  -2.6698864270691125e+00  -2.5637739559259294e+00  -2.3698697201593655e+00  -2.0943603786414529e+00  -1.7464308483928535e+00  -1.3369976277928306e+00  -8.7794163069349507e-01  -3.8160522581492340e-01  1.3950713232342751e-01  6.7287256206701707e-01  1.2059903537585597e+00  1.7263728813400943e+00  2.2215385496991416e+00  2.6790575499140137e+00  3.0867008780650198e+00  3.4327402394240361e+00  3.7064391065112492e+00  3.8987832250707921e+00  4.0036625297731527e+00  4.0208479111931421e+00  -2.5639626295168552e+00  -2.5467132152008745e+00  -2.4458873974627866e+00  -2.2612178152626994e+00  -1.9980826877164144e+00  -1.6647050066634224e+00  -1.2711076984940479e+00  -8.2847735260085931e-01  -3.4870940440255621e-01  1.5590757787828446e-01  6.7289385313217043e-01  1.1896999808867426e+00  1.6937874117377589e+00  2.1727100838440325e+00  2.6142382691098196e+00  3.0065623599964191e+00  3.3386067188132529e+00  3.6004742845441302e+00  3.7840564483797796e+00  3.8840192186502649e+00  3.9004859989758769e+00  -2.4744447468867414e+00  -2.4579331907071880e+00  -2.3607745849730515e+00  -2.1825335681081861e+00  -1.9280841708561540e+00  -1.6050274260536357e+00  -1.2227870069953173e+00  -7.9206179374564845e-01  -3.2441040927722803e-01  1.6806741044431914e-01  6.7296616824831990e-01  1.1777477678055459e+00  1.6698817860457418e+00  2.1369861822998404e+00  2.5670013845362414e+00  2.9484259303708247e+00  3.2706329504227538e+00  3.5242783909616451e+00  3.7018314226168973e+00  3.7984417668684527e+00  3.8144471395050341e+00  -2.4199854750952858e+00  -2.4039534978688164e+00  -2.3089927984887004e+00  -2.1345933006221554e+00  -1.8853517800448008e+00  -1.5685159557055623e+00  -1.1931601422290126e+00  -7.6968990035895635e-01  -3.0945192670037930e-01  1.7558316261670401e-01  6.7307303808249996e-01  1.1705052683310715e+00  1.6553713626044291e+00  2.1153409649204584e+00  2.5384637426206456e+00  2.9134214818288831e+00  3.2298439917518529e+00  3.4786954941408026e+00  3.6527616370120155e+00  3.7474559014675490e+00  3.7632390595581215e+00  -2.4007766882970318e+00  -2.3849846920944886e+00  -2.2908351706049994e+00  -2.1178121672361350e+00  -1.8704212012292625e+00  -1.5557856667458250e+00  -1.1828537745583187e+00  -7.6192278969529670e-01  -3.0425872451039260e-01  1.7821949888987604e-01  6.7319728467835449e-01  1.1681750704668219e+00  1.6506532938670893e+00  2.1083173590519890e+00  2.5292483439150097e+00  2.9021802361025211e+00  3.2168157705859510e+00  3.4642067365928337e+00  3.6372297399616946e+00  3.7313792614511887e+00  3.7471712576537390e+00  -2.4168444902014206e+00  -2.4010613321108534e+00  -2.3063670676553225e+00  -2.1323009247841087e+00  -1.8834494223951621e+00  -1.5670269124721961e+00  -1.1920691732639563e+00  -7.6894639556377054e-01  -3.0897679324774180e-01  1.7588930102562769e-01  6.7332153127421379e-01  1.1708114067400039e+00  1.6558464960570853e+00  2.1160844697156516e+00  2.5395547115857040e+00  2.9149105250622660e+00  3.2317463494015048e+00  3.4809878699788599e+00  3.6553873678454298e+00  3.7503480672255547e+00  3.7663800444520246e+00  -2.4680525701483309e+00  -2.4520471975117566e+00  -2.3554368532602088e+00  -2.1778838216049476e+00  -1.9242383810660699e+00  -1.6020313610141459e+00  -1.2206068151795619e+00  -7.9059161294315849e-01  -3.2348721668904729e-01  1.6864680155116640e-01  6.7342840110840818e-01  1.1783271589124089e+00  1.6708049786339478e+00  2.1384563631023608e+00  2.5691815763520367e+00  2.9514219954103593e+00  3.2744787402128810e+00  3.5289281374649066e+00  3.7071691543298106e+00  3.8043277600639733e+00  3.8208393162435188e+00  -2.5540914296191484e+00  -2.5376246492935306e+00  -2.4376618790230560e+00  -2.2540797151874017e+00  -1.9922121494565461e+00  -1.6601677906397303e+00  -1.2678436997531228e+00  -8.2631551448733320e-01  -3.4739284238104123e-01  1.5669458846998799e-01  6.7350071622458263e-01  1.1904869914784733e+00  1.6951039737593037e+00  2.1748719219575934e+00  2.6175022678507851e+00  3.0110995760201624e+00  3.3444772570731773e+00  3.6076123846194572e+00  3.7922819668195435e+00  3.8931077845576296e+00  3.9103571988736121e+00  -2.6744533418364020e+00  -2.6572679604164153e+00  -2.5523886557140574e+00  -2.3600445371545264e+00  -2.0863456700673151e+00  -1.7403063087083064e+00  -1.3326629805572960e+00  -8.7514398034241569e-01  -3.7997831198335108e-01  1.4040421559819496e-01  6.7352200728975664e-01  1.2068874370333513e+00  1.7279997951716977e+00  2.2243362000502511e+00  2.6833921971495842e+00  3.0928254177495984e+00  3.4407549479982196e+00  3.7162642895161242e+00  3.9101685252826650e+00  4.0162809964258424e+00  4.0345595141461912e+00  -2.8283935207853172e+00  -2.8102005033181801e+00  -2.6986236690538923e+00  -2.4944685606885764e+00  -2.2050383205979176e+00  -1.8406868226521720e+00  -1.4133352597257363e+00  -9.3557773197877248e-01  -4.2014623264934403e-01  1.2034866850020984e-01  6.7347767603647724e-01  1.2269263091157947e+00  1.7683666528125614e+00  2.2853254074693958e+00  2.7651075435929999e+00  3.1948440893076793e+00  3.5617447682187358e+00  3.8536438351739353e+00  4.0599421073549253e+00  4.1732084389049389e+00  4.1928620023866783e+00  -3.0148782415776769e+00  -2.9953350116905400e+00  -2.8749266664099076e+00  -2.6554148659404011e+00  -2.3459199251218652e+00  -1.9587259058183013e+00  -1.5073532352144545e+00  -1.0054683831118858e+00  -4.6633690721356291e-01  9.7342134223808538e-02  6.7335719290345519e-01  1.2497667325796737e+00  1.8146184533863083e+00  2.3556624402704687e+00  2.8601166299077390e+00  3.3145644387491036e+00  3.7051011491576484e+00  4.0178848145257522e+00  4.2402844790783325e+00  4.3629700469882424e+00  4.3844344253645264e+00  -3.2325202248738965e+00  -3.2111936077696828e+00  -3.0792484177101835e+00  -2.8400733168047161e+00  -2.5055700642316441e+00  -2.0907578503875004e+00  -1.6112295333593836e+00  -1.0818816367252233e+00  -5.1644811744767249e-01  7.2477383221269800e-02  6.7315770150533649e-01  1.2743062977384785e+00  1.8646329834482689e+00  2.4323807898266412e+00  2.9648938244051002e+00  3.4482929168099719e+00  3.8674111688325779e+00  4.2062454406790941e+00  4.4492894561565857e+00  4.5843003122133359e+00  4.6081612333128747e+00  -3.4794998404083617e+00  -3.4557968541631006e+00  -3.3086731577019375e+00  -3.0443832139470688e+00  -2.6791254922619698e+00  -2.2317162196783453e+00  -1.7202872715570214e+00  -1.1609852170509887e+00  -5.6778712173344292e-01  4.7142704372820865e-02  6.7288918366094241e-01  1.2991700189468556e+00  1.9157119544672354e+00  2.5116161089223028e+00  3.0747064012133780e+00  3.5909035156302647e+00  4.0437871385565867e+00  4.4147224586876179e+00  4.6842126927833796e+00  4.8355026153225147e+00  4.8626059228969902e+00  -3.7534670168010744e+00  -3.7264895380802439e+00  -3.5589765216173270e+00  -3.2624431426163922e+00  -2.8597539543521968e+00  -2.3747946173175642e+00  -1.8285138741348428e+00  -1.2380340278489517e+00  -6.1711029127251360e-01  2.2988819390490103e-02  6.7258059563812100e-01  1.3227562529635981e+00  1.9646339345807398e+00  2.5886016955403139e+00  3.1834687129841504e+00  3.7354829147478328e+00  4.2273132416064181e+00  4.6374404830708098e+00  4.9410381298685815e+00  5.1143193105900453e+00  5.1459911999346577e+00  -4.0514161801853499e+00  -4.0196045192057293e+00  -3.8237983920450862e+00  -3.4855828817672445e+00  -3.0380156479335323e+00  -2.5112072621677783e+00  -1.9286241467272918e+00  -1.3075757480825747e+00  -6.6083311340521222e-01  1.8044826137595354e-03  6.7228464325788984e-01  1.3433734246521858e+00  2.0078833696392673e+00  2.6578979058750867e+00  3.2838214189486989e+00  3.8730786973295355e+00  4.4083582548823994e+00  4.8656727827255075e+00  5.2136548338265181e+00  5.4176813086727336e+00  5.4562196504119314e+00  -4.3695511883162492e+00  -4.3296462061925762e+00  -4.0929963449677773e+00  -3.7009762590737076e+00  -3.2013008594925845e+00  -2.6303496981131342e+00  -2.0125967260533146e+00  -1.3640546711797259e+00  -6.9550992611362072e-01  -1.4743640393743856e-02  6.7207583778486346e-01  1.3595020736638974e+00  2.0421493957585573e+00  2.7140394090887652e+00  3.3677256748883853e+00  3.9928869756172771e+00  4.5739454379439861e+00  5.0863196379325313e+00  5.4921729553757777e+00  5.7410764633925018e+00  5.7909926329040120e+00  -4.7033218988950303e+00  -4.6469328176956877e+00  -4.3493859808039375e+00  -3.8899895498179564e+00  -3.3340194891568857e+00  -2.7209874852677878e+00  -2.0730784692575792e+00  -1.4030037871072825e+00  -7.1865443234230231e-01  -2.5528651484765706e-02  6.7203305069389707e-01  1.3701845713432699e+00  2.0651431245929079e+00  2.7527757385899991e+00  3.4279922985177644e+00  4.0836057972102093e+00  4.7079675321518675e+00  5.2799460420074906e+00  5.7593788633073615e+00  6.0765900518848603e+00  6.1481460840610449e+00  -5.0484970024954601e+00  -4.9504185077982967e+00  -4.5633053897728209e+00  -4.0279614039712976e+00  -3.4203133772915324e+00  -2.7744988074094490e+00  -2.1060430944125232e+00  -1.4228771823847313e+00  -7.2984404982519524e-01  -3.0490897455559558e-02  6.7219664183333483e-01  1.3754681273194573e+00  2.0766291304192057e+00  2.7728804676959915e+00  3.4610600766155821e+00  4.1370733799333070e+00  4.7944490069418144e+00  5.4203579853404760e+00  5.9839352598780096e+00  6.4060038557289110e+00  6.5261549539835961e+00  -5.4036796619815508e+00  -5.1882204442532238e+00  -4.6895860320907898e+00  -4.0916155581167661e+00  -3.4525552321868243e+00  -2.7910639010996023e+00  -2.1145533429127066e+00  -1.4271224153215238e+00  -7.3177673962708134e-01  -3.1103643626515756e-02  6.7249407884473811e-01  1.3767071647457165e+00  2.0792796815252639e+00  2.7779814181658438e+00  3.4705636953630612e+00  4.1546491623620412e+00  4.8274075050220713e+00  5.4843981736356078e+00  6.1146287089594109e+00  6.6752223454699315e+00  6.9211296946462015e+00  -5.6094543935389281e+00  -5.2505467509156931e+00  -4.6972678042948530e+00  -4.0878591886595919e+00  -3.4478775655604701e+00  -2.7873416290915234e+00  -2.1118453108186213e+00  -1.4252432691863230e+00  -7.3057350163904078e-01  -3.0473085814731744e-02  6.7262446219426841e-01  1.3763963267300310e+00  2.0785860527480984e+00  2.7769762615148466e+00  3.4693542921195268e+00  4.1534388663163471e+00  4.8266949157673915e+00  5.4857981679438668e+00  6.1245998373478931e+00  6.7233509023735900e+00  7.2631626260403479e+00  </DataArray> 
</PointData> 
</Piece>
</UnstructuredGrid>
</VTKFile>