<?xml version="1.0"?>
<VTKFile type="UnstructuredGrid"  version="0.1"  >
<UnstructuredGrid>
<Piece  NumberOfPoints="651" NumberOfCells="1200">
<Points>
<DataArray  type="Float64"  NumberOfComponents="3"  format="ascii">0 0 0  50000 0 0  100000 0 0  150000 0 0  200000 0 0  250000 0 0  300000 0 0  350000 0 0  400000 0 0  450000 0 0  500000 0 0  550000 0 0  600000 0 0  650000 0 0  700000 0 0  750000 0 0  800000 0 0  850000 0 0  900000 0 0  950000 0 0  1000000 0 0  0 50000 0  50000 50000 0  100000 50000 0  150000 50000 0  200000 50000 0  250000 50000 0  300000 50000 0  350000 50000 0  400000 50000 0  450000 50000 0  500000 50000 0  550000 50000 0  600000 50000 0  650000 50000 0  700000 50000 0  750000 50000 0  800000 50000 0  850000 50000 0  900000 50000 0  950000 50000 0  1000000 50000 0  0 100000 0  50000 100000 0  100000 100000 0  150000 100000 0  200000 100000 0  250000 100000 0  300000 100000 0  350000 100000 0  400000 100000 0  450000 100000 0  500000 100000 0  550000 100000 0  600000 100000 0  650000 100000 0  700000 100000 0  750000 100000 0  800000 100000 0  850000 100000 0  900000 100000 0  950000 100000 0  1000000 100000 0  0 150000 0  50000 150000 0  100000 150000 0  150000 150000 0  200000 150000 0  250000 150000 0  300000 150000 0  350000 150000 0  400000 150000 0  450000 150000 0  500000 150000 0  550000 150000 0  600000 150000 0  650000 150000 0  700000 150000 0  750000 150000 0  800000 150000 0  850000 150000 0  900000 150000 0  950000 150000 0  1000000 150000 0  0 200000 0  50000 200000 0  100000 200000 0  150000 200000 0  200000 200000 0  250000 200000 0  300000 200000 0  350000 200000 0  400000 200000 0  450000 200000 0  500000 200000 0  550000 200000 0  600000 200000 0  650000 200000 0  700000 200000 0  750000 200000 0  800000 200000 0  850000 200000 0  900000 200000 0  950000 200000 0  1000000 200000 0  0 250000 0  50000 250000 0  100000 250000 0  150000 250000 0  200000 250000 0  250000 250000 0  300000 250000 0  350000 250000 0  400000 250000 0  450000 250000 0  500000 250000 0  550000 250000 0  600000 250000 0  650000 250000 0  700000 250000 0  750000 250000 0  800000 250000 0  850000 250000 0  900000 250000 0  950000 250000 0  1000000 250000 0  0 300000 0  50000 300000 0  100000 300000 0  150000 300000 0  200000 300000 0  250000 300000 0  300000 300000 0  350000 300000 0  400000 300000 0  450000 300000 0  500000 300000 0  550000 300000 0  600000 300000 0  650000 300000 0  700000 300000 0  750000 300000 0  800000 300000 0  850000 300000 0  900000 300000 0  950000 300000 0  1000000 300000 0  0 350000 0  50000 350000 0  100000 350000 0  150000 350000 0  200000 350000 0  250000 350000 0  300000 350000 0  350000 350000 0  400000 350000 0  450000 350000 0  500000 350000 0  550000 350000 0  600000 350000 0  650000 350000 0  700000 350000 0  750000 350000 0  800000 350000 0  850000 350000 0  900000 350000 0  950000 350000 0  1000000 350000 0  0 400000 0  50000 400000 0  100000 400000 0  150000 400000 0  200000 400000 0  250000 400000 0  300000 400000 0  350000 400000 0  400000 400000 0  450000 400000 0  500000 400000 0  550000 400000 0  600000 400000 0  650000 400000 0  700000 400000 0  750000 400000 0  800000 400000 0  850000 400000 0  900000 400000 0  950000 400000 0  1000000 400000 0  0 450000 0  50000 450000 0  100000 450000 0  150000 450000 0  200000 450000 0  250000 450000 0  300000 450000 0  350000 450000 0  400000 450000 0  450000 450000 0  500000 450000 0  550000 450000 0  600000 450000 0  650000 450000 0  700000 450000 0  750000 450000 0  800000 450000 0  850000 450000 0  900000 450000 0  950000 450000 0  1000000 450000 0  0 500000 0  50000 500000 0  100000 500000 0  150000 500000 0  200000 500000 0  250000 500000 0  300000 500000 0  350000 500000 0  400000 500000 0  450000 500000 0  500000 500000 0  550000 500000 0  600000 500000 0  650000 500000 0  700000 500000 0  750000 500000 0  800000 500000 0  850000 500000 0  900000 500000 0  950000 500000 0  1000000 500000 0  0 550000 0  50000 550000 0  100000 550000 0  150000 550000 0  200000 550000 0  250000 550000 0  300000 550000 0  350000 550000 0  400000 550000 0  450000 550000 0  500000 550000 0  550000 550000 0  600000 550000 0  650000 550000 0  700000 550000 0  750000 550000 0  800000 550000 0  850000 550000 0  900000 550000 0  950000 550000 0  1000000 550000 0  0 600000 0  50000 600000 0  100000 600000 0  150000 600000 0  200000 600000 0  250000 600000 0  300000 600000 0  350000 600000 0  400000 600000 0  450000 600000 0  500000 600000 0  550000 600000 0  600000 600000 0  650000 600000 0  700000 600000 0  750000 600000 0  800000 600000 0  850000 600000 0  900000 600000 0  950000 600000 0  1000000 600000 0  0 650000 0  50000 650000 0  100000 650000 0  150000 650000 0  200000 650000 0  250000 650000 0  300000 650000 0  350000 650000 0  400000 650000 0  450000 650000 0  500000 650000 0  550000 650000 0  600000 650000 0  650000 650000 0  700000 650000 0  750000 650000 0  800000 650000 0  850000 650000 0  900000 650000 0  950000 650000 0  1000000 650000 0  0 700000 0  50000 700000 0  100000 700000 0  150000 700000 0  200000 700000 0  250000 700000 0  300000 700000 0  350000 700000 0  400000 700000 0  450000 700000 0  500000 700000 0  550000 700000 0  600000 700000 0  650000 700000 0  700000 700000 0  750000 700000 0  800000 700000 0  850000 700000 0  900000 700000 0  950000 700000 0  1000000 700000 0  0 750000 0  50000 750000 0  100000 750000 0  150000 750000 0  200000 750000 0  250000 750000 0  300000 750000 0  350000 750000 0  400000 750000 0  450000 750000 0  500000 750000 0  550000 750000 0  600000 750000 0  650000 750000 0  700000 750000 0  750000 750000 0  800000 750000 0  850000 750000 0  900000 750000 0  950000 750000 0  1000000 750000 0  0 800000 0  50000 800000 0  100000 800000 0  150000 800000 0  200000 800000 0  250000 800000 0  300000 800000 0  350000 800000 0  400000 800000 0  450000 800000 0  500000 800000 0  550000 800000 0  600000 800000 0  650000 800000 0  700000 800000 0  750000 800000 0  800000 800000 0  850000 800000 0  900000 800000 0  950000 800000 0  1000000 800000 0  0 850000 0  50000 850000 0  100000 850000 0  150000 850000 0  200000 850000 0  250000 850000 0  300000 850000 0  350000 850000 0  400000 850000 0  450000 850000 0  500000 850000 0  550000 850000 0  600000 850000 0  650000 850000 0  700000 850000 0  750000 850000 0  800000 850000 0  850000 850000 0  900000 850000 0  950000 850000 0  1000000 850000 0  0 900000 0  50000 900000 0  100000 900000 0  150000 900000 0  200000 900000 0  250000 900000 0  300000 900000 0  350000 900000 0  400000 900000 0  450000 900000 0  500000 900000 0  550000 900000 0  600000 900000 0  650000 900000 0  700000 900000 0  750000 900000 0  800000 900000 0  850000 900000 0  900000 900000 0  950000 900000 0  1000000 900000 0  0 950000 0  50000 950000 0  100000 950000 0  150000 950000 0  200000 950000 0  250000 950000 0  300000 950000 0  350000 950000 0  400000 950000 0  450000 950000 0  500000 950000 0  550000 950000 0  600000 950000 0  650000 950000 0  700000 950000 0  750000 950000 0  800000 950000 0  850000 950000 0  900000 950000 0  950000 950000 0  1000000 950000 0  0 1000000 0  50000 1000000 0  100000 1000000 0  150000 1000000 0  200000 1000000 0  250000 1000000 0  300000 1000000 0  350000 1000000 0  400000 1000000 0  450000 1000000 0  500000 1000000 0  550000 1000000 0  600000 1000000 0  650000 1000000 0  700000 1000000 0  750000 1000000 0  800000 1000000 0  850000 1000000 0  900000 1000000 0  950000 1000000 0  1000000 1000000 0  0 1050000 0  50000 1050000 0  100000 1050000 0  150000 1050000 0  200000 1050000 0  250000 1050000 0  300000 1050000 0  350000 1050000 0  400000 1050000 0  450000 1050000 0  500000 1050000 0  550000 1050000 0  600000 1050000 0  650000 1050000 0  700000 1050000 0  750000 1050000 0  800000 1050000 0  850000 1050000 0  900000 1050000 0  950000 1050000 0  1000000 1050000 0  0 1100000 0  50000 1100000 0  100000 1100000 0  150000 1100000 0  200000 1100000 0  250000 1100000 0  300000 1100000 0  350000 1100000 0  400000 1100000 0  450000 1100000 0  500000 1100000 0  550000 1100000 0  600000 1100000 0  650000 1100000 0  700000 1100000 0  750000 1100000 0  800000 1100000 0  850000 1100000 0  900000 1100000 0  950000 1100000 0  1000000 1100000 0  0 1150000 0  50000 1150000 0  100000 1150000 0  150000 1150000 0  200000 1150000 0  250000 1150000 0  300000 1150000 0  350000 1150000 0  400000 1150000 0  450000 1150000 0  500000 1150000 0  550000 1150000 0  600000 1150000 0  650000 1150000 0  700000 1150000 0  750000 1150000 0  800000 1150000 0  850000 1150000 0  900000 1150000 0  950000 1150000 0  1000000 1150000 0  0 1200000 0  50000 1200000 0  100000 1200000 0  150000 1200000 0  200000 1200000 0  250000 1200000 0  300000 1200000 0  350000 1200000 0  400000 1200000 0  450000 1200000 0  500000 1200000 0  550000 1200000 0  600000 1200000 0  650000 1200000 0  700000 1200000 0  750000 1200000 0  800000 1200000 0  850000 1200000 0  900000 1200000 0  950000 1200000 0  1000000 1200000 0  0 1250000 0  50000 1250000 0  100000 1250000 0  150000 1250000 0  200000 1250000 0  250000 1250000 0  300000 1250000 0  350000 1250000 0  400000 1250000 0  450000 1250000 0  500000 1250000 0  550000 1250000 0  600000 1250000 0  650000 1250000 0  700000 1250000 0  750000 1250000 0  800000 1250000 0  850000 1250000 0  900000 1250000 0  950000 1250000 0  1000000 1250000 0  0 1300000 0  50000 1300000 0  100000 1300000 0  150000 1300000 0  200000 1300000 0  250000 1300000 0  300000 1300000 0  350000 1300000 0  400000 1300000 0  450000 1300000 0  500000 1300000 0  550000 1300000 0  600000 1300000 0  650000 1300000 0  700000 1300000 0  750000 1300000 0  800000 1300000 0  850000 1300000 0  900000 1300000 0  950000 1300000 0  1000000 1300000 0  0 1350000 0  50000 1350000 0  100000 1350000 0  150000 1350000 0  200000 1350000 0  250000 1350000 0  300000 1350000 0  350000 1350000 0  400000 1350000 0  450000 1350000 0  500000 1350000 0  550000 1350000 0  600000 1350000 0  650000 1350000 0  700000 135
[...]
<PointData  Scalars="f_25"> 
<DataArray  type="Float64"  Name="f_25"  format="ascii">-8.7725788173162282e+00  -8.0034203711966168e+00  -7.1498510565288811e+00  -6.2390152291390164e+00  -5.2991431153024324e+00  -4.3390275851486884e+00  -3.3634248425064683e+00  -2.3759615987495235e+00  -1.3799005889273086e+00  -3.7840563401490845e-01  6.2535323629825901e-01  1.6281504238383431e+00  2.6266655083675094e+00  3.6174195304424908e+00  4.5966416591330406e+00  5.5599857495562865e+00  6.5019326345765869e+00  7.4144624533122965e+00  8.2831976799910070e+00  9.0715365835245088e+00  9.5825126799482394e+00  -8.2852475488430883e+00  -7.9351758300778279e+00  -7.1358501163761732e+00  -6.2371389109670368e+00  -5.3002220935519455e+00  -4.3407835398873686e+00  -3.3651602537236913e+00  -2.3773938405217376e+00  -1.3808806930009949e+00  -3.7883402129176191e-01  6.2555917992092136e-01  1.6290751533601879e+00  2.6284139561369697e+00  3.6201419938866093e+00  4.6005619556537605e+00  5.5653787703758981e+00  6.5087350921661775e+00  7.4200392544672749e+00  8.2726295697229411e+00  8.9833126555328953e+00  9.2896765230758742e+00  -7.7225760910960721e+00  -7.5517427518751283e+00  -6.9499947843254617e+00  -6.1462451381452547e+00  -5.2535522601942324e+00  -4.3159649298152294e+00  -3.3517835621138516e+00  -2.3702382417402967e+00  -1.3771702095298690e+00  -3.7709196938887923e-01  6.2600069192974850e-01  1.6282609451747909e+00  2.6257618993672494e+00  3.6142412041918326e+00  4.5886355075718201e+00  5.5420326248433254e+00  6.4631128327184637e+00  7.3297134484367810e+00  8.0930949250667528e+00  8.6448509149052608e+00  8.7839986421836063e+00  -7.1840846103041471e+00  -7.0824737410523388e+00  -6.6302770062097531e+00  -5.9465117098423299e+00  -5.1306647531034972e+00  -4.2400767054849551e+00  -3.3049048072514178e+00  -2.3417676269875800e+00  -1.3609170465066256e+00  -3.6961407972552568e-01  6.2624492276832122e-01  1.6212626274480124e+00  2.6099510966278761e+00  3.5861169607776482e+00  4.5419149288973744e+00  5.4660849571088752e+00  6.3404861808756463e+00  7.1334520299036290e+00  7.7885753579988251e+00  8.2126639609577072e+00  8.2925514957074249e+00  -6.6753043305135131e+00  -6.6044903115125315e+00  -6.2497005325519490e+00  -5.6708664053118758e+00  -4.9399898778269486e+00  -4.1110969639280217e+00  -3.2192783766898456e+00  -2.2867652036703223e+00  -1.3282834094456928e+00  -3.5445607783375160e-01  6.2618824020870167e-01  1.6059663639843822e+00  2.5771080977763017e+00  3.5308128458120627e+00  4.4559780887932599e+00  5.3372114750773267e+00  6.1516591754672065e+00  6.8643857312543020e+00  7.4234542930922229e+00  7.7607456853823225e+00  7.8172530725999128e+00  -6.1983989439820153e+00  -6.1437610618031480e+00  -5.8529525736470243e+00  -5.3566437917275973e+00  -4.7042684755563560e+00  -3.9406184023952475e+00  -3.0999413175804911e+00  -2.2069476063433444e+00  -1.2795830445782361e+00  -3.3153906933536009e-01  6.2588962448478014e-01  1.5824488412733495e+00  2.5278177974721578e+00  3.4505072420274123e+00  4.3365340419853977e+00  5.1676721318310888e+00  5.9192149288828952e+00  6.5576628078551007e+00  7.0400263459422359e+00  7.3191116851916771e+00  7.3641582067860618e+00  -5.7564482935236079e+00  -5.7115643302912655e+00  -5.4645794992713332e+00  -5.0315567839992124e+00  -4.4464583174543097e+00  -3.7447382337104869e+00  -2.9571236962699303e+00  -2.1083565929318087e+00  -1.2180654136373446e+00  -3.0222028253297378e-01  6.2546336381277612e-01  1.5523124779561728e+00  2.4656154600167728e+00  3.3515555912848560e+00  4.1940516935968564e+00  4.9734713854788790e+00  5.6653731016296893e+00  6.2398488659583755e+00  6.6627939952093724e+00  6.9015657236175612e+00  6.9397714985705896e+00  -5.3527277484854974e+00  -5.3143292376677289e+00  -5.0986834187396708e+00  -4.7142869338656839e+00  -4.1850630030491072e+00  -3.5388569575661539e+00  -2.8022798949268144e+00  -1.9987761255263201e+00  -1.1484437782520847e+00  -2.6866135638583438e-01  6.2501729574281129e-01  1.5179320065180253e+00  2.3954097075584038e+00  3.2418735482839098e+00  4.0399623188952622e+00  4.7697251944023575e+00  5.4081113804724010e+00  5.9292320300905956e+00  6.3062180167807336e+00  6.5159419888101979e+00  6.5495147400059999e+00  -4.9902278459590574e+00  -4.9564296915828780e+00  -4.7639780562990124e+00  -4.4172804440000313e+00  -3.9338185319141417e+00  -3.3357407050703349e+00  -2.6459021463459491e+00  -1.8859596817755742e+00  -1.0757278090035258e+00  -2.3327188476708544e-01  6.2462771537391559e-01  1.4818577887153941e+00  2.3223104426927823e+00  3.1292339472948481e+00  3.8846526592611843e+00  4.5689609972331935e+00  5.1608907437660188e+00  5.6381759406281349e+00  5.9793668642809727e+00  6.1674689900536936e+00  6.1976789765087696e+00  -4.6714838316986498e+00  -4.6410843456053552e+00  -4.4661905322438153e+00  -4.1489176467977718e+00  -3.7025896528760249e+00  -3.1452501239955084e+00  -2.4966696220839317e+00  -1.7767044702444932e+00  -1.0045104915277228e+00  -1.9833489577782376e-01  6.2433661108900218e-01  1.4464441286671195e+00  2.2509432724539691e+00  3.0204036043546165e+00  3.7366973795441507e+00  4.3808859742284207e+00  4.9334554813694407e+00  5.3750970964964768e+00  5.6882647701549587e+00  5.8599337365703716e+00  5.8876193457146480e+00  -4.3985456138034058e+00  -4.3707129962758620e+00  -4.2092351138054456e+00  -3.9149092502994254e+00  -3.4983491295684637e+00  -2.9746978508181026e+00  -2.3613335234254920e+00  -1.6765225162815474e+00  -9.3864024854422023e-01  -1.6581118129937999e-01  6.2415857172507949e-01  1.4136714140226874e+00  2.1851490900027328e+00  2.9208488202320462e+00  3.6027676509131408e+00  4.2127271306223779e+00  4.7327428332317947e+00  5.1457878668812116e+00  5.4370709229102951e+00  5.5961605891240174e+00  5.6219342190873300e+00  -4.1730056536204794e+00  -4.1471212860500613e+00  -3.9958312127898412e+00  -3.7191670341710821e+00  -3.3259664948261176e+00  -2.8293538160419676e+00  -2.2449240418167675e+00  -1.5896460826984153e+00  -8.8114463451360592e-01  -1.3727332405720657e-01  6.2408964792112176e-01  1.3850986763917807e+00  2.1279269841990582e+00  2.8347557734559681e+00  3.4878387853362014e+00  4.0697143238210307e+00  4.5636328171920519e+00  4.9542576865960095e+00  5.2287094335886701e+00  5.3782592372448264e+00  5.4026052604706321e+00  -3.9960494896734011e+00  -3.9716224425153759e+00  -3.8278599112296954e+00  -3.5643539957869468e+00  -3.1887888493690730e+00  -2.7129155732245072e+00  -2.1510537985369651e+00  -1.5191817411846393e+00  -8.3428682648275565e-01  -1.1391542474880473e-01  6.2411480882928627e-01  1.3618876068784420e+00  2.0815023714836611e+00  2.7651898971134954e+00  3.3954884388942013e+00  3.9555339721521068e+00  4.4295077346023755e+00  4.8032708553547776e+00  5.0652362459024776e+00  5.2077825456539335e+00  5.2311097405003073e+00  -3.8685115923855600e+00  -3.8451287065390050e+00  -3.7065867993847581e+00  -3.4522398474605200e+00  -3.0890526272794636e+00  -2.6278884165195819e+00  -2.0822114959462770e+00  -1.4673041489367422e+00  -7.9967347129784450e-01  -9.6596903380192348e-02  6.2421314600025624e-01  1.3448557985090002e+00  2.0474412144831748e+00  2.7142907257857636e+00  3.3281846536890947e+00  3.8726980837772129e+00  4.3326522213992495e+00  4.6946971305355234e+00  4.9480701958477393e+00  5.0858403087211475e+00  5.1085125566130385e+00  -3.7909263773401216e+00  -3.7682214022413754e+00  -3.6328073355007380e+00  -3.3839326198442490e+00  -3.0281664875263345e+00  -2.5758678468008003e+00  -2.0400022624149154e+00  -1.4354334021670263e+00  -7.7836605971595119e-01  -8.5893690891109764e-02  6.2436104674941639e-01  1.3345334287263770e+00  2.0267643991787092e+00  2.6834485229546803e+00  3.2875215139771434e+00  3.8228195283689859e+00  4.2745297292825466e+00  4.6297418956718994e+00  4.8781449629088316e+00  5.0131842189630875e+00  5.0355400841462421e+00  -3.7635676946743981e+00  -3.7412010150513697e+00  -3.6069398232525214e+00  -3.3600247821612164e+00  -3.0068949752625902e+00  -2.5577317662157784e+00  -2.0253205971915245e+00  -1.4243704648406579e+00  -7.7097096373856855e-01  -8.2141796057255898e-02  6.2453387330730559e-01  1.3312095426718522e+00  2.0200387103531590e+00  2.6734382114552462e+00  3.2743883438061170e+00  3.8067995128303669e+00  4.2559627218771743e+00  4.6090925287758466e+00  4.8560075698671445e+00  4.9902687616660053e+00  5.0126354412890466e+00  -3.7864723375315994e+00  -3.7641164723484510e+00  -3.6290772162942115e+00  -3.3806741490572896e+00  -3.0254619826679607e+00  -2.5737517817544200e+00  -2.0384537673625660e+00  -1.4343807763401106e+00  -7.7769665256414000e-01  -8.5465682111782376e-02  6.2470669986520044e-01  1.3349614375057237e+00  2.0274338063305564e+00  2.6845011487816204e+00  3.2890700090295137e+00  3.8249355934154075e+00  4.2772342341409457e+00  4.6330003664588775e+00  4.8818750821154184e+00  5.0172891488560794e+00  5.0399941239548225e+00  -3.8594448099983878e+00  -3.8367725621065154e+00  -3.6990024492331255e+00  -3.4456293839209100e+00  -3.0835844747846810e+00  -2.6236303371626706e+00  -2.0791169070745381e+00  -1.4652229791711979e+00  -7.9837346786859442e-01  -9.5788051894387424e-02  6.2485460061437903e-01  1.3456646499948308e+00  2.0487412179124718e+00  2.7163718955513612e+00  3.3312792425609090e+00  3.8769561631342184e+00  4.3381203738941068e+00  4.7013075940751659e+00  4.9556545459994865e+00  5.0941964531537884e+00  5.1175793390003284e+00  -3.9820419938856264e+00  -3.9587147990392451e+00  -3.8161684992878078e+00  -3.5542031087401074e+00  -3.1804399879877709e+00  -2.7064662255375471e+00  -2.1464206922796198e+00  -1.5161221504989035e+00  -8.3243462486904429e-01  -1.1281986026380401e-01  6.2495293778538441e-01  1.3629831713634870e+00  2.0833545730974241e+00  2.7682494877992920e+00  3.4001215451516185e+00  3.9619833198391676e+00  4.4378565959837832e+00  4.8134217424016521e+00  5.0769276578444131e+00  5.2206901891300914e+00  5.2451172362881202e+00  -4.1535375138559383e+00  -4.1291914906301423e+00  -3.9796416869739883e+00  -3.7051899399813615e+00  -3.3145650705774146e+00  -2.8206465772064222e+00  -2.2387710387215907e+00  -1.5856880268413378e+00  -8.7885923758440287e-01  -1.3603092977710624e-01  6.2497809869358079e-01  1.3863410706719188e+00  2.1302123811283118e+00  2.8387138293130922e+00  3.4939917884314342e+00  4.0784215626566205e+00  4.5750342414408287e+00  4.9682347807857834e+00  5.2448989594045097e+00  5.3961890326647133e+00  5.4220734002351465e+00  -4.3728664724725856e+00  -4.3470928425092836e+00  -4.1880031762955703e+00  -3.8967201202665191e+00  -3.4836750866170965e+00  -2.9636593840076810e+00  -2.3536999042984492e+00  -1.6717810736173535e+00  -9.3608134338802040e-01  -1.6460366740795962e-01  6.2490917488967113e-01  1.4148789279141381e+00  2.1877079951589797e+00  2.9255902628963013e+00  3.6104012700402470e+00  4.2237655974328403e+00  4.7474168761831832e+00  5.1639769969141174e+00  5.4583028604201340e+00  5.6197807428905229e+00  5.6476133604180569e+00  -4.6385515990998254e+00  -4.6108659899555988e+00  -4.4391970235401752e+00  -4.1260293498817298e+00  -3.6843877347546901e+00  -3.1318182276136608e+00  -2.4876296329293974e+00  -1.7713358577398703e+00  -1.0018755258392000e+00  -1.9737638205232089e-01  6.2473113552581516e-01  1.4474026423926507e+00  2.2535782381425453e+00  3.0257722168593322e+00  3.7457373686987721e+00  4.3943178706103208e+00  4.9516573994907898e+00  5.3979853934124904e+00  5.7152582788585198e+00  5.8901520922200223e+00  5.9205515783132716e+00  -4.9486112298939409e+00  -4.9184012434388888e+00  -4.7302991176661369e+00  -4.3891081940133203e+00  -3.9118229971512148e+00  -3.3198932506183785e+00  -2.6355849126463746e+00  -1.8801662006800111e+00  -1.0732426960779238e+00  -2.3279004210052204e-01  6.2444003124097403e-01  1.4823396313819919e+00  2.3247955556184343e+00  3.1350274283904942e+00  3.8949698929608587e+00  4.5848084516851930e+00  5.1828862785289456e+00  5.6663481906147952e+00  6.0130458029137337e+00  6.2054974381975754e+00  6.2392955925737503e+00  -5.3004469933911240e+00  -5.2668742421953079e+00  -5.0571502701658506e+00  -4.6801642834757464e+00  -4.1590436338575394e+00  -3.5206574477874799e+00  -2.7908945722803704e+00  -1.9928058016689896e+00  -1.1463419609434762e+00  -2.6886425990308316e-01  6.2405045087214539e-01  1.5177291030008000e+00  2.3975115248670469e+00  3.2478438721412721e+00  4.0513476415417440e+00  4.7879247041810480e+00  5.4341307496639741e+00  5.9633546804804896e+00  6.3477511653544303e+00  6.5633969842824715e+00  6.6017954951002400e+00  -5.6907037519556996e+00  -5.6524979770026755e+00  -5.4137262485945072e+00  -4.9907811193435121e+00  -4.4163053550147646e+00  -3.7244036388639388e+00  -2.9449839469818784e+00  -2.1024878446698501e+00  -1.2165477134017539e+00  -3.0324473134114954e-01  6.2360438280225305e-01  1.5512880291480076e+00  2.4671331602523714e+00  3.3574243395467942e+00  4.2061914428848883e+00  4.9938059803254111e+00  5.6955260640692336e+00  6.2806245306140944e+00  6.7136472458861718e+00  6.9606320769060668e+00  7.0055160401384171e+00  -6.1150904601711158e+00  -6.0700439385767648e+00  -5.7909585993272996e+00  -5.3085950612401556e+00  -4.6701471822679155e+00  -3.9186043852161161e+00  -3.0874662953703682e+00  -2.2014394954123220e+00  -1.2787500508570657e+00  -3.3338109465826171e-01  6.2317812213031398e-01  1.5806068159504556e+00  2.5286507911933258e+00  3.4560153529583975e+00  4.3490090641955099e+00  5.1896861490102602e+00  5.9533362221713491e+00  6.6057115383425362e+00  7.1020203202619081e+00  7.3928288084180318e+00  7.4474666905969054e+00  -6.5681853259849206e+00  -6.5116779387673347e+00  -6.1743865464772156e+00  -5.6153179846392973e+00  -4.9025914288521770e+00  -4.0881437284622937e+00  -3.2069103421781717e+00  -2.2817450991969270e+00  -1.3280403511611618e+00  -3.5689861736924722e-01  6.2287950640643930e-01  1.6035238244488919e+00  2.5773511560608156e+00  3.5358329502854144e+00  4.4683461233049329e+00  5.3601647105431303e+00  6.1890576244419941e+00  6.9199341519268813e+00  7.4987682791669421e+00  7.8535580581275006e+00  7.9243720771284796e+00  -7.0434837490923714e+00  -6.9635962143426600e+00  -6.5395076113837920e+00  -5.8843842832885942e+00  -5.0914184342605990e+00  -4.2170172104937915e+00  -3.2928471822822338e+00  -2.3370492141624926e+00  -1.3608833500127047e+00  -3.7219488083284707e-01  6.2282282384684495e-01  1.6186818263406919e+00  2.6099847931217712e+00  3.5908353736027001e+00  4.5539725538665721e+00  5.4891444521001178e+00  6.3797324997186324e+00  7.1955794564573905e+00  7.8793447528248013e+00  8.3315414876673710e+00  8.4331523569191784e+00  -7.5349308955685270e+00  -7.3957831682901389e+00  -6.8440271784517037e+00  -6.0806457018217310e+00  -5.2140450861034289e+00  -4.2929648782282381e+00  -3.3395677609566823e+00  -2.3651734575766565e+00  -1.3766941527520868e+00  -3.7919319855961819e-01  6.2306705468543344e-01  1.6261597160040560e+00  2.6262379561450326e+00  3.6193059883554284e+00  4.6008513087290082e+00  5.5650326764303912e+00  6.5026200068093809e+00  7.3953128847603571e+00  8.1990625309405356e+00  8.8008104984901809e+00  8.9716438377111896e+00  -8.0406087764608252e+00  -7.7342449089178453e+00  -7.0235618231079791e+00  -6.1709715078522862e+00  -5.2596673455511516e+00  -4.3163110237608189e+00  -3.3514942090386253e+00  -2.3710742472714501e+00  -1.3793462095217961e+00  -3.8000740674500988e-01  6.2350856669426069e-01  1.6279017679069450e+00  2.6299484396161712e+00  3.6264615871369021e+00  4.6142280003388567e+00  5.5898512865024914e+00  6.5492898401670807e+00  7.4862066575821400e+00  8.3849178629912995e+00  9.1842435766929267e+00  9.5343152954581889e+00  -8.3334449333331886e+00  -7.8224688369094562e+00  -7.0341299333760077e+00  -6.1653947066972954e+00  -5.2528648879615440e+00  -4.3109180029412055e+00  -3.3475739125179054e+00  -2.3683517838273325e+00  -1.3775977617523296e+00  -3.7908267722316025e-01  6.2371451031692893e-01  1.6274733806300825e+00  2.6289683355424902e+00  3.6250293453646898e+00  4.6124925891216284e+00  5.5880953317638129e+00  6.5482108619175703e+00  7.4880829757541409e+00  8.3989188031439763e+00  9.2524881178117262e+00  1.0021646563931339e+01  </DataArray> 
</PointData> 
</Piece>
</UnstructuredGrid>
</VTKFile>