<?xml version="1.0"?>
<VTKFile type="UnstructuredGrid"  version="0.1"  >
<UnstructuredGrid>
<Piece  NumberOfPoints="651" NumberOfCells="1200">
<Points>
<DataArray  type="Float64"  NumberOfComponents="3"  format="ascii">0 0 0  50000 0 0  100000 0 0  150000 0 0  200000 0 0  250000 0 0  300000 0 0  350000 0 0  400000 0 0  450000 0 0  500000 0 0  550000 0 0  600000 0 0  650000 0 0  700000 0 0  750000 0 0  800000 0 0  850000 0 0  900000 0 0  950000 0 0  1000000 0 0  0 50000 0  50000 50000 0  100000 50000 0  150000 50000 0  200000 50000 0  250000 50000 0  300000 50000 0  350000 50000 0  400000 50000 0  450000 50000 0  500000 50000 0  550000 50000 0  600000 50000 0  650000 50000 0  700000 50000 0  750000 50000 0  800000 50000 0  850000 50000 0  900000 50000 0  950000 50000 0  1000000 50000 0  0 100000 0  50000 100000 0  100000 100000 0  150000 100000 0  200000 100000 0  250000 100000 0  300000 100000 0  350000 100000 0  400000 100000 0  450000 100000 0  500000 100000 0  550000 100000 0  600000 100000 0  650000 100000 0  700000 100000 0  750000 100000 0  800000 100000 0  850000 100000 0  900000 100000 0  950000 100000 0  1000000 100000 0  0 150000 0  50000 150000 0  100000 150000 0  150000 150000 0  200000 150000 0  250000 150000 0  300000 150000 0  350000 150000 0  400000 150000 0  450000 150000 0  500000 150000 0  550000 150000 0  600000 150000 0  650000 150000 0  700000 150000 0  750000 150000 0  800000 150000 0  850000 150000 0  900000 150000 0  950000 150000 0  1000000 150000 0  0 200000 0  50000 200000 0  100000 200000 0  150000 200000 0  200000 200000 0  250000 200000 0  300000 200000 0  350000 200000 0  400000 200000 0  450000 200000 0  500000 200000 0  550000 200000 0  600000 200000 0  650000 200000 0  700000 200000 0  750000 200000 0  800000 200000 0  850000 200000 0  900000 200000 0  950000 200000 0  1000000 200000 0  0 250000 0  50000 250000 0  100000 250000 0  150000 250000 0  200000 250000 0  250000 250000 0  300000 250000 0  350000 250000 0  400000 250000 0  450000 250000 0  500000 250000 0  550000 250000 0  600000 250000 0  650000 250000 0  700000 250000 0  750000 250000 0  800000 250000 0  850000 250000 0  900000 250000 0  950000 250000 0  1000000 250000 0  0 300000 0  50000 300000 0  100000 300000 0  150000 300000 0  200000 300000 0  250000 300000 0  300000 300000 0  350000 300000 0  400000 300000 0  450000 300000 0  500000 300000 0  550000 300000 0  600000 300000 0  650000 300000 0  700000 300000 0  750000 300000 0  800000 300000 0  850000 300000 0  900000 300000 0  950000 300000 0  1000000 300000 0  0 350000 0  50000 350000 0  100000 350000 0  150000 350000 0  200000 350000 0  250000 350000 0  300000 350000 0  350000 350000 0  400000 350000 0  450000 350000 0  500000 350000 0  550000 350000 0  600000 350000 0  650000 350000 0  700000 350000 0  750000 350000 0  800000 350000 0  850000 350000 0  900000 350000 0  950000 350000 0  1000000 350000 0  0 400000 0  50000 400000 0  100000 400000 0  150000 400000 0  200000 400000 0  250000 400000 0  300000 400000 0  350000 400000 0  400000 400000 0  450000 400000 0  500000 400000 0  550000 400000 0  600000 400000 0  650000 400000 0  700000 400000 0  750000 400000 0  800000 400000 0  850000 400000 0  900000 400000 0  950000 400000 0  1000000 400000 0  0 450000 0  50000 450000 0  100000 450000 0  150000 450000 0  200000 450000 0  250000 450000 0  300000 450000 0  350000 450000 0  400000 450000 0  450000 450000 0  500000 450000 0  550000 450000 0  600000 450000 0  650000 450000 0  700000 450000 0  750000 450000 0  800000 450000 0  850000 450000 0  900000 450000 0  950000 450000 0  1000000 450000 0  0 500000 0  50000 500000 0  100000 500000 0  150000 500000 0  200000 500000 0  250000 500000 0  300000 500000 0  350000 500000 0  400000 500000 0  450000 500000 0  500000 500000 0  550000 500000 0  600000 500000 0  650000 500000 0  700000 500000 0  750000 500000 0  800000 500000 0  850000 500000 0  900000 500000 0  950000 500000 0  1000000 500000 0  0 550000 0  50000 550000 0  100000 550000 0  150000 550000 0  200000 550000 0  250000 550000 0  300000 550000 0  350000 550000 0  400000 550000 0  450000 550000 0  500000 550000 0  550000 550000 0  600000 550000 0  650000 550000 0  700000 550000 0  750000 550000 0  800000 550000 0  850000 550000 0  900000 550000 0  950000 550000 0  1000000 550000 0  0 600000 0  50000 600000 0  100000 600000 0  150000 600000 0  200000 600000 0  250000 600000 0  300000 600000 0  350000 600000 0  400000 600000 0  450000 600000 0  500000 600000 0  550000 600000 0  600000 600000 0  650000 600000 0  700000 600000 0  750000 600000 0  800000 600000 0  850000 600000 0  900000 600000 0  950000 600000 0  1000000 600000 0  0 650000 0  50000 650000 0  100000 650000 0  150000 650000 0  200000 650000 0  250000 650000 0  300000 650000 0  350000 650000 0  400000 650000 0  450000 650000 0  500000 650000 0  550000 650000 0  600000 650000 0  650000 650000 0  700000 650000 0  750000 650000 0  800000 650000 0  850000 650000 0  900000 650000 0  950000 650000 0  1000000 650000 0  0 700000 0  50000 700000 0  100000 700000 0  150000 700000 0  200000 700000 0  250000 700000 0  300000 700000 0  350000 700000 0  400000 700000 0  450000 700000 0  500000 700000 0  550000 700000 0  600000 700000 0  650000 700000 0  700000 700000 0  750000 700000 0  800000 700000 0  850000 700000 0  900000 700000 0  950000 700000 0  1000000 700000 0  0 750000 0  50000 750000 0  100000 750000 0  150000 750000 0  200000 750000 0  250000 750000 0  300000 750000 0  350000 750000 0  400000 750000 0  450000 750000 0  500000 750000 0  550000 750000 0  600000 750000 0  650000 750000 0  700000 750000 0  750000 750000 0  800000 750000 0  850000 750000 0  900000 750000 0  950000 750000 0  1000000 750000 0  0 800000 0  50000 800000 0  100000 800000 0  150000 800000 0  200000 800000 0  250000 800000 0  300000 800000 0  350000 800000 0  400000 800000 0  450000 800000 0  500000 800000 0  550000 800000 0  600000 800000 0  650000 800000 0  700000 800000 0  750000 800000 0  800000 800000 0  850000 800000 0  900000 800000 0  950000 800000 0  1000000 800000 0  0 850000 0  50000 850000 0  100000 850000 0  150000 850000 0  200000 850000 0  250000 850000 0  300000 850000 0  350000 850000 0  400000 850000 0  450000 850000 0  500000 850000 0  550000 850000 0  600000 850000 0  650000 850000 0  700000 850000 0  750000 850000 0  800000 850000 0  850000 850000 0  900000 850000 0  950000 850000 0  1000000 850000 0  0 900000 0  50000 900000 0  100000 900000 0  150000 900000 0  200000 900000 0  250000 900000 0  300000 900000 0  350000 900000 0  400000 900000 0  450000 900000 0  500000 900000 0  550000 900000 0  600000 900000 0  650000 900000 0  700000 900000 0  750000 900000 0  800000 900000 0  850000 900000 0  900000 900000 0  950000 900000 0  1000000 900000 0  0 950000 0  50000 950000 0  100000 950000 0  150000 950000 0  200000 950000 0  250000 950000 0  300000 950000 0  350000 950000 0  400000 950000 0  450000 950000 0  500000 950000 0  550000 950000 0  600000 950000 0  650000 950000 0  700000 950000 0  750000 950000 0  800000 950000 0  850000 950000 0  900000 950000 0  950000 950000 0  1000000 950000 0  0 1000000 0  50000 1000000 0  100000 1000000 0  150000 1000000 0  200000 1000000 0  250000 1000000 0  300000 1000000 0  350000 1000000 0  400000 1000000 0  450000 1000000 0  500000 1000000 0  550000 1000000 0  600000 1000000 0  650000 1000000 0  700000 1000000 0  750000 1000000 0  800000 1000000 0  850000 1000000 0  900000 1000000 0  950000 1000000 0  1000000 1000000 0  0 1050000 0  50000 1050000 0  100000 1050000 0  150000 1050000 0  200000 1050000 0  250000 1050000 0  300000 1050000 0  350000 1050000 0  400000 1050000 0  450000 1050000 0  500000 1050000 0  550000 1050000 0  600000 1050000 0  650000 1050000 0  700000 1050000 0  750000 1050000 0  800000 1050000 0  850000 1050000 0  900000 1050000 0  950000 1050000 0  1000000 1050000 0  0 1100000 0  50000 1100000 0  100000 1100000 0  150000 1100000 0  200000 1100000 0  250000 1100000 0  300000 1100000 0  350000 1100000 0  400000 1100000 0  450000 1100000 0  500000 1100000 0  550000 1100000 0  600000 1100000 0  650000 1100000 0  700000 1100000 0  750000 1100000 0  800000 1100000 0  850000 1100000 0  900000 1100000 0  950000 1100000 0  1000000 1100000 0  0 1150000 0  50000 1150000 0  100000 1150000 0  150000 1150000 0  200000 1150000 0  250000 1150000 0  300000 1150000 0  350000 1150000 0  400000 1150000 0  450000 1150000 0  500000 1150000 0  550000 1150000 0  600000 1150000 0  650000 1150000 0  700000 1150000 0  750000 1150000 0  800000 1150000 0  850000 1150000 0  900000 1150000 0  950000 1150000 0  1000000 1150000 0  0 1200000 0  50000 1200000 0  100000 1200000 0  150000 1200000 0  200000 1200000 0  250000 1200000 0  300000 1200000 0  350000 1200000 0  400000 1200000 0  450000 1200000 0  500000 1200000 0  550000 1200000 0  600000 1200000 0  650000 1200000 0  700000 1200000 0  750000 1200000 0  800000 1200000 0  850000 1200000 0  900000 1200000 0  950000 1200000 0  1000000 1200000 0  0 1250000 0  50000 1250000 0  100000 1250000 0  150000 1250000 0  200000 1250000 0  250000 1250000 0  300000 1250000 0  350000 1250000 0  400000 1250000 0  450000 1250000 0  500000 1250000 0  550000 1250000 0  600000 1250000 0  650000 1250000 0  700000 1250000 0  750000 1250000 0  800000 1250000 0  850000 1250000 0  900000 1250000 0  950000 1250000 0  1000000 1250000 0  0 1300000 0  50000 1300000 0  100000 1300000 0  150000 1300000 0  200000 1300000 0  250000 1300000 0  300000 1300000 0  350000 1300000 0  400000 1300000 0  450000 1300000 0  500000 1300000 0  550000 1300000 0  600000 1300000 0  650000 1300000 0  700000 1300000 0  750000 1300000 0  800000 1300000 0  850000 1300000 0  900000 1300000 0  950000 1300000 0  1000000 1300000 0  0 1350000 0  50000 1350000 0  100000 1350000 0  150000 1350000 0  200000 1350000 0  250000 1350000 0  300000 1350000 0  350000 1350000 0  400000 1350000 0  450000 1350000 0  500000 1350000 0  550000 1350000 0  600000 1350000 0  650000 1350000 0  700000 135
[...]
<PointData  Scalars="f_25"> 
<DataArray  type="Float64"  Name="f_25"  format="ascii">-6.1771497411437668e+00  -5.6209936739579147e+00  -5.0040651867737322e+00  -4.3458493917677012e+00  -3.6667016672126298e+00  -2.9729604725270025e+00  -2.2680532986001150e+00  -1.5545941036804074e+00  -8.3493513781047590e-01  -1.1135780491604007e-01  6.1385175109982781e-01  1.3383672337021653e+00  2.0597940672302832e+00  2.7756236804361456e+00  3.4831377571053981e+00  4.1792047278658924e+00  4.8598510286523862e+00  5.5193095530993705e+00  6.1472504858665875e+00  6.7173286289132017e+00  7.0871088555476991e+00  -5.8246193874281529e+00  -5.5713216968896999e+00  -4.9937113606230623e+00  -4.3443296247652539e+00  -3.6673628046706535e+00  -2.9741397693797258e+00  -2.2692375787585486e+00  -1.5555739998728053e+00  -8.3560001881996326e-01  -1.1163397372590766e-01  6.1402490859345893e-01  1.3390509900600953e+00  2.0610637768925502e+00  2.7775864920080267e+00  3.4859522849770115e+00  4.1830633105624893e+00  4.8646951027091339e+00  5.5232088669898625e+00  6.1393743753471348e+00  6.6531639047496025e+00  6.8751266811490304e+00  -5.4175599736500093e+00  -5.2938471610729554e+00  -4.8589892020456524e+00  -4.2782911769140783e+00  -3.6333523986034546e+00  -2.9559811675137682e+00  -2.2593984682307116e+00  -1.5502737161284765e+00  -8.3282710903685997e-01  -1.1031792025380006e-01  6.1436854517231598e-01  1.3384549957153824e+00  2.0591065145899514e+00  2.7732459391674578e+00  3.4772175475651137e+00  4.1660304490833528e+00  4.8315116467536035e+00  5.4576617688555906e+00  6.0093005570142592e+00  6.4081815912143796e+00  6.5092031255493392e+00  -5.0279948762648523e+00  -4.9543561184736298e+00  -4.6275546886860006e+00  -4.1335679671516017e+00  -3.5442030559288678e+00  -2.9008509142711660e+00  -2.2252889202145232e+00  -1.5295217842784250e+00  -8.2095629956015193e-01  -1.0483838858492427e-01  6.1457238679177029e-01  1.3333773856174622e+00  2.0476128044382174e+00  2.7528054691044241e+00  3.4432892716265386e+00  4.1109324646403413e+00  4.7426358815127454e+00  5.3155374440466758e+00  5.7889188710991943e+00  6.0955105129165119e+00  6.1535862146217921e+00  -4.6599299798311966e+00  -4.6085890211774343e+00  -4.3521785486960765e+00  -3.9340159672952320e+00  -3.4060725709860771e+00  -2.8073426732746674e+00  -2.1631595072628573e+00  -1.4895771639626245e+00  -7.9723233508496094e-01  -9.3799090694704157e-02  6.1456140192477204e-01  1.3222988489135383e+00  2.0238004194345041e+00  2.7127094356761359e+00  3.3810072974737402e+00  4.0175785083061459e+00  4.6059216874822484e+00  5.1208157351160635e+00  5.5247700691175039e+00  5.7686126376249289e+00  5.8097097498920496e+00  -4.3149353520722045e+00  -4.2753174534018630e+00  -4.0651518387349235e+00  -3.7066253268178553e+00  -3.2354201122357034e+00  -2.6838636483965925e+00  -2.0766771671860598e+00  -1.4317015705619123e+00  -7.6189649081417932e-01  -7.7150801178143102e-02  6.1437703462499949e-01  1.3052800088681340e+00  1.9881032883555705e+00  2.6545486825718929e+00  3.2945178626346836e+00  3.8948500279617897e+00  4.4377073548131651e+00  4.8989068525442008e+00  5.2474182197535404e+00  5.4491743544395908e+00  5.4819351340107314e+00  -3.9952399339845721e+00  -3.9626960196643761e+00  -3.7842118317582072e+00  -3.4714223976470007e+00  -3.0488424212504270e+00  -2.5420585019625030e+00  -1.9732484812314928e+00  -1.3602736061164287e+00  -7.1730644685744660e-01  -5.5879866560359551e-02  6.1410051377001862e-01  1.2834815595093476e+00  1.9430824683612069e+00  2.5829249477608953e+00  3.1913965135577183e+00  3.7543220411735447e+00  4.2540564027686436e+00  4.6690109849940136e+00  4.9745703674749207e+00  5.1471718171957690e+00  5.1749520703571941e+00  -3.7032115702292350e+00  -3.6753733374635056e+00  -3.5195489559102633e+00  -3.2419054570917432e+00  -2.8597109780823202e+00  -2.3930594796239304e+00  -1.8611563230891499e+00  -1.2809242970581629e+00  -6.6687332514565778e-01  -3.1551706983161974e-02  6.1380864104819111e-01  1.2586206552041139e+00  1.8922880369078183e+00  2.5035624330191300e+00  3.0799081191967121e+00  3.6069212118448970e+00  4.0679619501620312e+00  4.4443444469853013e+00  4.7166774178965909e+00  4.8682677108815948e+00  4.8926728900630865e+00  -3.4410108610285697e+00  -3.4165111755554785e+00  -3.2774596511377716e+00  -3.0270666253649487e+00  -2.6779500185178517e+00  -2.2460912957825849e+00  -1.7479837514883687e+00  -1.1992585331153740e+00  -6.1421939386803126e-01  -5.9091866228393169e-03  6.1355580123327780e-01  1.2325404462601866e+00  1.8394134649615501e+00  2.4220792235287099e+00  2.9675594423027567e+00  3.4617006323862736e+00  3.8891511012370437e+00  4.2338413779551223e+00  4.4802930730813060e+00  4.6162408632064871e+00  4.6381951757146398e+00  -3.2104685739632246e+00  -3.1884352360562209e+00  -3.0620817032333760e+00  -2.8329598207149593e+00  -2.5106856971510463e+00  -2.1082775697262579e+00  -1.6400014982396189e+00  -1.1201879259517300e+00  -5.6266395361317934e-01  1.9397464047213472e-02  6.1337195710838655e-01  1.2069419859708810e+00  1.7878011765174004e+00  2.3433649195674939e+00  2.8605461792910059e+00  3.3256740367441369e+00  3.7246642812766950e+00  4.0435830425719708e+00  4.2697704966577028e+00  4.3938276037634818e+00  4.4139411021300168e+00  -3.0130642940749759e+00  -2.9928931412498936e+00  -2.8762424594532283e+00  -2.6637097844521160e+00  -2.3629542464097484e+00  -1.9849001800403263e+00  -1.5420862080709090e+00  -1.0476943008566015e+00  -5.1498726369036174e-01  4.2951577770884798e-02  6.1326757139057431e-01  1.1832560068909836e+00  1.7402260821109568e+00  2.2713686857584565e+00  2.7636878564431728e+00  3.2040624106815043e+00  3.5795131354113168e+00  3.8777541274571701e+00  4.0881146104633626e+00  4.2030681100050167e+00  4.2217863642699216e+00  -2.8499468325025274e+00  -2.8311882639629440e+00  -2.7219055632474207e+00  -2.5221413318300510e+00  -2.2382721694912320e+00  -1.8797648829021660e+00  -1.4578706483100698e+00  -9.8483429066317452e-01  -4.7337595155358164e-01  6.3617392400018985e-02  6.1323992984673237e-01  1.1626088028537780e+00  1.6988546891331251e+00  2.2091144827637104e+00  2.6805783969745627e+00  3.1006434876840010e+00  3.4572226805907671e+00  3.7392508202068737e+00  3.9374375767229184e+00  4.0454858893993650e+00  4.0631612649500157e+00  -2.7219709332702826e+00  -2.7042679759442585e+00  -2.6004287674995665e+00  -2.4101769849033667e+00  -2.1390560527960587e+00  -1.7955414077436025e+00  -1.3899633132945877e+00  -9.3385104277370978e-01  -4.3946416065679417e-01  8.0532807188640948e-02  6.1327846057136548e-01  1.1458396609878501e+00  1.6652945336493281e+00  2.1588165064178475e+00  2.6138018908545519e+00  3.0180798503713664e+00  3.3602358038068312e+00  3.6300696098689578e+00  3.8192241596359526e+00  3.9222020709594436e+00  3.9391318997880616e+00  -2.6297377938681299e+00  -2.6127899265677512e+00  -2.5127251259071399e+00  -2.3290939530880190e+00  -2.0669201899081138e+00  -1.7340382508160128e+00  -1.3401607898736925e+00  -8.9631444345675226e-01  -4.1441166754895975e-01  9.3077600158726889e-02  6.1336844208383023e-01  1.1335393664826106e+00  1.6406768161630318e+00  2.1220201272042090e+00  2.5651408866822782e+00  2.9581857310254054e+00  3.2902024680052291e+00  3.5515607693438067e+00  3.7344988696699715e+00  3.8340177798133586e+00  3.8504667184117052e+00  -2.5736320551168141e+00  -2.5571728346995917e+00  -2.4593681666026446e+00  -2.2796915771620530e+00  -2.0228810587469872e+00  -1.6964068506712817e+00  -1.3096215186938516e+00  -8.7324937872494290e-01  -3.9898446352284433e-01  1.0083635920604261e-01  6.1349325922449838e-01  1.1260911693459825e+00  1.6257390968808063e+00  2.0997295913539493e+00  2.5357467552635780e+00  2.9221260015611277e+00  3.2481795815057879e+00  3.5045947798192043e+00  3.6839358943415612e+00  3.7814756621364021e+00  3.7976899557508741e+00  -2.5538504333682375e+00  -2.5376327892811470e+00  -2.4406591789956296e+00  -2.2623969845971539e+00  -2.0074900788495413e+00  -1.6832805052644793e+00  -1.2989908087928208e+00  -8.6523364890768206e-01  -3.9361987074890142e-01  1.0356695546094005e-01  6.1363559050138528e-01  1.1237042255418188e+00  1.6208910517516584e+00  2.0925048299104354e+00  2.5262619897955729e+00  2.9105516862672385e+00  3.2347612598522910e+00  3.4896681655999151e+00  3.6679303599983868e+00  3.7649039702839096e+00  3.7811216143710067e+00  -2.5704187747481120e+00  -2.5542044811336457e+00  -2.4566647133388062e+00  -2.2773235988164484e+00  -2.0209084005030360e+00  -1.6948548205583802e+00  -1.3084755742608276e+00  -8.7245841035120131e-01  -3.9846791587805908e-01  1.0118001165677751e-01  6.1377792177827684e-01  1.1264348217967264e+00  1.6262556445256111e+00  2.1005205597276992e+00  2.5368926996966032e+00  2.9236780316740472e+00  3.2501522397497524e+00  3.5069627581648195e+00  3.6866393476054373e+00  3.7844440157023937e+00  3.8009032361196171e+00  -2.6231955374089404e+00  -2.6067465988106013e+00  -2.5072276886672213e+00  -2.3242895883410482e+00  -2.0629312870024847e+00  -1.7309145500226666e+00  -1.3378697056795374e+00  -8.9474894620146683e-01  -4.1340563516027740e-01  9.3731814520163090e-02  6.1390273891895986e-01  1.1341935808440637e+00  1.6416828485517412e+00  2.1235856244595257e+00  2.5674319708764739e+00  2.9613094318187998e+00  3.2941913709109034e+00  3.5563651340908016e+00  3.7399963069099638e+00  3.8400611075706017e+00  3.8570089748709733e+00  -2.7118607187852706e+00  -2.6949308899566469e+00  -2.5919529786331670e+00  -2.4027984288661663e+00  -2.1329646228040633e+00  -1.7908086693686180e+00  -1.3865307098517945e+00  -9.3154532541508783e-01  -4.3802335264654946e-01  8.1431520014942596e-02  6.1399272043145059e-01  1.1467383738141799e+00  1.6667353416596042e+00  2.1611222237765064e+00  2.6172344942973877e+00  3.0228125887464059e+00  3.3663272337988861e+00  3.6374481659061875e+00  3.8276999485023868e+00  3.9315391569470775e+00  3.9492421142731033e+00  -2.8358900839472136e+00  -2.8182147083965661e+00  -2.7101663957201221e+00  -2.5119796392040881e+00  -2.2299514995879841e+00  -1.8733723066812256e+00  -1.4533072159717844e+00  -9.8184330176092338e-01  -4.7158350813031991e-01  6.4662378149039454e-02  6.1403125115610480e-01  1.1636537886028235e+00  1.7006471325564192e+00  2.2121054716659936e+00  2.6851418293128870e+00  3.1070360639049732e+00  3.4655433504940620e+00  3.7494125128328717e+00  3.9491767442502166e+00  4.0584594449657345e+00  4.0772180135053260e+00  -2.9945151832670835e+00  -2.9757969290021826e+00  -2.8608434294605334e+00  -2.6504829464543507e+00  -2.3522419544084952e+00  -1.9767912296786838e+00  -1.5364166754403459e+00  -1.0440975047556282e+00  -5.1295490110811059e-01  4.4015174111872037e-02  6.1400360961229750e-01  1.1843196032319918e+00  1.7422584446932401e+00  2.2749654818594753e+00  2.7693573890737819e+00  3.2121713610431866e+00  3.5902254274125913e+00  3.8909809654549363e+00  4.1035136404560468e+00  4.2201643222526943e+00  4.2403354750777735e+00  -3.1866699211271197e+00  -3.1665564227606122e+00  -3.0424993156548292e+00  -2.8163118615691158e+00  -2.4973931002738392e+00  -2.0984028557412704e+00  -1.6332749982881369e+00  -1.1160937385646232e+00  -5.6052999551450922e-01  2.0329195032027885e-02  6.1389922389453344e-01  1.2078737169557134e+00  1.7899351346161039e+00  2.3474591069546626e+00  2.8672726792425483e+00  3.3355487507291692e+00  3.7379568781539274e+00  4.0602310017178054e+00  4.2893528842362123e+00  4.4157064170590381e+00  4.4377397549660209e+00  -3.4109239947117231e+00  -3.3889696822035820e+00  -3.2530218920783929e+00  -3.0065701969522212e+00  -2.6618799202341479e+00  -2.2344294513833649e+00  -1.7402882612998432e+00  -1.1948080425257763e+00  -6.1214228395859960e-01  -5.2692652572268071e-03  6.1371537976969570e-01  1.2331803676258237e+00  1.8414905748710193e+00  2.4265297141183622e+00  2.9752549324913500e+00  3.4733624767855300e+00  3.9052211995207626e+00  4.2543378063678299e+00  4.5047308321406261e+00  4.6437823565583169e+00  4.6682820420314082e+00  -3.6654017090601405e+00  -3.6409965298786409e+00  -3.4894062368936440e+00  -3.2170732659823731e+00  -2.8406907691590875e+00  -2.3796500308419390e+00  -1.8526369381937420e+00  -1.2762912520161416e+00  -6.6501685590481951e-01  -3.1349474201104205e-02  6.1346253995482969e-01  1.2588228879861905e+00  1.8941445061486879e+00  2.5081954780611833e+00  3.0884275040921523e+00  3.6203306606269066e+00  4.0869821590852728e+00  4.4691766380946536e+00  4.7468201369131497e+00  4.9026445184663823e+00  4.9304827512321099e+00  -3.9476808893542286e+00  -3.9199006361928053e+00  -3.7472991864719694e+00  -3.4417398039910578e+00  -3.0267852217656612e+00  -2.5270508601705424e+00  -1.9641253325546881e+00  -1.3556537667578461e+00  -7.1581128735814492e-01  -5.6210378506280717e-02  6.1317066723305447e-01  1.2831510475634367e+00  1.9445776278605202e+00  2.5875447871194788e+00  3.2005196622345222e+00  3.7693296829655050e+00  4.2761136022534210e+00  4.6986935786499728e+00  5.0114830127611496e+00  5.1899672006672946e+00  5.2225111149874959e+00  -4.2546639530077233e+00  -4.2219031734365986e+00  -4.0201470387505358e+00  -3.6716356715411864e+00  -3.2104361738101357e+00  -2.6675788469587549e+00  -2.0672466816316115e+00  -1.4272775015687846e+00  -7.6083210735245776e-01  -7.8008827865022085e-02  6.1289414637812023e-01  1.3044219821812668e+00  1.9891676718172986e+00  2.6589727515650110e+00  3.3039483481891363e+00  3.9111348293996571e+00  4.4626912932387484e+00  4.9338965078208705e+00  5.2924230197379041e+00  5.5025886344048427e+00  5.5422065330751762e+00  -4.5824385688890024e+00  -4.5413414566218870e+00  -4.2974988881144442e+00  -3.8935445541130065e+00  -3.3786505064791816e+00  -2.7903073273030765e+00  -2.1537361164706308e+00  -1.4854382546729952e+00  -7.9652923843135870e-01  -9.5027667910392549e-02  6.1270977907838131e-01  1.3210702716978602e+00  2.0245035160881071e+00  2.7168483449657552e+00  3.3904306882659792e+00  4.0346138542777963e+00  4.6333437519891607e+00  5.1612871482982925e+00  5.5794497296991237e+00  5.8358602021804646e+00  5.8872011608342216e+00  -4.9263150336187076e+00  -4.8682393319134247e+00  -4.5616476900961063e+00  -4.0882662630435904e+00  -3.5153647005096578e+00  -2.8836612836372351e+00  -2.2160180906233968e+00  -1.5255342881012646e+00  -8.2034162343504879e-01  -1.0610620461429282e-01  6.1269879421140361e-01  1.3321095695881018e+00  2.0482274805633152e+00  2.7567929652815781e+00  3.4525601012176823e+00  4.1281220952743256e+00  4.7714742369320087e+00  5.3608391481547040e+00  5.8548258696890807e+00  6.1816272994766930e+00  6.2552660572679120e+00  -5.2819319445462405e+00  -5.1809104102112586e+00  -4.7820293760111587e+00  -4.2303905878524866e+00  -3.6042404657505180e+00  -2.9387592680802430e+00  -2.2499463665619688e+00  -1.5459747581642853e+00  -8.3183533358678341e-01  -1.1118381471220498e-01  6.1290263583087101e-01  1.3375891012569863e+00  2.0600982900400377e+00  2.7775448971316381e+00  3.4866696492338805e+00  4.1832523485169277e+00  4.8606235796066048e+00  5.5055623579171993e+00  6.0862603830487494e+00  6.5211183420760319e+00  6.6448311546531222e+00  -5.6478555001459396e+00  -5.4258927237465109e+00  -4.9121031943440796e+00  -4.2959376859867877e+00  -3.6374239217060458e+00  -2.9557921295593776e+00  -2.2586811039738617e+00  -1.5503153110048569e+00  -8.3379259588937160e-01  -1.1177980905691237e-01  6.1324627240972762e-01  1.3389051547290973e+00  2.0628711998231473e+00  2.7828451808759840e+00  3.4965087597617206e+00  4.2014109503828676e+00  4.8946339856737984e+00  5.5716008057683810e+00  6.2209825416261904e+00  6.7985928778928022e+00  7.0518905684312614e+00  -5.8598376745446084e+00  -5.4900574479101065e+00  -4.9199793048635154e+00  -4.2920383720962869e+00  -3.6325798476492870e+00  -2.9519335468627799e+00  -2.2558665761022487e+00  -1.5483524994329783e+00  -8.3252288622710036e-01  -1.1109605269897872e-01  6.1341942990336396e-01  1.3386289859192253e+00  2.0622063188136637e+00  2.7818652846835863e+00  3.4953244796032856e+00  4.2002316535301452e+00  4.8939728482157756e+00  5.5731205727708408e+00  6.2313363677768470e+00  6.8482648549610259e+00  7.4044209221468780e+00  </DataArray> 
</PointData> 
</Piece>
</UnstructuredGrid>
</VTKFile>