<?xml version="1.0"?>
<VTKFile type="UnstructuredGrid"  version="0.1"  >
<UnstructuredGrid>
<Piece  NumberOfPoints="651" NumberOfCells="1200">
<Points>
<DataArray  type="Float64"  NumberOfComponents="3"  format="ascii">0 0 0  50000 0 0  100000 0 0  150000 0 0  200000 0 0  250000 0 0  300000 0 0  350000 0 0  400000 0 0  450000 0 0  500000 0 0  550000 0 0  600000 0 0  650000 0 0  700000 0 0  750000 0 0  800000 0 0  850000 0 0  900000 0 0  950000 0 0  1000000 0 0  0 50000 0  50000 50000 0  100000 50000 0  150000 50000 0  200000 50000 0  250000 50000 0  300000 50000 0  350000 50000 0  400000 50000 0  450000 50000 0  500000 50000 0  550000 50000 0  600000 50000 0  650000 50000 0  700000 50000 0  750000 50000 0  800000 50000 0  850000 50000 0  900000 50000 0  950000 50000 0  1000000 50000 0  0 100000 0  50000 100000 0  100000 100000 0  150000 100000 0  200000 100000 0  250000 100000 0  300000 100000 0  350000 100000 0  400000 100000 0  450000 100000 0  500000 100000 0  550000 100000 0  600000 100000 0  650000 100000 0  700000 100000 0  750000 100000 0  800000 100000 0  850000 100000 0  900000 100000 0  950000 100000 0  1000000 100000 0  0 150000 0  50000 150000 0  100000 150000 0  150000 150000 0  200000 150000 0  250000 150000 0  300000 150000 0  350000 150000 0  400000 150000 0  450000 150000 0  500000 150000 0  550000 150000 0  600000 150000 0  650000 150000 0  700000 150000 0  750000 150000 0  800000 150000 0  850000 150000 0  900000 150000 0  950000 150000 0  1000000 150000 0  0 200000 0  50000 200000 0  100000 200000 0  150000 200000 0  200000 200000 0  250000 200000 0  300000 200000 0  350000 200000 0  400000 200000 0  450000 200000 0  500000 200000 0  550000 200000 0  600000 200000 0  650000 200000 0  700000 200000 0  750000 200000 0  800000 200000 0  850000 200000 0  900000 200000 0  950000 200000 0  1000000 200000 0  0 250000 0  50000 250000 0  100000 250000 0  150000 250000 0  200000 250000 0  250000 250000 0  300000 250000 0  350000 250000 0  400000 250000 0  450000 250000 0  500000 250000 0  550000 250000 0  600000 250000 0  650000 250000 0  700000 250000 0  750000 250000 0  800000 250000 0  850000 250000 0  900000 250000 0  950000 250000 0  1000000 250000 0  0 300000 0  50000 300000 0  100000 300000 0  150000 300000 0  200000 300000 0  250000 300000 0  300000 300000 0  350000 300000 0  400000 300000 0  450000 300000 0  500000 300000 0  550000 300000 0  600000 300000 0  650000 300000 0  700000 300000 0  750000 300000 0  800000 300000 0  850000 300000 0  900000 300000 0  950000 300000 0  1000000 300000 0  0 350000 0  50000 350000 0  100000 350000 0  150000 350000 0  200000 350000 0  250000 350000 0  300000 350000 0  350000 350000 0  400000 350000 0  450000 350000 0  500000 350000 0  550000 350000 0  600000 350000 0  650000 350000 0  700000 350000 0  750000 350000 0  800000 350000 0  850000 350000 0  900000 350000 0  950000 350000 0  1000000 350000 0  0 400000 0  50000 400000 0  100000 400000 0  150000 400000 0  200000 400000 0  250000 400000 0  300000 400000 0  350000 400000 0  400000 400000 0  450000 400000 0  500000 400000 0  550000 400000 0  600000 400000 0  650000 400000 0  700000 400000 0  750000 400000 0  800000 400000 0  850000 400000 0  900000 400000 0  950000 400000 0  1000000 400000 0  0 450000 0  50000 450000 0  100000 450000 0  150000 450000 0  200000 450000 0  250000 450000 0  300000 450000 0  350000 450000 0  400000 450000 0  450000 450000 0  500000 450000 0  550000 450000 0  600000 450000 0  650000 450000 0  700000 450000 0  750000 450000 0  800000 450000 0  850000 450000 0  900000 450000 0  950000 450000 0  1000000 450000 0  0 500000 0  50000 500000 0  100000 500000 0  150000 500000 0  200000 500000 0  250000 500000 0  300000 500000 0  350000 500000 0  400000 500000 0  450000 500000 0  500000 500000 0  550000 500000 0  600000 500000 0  650000 500000 0  700000 500000 0  750000 500000 0  800000 500000 0  850000 500000 0  900000 500000 0  950000 500000 0  1000000 500000 0  0 550000 0  50000 550000 0  100000 550000 0  150000 550000 0  200000 550000 0  250000 550000 0  300000 550000 0  350000 550000 0  400000 550000 0  450000 550000 0  500000 550000 0  550000 550000 0  600000 550000 0  650000 550000 0  700000 550000 0  750000 550000 0  800000 550000 0  850000 550000 0  900000 550000 0  950000 550000 0  1000000 550000 0  0 600000 0  50000 600000 0  100000 600000 0  150000 600000 0  200000 600000 0  250000 600000 0  300000 600000 0  350000 600000 0  400000 600000 0  450000 600000 0  500000 600000 0  550000 600000 0  600000 600000 0  650000 600000 0  700000 600000 0  750000 600000 0  800000 600000 0  850000 600000 0  900000 600000 0  950000 600000 0  1000000 600000 0  0 650000 0  50000 650000 0  100000 650000 0  150000 650000 0  200000 650000 0  250000 650000 0  300000 650000 0  350000 650000 0  400000 650000 0  450000 650000 0  500000 650000 0  550000 650000 0  600000 650000 0  650000 650000 0  700000 650000 0  750000 650000 0  800000 650000 0  850000 650000 0  900000 650000 0  950000 650000 0  1000000 650000 0  0 700000 0  50000 700000 0  100000 700000 0  150000 700000 0  200000 700000 0  250000 700000 0  300000 700000 0  350000 700000 0  400000 700000 0  450000 700000 0  500000 700000 0  550000 700000 0  600000 700000 0  650000 700000 0  700000 700000 0  750000 700000 0  800000 700000 0  850000 700000 0  900000 700000 0  950000 700000 0  1000000 700000 0  0 750000 0  50000 750000 0  100000 750000 0  150000 750000 0  200000 750000 0  250000 750000 0  300000 750000 0  350000 750000 0  400000 750000 0  450000 750000 0  500000 750000 0  550000 750000 0  600000 750000 0  650000 750000 0  700000 750000 0  750000 750000 0  800000 750000 0  850000 750000 0  900000 750000 0  950000 750000 0  1000000 750000 0  0 800000 0  50000 800000 0  100000 800000 0  150000 800000 0  200000 800000 0  250000 800000 0  300000 800000 0  350000 800000 0  400000 800000 0  450000 800000 0  500000 800000 0  550000 800000 0  600000 800000 0  650000 800000 0  700000 800000 0  750000 800000 0  800000 800000 0  850000 800000 0  900000 800000 0  950000 800000 0  1000000 800000 0  0 850000 0  50000 850000 0  100000 850000 0  150000 850000 0  200000 850000 0  250000 850000 0  300000 850000 0  350000 850000 0  400000 850000 0  450000 850000 0  500000 850000 0  550000 850000 0  600000 850000 0  650000 850000 0  700000 850000 0  750000 850000 0  800000 850000 0  850000 850000 0  900000 850000 0  950000 850000 0  1000000 850000 0  0 900000 0  50000 900000 0  100000 900000 0  150000 900000 0  200000 900000 0  250000 900000 0  300000 900000 0  350000 900000 0  400000 900000 0  450000 900000 0  500000 900000 0  550000 900000 0  600000 900000 0  650000 900000 0  700000 900000 0  750000 900000 0  800000 900000 0  850000 900000 0  900000 900000 0  950000 900000 0  1000000 900000 0  0 950000 0  50000 950000 0  100000 950000 0  150000 950000 0  200000 950000 0  250000 950000 0  300000 950000 0  350000 950000 0  400000 950000 0  450000 950000 0  500000 950000 0  550000 950000 0  600000 950000 0  650000 950000 0  700000 950000 0  750000 950000 0  800000 950000 0  850000 950000 0  900000 950000 0  950000 950000 0  1000000 950000 0  0 1000000 0  50000 1000000 0  100000 1000000 0  150000 1000000 0  200000 1000000 0  250000 1000000 0  300000 1000000 0  350000 1000000 0  400000 1000000 0  450000 1000000 0  500000 1000000 0  550000 1000000 0  600000 1000000 0  650000 1000000 0  700000 1000000 0  750000 1000000 0  800000 1000000 0  850000 1000000 0  900000 1000000 0  950000 1000000 0  1000000 1000000 0  0 1050000 0  50000 1050000 0  100000 1050000 0  150000 1050000 0  200000 1050000 0  250000 1050000 0  300000 1050000 0  350000 1050000 0  400000 1050000 0  450000 1050000 0  500000 1050000 0  550000 1050000 0  600000 1050000 0  650000 1050000 0  700000 1050000 0  750000 1050000 0  800000 1050000 0  850000 1050000 0  900000 1050000 0  950000 1050000 0  1000000 1050000 0  0 1100000 0  50000 1100000 0  100000 1100000 0  150000 1100000 0  200000 1100000 0  250000 1100000 0  300000 1100000 0  350000 1100000 0  400000 1100000 0  450000 1100000 0  500000 1100000 0  550000 1100000 0  600000 1100000 0  650000 1100000 0  700000 1100000 0  750000 1100000 0  800000 1100000 0  850000 1100000 0  900000 1100000 0  950000 1100000 0  1000000 1100000 0  0 1150000 0  50000 1150000 0  100000 1150000 0  150000 1150000 0  200000 1150000 0  250000 1150000 0  300000 1150000 0  350000 1150000 0  400000 1150000 0  450000 1150000 0  500000 1150000 0  550000 1150000 0  600000 1150000 0  650000 1150000 0  700000 1150000 0  750000 1150000 0  800000 1150000 0  850000 1150000 0  900000 1150000 0  950000 1150000 0  1000000 1150000 0  0 1200000 0  50000 1200000 0  100000 1200000 0  150000 1200000 0  200000 1200000 0  250000 1200000 0  300000 1200000 0  350000 1200000 0  400000 1200000 0  450000 1200000 0  500000 1200000 0  550000 1200000 0  600000 1200000 0  650000 1200000 0  700000 1200000 0  750000 1200000 0  800000 1200000 0  850000 1200000 0  900000 1200000 0  950000 1200000 0  1000000 1200000 0  0 1250000 0  50000 1250000 0  100000 1250000 0  150000 1250000 0  200000 1250000 0  250000 1250000 0  300000 1250000 0  350000 1250000 0  400000 1250000 0  450000 1250000 0  500000 1250000 0  550000 1250000 0  600000 1250000 0  650000 1250000 0  700000 1250000 0  750000 1250000 0  800000 1250000 0  850000 1250000 0  900000 1250000 0  950000 1250000 0  1000000 1250000 0  0 1300000 0  50000 1300000 0  100000 1300000 0  150000 1300000 0  200000 1300000 0  250000 1300000 0  300000 1300000 0  350000 1300000 0  400000 1300000 0  450000 1300000 0  500000 1300000 0  550000 1300000 0  600000 1300000 0  650000 1300000 0  700000 1300000 0  750000 1300000 0  800000 1300000 0  850000 1300000 0  900000 1300000 0  950000 1300000 0  1000000 1300000 0  0 1350000 0  50000 1350000 0  100000 1350000 0  150000 1350000 0  200000 1350000 0  250000 1350000 0  300000 1350000 0  350000 1350000 0  400000 1350000 0  450000 1350000 0  500000 1350000 0  550000 1350000 0  600000 1350000 0  650000 1350000 0  700000 135
[...]
<PointData  Scalars="f_25"> 
<DataArray  type="Float64"  Name="f_25"  format="ascii">-7.2931286833116786e+00  -6.6386670362098839e+00  -5.9125212786647356e+00  -5.1377128094490523e+00  -4.3382315661726638e+00  -3.5215488860065940e+00  -2.6917055956837981e+00  -1.8517831395230426e+00  -1.0045540322193565e+00  -1.5270697162043478e-01  7.0106393905210995e-01  1.5540173379316131e+00  2.4033313395003217e+00  3.2460495080467107e+00  4.0789677612255852e+00  4.8983939688731342e+00  5.6996412271126511e+00  6.4759027154253497e+00  7.2149804661019621e+00  7.8857955283414647e+00  8.3207445920677987e+00  -6.8783727942355668e+00  -6.5804154815907729e+00  -5.9004782938467555e+00  -5.1360237187282136e+00  -4.3390816329251036e+00  -3.5229910933258033e+00  -2.6931415598980935e+00  -1.8529695767058776e+00  -1.0053625284902525e+00  -1.5305180930457002e-01  7.0125359142892496e-01  1.5548135063382706e+00  2.4048230757472941e+00  3.2483639157040969e+00  4.0822935842805892e+00  4.9029616800875386e+00  5.7053901137152652e+00  6.4805772443949730e+00  7.2058629630987800e+00  7.8105277401437352e+00  8.0714464610807415e+00  -6.3994849056433436e+00  -6.2540305955758679e+00  -5.7421510106073672e+00  -5.0585093564950663e+00  -4.2992249507874911e+00  -3.5017557872124789e+00  -2.6816673588480793e+00  -1.8468110343340287e+00  -1.0021552584323166e+00  -1.5153776887818610e-01  7.0164356580538390e-01  1.5541178004755321e+00  2.4025460189832124e+00  3.2433040450310378e+00  4.0720864830794037e+00  4.8830156980417341e+00  5.6664663687677059e+00  6.4035945336541156e+00  7.0529618205638265e+00  7.5224018665601911e+00  7.6410217136836227e+00  -5.9411792853218488e+00  -5.8546371924197063e+00  -5.4699661991561310e+00  -4.8883933087831783e+00  -4.1945012301865852e+00  -3.4370425124089765e+00  -2.6416623272063728e+00  -1.8224949755922530e+00  -9.8826045221568770e-01  -1.4513478088395773e-01  7.0186699474101710e-01  1.5481545024004619e+00  2.3890604756412497e+00  3.2193177958325365e+00  4.0322545766669036e+00  4.8182952455091010e+00  5.5620137066984858e+00  6.2364842825842963e+00  6.7937476925451454e+00  7.1545700481384191e+00  7.2227143670985541e+00  -5.5081654964597062e+00  -5.4478438992009881e+00  -5.1460330557164378e+00  -4.6537186876666512e+00  -4.0321172362236304e+00  -3.3271609146578007e+00  -2.5686865596522273e+00  -1.7755992988731655e+00  -9.6042326656784127e-01  -1.3219367888442163e-01  7.0183561336528222e-01  1.5351298760760355e+00  2.3610805516039122e+00  3.1722029888115477e+00  3.9590552361084699e+00  4.7085478654729158e+00  5.4012476032516066e+00  6.0074498094160322e+00  6.4829964067449293e+00  6.7699705326388635e+00  6.8181816903534589e+00  -5.1022873497082273e+00  -5.0557438800123675e+00  -4.8083639342681037e+00  -4.3862500398943389e+00  -3.8314314343049305e+00  -3.1819884849250504e+00  -2.4670394032962846e+00  -1.7075957253517828e+00  -9.1891846120998266e-01  -1.1265157500321102e-01  7.0159893283025510e-01  1.5151119355524958e+00  2.3191098320261134e+00  3.1038216216649199e+00  3.8573559833592306e+00  4.5642143021227985e+00  5.2033885628175174e+00  5.7463957985272147e+00  6.1566861254670773e+00  6.3941339547631175e+00  6.4325666584258911e+00  -4.7261662899609398e+00  -4.6879333082622203e+00  -4.4778386898471982e+00  -4.1095613394527817e+00  -3.6119764333219688e+00  -3.0152249291125228e+00  -2.3454306103324116e+00  -1.6236304910707409e+00  -8.6651532939936726e-01  -8.7666011189289447e-02  7.0125342332932328e-01  1.4894652330778337e+00  2.2661589953507635e+00  3.0195848230335178e+00  3.7360677515525240e+00  4.3989139220186813e+00  4.9873413939137841e+00  5.4759218567873633e+00  5.8356602428892534e+00  6.0388030517111408e+00  6.0713966104550501e+00  -4.3825887983781406e+00  -4.3498824027995449e+00  -4.1664530275407987e+00  -3.8395430769052976e+00  -3.3894923496904314e+00  -2.8399724424168986e+00  -2.2136068250318295e+00  -1.5303282882139770e+00  -8.0722598624997721e-01  -5.9077591870394339e-02  7.0089020458833795e-01  1.4602104149971755e+00  2.2064051348031861e+00  2.9262282304300880e+00  3.6049168246105179e+00  4.2255069069229254e+00  4.7683997830113976e+00  5.2115851321023472e+00  5.5322203714751259e+00  5.7106427366941608e+00  5.7392805455137097e+00  -4.0740983036707652e+00  -4.0453122054568826e+00  -3.8816189244670305e+00  -3.5867814708918733e+00  -3.1756626324220250e+00  -2.6670901992938041e+00  -2.0804937768897895e+00  -1.4342856470433916e+00  -7.4531302986721659e-01  -2.8936896317861970e-02  7.0057377832140799e-01  1.4295170404833850e+00  2.1441954622263517e+00  2.8303644316962848e+00  3.4727391892229549e+00  4.0546498965655404e+00  4.5580141634283926e+00  4.9639026123121770e+00  5.2540808683611608e+00  5.4141009198193819e+00  5.4398668714950480e+00  -3.8028505034962010e+00  -3.7769603737006179e+00  -3.6282075649934180e+00  -3.3584040614729305e+00  -2.9788773225670409e+00  -2.5049650046054124e+00  -1.9534737430672404e+00  -1.3412844238847723e+00  -6.8468359241776178e-01  8.1380246309720856e-04  7.0033967217512449e-01  1.3993876756882633e+00  2.0834646510763211e+00  2.7377494446084087e+00  3.3468285367217718e+00  3.8945997626582307e+00  4.3644729056141935e+00  4.7400333687388265e+00  5.0063661639641852e+00  5.1523988615146887e+00  5.1760083603558602e+00  -3.5705880046741578e+00  -3.5468845923498233e+00  -3.4095478100726346e+00  -3.1592674604336644e+00  -2.8050663460684322e+00  -2.3598159396008715e+00  -1.8382884937079822e+00  -1.2560126475126803e+00  -6.2861089765167122e-01  2.8506730698190975e-02  7.0020027689682696e-01  1.3715067608831191e+00  2.0274796226029435e+00  2.6530326677317335e+00  3.2328590147488083e+00  3.7515033608801454e+00  4.1936764040404286e+00  4.5449041066575049e+00  4.7926139273589801e+00  4.9279386755922436e+00  4.9499142518152315e+00  -3.3786641891414306e+00  -3.3566198877827982e+00  -3.2279519813327027e+00  -2.9926980440044328e+00  -2.6583705869576848e+00  -2.2361244563695384e+00  -1.7392156986282421e+00  -1.1820694980559703e+00  -5.7966965067073373e-01  5.2804552844714289e-02  7.0015233966675949e-01  1.3472003432106141e+00  1.9787911784065271e+00  2.5797744940706568e+00  3.1350621331990411e+00  3.6298086569401056e+00  4.0497750801408818e+00  4.3819248372944521e+00  4.6153110806463404e+00  4.7425144255252221e+00  4.7632693284912593e+00  -3.2280863016102646e+00  -3.2072823372375208e+00  -3.0850192377633698e+00  -2.8609599806455539e+00  -2.5416360054629457e+00  -2.1370345853270885e+00  -1.6593272285705303e+00  -1.1220965698654357e+00  -5.3978426959663295e-01  7.2691979821824751e-02  7.0018326850363355e-01  1.3274565462854147e+00  1.9392920624543322e+00  2.5205820288509302e+00  3.0564805803076274e+00  3.5326508009562252e+00  3.9356454230774007e+00  4.2534464479593384e+00  4.4762060303795996e+00  4.5974465197715491e+00  4.6173294700538294e+00  -3.1195630505325052e+00  -3.0996469578653345e+00  -2.9818252223847725e+00  -2.7655576840180593e+00  -2.4567639459595596e+00  -2.0646763430597201e+00  -1.6007390401766322e+00  -1.0779428148863592e+00  -5.1032072646054860e-01  8.7438437499524943e-02  7.0027552933892434e-01  1.3129708759387040e+00  1.9103141728648010e+00  2.4772749090177819e+00  2.9992133222219990e+00  3.4621661106520345e+00  3.8532303556662439e+00  4.1610590057293777e+00  4.3765053127961195e+00  4.4936785714227439e+00  4.5129999672924894e+00  -3.0535480724104169e+00  -3.0342073982462545e+00  -2.9190457854799901e+00  -2.7074328713323310e+00  -2.4049518078090881e+00  -2.0204060444094121e+00  -1.5648156705558858e+00  -1.0508154638549758e+00  -4.9218134268518199e-01  9.6554477980847778e-02  7.0040932401961709e-01  1.3041944393526743e+00  1.8927258788526840e+00  2.4510355852829897e+00  2.9646161015120360e+00  3.4197262685409044e+00  3.8037744637557953e+00  4.1057876033791745e+00  4.3170029203661846e+00  4.4318497456583987e+00  4.4508983812447527e+00  -3.0302735759046535e+00  -3.0112185988876683e+00  -2.8970361299489382e+00  -2.6870888963212756e+00  -2.3868492985159975e+00  -2.0049698109910410e+00  -1.5523173753860995e+00  -1.0413952568812890e+00  -4.8588140896486814e-01  9.9754694436291369e-02  7.0056400336239599e-01  1.3013733122884876e+00  1.8870094156896453e+00  2.4425232636060628e+00  2.9534453821108739e+00  3.4060978177158190e+00  3.7879773052407657e+00  4.0882169030460656e+00  4.2981641366737193e+00  4.4123466056124565e+00  4.4314015826294524e+00  -3.0497703745199596e+00  -3.0307217389336123e+00  -2.9158749136414048e+00  -2.7046595966543960e+00  -2.4026464570310249e+00  -2.0185982618161438e+00  -1.5634880947872674e+00  -1.0499075785582253e+00  -4.9159787212792155e-01  9.6933567372105414e-02  7.0071868270518023e-01  1.3045735287439435e+00  1.8933093494099706e+00  2.4519434705797551e+00  2.9659436772806629e+00  3.4215340511342003e+00  3.8060798145338790e+00  4.1085608780571263e+00  4.3201737922048178e+00  4.4353354049710978e+00  4.4546760791352602e+00  -3.1118719605676910e+00  -3.0925505646979592e+00  -2.9753773060713464e+00  -2.7599309990045953e+00  -2.4521023489414850e+00  -2.0610381039272871e+00  -1.5980853154972439e+00  -1.0761469022930217e+00  -5.0918616614002887e-01  8.8157130786092844e-02  7.0085247738589063e-01  1.3136895692252915e+00  1.9114487331853551e+00  2.4790708216111579e+00  3.0018670469014417e+00  3.4658043497845341e+00  3.8578919526843776e+00  4.1666856907428711e+00  4.3829532291096420e+00  4.5007749645902386e+00  4.5206910572574017e+00  -3.2162014633290030e+00  -3.1963185130467169e+00  -3.0750780236547821e+00  -2.8523184412345146e+00  -2.5345174163526134e+00  -2.1315227942314676e+00  -1.6553525735828529e+00  -1.1194540221261498e+00  -5.3816405572953019e-01  7.3671460439404202e-02  7.0094473822121262e-01  1.3284360269030286e+00  1.9409122763214743e+00  2.5232245765902612e+00  3.0604552352953585e+00  3.5381625920519197e+00  3.9427640121878116e+00  4.2620879873704114e+00  4.4861472444882304e+00  4.6084103439623822e+00  4.6292143083351265e+00  -3.3621413217664218e+00  -3.3413864188003930e+00  -3.2141830739215136e+00  -2.9807968305696440e+00  -2.6486470734160772e+00  -2.2286806502153129e+00  -1.7339341264742436e+00  -1.1786464873458451e+00  -5.7766317168169456e-01  5.3927663514233601e-02  7.0097566705811154e-01  1.3483234538801645e+00  1.9807976573956068e+00  2.5831975047808196e+00  3.1403437053530840e+00  3.6372524630943683e+00  4.0594985936825490e+00  4.3938260507292854e+00  4.6290799880575264e+00  4.7577478945076148e+00  4.7797921958662579e+00  -3.5487862450903500e+00  -3.5268106688673697e+00  -3.3914859206341106e+00  -3.1437760999326554e+00  -2.7925483973155751e+00  -2.3503753541552896e+00  -1.8317310080239499e+00  -1.2519046610068740e+00  -6.2635161587806365e-01  2.9621245841773138e-02  7.0092772982808471e-01  1.3726212760267267e+00  2.0297389043765897e+00  2.6571406542375935e+00  3.2394165004328963e+00  3.7609439463257694e+00  4.2061943527933110e+00  4.5603954671585152e+00  4.8106758167974828e+00  4.9480125990746497e+00  4.9717160113989793e+00  -3.7748803536309103e+00  -3.7512708547897762e+00  -3.6052381572392642e+00  -3.3389053620139308e+00  -2.9633448988892970e+00  -2.4934717559333239e+00  -1.9457005299968639e+00  -1.3366214378835006e+00  -6.8233664435139130e-01  1.7403310366903148e-03  7.0078833454984313e-01  1.4003142042618792e+00  2.0858115991427337e+00  2.7424124306097561e+00  3.3546017497922236e+00  3.9060930113303733e+00  4.3800053292919632e+00  4.7595320681978084e+00  5.0293355717182839e+00  5.1780883804254554e+00  5.2039785102210088e+00  -4.0387388647700835e+00  -4.0129729130944334e+00  -3.8529528616361919e+00  -3.5627746055872271e+00  -3.1568861567034534e+00  -2.6535218898405883e+00  -2.0716111824979984e+00  -1.4292364249713041e+00  -7.4306745550134978e-01  -2.8389033758370902e-02  7.0055422840362203e-01  1.4300649030429062e+00  2.1464410365922615e+00  2.8354136537684416e+00  3.4816217836148322e+00  4.0682182060188028e+00  4.5767906391469806e+00  4.9879094776167925e+00  5.2827469311919124e+00  5.4464402121817503e+00  5.4752263103956293e+00  -4.3381525387887088e+00  -4.3095147299691474e+00  -4.1310923647501152e+00  -3.8104571253773654e+00  -3.3672717762864042e+00  -2.8243789001979152e+00  -2.2037888178854916e+00  -1.5251002237050366e+00  -8.0527712807812668e-01  -5.9082408272101400e-02  7.0023780213674869e-01  1.4602055985954911e+00  2.2083539929750726e+00  2.9314562949390615e+00  3.6147348317568917e+00  4.2411004491419293e+00  4.7906203564154373e+00  5.2406710836302537e+00  5.5675810342657170e+00  5.7510104095244561e+00  5.7837168051030492e+00  -4.6702686037300314e+00  -4.6376750449861248e+00  -4.4345322361642499e+00  -4.0747938500623588e+00  -3.5862133871887396e+00  -2.9977859152936173e+00  -2.3349397448274272e+00  -1.6184568163083941e+00  -8.6503098862562966e-01  -8.8337226352692075e-02  6.9987458339582453e-01  1.4887940179144437e+00  2.2676433361245159e+00  3.0247584977958577e+00  3.7465586170575005e+00  4.4163529358375806e+00  5.0131044400470239e+00  5.5106893461778110e+00  5.8789666965721858e+00  6.0890613149871760e+00  6.1272942966859052e+00  -5.0314386517008236e+00  -4.9930059480380757e+00  -4.7555581187420124e+00  -4.3452677918021338e+00  -3.8022605560924201e+00  -3.1630862953977039e+00  -2.4562279766340889e+00  -1.7026936149397258e+00  -9.1798182530091610e-01  -1.1398392882730053e-01  6.9952907389494834e-01  1.5137795817284188e+00  2.3200464679351849e+00  3.1087237320769567e+00  3.8681674100214289e+00  4.5831164916501868e+00  5.2325594410300509e+00  5.7873780466194198e+00  6.2094919409931322e+00  6.4568718867373951e+00  6.5034153564332557e+00  -5.4170536836283514e+00  -5.3688425259137613e+00  -5.0818684000198013e+00  -4.6063218026909007e+00  -4.0001195965264680e+00  -3.3074198587477772e+00  -2.5579272293832802e+00  -1.7710749820863172e+00  -9.5995254487867665e-01  -1.3400186935080055e-01  6.9929239335996096e-01  1.5333216856096670e+00  2.3615512732930726e+00  3.1767273055983747e+00  3.9698145663774258e+00  4.7282889213830153e+00  5.4332452429487965e+00  6.0548466943917880e+00  6.5471610624415568e+00  6.8489719059260805e+00  6.9092935031847968e+00  -5.8215863603733959e+00  -5.7534420414132628e+00  -5.3926196858199935e+00  -4.8353562758591382e+00  -4.1608856999733206e+00  -3.4171672387839127e+00  -2.6311265699416726e+00  -1.8181897891072865e+00  -9.8793246891598663e-01  -1.4702649567520074e-01  6.9926101198424828e-01  1.5462627876092250e+00  2.3893884589409393e+00  3.2236229823174893e+00  4.0427903339316229e+00  4.8381705191342297e+00  5.5956292369118179e+00  6.2895213155083614e+00  6.8710942058812829e+00  7.2557651991448431e+00  7.3423072920469856e+00  -6.2398937069584441e+00  -6.1212738598349805e+00  -5.6518338138386621e+00  -5.0024665269289423e+00  -4.2653383620425451e+00  -3.4818876913165404e+00  -2.6709584763541714e+00  -1.8421760383057693e+00  -1.0014180122579543e+00  -1.5298979375026328e-01  6.9948444091989515e-01  1.5526657756034621e+00  2.4032832651575826e+00  3.2479390410592721e+00  4.0827953655733333e+00  4.9028837939377308e+00  5.7003529575127390e+00  6.4596373632202768e+00  7.1432790173325396e+00  7.6551586023010181e+00  7.8006129123685453e+00  -6.6703184543555771e+00  -6.4093997334185708e+00  -5.8047349563736743e+00  -5.0794492376698406e+00  -4.3042621069901079e+00  -3.5018336733623467e+00  -2.6811655775553556e+00  -1.8472359089788388e+00  -1.0036950690220252e+00  -1.5368549961299588e-01  6.9987441529635352e-01  1.5541798160298508e+00  2.4064905352155268e+00  3.2540975834311454e+00  4.0942695666233559e+00  4.9241191000510325e+00  5.7402096396503435e+00  6.5371517254534268e+00  7.3016063005719687e+00  7.9815434883159559e+00  8.2795008009607578e+00  -6.9196165853426344e+00  -6.4846675216162977e+00  -5.8138524593768306e+00  -5.0747747087002084e+00  -4.2985132203874823e+00  -3.4972659621479427e+00  -2.6778397545003512e+00  -1.8449215013214533e+00  -1.0022033327750470e+00  -1.5288933120633466e-01  7.0006406767317464e-01  1.5538349783457093e+00  2.4056820389446356e+00  3.2529111462483109e+00  4.0928336024090575e+00  4.9226768927318236e+00  5.7393595728979019e+00  6.5388408161742788e+00  7.3136492853899284e+00  8.0397950429350775e+00  8.6942566900368750e+00  </DataArray> 
</PointData> 
</Piece>
</UnstructuredGrid>
</VTKFile>