<?xml version="1.0"?>
<VTKFile type="UnstructuredGrid"  version="0.1"  >
<UnstructuredGrid>
<Piece  NumberOfPoints="651" NumberOfCells="1200">
<Points>
<DataArray  type="Float64"  NumberOfComponents="3"  format="ascii">0 0 0  50000 0 0  100000 0 0  150000 0 0  200000 0 0  250000 0 0  300000 0 0  350000 0 0  400000 0 0  450000 0 0  500000 0 0  550000 0 0  600000 0 0  650000 0 0  700000 0 0  750000 0 0  800000 0 0  850000 0 0  900000 0 0  950000 0 0  1000000 0 0  0 50000 0  50000 50000 0  100000 50000 0  150000 50000 0  200000 50000 0  250000 50000 0  300000 50000 0  350000 50000 0  400000 50000 0  450000 50000 0  500000 50000 0  550000 50000 0  600000 50000 0  650000 50000 0  700000 50000 0  750000 50000 0  800000 50000 0  850000 50000 0  900000 50000 0  950000 50000 0  1000000 50000 0  0 100000 0  50000 100000 0  100000 100000 0  150000 100000 0  200000 100000 0  250000 100000 0  300000 100000 0  350000 100000 0  400000 100000 0  450000 100000 0  500000 100000 0  550000 100000 0  600000 100000 0  650000 100000 0  700000 100000 0  750000 100000 0  800000 100000 0  850000 100000 0  900000 100000 0  950000 100000 0  1000000 100000 0  0 150000 0  50000 150000 0  100000 150000 0  150000 150000 0  200000 150000 0  250000 150000 0  300000 150000 0  350000 150000 0  400000 150000 0  450000 150000 0  500000 150000 0  550000 150000 0  600000 150000 0  650000 150000 0  700000 150000 0  750000 150000 0  800000 150000 0  850000 150000 0  900000 150000 0  950000 150000 0  1000000 150000 0  0 200000 0  50000 200000 0  100000 200000 0  150000 200000 0  200000 200000 0  250000 200000 0  300000 200000 0  350000 200000 0  400000 200000 0  450000 200000 0  500000 200000 0  550000 200000 0  600000 200000 0  650000 200000 0  700000 200000 0  750000 200000 0  800000 200000 0  850000 200000 0  900000 200000 0  950000 200000 0  1000000 200000 0  0 250000 0  50000 250000 0  100000 250000 0  150000 250000 0  200000 250000 0  250000 250000 0  300000 250000 0  350000 250000 0  400000 250000 0  450000 250000 0  500000 250000 0  550000 250000 0  600000 250000 0  650000 250000 0  700000 250000 0  750000 250000 0  800000 250000 0  850000 250000 0  900000 250000 0  950000 250000 0  1000000 250000 0  0 300000 0  50000 300000 0  100000 300000 0  150000 300000 0  200000 300000 0  250000 300000 0  300000 300000 0  350000 300000 0  400000 300000 0  450000 300000 0  500000 300000 0  550000 300000 0  600000 300000 0  650000 300000 0  700000 300000 0  750000 300000 0  800000 300000 0  850000 300000 0  900000 300000 0  950000 300000 0  1000000 300000 0  0 350000 0  50000 350000 0  100000 350000 0  150000 350000 0  200000 350000 0  250000 350000 0  300000 350000 0  350000 350000 0  400000 350000 0  450000 350000 0  500000 350000 0  550000 350000 0  600000 350000 0  650000 350000 0  700000 350000 0  750000 350000 0  800000 350000 0  850000 350000 0  900000 350000 0  950000 350000 0  1000000 350000 0  0 400000 0  50000 400000 0  100000 400000 0  150000 400000 0  200000 400000 0  250000 400000 0  300000 400000 0  350000 400000 0  400000 400000 0  450000 400000 0  500000 400000 0  550000 400000 0  600000 400000 0  650000 400000 0  700000 400000 0  750000 400000 0  800000 400000 0  850000 400000 0  900000 400000 0  950000 400000 0  1000000 400000 0  0 450000 0  50000 450000 0  100000 450000 0  150000 450000 0  200000 450000 0  250000 450000 0  300000 450000 0  350000 450000 0  400000 450000 0  450000 450000 0  500000 450000 0  550000 450000 0  600000 450000 0  650000 450000 0  700000 450000 0  750000 450000 0  800000 450000 0  850000 450000 0  900000 450000 0  950000 450000 0  1000000 450000 0  0 500000 0  50000 500000 0  100000 500000 0  150000 500000 0  200000 500000 0  250000 500000 0  300000 500000 0  350000 500000 0  400000 500000 0  450000 500000 0  500000 500000 0  550000 500000 0  600000 500000 0  650000 500000 0  700000 500000 0  750000 500000 0  800000 500000 0  850000 500000 0  900000 500000 0  950000 500000 0  1000000 500000 0  0 550000 0  50000 550000 0  100000 550000 0  150000 550000 0  200000 550000 0  250000 550000 0  300000 550000 0  350000 550000 0  400000 550000 0  450000 550000 0  500000 550000 0  550000 550000 0  600000 550000 0  650000 550000 0  700000 550000 0  750000 550000 0  800000 550000 0  850000 550000 0  900000 550000 0  950000 550000 0  1000000 550000 0  0 600000 0  50000 600000 0  100000 600000 0  150000 600000 0  200000 600000 0  250000 600000 0  300000 600000 0  350000 600000 0  400000 600000 0  450000 600000 0  500000 600000 0  550000 600000 0  600000 600000 0  650000 600000 0  700000 600000 0  750000 600000 0  800000 600000 0  850000 600000 0  900000 600000 0  950000 600000 0  1000000 600000 0  0 650000 0  50000 650000 0  100000 650000 0  150000 650000 0  200000 650000 0  250000 650000 0  300000 650000 0  350000 650000 0  400000 650000 0  450000 650000 0  500000 650000 0  550000 650000 0  600000 650000 0  650000 650000 0  700000 650000 0  750000 650000 0  800000 650000 0  850000 650000 0  900000 650000 0  950000 650000 0  1000000 650000 0  0 700000 0  50000 700000 0  100000 700000 0  150000 700000 0  200000 700000 0  250000 700000 0  300000 700000 0  350000 700000 0  400000 700000 0  450000 700000 0  500000 700000 0  550000 700000 0  600000 700000 0  650000 700000 0  700000 700000 0  750000 700000 0  800000 700000 0  850000 700000 0  900000 700000 0  950000 700000 0  1000000 700000 0  0 750000 0  50000 750000 0  100000 750000 0  150000 750000 0  200000 750000 0  250000 750000 0  300000 750000 0  350000 750000 0  400000 750000 0  450000 750000 0  500000 750000 0  550000 750000 0  600000 750000 0  650000 750000 0  700000 750000 0  750000 750000 0  800000 750000 0  850000 750000 0  900000 750000 0  950000 750000 0  1000000 750000 0  0 800000 0  50000 800000 0  100000 800000 0  150000 800000 0  200000 800000 0  250000 800000 0  300000 800000 0  350000 800000 0  400000 800000 0  450000 800000 0  500000 800000 0  550000 800000 0  600000 800000 0  650000 800000 0  700000 800000 0  750000 800000 0  800000 800000 0  850000 800000 0  900000 800000 0  950000 800000 0  1000000 800000 0  0 850000 0  50000 850000 0  100000 850000 0  150000 850000 0  200000 850000 0  250000 850000 0  300000 850000 0  350000 850000 0  400000 850000 0  450000 850000 0  500000 850000 0  550000 850000 0  600000 850000 0  650000 850000 0  700000 850000 0  750000 850000 0  800000 850000 0  850000 850000 0  900000 850000 0  950000 850000 0  1000000 850000 0  0 900000 0  50000 900000 0  100000 900000 0  150000 900000 0  200000 900000 0  250000 900000 0  300000 900000 0  350000 900000 0  400000 900000 0  450000 900000 0  500000 900000 0  550000 900000 0  600000 900000 0  650000 900000 0  700000 900000 0  750000 900000 0  800000 900000 0  850000 900000 0  900000 900000 0  950000 900000 0  1000000 900000 0  0 950000 0  50000 950000 0  100000 950000 0  150000 950000 0  200000 950000 0  250000 950000 0  300000 950000 0  350000 950000 0  400000 950000 0  450000 950000 0  500000 950000 0  550000 950000 0  600000 950000 0  650000 950000 0  700000 950000 0  750000 950000 0  800000 950000 0  850000 950000 0  900000 950000 0  950000 950000 0  1000000 950000 0  0 1000000 0  50000 1000000 0  100000 1000000 0  150000 1000000 0  200000 1000000 0  250000 1000000 0  300000 1000000 0  350000 1000000 0  400000 1000000 0  450000 1000000 0  500000 1000000 0  550000 1000000 0  600000 1000000 0  650000 1000000 0  700000 1000000 0  750000 1000000 0  800000 1000000 0  850000 1000000 0  900000 1000000 0  950000 1000000 0  1000000 1000000 0  0 1050000 0  50000 1050000 0  100000 1050000 0  150000 1050000 0  200000 1050000 0  250000 1050000 0  300000 1050000 0  350000 1050000 0  400000 1050000 0  450000 1050000 0  500000 1050000 0  550000 1050000 0  600000 1050000 0  650000 1050000 0  700000 1050000 0  750000 1050000 0  800000 1050000 0  850000 1050000 0  900000 1050000 0  950000 1050000 0  1000000 1050000 0  0 1100000 0  50000 1100000 0  100000 1100000 0  150000 1100000 0  200000 1100000 0  250000 1100000 0  300000 1100000 0  350000 1100000 0  400000 1100000 0  450000 1100000 0  500000 1100000 0  550000 1100000 0  600000 1100000 0  650000 1100000 0  700000 1100000 0  750000 1100000 0  800000 1100000 0  850000 1100000 0  900000 1100000 0  950000 1100000 0  1000000 1100000 0  0 1150000 0  50000 1150000 0  100000 1150000 0  150000 1150000 0  200000 1150000 0  250000 1150000 0  300000 1150000 0  350000 1150000 0  400000 1150000 0  450000 1150000 0  500000 1150000 0  550000 1150000 0  600000 1150000 0  650000 1150000 0  700000 1150000 0  750000 1150000 0  800000 1150000 0  850000 1150000 0  900000 1150000 0  950000 1150000 0  1000000 1150000 0  0 1200000 0  50000 1200000 0  100000 1200000 0  150000 1200000 0  200000 1200000 0  250000 1200000 0  300000 1200000 0  350000 1200000 0  400000 1200000 0  450000 1200000 0  500000 1200000 0  550000 1200000 0  600000 1200000 0  650000 1200000 0  700000 1200000 0  750000 1200000 0  800000 1200000 0  850000 1200000 0  900000 1200000 0  950000 1200000 0  1000000 1200000 0  0 1250000 0  50000 1250000 0  100000 1250000 0  150000 1250000 0  200000 1250000 0  250000 1250000 0  300000 1250000 0  350000 1250000 0  400000 1250000 0  450000 1250000 0  500000 1250000 0  550000 1250000 0  600000 1250000 0  650000 1250000 0  700000 1250000 0  750000 1250000 0  800000 1250000 0  850000 1250000 0  900000 1250000 0  950000 1250000 0  1000000 1250000 0  0 1300000 0  50000 1300000 0  100000 1300000 0  150000 1300000 0  200000 1300000 0  250000 1300000 0  300000 1300000 0  350000 1300000 0  400000 1300000 0  450000 1300000 0  500000 1300000 0  550000 1300000 0  600000 1300000 0  650000 1300000 0  700000 1300000 0  750000 1300000 0  800000 1300000 0  850000 1300000 0  900000 1300000 0  950000 1300000 0  1000000 1300000 0  0 1350000 0  50000 1350000 0  100000 1350000 0  150000 1350000 0  200000 1350000 0  250000 1350000 0  300000 1350000 0  350000 1350000 0  400000 1350000 0  450000 1350000 0  500000 1350000 0  550000 1350000 0  600000 1350000 0  650000 1350000 0  700000 135
[...]
<PointData  Scalars="f_25"> 
<DataArray  type="Float64"  Name="f_25"  format="ascii">-2.2899113542183365e+00  -2.0449672537260106e+00  -1.7738170848566375e+00  -1.4847402128847924e+00  -1.1865845680480167e+00  -8.8210214790987496e-01  -5.7277887154306173e-01  -2.5974893094417301e-01  5.5965722251692593e-02  3.7337303951531448e-01  6.9147857511586530e-01  1.0092706141335317e+00  1.3257084849412213e+00  1.6397033051517471e+00  1.9500772260657115e+00  2.2554766459890860e+00  2.5541900724888640e+00  2.8437456896481557e+00  3.1197312820333458e+00  3.3707916789661954e+00  3.5341870220643021e+00  -2.1347344802247190e+00  -2.0227444649198740e+00  -1.7690729048405538e+00  -1.4840035778300000e+00  -1.1868829421621498e+00  -8.8267388222709786e-01  -5.7338086197957494e-01  -2.6027896983225762e-01  5.5562618765498784e-02  3.7313353600763838e-01  6.9143226355708876e-01  1.0094462330129435e+00  1.3261395346689393e+00  1.6404350071889264e+00  1.9511734702224108e+00  2.2570087915824604e+00  2.5561049850125310e+00  2.8451405722697944e+00  3.1157473473236430e+00  3.3417542287674054e+00  3.4403432287742213e+00  -1.9554241771735201e+00  -1.9004261883477824e+00  -1.7093560968550423e+00  -1.4545467066876612e+00  -1.1716144713888124e+00  -8.7447562137046797e-01  -5.6892616849496269e-01  -2.5789228712411350e-01  5.6775544244269803e-02  3.7365012453988516e-01  6.9146962006371748e-01  1.0090204910701770e+00  1.3250645571382351e+00  1.6382578581010308e+00  1.9470031950513182e+00  2.2491190493672391e+00  2.5410327164915505e+00  2.8157535660509314e+00  3.0579187980112335e+00  3.2333607648826184e+00  3.2786477010490622e+00  -1.7838108750836539e+00  -1.7508867047820402e+00  -1.6072110888982993e+00  -1.3904678921918430e+00  -1.1320057039600357e+00  -8.4990211576397834e-01  -5.5368538502490594e-01  -2.4861575171075467e-01  6.2059050361342918e-02  3.7603894014927342e-01  6.9145725135178759e-01  1.0066064399191381e+00  1.3197510691716536e+00  1.6289329882983588e+00  1.9316720204439046e+00  2.2244095080988275e+00  2.5014157188286683e+00  2.7526970847590957e+00  2.9604649489585610e+00  3.0953353232106684e+00  3.1215313166208625e+00  -1.6216743546492476e+00  -1.5986160957443010e+00  -1.4858346324601654e+00  -1.3023621726690957e+00  -1.0708917703948941e+00  -8.0844610965130703e-01  -5.2609574860962227e-01  -2.3086550558988433e-01  7.2585638986541925e-02  3.8089462413179143e-01  6.9136112999624366e-01  1.0015529587140721e+00  1.3090111647567195e+00  1.6109517889692022e+00  1.9038643366453274e+00  2.1828848702859762e+00  2.4407969419620210e+00  2.6665775978841140e+00  2.8438497343901994e+00  2.9511322820087562e+00  2.9697204406206330e+00  -1.4697188101582732e+00  -1.4518676469729963e+00  -1.3593996114562215e+00  -1.2020998824967963e+00  -9.9555006020790560e-01  -7.5385855361914667e-01  -4.8782153712992737e-01  -2.0523847339286289e-01  8.8219650506436112e-02  3.8822259858428676e-01  6.9119656993572631e-01  9.9389671342476760e-01  1.2930577449808138e+00  1.5850461621032348e+00  1.8654422154941206e+00  2.1284888817122565e+00  2.3663878162839649e+00  2.5685728887520978e+00  2.7214923497194019e+00  2.8102637333933829e+00  2.8250996988647405e+00  -1.3289308210070874e+00  -1.3142312825817681e+00  -1.2356916585714104e+00  -1.0984728889240944e+00  -9.1328006159140607e-01  -6.9127626867089176e-01  -4.4214260197988509e-01  -1.7368257036339227e-01  1.0790654669544300e-01  3.9757823301962403e-01  6.9099607774435268e-01  9.8415238151771700e-01  1.2730276352251904e+00  1.5532544055258428e+00  1.8197521707304860e+00  2.0663225010004722e+00  2.2852540840347748e+00  2.4671177251729914e+00  2.6011669993564448e+00  2.6771098086606355e+00  2.6897032425025897e+00  -1.2003530319132469e+00  -1.1877542178368357e+00  -1.1191846081311285e+00  -9.9740408159770844e-01  -8.2995247644046177e-01  -6.2559327263710329e-01  -3.9270658309124984e-01  -1.3868236544766963e-01  1.3013809542485810e-01  4.0826718435146958e-01  6.9079071652701651e-01  9.7307562968330941e-01  1.2504849224812353e+00  1.5180973973077401e+00  1.7704307948193587e+00  2.0011890560097068e+00  2.2031030436470687e+00  2.3680147858273788e+00  2.4874625027136874e+00  2.5541571501581517e+00  2.5652337561132863e+00  -1.0849341603793612e+00  -1.0738275164195688e+00  -1.0126425776834442e+00  -9.0283771177425964e-01  -7.4992075603880615e-01  -5.6085855109129956e-01  -3.4284485511329116e-01  -1.0270272734493484e-01  1.5331949306132514e-01  4.1952070547660020e-01  6.9060246423872707e-01  9.6147556660258604e-01  1.2270524482953973e+00  1.4820434741934496e+00  1.7207750897449559e+00  1.9370630788003242e+00  2.1242037404704419e+00  2.2751846953506627e+00  2.3832555103670088e+00  2.4430634644563325e+00  2.4530411495228956e+00  -9.8347636536858407e-01  -9.7347265316821319e-01  -9.1788116478916026e-01  -8.1742807800507333e-01  -6.7630889378078252e-01  -5.0019577552734718e-01  -2.9530841808846958e-01  -6.7899695987957906e-02  1.7599265192249217e-01  4.3061306090358870e-01  6.9044330512514240e-01  9.5009805141575054e-01  1.2041967292442410e+00  1.4472380743928648e+00  1.6735031839023176e+00  1.8770209990339433e+00  2.0516438920291327e+00  2.1912945123607748e+00  2.2904552966878953e+00  2.3450273678355926e+00  2.3541811914061608e+00  -8.9662660741518241e-01  -8.8745565019759864e-01  -8.3613983045664886e-01  -7.4298254471815772e-01  -6.1132328576382300e-01  -4.4591920491271064e-01  -2.5223455452249682e-01  -3.6019014122134194e-02  1.9693810206630030e-01  4.4092244831990718e-01  6.9031724784081605e-01  9.3957001587970557e-01  1.1831342006912673e+00  1.4154124563120472e+00  1.6307277284923356e+00  1.8233512021888627e+00  1.9876199436562847e+00  2.1181781643371713e+00  2.2103784361770846e+00  2.2609412214359375e+00  2.2694712163805844e+00  -8.2488611763225028e-01  -8.1634654162860942e-01  -7.6827829889488009e-01  -6.8073787235210126e-01  -5.5650344543982055e-01  -3.9969510916983780e-01  -2.1521406848812211e-01  -8.3994957018438329e-03  2.1519785415891249e-01  4.4995111498072388e-01  6.9022294198659706e-01  9.3038482152764235e-01  1.1648140152472810e+00  1.3878914044037329e+00  1.5940230851530401e+00  1.7777084005430073e+00  1.9336757382029890e+00  2.0571038657553506e+00  2.1439493142815738e+00  2.1914705334719211e+00  2.1995342399901330e+00  -7.6862690167791614e-01  -7.6055866323033228e-01  -7.1489008203624516e-01  -6.3153492297311298e-01  -5.1290650186696096e-01  -3.6269149834092501e-01  -1.8538834049998651e-01  1.3977199781956683e-02  2.3005668639067967e-01  4.5732175037765477e-01  6.9015587847503412e-01  9.2291007486883059e-01  1.1499401508541396e+00  1.3656444617706991e+00  1.5645206291028464e+00  1.7412581692091265e+00  1.8908804775235848e+00  2.0089451550828925e+00  2.0918170564528387e+00  2.1371045403442954e+00  2.1448345214364957e+00  -7.2810983836634025e-01  -7.2037816601457660e-01  -6.7637356206861110e-01  -5.9593164164192125e-01  -4.8123798561705405e-01  -3.3569896470368038e-01  -1.6354287588384944e-01  3.0424623947672307e-02  2.4100748822714113e-01  4.6276327596655176e-01  6.9010991630816831e-01  9.1740459648330430e-01  1.1390078907927781e+00  1.3493480854482065e+00  1.5430004858618225e+00  1.7147943351850512e+00  1.8599559155239329e+00  1.9742924234906578e+00  2.0544292084159599e+00  2.0981926242990538e+00  2.1057067465718768e+00  -7.0350116504359506e-01  -6.9598662819816581e-01  -6.5297842756538826e-01  -5.7427672324665224e-01  -4.6194169241207361e-01  -3.1922042426847586e-01  -1.5018374223426056e-01  4.0495037738589236e-02  2.4771568994436116e-01  4.6609442236659415e-01  6.9007820123661234e-01  9.1403642098365878e-01  1.1323402156205404e+00  1.3394418389182210e+00  1.5299664631149894e+00  1.6988264688273940e+00  1.8413642368577985e+00  1.9535261389285679e+00  2.0320801903786574e+00  2.0749714713346870e+00  2.0823794480940383e+00  -6.9488523981761585e-01  -6.8747722240515308e-01  -6.4483541573366920e-01  -5.6675612817924814e-01  -4.5525804114244106e-01  -3.1353216371079384e-01  -1.4559252775498874e-01  4.3936329866322781e-02  2.4999057403227790e-01  4.6720980345629903e-01  6.9005363664950214e-01  9.1289746984269982e-01  1.1301166992667204e+00  1.3361709434326732e+00  1.5256998010539800e+00  1.6936394370097838e+00  1.8353653144414293e+00  1.9468634014782351e+00  2.0249426890326556e+00  2.0675844957041387e+00  2.0749925131166029e+00  -7.0227217479505255e-01  -6.9486419803570165e-01  -6.5197291707967164e-01  -5.7341886562958289e-01  -4.6125696355881052e-01  -3.1871919552840222e-01  -1.4985918981599575e-01  4.0665434380776334e-02  2.4776705767845542e-01  4.6607085231534251e-01  6.9002907206239517e-01  9.1401285093241169e-01  1.1323915833546405e+00  1.3396122355604068e+00  1.5302910155332523e+00  1.6993276975674692e+00  1.8420489657110675e+00  1.9543839965456442e+00  2.0330857008643837e+00  2.0760939014971611e+00  2.0836084383425910e+00  -7.2559947327289165e-01  -7.1808535100006776e-01  -6.7432193511697613e-01  -5.9418515019166973e-01  -4.7984864222494561e-01  -3.3468706188606218e-01  -1.6289321256282910e-01  3.0759187850790355e-02  2.4109938250622237e-01  4.6270267681570154e-01  6.8999735699084397e-01  9.1734399733245808e-01  1.1390997850718652e+00  1.3496826493513296e+00  1.5436501491828518e+00  1.7158062380026817e+00  1.8613452589160571e+00  1.9760389149409221e+00  2.0564808353676192e+00  2.1004854393135877e+00  2.1082171116653488e+00  -7.6472724813750026e-01  -7.5699726704529946e-01  -7.1170978315384303e-01  -6.2883788178389477e-01  -5.1077320422458750e-01  -3.6115089591013116e-01  -1.8441335580384463e-01  1.4462811528305586e-02  2.3016712244486978e-01  4.5719719843018219e-01  6.8995139482398748e-01  9.2278552292136828e-01  1.1500505869083386e+00  1.3661300735170543e+00  1.5654956137989973e+00  1.7427987716399338e+00  1.8930137751659761e+00  2.0116421962721280e+00  2.0949973553352588e+00  2.1406659365293437e+00  2.1487341749769273e+00  -8.1942696669113013e-01  -8.1136326017291949e-01  -7.6384204098257058e-01  -6.7699659245634702e-01  -5.5356846490398270e-01  -3.9760112724400076e-01  -2.1391581185402767e-01  -7.7841311047167489e-03  2.1529325805173971e-01  4.4972245177138154e-01  6.8988433131243343e-01  9.3015615831830845e-01  1.1649094191401164e+00  1.3885067690008663e+00  1.5953213417871412e+00  1.7798023824688536e+00  1.9366107187388439e+00  2.0608451456511219e+00  2.1483855721938938e+00  2.1964538149276218e+00  2.2049933909312638e+00  -8.8936394308156563e-01  -8.8083394813691851e-01  -8.3027116287806624e-01  -7.3807089103815327e-01  -6.0751267035726086e-01  -4.4324392888983771e-01  -2.5062045519330506e-01  -3.5305183013011977e-02  1.9697307260777291e-01  4.4053725741933591e-01  6.8979002545823098e-01  9.3918482497914013e-01  1.1831691712327459e+00  1.4161262874211811e+00  1.6323418278215411e+00  1.8260264782117532e+00  1.9914305590628607e+00  2.1230898180171862e+00  2.2162471037556739e+00  2.2675629234966173e+00  2.2767338807142021e+00  -9.7407391810712385e-01  -9.6492009453655980e-01  -9.1034802338885867e-01  -8.1118723906173873e-01  -6.7153661873009329e-01  -4.9691372573490000e-01  -2.9339591060327019e-01  -6.7130801093812392e-02  1.7591054405481879e-01  4.3000922188331414e-01  6.8966396817392572e-01  9.4949421239548215e-01  1.2041146213765777e+00  1.4480069692870299e+00  1.6754156913875398e+00  1.8803030488264101e+00  2.0564161670798371e+00  2.1975353513041158e+00  2.2979884380881965e+00  2.3535799264672423e+00  2.3635836386676083e+00  -1.0729338762238465e+00  -1.0629561911572860e+00  -1.0031482370679545e+00  -8.9507742205161001e-01  -7.4409646717138722e-01  -5.5695580550126134e-01  -3.4066781644588912e-01  -1.0193620089437215e-01  1.5305482500368672e-01  4.1863170669650063e-01  6.8950480906036549e-01  9.6058656782249596e-01  1.2267877802377729e+00  1.4828100006440308e+00  1.7229521284123799e+00  1.9409658243903798e+00  2.1300280293378751e+00  2.2829449850733186e+00  2.3927498509824914e+00  2.4539347897186095e+00  2.4650414336784023e+00  -1.1851264828142212e+00  -1.1740498768590844e+00  -1.1073552294146183e+00  -9.8790751252831199e-01  -8.2299577034799676e-01  -6.2108178271062686e-01  -3.9032352152026978e-01  -1.3799012400864255e-01  1.2962235081786860e-01  4.0703164361579885e-01  6.8931655677209702e-01  9.7184008894764795e-01  1.2499691778742623e+00  1.5187896387467847e+00  1.7728138563903559e+00  2.0057005459361967e+00  2.2100597497395480e+00  2.3775113548967837e+00  2.4992918814301914e+00  2.5678614911358930e+00  2.5804603052123039e+00  -1.3095959692035115e+00  -1.2970025353615586e+00  -1.2210597260573666e+00  -1.0870104518739101e+00  -9.0514681073568437e-01  -6.8621522770137144e-01  -4.3964489743137275e-01  -1.7314713222671937e-01  1.0707963807393944e-01  3.9595489178141635e-01  6.8911119555478473e-01  9.8252904027951671e-01  1.2722007266036988e+00  1.5537898436625244e+00  1.8222498752790093e+00  2.0713835419700035e+00  2.2933873348905118e+00  2.4785801622231896e+00  2.6157989318704953e+00  2.6943385558808433e+00  2.7090380943061629e+00  -1.4449924255656423e+00  -1.4301564600942875e+00  -1.3413850764203008e+00  -1.1884656154529927e+00  -9.8628054298485412e-01  -7.4838160841313928e-01  -4.8533494219498968e-01  -2.0493888880408792e-01  8.7049528318338204e-02  3.8621055987438563e-01  6.8891070336343374e-01  9.9188467471487440e-01  1.2918876227927256e+00  1.5853457466920149e+00  1.8679288104290701e+00  2.1339658269182817e+00  2.3756573335070317e+00  2.5822071557959112e+00  2.7395068847553232e+00  2.8319749202720916e+00  2.8498260834573652e+00  -1.5896131673215173e+00  -1.5710250087096411e+00  -1.4637424610910781e+00  -1.2864703245849902e+00  -1.0606896686628904e+00  -8.0277759698683993e-01  -5.2375706334617789e-01  -2.3084451567003894e-01  7.1096108542448633e-02  3.7855431458509603e-01  6.8874614330293060e-01  9.9921264916738461e-01  1.3075216343126319e+00  1.6109727788890513e+00  1.9062030219087815e+00  2.1885533829504649e+00  2.4509990436940372e+00  2.6824694459682288e+00  2.8659419057592856e+00  2.9787233690434145e+00  3.0017816279483585e+00  -1.7414240433217325e+00  -1.7152280499115367e+00  -1.5803576756594244e+00  -1.3725898114599546e+00  -1.1213084455295235e+00  -8.4430223479967514e-01  -5.5156474714474069e-01  -2.4882571499918510e-01  6.0356204127526097e-02  3.7350083338004209e-01  6.8865002194739733e-01  1.0040683331499127e+00  1.3180482229378410e+00  1.6287230250099327e+00  1.9337926583240814e+00  2.2300093890631474e+00  2.5121129772591981e+00  2.7705751654909898e+00  2.9873183621974317e+00  3.1309939780811620e+00  3.1639181483827747e+00  -1.8985404277499209e+00  -1.8532534915834726e+00  -1.6778115247120855e+00  -1.4356462927517779e+00  -1.1609254431923968e+00  -8.6901177606808078e-01  -5.6689592175214898e-01  -2.5815058480184927e-01  5.5042716160948135e-02  3.7108678222900943e-01  6.8863765323547466e-01  1.0064571487593066e+00  1.3233317290549211e+00  1.6379995604232991e+00  1.9490334417941468e+00  2.2545828946696460e+00  2.5517217446879807e+00  2.8346539799868160e+00  3.0894633701541858e+00  3.2805334616469155e+00  3.3355314504726556e+00  -2.0602359554750787e+00  -1.9616469554682612e+00  -1.7356400740245019e+00  -1.4650332989706465e+00  -1.1759977117133753e+00  -8.7690151828329677e-01  -5.7106619692323679e-01  -2.6032773388974456e-01  5.3967738630247716e-02  3.7066104028624558e-01  6.8867500974210349e-01  1.0069737372915550e+00  1.3245446545336950e+00  1.6403862431314482e+00  1.9534881352787610e+00  2.2627811555262745e+00  2.5669902154613191e+00  2.8641108511291571e+00  3.1491801781397086e+00  3.4028517382190162e+00  3.5148417535238594e+00  -2.1540797487651577e+00  -1.9906844056670496e+00  -1.7396240087342003e+00  -1.4636384163490039e+00  -1.1740827991897056e+00  -8.7536937268992210e-01  -5.6996995276653617e-01  -2.5959603185256591e-01  5.4398788357967839e-02  3.7083665916565911e-01  6.8862869818332939e-01  1.0067342337838761e+00  1.3241415510475023e+00  1.6398562042433646e+00  1.9528861448422485e+00  2.2622094212090520e+00  2.5666918413471880e+00  2.8648474861839537e+00  3.1539243581557890e+00  3.4250745270251564e+00  3.6700186275174804e+00  </DataArray> 
</PointData> 
</Piece>
</UnstructuredGrid>
</VTKFile>