<?xml version="1.0"?>
<VTKFile type="UnstructuredGrid"  version="0.1"  >
<UnstructuredGrid>
<Piece  NumberOfPoints="651" NumberOfCells="1200">
<Points>
<DataArray  type="Float64"  NumberOfComponents="3"  format="ascii">0 0 0  50000 0 0  100000 0 0  150000 0 0  200000 0 0  250000 0 0  300000 0 0  350000 0 0  400000 0 0  450000 0 0  500000 0 0  550000 0 0  600000 0 0  650000 0 0  700000 0 0  750000 0 0  800000 0 0  850000 0 0  900000 0 0  950000 0 0  1000000 0 0  0 50000 0  50000 50000 0  100000 50000 0  150000 50000 0  200000 50000 0  250000 50000 0  300000 50000 0  350000 50000 0  400000 50000 0  450000 50000 0  500000 50000 0  550000 50000 0  600000 50000 0  650000 50000 0  700000 50000 0  750000 50000 0  800000 50000 0  850000 50000 0  900000 50000 0  950000 50000 0  1000000 50000 0  0 100000 0  50000 100000 0  100000 100000 0  150000 100000 0  200000 100000 0  250000 100000 0  300000 100000 0  350000 100000 0  400000 100000 0  450000 100000 0  500000 100000 0  550000 100000 0  600000 100000 0  650000 100000 0  700000 100000 0  750000 100000 0  800000 100000 0  850000 100000 0  900000 100000 0  950000 100000 0  1000000 100000 0  0 150000 0  50000 150000 0  100000 150000 0  150000 150000 0  200000 150000 0  250000 150000 0  300000 150000 0  350000 150000 0  400000 150000 0  450000 150000 0  500000 150000 0  550000 150000 0  600000 150000 0  650000 150000 0  700000 150000 0  750000 150000 0  800000 150000 0  850000 150000 0  900000 150000 0  950000 150000 0  1000000 150000 0  0 200000 0  50000 200000 0  100000 200000 0  150000 200000 0  200000 200000 0  250000 200000 0  300000 200000 0  350000 200000 0  400000 200000 0  450000 200000 0  500000 200000 0  550000 200000 0  600000 200000 0  650000 200000 0  700000 200000 0  750000 200000 0  800000 200000 0  850000 200000 0  900000 200000 0  950000 200000 0  1000000 200000 0  0 250000 0  50000 250000 0  100000 250000 0  150000 250000 0  200000 250000 0  250000 250000 0  300000 250000 0  350000 250000 0  400000 250000 0  450000 250000 0  500000 250000 0  550000 250000 0  600000 250000 0  650000 250000 0  700000 250000 0  750000 250000 0  800000 250000 0  850000 250000 0  900000 250000 0  950000 250000 0  1000000 250000 0  0 300000 0  50000 300000 0  100000 300000 0  150000 300000 0  200000 300000 0  250000 300000 0  300000 300000 0  350000 300000 0  400000 300000 0  450000 300000 0  500000 300000 0  550000 300000 0  600000 300000 0  650000 300000 0  700000 300000 0  750000 300000 0  800000 300000 0  850000 300000 0  900000 300000 0  950000 300000 0  1000000 300000 0  0 350000 0  50000 350000 0  100000 350000 0  150000 350000 0  200000 350000 0  250000 350000 0  300000 350000 0  350000 350000 0  400000 350000 0  450000 350000 0  500000 350000 0  550000 350000 0  600000 350000 0  650000 350000 0  700000 350000 0  750000 350000 0  800000 350000 0  850000 350000 0  900000 350000 0  950000 350000 0  1000000 350000 0  0 400000 0  50000 400000 0  100000 400000 0  150000 400000 0  200000 400000 0  250000 400000 0  300000 400000 0  350000 400000 0  400000 400000 0  450000 400000 0  500000 400000 0  550000 400000 0  600000 400000 0  650000 400000 0  700000 400000 0  750000 400000 0  800000 400000 0  850000 400000 0  900000 400000 0  950000 400000 0  1000000 400000 0  0 450000 0  50000 450000 0  100000 450000 0  150000 450000 0  200000 450000 0  250000 450000 0  300000 450000 0  350000 450000 0  400000 450000 0  450000 450000 0  500000 450000 0  550000 450000 0  600000 450000 0  650000 450000 0  700000 450000 0  750000 450000 0  800000 450000 0  850000 450000 0  900000 450000 0  950000 450000 0  1000000 450000 0  0 500000 0  50000 500000 0  100000 500000 0  150000 500000 0  200000 500000 0  250000 500000 0  300000 500000 0  350000 500000 0  400000 500000 0  450000 500000 0  500000 500000 0  550000 500000 0  600000 500000 0  650000 500000 0  700000 500000 0  750000 500000 0  800000 500000 0  850000 500000 0  900000 500000 0  950000 500000 0  1000000 500000 0  0 550000 0  50000 550000 0  100000 550000 0  150000 550000 0  200000 550000 0  250000 550000 0  300000 550000 0  350000 550000 0  400000 550000 0  450000 550000 0  500000 550000 0  550000 550000 0  600000 550000 0  650000 550000 0  700000 550000 0  750000 550000 0  800000 550000 0  850000 550000 0  900000 550000 0  950000 550000 0  1000000 550000 0  0 600000 0  50000 600000 0  100000 600000 0  150000 600000 0  200000 600000 0  250000 600000 0  300000 600000 0  350000 600000 0  400000 600000 0  450000 600000 0  500000 600000 0  550000 600000 0  600000 600000 0  650000 600000 0  700000 600000 0  750000 600000 0  800000 600000 0  850000 600000 0  900000 600000 0  950000 600000 0  1000000 600000 0  0 650000 0  50000 650000 0  100000 650000 0  150000 650000 0  200000 650000 0  250000 650000 0  300000 650000 0  350000 650000 0  400000 650000 0  450000 650000 0  500000 650000 0  550000 650000 0  600000 650000 0  650000 650000 0  700000 650000 0  750000 650000 0  800000 650000 0  850000 650000 0  900000 650000 0  950000 650000 0  1000000 650000 0  0 700000 0  50000 700000 0  100000 700000 0  150000 700000 0  200000 700000 0  250000 700000 0  300000 700000 0  350000 700000 0  400000 700000 0  450000 700000 0  500000 700000 0  550000 700000 0  600000 700000 0  650000 700000 0  700000 700000 0  750000 700000 0  800000 700000 0  850000 700000 0  900000 700000 0  950000 700000 0  1000000 700000 0  0 750000 0  50000 750000 0  100000 750000 0  150000 750000 0  200000 750000 0  250000 750000 0  300000 750000 0  350000 750000 0  400000 750000 0  450000 750000 0  500000 750000 0  550000 750000 0  600000 750000 0  650000 750000 0  700000 750000 0  750000 750000 0  800000 750000 0  850000 750000 0  900000 750000 0  950000 750000 0  1000000 750000 0  0 800000 0  50000 800000 0  100000 800000 0  150000 800000 0  200000 800000 0  250000 800000 0  300000 800000 0  350000 800000 0  400000 800000 0  450000 800000 0  500000 800000 0  550000 800000 0  600000 800000 0  650000 800000 0  700000 800000 0  750000 800000 0  800000 800000 0  850000 800000 0  900000 800000 0  950000 800000 0  1000000 800000 0  0 850000 0  50000 850000 0  100000 850000 0  150000 850000 0  200000 850000 0  250000 850000 0  300000 850000 0  350000 850000 0  400000 850000 0  450000 850000 0  500000 850000 0  550000 850000 0  600000 850000 0  650000 850000 0  700000 850000 0  750000 850000 0  800000 850000 0  850000 850000 0  900000 850000 0  950000 850000 0  1000000 850000 0  0 900000 0  50000 900000 0  100000 900000 0  150000 900000 0  200000 900000 0  250000 900000 0  300000 900000 0  350000 900000 0  400000 900000 0  450000 900000 0  500000 900000 0  550000 900000 0  600000 900000 0  650000 900000 0  700000 900000 0  750000 900000 0  800000 900000 0  850000 900000 0  900000 900000 0  950000 900000 0  1000000 900000 0  0 950000 0  50000 950000 0  100000 950000 0  150000 950000 0  200000 950000 0  250000 950000 0  300000 950000 0  350000 950000 0  400000 950000 0  450000 950000 0  500000 950000 0  550000 950000 0  600000 950000 0  650000 950000 0  700000 950000 0  750000 950000 0  800000 950000 0  850000 950000 0  900000 950000 0  950000 950000 0  1000000 950000 0  0 1000000 0  50000 1000000 0  100000 1000000 0  150000 1000000 0  200000 1000000 0  250000 1000000 0  300000 1000000 0  350000 1000000 0  400000 1000000 0  450000 1000000 0  500000 1000000 0  550000 1000000 0  600000 1000000 0  650000 1000000 0  700000 1000000 0  750000 1000000 0  800000 1000000 0  850000 1000000 0  900000 1000000 0  950000 1000000 0  1000000 1000000 0  0 1050000 0  50000 1050000 0  100000 1050000 0  150000 1050000 0  200000 1050000 0  250000 1050000 0  300000 1050000 0  350000 1050000 0  400000 1050000 0  450000 1050000 0  500000 1050000 0  550000 1050000 0  600000 1050000 0  650000 1050000 0  700000 1050000 0  750000 1050000 0  800000 1050000 0  850000 1050000 0  900000 1050000 0  950000 1050000 0  1000000 1050000 0  0 1100000 0  50000 1100000 0  100000 1100000 0  150000 1100000 0  200000 1100000 0  250000 1100000 0  300000 1100000 0  350000 1100000 0  400000 1100000 0  450000 1100000 0  500000 1100000 0  550000 1100000 0  600000 1100000 0  650000 1100000 0  700000 1100000 0  750000 1100000 0  800000 1100000 0  850000 1100000 0  900000 1100000 0  950000 1100000 0  1000000 1100000 0  0 1150000 0  50000 1150000 0  100000 1150000 0  150000 1150000 0  200000 1150000 0  250000 1150000 0  300000 1150000 0  350000 1150000 0  400000 1150000 0  450000 1150000 0  500000 1150000 0  550000 1150000 0  600000 1150000 0  650000 1150000 0  700000 1150000 0  750000 1150000 0  800000 1150000 0  850000 1150000 0  900000 1150000 0  950000 1150000 0  1000000 1150000 0  0 1200000 0  50000 1200000 0  100000 1200000 0  150000 1200000 0  200000 1200000 0  250000 1200000 0  300000 1200000 0  350000 1200000 0  400000 1200000 0  450000 1200000 0  500000 1200000 0  550000 1200000 0  600000 1200000 0  650000 1200000 0  700000 1200000 0  750000 1200000 0  800000 1200000 0  850000 1200000 0  900000 1200000 0  950000 1200000 0  1000000 1200000 0  0 1250000 0  50000 1250000 0  100000 1250000 0  150000 1250000 0  200000 1250000 0  250000 1250000 0  300000 1250000 0  350000 1250000 0  400000 1250000 0  450000 1250000 0  500000 1250000 0  550000 1250000 0  600000 1250000 0  650000 1250000 0  700000 1250000 0  750000 1250000 0  800000 1250000 0  850000 1250000 0  900000 1250000 0  950000 1250000 0  1000000 1250000 0  0 1300000 0  50000 1300000 0  100000 1300000 0  150000 1300000 0  200000 1300000 0  250000 1300000 0  300000 1300000 0  350000 1300000 0  400000 1300000 0  450000 1300000 0  500000 1300000 0  550000 1300000 0  600000 1300000 0  650000 1300000 0  700000 1300000 0  750000 1300000 0  800000 1300000 0  850000 1300000 0  900000 1300000 0  950000 1300000 0  1000000 1300000 0  0 1350000 0  50000 1350000 0  100000 1350000 0  150000 1350000 0  200000 1350000 0  250000 1350000 0  300000 1350000 0  350000 1350000 0  400000 1350000 0  450000 1350000 0  500000 1350000 0  550000 1350000 0  600000 1350000 0  650000 1350000 0  700000 135
[...]
<PointData  Scalars="f_25"> 
<DataArray  type="Float64"  Name="f_25"  format="ascii">-5.2483773034750545e+00  -4.7577607320133346e+00  -4.2136461885394132e+00  -3.6331609596812884e+00  -3.0342373058400320e+00  -2.4224583814998133e+00  -1.8008427592734577e+00  -1.1716927439668654e+00  -5.3708044478782080e-01  1.0098420018043812e-01  7.4048693548346900e-01  1.3793780786014271e+00  2.0155478294910556e+00  2.6467861040573903e+00  3.2706983572710917e+00  3.8845266748964176e+00  4.4847730227086364e+00  5.0663634277323473e+00  5.6202135187867093e+00  6.1231339604106623e+00  6.4494684606115298e+00  -4.9373253735203031e+00  -4.7138029125218504e+00  -4.2044126756402589e+00  -3.6317481914840077e+00  -3.0347666223472221e+00  -2.4234566515585012e+00  -1.8018537104494445e+00  -1.1725297137795165e+00  -5.3764473944250135e-01  1.0075819910835672e-01  7.4065298774284405e-01  1.3799902692359189e+00  2.0166723863722509e+00  2.6485168979701967e+00  3.2731739573882095e+00  3.8879140485328576e+00  4.4890150967991600e+00  5.0697468655246807e+00  5.6131657244721094e+00  6.0663718483710838e+00  6.2623640642658458e+00  -4.5781461695060814e+00  -4.4689297438447477e+00  -4.0854216419459748e+00  -3.5733547065494764e+00  -3.0046481446017785e+00  -2.4073437331733287e+00  -1.7930994205722186e+00  -1.1677966475488222e+00  -5.3515679614282508e-01  1.0194647011850279e-01  7.4096950868766098e-01  1.3794640759488033e+00  2.0149311979590845e+00  2.6446583345887933e+00  3.2654228348309200e+00  3.8728249380891171e+00  4.4596598450477352e+00  5.0118245742263916e+00  5.4983109559951586e+00  5.8501525612778273e+00  5.9394418270907678e+00  -4.2344024256481996e+00  -4.1693680133555606e+00  -3.8811484370865736e+00  -3.4455545557709324e+00  -2.9258763226688074e+00  -2.3585969185500155e+00  -1.7629151640800145e+00  -1.1494160351947402e+00  -5.2463086734636999e-01  1.0681445993393594e-01  7.4116400398831761e-01  1.3749802361043386e+00  2.0047682840881764e+00  2.6265842284062644e+00  3.2354324446400891e+00  3.8241437099584488e+00  4.3811701301266774e+00  4.8863586932257883e+00  5.3038184656408855e+00  5.5742559858492804e+00  5.6256190201004861e+00  -3.9096309339801971e+00  -3.8642793657593359e+00  -3.6381380901448575e+00  -3.2694122246012585e+00  -2.8039095786506079e+00  -2.2759991612974435e+00  -1.7080117816253799e+00  -1.1141008335618170e+00  -5.0364472169699581e-01  1.1658989521387952e-01  7.4117027752809062e-01  1.3652023914992932e+00  1.9837371889880726e+00  2.5911699409970801e+00  3.1804309199904934e+00  3.7417205633900288e+00  4.2604920756354190e+00  4.7145133853546533e+00  5.0707389220193519e+00  5.2858265352048210e+00  5.3221804341297405e+00  -3.6052193078486918e+00  -3.5702210112779338e+00  -3.3848674456222438e+00  -3.0687349022475918e+00  -2.6532741816101919e+00  -2.1669774379504685e+00  -1.6316345707001352e+00  -1.0629727241220577e+00  -4.7241728716532677e-01  1.3131291026062342e-01  7.4102440501159605e-01  1.3501862406779066e+00  1.9522253999677344e+00  2.5398255378103234e+00  3.1040836297030459e+00  3.6333974008427203e+00  4.1120424799842112e+00  4.5187025293335328e+00  4.8260269827386360e+00  5.0039877544041280e+00  5.0329664130675882e+00  -3.3231348743000733e+00  -3.2943865422885037e+00  -3.1369787336208224e+00  -2.8611838547001822e+00  -2.4886096136397988e+00  -2.0418063620782179e+00  -1.5403213106328644e+00  -9.9989853259491213e-01  -4.3303181758770914e-01  1.5011130231976247e-01  7.4079746333077967e-01  1.3309565765270124e+00  1.9124942270439271e+00  2.4766131604611346e+00  3.0130758581544819e+00  3.5093863358616497e+00  3.9499906657154114e+00  4.3158600330241903e+00  4.5852987932726927e+00  4.7375380792422179e+00  4.7621082438814648e+00  -3.0654664562223535e+00  -3.0408768911224522e+00  -2.9034588938940256e+00  -2.6586625637670123e+00  -2.3217082654339838e+00  -1.9103048735769863e+00  -1.4413790177745591e+00  -9.2984682965631660e-01  -3.8849876110544812e-01  1.7160311759660857e-01  7.4055671680287849e-01  1.3090282311531032e+00  1.8676757410371010e+00  2.4065827230903789e+00  2.9146982006118458e+00  3.3793250247994813e+00  3.7857960469713099e+00  4.1176416664944115e+00  4.3577714709182027e+00  4.4914720644807922e+00  4.5130538399604081e+00  -2.8341195165702615e+00  -2.8124810388118262e+00  -2.6898607171535382e+00  -2.4691004436513651e+00  -2.1613215777581010e+00  -1.7806080515795730e+00  -1.3414956357671308e+00  -8.5776140652563249e-01  -3.4201349273252174e-01  1.9425064237190126e-01  7.4034981244002873e-01  1.2860267554606322e+00  1.8210275921306798e+00  2.3346893162797446e+00  2.8155712794988927e+00  3.2511975406284690e+00  3.6280368587207814e+00  3.9319263599405661e+00  4.1492249784588573e+00  4.2691225225814877e+00  4.2885336166200361e+00  -2.6307082943573343e+00  -2.6112501202621878e+00  -2.4998331077467713e+00  -2.2978356999120466e+00  -2.0137331367301625e+00  -1.6589974044295017e+00  -1.2462008718884823e+00  -7.8797371259049998e-01  -2.9650342299963844e-01  2.1659834552144488e-01  7.4020300875876022e-01  1.2634522009439313e+00  1.7754973795311115e+00  2.2652449389500924e+00  2.7211588081506859e+00  3.1311888769813145e+00  3.4829215874019495e+00  3.7640768732359517e+00  3.9634983451297936e+00  4.0729025520383031e+00  4.0906827553290155e+00  -2.4565371239964469e+00  -2.4387251240524481e+00  -2.3358691264204863e+00  -2.1485052007075134e+00  -1.8833834070603037e+00  -1.5501300270159972e+00  -1.1597946311327236e+00  -7.2399477578042981e-01  -2.5442016916598253e-01  2.3739696620072925e-01  7.4012548754356011e-01  1.2425661682848641e+00  1.7335320156903287e+00  2.2017319453102187e+00  2.6357105817633779e+00  3.0239027953026150e+00  3.3548694086230073e+00  3.6177832540433226e+00  3.8032413809806069e+00  3.9046111086004003e+00  3.9211546776385555e+00  -2.3126185338883540e+00  -2.2960550625619653e+00  -2.1997000216274492e+00  -2.0235994296593969e+00  -1.7733726684428119e+00  -1.4573612324107954e+00  -1.0854797591889180e+00  -6.6851953831544397e-01  -2.1769164340560496e-01  2.5564512485748220e-01  7.4011489688892218e-01  1.2243617885078633e+00  1.6970418209846769e+00  2.1468166873298316e+00  2.5623954834920317e+00  2.9326702317477857e+00  3.2469884356572645e+00  3.4955991846504717e+00  3.6703164665451871e+00  3.7655914059383355e+00  3.7812101345102391e+00  -2.1997056931742125e+00  -2.1840749081807163e+00  -2.0925226630980789e+00  -1.9248131853450825e+00  -1.6858312879825026e+00  -1.3830445705820527e+00  -1.0255558470373995e+00  -6.2352552505676928e-01  -1.8775847713094412e-01  2.7058284544992062e-01  7.4016201384258284e-01  1.2095791296303349e+00  1.6674442013215711e+00  2.1024514335615208e+00  2.5034918883643948e+00  2.8598387476161169e+00  3.1614325195650288e+00  3.3992849320010468e+00  3.5660326626351200e+00  3.6568317977586684e+00  3.6717888025559717e+00  -2.1183282053622339e+00  -2.1033641266211980e+00  -2.0151417589458638e+00  -1.8532722436069426e+00  -1.6221822188128843e+00  -1.3287742102276050e+00  -9.8160658171178683e-01  -5.9039658708481457e-01  -1.6564298796014215e-01  2.8166347260355690e-01  7.4025399333831354e-01  1.1987391672047394e+00  1.6457365659085506e+00  2.0699987208398900e+00  2.4605714150809792e+00  2.8070078725330250e+00  3.0996563454097892e+00  3.3300309451883239e+00  3.4912931818903692e+00  3.5790384882541741e+00  3.5935679997676147e+00  -2.0688247752174784e+00  -2.0542915306802354e+00  -1.9680626590240984e+00  -1.8096810556136393e+00  -1.5833213456902986e+00  -1.2955650212341645e+00  -9.5465301718547013e-01  -5.7003605451978268e-01  -1.5202028463970893e-01  2.8852094977584347e-01  7.4037634287293030e-01  1.1921799160113882e+00  1.6325692742306464e+00  2.0503440005196247e+00  2.4346491982788536e+00  2.7752046210205079e+00  3.0625917257199800e+00  3.2886046619363594e+00  3.4466923840895838e+00  3.5326898351702778e+00  3.5470098219904420e+00  -2.0513684937953753e+00  -2.0370473365538468e+00  -1.9515507328226331e+00  -1.7944159488974460e+00  -1.5697345763613981e+00  -1.2839750959157115e+00  -9.4526383870550224e-01  -5.6295310611884453e-01  -1.4727571330659464e-01  2.9094199876044086e-01  7.4051395959438782e-01  1.1900859204283247e+00  1.6283036324953590e+00  2.0439810253076049e+00  2.4262917578942593e+00  2.7650030151044711e+00  3.0507624955501522e+00  3.2754438680862084e+00  3.4325786520113923e+00  3.5180752557426107e+00  3.5323964129841463e+00  -2.0659819028016773e+00  -2.0516619159815175e+00  -1.9656644649008270e+00  -1.8075767427476017e+00  -1.5815638065312234e+00  -1.2941767018317565e+00  -9.5362127909009908e-01  -5.6931608133086864e-01  -1.5154135504189070e-01  2.8884800317737802e-01  7.4065157631584932e-01  1.1925069694129320e+00  1.6330482038284824e+00  2.0510639737085459e+00  2.4356809363742284e+00  2.7765929404229324e+00  3.0643492648790671e+00  3.2907089748024081e+00  3.4490905782128873e+00  3.5353194498690326e+00  3.5498526944062760e+00  -2.1125400805788490e+00  -2.0980105690654134e+00  -2.0102652627016164e+00  -1.8490030259995629e+00  -1.6186284262210382e+00  -1.3259799533442791e+00  -9.7954349589223155e-01  -5.8897080165113669e-01  -1.6470864671978810e-01  2.8228875198403808e-01  7.4077392585047819e-01  1.1993644465852349e+00  1.6466709071489263e+00  2.0714245062735919e+00  2.4626345009005708e+00  2.8098021294163904e+00  3.1032101380016743e+00  3.3343001627957261e+00  3.4961696781346800e+00  3.5843920458100360e+00  3.5993561245510644e+00  -2.1907608833671826e+00  -2.1758038785698748e+00  -2.0850047434463352e+00  -1.9182570128122600e+00  -1.6804046003762578e+00  -1.3788108284273626e+00  -1.0224639691756305e+00  -6.2142351437275312e-01  -1.8641628213278771e-01  2.7144878955845853e-01  7.4086590534623142e-01  1.2104450737388976e+00  1.6687863963197531e+00  2.1045534442455658e+00  2.5065837662262003e+00  2.8640724897708547e+00  3.1668592071713233e+00  3.4058411045338999e+00  3.5735505822868956e+00  3.6651028273695307e+00  3.6807336123630279e+00  -2.3001822153214388e+00  -2.2845634867495379e+00  -2.1892885473563912e+00  -2.0145712654616847e+00  -1.7659605164684780e+00  -1.4516423125590057e+00  -1.0813675643032479e+00  -6.6578876814104027e-01  -2.1601390179587049e-01  2.5666613068095251e-01  7.4091302229991096e-01  1.2253827943313556e+00  1.6987195625944389e+00  2.1495474575042599e+00  2.5665076783777341e+00  2.9383891515996052e+00  3.2544005876316406e+00  3.5046273488482189e+00  3.6807279408162517e+00  3.7770829817507616e+00  3.7936464530771552e+00  -2.4401267584497242e+00  -2.4235831894115716e+00  -2.3222134617917831e+00  -2.1367553348545050e+00  -1.8738414894341853e+00  -1.5428748761137949e+00  -1.1546826625745532e+00  -7.2070402612139128e-01  -2.5250409650148503e-01  2.3846175090398603e-01  7.4090243164530345e-01  1.2436309529881380e+00  1.7354480883548513e+00  2.2050226949692955e+00  2.6408225503215892e+00  3.0311579462048561e+00  3.3644113262491473e+00  3.6295331198963359e+00  3.8168970456093074e+00  3.9197530432412551e+00  3.9375650431852511e+00  -2.6096548361401397e+00  -2.5918746328494455e+00  -2.4824704259409329e+00  -2.2830489540471004e+00  -2.0018936682130954e+00  -1.6501609577924492e+00  -1.2401308889618232e+00  -7.8421701976122815e-01  -2.9446946034222804e-01  2.1757571824496658e-01  7.4082491043014698e-01  1.2644295736674682e+00  1.7775313421885497e+00  2.2690016317794170e+00  2.7272287910773967e+00  3.1400253236184046e+00  3.4947610559190410e+00  3.7788636191008953e+00  3.9808610269356079e+00  4.0922780394510072e+00  4.1117362135461377e+00  -2.8075056974311425e+00  -2.7880946033926026e+00  -2.6681970592699602e+00  -2.4508984407516743e+00  -2.1470089395318914e+00  -1.7701696214395675e+00  -1.3345433603099894e+00  -8.5366139709082356e-01  -3.3999967294174444e-01  1.9500116372831086e-01  7.4067810674892631e-01  1.2867772768170624e+00  1.8230414119214891e+00  2.3387893257145982e+00  2.8225235549560885e+00  3.2616359707685043e+00  3.6423494969470065e+00  3.9501283628402448e+00  4.1708886363423909e+00  4.2935089580006665e+00  4.3151474357591022e+00  -3.0320259207714848e+00  -3.0104441452918627e+00  -2.8767435517292754e+00  -2.6366137473054936e+00  -2.3047681277823795e+00  -1.8982971056105367e+00  -1.4336702814228925e+00  -9.2555480390141265e-01  -3.8664782184812357e-01  1.7199968803588336e-01  7.4047120238611852e-01  1.3094248015923953e+00  1.8695266802944541e+00  2.4108747488453122e+00  2.9224069369635397e+00  3.3913327927659469e+00  3.8027361846229244e+00  4.1396904829559160e+00  4.3844868130829058e+00  4.5219048103113249e+00  4.5464943754112257e+00  -3.2810803246925202e+00  -3.2565101600532742e+00  -3.1042708740837583e+00  -2.8348321138352506e+00  -2.4689627465264481e+00  -2.0283584166726683e+00  -1.5320479389654775e+00  -9.9558524127211379e-01  -4.3146630785489382e-01  1.5007134266202501e-01  7.4023045585826419e-01  1.3309166168692848e+00  1.9140597367767547e+00  2.4809264517839358e+00  3.0213492298218725e+00  3.5228342812672020e+00  3.9696375328287741e+00  4.3422117738891366e+00  4.6180066528097514e+00  4.7754144614774141e+00  4.8041627934889855e+00  -3.5519384938786049e+00  -3.5229598352151581e+00  -3.3449990635496545e+00  -3.0376746101445420e+00  -2.6310145607952080e+00  -2.1523694816537096e+00  -1.6230557105140040e+00  -1.0587976186212520e+00  -4.7119748077865653e-01  1.3084167851117176e-01  7.4000351417748966e-01  1.3497150089284655e+00  1.9534452063544123e+00  2.5440006433111249e+00  3.1126624898891850e+00  3.6480053571395068e+00  4.1343021007992133e+00  4.5497628214365839e+00  4.8658953648112071e+00  5.0512489304668993e+00  5.0862472270376449e+00  -3.8411525149407209e+00  -3.8047986160158045e+00  -3.5897110028303221e+00  -3.2334854661656220e+00  -2.7794641564463820e+00  -2.2606926442009883e+00  -1.6994030008014187e+00  -1.1101420218079783e+00  -5.0270926979896535e-01  1.1582552768981411e-01  7.3985764166102541e-01  1.3644380239752387e+00  1.9846726408861057e+00  2.5951287527509144e+00  3.1890397008144706e+00  3.7570270804865356e+00  4.2849374978396622e+00  4.7504401437902901e+00  5.1191660093338731e+00  5.3453072849483432e+00  5.3906588531691986e+00  -4.1445911009114331e+00  -4.0932280666602248e+00  -3.8227905464518290e+00  -3.4053307740367309e+00  -2.9001422109376200e+00  -2.3431157907693745e+00  -1.7544045254509837e+00  -1.1455563092171446e+00  -5.2374036489904852e-01  1.0604768308478990e-01  7.3986391520081685e-01  1.3742134592552022e+00  2.0056587865354967e+00  2.6304439543838574e+00  3.2439430832691372e+00  3.8396248377391329e+00  4.4069042418579079e+00  4.9265824749600009e+00  5.3621763562756213e+00  5.6503959325445940e+00  5.7154303448372312e+00  -4.4584139079016998e+00  -4.3691246420887415e+00  -4.0172830368060879e+00  -3.5307966550373133e+00  -2.9786319258586742e+00  -2.3917970189000370e+00  -1.7843949156418115e+00  -1.1636304153996604e+00  -5.3390327876995425e-01  1.0156384324033355e-01  7.4005841050148546e-01  1.3790814490706438e+00  2.0161847153319656e+00  2.6488245667379480e+00  3.2741273397613511e+00  3.8883716523624501e+00  4.4856760637908879e+00  5.0543826257385627e+00  5.5664495611350384e+00  5.9499576630337945e+00  6.0591740886951548e+00  -4.7813361450767848e+00  -4.5853439291820210e+00  -4.1321378052830733e+00  -3.5887189463356259e+00  -3.0079871776100977e+00  -2.4068861293437736e+00  -1.7921460381990957e+00  -1.1674889787810669e+00  -5.3564446718311265e-01  1.0103764995322292e-01  7.4037493144630184e-01  1.3802697200807927e+00  2.0186726586316475e+00  2.6535576329686572e+00  3.2828816296385792e+00  3.9044845707476088e+00  4.5157945415363256e+00  5.1127761106730949e+00  5.6854405948293456e+00  6.1948308317109220e+00  6.4183532927093774e+00  -4.9684405414224662e+00  -4.6421060412215942e+00  -4.1391855995976607e+00  -3.5853355085432872e+00  -3.0037451035195635e+00  -2.4034987557073322e+00  -1.7896704380819779e+00  -1.1657581848682630e+00  -5.3451991030191370e-01  1.0164984058771781e-01  7.4054098370568189e-01  1.3800437190087067e+00  2.0181083639769697e+00  2.6527206631560056e+00  3.2818706784625906e+00  3.9034863006889209e+00  4.5152652250291370e+00  5.1141888788703875e+00  5.6946741077284928e+00  6.2387886512024124e+00  6.7294052226641323e+00  </DataArray> 
</PointData> 
</Piece>
</UnstructuredGrid>
</VTKFile>