<?xml version="1.0"?>
<VTKFile type="UnstructuredGrid"  version="0.1"  >
<UnstructuredGrid>
<Piece  NumberOfPoints="651" NumberOfCells="1200">
<Points>
<DataArray  type="Float64"  NumberOfComponents="3"  format="ascii">0 0 0  50000 0 0  100000 0 0  150000 0 0  200000 0 0  250000 0 0  300000 0 0  350000 0 0  400000 0 0  450000 0 0  500000 0 0  550000 0 0  600000 0 0  650000 0 0  700000 0 0  750000 0 0  800000 0 0  850000 0 0  900000 0 0  950000 0 0  1000000 0 0  0 50000 0  50000 50000 0  100000 50000 0  150000 50000 0  200000 50000 0  250000 50000 0  300000 50000 0  350000 50000 0  400000 50000 0  450000 50000 0  500000 50000 0  550000 50000 0  600000 50000 0  650000 50000 0  700000 50000 0  750000 50000 0  800000 50000 0  850000 50000 0  900000 50000 0  950000 50000 0  1000000 50000 0  0 100000 0  50000 100000 0  100000 100000 0  150000 100000 0  200000 100000 0  250000 100000 0  300000 100000 0  350000 100000 0  400000 100000 0  450000 100000 0  500000 100000 0  550000 100000 0  600000 100000 0  650000 100000 0  700000 100000 0  750000 100000 0  800000 100000 0  850000 100000 0  900000 100000 0  950000 100000 0  1000000 100000 0  0 150000 0  50000 150000 0  100000 150000 0  150000 150000 0  200000 150000 0  250000 150000 0  300000 150000 0  350000 150000 0  400000 150000 0  450000 150000 0  500000 150000 0  550000 150000 0  600000 150000 0  650000 150000 0  700000 150000 0  750000 150000 0  800000 150000 0  850000 150000 0  900000 150000 0  950000 150000 0  1000000 150000 0  0 200000 0  50000 200000 0  100000 200000 0  150000 200000 0  200000 200000 0  250000 200000 0  300000 200000 0  350000 200000 0  400000 200000 0  450000 200000 0  500000 200000 0  550000 200000 0  600000 200000 0  650000 200000 0  700000 200000 0  750000 200000 0  800000 200000 0  850000 200000 0  900000 200000 0  950000 200000 0  1000000 200000 0  0 250000 0  50000 250000 0  100000 250000 0  150000 250000 0  200000 250000 0  250000 250000 0  300000 250000 0  350000 250000 0  400000 250000 0  450000 250000 0  500000 250000 0  550000 250000 0  600000 250000 0  650000 250000 0  700000 250000 0  750000 250000 0  800000 250000 0  850000 250000 0  900000 250000 0  950000 250000 0  1000000 250000 0  0 300000 0  50000 300000 0  100000 300000 0  150000 300000 0  200000 300000 0  250000 300000 0  300000 300000 0  350000 300000 0  400000 300000 0  450000 300000 0  500000 300000 0  550000 300000 0  600000 300000 0  650000 300000 0  700000 300000 0  750000 300000 0  800000 300000 0  850000 300000 0  900000 300000 0  950000 300000 0  1000000 300000 0  0 350000 0  50000 350000 0  100000 350000 0  150000 350000 0  200000 350000 0  250000 350000 0  300000 350000 0  350000 350000 0  400000 350000 0  450000 350000 0  500000 350000 0  550000 350000 0  600000 350000 0  650000 350000 0  700000 350000 0  750000 350000 0  800000 350000 0  850000 350000 0  900000 350000 0  950000 350000 0  1000000 350000 0  0 400000 0  50000 400000 0  100000 400000 0  150000 400000 0  200000 400000 0  250000 400000 0  300000 400000 0  350000 400000 0  400000 400000 0  450000 400000 0  500000 400000 0  550000 400000 0  600000 400000 0  650000 400000 0  700000 400000 0  750000 400000 0  800000 400000 0  850000 400000 0  900000 400000 0  950000 400000 0  1000000 400000 0  0 450000 0  50000 450000 0  100000 450000 0  150000 450000 0  200000 450000 0  250000 450000 0  300000 450000 0  350000 450000 0  400000 450000 0  450000 450000 0  500000 450000 0  550000 450000 0  600000 450000 0  650000 450000 0  700000 450000 0  750000 450000 0  800000 450000 0  850000 450000 0  900000 450000 0  950000 450000 0  1000000 450000 0  0 500000 0  50000 500000 0  100000 500000 0  150000 500000 0  200000 500000 0  250000 500000 0  300000 500000 0  350000 500000 0  400000 500000 0  450000 500000 0  500000 500000 0  550000 500000 0  600000 500000 0  650000 500000 0  700000 500000 0  750000 500000 0  800000 500000 0  850000 500000 0  900000 500000 0  950000 500000 0  1000000 500000 0  0 550000 0  50000 550000 0  100000 550000 0  150000 550000 0  200000 550000 0  250000 550000 0  300000 550000 0  350000 550000 0  400000 550000 0  450000 550000 0  500000 550000 0  550000 550000 0  600000 550000 0  650000 550000 0  700000 550000 0  750000 550000 0  800000 550000 0  850000 550000 0  900000 550000 0  950000 550000 0  1000000 550000 0  0 600000 0  50000 600000 0  100000 600000 0  150000 600000 0  200000 600000 0  250000 600000 0  300000 600000 0  350000 600000 0  400000 600000 0  450000 600000 0  500000 600000 0  550000 600000 0  600000 600000 0  650000 600000 0  700000 600000 0  750000 600000 0  800000 600000 0  850000 600000 0  900000 600000 0  950000 600000 0  1000000 600000 0  0 650000 0  50000 650000 0  100000 650000 0  150000 650000 0  200000 650000 0  250000 650000 0  300000 650000 0  350000 650000 0  400000 650000 0  450000 650000 0  500000 650000 0  550000 650000 0  600000 650000 0  650000 650000 0  700000 650000 0  750000 650000 0  800000 650000 0  850000 650000 0  900000 650000 0  950000 650000 0  1000000 650000 0  0 700000 0  50000 700000 0  100000 700000 0  150000 700000 0  200000 700000 0  250000 700000 0  300000 700000 0  350000 700000 0  400000 700000 0  450000 700000 0  500000 700000 0  550000 700000 0  600000 700000 0  650000 700000 0  700000 700000 0  750000 700000 0  800000 700000 0  850000 700000 0  900000 700000 0  950000 700000 0  1000000 700000 0  0 750000 0  50000 750000 0  100000 750000 0  150000 750000 0  200000 750000 0  250000 750000 0  300000 750000 0  350000 750000 0  400000 750000 0  450000 750000 0  500000 750000 0  550000 750000 0  600000 750000 0  650000 750000 0  700000 750000 0  750000 750000 0  800000 750000 0  850000 750000 0  900000 750000 0  950000 750000 0  1000000 750000 0  0 800000 0  50000 800000 0  100000 800000 0  150000 800000 0  200000 800000 0  250000 800000 0  300000 800000 0  350000 800000 0  400000 800000 0  450000 800000 0  500000 800000 0  550000 800000 0  600000 800000 0  650000 800000 0  700000 800000 0  750000 800000 0  800000 800000 0  850000 800000 0  900000 800000 0  950000 800000 0  1000000 800000 0  0 850000 0  50000 850000 0  100000 850000 0  150000 850000 0  200000 850000 0  250000 850000 0  300000 850000 0  350000 850000 0  400000 850000 0  450000 850000 0  500000 850000 0  550000 850000 0  600000 850000 0  650000 850000 0  700000 850000 0  750000 850000 0  800000 850000 0  850000 850000 0  900000 850000 0  950000 850000 0  1000000 850000 0  0 900000 0  50000 900000 0  100000 900000 0  150000 900000 0  200000 900000 0  250000 900000 0  300000 900000 0  350000 900000 0  400000 900000 0  450000 900000 0  500000 900000 0  550000 900000 0  600000 900000 0  650000 900000 0  700000 900000 0  750000 900000 0  800000 900000 0  850000 900000 0  900000 900000 0  950000 900000 0  1000000 900000 0  0 950000 0  50000 950000 0  100000 950000 0  150000 950000 0  200000 950000 0  250000 950000 0  300000 950000 0  350000 950000 0  400000 950000 0  450000 950000 0  500000 950000 0  550000 950000 0  600000 950000 0  650000 950000 0  700000 950000 0  750000 950000 0  800000 950000 0  850000 950000 0  900000 950000 0  950000 950000 0  1000000 950000 0  0 1000000 0  50000 1000000 0  100000 1000000 0  150000 1000000 0  200000 1000000 0  250000 1000000 0  300000 1000000 0  350000 1000000 0  400000 1000000 0  450000 1000000 0  500000 1000000 0  550000 1000000 0  600000 1000000 0  650000 1000000 0  700000 1000000 0  750000 1000000 0  800000 1000000 0  850000 1000000 0  900000 1000000 0  950000 1000000 0  1000000 1000000 0  0 1050000 0  50000 1050000 0  100000 1050000 0  150000 1050000 0  200000 1050000 0  250000 1050000 0  300000 1050000 0  350000 1050000 0  400000 1050000 0  450000 1050000 0  500000 1050000 0  550000 1050000 0  600000 1050000 0  650000 1050000 0  700000 1050000 0  750000 1050000 0  800000 1050000 0  850000 1050000 0  900000 1050000 0  950000 1050000 0  1000000 1050000 0  0 1100000 0  50000 1100000 0  100000 1100000 0  150000 1100000 0  200000 1100000 0  250000 1100000 0  300000 1100000 0  350000 1100000 0  400000 1100000 0  450000 1100000 0  500000 1100000 0  550000 1100000 0  600000 1100000 0  650000 1100000 0  700000 1100000 0  750000 1100000 0  800000 1100000 0  850000 1100000 0  900000 1100000 0  950000 1100000 0  1000000 1100000 0  0 1150000 0  50000 1150000 0  100000 1150000 0  150000 1150000 0  200000 1150000 0  250000 1150000 0  300000 1150000 0  350000 1150000 0  400000 1150000 0  450000 1150000 0  500000 1150000 0  550000 1150000 0  600000 1150000 0  650000 1150000 0  700000 1150000 0  750000 1150000 0  800000 1150000 0  850000 1150000 0  900000 1150000 0  950000 1150000 0  1000000 1150000 0  0 1200000 0  50000 1200000 0  100000 1200000 0  150000 1200000 0  200000 1200000 0  250000 1200000 0  300000 1200000 0  350000 1200000 0  400000 1200000 0  450000 1200000 0  500000 1200000 0  550000 1200000 0  600000 1200000 0  650000 1200000 0  700000 1200000 0  750000 1200000 0  800000 1200000 0  850000 1200000 0  900000 1200000 0  950000 1200000 0  1000000 1200000 0  0 1250000 0  50000 1250000 0  100000 1250000 0  150000 1250000 0  200000 1250000 0  250000 1250000 0  300000 1250000 0  350000 1250000 0  400000 1250000 0  450000 1250000 0  500000 1250000 0  550000 1250000 0  600000 1250000 0  650000 1250000 0  700000 1250000 0  750000 1250000 0  800000 1250000 0  850000 1250000 0  900000 1250000 0  950000 1250000 0  1000000 1250000 0  0 1300000 0  50000 1300000 0  100000 1300000 0  150000 1300000 0  200000 1300000 0  250000 1300000 0  300000 1300000 0  350000 1300000 0  400000 1300000 0  450000 1300000 0  500000 1300000 0  550000 1300000 0  600000 1300000 0  650000 1300000 0  700000 1300000 0  750000 1300000 0  800000 1300000 0  850000 1300000 0  900000 1300000 0  950000 1300000 0  1000000 1300000 0  0 1350000 0  50000 1350000 0  100000 1350000 0  150000 1350000 0  200000 1350000 0  250000 1350000 0  300000 1350000 0  350000 1350000 0  400000 1350000 0  450000 1350000 0  500000 1350000 0  550000 1350000 0  600000 1350000 0  650000 1350000 0  700000 135
[...]
<PointData  Scalars="f_25"> 
<DataArray  type="Float64"  Name="f_25"  format="ascii">-2.8429859400324886e-01  -2.0334827463771421e-01  -1.1432986726701186e-01  -1.9648962292291784e-02  7.7904111611139082e-02  1.7746593526306070e-01  2.7857239668190825e-01  3.8086828455341504e-01  4.8403214734560940e-01  5.8775070982610644e-01  6.9170884792792886e-01  7.9558484953057751e-01  8.9904650151152565e-01  1.0017446952182747e+00  1.1033004752839497e+00  1.2032788758866808e+00  1.3011371392547038e+00  1.3961154072266351e+00  1.4869040341112927e+00  1.5700582619127146e+00  1.6248683591930200e+00  -2.3288806580524204e-01  -1.9541707008526935e-01  -1.1237216306943486e-01  -1.9156189848588308e-02  7.7962740283807092e-02  1.7737380287948148e-01  2.7842698176251107e-01  3.8071185968034060e-01  4.8388641202374483e-01  5.8762819838609825e-01  6.9161756318693335e-01  7.9553079832238460e-01  8.9903584462484398e-01  1.0017862295503874e+00  1.1034078002867842e+00  1.2034653750318338e+00  1.3013674954551000e+00  1.3960534932776112e+00  1.4848667836482285e+00  1.5594644520739847e+00  1.5931811055157157e+00  -1.7338592574746234e-01  -1.5466773580289872e-01  -9.2021707720943327e-02  -8.8327503664514338e-03  8.3490167478759258e-02  1.8045072719976787e-01  2.8016221817694825e-01  3.8166907950211537e-01  4.8436797280548016e-01  5.8779535830495266e-01  6.9154265548209315e-01  7.9521732236176834e-01  8.9841847055776092e-01  1.0007099852585093e+00  1.1015724099780140e+00  1.2002961107781742e+00  1.2957227173847989e+00  1.3855979440274666e+00  1.4649892495217425e+00  1.5229376965094015e+00  1.5390177439048169e+00  -1.1643542944405130e-01  -1.0504099929136008e-01  -5.7848110862851521e-02  1.2886995998852031e-02  9.7114989464007720e-02  1.8903185490000027e-01  2.8555812501363936e-01  3.8498412998355658e-01  4.8625124133347986e-01  5.8860936876118719e-01  6.9145024820558265e-01  7.9421790578062068e-01  8.9634739464513125e-01  9.9720120495233744e-01  1.0959723027478143e+00  1.1915050329847137e+00  1.2819450525918374e+00  1.3640706346703302e+00  1.4321649008999255e+00  1.4767944983428414e+00  1.4863889297501114e+00  -6.2644250785460792e-02  -5.4567265050327315e-02  -1.7472194768758092e-02  4.2395948926685849e-02  1.1775746849068601e-01  2.0315652624732000e-01  2.9503106890639463e-01  3.9110949838101411e-01  4.8987928658179708e-01  5.9024605698868027e-01  6.9133022589463544e-01  7.9233946249207321e-01  8.9247307067013693e-01  9.9082539351200927e-01  1.0862563482741825e+00  1.1771902212359397e+00  1.2612962590126251e+00  1.3350252934576217e+00  1.3931175340114637e+00  1.4286769162325523e+00  1.4356132051434713e+00  -1.2259953159814308e-02  -5.9589870025609460e-03  2.4475378349139786e-02  7.5787853470321326e-02  1.4297826931379154e-01  2.2152917317898027e-01  3.0797482465704351e-01  3.9980159568111878e-01  4.9517495548164181e-01  5.9269012550038525e-01  6.9118573524514160e-01  7.8960663257799590e-01  8.8689134968504768e-01  9.8186007935370301e-01  1.0730804026330212e+00  1.1586909980511357e+00  1.2361774108638084e+00  1.3021420987407857e+00  1.3522373854966554e+00  1.3816871956096812e+00  1.3872733116244844e+00  3.4385400694212552e-02  3.9598781030202389e-02  6.5450559905239583e-02  1.1018812268515446e-01  1.7037552462492264e-01  2.4244212633081036e-01  3.2328502108394491e-01  4.1039486110998891e-01  5.0177213420637568e-01  5.9578408485926815e-01  6.9102504338529458e-01  7.8619474323363880e-01  8.7998925188401644e-01  9.7099323136366378e-01  1.0575631321713408e+00  1.1376982600882382e+00  1.2089159189363250e+00  1.2681883120073441e+00  1.3120723136579195e+00  1.3372670032134308e+00  1.3420224957876514e+00  7.6947010933945126e-02  8.1429326044958936e-02  1.0399060984331440e-01  1.4366390016358468e-01  1.9802952321705208e-01  2.6428780016415815e-01  3.3975654484918610e-01  4.2206337106938352e-01  5.0916635676854283e-01  5.9929388048566257e-01  6.9085649703529206e-01  7.8235425134836445e-01  8.7228589525555078e-01  9.5905954140643734e-01  1.0409045965926305e+00  1.1157918914773131e+00  1.1813843954384287e+00  1.2350662834196426e+00  1.2741305791422823e+00  1.2962415852153233e+00  1.3004201497685355e+00  1.1511406660242605e-01  1.1907423579844777e-01  1.3919193911340627e-01  1.7492968335971293e-01  2.2452110594058389e-01  2.8574368467249506e-01  3.5629810059970729e-01  4.3399708224240507e-01  5.1683184724437303e-01  6.0296510743022280e-01  6.9068634034201271e-01  7.7835101375685645e-01  8.6431497260332923e-01  9.4686999090379520e-01  1.0241864632228155e+00  1.0942740686562644e+00  1.1549805697517777e+00  1.2040608810532432e+00  1.2393592375715079e+00  1.2591624355873039e+00  1.2629134226695260e+00  1.4862556201759372e-01  1.5219870978528974e-01  1.7046192792075490e-01  2.0312169853946677e-01  2.4883427380066073e-01  3.0579312630882433e-01  3.7201301300819345e-01  4.4549203585388009e-01  5.2429175385718496e-01  6.0656007613958207e-01  6.9051835662216499e-01  7.7442920662206050e-01  8.5655655251893736e-01  9.3512649709887141e-01  1.0082973970801865e+00  1.0741501171262207e+00  1.1307136816467525e+00  1.1760454265150209e+00  1.2083866391530553e+00  1.2264273531787937e+00  1.2298516968387723e+00  1.7727226589901965e-01  1.8055323652953162e-01  1.9739716013277658e-01  2.2765298080428134e-01  2.7025307714164543e-01  3.2368505414609799e-01  3.8620716936511379e-01  4.5598080048233242e-01  5.3114945553181192e-01  6.0987662164506473e-01  6.9035432567771171e-01  7.7079375613100964e-01  8.4940777667397582e-01  9.2439393500989564e-01  9.9392641894981637e-01  1.0561662924205675e+00  1.1093004263948907e+00  1.1516195161630338e+00  1.1816451236510175e+00  1.1983309352696563e+00  1.2015038739146371e+00  2.0089302480242288e-01  2.0395333740523658e-01  2.1971889645192660e-01  2.4812293362943388e-01  2.8827918413106107e-01  3.3888014114528214e-01  3.9836553374772893e-01  4.6502980457837223e-01  5.3709475569464959e-01  6.1275389525806823e-01  6.9019466673885321e-01  7.6760589052600514e-01  8.4317803083021559e-01  9.1510374028530028e-01  9.8158601552400437e-01  1.0408612122838914e+00  1.0912436258360854e+00  1.1311968830284314e+00  1.1594371623857624e+00  1.1750913960043514e+00  1.1780732576879458e+00  2.1936890799532260e-01  2.2226609936977035e-01  2.3723557901854075e-01  2.6426006058319768e-01  3.0257134180559775e-01  3.5100136640503748e-01  4.0811967161249252e-01  4.7232221637802602e-01  5.4189701315021188e-01  6.1507068558040934e-01  6.9003898943791475e-01  7.6498586203386110e-01  8.3809661427611459e-01  9.0757126426289347e-01  9.7164393008628946e-01  1.0286136558714321e+00  1.0768908438573532e+00  1.1150617542363437e+00  1.1419742246381446e+00  1.1568679513651181e+00  1.1597099695243163e+00  2.3261693366387085e-01  2.3540006407905439e-01  2.4981924980041242e-01  2.7588486178562815e-01  3.1290249162596362e-01  3.5979428592994062e-01  4.1521681011529216e-01  4.7763725867621476e-01  5.4539340071083442e-01  6.1674048058484954e-01  6.8988647940169545e-01  7.6301857160828279e-01  8.3432490152170291e-01  9.0201642419856243e-01  9.6435350628775007e-01  1.0196812700325744e+00  1.0664762886754187e+00  1.1034057083372792e+00  1.1294014340213181e+00  1.1437734484874356e+00  1.1465212301417396e+00  2.4058441396570518e-01  2.4329750747430348e-01  2.5739010297338732e-01  2.8288560470212570e-01  3.1913031062571978e-01  3.6509759638512185e-01  4.1949469137436507e-01  4.8083153106792187e-01  5.4747706838811117e-01  6.1770594221256125e-01  6.8973613216643981e-01  7.6175948921827052e-01  8.3196836299613186e-01  8.9858225271474046e-01  9.5987838602235986e-01  1.0142293816999328e+00  1.0601497831147906e+00  1.0963519408771663e+00  1.1218138685705228e+00  1.1358838115782277e+00  1.1385796035372244e+00  2.4324460797055092e-01  2.4592894549019534e-01  2.5990658451206455e-01  2.8520301592617153e-01  3.2117808842446616e-01  3.6682314359061757e-01  4.2086354883115790e-01  4.8182484182243202e-01  5.4808767192316143e-01  6.1793427994702577e-01  6.8958687497104942e-01  7.6123946999507164e-01  8.3108607801893530e-01  8.9734890811966328e-01  9.5831020111093579e-01  1.0123506063514758e+00  1.0579956615176263e+00  1.0939707340159206e+00  1.1192671654300268e+00  1.1332448044518950e+00  1.1359291419715396e+00  2.4059414640486587e-01  2.4328993836386251e-01  2.5735988137156846e-01  2.8282180906492516e-01  3.1902396682730244e-01  3.6494436824216087e-01  4.1929536391973521e-01  4.8059149722735661e-01  5.4720538694596499e-01  6.1741426072382788e-01  6.8943761777566004e-01  7.6146780772953804e-01  8.3169668155398613e-01  8.9834221887417343e-01  9.5967905856772895e-01  1.0140761535569711e+00  1.0600434393163749e+00  1.0962881452399678e+00  1.1217836469687061e+00  1.1358762424677888e+00  1.1385893359763875e+00  2.3265251980035015e-01  2.3540030145465524e-01  2.4977231592077265e-01  2.7576804160481277e-01  3.1269746126667480e-01  3.5949247990952082e-01  4.1482024365434644e-01  4.7715732574353542e-01  5.4484884842039527e-01  6.1615517833381694e-01  6.8928727054040551e-01  7.6243326935725098e-01  8.3378034923126465e-01  9.0153649126588242e-01  9.6395693982680486e-01  1.0193794640121561e+00  1.0662712583161338e+00  1.1032888881564684e+00  1.1293545001416840e+00  1.1437736858630416e+00  1.1465568162782245e+00  2.1946378041777681e-01  2.2230579857697519e-01  2.3719952530394905e-01  2.6411199570574984e-01  3.0228290608474290e-01  3.5056009407066469e-01  4.0752981985580944e-01  4.7160248567920626e-01  5.4107713566598603e-01  6.1418788790824053e-01  6.8913476050418920e-01  7.6410306436169573e-01  8.3727673679189085e-01  9.0685153356407344e-01  9.7105407832960755e-01  1.0281723835370620e+00  1.0766024081365031e+00  1.1149136893589033e+00  1.1419381709235583e+00  1.1569076505723279e+00  1.1598048419467755e+00  2.0110049225414939e-01  2.0408235393774402e-01  2.1973658755633352e-01  2.4797686691366597e-01  2.8793012410601387e-01  3.3831253765820868e-01  3.9758773441809775e-01  4.6407000965680312e-01  5.3599571911188881e-01  6.1156785941610003e-01  6.8897908320325396e-01  7.6641985468403995e-01  8.4207899424745680e-01  9.1414394536373211e-01  9.8080821619437419e-01  1.0402936087968209e+00  1.0908945658110436e+00  1.1310508163126693e+00  1.1594548534901745e+00  1.1752204125368637e+00  1.1782807251396774e+00  1.7766987602746342e-01  1.8084281467244387e-01  1.9752862629108359e-01  2.2755423377906814e-01  2.6987332354721361e-01  3.2300745752153825e-01  3.8524733099229114e-01  4.5477981493221337e-01  5.2976597326813490e-01  6.0837999381110230e-01  6.8881942426440079e-01  7.6929712829704833e-01  8.4802429441030025e-01  9.2319294945977926e-01  9.9296658057699716e-01  1.0554886957960128e+00  1.1089206728004646e+00  1.1515207691378262e+00  1.1817765898093286e+00  1.1986205134125718e+00  1.2019014840430842e+00  1.4932205310333388e-01  1.5274639676331203e-01  1.7078711078905207e-01  2.0312832342708614e-01  2.4846006829535694e-01  3.0502363281589123e-01  3.7087635286192716e-01  4.4404725284324326e-01  5.2261719742318014e-01  6.0474454332005889e-01  6.8865539331995484e-01  7.7261367380253909e-01  8.5488199608493487e-01  9.3368171408823974e-01  1.0071607369339248e+00  1.0733806236332921e+00  1.1303394761414542e+00  1.1760520514026451e+00  1.2087118220213546e+00  1.2269750401568180e+00  1.2305481879245135e+00  1.1626032727258367e-01  1.2001131435480489e-01  1.3981451237060358e-01  1.7511286888886965e-01  2.2419318019033666e-01  2.8489968128585391e-01  3.5498728671930502e-01  4.3230375903832730e-01  5.1485877733879537e-01  6.0082273618526971e-01  6.8848740960011490e-01  7.7620864251190624e-01  8.6234190269775579e-01  9.4517666769972231e-01  1.0228756493424171e+00  1.0934300652696269e+00  1.1546526440015359e+00  1.2042440665824037e+00  1.2399818108287071e+00  1.2600995141436635e+00  1.2640596833396855e+00  7.8753600173580365e-02  8.2932164726792892e-02  1.0504317079983438e-01  1.4410746652247500e-01  1.9778935450369109e-01  2.6338185846480999e-01  3.3826915334949548e-01  4.2011420853569142e-01  5.0688785468658004e-01  5.9681949859376848e-01  6.8831725290684220e-01  7.7987986945647281e-01  8.7000739317359277e-01  9.5711037887275086e-01  1.0394172050929453e+00  1.1148859497779691e+00  1.1811442267250734e+00  1.2355098497785382e+00  1.2751831400988045e+00  1.2977444238971574e+00  1.3022267390081712e+00  3.7151254154470029e-02  4.1906746728690041e-02  6.7101436284201954e-02  1.1098543793477850e-01  1.7025783100580072e-01  2.4147548985389156e-01  3.2161061777079236e-01  4.0818051857847282e-01  4.9918449805812232e-01  5.9297900670850145e-01  6.8814870655684690e-01  7.8338966508287444e-01  8.7740161573576680e-01  9.6877888883215102e-01  1.0558887288581924e+00  1.1367316236113236e+00  1.2087982253172087e+00  1.2689856272569739e+00  1.3137231900368855e+00  1.3395749689119199e+00  1.3447883492479091e+00  -8.0995616823560258e-03  -2.5134456675536040e-03  2.6936364445473003e-02  7.7031651201345155e-02  1.4299633907832529e-01  2.2048275189099997e-01  3.0609334730911775e-01  3.9731367058844008e-01  4.9228240025709813e-01  5.8956711736415124e-01  6.8798801469700654e-01  7.8648362444176367e-01  8.8399879446050755e-01  9.7937215426102808e-01  1.0711989252851004e+00  1.1576445767631609e+00  1.2361954806283459e+00  1.3033858964718132e+00  1.3546983715929908e+00  1.3851327369446889e+00  1.3914337031019410e+00  -5.6439455201337529e-02  -4.9503166290418781e-02  -1.3943784069328250e-02  4.4148456484516270e-02  1.1787749092951531e-01  2.0198352870620220e-01  2.9291740166796304e-01  3.8834835643013987e-01  4.8670067927201399e-01  5.8683428745007837e-01  6.8784352404751814e-01  7.8892769295347387e-01  8.8929446336035656e-01  9.8806425156113786e-01  1.0841426810357553e+00  1.1760172236948283e+00  1.2614162814514571e+00  1.3367778010154527e+00  1.3966459447108925e+00  1.4337410149924590e+00  1.4418180007275920e+00  -1.0721517980797286e-01  -9.7620748400702534e-02  -5.2991150957784026e-02  1.5103115271813567e-02  9.7228697350307897e-02  1.8766871695743390e-01  2.8320144719433504e-01  3.8197254498981525e-01  4.8282635529702389e-01  5.8495584416153512e-01  6.8772350173657459e-01  7.9056438118097105e-01  8.9292250860867750e-01  9.9418961995859934e-01  1.0936156249285158e+00  1.1901418950421514e+00  1.2820587604781406e+00  1.3662867539432910e+00  1.4370218608049894e+00  1.4842147492334936e+00  1.4956091793861850e+00  -1.5984399396267454e-01  -1.4376394656725869e-01  -8.5815499579595986e-02  -6.4241940853173429e-03  8.3451032557350299e-02  1.7887763916397650e-01  2.7760133996413888e-01  3.7846376468364656e-01  4.8075527938439588e-01  5.8395642758038968e-01  6.8763109446006643e-01  7.9137839163720713e-01  8.9480577713667941e-01  9.9750467044004298e-01  1.0990115317652094e+00  1.1987230227423873e+00  1.2956835824633914e+00  1.3880065003085971e+00  1.4711954576630841e+00  1.5338414857450353e+00  1.5525596756895981e+00  -2.1400735557357131e-01  -1.8029070213183973e-01  -1.0569303370608221e-01  -1.6879743335462306e-02  7.7806254487051210e-02  1.7570837491031885e-01  2.7576594965537032e-01  3.7738752039176915e-01  4.8013790531731382e-01  5.8364295161977420e-01  6.8755618675522623e-01  7.9154555155606243e-01  8.9528733791841553e-01  9.9846189026181897e-01  1.1007467681796472e+00  1.2017999470626743e+00  1.3012110096583447e+00  1.3983299397907356e+00  1.4915459130115785e+00  1.5745908200274095e+00  1.6120618157473812e+00  -2.4569460925087497e-01  -1.9088451197056899e-01  -1.0773028416914575e-01  -1.6941657284485837e-02  7.8036610687447452e-02  1.7589487405547191e-01  2.7587327465820549e-01  3.7742905472388150e-01  4.8012724843063315e-01  5.8358890041158162e-01  6.8746490201423172e-01  7.9142304011605336e-01  8.9514160259655162e-01  9.9830546538874487e-01  1.1006013532602503e+00  1.2017078146790954e+00  1.3012696383310134e+00  1.3988227122344401e+00  1.4935036172091558e+00  1.5825220245798555e+00  1.6634723439453891e+00  </DataArray> 
</PointData> 
</Piece>
</UnstructuredGrid>
</VTKFile>