<?xml version="1.0"?>
<VTKFile type="UnstructuredGrid"  version="0.1"  >
<UnstructuredGrid>
<Piece  NumberOfPoints="651" NumberOfCells="1200">
<Points>
<DataArray  type="Float64"  NumberOfComponents="3"  format="ascii">0 0 0  50000 0 0  100000 0 0  150000 0 0  200000 0 0  250000 0 0  300000 0 0  350000 0 0  400000 0 0  450000 0 0  500000 0 0  550000 0 0  600000 0 0  650000 0 0  700000 0 0  750000 0 0  800000 0 0  850000 0 0  900000 0 0  950000 0 0  1000000 0 0  0 50000 0  50000 50000 0  100000 50000 0  150000 50000 0  200000 50000 0  250000 50000 0  300000 50000 0  350000 50000 0  400000 50000 0  450000 50000 0  500000 50000 0  550000 50000 0  600000 50000 0  650000 50000 0  700000 50000 0  750000 50000 0  800000 50000 0  850000 50000 0  900000 50000 0  950000 50000 0  1000000 50000 0  0 100000 0  50000 100000 0  100000 100000 0  150000 100000 0  200000 100000 0  250000 100000 0  300000 100000 0  350000 100000 0  400000 100000 0  450000 100000 0  500000 100000 0  550000 100000 0  600000 100000 0  650000 100000 0  700000 100000 0  750000 100000 0  800000 100000 0  850000 100000 0  900000 100000 0  950000 100000 0  1000000 100000 0  0 150000 0  50000 150000 0  100000 150000 0  150000 150000 0  200000 150000 0  250000 150000 0  300000 150000 0  350000 150000 0  400000 150000 0  450000 150000 0  500000 150000 0  550000 150000 0  600000 150000 0  650000 150000 0  700000 150000 0  750000 150000 0  800000 150000 0  850000 150000 0  900000 150000 0  950000 150000 0  1000000 150000 0  0 200000 0  50000 200000 0  100000 200000 0  150000 200000 0  200000 200000 0  250000 200000 0  300000 200000 0  350000 200000 0  400000 200000 0  450000 200000 0  500000 200000 0  550000 200000 0  600000 200000 0  650000 200000 0  700000 200000 0  750000 200000 0  800000 200000 0  850000 200000 0  900000 200000 0  950000 200000 0  1000000 200000 0  0 250000 0  50000 250000 0  100000 250000 0  150000 250000 0  200000 250000 0  250000 250000 0  300000 250000 0  350000 250000 0  400000 250000 0  450000 250000 0  500000 250000 0  550000 250000 0  600000 250000 0  650000 250000 0  700000 250000 0  750000 250000 0  800000 250000 0  850000 250000 0  900000 250000 0  950000 250000 0  1000000 250000 0  0 300000 0  50000 300000 0  100000 300000 0  150000 300000 0  200000 300000 0  250000 300000 0  300000 300000 0  350000 300000 0  400000 300000 0  450000 300000 0  500000 300000 0  550000 300000 0  600000 300000 0  650000 300000 0  700000 300000 0  750000 300000 0  800000 300000 0  850000 300000 0  900000 300000 0  950000 300000 0  1000000 300000 0  0 350000 0  50000 350000 0  100000 350000 0  150000 350000 0  200000 350000 0  250000 350000 0  300000 350000 0  350000 350000 0  400000 350000 0  450000 350000 0  500000 350000 0  550000 350000 0  600000 350000 0  650000 350000 0  700000 350000 0  750000 350000 0  800000 350000 0  850000 350000 0  900000 350000 0  950000 350000 0  1000000 350000 0  0 400000 0  50000 400000 0  100000 400000 0  150000 400000 0  200000 400000 0  250000 400000 0  300000 400000 0  350000 400000 0  400000 400000 0  450000 400000 0  500000 400000 0  550000 400000 0  600000 400000 0  650000 400000 0  700000 400000 0  750000 400000 0  800000 400000 0  850000 400000 0  900000 400000 0  950000 400000 0  1000000 400000 0  0 450000 0  50000 450000 0  100000 450000 0  150000 450000 0  200000 450000 0  250000 450000 0  300000 450000 0  350000 450000 0  400000 450000 0  450000 450000 0  500000 450000 0  550000 450000 0  600000 450000 0  650000 450000 0  700000 450000 0  750000 450000 0  800000 450000 0  850000 450000 0  900000 450000 0  950000 450000 0  1000000 450000 0  0 500000 0  50000 500000 0  100000 500000 0  150000 500000 0  200000 500000 0  250000 500000 0  300000 500000 0  350000 500000 0  400000 500000 0  450000 500000 0  500000 500000 0  550000 500000 0  600000 500000 0  650000 500000 0  700000 500000 0  750000 500000 0  800000 500000 0  850000 500000 0  900000 500000 0  950000 500000 0  1000000 500000 0  0 550000 0  50000 550000 0  100000 550000 0  150000 550000 0  200000 550000 0  250000 550000 0  300000 550000 0  350000 550000 0  400000 550000 0  450000 550000 0  500000 550000 0  550000 550000 0  600000 550000 0  650000 550000 0  700000 550000 0  750000 550000 0  800000 550000 0  850000 550000 0  900000 550000 0  950000 550000 0  1000000 550000 0  0 600000 0  50000 600000 0  100000 600000 0  150000 600000 0  200000 600000 0  250000 600000 0  300000 600000 0  350000 600000 0  400000 600000 0  450000 600000 0  500000 600000 0  550000 600000 0  600000 600000 0  650000 600000 0  700000 600000 0  750000 600000 0  800000 600000 0  850000 600000 0  900000 600000 0  950000 600000 0  1000000 600000 0  0 650000 0  50000 650000 0  100000 650000 0  150000 650000 0  200000 650000 0  250000 650000 0  300000 650000 0  350000 650000 0  400000 650000 0  450000 650000 0  500000 650000 0  550000 650000 0  600000 650000 0  650000 650000 0  700000 650000 0  750000 650000 0  800000 650000 0  850000 650000 0  900000 650000 0  950000 650000 0  1000000 650000 0  0 700000 0  50000 700000 0  100000 700000 0  150000 700000 0  200000 700000 0  250000 700000 0  300000 700000 0  350000 700000 0  400000 700000 0  450000 700000 0  500000 700000 0  550000 700000 0  600000 700000 0  650000 700000 0  700000 700000 0  750000 700000 0  800000 700000 0  850000 700000 0  900000 700000 0  950000 700000 0  1000000 700000 0  0 750000 0  50000 750000 0  100000 750000 0  150000 750000 0  200000 750000 0  250000 750000 0  300000 750000 0  350000 750000 0  400000 750000 0  450000 750000 0  500000 750000 0  550000 750000 0  600000 750000 0  650000 750000 0  700000 750000 0  750000 750000 0  800000 750000 0  850000 750000 0  900000 750000 0  950000 750000 0  1000000 750000 0  0 800000 0  50000 800000 0  100000 800000 0  150000 800000 0  200000 800000 0  250000 800000 0  300000 800000 0  350000 800000 0  400000 800000 0  450000 800000 0  500000 800000 0  550000 800000 0  600000 800000 0  650000 800000 0  700000 800000 0  750000 800000 0  800000 800000 0  850000 800000 0  900000 800000 0  950000 800000 0  1000000 800000 0  0 850000 0  50000 850000 0  100000 850000 0  150000 850000 0  200000 850000 0  250000 850000 0  300000 850000 0  350000 850000 0  400000 850000 0  450000 850000 0  500000 850000 0  550000 850000 0  600000 850000 0  650000 850000 0  700000 850000 0  750000 850000 0  800000 850000 0  850000 850000 0  900000 850000 0  950000 850000 0  1000000 850000 0  0 900000 0  50000 900000 0  100000 900000 0  150000 900000 0  200000 900000 0  250000 900000 0  300000 900000 0  350000 900000 0  400000 900000 0  450000 900000 0  500000 900000 0  550000 900000 0  600000 900000 0  650000 900000 0  700000 900000 0  750000 900000 0  800000 900000 0  850000 900000 0  900000 900000 0  950000 900000 0  1000000 900000 0  0 950000 0  50000 950000 0  100000 950000 0  150000 950000 0  200000 950000 0  250000 950000 0  300000 950000 0  350000 950000 0  400000 950000 0  450000 950000 0  500000 950000 0  550000 950000 0  600000 950000 0  650000 950000 0  700000 950000 0  750000 950000 0  800000 950000 0  850000 950000 0  900000 950000 0  950000 950000 0  1000000 950000 0  0 1000000 0  50000 1000000 0  100000 1000000 0  150000 1000000 0  200000 1000000 0  250000 1000000 0  300000 1000000 0  350000 1000000 0  400000 1000000 0  450000 1000000 0  500000 1000000 0  550000 1000000 0  600000 1000000 0  650000 1000000 0  700000 1000000 0  750000 1000000 0  800000 1000000 0  850000 1000000 0  900000 1000000 0  950000 1000000 0  1000000 1000000 0  0 1050000 0  50000 1050000 0  100000 1050000 0  150000 1050000 0  200000 1050000 0  250000 1050000 0  300000 1050000 0  350000 1050000 0  400000 1050000 0  450000 1050000 0  500000 1050000 0  550000 1050000 0  600000 1050000 0  650000 1050000 0  700000 1050000 0  750000 1050000 0  800000 1050000 0  850000 1050000 0  900000 1050000 0  950000 1050000 0  1000000 1050000 0  0 1100000 0  50000 1100000 0  100000 1100000 0  150000 1100000 0  200000 1100000 0  250000 1100000 0  300000 1100000 0  350000 1100000 0  400000 1100000 0  450000 1100000 0  500000 1100000 0  550000 1100000 0  600000 1100000 0  650000 1100000 0  700000 1100000 0  750000 1100000 0  800000 1100000 0  850000 1100000 0  900000 1100000 0  950000 1100000 0  1000000 1100000 0  0 1150000 0  50000 1150000 0  100000 1150000 0  150000 1150000 0  200000 1150000 0  250000 1150000 0  300000 1150000 0  350000 1150000 0  400000 1150000 0  450000 1150000 0  500000 1150000 0  550000 1150000 0  600000 1150000 0  650000 1150000 0  700000 1150000 0  750000 1150000 0  800000 1150000 0  850000 1150000 0  900000 1150000 0  950000 1150000 0  1000000 1150000 0  0 1200000 0  50000 1200000 0  100000 1200000 0  150000 1200000 0  200000 1200000 0  250000 1200000 0  300000 1200000 0  350000 1200000 0  400000 1200000 0  450000 1200000 0  500000 1200000 0  550000 1200000 0  600000 1200000 0  650000 1200000 0  700000 1200000 0  750000 1200000 0  800000 1200000 0  850000 1200000 0  900000 1200000 0  950000 1200000 0  1000000 1200000 0  0 1250000 0  50000 1250000 0  100000 1250000 0  150000 1250000 0  200000 1250000 0  250000 1250000 0  300000 1250000 0  350000 1250000 0  400000 1250000 0  450000 1250000 0  500000 1250000 0  550000 1250000 0  600000 1250000 0  650000 1250000 0  700000 1250000 0  750000 1250000 0  800000 1250000 0  850000 1250000 0  900000 1250000 0  950000 1250000 0  1000000 1250000 0  0 1300000 0  50000 1300000 0  100000 1300000 0  150000 1300000 0  200000 1300000 0  250000 1300000 0  300000 1300000 0  350000 1300000 0  400000 1300000 0  450000 1300000 0  500000 1300000 0  550000 1300000 0  600000 1300000 0  650000 1300000 0  700000 1300000 0  750000 1300000 0  800000 1300000 0  850000 1300000 0  900000 1300000 0  950000 1300000 0  1000000 1300000 0  0 1350000 0  50000 1350000 0  100000 1350000 0  150000 1350000 0  200000 1350000 0  250000 1350000 0  300000 1350000 0  350000 1350000 0  400000 1350000 0  450000 1350000 0  500000 1350000 0  550000 1350000 0  600000 1350000 0  650000 1350000 0  700000 135
[...]
<PointData  Scalars="f_25"> 
<DataArray  type="Float64"  Name="f_25"  format="ascii">-3.5286403668268997e+00  -3.1853971675575714e+00  -2.8050435387084982e+00  -2.3993947946000969e+00  -1.9809316768469749e+00  -1.5535376944699337e+00  -1.1193106967514852e+00  -6.7985081504446221e-01  -2.3659858690048882e-01  2.0904839609154682e-01  6.5568942928297003e-01  1.1018991943076508e+00  1.5462106940828344e+00  1.9870874387282049e+00  2.4228651529954126e+00  2.8516280627432091e+00  3.2709489899483053e+00  3.6773138345124785e+00  4.0644401662759968e+00  4.4162383089824830e+00  4.6448017109877462e+00  -3.3111819487364054e+00  -3.1545455796804691e+00  -2.7985637224116262e+00  -2.3984424671513165e+00  -1.9813714160766469e+00  -1.5543227725614852e+00  -1.1201123395875858e+00  -6.8053279254178400e-01  -2.3708842651343431e-01  2.0879864095737843e-01  6.5571836562839003e-01  1.1022446852662175e+00  1.5469180041493158e+00  1.9882197299142066e+00  2.4245146653780858e+00  2.8539031063168174e+00  3.2737940056591990e+00  3.6795015235989923e+00  4.0592264534166587e+00  4.3761056786253283e+00  4.5136478197191119e+00  -3.0599835000760924e+00  -2.9832621759879712e+00  -2.7151900297863643e+00  -2.3574590793740628e+00  -1.9602059806555645e+00  -1.5429962577008229e+00  -1.1139697340100365e+00  -6.7723367606900287e-01  -2.3538586182803861e-01  2.0956900785644494e-01  6.5585743783098371e-01  1.1017729794293194e+00  1.5455739384736726e+00  1.9853694777944777e+00  2.4189124635254386e+00  2.8431339992503468e+00  3.2530081803766868e+00  3.6386989105061884e+00  3.9785847280947695e+00  4.2245781602197416e+00  4.2874570553123998e+00  -2.8195700084177120e+00  -2.7737631566499372e+00  -2.5722398043584582e+00  -2.2679338979664037e+00  -1.9049698469736480e+00  -1.5087866673151360e+00  -1.0927799779721590e+00  -6.6433901398232631e-01  -2.2802402988256387e-01  2.1293549119543359e-01  6.5591805140250348e-01  1.0985249058570010e+00  1.5383174959073249e+00  1.9725438217381357e+00  2.3977177540347610e+00  2.8088363951886786e+00  3.1978425271757098e+00  3.5506784577739845e+00  3.8423142670508295e+00  4.0314019458531325e+00  4.0676542843382002e+00  -2.5924240201539175e+00  -2.5604075439680902e+00  -2.4022492828695223e+00  -2.1446498443721511e+00  -1.8195475383106121e+00  -1.4509028600251817e+00  -1.0542896973822347e+00  -6.3958350138315090e-01  -2.1333021846617262e-01  2.1974643802772920e-01  6.5585392105734286e-01  1.0915759574232060e+00  1.5234580986460857e+00  1.9475884581102445e+00  2.3590330450852646e+00  2.7509536802222190e+00  3.1132016180024480e+00  3.4302699850365341e+00  3.6791139815117448e+00  3.8295078318740292e+00  3.8551899351473282e+00  -2.3795231053881754e+00  -2.3547703410762479e+00  -2.2251130629181115e+00  -2.0042520694985333e+00  -1.7141160211224444e+00  -1.3745661684128934e+00  -1.0007954811721493e+00  -6.0377378298883566e-01  -1.9147311355862875e-01  2.3002153674152695e-01  6.5568913593712286e-01  1.0809709474586335e+00  1.5012790441307298e+00  1.9115071031283102e+00  2.3054422289475349e+00  2.6749893024660780e+00  3.0091794254348971e+00  3.2931461225858274e+00  3.5078177788232656e+00  3.6322532906204894e+00  3.6527322156688022e+00  -2.1822461622036244e+00  -2.1618830324147673e+00  -2.0517595276579605e+00  -1.8590802861983489e+00  -1.5989108269581269e+00  -1.2869685281575229e+00  -9.3688029268039186e-01  -5.5962521319781378e-01  -1.6391854285893886e-01  2.4314539625759346e-01  6.5547196234407246e-01  1.0674289779946307e+00  1.4733673541727306e+00  1.8671479948749792e+00  2.2416277124452968e+00  2.5880890466274562e+00  2.8956834899068737e+00  3.1511417202478973e+00  3.3393372280669325e+00  3.4457866831374657e+00  3.4631555957641909e+00  -2.0020543166941720e+00  -1.9846143979828976e+00  -1.8884678626296703e+00  -1.7174497251187628e+00  -1.4821714113220965e+00  -1.1949739662499144e+00  -8.6765551714455191e-01  -5.1061590519743005e-01  -1.3277551457341380e-01  2.5814879187402173e-01  6.5524815216510812e-01  1.0520096240092378e+00  1.4419145699048579e+00  1.8180438894103390e+00  2.1726879450755918e+00  2.4969902212222070e+00  2.7807222189633145e+00  3.0124010171332931e+00  3.1801129362020180e+00  3.2735985612747207e+00  3.2888620670783433e+00  -1.8402790097830715e+00  -1.8249147595359336e+00  -1.7391177802145399e+00  -1.5848988341590857e+00  -1.3700105379114491e+00  -1.1042659945146678e+00  -7.9779521008753052e-01  -4.6020231022980457e-01  -1.0027903369014969e-01  2.7395545527989995e-01  6.5505004841021941e-01  1.0358486907471047e+00  1.4091975861442358e+00  1.7676579527953886e+00  2.1032494939145718e+00  2.4072712796062468e+00  2.6702884382737886e+00  2.8824280934974200e+00  3.0341830940939816e+00  3.1180170558431715e+00  3.1317544043773493e+00  -1.6980473002126351e+00  -1.6842175850463152e+00  -1.6062583627177280e+00  -1.4651556459601722e+00  -1.2668161996530183e+00  -1.0192315607098201e+00  -7.3116196799823741e-01  -4.1141071446645094e-01  -6.8474968613904466e-02  2.8954770862319645e-01  6.5489534189901510e-01  1.0199937228284808e+00  1.3772753614292712e+00  1.7190022449263136e+00  2.0371286967961684e+00  2.3232520240012122e+00  2.5687180912345706e+00  2.7649681865711102e+00  2.9042287750463869e+00  2.9807265024491154e+00  2.9933201232514888e+00  -1.5762692343510918e+00  -1.5635990732226466e+00  -1.4916307282132932e+00  -1.3607595506224031e+00  -1.1756886362654253e+00  -9.4312225632598734e-01  -6.7075829696462685e-01  -3.6669312397182968e-01  -3.9075773596172585e-02  3.0405266021603627e-01  6.5479001677296300e-01  1.0053254282680972e+00  1.3478564213078112e+00  1.6745083394496163e+00  1.9772929035705906e+00  2.2481467826076287e+00  2.4790964472364116e+00  2.6625973327772612e+00  2.7920994263179519e+00  2.8629813795088119e+00  2.8747103268850673e+00  -1.4756507938854000e+00  -1.4638611225062041e+00  -1.3964435001936855e+00  -1.2734490871654509e+00  -1.0987919450522110e+00  -8.7828022669316652e-01  -6.1882005328156453e-01  -3.2793101701806460e-01  -1.3427600528980479e-02  3.1677092707997095e-01  6.5473214821832426e-01  9.9253689768965858e-01  1.3222741891291998e+00  1.6360374191036295e+00  1.9259540069889178e+00  2.1842804127629027e+00  2.4035926250725290e+00  2.5770973886581663e+00  2.6990939401734009e+00  2.7657173901404501e+00  2.7768019500877124e+00  -1.3967168053429364e+00  -1.3855861009688248e+00  -1.3215319115446176e+00  -1.2044070573962697e+00  -1.0376128949629606e+00  -8.2634801816626280e-01  -5.7695219705607592e-01  -2.9650467193430635e-01  7.4639102190900818e-03  3.2717188866651009e-01  6.5471509934502437e-01  9.8214447000085980e-01  1.3015177381542939e+00  1.6049518016545792e+00  1.8847018085022118e+00  2.1332908304595839e+00  2.3437091264487515e+00  2.5096958844133632e+00  2.6261245310381436e+00  2.6896222800861875e+00  2.7002479202019583e+00  -1.3398361460685178e+00  -1.3291779883633834e+00  -1.2674573547287868e+00  -1.1544189881253977e+00  -9.9314440166375662e-01  -7.8843803653117850e-01  -5.4625985881804684e-01  -2.7337982511444275e-01  2.2885257174305038e-02  3.3487393781534841e-01  6.5472974942562301e-01  9.7451151711903172e-01  1.2862828644769491e+00  1.5822019949514150e+00  1.8546325868269202e+00  2.0962936135915213e+00  2.3004602330908224e+00  2.4612224387794117e+00  2.5738200156393076e+00  2.6351868945450576e+00  2.6455183355549292e+00  -1.3052447304881885e+00  -1.2948939027037527e+00  -1.2345723753668782e+00  -1.1239764157127783e+00  -9.6601158511141894e-01  -7.6525842280229861e-01  -5.2745550557830445e-01  -2.5918682611672417e-01  3.2365302733703437e-02  3.3962154961665753e-01  6.5476584834605656e-01  9.6987371231586406e-01  1.2770231193735693e+00  1.5684054927395839e+00  1.8364541923763509e+00  2.0740047363710077e+00  2.2744952936923917e+00  2.4322114723166113e+00  2.5425937605001865e+00  2.6027433015123127e+00  2.6129335233798106e+00  -1.2930633050861318e+00  -1.2828666356038834e+00  -1.2230622740569381e+00  -1.1133420764172768e+00  -9.5655361808156236e-01  -7.5719868453264305e-01  -5.2093601420745417e-01  -2.5428102534982766e-01  3.5635092179013873e-02  3.4126580991804412e-01  6.5481272788550837e-01  9.6835964585296519e-01  1.2739903635919960e+00  1.5639064811208339e+00  1.8305614699784554e+00  2.0668241403036447e+00  2.2661790738525607e+00  2.4229675321882769e+00  2.5326877298279369e+00  2.5924920913748828e+00  2.6026887608571352e+00  -1.3033080676088111e+00  -1.2931178457413153e+00  -1.2329683047291904e+00  -1.1225860165456147e+00  -9.6486983792139469e-01  -7.6437928060001070e-01  -5.2682873660534835e-01  -2.5878003696857665e-01  3.2602336397436767e-02  3.3975174345514753e-01  6.5485960742496385e-01  9.7000390615436061e-01  1.2772601530373118e+00  1.5688122818877317e+00  1.8370809613493044e+00  2.0748838785733019e+00  2.2756370408824247e+00  2.4336018714837819e+00  2.5441978311378919e+00  2.6045193584747683e+00  2.6148701862592061e+00  -1.3358928797839298e+00  -1.3255614387740591e+00  -1.2641945598683162e+00  -1.1515969830084123e+00  -9.9083477731982794e-01  -7.8666815782052757e-01  -5.4500713105592014e-01  -2.7257653918041008e-01  2.3342591294062087e-02  3.3511393865198746e-01  6.5489570634540528e-01  9.7475151795567772e-01  1.2867401985967166e+00  1.5830052808854582e+00  1.8558853145890635e+00  2.0980634923021948e+00  2.3027698574347766e+00  2.4640444438964137e+00  2.5770828104998182e+00  2.6388034441344246e+00  2.6494616018395556e+00  -1.3906224644309446e+00  -1.3799968243151726e+00  -1.3164990752671317e+00  -1.2000704286423494e+00  -1.0340836706777419e+00  -8.2366537468858281e-01  -5.7507635273120039e-01  -2.9532634588356316e-01  8.1077176167311683e-03  3.2748098577017004e-01  6.5491035642601769e-01  9.8245356710453557e-01  1.3021615455519477e+00  1.6061301277053339e+00  1.8865776528271039e+00  2.1359734739372911e+00  2.3472383507339987e+00  2.5140325131673089e+00  2.6311573673156539e+00  2.6952115567398596e+00  2.7063422611139711e+00  -1.4671764943166896e+00  -1.4560919343694294e+00  -1.3894684844023788e+00  -1.2674719328871438e+00  -1.0939671693015056e+00  -8.7465495699188300e-01  -6.1632855121789110e-01  -3.2641196333259775e-01  -1.2648733358158162e-02  3.1708855808138753e-01  6.5489330755273145e-01  9.9285452869108781e-01  1.3230530563000353e+00  1.6375564727891072e+00  1.9284455090526040e+00  2.1879056824642027e+00  2.4084174008232564e+00  2.5830745429364943e+00  2.7060689559647182e+00  2.7734865782772338e+00  2.7852762496564321e+00  -1.5650848711140211e+00  -1.5533559237377672e+00  -1.4824739705469072e+00  -1.3529718770062189e+00  -1.1694709914653632e+00  -9.3852132683657841e-01  -6.6766744779953757e-01  -3.6488288367855864e-01  -3.8230965536743856e-02  3.0430002750297341e-01  6.5483543899811492e-01  1.0055727955550429e+00  1.3487012293672518e+00  1.6763185797429070e+00  1.9803837527357007e+00  2.2527477120970589e+00  2.4853140920364880e+00  2.6703850063934542e+00  2.8012561839843406e+00  2.8732245289936853e+00  2.8858946901221292e+00  -1.6836946674804147e+00  -1.6711010466780492e+00  -1.5946033192753173e+00  -1.4553427308000422e+00  -1.2590926354634988e+00  -1.0136265682301371e+00  -7.2750324102509034e-01  -4.0937678915523162e-01  -6.7649905658176135e-02  2.8963173294262184e-01  6.5473011387209268e-01  1.0200777471479154e+00  1.3781004243850152e+00  1.7210361702375634e+00  2.0407874237693471e+00  2.3288570164809195e+00  2.5764416554241043e+00  2.7747811017312412e+00  2.9158838184887896e+00  2.9938430408173677e+00  3.0076727559836769e+00  -1.8221289486062588e+00  -1.8083916000720848e+00  -1.7245576383228878e+00  -1.5728026377263278e+00  -1.3606629825026961e+00  -1.0976458238351454e+00  -7.9362403814346605e-01  -4.5803249702426929e-01  -9.9572130373106360e-02  2.7377676502402881e-01  6.5457540736092235e-01  1.0356700004912467e+00  1.4099044894613004e+00  1.7698277660009507e+00  2.1074206658586689e+00  2.4138914502857913e+00  2.6796359936825542e+00  2.8945242899301764e+00  3.0487432359856150e+00  3.1345402153069997e+00  3.1499044655541386e+00  -1.9792366113072339e+00  -1.9639731055036072e+00  -1.8704874804309033e+00  -1.7027755613621820e+00  -1.4710967631921972e+00  -1.1873647654510779e+00  -8.6306248930445306e-01  -5.0841843363919093e-01  -1.3228911413370026e-01  2.5761583176192560e-01  6.5437730360606294e-01  1.0514766638971547e+00  1.4424009703445946e+00  1.8202413609686006e+00  2.1772809729157108e+00  2.5045994220210570e+00  2.7917968670932285e+00  3.0270751808898777e+00  3.1980933184007645e+00  3.2942398537539859e+00  3.3116797724652591e+00  -2.1535301399930624e+00  -2.1361612273663391e+00  -2.0297117722958085e+00  -1.8415162644767689e+00  -1.5860580341357307e+00  -1.2784635908562996e+00  -9.3200225667412240e-01  -5.5752253910379368e-01  -1.6374189840153514e-01  2.4219647777656864e-01  6.5415349342713214e-01  1.0664800595136148e+00  1.4735439986301486e+00  1.8692506689690072e+00  2.2465057484515749e+00  2.5965939839286900e+00  2.9085362827292869e+00  3.1687057419694926e+00  3.3613849834290859e+00  3.4715084881858798e+00  3.4918716179747396e+00  -2.3431067598976458e+00  -2.3226278348493370e+00  -2.1981923230521083e+00  -1.9835206668146634e+00  -1.6995539696637223e+00  -1.3653638466948983e+00  -9.9581677317633566e-01  -6.0188164735709082e-01  -1.9165358835950294e-01  2.2865450831259462e-01  6.5393631983411293e-01  1.0796039190297104e+00  1.5010985693298664e+00  1.9133992387600594e+00  2.3104209369433604e+00  2.6841916241840940e+00  3.0237414768936350e+00  3.3138775252697048e+00  3.5347385186892621e+00  3.6643957968473906e+00  3.6891485611593158e+00  -2.5455644793761478e+00  -2.5198823761028506e+00  -2.3694885257405578e+00  -2.1206445292653440e+00  -1.8035761622312485e+00  -1.4413282244510144e+00  -1.0494075893140400e+00  -6.3796300233900283e-01  -2.1383264287483719e-01  2.1804949834804163e-01  6.5377153471391225e-01  1.0898790177435291e+00  1.5229556742374266e+00  1.9492089571543956e+00  2.3639151531534708e+00  2.7605283157964169e+00  3.1291729940818263e+00  3.4542753001433479e+00  3.7118747386407018e+00  3.8700329997392586e+00  3.9020494759250832e+00  -2.7580288285669998e+00  -2.7217764900819295e+00  -2.5326888112796238e+00  -2.2410530020027752e+00  -1.8882170714044937e+00  -1.4992109394174504e+00  -1.0880922982635162e+00  -6.6291836596687914e-01  -2.2869204013606093e-01  2.1110054991426214e-01  6.5370740436876562e-01  1.0966899645758386e+00  1.5376494856538307e+00  1.9739644697535843e+00  2.4024054337434189e+00  2.8184121230863886e+00  3.2145953027448906e+00  3.5775593537376205e+00  3.8818652601296564e+00  4.0833886124211229e+00  4.1291954641888973e+00  -2.9778315995411861e+00  -2.9149527044485195e+00  -2.6689592723235482e+00  -2.3290734547349601e+00  -1.9433827246054625e+00  -1.5335085434791120e+00  -1.1092870077541885e+00  -6.7574402202321082e-01  -2.3594848270240537e-01  2.0785247634195186e-01  6.5376801794029449e-01  1.1000564479148338e+00  1.5450113175993150e+00  1.9868591318402689e+00  2.4235951897813046e+00  2.8526217134720828e+00  3.2698314364268120e+00  3.6670845351452894e+00  4.0248154855575748e+00  4.2928876317591715e+00  4.3696089558473039e+00  -3.2040223639478995e+00  -3.0664802228541124e+00  -2.7496009976454534e+00  -2.3698760678277759e+00  -1.9641685498879740e+00  -1.5442776505455782e+00  -1.1148892096068301e+00  -6.7859427414294105e-01  -2.3729254837804309e-01  2.0738077050505732e-01  6.5390709014288806e-01  1.1008268148139018e+00  1.5467138822847140e+00  1.9901582483130587e+00  2.4297377953588541e+00  2.8639482283327373e+00  3.2909968718478910e+00  3.7080679229225453e+00  4.1081891781828519e+00  4.4641710354516801e+00  4.6208074045076195e+00  -3.3351762552165303e+00  -3.1066128532112649e+00  -2.7548147105047844e+00  -2.3676883787412586e+00  -1.9613235341770747e+00  -1.5420026069719697e+00  -1.1132396972241563e+00  -6.7746198295694127e-01  -2.3658523831155920e-01  2.0772626146362633e-01  6.5393602648831184e-01  1.1005770596797295e+00  1.5462240426717699e+00  1.9894762708157376e+00  2.4289361525227542e+00  2.8631631502411889e+00  3.2905571326182219e+00  3.7090202503713341e+00  4.1146689944797208e+00  4.4950226233287891e+00  4.8382658225981183e+00  </DataArray> 
</PointData> 
</Piece>
</UnstructuredGrid>
</VTKFile>