<?xml version="1.0"?>
<VTKFile type="UnstructuredGrid"  version="0.1"  >
<UnstructuredGrid>
<Piece  NumberOfPoints="651" NumberOfCells="1200">
<Points>
<DataArray  type="Float64"  NumberOfComponents="3"  format="ascii">0 0 0  50000 0 0  100000 0 0  150000 0 0  200000 0 0  250000 0 0  300000 0 0  350000 0 0  400000 0 0  450000 0 0  500000 0 0  550000 0 0  600000 0 0  650000 0 0  700000 0 0  750000 0 0  800000 0 0  850000 0 0  900000 0 0  950000 0 0  1000000 0 0  0 50000 0  50000 50000 0  100000 50000 0  150000 50000 0  200000 50000 0  250000 50000 0  300000 50000 0  350000 50000 0  400000 50000 0  450000 50000 0  500000 50000 0  550000 50000 0  600000 50000 0  650000 50000 0  700000 50000 0  750000 50000 0  800000 50000 0  850000 50000 0  900000 50000 0  950000 50000 0  1000000 50000 0  0 100000 0  50000 100000 0  100000 100000 0  150000 100000 0  200000 100000 0  250000 100000 0  300000 100000 0  350000 100000 0  400000 100000 0  450000 100000 0  500000 100000 0  550000 100000 0  600000 100000 0  650000 100000 0  700000 100000 0  750000 100000 0  800000 100000 0  850000 100000 0  900000 100000 0  950000 100000 0  1000000 100000 0  0 150000 0  50000 150000 0  100000 150000 0  150000 150000 0  200000 150000 0  250000 150000 0  300000 150000 0  350000 150000 0  400000 150000 0  450000 150000 0  500000 150000 0  550000 150000 0  600000 150000 0  650000 150000 0  700000 150000 0  750000 150000 0  800000 150000 0  850000 150000 0  900000 150000 0  950000 150000 0  1000000 150000 0  0 200000 0  50000 200000 0  100000 200000 0  150000 200000 0  200000 200000 0  250000 200000 0  300000 200000 0  350000 200000 0  400000 200000 0  450000 200000 0  500000 200000 0  550000 200000 0  600000 200000 0  650000 200000 0  700000 200000 0  750000 200000 0  800000 200000 0  850000 200000 0  900000 200000 0  950000 200000 0  1000000 200000 0  0 250000 0  50000 250000 0  100000 250000 0  150000 250000 0  200000 250000 0  250000 250000 0  300000 250000 0  350000 250000 0  400000 250000 0  450000 250000 0  500000 250000 0  550000 250000 0  600000 250000 0  650000 250000 0  700000 250000 0  750000 250000 0  800000 250000 0  850000 250000 0  900000 250000 0  950000 250000 0  1000000 250000 0  0 300000 0  50000 300000 0  100000 300000 0  150000 300000 0  200000 300000 0  250000 300000 0  300000 300000 0  350000 300000 0  400000 300000 0  450000 300000 0  500000 300000 0  550000 300000 0  600000 300000 0  650000 300000 0  700000 300000 0  750000 300000 0  800000 300000 0  850000 300000 0  900000 300000 0  950000 300000 0  1000000 300000 0  0 350000 0  50000 350000 0  100000 350000 0  150000 350000 0  200000 350000 0  250000 350000 0  300000 350000 0  350000 350000 0  400000 350000 0  450000 350000 0  500000 350000 0  550000 350000 0  600000 350000 0  650000 350000 0  700000 350000 0  750000 350000 0  800000 350000 0  850000 350000 0  900000 350000 0  950000 350000 0  1000000 350000 0  0 400000 0  50000 400000 0  100000 400000 0  150000 400000 0  200000 400000 0  250000 400000 0  300000 400000 0  350000 400000 0  400000 400000 0  450000 400000 0  500000 400000 0  550000 400000 0  600000 400000 0  650000 400000 0  700000 400000 0  750000 400000 0  800000 400000 0  850000 400000 0  900000 400000 0  950000 400000 0  1000000 400000 0  0 450000 0  50000 450000 0  100000 450000 0  150000 450000 0  200000 450000 0  250000 450000 0  300000 450000 0  350000 450000 0  400000 450000 0  450000 450000 0  500000 450000 0  550000 450000 0  600000 450000 0  650000 450000 0  700000 450000 0  750000 450000 0  800000 450000 0  850000 450000 0  900000 450000 0  950000 450000 0  1000000 450000 0  0 500000 0  50000 500000 0  100000 500000 0  150000 500000 0  200000 500000 0  250000 500000 0  300000 500000 0  350000 500000 0  400000 500000 0  450000 500000 0  500000 500000 0  550000 500000 0  600000 500000 0  650000 500000 0  700000 500000 0  750000 500000 0  800000 500000 0  850000 500000 0  900000 500000 0  950000 500000 0  1000000 500000 0  0 550000 0  50000 550000 0  100000 550000 0  150000 550000 0  200000 550000 0  250000 550000 0  300000 550000 0  350000 550000 0  400000 550000 0  450000 550000 0  500000 550000 0  550000 550000 0  600000 550000 0  650000 550000 0  700000 550000 0  750000 550000 0  800000 550000 0  850000 550000 0  900000 550000 0  950000 550000 0  1000000 550000 0  0 600000 0  50000 600000 0  100000 600000 0  150000 600000 0  200000 600000 0  250000 600000 0  300000 600000 0  350000 600000 0  400000 600000 0  450000 600000 0  500000 600000 0  550000 600000 0  600000 600000 0  650000 600000 0  700000 600000 0  750000 600000 0  800000 600000 0  850000 600000 0  900000 600000 0  950000 600000 0  1000000 600000 0  0 650000 0  50000 650000 0  100000 650000 0  150000 650000 0  200000 650000 0  250000 650000 0  300000 650000 0  350000 650000 0  400000 650000 0  450000 650000 0  500000 650000 0  550000 650000 0  600000 650000 0  650000 650000 0  700000 650000 0  750000 650000 0  800000 650000 0  850000 650000 0  900000 650000 0  950000 650000 0  1000000 650000 0  0 700000 0  50000 700000 0  100000 700000 0  150000 700000 0  200000 700000 0  250000 700000 0  300000 700000 0  350000 700000 0  400000 700000 0  450000 700000 0  500000 700000 0  550000 700000 0  600000 700000 0  650000 700000 0  700000 700000 0  750000 700000 0  800000 700000 0  850000 700000 0  900000 700000 0  950000 700000 0  1000000 700000 0  0 750000 0  50000 750000 0  100000 750000 0  150000 750000 0  200000 750000 0  250000 750000 0  300000 750000 0  350000 750000 0  400000 750000 0  450000 750000 0  500000 750000 0  550000 750000 0  600000 750000 0  650000 750000 0  700000 750000 0  750000 750000 0  800000 750000 0  850000 750000 0  900000 750000 0  950000 750000 0  1000000 750000 0  0 800000 0  50000 800000 0  100000 800000 0  150000 800000 0  200000 800000 0  250000 800000 0  300000 800000 0  350000 800000 0  400000 800000 0  450000 800000 0  500000 800000 0  550000 800000 0  600000 800000 0  650000 800000 0  700000 800000 0  750000 800000 0  800000 800000 0  850000 800000 0  900000 800000 0  950000 800000 0  1000000 800000 0  0 850000 0  50000 850000 0  100000 850000 0  150000 850000 0  200000 850000 0  250000 850000 0  300000 850000 0  350000 850000 0  400000 850000 0  450000 850000 0  500000 850000 0  550000 850000 0  600000 850000 0  650000 850000 0  700000 850000 0  750000 850000 0  800000 850000 0  850000 850000 0  900000 850000 0  950000 850000 0  1000000 850000 0  0 900000 0  50000 900000 0  100000 900000 0  150000 900000 0  200000 900000 0  250000 900000 0  300000 900000 0  350000 900000 0  400000 900000 0  450000 900000 0  500000 900000 0  550000 900000 0  600000 900000 0  650000 900000 0  700000 900000 0  750000 900000 0  800000 900000 0  850000 900000 0  900000 900000 0  950000 900000 0  1000000 900000 0  0 950000 0  50000 950000 0  100000 950000 0  150000 950000 0  200000 950000 0  250000 950000 0  300000 950000 0  350000 950000 0  400000 950000 0  450000 950000 0  500000 950000 0  550000 950000 0  600000 950000 0  650000 950000 0  700000 950000 0  750000 950000 0  800000 950000 0  850000 950000 0  900000 950000 0  950000 950000 0  1000000 950000 0  0 1000000 0  50000 1000000 0  100000 1000000 0  150000 1000000 0  200000 1000000 0  250000 1000000 0  300000 1000000 0  350000 1000000 0  400000 1000000 0  450000 1000000 0  500000 1000000 0  550000 1000000 0  600000 1000000 0  650000 1000000 0  700000 1000000 0  750000 1000000 0  800000 1000000 0  850000 1000000 0  900000 1000000 0  950000 1000000 0  1000000 1000000 0  0 1050000 0  50000 1050000 0  100000 1050000 0  150000 1050000 0  200000 1050000 0  250000 1050000 0  300000 1050000 0  350000 1050000 0  400000 1050000 0  450000 1050000 0  500000 1050000 0  550000 1050000 0  600000 1050000 0  650000 1050000 0  700000 1050000 0  750000 1050000 0  800000 1050000 0  850000 1050000 0  900000 1050000 0  950000 1050000 0  1000000 1050000 0  0 1100000 0  50000 1100000 0  100000 1100000 0  150000 1100000 0  200000 1100000 0  250000 1100000 0  300000 1100000 0  350000 1100000 0  400000 1100000 0  450000 1100000 0  500000 1100000 0  550000 1100000 0  600000 1100000 0  650000 1100000 0  700000 1100000 0  750000 1100000 0  800000 1100000 0  850000 1100000 0  900000 1100000 0  950000 1100000 0  1000000 1100000 0  0 1150000 0  50000 1150000 0  100000 1150000 0  150000 1150000 0  200000 1150000 0  250000 1150000 0  300000 1150000 0  350000 1150000 0  400000 1150000 0  450000 1150000 0  500000 1150000 0  550000 1150000 0  600000 1150000 0  650000 1150000 0  700000 1150000 0  750000 1150000 0  800000 1150000 0  850000 1150000 0  900000 1150000 0  950000 1150000 0  1000000 1150000 0  0 1200000 0  50000 1200000 0  100000 1200000 0  150000 1200000 0  200000 1200000 0  250000 1200000 0  300000 1200000 0  350000 1200000 0  400000 1200000 0  450000 1200000 0  500000 1200000 0  550000 1200000 0  600000 1200000 0  650000 1200000 0  700000 1200000 0  750000 1200000 0  800000 1200000 0  850000 1200000 0  900000 1200000 0  950000 1200000 0  1000000 1200000 0  0 1250000 0  50000 1250000 0  100000 1250000 0  150000 1250000 0  200000 1250000 0  250000 1250000 0  300000 1250000 0  350000 1250000 0  400000 1250000 0  450000 1250000 0  500000 1250000 0  550000 1250000 0  600000 1250000 0  650000 1250000 0  700000 1250000 0  750000 1250000 0  800000 1250000 0  850000 1250000 0  900000 1250000 0  950000 1250000 0  1000000 1250000 0  0 1300000 0  50000 1300000 0  100000 1300000 0  150000 1300000 0  200000 1300000 0  250000 1300000 0  300000 1300000 0  350000 1300000 0  400000 1300000 0  450000 1300000 0  500000 1300000 0  550000 1300000 0  600000 1300000 0  650000 1300000 0  700000 1300000 0  750000 1300000 0  800000 1300000 0  850000 1300000 0  900000 1300000 0  950000 1300000 0  1000000 1300000 0  0 1350000 0  50000 1350000 0  100000 1350000 0  150000 1350000 0  200000 1350000 0  250000 1350000 0  300000 1350000 0  350000 1350000 0  400000 1350000 0  450000 1350000 0  500000 1350000 0  550000 1350000 0  600000 1350000 0  650000 1350000 0  700000 135
[...]
<PointData  Scalars="f_25"> 
<DataArray  type="Float64"  Name="f_25"  format="ascii">-9.1815877033601527e+00  -8.3796642923842697e+00  -7.4896915326346782e+00  -6.5399930916498299e+00  -5.5600107751617491e+00  -4.5589151572407420e+00  -3.5416669769174662e+00  -2.5120488647781696e+00  -1.4734637322554558e+00  -4.2921124831810697e-01  6.1740249499038968e-01  1.6630134782434467e+00  2.7041587899736808e+00  3.7372101405728650e+00  4.7582347480645231e+00  5.7626995978854048e+00  6.7448477394703161e+00  7.6963127493372463e+00  8.6020944053905666e+00  9.4240130973560294e+00  9.9567130498960790e+00  -8.6735030065159773e+00  -8.3085493661793013e+00  -7.4751180452306958e+00  -6.5380516759271261e+00  -5.5611448428483117e+00  -4.5607516006824982e+00  -3.5434798505136067e+00  -2.5135442129920214e+00  -1.4744866307495905e+00  -4.2965807654026900e-01  6.1761779783222226e-01  1.6639789982947493e+00  2.7059840767980861e+00  3.7400521982461399e+00  4.7623274946835989e+00  5.7683306953148703e+00  6.7519532443438299e+00  7.7021492034020920e+00  8.5911136150027438e+00  9.3320892022412991e+00  9.6514392627093013e+00  -8.0868781891422135e+00  -7.9088030754429042e+00  -7.2813854222564931e+00  -6.4433244675877281e+00  -5.5125188459334469e+00  -4.5349007024940029e+00  -3.5295520631845299e+00  -2.5060970901028390e+00  -1.4706265226190744e+00  -4.2784576041488814e-01  6.1807848957448985e-01  1.6631347904408218e+00  2.7032282049815044e+00  3.7339140092525525e+00  4.7499122687451960e+00  5.7440152043053976e+00  6.7044189833230270e+00  7.6080127372388793e+00  8.4039709047335744e+00  8.9792471941266943e+00  9.1242618096783641e+00  -7.5254637687372989e+00  -7.4195577368220800e+00  -6.9480759809684161e+00  -6.2351191872424270e+00  -5.3844329446340886e+00  -4.4558118154703674e+00  -3.4807024139677747e+00  -2.4764332663283422e+00  -1.4536940705660975e+00  -4.2005594675464331e-01  6.1833286418220790e-01  1.6558443979353197e+00  2.6867561852275035e+00  3.7046101746417368e+00  4.7012257926148315e+00  5.6648617079871517e+00  6.5766014122310361e+00  7.4034238123798186e+00  8.0865081178624632e+00  8.5286740784669952e+00  8.6119184531173030e+00  -6.9950254774758811e+00  -6.9212242824039532e+00  -6.5513063667312705e+00  -5.9477593928989450e+00  -5.1856671490714614e+00  -4.3213683979562569e+00  -3.3914551573593466e+00  -2.4191089517539361e+00  -1.4196849735463657e+00  -4.0426009221850978e-01  6.1827285258377063e-01  1.6399024818989116e+00  2.6525266490377031e+00  3.6469687348405575e+00  4.6116517473250038e+00  5.5305253458371837e+00  6.3797584023013556e+00  7.1229209542117298e+00  7.7058536742848629e+00  8.0575224810548107e+00  8.1164016432065260e+00  -6.4978182257605148e+00  -6.4408784974957181e+00  -6.1376709122931183e+00  -5.6201711536346810e+00  -4.9399287685360740e+00  -4.1436532741288170e+00  -3.2670581705592725e+00  -2.3359108071069161e+00  -1.3689241623378978e+00  -3.8037477113783191e-01  6.1796010082099995e-01  1.6153881686809410e+00  2.6011476857161941e+00  3.5632584329290626e+00  4.4871395915618475e+00  5.3537858126964624e+00  6.1374337812901754e+00  6.8031505549710705e+00  7.3061068688005060e+00  7.5970893979442771e+00  7.6440267224084852e+00  -6.0370526654817667e+00  -5.9902792257602258e+00  -5.7327635135238957e+00  -5.2812499365725909e+00  -4.6711542140401496e+00  -3.9394486901224619e+00  -3.1181759285245310e+00  -2.2331364857878064e+00  -1.3047983199727990e+00  -3.4981429364839617e-01  6.1751396089027899e-01  1.5839718130350775e+00  2.5363044168880049e+00  3.4601044916860531e+00  4.3386033441840732e+00  5.1513290023960119e+00  5.8727942938522615e+00  6.4718113501963090e+00  6.9128156223670008e+00  7.1617674482786837e+00  7.2015774995834843e+00  -5.6161436826071602e+00  -5.5761294304903215e+00  -5.3512880236377915e+00  -4.9504746926051730e+00  -4.3986366323486568e+00  -3.7248118013017497e+00  -2.9567507447725823e+00  -2.1189011805279718e+00  -1.2322210482616263e+00  -3.1483203608039367e-01  6.1704703377584014e-01  1.5481293024527205e+00  2.4631144615293525e+00  3.3457597035525444e+00  4.1779614126170683e+00  4.9389153748874781e+00  5.6045844804803835e+00  6.1479717426617739e+00  6.5410576164338661e+00  6.7597249023300217e+00  6.7947079980524769e+00  -5.2382093892731527e+00  -5.2029894125164020e+00  -5.0023299878187260e+00  -4.6408229732663324e+00  -4.1366984167988603e+00  -3.5130535530867473e+00  -2.7937224066253612e+00  -2.0012889155037614e+00  -1.1564154619956966e+00  -2.7794016552240991e-01  6.1663898525018734e-01  1.5105198003367832e+00  2.3869056353470057e+00  3.2283284044498100e+00  4.0160436154341950e+00  4.7296068894084353e+00  5.3468397701468620e+00  5.8445229996222414e+00  6.2002882037888041e+00  6.3964133144381039e+00  6.4278928926993846e+00  -4.9058932994121234e+00  -4.8742151053910838e+00  -4.6918609594539156e+00  -4.3610329580804512e+00  -3.8956255909775099e+00  -3.3144556395072327e+00  -2.6381405890741725e+00  -1.8873869719292002e+00  -1.0821704835723489e+00  -2.4151905148605940e-01  6.1633366445172733e-01  1.4735981212344642e+00  2.3125009689626173e+00  3.1148662249182784e+00  3.8617906266399866e+00  4.5335251190939641e+00  5.1097204513865311e+00  5.5702409096561594e+00  5.8967887307594662e+00  6.0757813668120226e+00  6.1046308875528803e+00  -4.6213329443487554e+00  -4.5923296134296887e+00  -4.4239623360370270e+00  -4.1170592768825243e+00  -3.6826887871360641e+00  -3.1366430738567699e+00  -2.4970448486715502e+00  -1.7829427596152974e+00  -1.0134988426755036e+00  -2.0761317478421581e-01  6.1614631569487432e-01  1.4394292351757403e+00  2.2439053733418071e+00  3.0110728931008133e+00  3.7221585098007912e+00  4.3582057143551785e+00  4.9004600397443081e+00  5.3311652118962947e+00  5.6348960038097040e+00  5.8007741068482437e+00  5.8276315830202590e+00  -4.3861889152488338e+00  -4.3592157422166453e+00  -4.2014697068415865e+00  -3.9129808539034352e+00  -3.5029656284888460e+00  -2.9851109872785719e+00  -2.3756803174044019e+00  -1.6923693669248543e+00  -9.5355743185307995e-01  -1.7786228960094408e-01  6.1607282922981654e-01  1.4096387777007857e+00  2.1842460561239387e+00  2.9213134210795739e+00  3.6023351314543599e+00  4.2091019727570744e+00  4.7241470552129936e+00  5.1314766550906405e+00  5.4176590995378211e+00  5.5735914620139644e+00  5.5989615301130424e+00  -4.2016975137536825e+00  -4.1762428915028380e+00  -4.0263445667794393e+00  -3.7515745195670891e+00  -3.3599462974436700e+00  -2.8637149961622352e+00  -2.2778140424031110e+00  -1.6189061518229553e+00  -9.0470615957295752e-01  -1.5351153417916263e-01  6.1609752550063546e-01  1.3854380771100931e+00  2.1358435294202058e+00  2.8487842403897856e+00  3.5060510456521250e+00  4.0900578712030695e+00  4.5843083744583835e+00  4.9740577191641000e+00  5.2472218971615350e+00  5.3958527866304884e+00  5.4201613337561971e+00  -4.0687289672804017e+00  -4.0443623540149689e+00  -3.8999066401855575e+00  -3.6346856660502604e+00  -3.2559628634047058e+00  -2.7750675255313637e+00  -2.2060411447826365e+00  -1.5648207592743715e+00  -8.6862037306557516e-01  -1.3545708277058796e-01  6.1619858773176261e-01  1.3676796629389971e+00  2.1003306861384670e+00  2.7957163413169699e+00  3.4358798040792209e+00  4.0036928213262151e+00  4.4833263340791039e+00  4.8608581471706183e+00  5.1250639704288172e+00  5.2687154432167214e+00  5.2923415887929188e+00  -3.9878406016070302e+00  -3.9641803530614665e+00  -3.8229854248350468e+00  -3.5634697232086179e+00  -3.1924842399765683e+00  -2.7208323218467463e+00  -2.1620354101479662e+00  -1.5315940293228585e+00  -8.4640697148207289e-01  -1.2429951160942949e-01  6.1635137494103087e-01  1.3569163648590508e+00  2.0787720499784754e+00  2.7635594261845617e+00  3.3934836560058241e+00  3.9516886756602356e+00  4.4227269970777074e+00  4.7931349194322284e+00  5.0521590023538483e+00  5.1929633765010825e+00  5.2162598713396608e+00  -3.9593180027892707e+00  -3.9360102421694547e+00  -3.7960171236533329e+00  -3.5385445060165233e+00  -3.1703076794929856e+00  -2.7019248459397160e+00  -2.1467296091788257e+00  -1.5200611990180874e+00  -8.3869827896945692e-01  -1.2038921979463985e-01  6.1653017519951214e-01  1.3534495701936493e+00  2.0717586293684591e+00  2.7531215494170884e+00  3.3797899595778289e+00  3.9349851963387148e+00  4.4033680298919844e+00  4.7716048564155713e+00  5.0290774740523734e+00  5.1690705925685085e+00  5.1923783531883396e+00  -3.9831995209405990e+00  -3.9599030261020287e+00  -3.8190986519548105e+00  -3.5600745690332030e+00  -3.1896666466787096e+00  -2.7186283252612622e+00  -2.1604233056068400e+00  -1.5304990757855819e+00  -8.4571169957949544e-01  -1.2385601446004371e-01  6.1670897545799963e-01  1.3573598620084573e+00  2.0794673218810922e+00  2.7646543797218670e+00  3.3950957605469796e+00  3.9538926722457686e+00  4.4255445903755959e+00  4.7965300736076655e+00  5.0560457752341490e+00  5.1972407034605963e+00  5.2209009520061560e+00  -4.0592812383938472e+00  -4.0356550928176720e+00  -3.8920036200297865e+00  -3.6277977967715906e+00  -3.2502659836801251e+00  -2.7706324709272714e+00  -2.2028194536802608e+00  -1.5626559909179973e+00  -8.6727033573947709e-01  -1.3461931253997175e-01  6.1686176266728709e-01  1.3685174331696419e+00  2.1016807234646189e+00  2.7978811096734084e+00  3.4391014951816850e+00  4.0081278759304180e+00  4.4890232138037698e+00  4.8677460164493231e+00  5.1329669905847100e+00  5.2774227044141817e+00  5.3017893176795994e+00  -4.1871009833570918e+00  -4.1627924362313751e+00  -4.0141615467624421e+00  -3.7409973687650098e+00  -3.3512480240593643e+00  -2.8569975208041010e+00  -2.2729906952531360e+00  -1.6157238899907831e+00  -9.0278317902117644e-01  -1.5237772671104091e-01  6.1696282489845145e-01  1.3865718845782617e+00  2.1377665099720429e+00  2.8519665022220253e+00  3.5108743928021804e+00  4.0967753465613130e+00  4.5930066478428015e+00  4.9846348699662135e+00  5.2594049171785775e+00  5.4093032419019771e+00  5.4347578641528242e+00  -4.3659011797139238e+00  -4.3405311116148591e+00  -4.1845987491387184e+00  -3.8984163046915716e+00  -3.4910867048139362e+00  -2.9760416223580517e+00  -2.3692747810553398e+00  -1.6882530706805312e+00  -9.5118570572486894e-01  -1.7657842730169546e-01  6.1698752116930333e-01  1.4109226400000743e+00  2.1866177822522053e+00  2.9254297173239494e+00  3.6087406678034855e+00  4.2181713376776395e+00  4.7360259788879757e+00  5.1460412043025539e+00  5.4345300572406723e+00  5.5922760926157142e+00  5.6192492656479187e+00  -4.5945712326210861e+00  -4.5677137564490815e+00  -4.4018356534105534e+00  -4.0981048614971769e+00  -3.6673996893451859e+00  -3.1251453639560580e+00  -2.4890981594016846e+00  -1.7780125427017048e+00  -1.0108450229426784e+00  -2.0636888477659393e-01  6.1691403470429551e-01  1.4406735251833942e+00  2.2465591930746829e+00  3.0160031100144717e+00  3.7301051990707261e+00  4.3697034242559285e+00  4.9157491375352036e+00  5.3501196272816323e+00  5.6570226864361333e+00  5.8253899638287656e+00  5.8543932947478217e+00  -4.8715705371536258e+00  -4.8427210164128223e+00  -4.6637283803602534e+00  -4.3371805592569901e+00  -3.8766601009873578e+00  -3.3004647686947810e+00  -2.6287302762408151e+00  -1.8818058745191157e+00  -1.0794406185634293e+00  -2.4053777083524436e-01  6.1672668594751190e-01  1.4745794018853087e+00  2.3152308339715932e+00  3.1204473223284630e+00  3.8712009394734364e+00  4.5475159899064685e+00  5.1286859413766948e+00  5.5940933084795867e+00  5.9249213098530360e+00  6.1072754557901616e+00  6.1389536498111541e+00  -5.1948325423001256e+00  -5.1633529640388689e+00  -4.9672278533895389e+00  -4.6114626492229993e+00  -4.1137794197476323e+00  -3.4965465390091941e+00  -2.7829832650349644e+00  -1.9952680540505519e+00  -1.1538452849477248e+00  -2.7745944993748778e-01  6.1642136514912671e-01  1.5110005159217410e+00  2.3894758123950277e+00  3.2343492659031048e+00  4.0267827570246935e+00  4.7461139034860276e+00  5.3697587671980838e+00  5.8738833236655141e+00  6.2353903382178633e+00  6.4360497629155091e+00  6.4712697396722563e+00  -5.5616476476531709e+00  -5.5266645519307005e+00  -5.3079972660345529e+00  -4.9149113922624972e+00  -4.3715241300810934e+00  -3.7058550244881703e+00  -2.9449010622177463e+00  -2.1126993531531970e+00  -1.2300541111299985e+00  -3.1506895205335178e-01  6.1601331662354353e-01  1.5478923864797862e+00  2.4652813986610127e+00  3.3519615309273467e+00  4.1898110951719358e+00  4.9578721517010678e+00  5.6316969827479442e+00  6.1835350430043929e+00  6.5843483740369617e+00  6.8091897808894757e+00  6.8492040330063144e+00  -5.9685171491841640e+00  -5.9287070978793688e+00  -5.6797552719677098e+00  -5.2387509997970225e+00  -4.6397339434529048e+00  -3.9182686519966383e+00  -3.1055429937846606e+00  -2.2270441412866169e+00  -1.3032440664885547e+00  -3.5091146263562395e-01  6.1554638950917984e-01  1.5828746440478592e+00  2.5378586703722532e+00  3.4661968361872160e+00  4.3512362789239107e+00  5.1725090405218097e+00  5.9042145644394965e+00  6.5143102869718907e+00  6.9658238639231520e+00  7.2233395761594430e+00  7.2701130158809928e+00  -6.4109663720091046e+00  -6.3640290475449337e+00  -6.0730465184011377e+00  -5.5700902045716960e+00  -4.9043734308907618e+00  -4.1207254622970559e+00  -3.2540792411623816e+00  -2.3301980825295368e+00  -1.3680873353166685e+00  -3.8232781828142137e-01  6.1510024957852572e-01  1.6134351215373588e+00  2.6019845127374186e+00  3.5689711575063963e+00  4.5001185209587167e+00  5.3767136245282554e+00  6.1729891189354937e+00  6.8532315040340475e+00  7.3707312626924253e+00  7.6739388478950232e+00  7.7308785761598271e+00  -6.8833412928070983e+00  -6.8244621306553874e+00  -6.4727933238854174e+00  -5.8898606038122949e+00  -5.1466980519018932e+00  -4.2974649954377142e+00  -3.3785913969254775e+00  -2.4139083844409868e+00  -1.4194662986381281e+00  -4.0684213149934256e-01  6.1478749781580344e-01  1.6373204426180823e+00  2.6527453239459202e+00  3.6521693021534585e+00  4.6245155077588649e+00  5.5544287483558010e+00  6.4187274994709345e+00  7.1808197432983798e+00  7.7843667171306956e+00  8.1542846328033516e+00  8.2280858278752742e+00  -7.3788581027178113e+00  -7.2956137280675080e+00  -6.8534477674629946e+00  -6.1703634619803509e+00  -5.3435410618315551e+00  -4.4318013575876325e+00  -3.4681654422152515e+00  -2.4715498242421452e+00  -1.4536958348278959e+00  -4.2278404753571991e-01  6.1472748621739215e-01  1.6531162971542432e+00  2.6867544209656748e+00  3.7094936167278907e+00  4.7137627643673614e+00  5.6888721658699666e+00  6.6174932950336576e+00  7.4681795376419231e+00  8.1811363313678971e+00  8.6526180872215459e+00  8.7585241191367640e+00  -7.8912014592788449e+00  -7.7461868437271288e+00  -7.1709105543340872e+00  -6.3749523868393965e+00  -5.4713586329235646e+00  -4.5109548539058766e+00  -3.5168519183456213e+00  -2.5008536588529395e+00  -1.4701678545819068e+00  -4.3007444004121453e-01  6.1498186082512596e-01  1.6609061108144978e+00  2.7036868730186705e+00  3.7391574405023982e+00  4.7626124135841161e+00  5.7679610528936003e+00  6.7455791963330300e+00  7.6763848179872696e+00  8.5144457726560017e+00  9.1418634258423950e+00  9.3199385395417718e+00  -8.4183789123098176e+00  -8.0990288518418136e+00  -7.3580532646033561e+00  -6.4690888530026749e+00  -5.5188928939443764e+00  -4.5352703449153582e+00  -3.5292671442840295e+00  -2.5069918478465456e+00  -1.4729237263984754e+00  -4.3091864789513618e-01  6.1544255256739411e-01  1.6627184269398845e+00  2.7075469811491994e+00  3.7466045633916152e+00  4.7765402009132023e+00  5.7938119510820485e+00  6.7942051932478806e+00  7.7711120263266675e+00  8.7081783956302665e+00  9.5416097165788401e+00  9.9065633569155196e+00  -8.7236526994965917e+00  -8.1909527469565404e+00  -7.3690340549911362e+00  -6.4632523989378159e+00  -5.5117873890708458e+00  -4.5296392474858909e+00  -3.5251743976649532e+00  -2.5041497901732717e+00  -1.4710984395740641e+00  -4.2995312784382844e-01  6.1565785540923290e-01  1.6622715987177132e+00  2.7065240826550698e+00  3.7451092151777652e+00  4.7747273273170574e+00  5.7919755076402959e+00  6.7930711255613208e+00  7.7730534420493944e+00  8.7227518830342134e+00  9.6127246427838262e+00  1.0414648053759707e+01  </DataArray> 
</PointData> 
</Piece>
</UnstructuredGrid>
</VTKFile>