<?xml version="1.0"?>
<VTKFile type="UnstructuredGrid"  version="0.1"  >
<UnstructuredGrid>
<Piece  NumberOfPoints="651" NumberOfCells="1200">
<Points>
<DataArray  type="Float64"  NumberOfComponents="3"  format="ascii">0 0 0  50000 0 0  100000 0 0  150000 0 0  200000 0 0  250000 0 0  300000 0 0  350000 0 0  400000 0 0  450000 0 0  500000 0 0  550000 0 0  600000 0 0  650000 0 0  700000 0 0  750000 0 0  800000 0 0  850000 0 0  900000 0 0  950000 0 0  1000000 0 0  0 50000 0  50000 50000 0  100000 50000 0  150000 50000 0  200000 50000 0  250000 50000 0  300000 50000 0  350000 50000 0  400000 50000 0  450000 50000 0  500000 50000 0  550000 50000 0  600000 50000 0  650000 50000 0  700000 50000 0  750000 50000 0  800000 50000 0  850000 50000 0  900000 50000 0  950000 50000 0  1000000 50000 0  0 100000 0  50000 100000 0  100000 100000 0  150000 100000 0  200000 100000 0  250000 100000 0  300000 100000 0  350000 100000 0  400000 100000 0  450000 100000 0  500000 100000 0  550000 100000 0  600000 100000 0  650000 100000 0  700000 100000 0  750000 100000 0  800000 100000 0  850000 100000 0  900000 100000 0  950000 100000 0  1000000 100000 0  0 150000 0  50000 150000 0  100000 150000 0  150000 150000 0  200000 150000 0  250000 150000 0  300000 150000 0  350000 150000 0  400000 150000 0  450000 150000 0  500000 150000 0  550000 150000 0  600000 150000 0  650000 150000 0  700000 150000 0  750000 150000 0  800000 150000 0  850000 150000 0  900000 150000 0  950000 150000 0  1000000 150000 0  0 200000 0  50000 200000 0  100000 200000 0  150000 200000 0  200000 200000 0  250000 200000 0  300000 200000 0  350000 200000 0  400000 200000 0  450000 200000 0  500000 200000 0  550000 200000 0  600000 200000 0  650000 200000 0  700000 200000 0  750000 200000 0  800000 200000 0  850000 200000 0  900000 200000 0  950000 200000 0  1000000 200000 0  0 250000 0  50000 250000 0  100000 250000 0  150000 250000 0  200000 250000 0  250000 250000 0  300000 250000 0  350000 250000 0  400000 250000 0  450000 250000 0  500000 250000 0  550000 250000 0  600000 250000 0  650000 250000 0  700000 250000 0  750000 250000 0  800000 250000 0  850000 250000 0  900000 250000 0  950000 250000 0  1000000 250000 0  0 300000 0  50000 300000 0  100000 300000 0  150000 300000 0  200000 300000 0  250000 300000 0  300000 300000 0  350000 300000 0  400000 300000 0  450000 300000 0  500000 300000 0  550000 300000 0  600000 300000 0  650000 300000 0  700000 300000 0  750000 300000 0  800000 300000 0  850000 300000 0  900000 300000 0  950000 300000 0  1000000 300000 0  0 350000 0  50000 350000 0  100000 350000 0  150000 350000 0  200000 350000 0  250000 350000 0  300000 350000 0  350000 350000 0  400000 350000 0  450000 350000 0  500000 350000 0  550000 350000 0  600000 350000 0  650000 350000 0  700000 350000 0  750000 350000 0  800000 350000 0  850000 350000 0  900000 350000 0  950000 350000 0  1000000 350000 0  0 400000 0  50000 400000 0  100000 400000 0  150000 400000 0  200000 400000 0  250000 400000 0  300000 400000 0  350000 400000 0  400000 400000 0  450000 400000 0  500000 400000 0  550000 400000 0  600000 400000 0  650000 400000 0  700000 400000 0  750000 400000 0  800000 400000 0  850000 400000 0  900000 400000 0  950000 400000 0  1000000 400000 0  0 450000 0  50000 450000 0  100000 450000 0  150000 450000 0  200000 450000 0  250000 450000 0  300000 450000 0  350000 450000 0  400000 450000 0  450000 450000 0  500000 450000 0  550000 450000 0  600000 450000 0  650000 450000 0  700000 450000 0  750000 450000 0  800000 450000 0  850000 450000 0  900000 450000 0  950000 450000 0  1000000 450000 0  0 500000 0  50000 500000 0  100000 500000 0  150000 500000 0  200000 500000 0  250000 500000 0  300000 500000 0  350000 500000 0  400000 500000 0  450000 500000 0  500000 500000 0  550000 500000 0  600000 500000 0  650000 500000 0  700000 500000 0  750000 500000 0  800000 500000 0  850000 500000 0  900000 500000 0  950000 500000 0  1000000 500000 0  0 550000 0  50000 550000 0  100000 550000 0  150000 550000 0  200000 550000 0  250000 550000 0  300000 550000 0  350000 550000 0  400000 550000 0  450000 550000 0  500000 550000 0  550000 550000 0  600000 550000 0  650000 550000 0  700000 550000 0  750000 550000 0  800000 550000 0  850000 550000 0  900000 550000 0  950000 550000 0  1000000 550000 0  0 600000 0  50000 600000 0  100000 600000 0  150000 600000 0  200000 600000 0  250000 600000 0  300000 600000 0  350000 600000 0  400000 600000 0  450000 600000 0  500000 600000 0  550000 600000 0  600000 600000 0  650000 600000 0  700000 600000 0  750000 600000 0  800000 600000 0  850000 600000 0  900000 600000 0  950000 600000 0  1000000 600000 0  0 650000 0  50000 650000 0  100000 650000 0  150000 650000 0  200000 650000 0  250000 650000 0  300000 650000 0  350000 650000 0  400000 650000 0  450000 650000 0  500000 650000 0  550000 650000 0  600000 650000 0  650000 650000 0  700000 650000 0  750000 650000 0  800000 650000 0  850000 650000 0  900000 650000 0  950000 650000 0  1000000 650000 0  0 700000 0  50000 700000 0  100000 700000 0  150000 700000 0  200000 700000 0  250000 700000 0  300000 700000 0  350000 700000 0  400000 700000 0  450000 700000 0  500000 700000 0  550000 700000 0  600000 700000 0  650000 700000 0  700000 700000 0  750000 700000 0  800000 700000 0  850000 700000 0  900000 700000 0  950000 700000 0  1000000 700000 0  0 750000 0  50000 750000 0  100000 750000 0  150000 750000 0  200000 750000 0  250000 750000 0  300000 750000 0  350000 750000 0  400000 750000 0  450000 750000 0  500000 750000 0  550000 750000 0  600000 750000 0  650000 750000 0  700000 750000 0  750000 750000 0  800000 750000 0  850000 750000 0  900000 750000 0  950000 750000 0  1000000 750000 0  0 800000 0  50000 800000 0  100000 800000 0  150000 800000 0  200000 800000 0  250000 800000 0  300000 800000 0  350000 800000 0  400000 800000 0  450000 800000 0  500000 800000 0  550000 800000 0  600000 800000 0  650000 800000 0  700000 800000 0  750000 800000 0  800000 800000 0  850000 800000 0  900000 800000 0  950000 800000 0  1000000 800000 0  0 850000 0  50000 850000 0  100000 850000 0  150000 850000 0  200000 850000 0  250000 850000 0  300000 850000 0  350000 850000 0  400000 850000 0  450000 850000 0  500000 850000 0  550000 850000 0  600000 850000 0  650000 850000 0  700000 850000 0  750000 850000 0  800000 850000 0  850000 850000 0  900000 850000 0  950000 850000 0  1000000 850000 0  0 900000 0  50000 900000 0  100000 900000 0  150000 900000 0  200000 900000 0  250000 900000 0  300000 900000 0  350000 900000 0  400000 900000 0  450000 900000 0  500000 900000 0  550000 900000 0  600000 900000 0  650000 900000 0  700000 900000 0  750000 900000 0  800000 900000 0  850000 900000 0  900000 900000 0  950000 900000 0  1000000 900000 0  0 950000 0  50000 950000 0  100000 950000 0  150000 950000 0  200000 950000 0  250000 950000 0  300000 950000 0  350000 950000 0  400000 950000 0  450000 950000 0  500000 950000 0  550000 950000 0  600000 950000 0  650000 950000 0  700000 950000 0  750000 950000 0  800000 950000 0  850000 950000 0  900000 950000 0  950000 950000 0  1000000 950000 0  0 1000000 0  50000 1000000 0  100000 1000000 0  150000 1000000 0  200000 1000000 0  250000 1000000 0  300000 1000000 0  350000 1000000 0  400000 1000000 0  450000 1000000 0  500000 1000000 0  550000 1000000 0  600000 1000000 0  650000 1000000 0  700000 1000000 0  750000 1000000 0  800000 1000000 0  850000 1000000 0  900000 1000000 0  950000 1000000 0  1000000 1000000 0  0 1050000 0  50000 1050000 0  100000 1050000 0  150000 1050000 0  200000 1050000 0  250000 1050000 0  300000 1050000 0  350000 1050000 0  400000 1050000 0  450000 1050000 0  500000 1050000 0  550000 1050000 0  600000 1050000 0  650000 1050000 0  700000 1050000 0  750000 1050000 0  800000 1050000 0  850000 1050000 0  900000 1050000 0  950000 1050000 0  1000000 1050000 0  0 1100000 0  50000 1100000 0  100000 1100000 0  150000 1100000 0  200000 1100000 0  250000 1100000 0  300000 1100000 0  350000 1100000 0  400000 1100000 0  450000 1100000 0  500000 1100000 0  550000 1100000 0  600000 1100000 0  650000 1100000 0  700000 1100000 0  750000 1100000 0  800000 1100000 0  850000 1100000 0  900000 1100000 0  950000 1100000 0  1000000 1100000 0  0 1150000 0  50000 1150000 0  100000 1150000 0  150000 1150000 0  200000 1150000 0  250000 1150000 0  300000 1150000 0  350000 1150000 0  400000 1150000 0  450000 1150000 0  500000 1150000 0  550000 1150000 0  600000 1150000 0  650000 1150000 0  700000 1150000 0  750000 1150000 0  800000 1150000 0  850000 1150000 0  900000 1150000 0  950000 1150000 0  1000000 1150000 0  0 1200000 0  50000 1200000 0  100000 1200000 0  150000 1200000 0  200000 1200000 0  250000 1200000 0  300000 1200000 0  350000 1200000 0  400000 1200000 0  450000 1200000 0  500000 1200000 0  550000 1200000 0  600000 1200000 0  650000 1200000 0  700000 1200000 0  750000 1200000 0  800000 1200000 0  850000 1200000 0  900000 1200000 0  950000 1200000 0  1000000 1200000 0  0 1250000 0  50000 1250000 0  100000 1250000 0  150000 1250000 0  200000 1250000 0  250000 1250000 0  300000 1250000 0  350000 1250000 0  400000 1250000 0  450000 1250000 0  500000 1250000 0  550000 1250000 0  600000 1250000 0  650000 1250000 0  700000 1250000 0  750000 1250000 0  800000 1250000 0  850000 1250000 0  900000 1250000 0  950000 1250000 0  1000000 1250000 0  0 1300000 0  50000 1300000 0  100000 1300000 0  150000 1300000 0  200000 1300000 0  250000 1300000 0  300000 1300000 0  350000 1300000 0  400000 1300000 0  450000 1300000 0  500000 1300000 0  550000 1300000 0  600000 1300000 0  650000 1300000 0  700000 1300000 0  750000 1300000 0  800000 1300000 0  850000 1300000 0  900000 1300000 0  950000 1300000 0  1000000 1300000 0  0 1350000 0  50000 1350000 0  100000 1350000 0  150000 1350000 0  200000 1350000 0  250000 1350000 0  300000 1350000 0  350000 1350000 0  400000 1350000 0  450000 1350000 0  500000 1350000 0  550000 1350000 0  600000 1350000 0  650000 1350000 0  700000 135
[...]
<PointData  Scalars="f_25"> 
<DataArray  type="Float64"  Name="f_25"  format="ascii">-3.9156233812093362e+00  -3.5396184405756048e+00  -3.1228662214547716e+00  -2.6783606174108487e+00  -2.2197934915128923e+00  -1.7514256690261834e+00  -1.2755591639585979e+00  -7.9394968338756100e-01  -3.0817764821954430e-01  1.8022371757906133e-01  6.6971775815498691e-01  1.1587407193126504e+00  1.6456829642986919e+00  2.1288584025852995e+00  2.6064404509412280e+00  3.0763260793453537e+00  3.5358499795994960e+00  3.9811512450600595e+00  4.4053246488095361e+00  4.7907026902308774e+00  5.0409897228027791e+00  -3.6774022033731191e+00  -3.5058870864662475e+00  -3.1158039147619325e+00  -2.6773325618485515e+00  -2.2202769895218819e+00  -1.7522792613089770e+00  -1.2764257801069874e+00  -7.9468196746719855e-01  -3.0869744253970194e-01  1.7996807919983332e-01  6.6976798249896619e-01  1.1591379632509893e+00  1.6464768211274428e+00  2.1301185394760376e+00  2.6082691220837027e+00  3.0788444037690503e+00  3.5390018937420749e+00  3.9836013178528962e+00  4.3997001387075096e+00  4.7468713965262799e+00  4.8973991448293130e+00  -3.4022399445573019e+00  -3.3182800813990050e+00  -3.0245422979035075e+00  -2.6325047157144486e+00  -2.1971439450676309e+00  -1.7399086303104885e+00  -1.2697199703594564e+00  -7.9107909664550680e-01  -3.0683310847323242e-01  1.8082052668296453e-01  6.6993746322728198e-01  1.1586466476416368e+00  1.6450382746575096e+00  2.1270390094282714e+00  2.6021849712140046e+00  3.0671114921681721e+00  3.5163084020894684e+00  3.9389913156579985e+00  4.3114527327046455e+00  4.5809653047346552e+00  4.6497100031129381e+00  -3.1388923332278247e+00  -3.0887935924126988e+00  -2.8679891967603508e+00  -2.5344963023195977e+00  -2.1366978322165906e+00  -1.7024866076167271e+00  -1.2465474376378201e+00  -7.7697934812982050e-01  -2.9878027092426018e-01  1.8451030608316465e-01  6.7001905080255020e-01  1.1551165938560715e+00  1.6371298019905902e+00  2.1130419082231398e+00  2.5790313872641750e+00  3.0296139331538066e+00  3.4559565796194804e+00  3.8426470492860960e+00  4.1622417786310901e+00  4.3694047887372909e+00  4.4090120875658245e+00  -2.8900763259012563e+00  -2.8550760993735946e+00  -2.6817937586466023e+00  -2.3994859902791910e+00  -2.0431728047698305e+00  -1.6391273010543423e+00  -1.2044245291881321e+00  -7.4989024766430656e-01  -2.8269952327938264e-01  1.9197022312335207e-01  6.6996219916507460e-01  1.1475319391491379e+00  1.6208930128285446e+00  2.0857574485526587e+00  2.5367167011394556e+00  2.9662745155814223e+00  3.3633047742735016e+00  3.7108060595219543e+00  3.9835111032537829e+00  4.1482792933338022e+00  4.1763302048690543e+00  -2.6568606932299557e+00  -2.6298098029365558e+00  -2.4877577066865624e+00  -2.2457104091814699e+00  -1.9277122435983121e+00  -1.5555420874370485e+00  -1.1458585561295254e+00  -7.1068833897439332e-01  -2.5877059750916914e-01  2.0322463782888606e-01  6.6979379503574710e-01  1.1359400502017865e+00  1.5966344871135734e+00  2.0462797657983831e+00  2.4780652404209005e+00  2.8831164398281701e+00  3.2494076742354165e+00  3.5606391161533781e+00  3.7958993110043715e+00  3.9322277347426904e+00  3.9545931535500984e+00  -2.4407551651150992e+00  -2.4185067151141562e+00  -2.2978569639301107e+00  -2.0866918186155901e+00  -1.8015302909668682e+00  -1.4596078829893671e+00  -1.0758668165927843e+00  -6.6234478145122000e-01  -2.2859644128464740e-01  2.1760118264869088e-01  6.6956727079982314e-01  1.1211280580186649e+00  1.5660911828954649e+00  1.9977269424502604e+00  2.4082045761529778e+00  2.7879669705074694e+00  3.1251199527722160e+00  3.4051142657385527e+00  3.6113635161866862e+00  3.7279874860450111e+00  3.7469548417599343e+00  -2.2433604317126643e+00  -2.2243095016261134e+00  -2.1189724923813320e+00  -1.9315428640082963e+00  -1.6736559449938682e+00  -1.3588453451846436e+00  -1.0000485832205777e+00  -6.0866885952736305e-01  -1.9448633249247363e-01  2.3403897217814859e-01  6.6933321966521497e-01  1.1042567674814106e+00  1.5316637074498876e+00  1.9439689359602728e+00  2.3327203511889176e+00  2.6882079835189723e+00  2.9992169528021226e+00  3.2531561385415242e+00  3.4369613950488502e+00  3.5393834196712137e+00  3.5560498381716243e+00  -2.0661355867438731e+00  -2.0493549466126959e+00  -1.9553558810035507e+00  -1.7863333806304704e+00  -1.5507883825563036e+00  -1.2594828004359890e+00  -9.2352544871985165e-01  -5.5344753866431906e-01  -1.5888867645182597e-01  2.5135921661592264e-01  6.6912741131637332e-01  1.0865708429349035e+00  1.4958469262169161e+00  1.8888004723640961e+00  2.2566822725254791e+00  2.5899525269956380e+00  2.8782660472339718e+00  3.1107965762541534e+00  3.2771182307939073e+00  3.3689669907404114e+00  3.3839649515337316e+00  -1.9103160702314146e+00  -1.8952138968412533e+00  -1.8098007265837273e+00  -1.6551493106358939e+00  -1.4377369141782039e+00  -1.1663282666518642e+00  -8.5053051959282633e-01  -4.9999716934756189e-01  -1.2404525795452144e-01  2.6844692609765558e-01  6.6896943298692557e-01  1.0692183792989134e+00  1.4608972646045089e+00  1.8355224737667375e+00  2.1842727426808177e+00  2.4979348657382867e+00  2.7670192718799034e+00  2.9821402376188981e+00  3.1347723999677140e+00  3.2185844814642000e+00  3.2323316596738532e+00  -1.7768997032383136e+00  -1.7630659892013467e+00  -1.6842153856996220e+00  -1.5407740522206472e+00  -1.3378997134194093e+00  -1.0829457577538515e+00  -7.8435468523298113e-01  -4.5100515503050920e-01  -9.1832838733016883e-02  2.8434552920220241e-01  6.6886594081495654e-01  1.0531646890640822e+00  1.4286872929359011e+00  1.7867999738008282e+00  2.1187440448251067e+00  2.4156780273709075e+00  2.6688582471398301e+00  2.8700106368934111e+00  3.0119511239413441e+00  3.0896112833727405e+00  3.1024126215177112e+00  -1.6666607886039868e+00  -1.6537904476672995e+00  -1.5799247940108763e+00  -1.4451133980945059e+00  -1.2536490538296876e+00  -1.0119026847863368e+00  -7.2744878939148094e-01  -4.0853383104993118e-01  -6.3726927663034047e-02  2.9828846255091279e-01  6.6881484826796012e-01  1.0391694712802912e+00  1.4006785627013378e+00  1.7446730031364928e+00  2.0625206472231095e+00  2.3457303401311331e+00  2.5861606397244583e+00  2.7763610129713996e+00  2.9100783623016953e+00  2.9830734873945248e+00  2.9951698751505673e+00  -1.5801751466260681e+00  -1.5680260053590525e+00  -1.4978447563877328e+00  -1.3694641126561118e+00  -1.1866148898745401e+00  -9.5499973859597898e-01  -6.8157228085754273e-01  -3.7409630920197490e-01  -4.0829931118954950e-02  3.0969404325355171e-01  6.6880885223956021e-01  1.0277986897852898e+00  1.3779552343706802e+00  1.7106348726615570e+00  2.0173452473457827e+00  2.2898872812851851e+00  2.5205735364097621e+00  2.7025370967455067e+00  2.8301543012891690e+00  2.8997253876396871e+00  2.9113197689927426e+00  -1.5178476781257728e+00  -1.5062159132904240e+00  -1.4385909788664013e+00  -1.3146875486145304e+00  -1.1378858905298681e+00  -9.1345655040906915e-01  -6.4793678413981404e-01  -3.4875137319448951e-01  -2.3924098179837157e-02  3.1814387194130739e-01  6.6883789221018719e-01  1.0194506256273015e+00  1.3612800090299402e+00  1.6857275211908831e+00  1.9844196082480594e+00  2.2493718058473138e+00  2.4732088918980399e+00  2.6494484635954989e+00  2.7728684649354700e+00  2.8401053647964090e+00  2.8513780586945523e+00  -1.4799375026067161e+00  -1.4686424275873231e+00  -1.4025502401888830e+00  -1.2813227984379223e+00  -1.1081475574911741e+00  -8.8804960974056224e-01  -6.2732350692861027e-01  -3.3319018449317822e-01  -1.3526031205747021e-02  3.2335773044303623e-01  6.6889064716496927e-01  1.0143835642929908e+00  1.3511500357170334e+00  1.6706278390862055e+00  1.9645196986765070e+00  2.2249688175696809e+00  2.4447786038125434e+00  2.6176810564437272e+00  2.7386741326289128e+00  2.8045776256330988e+00  2.8156961232405910e+00  -1.4665774134378100e+00  -1.4554514558899543e+00  -1.3899259390739496e+00  -1.2696581045000785e+00  -1.0977719006264655e+00  -8.7920608862482386e-01  -6.2016768437994874e-01  -3.2780243888469629e-01  -9.9306986437198135e-03  3.2517225992213694e-01  6.6895532434902327e-01  1.0127383887759025e+00  1.3478413473417592e+00  1.6657130875827313e+00  1.9580783330779787e+00  2.2171167373228542e+00  2.4356825493244920e+00  2.6075687531981080e+00  2.7278365877719764e+00  2.7933621045879842e+00  2.8044880621358441e+00  -1.4777854745425614e+00  -1.4666669769350720e+00  -1.4007634839308882e+00  -1.2797704077457019e+00  -1.1068679551145171e+00  -8.8705816887165290e-01  -6.2660904997847600e-01  -3.3271719038816999e-01  -1.3239387018998447e-02  3.2352708440505024e-01  6.6902000153308161e-01  1.0145529182550119e+00  1.3514366799037927e+00  1.6711008331912149e+00  1.9652341556266399e+00  2.2259602584385951e+00  2.4460582061892091e+00  2.6192334471359566e+00  2.7404608888869286e+00  2.8065530762853719e+00  2.8178481513047671e+00  -1.5134674099965224e+00  -1.5021947160983813e+00  -1.4349578162374501e+00  -1.3115378148974699e+00  -1.1352982432000169e+00  -9.1146115714928999e-01  -6.4650895955003085e-01  -3.4781687249285026e-01  -2.3369360331899788e-02  3.1846002307074794e-01  6.6907275648787246e-01  1.0197667767567504e+00  1.3618347468778897e+00  1.6866620218925352e+00  1.9858474328378612e+00  2.2513671991071162e+00  2.4757965392279191e+00  2.6525981973125772e+00  2.7765016275644658e+00  2.8441265619885026e+00  2.8557583268238460e+00  -1.5734091202946980e+00  -1.5618147389416397e+00  -1.4922436525911269e+00  -1.3646264480474624e+00  -1.1826628877117227e+00  -9.5197663258715481e-01  -6.7943459864774203e-01  -3.7272422396351201e-01  -4.0044585672624151e-02  3.1011195891277193e-01  6.6910179645851486e-01  1.0282166054445272e+00  1.3787405798170258e+00  1.7120069579000345e+00  2.0194829295556023e+00  2.2929103872940386e+00  2.5245255385726115e+00  2.7073747613541834e+00  2.8357554050858025e+00  2.9059366540571210e+00  2.9180857953241364e+00  -1.6572592264525117e+00  -1.6451628386964714e+00  -1.5721677136036418e+00  -1.4384503642733488e+00  -1.2482499910264047e+00  -1.0078196914330830e+00  -7.2460999852505248e-01  -4.0676235443843034e-01  -6.2767914003264078e-02  2.9874117741778733e-01  6.6909580043012995e-01  1.0396221861471804e+00  1.4016375763611233e+00  1.7464444797480065e+00  2.0653594380895530e+00  2.3498133334844051e+00  2.5915597025277664e+00  2.7830240467925820e+00  2.9178354427089412e+00  2.9917010963653610e+00  3.0045714373020500e+00  -1.7645019728196309e+00  -1.7517006346746620e+00  -1.6740404752432660e+00  -1.5320999881953377e+00  -1.3309475984417498e+00  -1.0777673786728261e+00  -7.8083339612702152e-01  -4.4888932510273782e-01  -9.0776644237799284e-02  2.8474595963402366e-01  6.6904470788315751e-01  1.0535651194959132e+00  1.4297434874311328e+00  1.7889158037286226e+00  2.1222653339310913e+00  2.4208564064519580e+00  2.6758103621175047e+00  2.8786847009187291e+00  3.0221260343977012e+00  3.1009766378994166e+00  3.1148103519363817e+00  -1.8944210109757429e+00  -1.8806738327660986e+00  -1.7968617512696086e+00  -1.6442295889207963e+00  -1.4291086231817980e+00  -1.1600242170401776e+00  -8.4636209398270601e-01  -4.9761182506862056e-01  -1.2298661590637672e-01  2.6869226939922769e-01  6.6894121571122100e-01  1.0694637226004955e+00  1.4619559066526715e+00  1.8379078180457136e+00  2.1884411682909763e+00  2.5042389153500033e+00  2.7756475628763253e+00  2.9930599593339959e+00  3.1477113752818195e+00  3.2331245455393356e+00  3.2482267189294860e+00  -2.0460543028356044e+00  -2.0310563420422900e+00  -1.9392075820957779e+00  -1.7728859275560249e+00  -1.5403553985358434e+00  -1.2520418782975000e+00  -9.1877162382733635e-01  -5.5088982366593808e-01  -1.5793627751874598e-01  2.5133980576327103e-01  6.6878323738181000e-01  1.0865514320822667e+00  1.4967993251500198e+00  1.8913581873625076e+00  2.2614360974180321e+00  2.5973934491341528e+00  2.8886990312544465e+00  3.1242440293285960e+00  3.2932665297016572e+00  3.3872655953107933e+00  3.4040462354419718e+00  -2.2181391894734768e+00  -2.2014727709730617e+00  -2.0990507463506969e+00  -1.9152454898433757e+00  -1.6613063041039640e+00  -1.3502973348208018e+00  -9.9480970249073730e-01  -6.0605828726208233e-01  -1.9375305875168672e-01  2.3365388121679662e-01  6.6857742903300055e-01  1.1038716765200729e+00  1.5323969811906992e+00  1.9465795082255770e+00  2.3379592319187799e+00  2.6967559938828285e+00  3.0115665936920406e+00  3.2694535127064448e+00  3.4568831410794592e+00  3.5622201503242348e+00  3.5812710804107848e+00  -2.4090441930617654e+00  -2.3900768373468444e+00  -2.2734528674885222e+00  -2.0672036170403829e+00  -1.7872093040740298e+00  -1.4500563218092697e+00  -1.0702939274547589e+00  -6.5981629375202955e-01  -2.2818053419722278e-01  2.1678259067958108e-01  6.6834337789842901e-01  1.1203094660495647e+00  1.5665070899829039e+00  2.0002554301494579e+00  2.4137774652910111e+00  2.7975185316875764e+00  3.1394409396650689e+00  3.4246024673137723e+00  3.6357676126282725e+00  3.7564173638123051e+00  3.7786658138132503e+00  -2.6166825048518993e+00  -2.5943170860444957e+00  -2.4579886623061706e+00  -2.2227284674551702e+00  -1.9114970255371972e+00  -1.5452057911299444e+00  -1.1401545917226541e+00  -7.0836911710011441e-01  -2.5872383841529750e-01  2.0197059849648966e-01  6.6811685366253803e-01  1.1346860108694010e+00  1.5966812462074556e+00  2.0485989876726642e+00  2.4837692048277820e+00  2.8934527361352957e+00  3.2656228922965460e+00  3.5836210578796832e+00  3.8256683553847530e+00  3.9677204516347384e+00  3.9947713419281348e+00  -2.8384195561708281e+00  -2.8103686446355769e+00  -2.6456004545555483e+00  -2.3728954108237179e+00  -2.0253941255752563e+00  -1.6283638668831693e+00  -1.1988060524411812e+00  -7.4784679985436553e-01  -2.8298236413024519e-01  1.9037870954916078e-01  6.6794844953323240e-01  1.1459404255749577e+00  1.6206101719776866e+00  2.0878008963626007e+00  2.5423351778864176e+00  2.9770379497526283e+00  3.3810834534680927e+00  3.7373966389774340e+00  4.0197044073448263e+00  4.1929867480718066e+00  4.2279869745994647e+00  -3.0711014388675748e+00  -3.0314941400390385e+00  -2.8243311299328355e+00  -2.5047364005878383e+00  -2.1180459309212161e+00  -1.6917032844555282e+00  -1.2411207385658785e+00  -7.7513125952483097e-01  -2.9921915329227405e-01  1.8279405484224390e-01  6.6789159789577146e-01  1.1534003426151600e+00  1.6366909196225783e+00  2.1148899968281283e+00  2.5844580863361313e+00  3.0403972563150328e+00  3.4746084809148847e+00  3.8724069510178634e+00  4.2058998454585961e+00  4.4267042411109330e+00  4.4768029819260580e+00  -3.3117993544146738e+00  -3.2430546560363802e+00  -2.9735420840063758e+00  -2.6010806669597222e+00  -2.1783977533911965e+00  -1.7292008434698871e+00  -1.2642743225157034e+00  -7.8912836072995252e-01  -3.0712762595918985e-01  1.7926400105668713e-01  6.6797318547104967e-01  1.1570901220153671e+00  1.6447437571715606e+00  2.1289897453438233e+00  2.6076306190577765e+00  3.0778192790088004e+00  3.5350545937659303e+00  3.9704153644127254e+00  4.3624529466017661e+00  4.6561907300972543e+00  4.7401505932555645e+00  -3.5594884961310513e+00  -3.4089607478280151e+00  -3.0617894900092599e+00  -2.6456906691546331e+00  -2.2010912450438020e+00  -1.7409337550707624e+00  -1.2703584733853954e+00  -7.9220789077771936e-01  -3.0856617242911794e-01  1.7877268544733857e-01  6.6814266619936513e-01  1.1579425694985002e+00  1.6466080912380336e+00  2.1325926161655251e+00  2.6143364288053079e+00  3.0901899100072798e+00  3.5581876382201774e+00  4.0152432105468296e+00  4.4537145634602071e+00  4.8437977351645083e+00  5.0153128520713839e+00  -3.7030790741045143e+00  -3.4527920415326108e+00  -3.0674140001112780e+00  -2.6432405963617938e+00  -2.1979393309012174e+00  -1.7384154306470652e+00  -1.2685298022429203e+00  -7.9094775388698424e-01  -3.0777231560036378e-01  1.7916992938567980e-01  6.6819289054334852e-01  1.1576869311192683e+00  1.6460882969178781e+00  2.1318603320858878e+00  2.6134698126569185e+00  3.0893363177244884e+00  3.5577041402111909e+00  4.0162712661091362e+00  4.4607768701530439e+00  4.8775290892738719e+00  5.2535340299076045e+00  </DataArray> 
</PointData> 
</Piece>
</UnstructuredGrid>
</VTKFile>