<?xml version="1.0"?>
<VTKFile type="UnstructuredGrid"  version="0.1"  >
<UnstructuredGrid>
<Piece  NumberOfPoints="651" NumberOfCells="1200">
<Points>
<DataArray  type="Float64"  NumberOfComponents="3"  format="ascii">0 0 0  50000 0 0  100000 0 0  150000 0 0  200000 0 0  250000 0 0  300000 0 0  350000 0 0  400000 0 0  450000 0 0  500000 0 0  550000 0 0  600000 0 0  650000 0 0  700000 0 0  750000 0 0  800000 0 0  850000 0 0  900000 0 0  950000 0 0  1000000 0 0  0 50000 0  50000 50000 0  100000 50000 0  150000 50000 0  200000 50000 0  250000 50000 0  300000 50000 0  350000 50000 0  400000 50000 0  450000 50000 0  500000 50000 0  550000 50000 0  600000 50000 0  650000 50000 0  700000 50000 0  750000 50000 0  800000 50000 0  850000 50000 0  900000 50000 0  950000 50000 0  1000000 50000 0  0 100000 0  50000 100000 0  100000 100000 0  150000 100000 0  200000 100000 0  250000 100000 0  300000 100000 0  350000 100000 0  400000 100000 0  450000 100000 0  500000 100000 0  550000 100000 0  600000 100000 0  650000 100000 0  700000 100000 0  750000 100000 0  800000 100000 0  850000 100000 0  900000 100000 0  950000 100000 0  1000000 100000 0  0 150000 0  50000 150000 0  100000 150000 0  150000 150000 0  200000 150000 0  250000 150000 0  300000 150000 0  350000 150000 0  400000 150000 0  450000 150000 0  500000 150000 0  550000 150000 0  600000 150000 0  650000 150000 0  700000 150000 0  750000 150000 0  800000 150000 0  850000 150000 0  900000 150000 0  950000 150000 0  1000000 150000 0  0 200000 0  50000 200000 0  100000 200000 0  150000 200000 0  200000 200000 0  250000 200000 0  300000 200000 0  350000 200000 0  400000 200000 0  450000 200000 0  500000 200000 0  550000 200000 0  600000 200000 0  650000 200000 0  700000 200000 0  750000 200000 0  800000 200000 0  850000 200000 0  900000 200000 0  950000 200000 0  1000000 200000 0  0 250000 0  50000 250000 0  100000 250000 0  150000 250000 0  200000 250000 0  250000 250000 0  300000 250000 0  350000 250000 0  400000 250000 0  450000 250000 0  500000 250000 0  550000 250000 0  600000 250000 0  650000 250000 0  700000 250000 0  750000 250000 0  800000 250000 0  850000 250000 0  900000 250000 0  950000 250000 0  1000000 250000 0  0 300000 0  50000 300000 0  100000 300000 0  150000 300000 0  200000 300000 0  250000 300000 0  300000 300000 0  350000 300000 0  400000 300000 0  450000 300000 0  500000 300000 0  550000 300000 0  600000 300000 0  650000 300000 0  700000 300000 0  750000 300000 0  800000 300000 0  850000 300000 0  900000 300000 0  950000 300000 0  1000000 300000 0  0 350000 0  50000 350000 0  100000 350000 0  150000 350000 0  200000 350000 0  250000 350000 0  300000 350000 0  350000 350000 0  400000 350000 0  450000 350000 0  500000 350000 0  550000 350000 0  600000 350000 0  650000 350000 0  700000 350000 0  750000 350000 0  800000 350000 0  850000 350000 0  900000 350000 0  950000 350000 0  1000000 350000 0  0 400000 0  50000 400000 0  100000 400000 0  150000 400000 0  200000 400000 0  250000 400000 0  300000 400000 0  350000 400000 0  400000 400000 0  450000 400000 0  500000 400000 0  550000 400000 0  600000 400000 0  650000 400000 0  700000 400000 0  750000 400000 0  800000 400000 0  850000 400000 0  900000 400000 0  950000 400000 0  1000000 400000 0  0 450000 0  50000 450000 0  100000 450000 0  150000 450000 0  200000 450000 0  250000 450000 0  300000 450000 0  350000 450000 0  400000 450000 0  450000 450000 0  500000 450000 0  550000 450000 0  600000 450000 0  650000 450000 0  700000 450000 0  750000 450000 0  800000 450000 0  850000 450000 0  900000 450000 0  950000 450000 0  1000000 450000 0  0 500000 0  50000 500000 0  100000 500000 0  150000 500000 0  200000 500000 0  250000 500000 0  300000 500000 0  350000 500000 0  400000 500000 0  450000 500000 0  500000 500000 0  550000 500000 0  600000 500000 0  650000 500000 0  700000 500000 0  750000 500000 0  800000 500000 0  850000 500000 0  900000 500000 0  950000 500000 0  1000000 500000 0  0 550000 0  50000 550000 0  100000 550000 0  150000 550000 0  200000 550000 0  250000 550000 0  300000 550000 0  350000 550000 0  400000 550000 0  450000 550000 0  500000 550000 0  550000 550000 0  600000 550000 0  650000 550000 0  700000 550000 0  750000 550000 0  800000 550000 0  850000 550000 0  900000 550000 0  950000 550000 0  1000000 550000 0  0 600000 0  50000 600000 0  100000 600000 0  150000 600000 0  200000 600000 0  250000 600000 0  300000 600000 0  350000 600000 0  400000 600000 0  450000 600000 0  500000 600000 0  550000 600000 0  600000 600000 0  650000 600000 0  700000 600000 0  750000 600000 0  800000 600000 0  850000 600000 0  900000 600000 0  950000 600000 0  1000000 600000 0  0 650000 0  50000 650000 0  100000 650000 0  150000 650000 0  200000 650000 0  250000 650000 0  300000 650000 0  350000 650000 0  400000 650000 0  450000 650000 0  500000 650000 0  550000 650000 0  600000 650000 0  650000 650000 0  700000 650000 0  750000 650000 0  800000 650000 0  850000 650000 0  900000 650000 0  950000 650000 0  1000000 650000 0  0 700000 0  50000 700000 0  100000 700000 0  150000 700000 0  200000 700000 0  250000 700000 0  300000 700000 0  350000 700000 0  400000 700000 0  450000 700000 0  500000 700000 0  550000 700000 0  600000 700000 0  650000 700000 0  700000 700000 0  750000 700000 0  800000 700000 0  850000 700000 0  900000 700000 0  950000 700000 0  1000000 700000 0  0 750000 0  50000 750000 0  100000 750000 0  150000 750000 0  200000 750000 0  250000 750000 0  300000 750000 0  350000 750000 0  400000 750000 0  450000 750000 0  500000 750000 0  550000 750000 0  600000 750000 0  650000 750000 0  700000 750000 0  750000 750000 0  800000 750000 0  850000 750000 0  900000 750000 0  950000 750000 0  1000000 750000 0  0 800000 0  50000 800000 0  100000 800000 0  150000 800000 0  200000 800000 0  250000 800000 0  300000 800000 0  350000 800000 0  400000 800000 0  450000 800000 0  500000 800000 0  550000 800000 0  600000 800000 0  650000 800000 0  700000 800000 0  750000 800000 0  800000 800000 0  850000 800000 0  900000 800000 0  950000 800000 0  1000000 800000 0  0 850000 0  50000 850000 0  100000 850000 0  150000 850000 0  200000 850000 0  250000 850000 0  300000 850000 0  350000 850000 0  400000 850000 0  450000 850000 0  500000 850000 0  550000 850000 0  600000 850000 0  650000 850000 0  700000 850000 0  750000 850000 0  800000 850000 0  850000 850000 0  900000 850000 0  950000 850000 0  1000000 850000 0  0 900000 0  50000 900000 0  100000 900000 0  150000 900000 0  200000 900000 0  250000 900000 0  300000 900000 0  350000 900000 0  400000 900000 0  450000 900000 0  500000 900000 0  550000 900000 0  600000 900000 0  650000 900000 0  700000 900000 0  750000 900000 0  800000 900000 0  850000 900000 0  900000 900000 0  950000 900000 0  1000000 900000 0  0 950000 0  50000 950000 0  100000 950000 0  150000 950000 0  200000 950000 0  250000 950000 0  300000 950000 0  350000 950000 0  400000 950000 0  450000 950000 0  500000 950000 0  550000 950000 0  600000 950000 0  650000 950000 0  700000 950000 0  750000 950000 0  800000 950000 0  850000 950000 0  900000 950000 0  950000 950000 0  1000000 950000 0  0 1000000 0  50000 1000000 0  100000 1000000 0  150000 1000000 0  200000 1000000 0  250000 1000000 0  300000 1000000 0  350000 1000000 0  400000 1000000 0  450000 1000000 0  500000 1000000 0  550000 1000000 0  600000 1000000 0  650000 1000000 0  700000 1000000 0  750000 1000000 0  800000 1000000 0  850000 1000000 0  900000 1000000 0  950000 1000000 0  1000000 1000000 0  0 1050000 0  50000 1050000 0  100000 1050000 0  150000 1050000 0  200000 1050000 0  250000 1050000 0  300000 1050000 0  350000 1050000 0  400000 1050000 0  450000 1050000 0  500000 1050000 0  550000 1050000 0  600000 1050000 0  650000 1050000 0  700000 1050000 0  750000 1050000 0  800000 1050000 0  850000 1050000 0  900000 1050000 0  950000 1050000 0  1000000 1050000 0  0 1100000 0  50000 1100000 0  100000 1100000 0  150000 1100000 0  200000 1100000 0  250000 1100000 0  300000 1100000 0  350000 1100000 0  400000 1100000 0  450000 1100000 0  500000 1100000 0  550000 1100000 0  600000 1100000 0  650000 1100000 0  700000 1100000 0  750000 1100000 0  800000 1100000 0  850000 1100000 0  900000 1100000 0  950000 1100000 0  1000000 1100000 0  0 1150000 0  50000 1150000 0  100000 1150000 0  150000 1150000 0  200000 1150000 0  250000 1150000 0  300000 1150000 0  350000 1150000 0  400000 1150000 0  450000 1150000 0  500000 1150000 0  550000 1150000 0  600000 1150000 0  650000 1150000 0  700000 1150000 0  750000 1150000 0  800000 1150000 0  850000 1150000 0  900000 1150000 0  950000 1150000 0  1000000 1150000 0  0 1200000 0  50000 1200000 0  100000 1200000 0  150000 1200000 0  200000 1200000 0  250000 1200000 0  300000 1200000 0  350000 1200000 0  400000 1200000 0  450000 1200000 0  500000 1200000 0  550000 1200000 0  600000 1200000 0  650000 1200000 0  700000 1200000 0  750000 1200000 0  800000 1200000 0  850000 1200000 0  900000 1200000 0  950000 1200000 0  1000000 1200000 0  0 1250000 0  50000 1250000 0  100000 1250000 0  150000 1250000 0  200000 1250000 0  250000 1250000 0  300000 1250000 0  350000 1250000 0  400000 1250000 0  450000 1250000 0  500000 1250000 0  550000 1250000 0  600000 1250000 0  650000 1250000 0  700000 1250000 0  750000 1250000 0  800000 1250000 0  850000 1250000 0  900000 1250000 0  950000 1250000 0  1000000 1250000 0  0 1300000 0  50000 1300000 0  100000 1300000 0  150000 1300000 0  200000 1300000 0  250000 1300000 0  300000 1300000 0  350000 1300000 0  400000 1300000 0  450000 1300000 0  500000 1300000 0  550000 1300000 0  600000 1300000 0  650000 1300000 0  700000 1300000 0  750000 1300000 0  800000 1300000 0  850000 1300000 0  900000 1300000 0  950000 1300000 0  1000000 1300000 0  0 1350000 0  50000 1350000 0  100000 1350000 0  150000 1350000 0  200000 1350000 0  250000 1350000 0  300000 1350000 0  350000 1350000 0  400000 1350000 0  450000 1350000 0  500000 1350000 0  550000 1350000 0  600000 1350000 0  650000 1350000 0  700000 135
[...]
<PointData  Scalars="f_25"> 
<DataArray  type="Float64"  Name="f_25"  format="ascii">-5.6794847904028591e+00  -5.1560982105175333e+00  -4.5755763957156885e+00  -3.9562255959170720e+00  -3.3171896483492098e+00  -2.6644293737044431e+00  -2.0011678140128901e+00  -1.3298631065154860e+00  -6.5272743144513312e-01  2.8093544660763609e-02  7.1044963105525871e-01  1.3921528504290526e+00  2.0709510288209461e+00  2.7444848523343048e+00  3.4101979023738851e+00  4.0651454462454950e+00  4.7055916904683404e+00  5.3261160976615960e+00  5.9170115738641265e+00  6.4535108489648412e+00  6.8015682084909148e+00  -5.3476941368744582e+00  -5.1092838498679347e+00  -4.5657833146120188e+00  -3.9547599522251193e+00  -3.3177855218722012e+00  -2.6655188132291601e+00  -2.0022660810392536e+00  -1.3307721713696112e+00  -6.5334261734639731e-01  2.7841907989909181e-02  7.1061874030304240e-01  1.3928003906053872e+00  2.0721477934397301e+00  2.7463313498146529e+00  3.4128427202365836e+00  4.0687682310591820e+00  4.7101346164176352e+00  5.3297573625388077e+00  5.9095495394792952e+00  6.3930473699961237e+00  6.6020248757333277e+00  -4.9645753581896201e+00  -4.8481105526720931e+00  -4.4389273031283025e+00  -3.8925445934306615e+00  -3.2857217009591766e+00  -2.6483836769426352e+00  -1.9929699963269123e+00  -1.3257560921261773e+00  -6.5071275588579480e-01  2.9093545463346991e-02  7.1094834226459624e-01  1.3922388730884123e+00  2.0702981998622882e+00  2.7422314787046416e+00  3.4045995299642384e+00  4.0527070333320836e+00  4.6788650940389784e+00  5.2680225366264049e+00  5.7870851459156940e+00  6.1624464938863861e+00  6.2576019209107994e+00  -4.5979215127904585e+00  -4.5285847473206040e+00  -4.2210740360471934e+00  -3.7562835148039171e+00  -3.2017617246591099e+00  -2.5964457461543029e+00  -1.9608236861291373e+00  -1.3061903923822114e+00  -6.3951493101715506e-01  3.4266797602589834e-02  7.1114704400538908e-01  1.3874577277435851e+00  2.0594695163301879e+00  2.7229738684956306e+00  3.3726399231367017e+00  4.0008171991684076e+00  4.5951821686074190e+00  5.1342272869648600e+00  5.5796479453642247e+00  5.8681625845969956e+00  5.9228820058546905e+00  -4.2515039392820837e+00  -4.2031574861711176e+00  -3.9618813996163937e+00  -3.5684369536658984e+00  -3.0717137100453087e+00  -2.5083933382491788e+00  -1.9023078654988814e+00  -1.2685610381625274e+00  -6.1716040612125389e-01  4.4673666468202505e-02  7.1114422808270761e-01  1.3770291181382346e+00  2.0370474011454953e+00  2.6852183779255898e+00  3.3139978885238035e+00  3.9129284064463281e+00  4.4664858453573455e+00  4.9509436198243817e+00  5.3310336519235912e+00  5.5604988370940971e+00  5.5992244310339352e+00  -3.9268014755977094e+00  -3.8894931663526440e+00  -3.6917333473580403e+00  -3.3544035842281854e+00  -2.9110703816824106e+00  -2.3921435495732126e+00  -1.8208786581678762e+00  -1.2140597335676853e+00  -5.8387928773928344e-01  6.0358827934493542e-02  7.1097865153138740e-01  1.3610112035059954e+00  2.0034425617683511e+00  2.6304654618823391e+00  3.2325792302756700e+00  3.7974023317195895e+00  4.3081536701546286e+00  4.7420835814496085e+00  5.0700016303389353e+00  5.2598602198715838e+00  5.2907300707867835e+00  -3.6259122508183999e+00  -3.5952658834526896e+00  -3.4273196303801066e+00  -3.1330272170542464e+00  -2.7354498543576544e+00  -2.2586560217994753e+00  -1.7235082484708013e+00  -1.1468091964847749e+00  -5.4189204651849587e-01  8.0393004244708313e-02  7.1072646481675039e-01  1.3404967256262257e+00  1.9610661807959489e+00  2.5630470597147732e+00  3.1355143637113461e+00  3.6651325405761419e+00  4.1353020638405367e+00  4.5257142197530928e+00  4.8132134747863047e+00  4.9756340264201624e+00  5.0018094184782198e+00  -3.3510645915937807e+00  -3.3248504072582068e+00  -3.1782289296764494e+00  -2.9170087307176522e+00  -2.5574340639900854e+00  -2.1184063493039775e+00  -1.6179915836660232e+00  -1.0721092279911180e+00  -4.9440947002303220e-01  1.0330250610712906e-01  7.1045969895391747e-01  1.3171016761307845e+00  1.9132593311067778e+00  2.4883502283507806e+00  3.0305810199621330e+00  3.5264011919956868e+00  3.9601572913331786e+00  4.3142715748156535e+00  4.5705031936428790e+00  4.7131488725352773e+00  4.7361425912371384e+00  -3.1042915201359991e+00  -3.0812221054858604e+00  -2.9503858555699711e+00  -2.7148088893836131e+00  -2.3863608474364604e+00  -1.9800744286694201e+00  -1.5114641656172279e+00  -9.9523416977754431e-01  -4.4484038134735321e-01  1.2744704300146412e-01  7.1022936830751326e-01  1.2925604041889347e+00  1.8634975718998166e+00  2.4116615542525079e+00  2.9248428899797601e+00  3.3897268665895171e+00  3.7918720194420930e+00  4.1161621776395316e+00  4.3480376141923855e+00  4.4759605715542259e+00  4.4966435793524360e+00  -2.8873155282120853e+00  -2.8665693876452569e+00  -2.7476837464325690e+00  -2.5321237502790361e+00  -2.2289350720718990e+00  -1.8503628220799637e+00  -1.4098262132533825e+00  -9.2080555247547580e-01  -3.9630813663462516e-01  1.5127373325047011e-01  7.1006358247050383e-01  1.2684734610053467e+00  1.8149259134277094e+00  2.3375818354128497e+00  2.8241296766040178e+00  3.2617089254444958e+00  3.6370707003543279e+00  3.9371080354867232e+00  4.1499128261018026e+00  4.2666438285244359e+00  4.2855910491177394e+00  -2.7015285621721783e+00  -2.6825365486706922e+00  -2.5727827982429594e+00  -2.3728341122190373e+00  -2.0898950822997846e+00  -1.7342410135266748e+00  -1.3176659997991915e+00  -8.5256980189569953e-01  -3.5142867398332900e-01  1.7344961254673100e-01  7.0997216310355782e-01  1.2461870123205714e+00  1.7701552659962272e+00  2.2698268296564659e+00  2.7329760384134190e+00  3.1472597391926764e+00  3.5004687403324461e+00  3.7810465098439376e+00  3.9789561875933117e+00  4.0871181996100585e+00  4.1047495447322371e+00  -2.5480112770820509e+00  -2.5303497696360444e+00  -2.4275304480373450e+00  -2.2395976178873767e+00  -1.9725492645911107e+00  -1.6352895341028859e+00  -1.2384013293798546e+00  -7.9340270407534930e-01  -3.1225926240312574e-01  1.9290611031797616e-01  7.0995257699337044e-01  1.2267607700438778e+00  1.7312240425781922e+00  2.2112416919154945e+00  2.6547633765833480e+00  3.0499336397869201e+00  3.3853827004404344e+00  3.6507025299953457e+00  3.8371549622112591e+00  3.9388170346147398e+00  3.9554645783199271e+00  -2.4275676142371410e+00  -2.4109002106609192e+00  -2.3132039978312635e+00  -2.1342229204588588e+00  -1.8791710903038941e+00  -1.5560200195256237e+00  -1.1744862418001969e+00  -7.4541459318348258e-01  -2.8033728806251379e-01  2.0883218888514599e-01  7.0999492697641964e-01  1.2109844116138397e+00  1.6996447136211064e+00  2.1639096533764004e+00  2.5919229220079925e+00  2.9722356967814396e+00  3.2941109462054339e+00  3.5479544689400635e+00  3.7259060554154506e+00  3.8227950650450113e+00  3.8387390222687054e+00  -2.3407629592156094e+00  -2.3248064176608740e+00  -2.2306623194564912e+00  -2.0579115055208805e+00  -1.8112791773870862e+00  -1.4981337981715275e+00  -1.1276108709525099e+00  -7.1008233567721490e-01  -2.5675379648322388e-01  2.2064441061509257e-01  7.1008543040046324e-01  1.1994138176555398e+00  1.6764815838775802e+00  2.1292846671992223e+00  2.5461317573482183e+00  2.9158727894929495e+00  3.2282057991115547e+00  3.4740726839355891e+00  3.6461733233318023e+00  3.7398059477859085e+00  3.7552957493645760e+00  -2.2879589713566966e+00  -2.2724621459940910e+00  -2.1804448436924417e+00  -2.0114152626120725e+00  -1.7698297021624465e+00  -1.4627140203789304e+00  -1.0988649611715560e+00  -6.8837003736511682e-01  -2.4222933599011451e-01  2.2795204243907058e-01  7.1020853434086839e-01  1.1924096211827306e+00  1.6624286135531483e+00  2.1083115822673801e+00  2.5184731350962899e+00  2.8819408604926520e+00  3.1886616183604906e+00  3.4298761324077862e+00  3.5985910364354448e+00  3.6903601800066590e+00  3.7056279179745051e+00  -2.2693405435309848e+00  -2.2540705397596841e+00  -2.1628348932757953e+00  -1.9951359139005465e+00  -1.7553413240379512e+00  -1.4503563779294850e+00  -1.0888555069492847e+00  -6.8082118569361982e-01  -2.3717523906834226e-01  2.3052738216414037e-01  7.1034802773259120e-01  1.1901686733010315e+00  1.6578712945335128e+00  2.1015172411587861e+00  2.5095515624144489e+00  2.8710524333946528e+00  3.1760373795031134e+00  3.4158319693657186e+00  3.5835309487409637e+00  3.6747665952248574e+00  3.6900365989961652e+00  -2.2849318625093304e+00  -2.2696641245414888e+00  -2.1778949809702781e+00  -2.0091800769426196e+00  -1.7679655628953272e+00  -1.4612448050274929e+00  -1.0977770796311277e+00  -6.8761552680221805e-01  -2.4173255808798688e-01  2.2828643428244222e-01  7.1048752112431857e-01  1.1927440130261111e+00  1.6629253914552944e+00  2.1090660928302860e+00  2.5195610166367208e+00  2.8834100758441061e+00  3.1905257576276238e+00  3.4321113180772498e+00  3.6011408991576430e+00  3.6931582014593012e+00  3.7086550268219072e+00  -2.3345996938994000e+00  -2.3191098923207374e+00  -2.2254772678666401e+00  -2.0533766284704180e+00  -1.8075097436463976e+00  -1.4951767340277968e+00  -1.1254357018830643e+00  -7.0858861173406429e-01  -2.5578552841241142e-01  2.2128223780964573e-01  7.1061062506473738e-01  1.2000516448501077e+00  1.6774498519484164e+00  2.1307783911424001e+00  2.5483069264177014e+00  2.9188298536367228e+00  3.2319752328522857e+00  3.4786075609860738e+00  3.6513583749217209e+00  3.7455024731261295e+00  3.7614590146808564e+00  -2.4180429668035046e+00  -2.4020990095798047e+00  -2.3052099999502542e+00  -2.1272584134748631e+00  -1.8734148907402541e+00  -1.5515396413162774e+00  -1.1712268665428220e+00  -7.4321359791122643e-01  -2.7894865815591524e-01  2.0971164385136309e-01  7.1070112848880529e-01  1.2118638665800829e+00  1.7010333435277332e+00  2.1661106486486887e+00  2.5951822972654059e+00  2.9767160749908355e+00  3.2998671457691269e+00  3.5549189759240885e+00  3.7339000532964928e+00  3.8315962661261471e+00  3.8482636697023702e+00  -2.5347685228547148e+00  -2.5181209791495300e+00  -2.4164589067460520e+00  -2.2300064745301498e+00  -1.9646866449752400e+00  -1.6292375843217335e+00  -1.2340673211181574e+00  -7.9054563645029563e-01  -3.1052798711297686e-01  1.9393528542134814e-01  7.1074347847187436e-01  1.2277899451472736e+00  1.7329553178683712e+00  2.2140987595405770e+00  2.6590973848450790e+00  3.0559855895681038e+00  3.3932453200563488e+00  3.6602936733526086e+00  3.8482265035025551e+00  3.9510458251012484e+00  3.9687073325472610e+00  -2.6840534892669901e+00  -2.6664221441448155e+00  -2.5582601321280745e+00  -2.3603504543787088e+00  -2.0797726848672142e+00  -1.7265636837274458e+00  -1.3122799829481837e+00  -8.4913077419122851e-01  -3.4945921053097234e-01  1.7450904314469118e-01  7.1072389236171940e-01  1.2472464429185501e+00  1.7721247294486120e+00  2.2732658573609790e+00  2.7383620552644690e+00  3.1549370689919436e+00  3.5105911377650374e+00  3.7935301676842696e+00  3.9934788537081909e+00  4.1032326041359068e+00  4.1222246176373893e+00  -2.8648949936524430e+00  -2.8459477730591614e+00  -2.7292167706365253e+00  -2.5164119800214588e+00  -2.2163746448890622e+00  -1.8410128699792188e+00  -1.4034336211387417e+00  -9.1688577994757303e-01  -3.9422985796241122e-01  1.5222259445996592e-01  7.1063247299481902e-01  1.2694223222148595e+00  1.8170041920999527e+00  2.3415016079408102e+00  2.8305222687187133e+00  3.2710588775452809e+00  3.6496311275371882e+00  3.9528198057442943e+00  4.1683798018978155e+00  4.2872654431104857e+00  4.3080115836772963e+00  -3.0759475238871197e+00  -3.0552645160889194e+00  -2.9273415587270706e+00  -2.6954661221742238e+00  -2.3711759639767891e+00  -1.9690308111242005e+00  -1.5041468345144402e+00  -9.9096549878717044e-01  -4.4280151643446353e-01  1.2813565127642609e-01  7.1046668715786021e-01  1.2932490124639193e+00  1.8655364368127405e+00  2.4159302252429313e+00  2.9321602210826074e+00  3.4007704841347683e+00  3.8070569029017785e+00  4.1355049448489032e+00  4.3710819110352341e+00  4.5019181609511110e+00  4.5249875756012505e+00  -3.3154465357717942e+00  -3.2924528170699250e+00  -3.1498071381775317e+00  -2.8935755193503212e+00  -2.5394612358678321e+00  -2.1057051365303256e+00  -1.6098849644967608e+00  -1.0676541728853937e+00  -4.9256327564137992e-01  1.0359437933462297e-01  7.1023635651150074e-01  1.3173935493582967e+00  1.9151055254884601e+00  2.4928052834565357e+00  3.0386876391314255e+00  3.5391024047693556e+00  3.9781301194554417e+00  4.3377047861829698e+00  4.5989249851417426e+00  4.7455464627234916e+00  4.7717606470590654e+00  -3.5811133630128551e+00  -3.5549379709547999e+00  -3.3925174193209524e+00  -3.1050181642877348e+00  -2.7146060083751551e+00  -2.2444364851107408e+00  -1.7148183082459187e+00  -1.1423510042493288e+00  -5.4037012533049178e-01  8.0199329839235542e-02  7.0996959064871745e-01  1.3403030512207634e+00  1.9625881019839650e+00  2.5675052519502222e+00  3.1442043039362311e+00  3.6793520772648782e+00  4.1561459098230484e+00  4.5537232725196191e+00  4.8480156858454526e+00  5.0159619389180161e+00  5.0466083062837290e+00  -3.8700340153213806e+00  -3.8391641644061960e+00  -3.6493055748735332e+00  -3.3213875259841972e+00  -2.8874576146892039e+00  -2.3767062762541569e+00  -1.8118831748102044e+00  -1.2097694064168405e+00  -5.8274650630284686e-01  5.9684851959508373e-02  7.0971740393412486e-01  1.3603372275310219e+00  2.0045753432047952e+00  2.6347557890331781e+00  3.2415747136333497e+00  3.8128396050386737e+00  4.3317664371478513e+00  4.7750996396935967e+00  5.1124294028234223e+00  5.3101892218180291e+00  5.3474975310630830e+00  -4.1785283755684937e+00  -4.1398027816286609e+00  -3.9103375964581386e+00  -3.5302475643589299e+00  -3.0457897898918844e+00  -2.4922323509808644e+00  -1.8933018330583025e+00  -1.2645223224600595e+00  -6.1635134567996019e-01  4.3666937327301071e-02  7.0955182738283640e-01  1.3760223889973437e+00  2.0378564615867911e+00  2.6892570936280520e+00  3.3230039209643984e+00  3.9290893937146985e+00  4.4924097655107857e+00  4.9891330091313524e+00  5.3825774550818322e+00  5.6238535416365458e+00  5.6721999947475066e+00  -4.5021859503892117e+00  -4.4474665291315150e+00  -4.1589518898987450e+00  -3.7135312314993785e+00  -3.1744861131419375e+00  -2.5801211437029088e+00  -1.9519438676711702e+00  -1.3022778130300823e+00  -6.3877346086463038e-01  3.3238327721972903e-02  7.0954901146017424e-01  1.3864292578629771e+00  2.0602109864827094e+00  2.7268864478477566e+00  3.3815197415946887e+00  4.0171418016198510e+00  4.6224577801246394e+00  5.1769795702694106e+00  5.6417700915126652e+00  5.9492808027860642e+00  6.0186175682559160e+00  -4.8369058654453072e+00  -4.7417504384208735e+00  -4.3663890904501992e+00  -3.8473264811609056e+00  -3.2581690385734960e+00  -2.6320109778665799e+00  -1.9839034744987032e+00  -1.3215354232390804e+00  -6.4960214439672981e-01  2.8457182377154097e-02  7.0974771320098007e-01  1.3916025100022291e+00  2.0714088113513638e+00  2.7464521475917310e+00  3.4136660517924735e+00  4.0690797324081860e+00  4.7064177564247158e+00  5.3132406488961745e+00  5.8596233585937920e+00  6.2688066081375666e+00  6.3852714136551247e+00  -5.1813288202678436e+00  -4.9723513145306368e+00  -4.4888534840138394e+00  -3.9090613070733315e+00  -3.2894385609521519e+00  -2.6480721755936760e+00  -1.9921466647710440e+00  -1.3256352943490941e+00  -6.5145173797416289e-01  2.7895664860184646e-02  7.1007731516253336e-01  1.3928541474756702e+00  2.0740386728119722e+00  2.7514682268351804e+00  3.4229621365048168e+00  4.0862148686946957e+00  4.7384815773377369e+00  5.3754560076906364e+00  5.9864793700775367e+00  6.5299799053334331e+00  6.7683901923399619e+00  -5.3808721530254298e+00  -5.0328147934993508e+00  -4.4963155183986538e+00  -3.9054200421961127e+00  -3.2848956350028455e+00  -2.6444493907799864e+00  -1.9895018469083454e+00  -1.3237887968687503e+00  -6.5025497335537508e-01  2.8543205036522322e-02  7.1024642441032204e-01  1.3926025108048108e+00  2.0734234869107113e+00  2.7505591619810557e+00  3.4218638694784529e+00  4.0851254291699792e+00  4.7378857038147473e+00  5.3769216513826015e+00  5.9962724511811967e+00  6.5767942659830387e+00  7.1001808458683655e+00  </DataArray> 
</PointData> 
</Piece>
</UnstructuredGrid>
</VTKFile>