<?xml version="1.0"?>
<VTKFile type="UnstructuredGrid"  version="0.1"  >
<UnstructuredGrid>
<Piece  NumberOfPoints="651" NumberOfCells="1200">
<Points>
<DataArray  type="Float64"  NumberOfComponents="3"  format="ascii">0 0 0  50000 0 0  100000 0 0  150000 0 0  200000 0 0  250000 0 0  300000 0 0  350000 0 0  400000 0 0  450000 0 0  500000 0 0  550000 0 0  600000 0 0  650000 0 0  700000 0 0  750000 0 0  800000 0 0  850000 0 0  900000 0 0  950000 0 0  1000000 0 0  0 50000 0  50000 50000 0  100000 50000 0  150000 50000 0  200000 50000 0  250000 50000 0  300000 50000 0  350000 50000 0  400000 50000 0  450000 50000 0  500000 50000 0  550000 50000 0  600000 50000 0  650000 50000 0  700000 50000 0  750000 50000 0  800000 50000 0  850000 50000 0  900000 50000 0  950000 50000 0  1000000 50000 0  0 100000 0  50000 100000 0  100000 100000 0  150000 100000 0  200000 100000 0  250000 100000 0  300000 100000 0  350000 100000 0  400000 100000 0  450000 100000 0  500000 100000 0  550000 100000 0  600000 100000 0  650000 100000 0  700000 100000 0  750000 100000 0  800000 100000 0  850000 100000 0  900000 100000 0  950000 100000 0  1000000 100000 0  0 150000 0  50000 150000 0  100000 150000 0  150000 150000 0  200000 150000 0  250000 150000 0  300000 150000 0  350000 150000 0  400000 150000 0  450000 150000 0  500000 150000 0  550000 150000 0  600000 150000 0  650000 150000 0  700000 150000 0  750000 150000 0  800000 150000 0  850000 150000 0  900000 150000 0  950000 150000 0  1000000 150000 0  0 200000 0  50000 200000 0  100000 200000 0  150000 200000 0  200000 200000 0  250000 200000 0  300000 200000 0  350000 200000 0  400000 200000 0  450000 200000 0  500000 200000 0  550000 200000 0  600000 200000 0  650000 200000 0  700000 200000 0  750000 200000 0  800000 200000 0  850000 200000 0  900000 200000 0  950000 200000 0  1000000 200000 0  0 250000 0  50000 250000 0  100000 250000 0  150000 250000 0  200000 250000 0  250000 250000 0  300000 250000 0  350000 250000 0  400000 250000 0  450000 250000 0  500000 250000 0  550000 250000 0  600000 250000 0  650000 250000 0  700000 250000 0  750000 250000 0  800000 250000 0  850000 250000 0  900000 250000 0  950000 250000 0  1000000 250000 0  0 300000 0  50000 300000 0  100000 300000 0  150000 300000 0  200000 300000 0  250000 300000 0  300000 300000 0  350000 300000 0  400000 300000 0  450000 300000 0  500000 300000 0  550000 300000 0  600000 300000 0  650000 300000 0  700000 300000 0  750000 300000 0  800000 300000 0  850000 300000 0  900000 300000 0  950000 300000 0  1000000 300000 0  0 350000 0  50000 350000 0  100000 350000 0  150000 350000 0  200000 350000 0  250000 350000 0  300000 350000 0  350000 350000 0  400000 350000 0  450000 350000 0  500000 350000 0  550000 350000 0  600000 350000 0  650000 350000 0  700000 350000 0  750000 350000 0  800000 350000 0  850000 350000 0  900000 350000 0  950000 350000 0  1000000 350000 0  0 400000 0  50000 400000 0  100000 400000 0  150000 400000 0  200000 400000 0  250000 400000 0  300000 400000 0  350000 400000 0  400000 400000 0  450000 400000 0  500000 400000 0  550000 400000 0  600000 400000 0  650000 400000 0  700000 400000 0  750000 400000 0  800000 400000 0  850000 400000 0  900000 400000 0  950000 400000 0  1000000 400000 0  0 450000 0  50000 450000 0  100000 450000 0  150000 450000 0  200000 450000 0  250000 450000 0  300000 450000 0  350000 450000 0  400000 450000 0  450000 450000 0  500000 450000 0  550000 450000 0  600000 450000 0  650000 450000 0  700000 450000 0  750000 450000 0  800000 450000 0  850000 450000 0  900000 450000 0  950000 450000 0  1000000 450000 0  0 500000 0  50000 500000 0  100000 500000 0  150000 500000 0  200000 500000 0  250000 500000 0  300000 500000 0  350000 500000 0  400000 500000 0  450000 500000 0  500000 500000 0  550000 500000 0  600000 500000 0  650000 500000 0  700000 500000 0  750000 500000 0  800000 500000 0  850000 500000 0  900000 500000 0  950000 500000 0  1000000 500000 0  0 550000 0  50000 550000 0  100000 550000 0  150000 550000 0  200000 550000 0  250000 550000 0  300000 550000 0  350000 550000 0  400000 550000 0  450000 550000 0  500000 550000 0  550000 550000 0  600000 550000 0  650000 550000 0  700000 550000 0  750000 550000 0  800000 550000 0  850000 550000 0  900000 550000 0  950000 550000 0  1000000 550000 0  0 600000 0  50000 600000 0  100000 600000 0  150000 600000 0  200000 600000 0  250000 600000 0  300000 600000 0  350000 600000 0  400000 600000 0  450000 600000 0  500000 600000 0  550000 600000 0  600000 600000 0  650000 600000 0  700000 600000 0  750000 600000 0  800000 600000 0  850000 600000 0  900000 600000 0  950000 600000 0  1000000 600000 0  0 650000 0  50000 650000 0  100000 650000 0  150000 650000 0  200000 650000 0  250000 650000 0  300000 650000 0  350000 650000 0  400000 650000 0  450000 650000 0  500000 650000 0  550000 650000 0  600000 650000 0  650000 650000 0  700000 650000 0  750000 650000 0  800000 650000 0  850000 650000 0  900000 650000 0  950000 650000 0  1000000 650000 0  0 700000 0  50000 700000 0  100000 700000 0  150000 700000 0  200000 700000 0  250000 700000 0  300000 700000 0  350000 700000 0  400000 700000 0  450000 700000 0  500000 700000 0  550000 700000 0  600000 700000 0  650000 700000 0  700000 700000 0  750000 700000 0  800000 700000 0  850000 700000 0  900000 700000 0  950000 700000 0  1000000 700000 0  0 750000 0  50000 750000 0  100000 750000 0  150000 750000 0  200000 750000 0  250000 750000 0  300000 750000 0  350000 750000 0  400000 750000 0  450000 750000 0  500000 750000 0  550000 750000 0  600000 750000 0  650000 750000 0  700000 750000 0  750000 750000 0  800000 750000 0  850000 750000 0  900000 750000 0  950000 750000 0  1000000 750000 0  0 800000 0  50000 800000 0  100000 800000 0  150000 800000 0  200000 800000 0  250000 800000 0  300000 800000 0  350000 800000 0  400000 800000 0  450000 800000 0  500000 800000 0  550000 800000 0  600000 800000 0  650000 800000 0  700000 800000 0  750000 800000 0  800000 800000 0  850000 800000 0  900000 800000 0  950000 800000 0  1000000 800000 0  0 850000 0  50000 850000 0  100000 850000 0  150000 850000 0  200000 850000 0  250000 850000 0  300000 850000 0  350000 850000 0  400000 850000 0  450000 850000 0  500000 850000 0  550000 850000 0  600000 850000 0  650000 850000 0  700000 850000 0  750000 850000 0  800000 850000 0  850000 850000 0  900000 850000 0  950000 850000 0  1000000 850000 0  0 900000 0  50000 900000 0  100000 900000 0  150000 900000 0  200000 900000 0  250000 900000 0  300000 900000 0  350000 900000 0  400000 900000 0  450000 900000 0  500000 900000 0  550000 900000 0  600000 900000 0  650000 900000 0  700000 900000 0  750000 900000 0  800000 900000 0  850000 900000 0  900000 900000 0  950000 900000 0  1000000 900000 0  0 950000 0  50000 950000 0  100000 950000 0  150000 950000 0  200000 950000 0  250000 950000 0  300000 950000 0  350000 950000 0  400000 950000 0  450000 950000 0  500000 950000 0  550000 950000 0  600000 950000 0  650000 950000 0  700000 950000 0  750000 950000 0  800000 950000 0  850000 950000 0  900000 950000 0  950000 950000 0  1000000 950000 0  0 1000000 0  50000 1000000 0  100000 1000000 0  150000 1000000 0  200000 1000000 0  250000 1000000 0  300000 1000000 0  350000 1000000 0  400000 1000000 0  450000 1000000 0  500000 1000000 0  550000 1000000 0  600000 1000000 0  650000 1000000 0  700000 1000000 0  750000 1000000 0  800000 1000000 0  850000 1000000 0  900000 1000000 0  950000 1000000 0  1000000 1000000 0  0 1050000 0  50000 1050000 0  100000 1050000 0  150000 1050000 0  200000 1050000 0  250000 1050000 0  300000 1050000 0  350000 1050000 0  400000 1050000 0  450000 1050000 0  500000 1050000 0  550000 1050000 0  600000 1050000 0  650000 1050000 0  700000 1050000 0  750000 1050000 0  800000 1050000 0  850000 1050000 0  900000 1050000 0  950000 1050000 0  1000000 1050000 0  0 1100000 0  50000 1100000 0  100000 1100000 0  150000 1100000 0  200000 1100000 0  250000 1100000 0  300000 1100000 0  350000 1100000 0  400000 1100000 0  450000 1100000 0  500000 1100000 0  550000 1100000 0  600000 1100000 0  650000 1100000 0  700000 1100000 0  750000 1100000 0  800000 1100000 0  850000 1100000 0  900000 1100000 0  950000 1100000 0  1000000 1100000 0  0 1150000 0  50000 1150000 0  100000 1150000 0  150000 1150000 0  200000 1150000 0  250000 1150000 0  300000 1150000 0  350000 1150000 0  400000 1150000 0  450000 1150000 0  500000 1150000 0  550000 1150000 0  600000 1150000 0  650000 1150000 0  700000 1150000 0  750000 1150000 0  800000 1150000 0  850000 1150000 0  900000 1150000 0  950000 1150000 0  1000000 1150000 0  0 1200000 0  50000 1200000 0  100000 1200000 0  150000 1200000 0  200000 1200000 0  250000 1200000 0  300000 1200000 0  350000 1200000 0  400000 1200000 0  450000 1200000 0  500000 1200000 0  550000 1200000 0  600000 1200000 0  650000 1200000 0  700000 1200000 0  750000 1200000 0  800000 1200000 0  850000 1200000 0  900000 1200000 0  950000 1200000 0  1000000 1200000 0  0 1250000 0  50000 1250000 0  100000 1250000 0  150000 1250000 0  200000 1250000 0  250000 1250000 0  300000 1250000 0  350000 1250000 0  400000 1250000 0  450000 1250000 0  500000 1250000 0  550000 1250000 0  600000 1250000 0  650000 1250000 0  700000 1250000 0  750000 1250000 0  800000 1250000 0  850000 1250000 0  900000 1250000 0  950000 1250000 0  1000000 1250000 0  0 1300000 0  50000 1300000 0  100000 1300000 0  150000 1300000 0  200000 1300000 0  250000 1300000 0  300000 1300000 0  350000 1300000 0  400000 1300000 0  450000 1300000 0  500000 1300000 0  550000 1300000 0  600000 1300000 0  650000 1300000 0  700000 1300000 0  750000 1300000 0  800000 1300000 0  850000 1300000 0  900000 1300000 0  950000 1300000 0  1000000 1300000 0  0 1350000 0  50000 1350000 0  100000 1350000 0  150000 1350000 0  200000 1350000 0  250000 1350000 0  300000 1350000 0  350000 1350000 0  400000 1350000 0  450000 1350000 0  500000 1350000 0  550000 1350000 0  600000 1350000 0  650000 1350000 0  700000 135
[...]
<PointData  Scalars="f_25"> 
<DataArray  type="Float64"  Name="f_25"  format="ascii">-2.0904600566901754e+00  -1.8619864234982708e+00  -1.6091327019870596e+00  -1.3395910154565172e+00  -1.0615977841390902e+00  -7.7771209712812961e-01  -4.8931388972512568e-01  -1.9745569971261279e-01  9.6914201353052551e-02  3.9287500170225836e-01  6.8950304417665409e-01  9.8585765232919520e-01  1.2809698621036130e+00  1.5738241345310058e+00  1.8633202297622546e+00  2.1481926525385560e+00  2.4268421341077926e+00  2.6969633934406856e+00  2.9544505221567356e+00  3.1887360489898637e+00  3.3412804855906417e+00  -1.9453168762205488e+00  -1.8408844958009178e+00  -1.6043772898561697e+00  -1.3385974313142424e+00  -1.0615836141328172e+00  -7.7796156798029648e-01  -4.8959780408606218e-01  -1.9767828705375162e-01  9.6803139115622022e-02  3.9290730587387634e-01  6.8970288210899156e-01  9.8624755653651630e-01  1.2815763181298794e+00  1.5746845524305484e+00  1.8644899724325092e+00  2.1497350027943134e+00  2.4287050634525942e+00  2.6983018471781763e+00  2.9507262497589397e+00  3.1615893477346875e+00  3.2536893253425410e+00  -1.7776416544324658e+00  -1.7264024570713772e+00  -1.5482954323098737e+00  -1.3107648181205809e+00  -1.0470085569449183e+00  -7.7000079968384816e-01  -4.8514549288811121e-01  -1.9517016197542458e-01  9.8201139280426591e-02  3.9363918971901179e-01  6.8996881255540499e-01  9.8605944309594218e-01  1.2807568947938548e+00  1.5728075426627937e+00  1.8607207925711673e+00  2.1424605658615445e+00  2.4146935828265463e+00  2.6709010562286015e+00  2.8967621808609176e+00  3.0604303884635140e+00  3.1027757255819917e+00  -1.6171599745034921e+00  -1.5865343726704197e+00  -1.4526427804146487e+00  -1.2506296924171465e+00  -1.0097158495187177e+00  -7.4675220356110350e-01  -4.7062191781646467e-01  -1.8622944011362977e-01  1.0339736166722011e-01  3.9611436198055350e-01  6.9018151918702897e-01  9.8400691498703186e-01  1.2759722020016981e+00  1.5642508412309137e+00  1.8465290372386258e+00  2.1194871360130860e+00  2.3777815192218497e+00  2.6120945877172814e+00  2.8058442408980699e+00  2.9316418417588612e+00  2.9561312594657982e+00  -1.4655308453788822e+00  -1.4441276083008110e+00  -1.3390627029358928e+00  -1.1680913452862962e+00  -9.5236677048166485e-01  -7.0775585828887833e-01  -4.4457858435103104e-01  -1.6938428864911681e-01  1.1348307448423609e-01  4.0088774357813595e-01  6.9031180866849062e-01  9.7948718241616928e-01  1.2661205689034609e+00  1.5476153201059564e+00  1.8206971332765587e+00  2.0808298007534143e+00  2.3212842732201331e+00  2.5317839564139240e+00  2.6970628693656225e+00  2.7970983795513975e+00  2.8144459724097510e+00  -1.3234114252781781e+00  -1.3068819851108517e+00  -1.2207756209895753e+00  -1.0742255055302294e+00  -8.8175616564113357e-01  -6.5651774613483482e-01  -4.0857387033432796e-01  -1.4519562442386971e-01  1.2832961947506627e-01  4.0796419802719869e-01  6.9037552804372748e-01  9.7253755838273237e-01  1.2514050040012712e+00  1.5235891012086811e+00  1.7849679616843521e+00  2.0301730750247891e+00  2.2519333495115945e+00  2.4403984436215489e+00  2.5829361639809187e+00  2.6656740347571595e+00  2.6794792050182807e+00  -1.1917222255030506e+00  -1.1781469801841955e+00  -1.1050437560646849e+00  -9.7723329961680083e-01  -8.0469459141252886e-01  -5.9783223541435271e-01  -3.6567010373448389e-01  -1.1548272397419719e-01  1.4695208096795864e-01  4.1692889275455736e-01  6.9040406128747567e-01  9.6364021241757780e-01  1.2328888179091677e+00  1.4940768870845740e+00  1.7424666355022662e+00  1.9722782822049822e+00  2.1763221448249266e+00  2.3458079069385347e+00  2.4707182464502311e+00  2.5414588607104069e+00  2.5531325909236933e+00  -1.0714357033261774e+00  -1.0598327219417469e+00  -9.9604019094324125e-01  -8.8263917883611664e-01  -7.2665819342602200e-01  -5.3626505362131049e-01  -3.1927074643611281e-01  -8.2564061748954948e-02  1.6794312308084025e-01  4.2713428272025322e-01  6.9042716443824659e-01  9.5350139115264410e-01  1.2120327843578071e+00  1.4614321683293061e+00  1.6965873719971569e+00  1.9116277830601411e+00  2.0997760884038845e+00  2.2534270239121597e+00  2.3646926591932038e+00  2.4267773182132486e+00  2.4370001539527411e+00  -9.6343663431039961e-01  -9.5323707090397769e-01  -8.9634326015608601e-01  -7.9412191813053890e-01  -6.5170739674445088e-01  -4.7559283435594346e-01  -2.7248327874321643e-01  -4.8738920444423496e-02  1.8981516868501244e-01  4.3786358007898074e-01  6.9046593624360519e-01  9.4287670444180050e-01  1.1903517558459251e+00  1.4279585534163406e+00  1.6504067370958257e+00  1.8519301100950720e+00  2.0262785696747829e+00  2.1669147250567957e+00  2.2675456245954471e+00  2.3231800071449711e+00  2.3323464518330965e+00  -8.6847321030864244e-01  -8.5931308203882872e-01  -8.0764660029423441e-01  -7.1415715243863465e-01  -5.8275577230669573e-01  -4.1872884515794245e-01  -2.2787343487207476e-01  -1.6018137507631019e-02  2.1120841749220365e-01  4.4844017872490127e-01  6.9053200721042507e-01  9.3246242705960170e-01  1.1692142841142630e+00  1.3956578930786312e+00  1.6064607692792614e+00  1.7960555648610232e+00  1.9587106353665840e+00  2.0887601772430902e+00  2.1810602694486581e+00  2.2317880818063447e+00  2.2401601614631774e+00  -7.8714908942313300e-01  -7.7877560786203492e-01  -7.3110655209998121e-01  -6.4443067686613442e-01  -5.2186109875547426e-01  -3.6783137448872766e-01  -1.8743441930827506e-01  1.3970264953645031e-02  2.3098570848078975e-01  4.5828439309634089e-01  6.9062943119715603e-01  9.2284365530431278e-01  1.1497553198409352e+00  1.3661453200013534e+00  1.5667203364922948e+00  1.7461389814383494e+00  1.8991215325358799e+00  2.0206748201862448e+00  2.1064659319342200e+00  2.1534356451103625e+00  2.1612056896226517e+00  -7.1993230398412045e-01  -7.1215686940091538e-01  -6.6752541438552659e-01  -5.8609623737051442e-01  -4.7045929385405211e-01  -3.2445442817365416e-01  -1.5264978495768239e-01  3.9977783376987056e-02  2.4825372957171649e-01  4.6693216333246579e-01  6.9075712844950743e-01  9.1448070532607217e-01  1.1328602633922762e+00  1.3406565489912585e+00  1.5326539077933359e+00  1.7037237822624842e+00  1.8489513472581431e+00  1.9638417957563474e+00  2.0446252139211127e+00  2.0887439025419874e+00  2.0960644442467080e+00  -6.6717071190540611e-01  -6.5984317653745295e-01  -6.1745738359689673e-01  -5.3993851468183141e-01  -4.2953653790453017e-01  -2.8968744419383768e-01  -1.2458403537637476e-01  6.1088928563386380e-02  2.6234550232458242e-01  4.7403166039271255e-01  6.9091094404048259e-01  9.0771644264419882e-01  1.1191856510394576e+00  1.3200957409011798e+00  1.5053165218416469e+00  1.6698968576774802e+00  1.8091970562999651e+00  1.9190755617657234e+00  1.9961431883250802e+00  2.0381685796941276e+00  2.0451683674507763e+00  -6.2910891790137979e-01  -6.2210250134180700e-01  -5.8127488644967240e-01  -5.0647851979870306e-01  -3.9975127167509245e-01  -2.6426802321066073e-01  -1.0396990723357996e-01  7.6663418981683107e-02  2.7278803373204868e-01  4.7933002438372302e-01  6.9108508544687519e-01  9.0279214410730102e-01  1.1091932321837847e+00  1.3050935386267559e+00  1.4854354198539523e+00  1.6453981312368209e+00  1.7805312529061528e+00  1.8869260459573780e+00  1.9614363206118415e+00  2.0020341884870860e+00  2.0088275937239537e+00  -6.0590366808697704e-01  -5.9910558564973182e-01  -5.5921190059466541e-01  -4.8604230171901830e-01  -3.8151800560002036e-01  -2.4866562565989228e-01  -9.1279663306932129e-02  8.6283479480352851e-02  2.7926914049680779e-01  4.8265805623119229e-01  6.9127300066315289e-01  8.9986432095874624e-01  1.1031839588238603e+00  1.2960595349363311e+00  1.4734800015207064e+00  1.6307022435245184e+00  1.7633842155999706e+00  1.8677470877708686e+00  1.9407778714683361e+00  1.9805596548956341e+00  1.9872527104046325e+00  -5.9763574207073711e-01  -5.9094100578816289e-01  -5.5139167755973462e-01  -4.7880431013184493e-01  -3.7506172540486588e-01  -2.4313848673800120e-01  -8.6776332075949689e-02  8.9713676527502784e-02  2.8161070877808003e-01  4.8391725022628168e-01  6.9146784510217973e-01  8.9901843997807263e-01  1.1013249814262740e+00  1.2932220136768489e+00  1.4697120222802968e+00  1.6260741769423475e+00  1.7579974156092104e+00  1.8617400003361881e+00  1.9343273677640769e+00  1.9738766959925040e+00  1.9805714322750794e+00  -6.0431702020029066e-01  -5.9762396469129264e-01  -5.5784218126399421e-01  -4.8481139756652730e-01  -3.8044852539562624e-01  -2.4776655332016992e-01  -9.0544311316356388e-02  8.6876155268022170e-02  2.7975173138049142e-01  4.8307136924561056e-01  6.9166268954120957e-01  9.0027763397316862e-01  1.1036665497075491e+00  1.2966522107239984e+00  1.4742153535112794e+00  1.6316013158642411e+00  1.7644536958043702e+00  1.8689779919233662e+00  1.9421475907990162e+00  1.9820412758540817e+00  1.9888393582913277e+00  -6.2589190351961210e-01  -6.1909849828274333e-01  -5.7850063040750144e-01  -5.0399035575303430e-01  -3.9759556270180907e-01  -2.6246244103247507e-01  -1.0249972964960227e-01  7.7842151577597343e-02  2.7374245802057173e-01  4.8014354609706017e-01  6.9185060475749172e-01  9.0360566582064139e-01  1.1101476564723123e+00  1.3062722712226738e+00  1.4869055974379373e+00  1.6472037134150170e+00  1.7826869618794507e+00  1.8894142100030591e+00  1.9642105766540345e+00  2.0050381915461712e+00  2.0120446081057417e+00  -6.6223267724642543e-01  -6.5523288948977620e-01  -6.1320749812072894e-01  -5.3613987156137022e-01  -4.2626136609561205e-01  -2.8696116747312822e-01  -1.2238083163728877e-01  6.2839949303180612e-02  2.6375003916490708e-01  4.7521924756016887e-01  6.9202474616389287e-01  9.0890402981166418e-01  1.1205901878797897e+00  1.3218467616409788e+00  1.5075197255807402e+00  1.6726231343982010e+00  1.8124722281088996e+00  1.9228742048862002e+00  2.0003930738012641e+00  2.0427788667418185e+00  2.0501064021097712e+00  -7.1312875404235021e-01  -7.0580821233763047e-01  -6.6168952371675471e-01  -5.8090610555198885e-01  -4.6601565705378184e-01  -3.2078809205812281e-01  -1.4971821758896783e-01  4.2279141213112506e-02  2.5007542681209893e-01  4.6845498487830578e-01  6.9217856175487646e-01  9.1600352687191966e-01  1.1346819606326655e+00  1.3429579068273894e+00  1.5355854751620563e+00  1.7073901183780245e+00  1.8533949840584294e+00  1.9690319275748889e+00  2.0504611045898948e+00  2.0950925596052818e+00  2.1028679941884878e+00  -7.7826999941827901e-01  -7.7049995490598966e-01  -7.2353024172984781e-01  -6.3773912998187288e-01  -5.1618584233150233e-01  -3.6320329123397038e-01  -1.8378464628790997e-01  1.6790370203035636e-02  2.3318037036345818e-01  4.6009203490008177e-01  6.9230625900724341e-01  9.2465129710805871e-01  1.1519499817236085e+00  1.3689654252507539e+00  1.5703701095126721e+00  1.7507670646931228e+00  1.9047967889598654e+00  2.0273663670705173e+00  2.1140422423043601e+00  2.1617112980664075e+00  2.1700847796275067e+00  -8.5722447125878831e-01  -8.4885239160195936e-01  -7.9812457924426927e-01  -7.0582448703870126e-01  -5.7577494516219208e-01  -4.1311987465662708e-01  -2.2352507907486069e-01  -1.2722202874226280e-02  2.1372140609014920e-01  4.5047326314481456e-01  6.9240368299399391e-01  9.3449551147952048e-01  1.1717272727122170e+00  1.3989538277120535e+00  1.6108091250764960e+00  1.8016645353623570e+00  1.9656914625111028e+00  2.0970928426430304e+00  2.1905822904986239e+00  2.2422487722432116e+00  2.2514089005130211e+00  -9.4941076162869620e-01  -9.4024431694057298e-01  -8.8460993439104141e-01  -7.8397903485239118e-01  -6.4334287947037627e-01  -4.6899441989065704e-01  -2.6747104689140694e-01  -4.5022863211912297e-02  1.9258393435850912e-01  4.4005898576263625e-01  6.9246975396083676e-01  9.4507211012546466e-01  1.1931205215194345e+00  1.4316746106488685e+00  1.6554189689476551e+00  1.8585285245603744e+00  2.0346430869488716e+00  2.1770576083349500e+00  2.2792789503604856e+00  2.3361727611083714e+00  2.3463723245147938e+00  -1.0540644637483250e+00  -1.0438416280088307e+00  -9.8175696898878384e-01  -8.7049133370774190e-01  -7.1684039819946155e-01  -5.2869209285571106e-01  -3.1365168179271796e-01  -7.8496478124859159e-02  1.7090290584664575e-01  4.2943429905181280e-01  6.9250852576621502e-01  9.5580140748421205e-01  1.2149925671236279e+00  1.4654997519534183e+00  1.7022064366405680e+00  1.9192007438257541e+00  2.1095938836304589e+00  2.2655748690405435e+00  2.3789758811476562e+00  2.4427684121461559e+00  2.4543713935305860e+00  -1.1701969007192645e+00  -1.1585231705059795e+00  -1.0877825562458021e+00  -9.6287221673410417e-01  -7.9338645462048718e-01  -5.8934259200053207e-01  -3.5953094529780472e-01  -1.1114119688010310e-01  1.5004687229530872e-01  4.1929547778690240e-01  6.9253162891700815e-01  9.6600679744992957e-01  1.2359836092365293e+00  1.4984184141786761e+00  1.7486057939389559e+00  1.9807679256188133e+00  2.1876302816169835e+00  2.3601689898212461e+00  2.4879794462691200e+00  2.5610826703886214e+00  2.5746579157074767e+00  -1.2965435148138325e+00  -1.2827383445527145e+00  -1.2000004737764691e+00  -1.0574627534170957e+00  -8.6899765930713524e-01  -6.4723738482032311e-01  -4.0203227147987441e-01  -1.4065341100418852e-01  1.3153068620322575e-01  4.1039813182176632e-01  6.9256016216077720e-01  9.7497149217730728e-01  1.2546060707294402e+00  1.5281313146283675e+00  1.7915095605388169e+00  2.0394534363393171e+00  2.2646918558456068e+00  2.4571611957346926e+00  2.6037113111940262e+00  2.6898176753152967e+00  2.7063471154826200e+00  -1.4315102822052870e+00  -1.4141626893469343e+00  -1.3141271791611535e+00  -1.1488482662094528e+00  -9.3834858301565549e-01  -6.9789411054893080e-01  -4.3776144307206344e-01  -1.6467962990144822e-01  1.1681512130105151e-01  4.0344850778834335e-01  6.9262388153602761e-01  9.8204794662638417e-01  1.2694526157202821e+00  1.5523199788536288e+00  1.8275142745555357e+00  2.0906915484933819e+00  2.3353024606861532e+00  2.5510270354907747e+00  2.7219983931403600e+00  2.8270632985052724e+00  2.8484665355833414e+00  -1.5731955692613211e+00  -1.5487061515543825e+00  -1.4229085506935868e+00  -1.2291588975127936e+00  -9.9484582901735796e-01  -7.3655144580858789e-01  -4.6359334703411709e-01  -1.8131515102639570e-01  1.0696348820282517e-01  3.9892877521749198e-01  6.9275417101749936e-01  9.8682132822397595e-01  1.2795383285373072e+00  1.5691651303181517e+00  1.8535576080209839e+00  2.1296878937656163e+00  2.3926515397232238e+00  2.6335653826216379e+00  2.8355784706191258e+00  2.9694700628748874e+00  3.0000956647079597e+00  -1.7198400353775034e+00  -1.6774946982590215e+00  -1.5138264906564229e+00  -1.2879653660241015e+00  -1.0317578926220459e+00  -7.5952487565704030e-01  -4.7778510236665317e-01  -1.8987185245826838e-01  1.0217879541067185e-01  3.9687624710858743e-01  6.9296687764912990e-01  9.8929650048552276e-01  1.2847345509241070e+00  1.5781058521799538e+00  1.8680811830926385e+00  2.1529364898883694e+00  2.4299442471494301e+00  2.6937005083250800e+00  2.9312311225143617e+00  3.1093381472758557e+00  3.1605773446369461e+00  -1.8707536351380512e+00  -1.7786536575301959e+00  -1.5677905595544506e+00  -1.3153661569736810e+00  -1.0457693732480915e+00  -7.6679931258980416e-01  -4.8155428222799068e-01  -1.9174886222602233e-01  1.0135937207465084e-01  3.9668813366801564e-01  6.9323280809554333e-01  9.9002838433065954e-01  1.2861325510889141e+00  1.5806139772582852e+00  1.8725334942905911e+00  2.1608972581848165e+00  2.4445193043373297e+00  2.7215331215187430e+00  2.9873129800606679e+00  3.2238201860054048e+00  3.3282525664250340e+00  -1.9583447953861501e+00  -1.8058003587853708e+00  -1.5715148319522425e+00  -1.3140277032361869e+00  -1.0439064439032877e+00  -7.6525696233404605e-01  -4.8038453955773452e-01  -1.9088844432648094e-01  1.0196582810091936e-01  3.9707803787533841e-01  6.9343264602788313e-01  9.9006068850227491e-01  1.2860214888514847e+00  1.5803913899171473e+00  1.8722495799296555e+00  2.1606477873326502e+00  2.4445334743436047e+00  2.7225267056610218e+00  2.9920683921915554e+00  3.2449221137027613e+00  3.4733957468946643e+00  </DataArray> 
</PointData> 
</Piece>
</UnstructuredGrid>
</VTKFile>