<?xml version="1.0"?>
<VTKFile type="UnstructuredGrid"  version="0.1"  >
<UnstructuredGrid>
<Piece  NumberOfPoints="651" NumberOfCells="1200">
<Points>
<DataArray  type="Float64"  NumberOfComponents="3"  format="ascii">0 0 0  50000 0 0  100000 0 0  150000 0 0  200000 0 0  250000 0 0  300000 0 0  350000 0 0  400000 0 0  450000 0 0  500000 0 0  550000 0 0  600000 0 0  650000 0 0  700000 0 0  750000 0 0  800000 0 0  850000 0 0  900000 0 0  950000 0 0  1000000 0 0  0 50000 0  50000 50000 0  100000 50000 0  150000 50000 0  200000 50000 0  250000 50000 0  300000 50000 0  350000 50000 0  400000 50000 0  450000 50000 0  500000 50000 0  550000 50000 0  600000 50000 0  650000 50000 0  700000 50000 0  750000 50000 0  800000 50000 0  850000 50000 0  900000 50000 0  950000 50000 0  1000000 50000 0  0 100000 0  50000 100000 0  100000 100000 0  150000 100000 0  200000 100000 0  250000 100000 0  300000 100000 0  350000 100000 0  400000 100000 0  450000 100000 0  500000 100000 0  550000 100000 0  600000 100000 0  650000 100000 0  700000 100000 0  750000 100000 0  800000 100000 0  850000 100000 0  900000 100000 0  950000 100000 0  1000000 100000 0  0 150000 0  50000 150000 0  100000 150000 0  150000 150000 0  200000 150000 0  250000 150000 0  300000 150000 0  350000 150000 0  400000 150000 0  450000 150000 0  500000 150000 0  550000 150000 0  600000 150000 0  650000 150000 0  700000 150000 0  750000 150000 0  800000 150000 0  850000 150000 0  900000 150000 0  950000 150000 0  1000000 150000 0  0 200000 0  50000 200000 0  100000 200000 0  150000 200000 0  200000 200000 0  250000 200000 0  300000 200000 0  350000 200000 0  400000 200000 0  450000 200000 0  500000 200000 0  550000 200000 0  600000 200000 0  650000 200000 0  700000 200000 0  750000 200000 0  800000 200000 0  850000 200000 0  900000 200000 0  950000 200000 0  1000000 200000 0  0 250000 0  50000 250000 0  100000 250000 0  150000 250000 0  200000 250000 0  250000 250000 0  300000 250000 0  350000 250000 0  400000 250000 0  450000 250000 0  500000 250000 0  550000 250000 0  600000 250000 0  650000 250000 0  700000 250000 0  750000 250000 0  800000 250000 0  850000 250000 0  900000 250000 0  950000 250000 0  1000000 250000 0  0 300000 0  50000 300000 0  100000 300000 0  150000 300000 0  200000 300000 0  250000 300000 0  300000 300000 0  350000 300000 0  400000 300000 0  450000 300000 0  500000 300000 0  550000 300000 0  600000 300000 0  650000 300000 0  700000 300000 0  750000 300000 0  800000 300000 0  850000 300000 0  900000 300000 0  950000 300000 0  1000000 300000 0  0 350000 0  50000 350000 0  100000 350000 0  150000 350000 0  200000 350000 0  250000 350000 0  300000 350000 0  350000 350000 0  400000 350000 0  450000 350000 0  500000 350000 0  550000 350000 0  600000 350000 0  650000 350000 0  700000 350000 0  750000 350000 0  800000 350000 0  850000 350000 0  900000 350000 0  950000 350000 0  1000000 350000 0  0 400000 0  50000 400000 0  100000 400000 0  150000 400000 0  200000 400000 0  250000 400000 0  300000 400000 0  350000 400000 0  400000 400000 0  450000 400000 0  500000 400000 0  550000 400000 0  600000 400000 0  650000 400000 0  700000 400000 0  750000 400000 0  800000 400000 0  850000 400000 0  900000 400000 0  950000 400000 0  1000000 400000 0  0 450000 0  50000 450000 0  100000 450000 0  150000 450000 0  200000 450000 0  250000 450000 0  300000 450000 0  350000 450000 0  400000 450000 0  450000 450000 0  500000 450000 0  550000 450000 0  600000 450000 0  650000 450000 0  700000 450000 0  750000 450000 0  800000 450000 0  850000 450000 0  900000 450000 0  950000 450000 0  1000000 450000 0  0 500000 0  50000 500000 0  100000 500000 0  150000 500000 0  200000 500000 0  250000 500000 0  300000 500000 0  350000 500000 0  400000 500000 0  450000 500000 0  500000 500000 0  550000 500000 0  600000 500000 0  650000 500000 0  700000 500000 0  750000 500000 0  800000 500000 0  850000 500000 0  900000 500000 0  950000 500000 0  1000000 500000 0  0 550000 0  50000 550000 0  100000 550000 0  150000 550000 0  200000 550000 0  250000 550000 0  300000 550000 0  350000 550000 0  400000 550000 0  450000 550000 0  500000 550000 0  550000 550000 0  600000 550000 0  650000 550000 0  700000 550000 0  750000 550000 0  800000 550000 0  850000 550000 0  900000 550000 0  950000 550000 0  1000000 550000 0  0 600000 0  50000 600000 0  100000 600000 0  150000 600000 0  200000 600000 0  250000 600000 0  300000 600000 0  350000 600000 0  400000 600000 0  450000 600000 0  500000 600000 0  550000 600000 0  600000 600000 0  650000 600000 0  700000 600000 0  750000 600000 0  800000 600000 0  850000 600000 0  900000 600000 0  950000 600000 0  1000000 600000 0  0 650000 0  50000 650000 0  100000 650000 0  150000 650000 0  200000 650000 0  250000 650000 0  300000 650000 0  350000 650000 0  400000 650000 0  450000 650000 0  500000 650000 0  550000 650000 0  600000 650000 0  650000 650000 0  700000 650000 0  750000 650000 0  800000 650000 0  850000 650000 0  900000 650000 0  950000 650000 0  1000000 650000 0  0 700000 0  50000 700000 0  100000 700000 0  150000 700000 0  200000 700000 0  250000 700000 0  300000 700000 0  350000 700000 0  400000 700000 0  450000 700000 0  500000 700000 0  550000 700000 0  600000 700000 0  650000 700000 0  700000 700000 0  750000 700000 0  800000 700000 0  850000 700000 0  900000 700000 0  950000 700000 0  1000000 700000 0  0 750000 0  50000 750000 0  100000 750000 0  150000 750000 0  200000 750000 0  250000 750000 0  300000 750000 0  350000 750000 0  400000 750000 0  450000 750000 0  500000 750000 0  550000 750000 0  600000 750000 0  650000 750000 0  700000 750000 0  750000 750000 0  800000 750000 0  850000 750000 0  900000 750000 0  950000 750000 0  1000000 750000 0  0 800000 0  50000 800000 0  100000 800000 0  150000 800000 0  200000 800000 0  250000 800000 0  300000 800000 0  350000 800000 0  400000 800000 0  450000 800000 0  500000 800000 0  550000 800000 0  600000 800000 0  650000 800000 0  700000 800000 0  750000 800000 0  800000 800000 0  850000 800000 0  900000 800000 0  950000 800000 0  1000000 800000 0  0 850000 0  50000 850000 0  100000 850000 0  150000 850000 0  200000 850000 0  250000 850000 0  300000 850000 0  350000 850000 0  400000 850000 0  450000 850000 0  500000 850000 0  550000 850000 0  600000 850000 0  650000 850000 0  700000 850000 0  750000 850000 0  800000 850000 0  850000 850000 0  900000 850000 0  950000 850000 0  1000000 850000 0  0 900000 0  50000 900000 0  100000 900000 0  150000 900000 0  200000 900000 0  250000 900000 0  300000 900000 0  350000 900000 0  400000 900000 0  450000 900000 0  500000 900000 0  550000 900000 0  600000 900000 0  650000 900000 0  700000 900000 0  750000 900000 0  800000 900000 0  850000 900000 0  900000 900000 0  950000 900000 0  1000000 900000 0  0 950000 0  50000 950000 0  100000 950000 0  150000 950000 0  200000 950000 0  250000 950000 0  300000 950000 0  350000 950000 0  400000 950000 0  450000 950000 0  500000 950000 0  550000 950000 0  600000 950000 0  650000 950000 0  700000 950000 0  750000 950000 0  800000 950000 0  850000 950000 0  900000 950000 0  950000 950000 0  1000000 950000 0  0 1000000 0  50000 1000000 0  100000 1000000 0  150000 1000000 0  200000 1000000 0  250000 1000000 0  300000 1000000 0  350000 1000000 0  400000 1000000 0  450000 1000000 0  500000 1000000 0  550000 1000000 0  600000 1000000 0  650000 1000000 0  700000 1000000 0  750000 1000000 0  800000 1000000 0  850000 1000000 0  900000 1000000 0  950000 1000000 0  1000000 1000000 0  0 1050000 0  50000 1050000 0  100000 1050000 0  150000 1050000 0  200000 1050000 0  250000 1050000 0  300000 1050000 0  350000 1050000 0  400000 1050000 0  450000 1050000 0  500000 1050000 0  550000 1050000 0  600000 1050000 0  650000 1050000 0  700000 1050000 0  750000 1050000 0  800000 1050000 0  850000 1050000 0  900000 1050000 0  950000 1050000 0  1000000 1050000 0  0 1100000 0  50000 1100000 0  100000 1100000 0  150000 1100000 0  200000 1100000 0  250000 1100000 0  300000 1100000 0  350000 1100000 0  400000 1100000 0  450000 1100000 0  500000 1100000 0  550000 1100000 0  600000 1100000 0  650000 1100000 0  700000 1100000 0  750000 1100000 0  800000 1100000 0  850000 1100000 0  900000 1100000 0  950000 1100000 0  1000000 1100000 0  0 1150000 0  50000 1150000 0  100000 1150000 0  150000 1150000 0  200000 1150000 0  250000 1150000 0  300000 1150000 0  350000 1150000 0  400000 1150000 0  450000 1150000 0  500000 1150000 0  550000 1150000 0  600000 1150000 0  650000 1150000 0  700000 1150000 0  750000 1150000 0  800000 1150000 0  850000 1150000 0  900000 1150000 0  950000 1150000 0  1000000 1150000 0  0 1200000 0  50000 1200000 0  100000 1200000 0  150000 1200000 0  200000 1200000 0  250000 1200000 0  300000 1200000 0  350000 1200000 0  400000 1200000 0  450000 1200000 0  500000 1200000 0  550000 1200000 0  600000 1200000 0  650000 1200000 0  700000 1200000 0  750000 1200000 0  800000 1200000 0  850000 1200000 0  900000 1200000 0  950000 1200000 0  1000000 1200000 0  0 1250000 0  50000 1250000 0  100000 1250000 0  150000 1250000 0  200000 1250000 0  250000 1250000 0  300000 1250000 0  350000 1250000 0  400000 1250000 0  450000 1250000 0  500000 1250000 0  550000 1250000 0  600000 1250000 0  650000 1250000 0  700000 1250000 0  750000 1250000 0  800000 1250000 0  850000 1250000 0  900000 1250000 0  950000 1250000 0  1000000 1250000 0  0 1300000 0  50000 1300000 0  100000 1300000 0  150000 1300000 0  200000 1300000 0  250000 1300000 0  300000 1300000 0  350000 1300000 0  400000 1300000 0  450000 1300000 0  500000 1300000 0  550000 1300000 0  600000 1300000 0  650000 1300000 0  700000 1300000 0  750000 1300000 0  800000 1300000 0  850000 1300000 0  900000 1300000 0  950000 1300000 0  1000000 1300000 0  0 1350000 0  50000 1350000 0  100000 1350000 0  150000 1350000 0  200000 1350000 0  250000 1350000 0  300000 1350000 0  350000 1350000 0  400000 1350000 0  450000 1350000 0  500000 1350000 0  550000 1350000 0  600000 1350000 0  650000 1350000 0  700000 135
[...]
<PointData  Scalars="f_25"> 
<DataArray  type="Float64"  Name="f_25"  format="ascii">-4.5085347106942486e-01  -3.5331959819336295e-01  -2.4599861382145888e-01  -1.3185416118734530e-01  -1.4275346321524059e-02  1.0568977602099421e-01  2.2748014276991724e-01  3.5066740529566470e-01  4.7486438144184739e-01  5.9969425442783675e-01  7.2477890936008948e-01  8.4973395315126021e-01  9.7416505265081832e-01  1.0976615575937183e+00  1.2197821703889953e+00  1.3400235363768145e+00  1.4577539215167361e+00  1.5720674522476534e+00  1.6813496609017533e+00  1.7813204937047105e+00  1.8469478902651755e+00  -3.8869838318531047e-01  -3.4371844136019841e-01  -2.4356936045819441e-01  -1.3116448903716013e-01  -1.4086976396521681e-02  1.0571738196636764e-01  2.2746576110043684e-01  3.5066463782442842e-01  4.7490295554554951e-01  5.9979353589754636e-01  7.2495324463525712e-01  8.4999528262721424e-01  9.7452463571053816e-01  1.0981314125118746e+00  1.2203752511015244e+00  1.3407446330559520e+00  1.4585392921654665e+00  1.5724849903676952e+00  1.6793563072391440e+00  1.7690108680220735e+00  1.8091293853689259e+00  -3.1678536497576171e-01  -2.9446875833118563e-01  -2.1899587976176985e-01  -1.1867677102469594e-01  -7.3535811521251108e-03  1.0953077091824512e-01  2.2969794862860035e-01  3.5199668017112851e-01  4.7570133808448445e-01  6.0025517060374745e-01  7.2516812792245533e-01  8.4997025863467079e-01  9.7418266989971469e-01  1.0972853924983332e+00  1.2186593206668765e+00  1.3374565028644276e+00  1.4522854744673666e+00  1.5604235427827235e+00  1.6558931395772016e+00  1.7254011300615377e+00  1.7441941049538614e+00  -2.4794397454646608e-01  -2.3446884138974147e-01  -1.7768728141266008e-01  -9.2417265539094920e-02  9.1508773244342017e-03  1.1997953543883484e-01  2.3634170618995315e-01  3.5617232036921348e-01  4.7819493947153191e-01  6.0150653108515095e-01  7.2537578274224690e-01  8.4913501742376085e-01  9.7210633674064340e-01  1.0935248515782492e+00  1.2124212720031042e+00  1.3274045230129192e+00  1.4362362753023292e+00  1.5350178068282589e+00  1.6168190040599597e+00  1.6701964377110592e+00  1.6811276980173007e+00  -1.8289313514743269e-01  -1.7341606763332190e-01  -1.2884311664743198e-01  -5.6708395126302484e-02  3.4159103396244714e-02  1.3714121812591237e-01  2.4792180741569791e-01  3.6375264192382728e-01  4.8280663080633307e-01  6.0376359084723719e-01  7.2556363720347061e-01  8.4725276385560466e-01  9.6786716336747847e-01  1.0863162888039875e+00  1.2012258722557629e+00  1.3106935680809828e+00  1.4119005536933551e+00  1.5005474903940517e+00  1.5702546917060163e+00  1.6126515661904992e+00  1.6203545582332599e+00  -1.2192461835328051e-01  -1.1458421856412485e-01  -7.8059510232270604e-02  -1.6264253602620574e-02  6.4738212071657128e-02  1.5946701895488843e-01  2.6372039915890294e-01  3.7445449549875753e-01  4.8945059816409370e-01  6.0701170008791250e-01  7.2573612754521510e-01  8.4435113073139545e-01  9.6157648311539146e-01  1.0759886578579496e+00  1.1858578433112401e+00  1.2889336366549304e+00  1.3821719862463069e+00  1.4614543859813796e+00  1.5215042213996000e+00  1.5565197127686128e+00  1.5625987691159287e+00  -6.5435419868127606e-02  -5.9401838329711444e-02  -2.8410915847263629e-02  2.5441361906088190e-02  9.7989282149830173e-02  1.8489999650490657e-01  2.8241040149726387e-01  3.8748015204383901e-01  4.9768915299964051e-01  6.1106311700307947e-01  7.2590363884777021e-01  8.4064037797753144e-01  9.5369866526040981e-01  1.0633687029333554e+00  1.1676636103373896e+00  1.2641624458286995e+00  1.3498576901892989e+00  1.4210771023397670e+00  1.4736395187211675e+00  1.5035324119460030e+00  1.5086371195703745e+00  -1.3839561219420694e-02  -8.6841159180439196e-03  1.8335281643962805e-02  6.6071758045218712e-02  1.3159227589457639e-01  2.1149895858000547e-01  3.0253812728034002e-01  4.0183432621377402e-01  5.0691485391428182e-01  6.1563608805922920e-01  7.2607606321793927e-01  8.3642170258498494e-01  9.4485845698026061e-01  1.0494616746565910e+00  1.1480893949109274e+00  1.2382848380250728e+00  1.3172156581588688e+00  1.3817079621945862e+00  1.4284730560514256e+00  1.4546706733059733e+00  1.4591209930015683e+00  3.2488969769993110e-02  3.7016601186310123e-02  6.1087379079527021e-02  1.0407242057477144e-01  1.6383091181850876e-01  2.3766497415632065e-01  3.2278476906285247e-01  4.1653847598978122e-01  5.1649261452654005e-01  6.2042303121281861e-01  7.2626015358925433e-01  8.3201487609371383e-01  9.3569863717725932e-01  1.0352448958336573e+00  1.1284391724214491e+00  1.2128707205126241e+00  1.2859302602962781e+00  1.3448928909071474e+00  1.3871388154354314e+00  1.4105847961646893e+00  1.4145666375080665e+00  7.3235655242062228e-02  7.7296567964153767e-02  9.9129213892422033e-02  1.3839844414559443e-01  1.9347576383682943e-01  2.6216783098752666e-01  3.4206540736615904e-01  4.3074086858918581e-01  5.2584526707973500e-01  6.2513570057298018e-01  7.2645921997181750e-01  8.2771337994035199e-01  9.2679740693873058e-01  1.0215643258633216e+00  1.1097842009797203e+00  1.1891317510171646e+00  1.2572168197802389e+00  1.3116810456833790e+00  1.3503868421751080e+00  1.3717419035331624e+00  1.3753771698344115e+00  1.0814804001748310e-01  1.1185453551302448e-01  1.3197297299790234e-01  1.6833938672819410e-01  2.1965991695231066e-01  2.8409794261222471e-01  3.5953934019635508e-01  4.4375405680093194e-01  5.3449192340873874e-01  6.2952825411644697e-01  7.2667384191078621e-01  8.2376318520710667e-01  9.1863287848330077e-01  1.0091005871217795e+00  1.0929548371042652e+00  1.1679669338576499e+00  1.2319376867464840e+00  1.2827917221271576e+00  1.3187320404454843e+00  1.3384875527407289e+00  1.3418639430676593e+00  1.3703142921172551e-01  1.4046744808442127e-01  1.5928125826113068e-01  1.9340996932008209e-01  2.4177944667775964e-01  3.0280154027505402e-01  3.7458207643055075e-01  4.5505206031319256e-01  5.4205581158006688e-01  6.3340450428415984e-01  7.2690278335608638e-01  8.2035741022734443e-01  9.1157719042265950e-01  9.9837322325562017e-01  1.0785683668054196e+00  1.1500247227169564e+00  1.2106973289711267e+00  1.2587205929954859e+00  1.2925340946761967e+00  1.3110778671947461e+00  1.3142635625590418e+00  1.5974194098891320e-01  1.6297430484914260e-01  1.8082184152267433e-01  2.1328088063942535e-01  2.5942029628446955e-01  3.1782104167893793e-01  3.8674627790908533e-01  4.6424990121792209e-01  5.4825618835164158e-01  6.3661605435337421e-01  7.2714375678079968e-01  8.1763963938132966e-01  9.0590574837145033e-01  9.8976160894711751e-01  1.0670673504466730e+00  1.1357607210265139e+00  1.1939131097182012e+00  1.2398077161480978e+00  1.2720441902234805e+00  1.2896999651748497e+00  1.2927516586952279e+00  1.7617901661498356e-01  1.7926403619417014e-01  1.9643922507535524e-01  2.2773395438682073e-01  2.7230646472276937e-01  3.2884708456278228e-01  3.9572445727983790e-01  4.7107872236049442e-01  5.5289426870345759e-01  6.3905642804640972e-01  7.2739394846032546e-01  8.1571073697168361e-01  9.0181190041272685e-01  9.8352985667923054e-01  1.0587562295398283e+00  1.1254843853552230e+00  1.1818658299140714e+00  1.2262819102966958e+00  1.2574344881995523e+00  1.2744866154801988e+00  1.2774542466256935e+00  1.8627863786186086e-01  1.8926622540159121e-01  2.0603600680552941e-01  2.3663289541124699e-01  2.8026440357147098e-01  3.3568296351012372e-01  4.0131862133735274e-01  4.7536326709351995e-01  5.5583897863587017e-01  6.4065444061739485e-01  7.2765032932882812e-01  8.1463600446756146e-01  8.9942144198744789e-01  9.7984919180762176e-01  1.0538311170081669e+00  1.1193937708664841e+00  1.1747346307572559e+00  1.2182899005762358e+00  1.2488175126095069e+00  1.2655271322789829e+00  1.2684568852290259e+00  1.9000807744661746e-01  1.9294447305022838e-01  2.0956091463954846e-01  2.3990476747838449e-01  2.8319988954937625e-01  3.3822045885554497e-01  4.0341849092975440e-01  4.7700477076257386e-01  5.5701552832837253e-01  6.4136862440720566e-01  7.2790980847312803e-01  8.1445099253904862e-01  8.9880408861788108e-01  9.7881484618367787e-01  1.0524011260164956e+00  1.1175991580907050e+00  1.1726197273968726e+00  1.2159148494678638e+00  1.2462587023066987e+00  1.2628751438960175e+00  1.2658115394996288e+00  1.8736273171722037e-01  1.9029248466726306e-01  2.0700210433674032e-01  2.3752971637001180e-01  2.8108498618899364e-01  3.3642584607976628e-01  4.0198849993808483e-01  4.7597042513863203e-01  5.5639817495880572e-01  6.4118361247869415e-01  7.2816928761742927e-01  8.1516517632886187e-01  8.9998063831038400e-01  9.8045634985273145e-01  1.0545009956088973e+00  1.1201366534361255e+00  1.1755552133747804e+00  1.2191867215350025e+00  1.2497836101407205e+00  1.2665533915446574e+00  1.2695409790843881e+00  1.7836537032055183e-01  1.8133300146604783e-01  1.9838512874669412e-01  2.2953770664955256e-01  2.7395378703217849e-01  3.3033523159102851e-01  3.9706338740642499e-01  4.7228976026702413e-01  5.5400771653352832e-01  6.4010887997457344e-01  7.2842566848593326e-01  8.1676318889984834e-01  9.0292534824279846e-01  9.8474089458575931e-01  1.0600951596664159e+00  1.1269725323834712e+00  1.1835131522234852e+00  1.2280856625594325e+00  1.2593803918708986e+00  1.2765555807520832e+00  1.2796406003312690e+00  1.6306795825102138e-01  1.6611965177140001e-01  1.8377542672276972e-01  2.1601190079815241e-01  2.6190650722805203e-01  3.2005889591973991e-01  3.8875226649958339e-01  4.6605800799913943e-01  5.4991386857480784e-01  6.3817997756492972e-01  7.2867586016546271e-01  8.1920356259288907e-01  9.0756342859461903e-01  9.9156971572833463e-01  1.0690733390371721e+00  1.1379985752673190e+00  1.1963993206617891e+00  1.2425387363068332e+00  1.2749977754235824e+00  1.2928453120971133e+00  1.2960776759573427e+00  1.4155605438721017e-01  1.4474174975150622e-01  1.6328552227005658e-01  1.9709902395076898e-01  2.4512228797513008e-01  3.0579489422930106e-01  3.7725125014084054e-01  4.5744639369064138e-01  5.4424242652360311e-01  6.3546220671891929e-01  7.2891683359017978e-01  8.2241511266210732e-01  9.1376380536619806e-01  1.0007675566330698e+00  1.0812375405157102e+00  1.1530180766712070e+00  1.2140401702685033e+00  1.2624096476261790e+00  1.2965383586851280e+00  1.3153521688618366e+00  1.3187881877345324e+00  1.1395567387859899e-01  1.1733206420552872e-01  1.3708757650077477e-01  1.7302789481910255e-01  2.2388193019977920e-01  2.8785268308861484e-01  3.6286477984200133e-01  4.4671902982448880e-01  5.3718673846296949e-01  6.3205643173916481e-01  7.2914577503548639e-01  8.2629136282982607e-01  9.2132769353753341e-01  1.0120655601453397e+00  1.0962802767499156e+00  1.1717216743340457e+00  1.2361596999939588e+00  1.2874802302180721e+00  1.3238466439483612e+00  1.3439650814332369e+00  1.3476715769287788e+00  8.0442447111853929e-02  8.4077713413101982e-02  1.0543277477115851e-01  1.4413857126288776e-01  1.9860279716603077e-01  2.6668786592910743e-01  3.4603541596655346e-01  4.3425529108295369e-01  5.2902221000754790e-01  6.2810623700592849e-01  7.2936039697446386e-01  8.3068391637330286e-01  9.2997434986654659e-01  1.0250787483570958e+00  1.1137542095801209e+00  1.1936517859587508e+00  1.2623438531094462e+00  1.3174211728006775e+00  1.3566904030538469e+00  1.3785230489821125e+00  1.3825839617042037e+00  4.1252979438202893e-02  4.5234820781578915e-02  6.8680801510840328e-02  1.1092672603912607e-01  1.6988935664999733e-01  2.4294889643365572e-01  3.2738044452483317e-01  4.2057472111262750e-01  5.2012097976902771e-01  6.2380474085257487e-01  7.2955946335703648e-01  8.3539658573347408e-01  9.3932700241975242e-01  1.0392811409565095e+00  1.1330348478834347e+00  1.2181546427899634e+00  1.2919887051277728e+00  1.3517471963715062e+00  1.3947322378667464e+00  1.4188030157599607e+00  1.4233306471762781e+00  -3.3013760552914172e-03  1.1489436403039541e-03  2.7346560894852663e-02  7.4111654751693345e-02  1.3860395878741311e-01  2.1753477892121281e-01  3.0773022203536182e-01  4.0635794228970151e-01  5.1096115996603431e-01  6.1939791436131209e-01  7.2974355372835953e-01  8.4018352888707104e-01  9.4890476303201887e-01  1.0539852907325251e+00  1.1532814896659556e+00  1.2443206583662849e+00  1.3242273410517120e+00  1.3897478589010666e+00  1.4374843353023172e+00  1.4645037328643211e+00  1.4696591781656978e+00  -5.2817502624090892e-02  -4.7712794999720011e-02  -1.7819901774883309e-02  3.4742514606518476e-02  1.0596192675699026e-01  1.9165717111759423e-01  2.8815600660890839e-01  3.9245091401294629e-01  5.0212095168589477e-01  6.1517923896877480e-01  7.2991597809853737e-01  8.4475649994322943e-01  9.5813046394666812e-01  1.0683394649024667e+00  1.1734092154490388e+00  1.2709196204413917e+00  1.3578303347964651e+00  1.4303782550402038e+00  1.4842305327935514e+00  1.5152214552759957e+00  1.5212550368144111e+00  -1.0677915216963668e-01  -1.0070009582232187e-01  -6.5684604453307593e-02  -5.6347690350843005e-03  7.3647630699991626e-02  1.6688598029136997e-01  2.6996177363506457e-01  3.7983095908836018e-01  4.9424313383092139e-01  6.1146848621491900e-01  7.3008348940110090e-01  8.4880791685840440e-01  9.6636901878222325e-01  1.0813651214475564e+00  1.1920992177874077e+00  1.2963525979914190e+00  1.3910814048746456e+00  1.4720838705489203e+00  1.5338791271785650e+00  1.5704038355104157e+00  1.5777442352995701e+00  -1.6453494128696125e-01  -1.5683194924420080e-01  -1.1443507475971561e-01  -4.4727873447748256e-02  4.3919063252951300e-02  1.4512604886532518e-01  2.5459374469054957e-01  3.6950332814232933e-01  4.8795245357884048e-01  6.0856685309071523e-01  7.3025597974285172e-01  8.5205602609908593e-01  9.7301298613998921e-01  1.0920669750224929e+00  1.2078978095306196e+00  1.3186783988204034e+00  1.4216605135500648e+00  1.5125280120726066e+00  1.5846627335937309e+00  1.6292356845796172e+00  1.6387127520937277e+00  -2.2530808107099642e-01  -2.1437682076475426e-01  -1.6099938711365183e-01  -7.9198189881948655e-02  1.9583341643982996e-02  1.2841509393339542e-01  2.4339834494321289e-01  3.6229476536807209e-01  4.8371328020568044e-01  6.0668459952256404e-01  7.3044383420407999e-01  8.5431308586117694e-01  9.7762467747479487e-01  1.0996472965771114e+00  1.2194779107563705e+00  1.3358400815074847e+00  1.4466687396218816e+00  1.5482368824854043e+00  1.6335068983589629e+00  1.6902884583360394e+00  1.7037635914927642e+00  -2.8837448800755300e-01  -2.6958151311522854e-01  -2.0007352263088807e-01  -1.0460392583640696e-01  3.5341424789501604e-03  1.1836311408189058e-01  2.3716029627944457e-01  3.5853422444799171e-01  4.8163694704661097e-01  6.0584935831165676e-01  7.3065148902387433e-01  8.5556444634258233e-01  9.8011827886184499e-01  1.1038229367751995e+00  1.2261216683177265e+00  1.3462888460280789e+00  1.4631731980984437e+00  1.5744963879710085e+00  1.6748154967080766e+00  1.7502883752774872e+00  1.7726049819220626e+00  -3.5330976842261508e-01  -3.1319125107576218e-01  -2.2353669029283102e-01  -1.1666537342137918e-01  -2.7196752191475898e-03  1.1507498389036872e-01  2.3544436584479878e-01  3.5768820443445110e-01  4.8129498123578912e-01  6.0582433431911420e-01  7.3086637231107243e-01  8.5602608104878453e-01  9.8091666140078093e-01  1.1051549791219011e+00  1.2283538558458911e+00  1.3501022349799572e+00  1.4699065933428417e+00  1.5869841059834746e+00  1.6993889774045048e+00  1.7995380583065046e+00  1.8445180001316153e+00  -3.9112827331886380e-01  -3.2550087675839795e-01  -2.2553004395543941e-01  -1.1624783530133694e-01  -1.9343045704171727e-03  1.1579608056950645e-01  2.3603744655732881e-01  3.5815805935260714e-01  4.8165456429551023e-01  6.0608566379506879e-01  7.3104070758624129e-01  8.5612536251849314e-01  9.8095523550448382e-01  1.1051522116506651e+00  1.2283394741764109e+00  1.3501298409253308e+00  1.4700949632678451e+00  1.5876737781336612e+00  1.7018182307677694e+00  1.8091392151396706e+00  1.9066730880157312e+00  </DataArray> 
</PointData> 
</Piece>
</UnstructuredGrid>
</VTKFile>