<?xml version="1.0"?>
<VTKFile type="UnstructuredGrid"  version="0.1"  >
<UnstructuredGrid>
<Piece  NumberOfPoints="651" NumberOfCells="1200">
<Points>
<DataArray  type="Float64"  NumberOfComponents="3"  format="ascii">0 0 0  50000 0 0  100000 0 0  150000 0 0  200000 0 0  250000 0 0  300000 0 0  350000 0 0  400000 0 0  450000 0 0  500000 0 0  550000 0 0  600000 0 0  650000 0 0  700000 0 0  750000 0 0  800000 0 0  850000 0 0  900000 0 0  950000 0 0  1000000 0 0  0 50000 0  50000 50000 0  100000 50000 0  150000 50000 0  200000 50000 0  250000 50000 0  300000 50000 0  350000 50000 0  400000 50000 0  450000 50000 0  500000 50000 0  550000 50000 0  600000 50000 0  650000 50000 0  700000 50000 0  750000 50000 0  800000 50000 0  850000 50000 0  900000 50000 0  950000 50000 0  1000000 50000 0  0 100000 0  50000 100000 0  100000 100000 0  150000 100000 0  200000 100000 0  250000 100000 0  300000 100000 0  350000 100000 0  400000 100000 0  450000 100000 0  500000 100000 0  550000 100000 0  600000 100000 0  650000 100000 0  700000 100000 0  750000 100000 0  800000 100000 0  850000 100000 0  900000 100000 0  950000 100000 0  1000000 100000 0  0 150000 0  50000 150000 0  100000 150000 0  150000 150000 0  200000 150000 0  250000 150000 0  300000 150000 0  350000 150000 0  400000 150000 0  450000 150000 0  500000 150000 0  550000 150000 0  600000 150000 0  650000 150000 0  700000 150000 0  750000 150000 0  800000 150000 0  850000 150000 0  900000 150000 0  950000 150000 0  1000000 150000 0  0 200000 0  50000 200000 0  100000 200000 0  150000 200000 0  200000 200000 0  250000 200000 0  300000 200000 0  350000 200000 0  400000 200000 0  450000 200000 0  500000 200000 0  550000 200000 0  600000 200000 0  650000 200000 0  700000 200000 0  750000 200000 0  800000 200000 0  850000 200000 0  900000 200000 0  950000 200000 0  1000000 200000 0  0 250000 0  50000 250000 0  100000 250000 0  150000 250000 0  200000 250000 0  250000 250000 0  300000 250000 0  350000 250000 0  400000 250000 0  450000 250000 0  500000 250000 0  550000 250000 0  600000 250000 0  650000 250000 0  700000 250000 0  750000 250000 0  800000 250000 0  850000 250000 0  900000 250000 0  950000 250000 0  1000000 250000 0  0 300000 0  50000 300000 0  100000 300000 0  150000 300000 0  200000 300000 0  250000 300000 0  300000 300000 0  350000 300000 0  400000 300000 0  450000 300000 0  500000 300000 0  550000 300000 0  600000 300000 0  650000 300000 0  700000 300000 0  750000 300000 0  800000 300000 0  850000 300000 0  900000 300000 0  950000 300000 0  1000000 300000 0  0 350000 0  50000 350000 0  100000 350000 0  150000 350000 0  200000 350000 0  250000 350000 0  300000 350000 0  350000 350000 0  400000 350000 0  450000 350000 0  500000 350000 0  550000 350000 0  600000 350000 0  650000 350000 0  700000 350000 0  750000 350000 0  800000 350000 0  850000 350000 0  900000 350000 0  950000 350000 0  1000000 350000 0  0 400000 0  50000 400000 0  100000 400000 0  150000 400000 0  200000 400000 0  250000 400000 0  300000 400000 0  350000 400000 0  400000 400000 0  450000 400000 0  500000 400000 0  550000 400000 0  600000 400000 0  650000 400000 0  700000 400000 0  750000 400000 0  800000 400000 0  850000 400000 0  900000 400000 0  950000 400000 0  1000000 400000 0  0 450000 0  50000 450000 0  100000 450000 0  150000 450000 0  200000 450000 0  250000 450000 0  300000 450000 0  350000 450000 0  400000 450000 0  450000 450000 0  500000 450000 0  550000 450000 0  600000 450000 0  650000 450000 0  700000 450000 0  750000 450000 0  800000 450000 0  850000 450000 0  900000 450000 0  950000 450000 0  1000000 450000 0  0 500000 0  50000 500000 0  100000 500000 0  150000 500000 0  200000 500000 0  250000 500000 0  300000 500000 0  350000 500000 0  400000 500000 0  450000 500000 0  500000 500000 0  550000 500000 0  600000 500000 0  650000 500000 0  700000 500000 0  750000 500000 0  800000 500000 0  850000 500000 0  900000 500000 0  950000 500000 0  1000000 500000 0  0 550000 0  50000 550000 0  100000 550000 0  150000 550000 0  200000 550000 0  250000 550000 0  300000 550000 0  350000 550000 0  400000 550000 0  450000 550000 0  500000 550000 0  550000 550000 0  600000 550000 0  650000 550000 0  700000 550000 0  750000 550000 0  800000 550000 0  850000 550000 0  900000 550000 0  950000 550000 0  1000000 550000 0  0 600000 0  50000 600000 0  100000 600000 0  150000 600000 0  200000 600000 0  250000 600000 0  300000 600000 0  350000 600000 0  400000 600000 0  450000 600000 0  500000 600000 0  550000 600000 0  600000 600000 0  650000 600000 0  700000 600000 0  750000 600000 0  800000 600000 0  850000 600000 0  900000 600000 0  950000 600000 0  1000000 600000 0  0 650000 0  50000 650000 0  100000 650000 0  150000 650000 0  200000 650000 0  250000 650000 0  300000 650000 0  350000 650000 0  400000 650000 0  450000 650000 0  500000 650000 0  550000 650000 0  600000 650000 0  650000 650000 0  700000 650000 0  750000 650000 0  800000 650000 0  850000 650000 0  900000 650000 0  950000 650000 0  1000000 650000 0  0 700000 0  50000 700000 0  100000 700000 0  150000 700000 0  200000 700000 0  250000 700000 0  300000 700000 0  350000 700000 0  400000 700000 0  450000 700000 0  500000 700000 0  550000 700000 0  600000 700000 0  650000 700000 0  700000 700000 0  750000 700000 0  800000 700000 0  850000 700000 0  900000 700000 0  950000 700000 0  1000000 700000 0  0 750000 0  50000 750000 0  100000 750000 0  150000 750000 0  200000 750000 0  250000 750000 0  300000 750000 0  350000 750000 0  400000 750000 0  450000 750000 0  500000 750000 0  550000 750000 0  600000 750000 0  650000 750000 0  700000 750000 0  750000 750000 0  800000 750000 0  850000 750000 0  900000 750000 0  950000 750000 0  1000000 750000 0  0 800000 0  50000 800000 0  100000 800000 0  150000 800000 0  200000 800000 0  250000 800000 0  300000 800000 0  350000 800000 0  400000 800000 0  450000 800000 0  500000 800000 0  550000 800000 0  600000 800000 0  650000 800000 0  700000 800000 0  750000 800000 0  800000 800000 0  850000 800000 0  900000 800000 0  950000 800000 0  1000000 800000 0  0 850000 0  50000 850000 0  100000 850000 0  150000 850000 0  200000 850000 0  250000 850000 0  300000 850000 0  350000 850000 0  400000 850000 0  450000 850000 0  500000 850000 0  550000 850000 0  600000 850000 0  650000 850000 0  700000 850000 0  750000 850000 0  800000 850000 0  850000 850000 0  900000 850000 0  950000 850000 0  1000000 850000 0  0 900000 0  50000 900000 0  100000 900000 0  150000 900000 0  200000 900000 0  250000 900000 0  300000 900000 0  350000 900000 0  400000 900000 0  450000 900000 0  500000 900000 0  550000 900000 0  600000 900000 0  650000 900000 0  700000 900000 0  750000 900000 0  800000 900000 0  850000 900000 0  900000 900000 0  950000 900000 0  1000000 900000 0  0 950000 0  50000 950000 0  100000 950000 0  150000 950000 0  200000 950000 0  250000 950000 0  300000 950000 0  350000 950000 0  400000 950000 0  450000 950000 0  500000 950000 0  550000 950000 0  600000 950000 0  650000 950000 0  700000 950000 0  750000 950000 0  800000 950000 0  850000 950000 0  900000 950000 0  950000 950000 0  1000000 950000 0  0 1000000 0  50000 1000000 0  100000 1000000 0  150000 1000000 0  200000 1000000 0  250000 1000000 0  300000 1000000 0  350000 1000000 0  400000 1000000 0  450000 1000000 0  500000 1000000 0  550000 1000000 0  600000 1000000 0  650000 1000000 0  700000 1000000 0  750000 1000000 0  800000 1000000 0  850000 1000000 0  900000 1000000 0  950000 1000000 0  1000000 1000000 0  0 1050000 0  50000 1050000 0  100000 1050000 0  150000 1050000 0  200000 1050000 0  250000 1050000 0  300000 1050000 0  350000 1050000 0  400000 1050000 0  450000 1050000 0  500000 1050000 0  550000 1050000 0  600000 1050000 0  650000 1050000 0  700000 1050000 0  750000 1050000 0  800000 1050000 0  850000 1050000 0  900000 1050000 0  950000 1050000 0  1000000 1050000 0  0 1100000 0  50000 1100000 0  100000 1100000 0  150000 1100000 0  200000 1100000 0  250000 1100000 0  300000 1100000 0  350000 1100000 0  400000 1100000 0  450000 1100000 0  500000 1100000 0  550000 1100000 0  600000 1100000 0  650000 1100000 0  700000 1100000 0  750000 1100000 0  800000 1100000 0  850000 1100000 0  900000 1100000 0  950000 1100000 0  1000000 1100000 0  0 1150000 0  50000 1150000 0  100000 1150000 0  150000 1150000 0  200000 1150000 0  250000 1150000 0  300000 1150000 0  350000 1150000 0  400000 1150000 0  450000 1150000 0  500000 1150000 0  550000 1150000 0  600000 1150000 0  650000 1150000 0  700000 1150000 0  750000 1150000 0  800000 1150000 0  850000 1150000 0  900000 1150000 0  950000 1150000 0  1000000 1150000 0  0 1200000 0  50000 1200000 0  100000 1200000 0  150000 1200000 0  200000 1200000 0  250000 1200000 0  300000 1200000 0  350000 1200000 0  400000 1200000 0  450000 1200000 0  500000 1200000 0  550000 1200000 0  600000 1200000 0  650000 1200000 0  700000 1200000 0  750000 1200000 0  800000 1200000 0  850000 1200000 0  900000 1200000 0  950000 1200000 0  1000000 1200000 0  0 1250000 0  50000 1250000 0  100000 1250000 0  150000 1250000 0  200000 1250000 0  250000 1250000 0  300000 1250000 0  350000 1250000 0  400000 1250000 0  450000 1250000 0  500000 1250000 0  550000 1250000 0  600000 1250000 0  650000 1250000 0  700000 1250000 0  750000 1250000 0  800000 1250000 0  850000 1250000 0  900000 1250000 0  950000 1250000 0  1000000 1250000 0  0 1300000 0  50000 1300000 0  100000 1300000 0  150000 1300000 0  200000 1300000 0  250000 1300000 0  300000 1300000 0  350000 1300000 0  400000 1300000 0  450000 1300000 0  500000 1300000 0  550000 1300000 0  600000 1300000 0  650000 1300000 0  700000 1300000 0  750000 1300000 0  800000 1300000 0  850000 1300000 0  900000 1300000 0  950000 1300000 0  1000000 1300000 0  0 1350000 0  50000 1350000 0  100000 1350000 0  150000 1350000 0  200000 1350000 0  250000 1350000 0  300000 1350000 0  350000 1350000 0  400000 1350000 0  450000 1350000 0  500000 1350000 0  550000 1350000 0  600000 1350000 0  650000 1350000 0  700000 135
[...]
<PointData  Scalars="f_25"> 
<DataArray  type="Float64"  Name="f_25"  format="ascii">-8.4609246877018816e+00  -7.7081606977719197e+00  -6.8728002189803270e+00  -5.9814009442237861e+00  -5.0615874088937725e+00  -4.1219638734553863e+00  -3.1671845617769989e+00  -2.2007984822528557e+00  -1.2259985042652215e+00  -2.4588071548017451e-01  7.3645272627444447e-01  1.7178453051759048e+00  2.6950477488185181e+00  3.6646556949005182e+00  4.6229792492851205e+00  5.5657656919035290e+00  6.4876147656857119e+00  7.3806799373440226e+00  8.2308951027519761e+00  9.0024475916975906e+00  9.5025659798821227e+00  -7.9839342962410678e+00  -7.6413207429441536e+00  -6.8590595368525493e+00  -5.9795343676321266e+00  -5.0626186889684055e+00  -4.1236617819970807e+00  -3.1688655587899053e+00  -2.2021854053315444e+00  -1.2269451791731543e+00  -2.4628940913536163e-01  7.3666307414621091e-01  1.7187575003214004e+00  2.6967645790412642e+00  3.6673242665460983e+00  4.6268184900758591e+00  5.5710442670971139e+00  6.4942698742561946e+00  7.3861308281446565e+00  8.2205371571217913e+00  8.9160775594989818e+00  9.2159526337336839e+00  -7.4332092148217388e+00  -7.2660170575380656e+00  -6.6771190069684776e+00  -5.8905363547575931e+00  -5.0169084291534087e+00  -4.0993429471729117e+00  -3.1557499554222810e+00  -2.1951628316775582e+00  -1.2232983307900629e+00  -2.4457272166473040e-01  7.3710349722798563e-01  1.7179656646104877e+00  2.6941708096594379e+00  3.6615476968784302e+00  4.6151412231164821e+00  5.5481869876041676e+00  6.4496073369616385e+00  7.2977137253275526e+00  8.0448096867222922e+00  8.5848089502758747e+00  8.7210273941858478e+00  -6.9061545747982080e+00  -6.8067131610408413e+00  -6.3641761291996719e+00  -5.6950200897505816e+00  -4.8966033695407525e+00  -4.0250401363135300e+00  -3.1098433969927508e+00  -2.1672770932492438e+00  -1.2073744770053028e+00  -2.3724173157536860e-01  7.3735055989748732e-01  1.7111202396673428e+00  2.6786965302537658e+00  3.6340183288908952e+00  4.5694079413829334e+00  5.4738459515600182e+00  6.3295793286384852e+00  7.1056188022586619e+00  7.7467641124902622e+00  8.1618171658225620e+00  8.2400301947432997e+00  -6.4081836827584517e+00  -6.3388858641663681e+00  -5.9916785582835841e+00  -5.4252158099386190e+00  -4.7099592290488257e+00  -3.8987789610176371e+00  -3.0260154871935976e+00  -2.1134250192007684e+00  -1.1754191849311446e+00  -2.2239439912997239e-01  7.3730275234621134e-01  1.6961530469662272e+00  2.6465521575998028e+00  3.5798874244972398e+00  4.4852935183099207e+00  5.3477070633707919e+00  6.1447628880683043e+00  6.8422728191360980e+00  7.3894113035364226e+00  7.7195166993048678e+00  7.7748417392654900e+00  -5.9414141558689986e+00  -5.8879499441785557e+00  -5.6033599590294907e+00  -5.1176624626583340e+00  -4.4792337685206860e+00  -3.7319071962524379e+00  -2.9091979800930878e+00  -2.0352883366135686e+00  -1.1277407024579411e+00  -1.9995418164571602e-01  7.3701764120498114e-01  1.6731394762327068e+00  2.5983109153370427e+00  3.5012881155170250e+00  4.3683867391526308e+00  5.1817703418012639e+00  5.9172607120768141e+00  6.5420749129267479e+00  7.0141434958143982e+00  7.2872824135771408e+00  7.3313865610116782e+00  -5.5088600101994176e+00  -5.4649431875459804e+00  -5.2232427944021422e+00  -4.7994816578931756e+00  -4.2268954710922229e+00  -3.5401795947889778e+00  -2.7694038008821966e+00  -1.9387809180246758e+00  -1.0675199400162199e+00  -1.7124982261761362e-01  7.3660692966104602e-01  1.6436479276741105e+00  2.5374330915045373e+00  3.4044409087982146e+00  4.2289339111777666e+00  4.9916994904416310e+00  5.6688188877152159e+00  6.2310240999005435e+00  6.6449404270193835e+00  6.8786236261750471e+00  6.9160296351584805e+00  -5.1137264335971944e+00  -5.0761574634197499e+00  -4.8651280785068343e+00  -4.4889561193719842e+00  -3.9710531013767736e+00  -3.3386683082542659e+00  -2.6178433686436224e+00  -1.8315211245724357e+00  -9.9937000914819163e-01  -1.3839711463612864e-01  7.3617605079329484e-01  1.6100025342827160e+00  2.4687227895328649e+00  3.2970928723763051e+00  4.0781227290876139e+00  4.7922882064653551e+00  5.4170316691202558e+00  5.9270183644891974e+00  6.2959544232813922e+00  6.5012074892870135e+00  6.5340766433303807e+00  -4.7589397521117478e+00  -4.7258731358033312e+00  -4.5375433592662304e+00  -4.1982661861685218e+00  -3.7251493353630587e+00  -3.1398669793736200e+00  -2.4647850883820506e+00  -1.7210971298087756e+00  -9.2819383962927038e-01  -1.0375435336878358e-01  7.3579962223262707e-01  1.5746992634891794e+00  2.3971809623393914e+00  3.1868510983296803e+00  3.9261184071684014e+00  4.5957966834334680e+00  5.1750728288392667e+00  5.6421575574689671e+00  5.9760605162944236e+00  6.1601510201336378e+00  6.1897268486891264e+00  -4.4469806561231353e+00  -4.4172398624106517e+00  -4.2460932508001168e+00  -3.9356130408424774e+00  -3.4988381135105131e+00  -2.9534256060586381e+00  -2.3187227863506306e+00  -1.6141610359954219e+00  -8.5848639484453959e-01  -6.9555852811198221e-02  7.3551873909673526e-01  1.5400421981520687e+00  2.3273345383477921e+00  3.0803380297119300e+00  3.7813126424846883e+00  4.4117249455447904e+00  4.9524787020365215e+00  5.3846785820926328e+00  5.6911544350589516e+00  5.8591604488609397e+00  5.8862636667541430e+00  -4.1798548257592172e+00  -4.1526254271820902e+00  -3.9946081529329511e+00  -3.7065851820358908e+00  -3.2989430650302278e+00  -2.7865004771102417e+00  -2.1862633594989971e+00  -1.5161070742696570e+00  -7.9401385998000329e-01  -3.7720488673612614e-02  7.3534772631205614e-01  1.5079694942270543e+00  2.2629424597939969e+00  2.9829033122937836e+00  3.6502342211530454e+00  4.2471457403629289e+00  4.7560384604554882e+00  5.1602501973489767e+00  5.4453066392359153e+00  5.6009998783632007e+00  5.6262299453196123e+00  -3.9591202495469147e+00  -3.9337965346080086e+00  -3.7857490815785049e+00  -3.5150105565113234e+00  -3.1302294593241458e+00  -2.6442487412827398e+00  -2.0723293780482099e+00  -1.4310769677973363e+00  -7.3773901173674072e-01  -9.7871621773509259e-03  7.3528280198092089e-01  1.4800069638253446e+00  2.2069398368723521e+00  2.8986437893110875e+00  3.5377522621135742e+00  4.1071772938160711e+00  4.5905279649674071e+00  4.9727962814895816e+00  5.2413788642592340e+00  5.3877339933826018e+00  5.4115650260833883e+00  -3.7859366890124559e+00  -3.7620379768849346e+00  -3.6213566064162754e+00  -3.3634949798879203e+00  -2.9959726282088099e+00  -2.5302887254134525e+00  -1.9804560827548756e+00  -1.3621107499661260e+00  -6.9187653358622669e-01  1.3075660068164505e-02  7.3530936661974344e-01  1.4572915818634797e+00  2.1615046391817763e+00  2.8305594968959986e+00  3.4473680782460203e+00  3.9954273560603211e+00  4.4592573471388626e+00  4.8250221698100288e+00  5.0813832203331897e+00  5.2208825571278155e+00  5.2437146653065776e+00  -3.6611203572374622e+00  -3.6382421311912845e+00  -3.5026689511727627e+00  -3.2537700606988813e+00  -2.8983609568128990e+00  -2.4470719557949185e+00  -1.9130787888584975e+00  -1.3113364265779366e+00  -6.5799858042953441e-01  3.0027065479276385e-02  7.3540708879183925e-01  1.4406235921458521e+00  2.1281694826582220e+00  2.7807443624754442e+00  3.3814970822400729e+00  3.9143543656293138e+00  4.3644625330875044e+00  4.7187577770924705e+00  4.9667083355513695e+00  5.1015317523194481e+00  5.1237210962563386e+00  -3.5851938563637020e+00  -3.5629775499206140e+00  -3.4304642657364983e+00  -3.1869198725200487e+00  -2.8387727476820475e+00  -2.3961596065894653e+00  -1.8717681138071858e+00  -1.2801435573935116e+00  -6.3714378810293482e-01  4.0503586597872725e-02  7.3555300467904194e-01  1.4305219781437797e+00  2.1079335672502086e+00  2.7505590665658928e+00  3.3416994185405597e+00  3.8655368519701221e+00  4.3075758305017811e+00  4.6551828621391511e+00  4.8982680745823988e+00  5.0304173465741542e+00  5.0522953102654737e+00  -3.5584248341941560e+00  -3.5365379815520335e+00  -3.4051516303577931e+00  -3.1635239648418398e+00  -2.8179559700334775e+00  -2.3784105999863114e+00  -1.8573992391252272e+00  -1.2693158030461642e+00  -6.2990539740924278e-01  4.4176556888375212e-02  7.3572315620348361e-01  1.4272697555185780e+00  2.1013517098161909e+00  2.7407621154531103e+00  3.3288455515321766e+00  3.8498569123932582e+00  4.2894022824404177e+00  4.6349702772488230e+00  4.8765979427647697e+00  5.0079842939590211e+00  5.0298711466011561e+00  -3.5808489978584781e+00  -3.5589710341671639e+00  -3.4268217621754244e+00  -3.1837365497321857e+00  -2.8361295180948383e+00  -2.3940905395631980e+00  -1.8702531061336236e+00  -1.2791127541589646e+00  -6.3648725484328139e-01  4.0924334263172039e-02  7.3589330772793071e-01  1.4309427258090965e+00  2.1085901005098964e+00  2.7515898698004628e+00  3.3432144262141401e+00  3.8676059189964289e+00  4.3102190600890138e+00  4.6583661849270301e+00  4.9019105781435295e+00  5.0344238623276683e+00  5.0566401687707545e+00  -3.6522747838493350e+00  -3.6300854399124609e+00  -3.4952620231443996e+00  -3.2473114646855015e+00  -2.8930162206805767e+00  -2.4429080532224110e+00  -1.9100507698331572e+00  -1.3092980500685207e+00  -6.5672317025128368e-01  3.0822720261117369e-02  7.3603922361515173e-01  1.4414192469277176e+00  2.1294448928365171e+00  2.7827827389849111e+00  3.3845251012654844e+00  3.9185182682019093e+00  4.3698072692198950e+00  4.7252163731058809e+00  4.9741152635798400e+00  5.1096884435984151e+00  5.1325666696445795e+00  -3.7722683528995420e+00  -3.7494362447207727e+00  -3.6099369079261656e+00  -3.3535758574030052e+00  -2.9878110347319002e+00  -2.5239810436534005e+00  -1.9759217658390797e+00  -1.3591131844890496e+00  -6.9005832677480228e-01  1.4154730543514928e-02  7.3613694578728239e-01  1.4583706523388722e+00  2.1633228459932496e+00  2.8335570623731332e+00  3.4519023951618841e+00  4.0017350378204668e+00  4.4674189406158709e+00  4.8349412922949755e+00  5.0928029188233417e+00  5.2334842892919999e+00  5.2573830014195249e+00  -3.9401187136763403e+00  -3.9162876809755627e+00  -3.7699325518521976e+00  -3.5013499690825793e+00  -3.1190816525604137e+00  -2.6357309814091043e+00  -2.0663059497066052e+00  -1.4271974769041014e+00  -7.3549352446534122e-01  -8.5606514183149945e-03  7.3616351042613581e-01  1.4812334745844169e+00  2.2091853241438004e+00  2.9025232802043672e+00  3.5437756904552313e+00  4.1156950536897483e+00  4.6016757717312071e+00  4.9864568689183759e+00  5.2571953939855236e+00  5.4052428470150122e+00  5.4305665619539329e+00  -4.1547836329125136e+00  -4.1295535659561127e+00  -3.9738603268288366e+00  -3.6888038849419287e+00  -3.2845921480484352e+00  -2.7756994279558778e+00  -2.1787879087459987e+00  -1.5114569998867371e+00  -7.9149614738693108e-01  -3.6523181819972710e-02  7.3609858609504752e-01  1.5091668010807233e+00  2.2654601723871148e+00  2.9875533866767627e+00  3.6577096719061046e+00  4.2579467895173320e+00  4.7703893774372981e+00  5.1780314944429344e+00  5.4660544653399903e+00  5.6240717395891009e+00  5.6513011381662208e+00  -4.4148173543469671e+00  -4.3877141364538117e+00  -4.2197081226518138e+00  -3.9132322696855306e+00  -3.4810323896294184e+00  -2.9402786331376776e+00  -2.3098663300775821e+00  -1.6088917173048312e+00  -8.5588822594067060e-01  -6.8595885744917637e-02  7.3592757331043335e-01  1.5410021652183765e+00  2.3299327072517131e+00  3.0856073484026103e+00  3.7901690987578198e+00  4.4248719184657999e+00  4.9702844259176286e+00  5.4070593532495481e+00  5.7175395632071728e+00  5.8886861748176704e+00  5.9184269685301114e+00  -4.7182805362819398e+00  -4.6887047077264743e+00  -4.5046142038872325e+00  -4.1707112450618000e+00  -3.7036265164321098e+00  -3.1243503710263001e+00  -2.4546720947612379e+00  -1.7154047859224908e+00  -9.2573464993218157e-01  -1.0325295108195640e-01  7.3564669017461293e-01  1.5752006657760400e+00  2.3996401520365285e+00  3.1925434422160439e+00  3.9362314007893078e+00  4.6113132917808271e+00  5.1965956477702120e+00  5.6697124985756373e+00  6.0089896716733060e+00  6.1973194482103828e+00  6.2303860645187950e+00  -5.0626303309231480e+00  -5.0297611768797665e+00  -4.8245081108741532e+00  -4.4555720520819975e+00  -3.9455853567130430e+00  -3.3208418940581259e+00  -2.6066764166803700e+00  -1.8256465599690337e+00  -9.9727647712558742e-01  -1.3855622187542363e-01  7.3527026161401110e-01  1.6098434270434434e+00  2.4708163215555028e+00  3.3029674369797366e+00  4.0892896810509001e+00  4.8101146206615075e+00  5.4424994137839890e+00  5.9604024317791424e+00  6.3365743909139463e+00  6.5476037758268468e+00  6.5851727460042913e+00  -5.4445833227512335e+00  -5.4071773137678045e+00  -5.1734941146121622e+00  -4.7595777874933249e+00  -4.1973725753079396e+00  -3.5202531780343405e+00  -2.7574875987704388e+00  -1.9329945963908588e+00  -1.0659867790971709e+00  -1.7220161526673891e-01  7.3483938274633098e-01  1.6426961350249956e+00  2.5389662524235947e+00  3.4102272304320107e+00  4.2408501132895031e+00  5.0116259071962501e+00  5.6983417834994938e+00  6.2709279703004084e+00  6.6946891068093324e+00  6.9363894999531350e+00  6.9803063226065785e+00  -5.8599402486043806e+00  -5.8158361011698743e+00  -5.5426971834071068e+00  -5.0706286005194459e+00  -4.4458143996694819e+00  -3.7103240293939388e+00  -2.8969404267452514e+00  -2.0298418031095857e+00  -1.1268646029296037e+00  -2.0169316382527161e-01  7.3442867120245980e-01  1.6714004940531584e+00  2.5991870148653771e+00  3.5067346490209688e+00  4.3806442925004543e+00  5.2033535086597977e+00  5.9506800809280262e+00  6.5891087750656228e+00  7.0748062714367235e+00  7.3593962565857884e+00  7.4128604682762367e+00  -6.3033954268581454e+00  -6.2480703868975276e+00  -5.9179649911290619e+00  -5.3708265067287373e+00  -4.6733165756609232e+00  -3.8762607509634082e+00  -3.0138472059024841e+00  -2.1084411120897566e+00  -1.1751058451923162e+00  -2.2470673455874604e-01  7.3414356006127579e-01  1.6938407115374585e+00  2.6468654973386134e+00  3.5848713316082073e+00  4.4974617996010302e+00  5.3702252734250893e+00  6.1814055414562201e+00  6.8966621223459716e+00  7.4631248706909226e+00  7.8103321765736844e+00  7.8796299951657645e+00  -6.7685838823358928e+00  -6.6903708534151631e+00  -6.2753178000828767e+00  -5.6341724898512737e+00  -4.8581330162310872e+00  -4.0023996391525847e+00  -3.0979616289754461e+00  -2.1625720164833924e+00  -1.2072502178462479e+00  -2.3967392725983125e-01  7.3409575251002490e-01  1.7086880439828804e+00  2.6788207894127947e+00  3.6387234056567106e+00  4.5812897094002487e+00  5.4964864487210363e+00  6.3680496819482322e+00  7.1664664021579885e+00  7.8356224416070628e+00  8.2781594734482180e+00  8.3776008872055847e+00  -7.2495810817784170e+00  -7.1133626378684021e+00  -6.5733633743148907e+00  -5.8262674129201502e+00  -4.9781610245542494e+00  -4.0767406751967297e+00  -3.1436949107089962e+00  -2.1901013844709065e+00  -1.2227244972519287e+00  -2.4651935220296842e-01  7.3434281517954225e-01  1.7160190340722532e+00  2.6947446431975730e+00  3.6666091440850370e+00  4.6271962678297820e+00  5.5707892595804163e+00  6.4883547415609018e+00  7.3619826671650390e+00  8.1485653193758942e+00  8.7374633699454609e+00  8.9046555272291954e+00  -7.7445063213262824e+00  -7.4446312470915768e+00  -6.7490908447144715e+00  -5.9146845157373109e+00  -5.0228235618488135e+00  -4.0995979546896830e+00  -3.1553721776683776e+00  -2.1958779541385929e+00  -1.2253182666337450e+00  -2.4731118791387630e-01  7.3478323826131686e-01  1.7177357215428910e+00  2.6983914915806766e+00  3.6736317177390552e+00  4.6403118711974152e+00  5.5951080944045488e+00  6.5340650013758852e+00  7.4509806800395744e+00  8.3305058492600157e+00  9.1127670553515951e+00  9.4553806086485110e+00  -8.0311196674747212e+00  -7.5310012792901846e+00  -6.7594487903446208e+00  -5.9092336249366655e+00  -5.0161684532783140e+00  -4.0943193794960973e+00  -3.1515329368776381e+00  -2.1932093824930123e+00  -1.2236014364109924e+00  -2.4639899276837579e-01  7.3499358613308929e-01  1.7173270278876951e+00  2.6974448166727489e+00  3.6722447946603682e+00  4.6386308741845035e+00  5.5934101858628553e+00  6.5330337213012548e+00  7.4528472566312534e+00  8.3442465313877658e+00  9.1796070101793710e+00  9.9323710001093364e+00  </DataArray> 
</PointData> 
</Piece>
</UnstructuredGrid>
</VTKFile>