<?xml version="1.0"?>
<VTKFile type="UnstructuredGrid"  version="0.1"  >
<UnstructuredGrid>
<Piece  NumberOfPoints="651" NumberOfCells="1200">
<Points>
<DataArray  type="Float64"  NumberOfComponents="3"  format="ascii">0 0 0  50000 0 0  100000 0 0  150000 0 0  200000 0 0  250000 0 0  300000 0 0  350000 0 0  400000 0 0  450000 0 0  500000 0 0  550000 0 0  600000 0 0  650000 0 0  700000 0 0  750000 0 0  800000 0 0  850000 0 0  900000 0 0  950000 0 0  1000000 0 0  0 50000 0  50000 50000 0  100000 50000 0  150000 50000 0  200000 50000 0  250000 50000 0  300000 50000 0  350000 50000 0  400000 50000 0  450000 50000 0  500000 50000 0  550000 50000 0  600000 50000 0  650000 50000 0  700000 50000 0  750000 50000 0  800000 50000 0  850000 50000 0  900000 50000 0  950000 50000 0  1000000 50000 0  0 100000 0  50000 100000 0  100000 100000 0  150000 100000 0  200000 100000 0  250000 100000 0  300000 100000 0  350000 100000 0  400000 100000 0  450000 100000 0  500000 100000 0  550000 100000 0  600000 100000 0  650000 100000 0  700000 100000 0  750000 100000 0  800000 100000 0  850000 100000 0  900000 100000 0  950000 100000 0  1000000 100000 0  0 150000 0  50000 150000 0  100000 150000 0  150000 150000 0  200000 150000 0  250000 150000 0  300000 150000 0  350000 150000 0  400000 150000 0  450000 150000 0  500000 150000 0  550000 150000 0  600000 150000 0  650000 150000 0  700000 150000 0  750000 150000 0  800000 150000 0  850000 150000 0  900000 150000 0  950000 150000 0  1000000 150000 0  0 200000 0  50000 200000 0  100000 200000 0  150000 200000 0  200000 200000 0  250000 200000 0  300000 200000 0  350000 200000 0  400000 200000 0  450000 200000 0  500000 200000 0  550000 200000 0  600000 200000 0  650000 200000 0  700000 200000 0  750000 200000 0  800000 200000 0  850000 200000 0  900000 200000 0  950000 200000 0  1000000 200000 0  0 250000 0  50000 250000 0  100000 250000 0  150000 250000 0  200000 250000 0  250000 250000 0  300000 250000 0  350000 250000 0  400000 250000 0  450000 250000 0  500000 250000 0  550000 250000 0  600000 250000 0  650000 250000 0  700000 250000 0  750000 250000 0  800000 250000 0  850000 250000 0  900000 250000 0  950000 250000 0  1000000 250000 0  0 300000 0  50000 300000 0  100000 300000 0  150000 300000 0  200000 300000 0  250000 300000 0  300000 300000 0  350000 300000 0  400000 300000 0  450000 300000 0  500000 300000 0  550000 300000 0  600000 300000 0  650000 300000 0  700000 300000 0  750000 300000 0  800000 300000 0  850000 300000 0  900000 300000 0  950000 300000 0  1000000 300000 0  0 350000 0  50000 350000 0  100000 350000 0  150000 350000 0  200000 350000 0  250000 350000 0  300000 350000 0  350000 350000 0  400000 350000 0  450000 350000 0  500000 350000 0  550000 350000 0  600000 350000 0  650000 350000 0  700000 350000 0  750000 350000 0  800000 350000 0  850000 350000 0  900000 350000 0  950000 350000 0  1000000 350000 0  0 400000 0  50000 400000 0  100000 400000 0  150000 400000 0  200000 400000 0  250000 400000 0  300000 400000 0  350000 400000 0  400000 400000 0  450000 400000 0  500000 400000 0  550000 400000 0  600000 400000 0  650000 400000 0  700000 400000 0  750000 400000 0  800000 400000 0  850000 400000 0  900000 400000 0  950000 400000 0  1000000 400000 0  0 450000 0  50000 450000 0  100000 450000 0  150000 450000 0  200000 450000 0  250000 450000 0  300000 450000 0  350000 450000 0  400000 450000 0  450000 450000 0  500000 450000 0  550000 450000 0  600000 450000 0  650000 450000 0  700000 450000 0  750000 450000 0  800000 450000 0  850000 450000 0  900000 450000 0  950000 450000 0  1000000 450000 0  0 500000 0  50000 500000 0  100000 500000 0  150000 500000 0  200000 500000 0  250000 500000 0  300000 500000 0  350000 500000 0  400000 500000 0  450000 500000 0  500000 500000 0  550000 500000 0  600000 500000 0  650000 500000 0  700000 500000 0  750000 500000 0  800000 500000 0  850000 500000 0  900000 500000 0  950000 500000 0  1000000 500000 0  0 550000 0  50000 550000 0  100000 550000 0  150000 550000 0  200000 550000 0  250000 550000 0  300000 550000 0  350000 550000 0  400000 550000 0  450000 550000 0  500000 550000 0  550000 550000 0  600000 550000 0  650000 550000 0  700000 550000 0  750000 550000 0  800000 550000 0  850000 550000 0  900000 550000 0  950000 550000 0  1000000 550000 0  0 600000 0  50000 600000 0  100000 600000 0  150000 600000 0  200000 600000 0  250000 600000 0  300000 600000 0  350000 600000 0  400000 600000 0  450000 600000 0  500000 600000 0  550000 600000 0  600000 600000 0  650000 600000 0  700000 600000 0  750000 600000 0  800000 600000 0  850000 600000 0  900000 600000 0  950000 600000 0  1000000 600000 0  0 650000 0  50000 650000 0  100000 650000 0  150000 650000 0  200000 650000 0  250000 650000 0  300000 650000 0  350000 650000 0  400000 650000 0  450000 650000 0  500000 650000 0  550000 650000 0  600000 650000 0  650000 650000 0  700000 650000 0  750000 650000 0  800000 650000 0  850000 650000 0  900000 650000 0  950000 650000 0  1000000 650000 0  0 700000 0  50000 700000 0  100000 700000 0  150000 700000 0  200000 700000 0  250000 700000 0  300000 700000 0  350000 700000 0  400000 700000 0  450000 700000 0  500000 700000 0  550000 700000 0  600000 700000 0  650000 700000 0  700000 700000 0  750000 700000 0  800000 700000 0  850000 700000 0  900000 700000 0  950000 700000 0  1000000 700000 0  0 750000 0  50000 750000 0  100000 750000 0  150000 750000 0  200000 750000 0  250000 750000 0  300000 750000 0  350000 750000 0  400000 750000 0  450000 750000 0  500000 750000 0  550000 750000 0  600000 750000 0  650000 750000 0  700000 750000 0  750000 750000 0  800000 750000 0  850000 750000 0  900000 750000 0  950000 750000 0  1000000 750000 0  0 800000 0  50000 800000 0  100000 800000 0  150000 800000 0  200000 800000 0  250000 800000 0  300000 800000 0  350000 800000 0  400000 800000 0  450000 800000 0  500000 800000 0  550000 800000 0  600000 800000 0  650000 800000 0  700000 800000 0  750000 800000 0  800000 800000 0  850000 800000 0  900000 800000 0  950000 800000 0  1000000 800000 0  0 850000 0  50000 850000 0  100000 850000 0  150000 850000 0  200000 850000 0  250000 850000 0  300000 850000 0  350000 850000 0  400000 850000 0  450000 850000 0  500000 850000 0  550000 850000 0  600000 850000 0  650000 850000 0  700000 850000 0  750000 850000 0  800000 850000 0  850000 850000 0  900000 850000 0  950000 850000 0  1000000 850000 0  0 900000 0  50000 900000 0  100000 900000 0  150000 900000 0  200000 900000 0  250000 900000 0  300000 900000 0  350000 900000 0  400000 900000 0  450000 900000 0  500000 900000 0  550000 900000 0  600000 900000 0  650000 900000 0  700000 900000 0  750000 900000 0  800000 900000 0  850000 900000 0  900000 900000 0  950000 900000 0  1000000 900000 0  0 950000 0  50000 950000 0  100000 950000 0  150000 950000 0  200000 950000 0  250000 950000 0  300000 950000 0  350000 950000 0  400000 950000 0  450000 950000 0  500000 950000 0  550000 950000 0  600000 950000 0  650000 950000 0  700000 950000 0  750000 950000 0  800000 950000 0  850000 950000 0  900000 950000 0  950000 950000 0  1000000 950000 0  0 1000000 0  50000 1000000 0  100000 1000000 0  150000 1000000 0  200000 1000000 0  250000 1000000 0  300000 1000000 0  350000 1000000 0  400000 1000000 0  450000 1000000 0  500000 1000000 0  550000 1000000 0  600000 1000000 0  650000 1000000 0  700000 1000000 0  750000 1000000 0  800000 1000000 0  850000 1000000 0  900000 1000000 0  950000 1000000 0  1000000 1000000 0  0 1050000 0  50000 1050000 0  100000 1050000 0  150000 1050000 0  200000 1050000 0  250000 1050000 0  300000 1050000 0  350000 1050000 0  400000 1050000 0  450000 1050000 0  500000 1050000 0  550000 1050000 0  600000 1050000 0  650000 1050000 0  700000 1050000 0  750000 1050000 0  800000 1050000 0  850000 1050000 0  900000 1050000 0  950000 1050000 0  1000000 1050000 0  0 1100000 0  50000 1100000 0  100000 1100000 0  150000 1100000 0  200000 1100000 0  250000 1100000 0  300000 1100000 0  350000 1100000 0  400000 1100000 0  450000 1100000 0  500000 1100000 0  550000 1100000 0  600000 1100000 0  650000 1100000 0  700000 1100000 0  750000 1100000 0  800000 1100000 0  850000 1100000 0  900000 1100000 0  950000 1100000 0  1000000 1100000 0  0 1150000 0  50000 1150000 0  100000 1150000 0  150000 1150000 0  200000 1150000 0  250000 1150000 0  300000 1150000 0  350000 1150000 0  400000 1150000 0  450000 1150000 0  500000 1150000 0  550000 1150000 0  600000 1150000 0  650000 1150000 0  700000 1150000 0  750000 1150000 0  800000 1150000 0  850000 1150000 0  900000 1150000 0  950000 1150000 0  1000000 1150000 0  0 1200000 0  50000 1200000 0  100000 1200000 0  150000 1200000 0  200000 1200000 0  250000 1200000 0  300000 1200000 0  350000 1200000 0  400000 1200000 0  450000 1200000 0  500000 1200000 0  550000 1200000 0  600000 1200000 0  650000 1200000 0  700000 1200000 0  750000 1200000 0  800000 1200000 0  850000 1200000 0  900000 1200000 0  950000 1200000 0  1000000 1200000 0  0 1250000 0  50000 1250000 0  100000 1250000 0  150000 1250000 0  200000 1250000 0  250000 1250000 0  300000 1250000 0  350000 1250000 0  400000 1250000 0  450000 1250000 0  500000 1250000 0  550000 1250000 0  600000 1250000 0  650000 1250000 0  700000 1250000 0  750000 1250000 0  800000 1250000 0  850000 1250000 0  900000 1250000 0  950000 1250000 0  1000000 1250000 0  0 1300000 0  50000 1300000 0  100000 1300000 0  150000 1300000 0  200000 1300000 0  250000 1300000 0  300000 1300000 0  350000 1300000 0  400000 1300000 0  450000 1300000 0  500000 1300000 0  550000 1300000 0  600000 1300000 0  650000 1300000 0  700000 1300000 0  750000 1300000 0  800000 1300000 0  850000 1300000 0  900000 1300000 0  950000 1300000 0  1000000 1300000 0  0 1350000 0  50000 1350000 0  100000 1350000 0  150000 1350000 0  200000 1350000 0  250000 1350000 0  300000 1350000 0  350000 1350000 0  400000 1350000 0  450000 1350000 0  500000 1350000 0  550000 1350000 0  600000 1350000 0  650000 1350000 0  700000 135
[...]
<PointData  Scalars="f_25"> 
<DataArray  type="Float64"  Name="f_25"  format="ascii">-6.8915521049120381e+00  -6.2698585516830185e+00  -5.5801181781929072e+00  -4.8441736437565375e+00  -4.0848033668034045e+00  -3.3091010570293418e+00  -2.5209030912471366e+00  -1.7231350768795684e+00  -9.1842942921666015e-01  -1.0933906826372983e-01  7.0157790327597114e-01  1.5117184924342471e+00  2.3184032627673208e+00  3.1188250770611048e+00  3.9099417828037621e+00  4.6882481085524050e+00  5.4492949329494129e+00  6.1866220071136091e+00  6.8886540788299158e+00  7.5258901104479303e+00  7.9391161779923491e+00  -6.4975391357459733e+00  -6.2144679475257014e+00  -5.5686393343324072e+00  -4.8425420582626737e+00  -4.0855914822864152e+00  -3.3104566012329202e+00  -2.5222560717863476e+00  -1.7242535060566362e+00  -9.1919081387896773e-01  -1.0966169366371165e-01  7.0176146381226034e-01  1.5124766786060944e+00  2.3198205564152419e+00  3.1210219240868611e+00  3.9130968767114460e+00  4.6925792026089450e+00  5.4547420222517129e+00  6.1910379768994606e+00  6.8799502489259030e+00  7.4543232396699644e+00  7.7022566079321315e+00  -6.0425951411630958e+00  -5.9043875692378949e+00  -5.4181814661182424e+00  -4.7688540118645104e+00  -4.0476845299410051e+00  -3.2902477846898082e+00  -2.5113277643145646e+00  -1.7183818482181366e+00  -9.1612905864148353e-01  -1.0821430358050589e-01  7.0213541187607298e-01  1.5118137027152661e+00  2.3176496608337609e+00  3.1162014548751475e+00  3.9033802526341543e+00  4.6736040040852904e+00  5.4177314977598900e+00  6.1178669682609570e+00  6.7346580788383701e+00  7.1805784427987795e+00  7.2933321662970538e+00  -5.6072041000661574e+00  -5.5249626575210025e+00  -5.1595810939168025e+00  -4.6072032147686892e+00  -3.9481531984982818e+00  -3.2287297322748683e+00  -2.4732887216527946e+00  -1.6952546002000681e+00  -9.0290962305082856e-01  -1.0211977344334029e-01  7.0235173960941011e-01  1.5061451283397977e+00  2.3048276208342080e+00  3.0933967525255195e+00  3.8655159011198101e+00  4.6120907720576714e+00  5.3184709139088326e+00  5.9590851815084571e+00  6.4883879580819421e+00  6.8311334301213975e+00  6.8959215520830037e+00  -5.1958410074873473e+00  -5.1385124491360026e+00  -4.8518345966740473e+00  -4.3842370716807437e+00  -3.7938546019304789e+00  -3.1243067675709661e+00  -2.4039292021548322e+00  -1.6506766841307889e+00  -8.7644419524633332e-01  -8.9813230414870618e-02  7.0232659370522743e-01  1.4937686960576242e+00  2.2782364338000263e+00  3.0486211519558255e+00  3.7959553533295951e+00  4.5078075896015806e+00  5.1657218857306066e+00  5.7414881143053957e+00  6.1931706939007203e+00  6.4657676944848594e+00  6.5116075498732560e+00  -4.8102584172343352e+00  -4.7660229108456402e+00  -4.5310472291854040e+00  -4.1301286655143317e+00  -3.6031807759930778e+00  -2.9863662885805700e+00  -2.3073377522356702e+00  -1.5860498210636498e+00  -8.3699637449278030e-01  -7.1236340993746719e-02  7.0210679688060718e-01  1.4747499576486383e+00  2.2383564680087180e+00  2.9836462685432781e+00  3.6993257057106534e+00  4.3706754382652564e+00  4.9777441823959263e+00  5.4934822959067713e+00  5.8831797534379744e+00  6.1087304577847856e+00  6.1452726124148835e+00  -4.4529469290991672e+00  -4.4166096864207907e+00  -4.2170513158519762e+00  -3.8672694286193168e+00  -3.3946857075165453e+00  -2.8279229876824492e+00  -2.1917897349261071e+00  -1.5062643700279867e+00  -7.8719825028910861e-01  -4.7489582145960538e-02  7.0178373921853121e-01  1.4503855133892580e+00  2.1880485292561116e+00  2.9036134353754224e+00  3.5840927639311300e+00  4.2136322363411383e+00  4.7724955172537395e+00  5.2365341947733510e+00  5.5782130815984372e+00  5.7711755962823172e+00  5.8021648666474226e+00  -4.1265534670219344e+00  -4.0954691193665704e+00  -3.9212407975900700e+00  -3.6107524442808319e+00  -3.1833199661881615e+00  -2.6614224099179449e+00  -2.0665438711661226e+00  -1.4176138016605944e+00  -7.3086160701604752e-01  -2.0321830365746720e-02  7.0144376781495676e-01  1.4225948458728848e+00  2.1312807058751693e+00  2.8149211451037059e+00  3.4594956738733522e+00  4.0488936596914291e+00  4.5645027205847040e+00  4.9854206802366514e+00  5.2899553872170086e+00  5.4594339451622451e+00  5.4866610864673770e+00  -3.8334938377720027e+00  -3.8061358180912550e+00  -3.6506557995515760e+00  -3.3706325609972878e+00  -2.9801805942701414e+00  -2.4971789085229252e+00  -1.9400783330498839e+00  -1.3263640993115515e+00  -6.7203559960400860e-01  8.3189065750973994e-03  7.0114801185931219e-01  1.3934387110878861e+00  2.0721822957797271e+00  2.7238504842117002e+00  3.3339273468205763e+00  3.8865818310871867e+00  4.3646417809283831e+00  4.7501311215455742e+00  5.0257341391371870e+00  5.1777303829293535e+00  5.2022260663214004e+00  -3.5758154165033491e+00  -3.5512101123770941e+00  -3.4099230333105353e+00  -3.1536794403951136e+00  -2.7932363344485354e+00  -2.3431582248080907e+00  -1.8194048817561130e+00  -1.2380070374397119e+00  -6.1443141640468024e-01  3.6587702901521246e-02  7.0093014358199468e-01  1.3648191702536843e+00  2.0144905550552643e+00  2.6358686634281359e+00  3.2143154741266198e+00  3.7345392407036537e+00  4.1807850839551843e+00  4.5374653171346520e+00  4.7904166737392941e+00  4.9291245200628255e+00  4.9515690381047870e+00  -3.3551731243882834e+00  -3.3326463241432722e+00  -3.2022041822479328e+00  -2.9645057329984512e+00  -2.6281192118824488e+00  -2.2052670373228600e+00  -1.7099769113158501e+00  -1.1569952432905093e+00  -5.6115795976178195e-01  6.2900486599411040e-02  7.0080191034672312e-01  1.3383360933926101e+00  1.9613084000098955e+00  2.5553916681741091e+00  3.1060493272194529e+00  3.5986041177200181e+00  4.0185367701960297e+00  4.3521026273821777e+00  4.5873630709230637e+00  4.7158978165080265e+00  4.7367880496044110e+00  -3.1728521429700898e+00  -3.1519022543888631e+00  -3.0296953364322285e+00  -2.8062706241643816e+00  -2.4887619810602737e+00  -2.0877615645870873e+00  -1.6158571232172867e+00  -1.0867470476483394e+00  -5.1466057577258995e-01  8.5987112665979595e-02  7.0076023791820774e-01  1.3152489418935456e+00  1.9150585324187785e+00  2.4858010783717992e+00  3.0131478841036805e+00  3.4830010132207838e+00  3.8818387879227592e+00  4.1972817825805881e+00  4.4189353247365455e+00  4.5397541402463624e+00  4.5594830441448915e+00  -3.0298088756871326e+00  -3.0100377394961315e+00  -2.8939151820110687e+00  -2.6811243973218990e+00  -2.3778674757023595e+00  -1.9936277355837229e+00  -1.5399629289249974e+00  -1.0297712292398351e+00  -4.7676692477573113e-01  1.0488335399218890e-01  7.0079320650698462e-01  1.2964962256481876e+00  1.8775386249188397e+00  2.4295730268352971e+00  2.9385009635669554e+00  3.3907075505153790e+00  3.7734230867232057e+00  4.0752355302432717e+00  4.2867939519947358e+00  4.4019474619142551e+00  4.4208466256728407e+00  -2.9267161894344325e+00  -2.9077886707195040e+00  -2.7958851632189727e+00  -2.5904957298221372e+00  -2.2972413556693003e+00  -1.9248883930649503e+00  -1.4843038285294272e+00  -9.8782371852986794e-01  -4.4877424770894381e-01  1.1889541945771723e-01  7.0088421821042268e-01  1.2827385418733810e+00  1.8500136742366622e+00  2.3884357255951651e+00  2.8841020557429271e+00  3.3237526810666234e+00  3.6951349304569927e+00  3.9874739988268244e+00  4.1920848044552814e+00  4.3033738868429090e+00  4.3217384561729881e+00  -2.8640047212645183e+00  -2.8456237195532501e+00  -2.7362470227176905e+00  -2.5352788800842854e+00  -2.2480207134344390e+00  -1.8828315602549357e+00  -1.4501756610000767e+00  -9.6205096555301695e-01  -4.3153942368416165e-01  1.2755853848712603e-01  7.0101453435020844e-01  1.2744043768628557e+00  1.8333084443590726e+00  2.3635122211299566e+00  2.8512387758678472e+00  3.2834391462316392e+00  3.6481563403638280e+00  3.9349707369945297e+00  4.1355619307632692e+00  4.2446403958643186e+00  4.2627449733357929e+00  -2.8418948521254315e+00  -2.8237848784529369e+00  -2.7153379942644955e+00  -2.5159517948090548e+00  -2.2308224953782911e+00  -1.8681657523027519e+00  -1.4383003678363580e+00  -9.5309939852281278e-01  -4.2555175529168549e-01  1.3060172874567091e-01  7.0116461333763525e-01  1.2717274979295876e+00  1.8278809819669419e+00  2.3554286251980656e+00  2.8406295945116105e+00  3.2704949789780096e+00  3.6331517220535385e+00  3.9182810214843213e+00  4.1176672209397545e+00  4.2261141051282038e+00  4.2442240788007073e+00  -2.8604157466605247e+00  -2.8423111691890570e+00  -2.7332327040880093e+00  -2.5326415103192703e+00  -2.2458271136885783e+00  -1.8811099195563972e+00  -1.4489095491926010e+00  -9.6118299445471322e-01  -4.3097921768382930e-01  1.2792484981240343e-01  7.0131469232506793e-01  1.2747706881881442e+00  1.8338686503594293e+00  2.3643801922282757e+00  2.8525048876753312e+00  3.2851607869302017e+00  3.6503499401097068e+00  3.9376081067595567e+00  4.1385762493929912e+00  4.2479529462285655e+00  4.2663339479398354e+00  -2.9194092294977145e+00  -2.9010446601676465e+00  -2.7897555777800278e+00  -2.5851447721515632e+00  -2.2928057037817537e+00  -1.9214234543913937e+00  -1.4817728290676935e+00  -9.8610649891992663e-01  -4.4768444756141040e-01  1.1959068480189401e-01  7.0144500846487023e-01  1.2834338072175775e+00  1.8511034743842281e+00  2.3901529452051444e+00  2.8866330552047130e+00  3.3272176197402410e+00  3.6995705823445952e+00  3.9928249564974245e+00  4.1982143898943116e+00  4.3101178973948766e+00  4.3290454161097989e+00  -3.0185173989975413e+00  -2.9996182352389491e+00  -2.8844647253194422e+00  -2.6729063035679705e+00  -2.3710938600479383e+00  -1.9883783238401409e+00  -1.5361717368917023e+00  -1.0272438001600388e+00  -4.7520939824356012e-01  1.0583300102710831e-01  7.0153602016833794e-01  1.2974458726831408e+00  1.8790961514510487e+00  2.4321004559151365e+00  2.9422921556003026e+00  3.3959569622590311e+00  3.7801967023776992e+00  4.0834536239972312e+00  4.2962444086864027e+00  4.4123669661714660e+00  4.4321381023624671e+00  -3.1571538174695788e+00  -3.1374249135710568e+00  -3.0166060980612435e+00  -2.7949525559053008e+00  -2.4795095612474745e+00  -2.0806717865455120e+00  -1.6108186574284042e+00  -1.0834718516965112e+00  -5.1272930574346998e-01  8.7080284781777914e-02  7.0156898875713813e-01  1.3163421140093738e+00  1.9169898024479377e+00  2.4890762743236650e+00  3.0181863498926060e+00  3.4900907912623960e+00  3.8910912077356126e+00  4.2085998508397093e+00  4.4320245631075288e+00  4.5542314810641580e+00  4.5751813696453931e+00  -3.3344588229290562e+00  -3.3135685898326788e+00  -3.1850338442477222e+00  -2.9497734007068539e+00  -2.6162075435207006e+00  -2.1962748910446890e+00  -1.7037201005441189e+00  -1.1530624414987738e+00  -5.5897917333454106e-01  6.3993133282755674e-02  7.0152731632866161e-01  1.3394287400759797e+00  1.9634871864371739e+00  2.5593244699658961e+00  3.1123061379912373e+00  3.6075962639982326e+00  4.0304484385578032e+00  4.3668349596737785e+00  4.6045334089232588e+00  4.7349755508185778e+00  4.7575023510635841e+00  -3.5492398114293677e+00  -3.5267952933874391e+00  -3.3880874470638997e+00  -3.1351360904592824e+00  -2.7784558572798170e+00  -2.3322100140282749e+00  -1.8119862474512392e+00  -1.2335394367527528e+00  -6.1216132837986004e-01  3.7510056421741038e-02  7.0139908309344390e-01  1.3657415237739257e+00  2.0167606430801244e+00  2.6403362641151662e+00  3.2217341084315652e+00  3.7454874514835228e+00  4.1955655611239298e+00  4.5560086670704676e+00  4.8122522599858790e+00  4.9535393390524112e+00  4.9781446431786396e+00  -3.7998968396459638e+00  -3.7754011562539316e+00  -3.6234049124617527e+00  -3.3478018948701536e+00  -2.9623125542529736e+00  -2.4842526044117639e+00  -1.9315981201451482e+00  -1.3215212575362485e+00  -6.6985306910425491e-01  8.8905155875970282e-03  7.0118121481618578e-01  1.3940103201004139e+00  2.0743648262795222e+00  2.7286933259870683e+00  3.3424075597253937e+00  3.8995081351983938e+00  4.3825098209455691e+00  4.7729617876726840e+00  5.0529850262269385e+00  5.2084650447666005e+00  5.2358230644473460e+00  -4.0843318597919058e+00  -4.0571047184867624e+00  -3.8876261605415308e+00  -3.5830914535612002e+00  -3.1621734939092425e+00  -2.6465644330159503e+00  -2.0571664471978583e+00  -1.4125919184281899e+00  -7.2895147919964476e-01  -2.0265619197345812e-02  7.0088545886059439e-01  1.4226510570413080e+00  2.1331908336916090e+00  2.8199430283361449e+00  3.4688730978416524e+00  4.0637516365934454e+00  4.5856491928636371e+00  5.0130816709562600e+00  5.3235700242654662e+00  5.4977983460419582e+00  5.5288826936973194e+00  -4.3998356399719318e+00  -4.3688463696068291e+00  -4.1758838549229624e+00  -3.8342049680978754e+00  -3.3701662905782288e+00  -2.8113030096656102e+00  -2.1817635372555699e+00  -1.5012842086998388e+00  -7.8571930258051648e-01  -4.8056286713655291e-02  7.0054548745707756e-01  1.4498188088215755e+00  2.1895274769647193e+00  2.9085935967035681e+00  3.5941189616016636e+00  4.2302522143579750e+00  4.7970149341920676e+00  5.2695986552948151e+00  5.6193805425274368e+00  5.8189389130962210e+00  5.8552761557746038e+00  -4.7429433857393457e+00  -4.7064012311092682e+00  -4.4808505267624392e+00  -4.0911530692312246e+00  -3.5754149557203632e+00  -2.9683462115896968e+00  -2.2969964790350517e+00  -1.5813170418676279e+00  -8.3602724133306483e-01  -7.2420730972985570e-02  7.0022242979505378e-01  1.4735655676694128e+00  2.2393256011684413e+00  2.9883790477392860e+00  3.7096669789112786e+00  4.3886955152561677e+00  5.0055100026686574e+00  5.5324578921898748e+00  5.9333764558609055e+00  6.1683521375211399e+00  6.2125876439098304e+00  -5.1092783231976782e+00  -5.0634384678092861e+00  -4.7908414672251247e+00  -4.3391588876298011e+00  -3.7633926590550053e+00  -3.1054783629259797e+00  -2.3936261266539476e+00  -1.6462919252801398e+00  -8.7590720712433567e-01  -9.1439469381933439e-02  7.0000263297047094e-01  1.4921424570905726e+00  2.2787734219220224e+00  3.0530059108064584e+00  3.8062584288304908e+00  4.5266359942466368e+00  5.1961838286061015e+00  5.7865662983563420e+00  6.2541638233496322e+00  6.5408416758115626e+00  6.5981702341629038e+00  -5.4935923254073789e+00  -5.4288042034457753e+00  -5.0860587314063226e+00  -4.5567559548328349e+00  -3.9161416872332069e+00  -3.2097615453820243e+00  -2.4631866744441240e+00  -1.6910675258498140e+00  -9.0249839415849187e-01  -1.0381590166408233e-01  6.9997748706630991e-01  1.5044490001190631e+00  2.3052388497265368e+00  3.0975838268757623e+00  3.8756179483284989e+00  4.6310589589505744e+00  5.3504824251739702e+00  6.0095324414443319e+00  6.5619103205924194e+00  6.9272918841966051e+00  7.0095333267417566e+00  -5.8910029396214139e+00  -5.7782492161231103e+00  -5.3323288521627372e+00  -4.7155377415853188e+00  -4.0154022710842687e+00  -3.2712747774096393e+00  -2.5010510259584660e+00  -1.7138722281994265e+00  -9.1532043415804942e-01  -1.0948447603954288e-01  7.0019381479966014e-01  1.5105435302562369e+00  2.3184582853172055e+00  3.1207110748938391e+00  3.9136569909902770e+00  4.6925770113655139e+00  5.4500137566167055e+00  6.1711832385401761e+00  6.8205106927938743e+00  7.3067167959135038e+00  7.4449243678387536e+00  -6.2999273812565049e+00  -6.0519940129943386e+00  -5.4776210222503243e+00  -4.7887087502238570e+00  -4.0524127955760907e+00  -3.2902499759332917e+00  -2.5107676500357550e+00  -1.7186926974111487e+00  -9.1749132973951963e-01  -1.1014745193036554e-01  7.0056776286347211e-01  1.5119909203394470e+00  2.3215200405546974e+00  3.1265827327323605e+00  3.9245852984620662e+00  4.7127858279086050e+00  5.4879207089621085e+00  6.2448712849383465e+00  6.9709685610080800e+00  7.6167971742013423e+00  7.8998683624216230e+00  -6.5367869513167225e+00  -6.1235608837723010e+00  -5.4863248521543158e+00  -4.7842927804379967e+00  -4.0469657062737783e+00  -3.2859188818767517e+00  -2.5076125561280698e+00  -1.7164958503853927e+00  -9.1607403609159288e-01  -1.0938926575851489e-01  7.0075132339976698e-01  1.5116682949394591e+00  2.3207586558923943e+00  3.1254643035552929e+00  3.9232323179228525e+00  4.7114302837050301e+00  5.4871325934790960e+00  6.2465028704322219e+00  6.9824474048685605e+00  7.6721877783586709e+00  8.2938813315876914e+00  </DataArray> 
</PointData> 
</Piece>
</UnstructuredGrid>
</VTKFile>