<?xml version="1.0"?>
<VTKFile type="UnstructuredGrid"  version="0.1"  >
<UnstructuredGrid>
<Piece  NumberOfPoints="651" NumberOfCells="1200">
<Points>
<DataArray  type="Float64"  NumberOfComponents="3"  format="ascii">0 0 0  50000 0 0  100000 0 0  150000 0 0  200000 0 0  250000 0 0  300000 0 0  350000 0 0  400000 0 0  450000 0 0  500000 0 0  550000 0 0  600000 0 0  650000 0 0  700000 0 0  750000 0 0  800000 0 0  850000 0 0  900000 0 0  950000 0 0  1000000 0 0  0 50000 0  50000 50000 0  100000 50000 0  150000 50000 0  200000 50000 0  250000 50000 0  300000 50000 0  350000 50000 0  400000 50000 0  450000 50000 0  500000 50000 0  550000 50000 0  600000 50000 0  650000 50000 0  700000 50000 0  750000 50000 0  800000 50000 0  850000 50000 0  900000 50000 0  950000 50000 0  1000000 50000 0  0 100000 0  50000 100000 0  100000 100000 0  150000 100000 0  200000 100000 0  250000 100000 0  300000 100000 0  350000 100000 0  400000 100000 0  450000 100000 0  500000 100000 0  550000 100000 0  600000 100000 0  650000 100000 0  700000 100000 0  750000 100000 0  800000 100000 0  850000 100000 0  900000 100000 0  950000 100000 0  1000000 100000 0  0 150000 0  50000 150000 0  100000 150000 0  150000 150000 0  200000 150000 0  250000 150000 0  300000 150000 0  350000 150000 0  400000 150000 0  450000 150000 0  500000 150000 0  550000 150000 0  600000 150000 0  650000 150000 0  700000 150000 0  750000 150000 0  800000 150000 0  850000 150000 0  900000 150000 0  950000 150000 0  1000000 150000 0  0 200000 0  50000 200000 0  100000 200000 0  150000 200000 0  200000 200000 0  250000 200000 0  300000 200000 0  350000 200000 0  400000 200000 0  450000 200000 0  500000 200000 0  550000 200000 0  600000 200000 0  650000 200000 0  700000 200000 0  750000 200000 0  800000 200000 0  850000 200000 0  900000 200000 0  950000 200000 0  1000000 200000 0  0 250000 0  50000 250000 0  100000 250000 0  150000 250000 0  200000 250000 0  250000 250000 0  300000 250000 0  350000 250000 0  400000 250000 0  450000 250000 0  500000 250000 0  550000 250000 0  600000 250000 0  650000 250000 0  700000 250000 0  750000 250000 0  800000 250000 0  850000 250000 0  900000 250000 0  950000 250000 0  1000000 250000 0  0 300000 0  50000 300000 0  100000 300000 0  150000 300000 0  200000 300000 0  250000 300000 0  300000 300000 0  350000 300000 0  400000 300000 0  450000 300000 0  500000 300000 0  550000 300000 0  600000 300000 0  650000 300000 0  700000 300000 0  750000 300000 0  800000 300000 0  850000 300000 0  900000 300000 0  950000 300000 0  1000000 300000 0  0 350000 0  50000 350000 0  100000 350000 0  150000 350000 0  200000 350000 0  250000 350000 0  300000 350000 0  350000 350000 0  400000 350000 0  450000 350000 0  500000 350000 0  550000 350000 0  600000 350000 0  650000 350000 0  700000 350000 0  750000 350000 0  800000 350000 0  850000 350000 0  900000 350000 0  950000 350000 0  1000000 350000 0  0 400000 0  50000 400000 0  100000 400000 0  150000 400000 0  200000 400000 0  250000 400000 0  300000 400000 0  350000 400000 0  400000 400000 0  450000 400000 0  500000 400000 0  550000 400000 0  600000 400000 0  650000 400000 0  700000 400000 0  750000 400000 0  800000 400000 0  850000 400000 0  900000 400000 0  950000 400000 0  1000000 400000 0  0 450000 0  50000 450000 0  100000 450000 0  150000 450000 0  200000 450000 0  250000 450000 0  300000 450000 0  350000 450000 0  400000 450000 0  450000 450000 0  500000 450000 0  550000 450000 0  600000 450000 0  650000 450000 0  700000 450000 0  750000 450000 0  800000 450000 0  850000 450000 0  900000 450000 0  950000 450000 0  1000000 450000 0  0 500000 0  50000 500000 0  100000 500000 0  150000 500000 0  200000 500000 0  250000 500000 0  300000 500000 0  350000 500000 0  400000 500000 0  450000 500000 0  500000 500000 0  550000 500000 0  600000 500000 0  650000 500000 0  700000 500000 0  750000 500000 0  800000 500000 0  850000 500000 0  900000 500000 0  950000 500000 0  1000000 500000 0  0 550000 0  50000 550000 0  100000 550000 0  150000 550000 0  200000 550000 0  250000 550000 0  300000 550000 0  350000 550000 0  400000 550000 0  450000 550000 0  500000 550000 0  550000 550000 0  600000 550000 0  650000 550000 0  700000 550000 0  750000 550000 0  800000 550000 0  850000 550000 0  900000 550000 0  950000 550000 0  1000000 550000 0  0 600000 0  50000 600000 0  100000 600000 0  150000 600000 0  200000 600000 0  250000 600000 0  300000 600000 0  350000 600000 0  400000 600000 0  450000 600000 0  500000 600000 0  550000 600000 0  600000 600000 0  650000 600000 0  700000 600000 0  750000 600000 0  800000 600000 0  850000 600000 0  900000 600000 0  950000 600000 0  1000000 600000 0  0 650000 0  50000 650000 0  100000 650000 0  150000 650000 0  200000 650000 0  250000 650000 0  300000 650000 0  350000 650000 0  400000 650000 0  450000 650000 0  500000 650000 0  550000 650000 0  600000 650000 0  650000 650000 0  700000 650000 0  750000 650000 0  800000 650000 0  850000 650000 0  900000 650000 0  950000 650000 0  1000000 650000 0  0 700000 0  50000 700000 0  100000 700000 0  150000 700000 0  200000 700000 0  250000 700000 0  300000 700000 0  350000 700000 0  400000 700000 0  450000 700000 0  500000 700000 0  550000 700000 0  600000 700000 0  650000 700000 0  700000 700000 0  750000 700000 0  800000 700000 0  850000 700000 0  900000 700000 0  950000 700000 0  1000000 700000 0  0 750000 0  50000 750000 0  100000 750000 0  150000 750000 0  200000 750000 0  250000 750000 0  300000 750000 0  350000 750000 0  400000 750000 0  450000 750000 0  500000 750000 0  550000 750000 0  600000 750000 0  650000 750000 0  700000 750000 0  750000 750000 0  800000 750000 0  850000 750000 0  900000 750000 0  950000 750000 0  1000000 750000 0  0 800000 0  50000 800000 0  100000 800000 0  150000 800000 0  200000 800000 0  250000 800000 0  300000 800000 0  350000 800000 0  400000 800000 0  450000 800000 0  500000 800000 0  550000 800000 0  600000 800000 0  650000 800000 0  700000 800000 0  750000 800000 0  800000 800000 0  850000 800000 0  900000 800000 0  950000 800000 0  1000000 800000 0  0 850000 0  50000 850000 0  100000 850000 0  150000 850000 0  200000 850000 0  250000 850000 0  300000 850000 0  350000 850000 0  400000 850000 0  450000 850000 0  500000 850000 0  550000 850000 0  600000 850000 0  650000 850000 0  700000 850000 0  750000 850000 0  800000 850000 0  850000 850000 0  900000 850000 0  950000 850000 0  1000000 850000 0  0 900000 0  50000 900000 0  100000 900000 0  150000 900000 0  200000 900000 0  250000 900000 0  300000 900000 0  350000 900000 0  400000 900000 0  450000 900000 0  500000 900000 0  550000 900000 0  600000 900000 0  650000 900000 0  700000 900000 0  750000 900000 0  800000 900000 0  850000 900000 0  900000 900000 0  950000 900000 0  1000000 900000 0  0 950000 0  50000 950000 0  100000 950000 0  150000 950000 0  200000 950000 0  250000 950000 0  300000 950000 0  350000 950000 0  400000 950000 0  450000 950000 0  500000 950000 0  550000 950000 0  600000 950000 0  650000 950000 0  700000 950000 0  750000 950000 0  800000 950000 0  850000 950000 0  900000 950000 0  950000 950000 0  1000000 950000 0  0 1000000 0  50000 1000000 0  100000 1000000 0  150000 1000000 0  200000 1000000 0  250000 1000000 0  300000 1000000 0  350000 1000000 0  400000 1000000 0  450000 1000000 0  500000 1000000 0  550000 1000000 0  600000 1000000 0  650000 1000000 0  700000 1000000 0  750000 1000000 0  800000 1000000 0  850000 1000000 0  900000 1000000 0  950000 1000000 0  1000000 1000000 0  0 1050000 0  50000 1050000 0  100000 1050000 0  150000 1050000 0  200000 1050000 0  250000 1050000 0  300000 1050000 0  350000 1050000 0  400000 1050000 0  450000 1050000 0  500000 1050000 0  550000 1050000 0  600000 1050000 0  650000 1050000 0  700000 1050000 0  750000 1050000 0  800000 1050000 0  850000 1050000 0  900000 1050000 0  950000 1050000 0  1000000 1050000 0  0 1100000 0  50000 1100000 0  100000 1100000 0  150000 1100000 0  200000 1100000 0  250000 1100000 0  300000 1100000 0  350000 1100000 0  400000 1100000 0  450000 1100000 0  500000 1100000 0  550000 1100000 0  600000 1100000 0  650000 1100000 0  700000 1100000 0  750000 1100000 0  800000 1100000 0  850000 1100000 0  900000 1100000 0  950000 1100000 0  1000000 1100000 0  0 1150000 0  50000 1150000 0  100000 1150000 0  150000 1150000 0  200000 1150000 0  250000 1150000 0  300000 1150000 0  350000 1150000 0  400000 1150000 0  450000 1150000 0  500000 1150000 0  550000 1150000 0  600000 1150000 0  650000 1150000 0  700000 1150000 0  750000 1150000 0  800000 1150000 0  850000 1150000 0  900000 1150000 0  950000 1150000 0  1000000 1150000 0  0 1200000 0  50000 1200000 0  100000 1200000 0  150000 1200000 0  200000 1200000 0  250000 1200000 0  300000 1200000 0  350000 1200000 0  400000 1200000 0  450000 1200000 0  500000 1200000 0  550000 1200000 0  600000 1200000 0  650000 1200000 0  700000 1200000 0  750000 1200000 0  800000 1200000 0  850000 1200000 0  900000 1200000 0  950000 1200000 0  1000000 1200000 0  0 1250000 0  50000 1250000 0  100000 1250000 0  150000 1250000 0  200000 1250000 0  250000 1250000 0  300000 1250000 0  350000 1250000 0  400000 1250000 0  450000 1250000 0  500000 1250000 0  550000 1250000 0  600000 1250000 0  650000 1250000 0  700000 1250000 0  750000 1250000 0  800000 1250000 0  850000 1250000 0  900000 1250000 0  950000 1250000 0  1000000 1250000 0  0 1300000 0  50000 1300000 0  100000 1300000 0  150000 1300000 0  200000 1300000 0  250000 1300000 0  300000 1300000 0  350000 1300000 0  400000 1300000 0  450000 1300000 0  500000 1300000 0  550000 1300000 0  600000 1300000 0  650000 1300000 0  700000 1300000 0  750000 1300000 0  800000 1300000 0  850000 1300000 0  900000 1300000 0  950000 1300000 0  1000000 1300000 0  0 1350000 0  50000 1350000 0  100000 1350000 0  150000 1350000 0  200000 1350000 0  250000 1350000 0  300000 1350000 0  350000 1350000 0  400000 1350000 0  450000 1350000 0  500000 1350000 0  550000 1350000 0  600000 1350000 0  650000 1350000 0  700000 135
[...]
<PointData  Scalars="f_25"> 
<DataArray  type="Float64"  Name="f_25"  format="ascii">-4.1326109217474496e+00  -3.7403065670740809e+00  -3.3054176709625036e+00  -2.8415337848258408e+00  -2.3629519914004478e+00  -1.8741220670409504e+00  -1.3774488268540159e+00  -8.7476677801067004e-01  -3.6772759116721104e-01  1.4206610893229094e-01  6.5300788837926949e-01  1.1634628504300120e+00  1.6717481184672351e+00  2.1761010310054738e+00  2.6746123722025601e+00  3.1650844145309529e+00  3.6447321959677450e+00  4.1095213176934173e+00  4.5522355480155250e+00  4.9544194063498965e+00  5.2155849655072322e+00  -3.8837712970537304e+00  -3.7049139502319171e+00  -3.2978574979892903e+00  -2.8402733334746064e+00  -2.3632744442137685e+00  -1.8748388682736998e+00  -1.3781892804778975e+00  -8.7537856106426659e-01  -3.6813024137516043e-01  1.4192575103693153e-01  6.5317297717427003e-01  1.1639764167820339e+00  1.6726625069483319e+00  2.1774900990898787e+00  2.6765846238066171e+00  3.1677688486618529e+00  3.6480741250455972e+00  4.1121329601296539e+00  4.5464316020903830e+00  4.9087621222731057e+00  5.0657978483367989e+00  -3.5964058648964699e+00  -3.5089358482546951e+00  -3.2024554658654800e+00  -2.7933388664190395e+00  -2.3389847573111897e+00  -1.8617848241863466e+00  -1.3710521975443939e+00  -8.7148614248161593e-01  -3.6605966208033042e-01  1.4293208371379987e-01  6.5345796481579710e-01  1.1635632606538187e+00  1.6712528057925591e+00  2.1743608494202449e+00  2.6703141875702960e+00  3.1555996064105498e+00  3.6244644888403883e+00  4.0656503756864426e+00  4.4544072279258646e+00  4.7356886627413930e+00  4.8073784970431204e+00  -3.3213865855133387e+00  -3.2692602241896402e+00  -3.0389159511900390e+00  -2.6909145691741485e+00  -2.2757700454229721e+00  -1.8226036443270179e+00  -1.3467461319720526e+00  -8.5665270366624280e-01  -3.5754137664389973e-01  1.4689211361040064e-01  6.5364727867633909e-01  1.1599782322514212e+00  1.6630934298706397e+00  2.1598427350236800e+00  2.6462361374644954e+00  3.1165480968635251e+00  3.5615575483704811e+00  3.9651750402731776e+00  4.2987506712818231e+00  4.5149553269032534e+00  4.5562477442171456e+00  -3.0615465085002391e+00  -3.0251804768919373e+00  -2.8444453556252474e+00  -2.5498775826753244e+00  -2.1780395314334098e+00  -1.7563620545201717e+00  -1.3026721466125821e+00  -8.2827200841696402e-01  -3.4065250346582870e-01  1.5478089570987111e-01  6.5368811803647342e-01  1.1521595073547504e+00  1.6462416436619416e+00  2.1314576520658450e+00  2.6021610346956723e+00  3.0505260550092892e+00  3.4649377390905580e+00  3.8276475339007296e+00  4.1122774032775071e+00  4.2842301107261322e+00  4.3134667786853873e+00  -2.8179995389091910e+00  -2.7899322354291982e+00  -2.6417991587243774e+00  -2.3892605783044822e+00  -2.0574200327138823e+00  -1.6690165682724560e+00  -1.2414429429049914e+00  -7.8725554528999830e-01  -3.1557830950958954e-01  1.6662505705194802e-01  6.5360861661968139e-01  1.1401554832205851e+00  1.6210153307004580e+00  2.0903445308541224e+00  2.5410329556477058e+00  2.9638160611432371e+00  3.3461396107278549e+00  3.6709872262096437e+00  3.9165279580908070e+00  4.0587922947847925e+00  4.0820943685403916e+00  -2.5923206022026339e+00  -2.5692675849551057e+00  -2.4434770166207005e+00  -2.2231771570711998e+00  -1.9256150817206295e+00  -1.5687866458713295e+00  -1.1682930028542269e+00  -7.3670237284653506e-01  -2.8399030485161858e-01  1.8172370999495865e-01  6.5346471211480761e-01  1.1247871749969709e+00  1.5892262377669204e+00  2.0397561606161574e+00  2.4682018223620483e+00  2.8645858984214674e+00  3.2164912189263450e+00  3.5087286427511426e+00  3.7239821900563905e+00  3.8456738196157638e+00  3.8654242861316925e+00  -2.3861800448136177e+00  -2.3664659758944029e+00  -2.2566606629142298e+00  -2.0611386099149773e+00  -1.7920484138640613e+00  -1.4635212269969686e+00  -1.0890654994606206e+00  -6.8058731018763674e-01  -2.4829785376675489e-01  1.9897017356355029e-01  6.5330943186088275e-01  1.1072659933297977e+00  1.5533794795550520e+00  1.9837310711701921e+00  2.3894968638996823e+00  2.7605397596217207e+00  3.0851514802273314e+00  3.3501868177191159e+00  3.5420066468096651e+00  3.6488672000940108e+00  3.6662080284962033e+00  -2.2011007242468730e+00  -2.1837572922948816e+00  -2.0857874771798479e+00  -1.9094803303680938e+00  -1.6637122918135063e+00  -1.3597209310939831e+00  -1.0091056796440669e+00  -6.2286246382667387e-01  -2.1105594623969495e-01  2.1713450912726689e-01  6.5318036636734822e-01  1.0888911387543818e+00  1.5160790219746465e+00  1.9262299079010470e+00  2.3102095426398663e+00  2.6580582490876306e+00  2.9589754050456141e+00  3.2016579767599396e+00  3.3752208349473198e+00  3.4710364379814269e+00  3.4866255533094130e+00  -2.0383722372479718e+00  -2.0227809444537974e+00  -1.9337731409354568e+00  -1.7724670273386269e+00  -1.5456264959206802e+00  -1.2624041244548416e+00  -9.3283171936399734e-01  -5.6698903039169812e-01  -1.7460413756121579e-01  2.3505326193208928e-01  6.5309824944690609e-01  1.0708611944166360e+00  1.4796802638749968e+00  1.8706983086677653e+00  2.2347056462251160e+00  2.5620833130470260e+00  2.8429236575716965e+00  3.0674272433143375e+00  3.2266927529260792e+00  3.3141100259566199e+00  3.3283818912299239e+00  -1.8990362456051941e+00  -1.8847681389839346e+00  -1.8026094202614054e+00  -1.6530038633713053e+00  -1.4413379155114525e+00  -1.1752907782604625e+00  -8.6367844539708860e-01  -5.1577185669031578e-01  -1.4090108416654618e-01  2.5172828782981344e-01  6.5307035530320612e-01  1.0541840821958599e+00  1.4461381445668791e+00  1.8199184424395529e+00  2.1663804133399789e+00  2.4762929318788305e+00  2.7405267879990300e+00  2.9504428202481714e+00  3.0985397069025851e+00  3.1795253222231574e+00  3.1927973900124411e+00  -1.7839011087359689e+00  -1.7706365565646784e+00  -1.6936791391506150e+00  -1.5530799570007163e+00  -1.3533225965427642e+00  -1.1010606161776464e+00  -8.0420387436367635e-01  -4.7136338471509770e-01  -1.1148664711549872e-01  2.6635976995348004e-01  6.5309487233446806e-01  1.0396531920846586e+00  1.4169787129522438e+00  1.7760202639387610e+00  2.1077651920900959e+00  2.4033478844556631e+00  2.6542676131933693e+00  2.8527447209985208e+00  2.9922495374520253e+00  3.0683552947456763e+00  3.0808787566987879e+00  -1.6935679348989272e+00  -1.6810528144059966e+00  -1.6079380382527277e+00  -1.4740486770243550e+00  -1.2832816990199176e+00  -1.0415930129125617e+00  -7.5624431325110686e-01  -4.3534275815144441e-01  -8.7511227952040513e-02  2.7834089217174923e-01  6.5316458219511020e-01  1.0278597510031422e+00  1.3933341726734663e+00  1.7405631492767581e+00  2.0606797904618293e+00  2.3451232152204424e+00  2.5858664598394081e+00  2.7757389301593336e+00  2.9088678322974357e+00  2.9813892615796704e+00  2.9933762306462928e+00  -1.6284592733357524e+00  -1.6164793719267028e+00  -1.5460285223639303e+00  -1.4168088202847464e+00  -1.2323513012544645e+00  -9.9816075283609984e-01  -7.2106418311425446e-01  -4.0881484058688111e-01  -6.9791006888349397e-02  2.8723530876491710e-01  6.5326942197649784e-01  1.0192199930691841e+00  1.3760012229160128e+00  1.7146353648483765e+00  2.0263794155428569e+00  2.3028963873240391e+00  2.5364850901665670e+00  2.7203761651623877e+00  2.8491158768206080e+00  2.9191910881492094e+00  2.9308305068044316e+00  -1.5888452794954815e+00  -1.5772104635227193e+00  -1.5083538972221395e+00  -1.3819226816586525e+00  -1.2012465404604515e+00  -9.7157396640826421e-01  -6.9947854879729798e-01  -3.9250070148094751e-01  -5.8864828600488001e-02  2.9275094652210704e-01  6.5339803971431665e-01  1.0140040406623541e+00  1.3654993842222525e+00  1.6989441318373308e+00  2.0056748086588807e+00  2.2774875882093513e+00  2.5068676298269037e+00  2.6872692533364044e+00  2.8134682426443636e+00  2.8821426526384171e+00  2.8936104236796623e+00  -1.5748639561400710e+00  -1.5633977706790649e+00  -1.4951258701919026e+00  -1.3696905627661775e+00  -1.1903551964774470e+00  -9.6227805040253633e-01  -6.9194125183052446e-01  -3.8680666316145057e-01  -5.5040139277808708e-02  2.9471774725335032e-01  6.5353860935674901e-01  1.0123594714601407e+00  1.3621173579912995e+00  1.6938838818749371e+00  1.9990184705440059e+00  2.2693552691160188e+00  2.4974324151909251e+00  2.6767677814796595e+00  2.8022030889053808e+00  2.8704749893925476e+00  2.8819411748535577e+00  -1.5865332049661802e+00  -1.5750654339249379e+00  -1.5063910239308873e+00  -1.3801920346229277e+00  -1.1997904111134257e+00  -9.7041036949587089e-01  -6.9859758994539845e-01  -3.9186691312384464e-01  -5.8422165508766541e-02  2.9307317805113847e-01  6.5367917899918615e-01  1.0143262721913926e+00  1.3659420473139854e+00  1.6995779201944357e+00  2.0065557675107786e+00  2.2786511851217481e+00  2.5083237591739387e+00  2.6889999003721394e+00  2.8154311159356382e+00  2.8842876822362222e+00  2.8959224982089862e+00  -1.6237532880909482e+00  -1.6121138694357291e+00  -1.5420386581071353e+00  -1.4132989464489063e+00  -1.2294078714530932e+00  -9.9581916861056430e-01  -7.1930219682937746e-01  -4.0755814613489272e-01  -6.8924004202521358e-02  2.8785722564431704e-01  6.5380779673701417e-01  1.0198419099485934e+00  1.3768682256018545e+00  1.7158920593003792e+00  2.0281414018277544e+00  2.3052379715495990e+00  2.5394285199679683e+00  2.7238860389982458e+00  2.8531057410774494e+00  2.9235565906402368e+00  2.9355364920492812e+00  -1.6862990119327934e+00  -1.6743120428661680e+00  -1.6017906135839395e+00  -1.4686617114458358e+00  -1.2787892411259161e+00  -1.0380459965069597e+00  -7.5360257174833700e-01  -4.3348593056326162e-01  -8.6256953959957888e-02  2.7921746771037204e-01  6.5391263651841847e-01  1.0287363265417833e+00  1.3945884466655649e+00  1.7424199768649573e+00  2.0633215319646196e+00  2.3486702316260746e+00  2.5903589177334427e+00  2.7811258957378797e+00  2.9150152569662513e+00  2.9881300331195191e+00  3.0006451536124494e+00  -1.7738015379852778e+00  -1.7612780760321687e+00  -1.6851723187385177e+00  -1.5456675022850179e+00  -1.3471903944798633e+00  -1.0962706657421604e+00  -8.0068797337658659e-01  -4.6894304522524555e-01  -1.0990149423871662e-01  2.6742402662887343e-01  6.5398234637907637e-01  1.0407174487600674e+00  1.4185638658290425e+00  1.7784406034286269e+00  2.1112810930772024e+00  2.4081378348911682e+00  2.6603998152562967e+00  2.8601571757142454e+00  3.0007563578641325e+00  3.0777137752781916e+00  3.0909783274494838e+00  -1.8857201712989056e+00  -1.8724481035096241e+00  -1.7914624881890524e+00  -1.6433656015346432e+00  -1.4334495692854954e+00  -1.1692157131652952e+00  -8.5930319462643912e-01  -5.1284122372600804e-01  -1.3906092585332236e-01  2.5289313651770079e-01  6.5400686341036329e-01  1.0553489308837576e+00  1.4479783028801179e+00  1.8228490754038846e+00  2.1707556641106538e+00  2.4823679969740238e+00  2.7484151342250018e+00  2.9600810820848396e+00  3.1096866389749374e+00  3.1918453576974564e+00  3.2061134643187139e+00  -2.0213046725163566e+00  -2.0070328072430623e+00  -1.9196155342125174e+00  -1.7603500246007799e+00  -1.5358464388581357e+00  -1.2550060943334609e+00  -9.2762842751154850e-01  -5.6362108995419258e-01  -1.7260304516140876e-01  2.3621602429696176e-01  6.5397896926669719e-01  1.0720239567815188e+00  1.4816813562748232e+00  1.8740662491053071e+00  2.2399089380776043e+00  2.5694813431684369e+00  2.8527037146342566e+00  3.0795442460521825e+00  3.2408503596490026e+00  3.3298581631673327e+00  3.3454494559614951e+00  -2.1795483345958289e+00  -2.1639592192678494e+00  -2.0681436162337334e+00  -1.8945807580463541e+00  -1.6518981863320277e+00  -1.3509810303740346e+00  -1.0031323239262662e+00  -6.1915268918743127e-01  -2.0900180326101833e-01  2.1818607995925110e-01  6.5389685234629358e-01  1.0899427095863814e+00  1.5181331649533476e+00  1.9299396825403217e+00  2.3161828983577060e+00  2.6667981498076041e+00  2.9707895105271054e+00  3.2165575490816742e+00  3.3928646958934090e+00  3.4908345110084333e+00  3.5081779429604256e+00  -2.3591308097825965e+00  -2.3417899813803995e+00  -2.2349294280960526e+00  -2.0431095990055086e+00  -1.7780742615137139e+00  -1.4534625409080908e+00  -1.0824196451860431e+00  -6.7665385245654242e-01  -2.4630226084139098e-01  1.9981122538386992e-01  6.5376778685279335e-01  1.1081070451501316e+00  1.5553750724804405e+00  1.9876645289013108e+00  2.3961427181742820e+00  2.7705984457106125e+00  3.0991256325776910e+00  3.3682158286285810e+00  3.5637378816278127e+00  3.6735431946079795e+00  3.6932572635271934e+00  -2.5583470674180635e+00  -2.5385966009021375e+00  -2.4169049713427673e+00  -2.2016514240375140e+00  -1.9094140002126980e+00  -1.5575086797078064e+00  -1.1611246036483680e+00  -7.3267894190246485e-01  -2.8214901905321582e-01  1.8229004371673738e-01  6.5361250659890657e-01  1.1253535087187587e+00  1.5910675235653362e+00  2.0437795915602339e+00  2.4753702215679141e+00  2.8758638645849981e+00  3.2326923004342882e+00  3.5302543757848399e+00  3.7505542353343193e+00  3.8763448036687120e+00  3.8993978209162421e+00  -2.7750171498267302e+00  -2.7517150760711369e+00  -2.6094507393771451e+00  -2.3639100074959747e+00  -2.0390623920141744e+00  -1.6567388424295493e+00  -1.2339557369339968e+00  -7.8326731214038980e-01  -3.1393811198671817e-01  1.6692173549315517e-01  6.5346860209406710e-01  1.1404521616618024e+00  1.6226555282233388e+00  2.0943327640037319e+00  2.5485201616187099e+00  2.9760937869861652e+00  3.3644972514275771e+00  3.6963377970181539e+00  3.9488763774380264e+00  4.0970094541428397e+00  4.1250767576228284e+00  -3.0063895599716970e+00  -2.9771528920124437e+00  -2.8052001845638088e+00  -2.5205703151870305e+00  -2.1578605203768504e+00  -1.7434488362955738e+00  -1.2950838159819342e+00  -8.2438043335208711e-01  -3.3916442494817750e-01  1.5491771135901347e-01  6.5338910067729838e-01  1.1522963230039032e+00  1.6477297221795968e+00  2.1353492271307219e+00  2.6097493653263317e+00  3.0634392732339215e+00  3.4851167501471343e+00  3.8569548013890276e+00  4.1515225743389319e+00  4.3322576956056107e+00  4.3686237272139090e+00  -3.2491705255034309e+00  -3.2078781081895356e+00  -2.9916734525681039e+00  -2.6580978215594557e+00  -2.2544803296567539e+00  -1.8094708781497839e+00  -1.3391589187507336e+00  -8.5276551630990616e-01  -3.5601621115685844e-01  1.4709898646235953e-01  6.5342994003744803e-01  1.1601851051033893e+00  1.6646185953576824e+00  2.1637299223800155e+00  2.6538233506858293e+00  3.1296808630407877e+00  3.5828472641367295e+00  3.9979917878878766e+00  4.3459931699037462e+00  4.5763374429033359e+00  4.6284638042270325e+00  -3.5003012783293905e+00  -3.4286114440276521e+00  -3.1473300092121312e+00  -2.7585731569727021e+00  -2.3173872701266545e+00  -1.8485223876968018e+00  -1.3632369688565305e+00  -8.6728363070646108e-01  -3.6417558707877423e-01  1.4351395805997094e-01  6.5361925389800035e-01  1.1641451349999972e+00  1.6731368807941236e+00  2.1785633611953972e+00  2.6781294162581788e+00  3.1688620429001224e+00  3.6460619760249533e+00  4.1004160851327800e+00  4.5095326845792014e+00  4.8160130669684058e+00  4.9034830836101966e+00  -3.7587206296230717e+00  -3.6016849035593763e+00  -3.2393543833766705e+00  -2.8050557414159267e+00  -2.3409969063318621e+00  -1.8606916299481022e+00  -1.3695074050928455e+00  -8.7041288037609554e-01  -3.6558528823454189e-01  1.4310080193175967e-01  6.5390424153952698e-01  1.1651514676768677e+00  1.6752074600889575e+00  2.1824557797780586e+00  2.6852664991916830e+00  3.1819160869874663e+00  3.6703516629275281e+00  4.1473505521883469e+00  4.6049347167030277e+00  5.0119911689456407e+00  5.1908485157674589e+00  -3.9085077467935019e+00  -3.6473421876361645e+00  -3.2451583293018031e+00  -2.8024440989796870e+00  -2.3376549772540027e+00  -1.8580071958172011e+00  -1.3675351534887881e+00  -8.6902381229169334e-01  -3.6467089975344158e-01  1.4361436828378393e-01  6.5406933033453174e-01  1.1650111097815044e+00  1.6748048098810104e+00  2.1818439967244623e+00  2.6845260455678015e+00  3.1811992857547184e+00  3.6700292101142100e+00  4.1486110035395916e+00  4.6124948896762383e+00  5.0473837857878117e+00  5.4396881404611817e+00  </DataArray> 
</PointData> 
</Piece>
</UnstructuredGrid>
</VTKFile>