<?xml version="1.0"?>
<VTKFile type="UnstructuredGrid"  version="0.1"  >
<UnstructuredGrid>
<Piece  NumberOfPoints="651" NumberOfCells="1200">
<Points>
<DataArray  type="Float64"  NumberOfComponents="3"  format="ascii">0 0 0  50000 0 0  100000 0 0  150000 0 0  200000 0 0  250000 0 0  300000 0 0  350000 0 0  400000 0 0  450000 0 0  500000 0 0  550000 0 0  600000 0 0  650000 0 0  700000 0 0  750000 0 0  800000 0 0  850000 0 0  900000 0 0  950000 0 0  1000000 0 0  0 50000 0  50000 50000 0  100000 50000 0  150000 50000 0  200000 50000 0  250000 50000 0  300000 50000 0  350000 50000 0  400000 50000 0  450000 50000 0  500000 50000 0  550000 50000 0  600000 50000 0  650000 50000 0  700000 50000 0  750000 50000 0  800000 50000 0  850000 50000 0  900000 50000 0  950000 50000 0  1000000 50000 0  0 100000 0  50000 100000 0  100000 100000 0  150000 100000 0  200000 100000 0  250000 100000 0  300000 100000 0  350000 100000 0  400000 100000 0  450000 100000 0  500000 100000 0  550000 100000 0  600000 100000 0  650000 100000 0  700000 100000 0  750000 100000 0  800000 100000 0  850000 100000 0  900000 100000 0  950000 100000 0  1000000 100000 0  0 150000 0  50000 150000 0  100000 150000 0  150000 150000 0  200000 150000 0  250000 150000 0  300000 150000 0  350000 150000 0  400000 150000 0  450000 150000 0  500000 150000 0  550000 150000 0  600000 150000 0  650000 150000 0  700000 150000 0  750000 150000 0  800000 150000 0  850000 150000 0  900000 150000 0  950000 150000 0  1000000 150000 0  0 200000 0  50000 200000 0  100000 200000 0  150000 200000 0  200000 200000 0  250000 200000 0  300000 200000 0  350000 200000 0  400000 200000 0  450000 200000 0  500000 200000 0  550000 200000 0  600000 200000 0  650000 200000 0  700000 200000 0  750000 200000 0  800000 200000 0  850000 200000 0  900000 200000 0  950000 200000 0  1000000 200000 0  0 250000 0  50000 250000 0  100000 250000 0  150000 250000 0  200000 250000 0  250000 250000 0  300000 250000 0  350000 250000 0  400000 250000 0  450000 250000 0  500000 250000 0  550000 250000 0  600000 250000 0  650000 250000 0  700000 250000 0  750000 250000 0  800000 250000 0  850000 250000 0  900000 250000 0  950000 250000 0  1000000 250000 0  0 300000 0  50000 300000 0  100000 300000 0  150000 300000 0  200000 300000 0  250000 300000 0  300000 300000 0  350000 300000 0  400000 300000 0  450000 300000 0  500000 300000 0  550000 300000 0  600000 300000 0  650000 300000 0  700000 300000 0  750000 300000 0  800000 300000 0  850000 300000 0  900000 300000 0  950000 300000 0  1000000 300000 0  0 350000 0  50000 350000 0  100000 350000 0  150000 350000 0  200000 350000 0  250000 350000 0  300000 350000 0  350000 350000 0  400000 350000 0  450000 350000 0  500000 350000 0  550000 350000 0  600000 350000 0  650000 350000 0  700000 350000 0  750000 350000 0  800000 350000 0  850000 350000 0  900000 350000 0  950000 350000 0  1000000 350000 0  0 400000 0  50000 400000 0  100000 400000 0  150000 400000 0  200000 400000 0  250000 400000 0  300000 400000 0  350000 400000 0  400000 400000 0  450000 400000 0  500000 400000 0  550000 400000 0  600000 400000 0  650000 400000 0  700000 400000 0  750000 400000 0  800000 400000 0  850000 400000 0  900000 400000 0  950000 400000 0  1000000 400000 0  0 450000 0  50000 450000 0  100000 450000 0  150000 450000 0  200000 450000 0  250000 450000 0  300000 450000 0  350000 450000 0  400000 450000 0  450000 450000 0  500000 450000 0  550000 450000 0  600000 450000 0  650000 450000 0  700000 450000 0  750000 450000 0  800000 450000 0  850000 450000 0  900000 450000 0  950000 450000 0  1000000 450000 0  0 500000 0  50000 500000 0  100000 500000 0  150000 500000 0  200000 500000 0  250000 500000 0  300000 500000 0  350000 500000 0  400000 500000 0  450000 500000 0  500000 500000 0  550000 500000 0  600000 500000 0  650000 500000 0  700000 500000 0  750000 500000 0  800000 500000 0  850000 500000 0  900000 500000 0  950000 500000 0  1000000 500000 0  0 550000 0  50000 550000 0  100000 550000 0  150000 550000 0  200000 550000 0  250000 550000 0  300000 550000 0  350000 550000 0  400000 550000 0  450000 550000 0  500000 550000 0  550000 550000 0  600000 550000 0  650000 550000 0  700000 550000 0  750000 550000 0  800000 550000 0  850000 550000 0  900000 550000 0  950000 550000 0  1000000 550000 0  0 600000 0  50000 600000 0  100000 600000 0  150000 600000 0  200000 600000 0  250000 600000 0  300000 600000 0  350000 600000 0  400000 600000 0  450000 600000 0  500000 600000 0  550000 600000 0  600000 600000 0  650000 600000 0  700000 600000 0  750000 600000 0  800000 600000 0  850000 600000 0  900000 600000 0  950000 600000 0  1000000 600000 0  0 650000 0  50000 650000 0  100000 650000 0  150000 650000 0  200000 650000 0  250000 650000 0  300000 650000 0  350000 650000 0  400000 650000 0  450000 650000 0  500000 650000 0  550000 650000 0  600000 650000 0  650000 650000 0  700000 650000 0  750000 650000 0  800000 650000 0  850000 650000 0  900000 650000 0  950000 650000 0  1000000 650000 0  0 700000 0  50000 700000 0  100000 700000 0  150000 700000 0  200000 700000 0  250000 700000 0  300000 700000 0  350000 700000 0  400000 700000 0  450000 700000 0  500000 700000 0  550000 700000 0  600000 700000 0  650000 700000 0  700000 700000 0  750000 700000 0  800000 700000 0  850000 700000 0  900000 700000 0  950000 700000 0  1000000 700000 0  0 750000 0  50000 750000 0  100000 750000 0  150000 750000 0  200000 750000 0  250000 750000 0  300000 750000 0  350000 750000 0  400000 750000 0  450000 750000 0  500000 750000 0  550000 750000 0  600000 750000 0  650000 750000 0  700000 750000 0  750000 750000 0  800000 750000 0  850000 750000 0  900000 750000 0  950000 750000 0  1000000 750000 0  0 800000 0  50000 800000 0  100000 800000 0  150000 800000 0  200000 800000 0  250000 800000 0  300000 800000 0  350000 800000 0  400000 800000 0  450000 800000 0  500000 800000 0  550000 800000 0  600000 800000 0  650000 800000 0  700000 800000 0  750000 800000 0  800000 800000 0  850000 800000 0  900000 800000 0  950000 800000 0  1000000 800000 0  0 850000 0  50000 850000 0  100000 850000 0  150000 850000 0  200000 850000 0  250000 850000 0  300000 850000 0  350000 850000 0  400000 850000 0  450000 850000 0  500000 850000 0  550000 850000 0  600000 850000 0  650000 850000 0  700000 850000 0  750000 850000 0  800000 850000 0  850000 850000 0  900000 850000 0  950000 850000 0  1000000 850000 0  0 900000 0  50000 900000 0  100000 900000 0  150000 900000 0  200000 900000 0  250000 900000 0  300000 900000 0  350000 900000 0  400000 900000 0  450000 900000 0  500000 900000 0  550000 900000 0  600000 900000 0  650000 900000 0  700000 900000 0  750000 900000 0  800000 900000 0  850000 900000 0  900000 900000 0  950000 900000 0  1000000 900000 0  0 950000 0  50000 950000 0  100000 950000 0  150000 950000 0  200000 950000 0  250000 950000 0  300000 950000 0  350000 950000 0  400000 950000 0  450000 950000 0  500000 950000 0  550000 950000 0  600000 950000 0  650000 950000 0  700000 950000 0  750000 950000 0  800000 950000 0  850000 950000 0  900000 950000 0  950000 950000 0  1000000 950000 0  0 1000000 0  50000 1000000 0  100000 1000000 0  150000 1000000 0  200000 1000000 0  250000 1000000 0  300000 1000000 0  350000 1000000 0  400000 1000000 0  450000 1000000 0  500000 1000000 0  550000 1000000 0  600000 1000000 0  650000 1000000 0  700000 1000000 0  750000 1000000 0  800000 1000000 0  850000 1000000 0  900000 1000000 0  950000 1000000 0  1000000 1000000 0  0 1050000 0  50000 1050000 0  100000 1050000 0  150000 1050000 0  200000 1050000 0  250000 1050000 0  300000 1050000 0  350000 1050000 0  400000 1050000 0  450000 1050000 0  500000 1050000 0  550000 1050000 0  600000 1050000 0  650000 1050000 0  700000 1050000 0  750000 1050000 0  800000 1050000 0  850000 1050000 0  900000 1050000 0  950000 1050000 0  1000000 1050000 0  0 1100000 0  50000 1100000 0  100000 1100000 0  150000 1100000 0  200000 1100000 0  250000 1100000 0  300000 1100000 0  350000 1100000 0  400000 1100000 0  450000 1100000 0  500000 1100000 0  550000 1100000 0  600000 1100000 0  650000 1100000 0  700000 1100000 0  750000 1100000 0  800000 1100000 0  850000 1100000 0  900000 1100000 0  950000 1100000 0  1000000 1100000 0  0 1150000 0  50000 1150000 0  100000 1150000 0  150000 1150000 0  200000 1150000 0  250000 1150000 0  300000 1150000 0  350000 1150000 0  400000 1150000 0  450000 1150000 0  500000 1150000 0  550000 1150000 0  600000 1150000 0  650000 1150000 0  700000 1150000 0  750000 1150000 0  800000 1150000 0  850000 1150000 0  900000 1150000 0  950000 1150000 0  1000000 1150000 0  0 1200000 0  50000 1200000 0  100000 1200000 0  150000 1200000 0  200000 1200000 0  250000 1200000 0  300000 1200000 0  350000 1200000 0  400000 1200000 0  450000 1200000 0  500000 1200000 0  550000 1200000 0  600000 1200000 0  650000 1200000 0  700000 1200000 0  750000 1200000 0  800000 1200000 0  850000 1200000 0  900000 1200000 0  950000 1200000 0  1000000 1200000 0  0 1250000 0  50000 1250000 0  100000 1250000 0  150000 1250000 0  200000 1250000 0  250000 1250000 0  300000 1250000 0  350000 1250000 0  400000 1250000 0  450000 1250000 0  500000 1250000 0  550000 1250000 0  600000 1250000 0  650000 1250000 0  700000 1250000 0  750000 1250000 0  800000 1250000 0  850000 1250000 0  900000 1250000 0  950000 1250000 0  1000000 1250000 0  0 1300000 0  50000 1300000 0  100000 1300000 0  150000 1300000 0  200000 1300000 0  250000 1300000 0  300000 1300000 0  350000 1300000 0  400000 1300000 0  450000 1300000 0  500000 1300000 0  550000 1300000 0  600000 1300000 0  650000 1300000 0  700000 1300000 0  750000 1300000 0  800000 1300000 0  850000 1300000 0  900000 1300000 0  950000 1300000 0  1000000 1300000 0  0 1350000 0  50000 1350000 0  100000 1350000 0  150000 1350000 0  200000 1350000 0  250000 1350000 0  300000 1350000 0  350000 1350000 0  400000 1350000 0  450000 1350000 0  500000 1350000 0  550000 1350000 0  600000 1350000 0  650000 1350000 0  700000 135
[...]
<PointData  Scalars="f_25"> 
<DataArray  type="Float64"  Name="f_25"  format="ascii">-5.4232821563853201e-02  1.0617773082797767e-02  8.1600189960003233e-02  1.5695398488745255e-01  2.3449768396869169e-01  3.1355868617261534e-01  3.9377908555537944e-01  4.7488502949519862e-01  5.5662785324697217e-01  6.3876455225907181e-01  7.2105052509346090e-01  8.0323662769958415e-01  8.8506721531376442e-01  9.6627681156044720e-01  1.0465824720284755e+00  1.1256667562778280e+00  1.2031411080682777e+00  1.2784625175954651e+00  1.3506671733533886e+00  1.4170727482997081e+00  1.4609538953215206e+00  -1.2827832763619762e-02  1.7306187479775224e-02  8.3411001808297344e-02  1.5753321342983317e-01  2.3469726658363232e-01  3.1362469973456270e-01  3.9380178576988750e-01  4.7490651792989025e-01  5.5667189219106006e-01  6.3884681881997085e-01  7.2118286418959798e-01  8.0342918561205079e-01  8.8532973119124714e-01  9.6661929521427448e-01  1.0470140795759291e+00  1.1261863746179643e+00  1.2036898278347927e+00  1.2787116207371956e+00  1.3491801848147584e+00  1.4085206271328714e+00  1.4356043983928997e+00  3.5165248405796372e-02  5.0254787116858400e-02  1.0010611909397198e-01  1.6617627627603271e-01  2.3945692311157454e-01  3.1638431511465870e-01  3.9545896916764239e-01  4.7592172481859796e-01  5.5729479945722338e-01  6.3921274236106429e-01  7.2135475000982696e-01  8.0341366753785470e-01  8.8507672409622618e-01  9.6600441931847558e-01  1.0457926256552963e+00  1.1238881333679986e+00  1.1993840062804846e+00  1.2705074963552097e+00  1.3333681123736882e+00  1.3793059125596265e+00  1.3921380391978264e+00  8.1124583904826006e-02  9.0311473319219709e-02  1.2784357967462409e-01  1.8397339534038662e-01  2.5076358058701192e-01  3.2362624479493129e-01  4.0012065993667056e-01  4.7888939757279425e-01  5.5909197462086879e-01  6.4013381588555796e-01  7.2153390644902293e-01  8.0285357951063641e-01  8.8364779869837928e-01  9.6341468306260691e-01  1.0415186648699977e+00  1.1170486801867638e+00  1.1885411457943034e+00  1.2534509310021404e+00  1.3072587872511543e+00  1.3425008195959267e+00  1.3499717320234272e+00  1.2456034135268820e-01  1.3105461266455362e-01  1.6052630817831495e-01  2.0798978539514301e-01  2.6769376851059440e-01  3.3532926573878946e-01  4.0807847424542687e-01  4.8414121893010031e-01  5.6231766951696971e-01  6.4173971019779741e-01  7.2171014620467477e-01  8.0160160437909833e-01  8.8078065366112213e-01  9.5853118900626400e-01  1.0339518700651136e+00  1.1057968851381397e+00  1.1722232998389257e+00  1.2304245140067875e+00  1.2762401182183241e+00  1.3042080659303610e+00  1.3094524572107338e+00  1.6526897548077946e-01  1.7031168393416529e-01  1.9445855175386600e-01  2.3509665661134344e-01  2.8827596505920461e-01  3.5043067452645521e-01  4.1882225215518692e-01  4.9146158322525740e-01  5.6689522131560677e-01  6.4400952492366947e-01  7.2188378380370621e-01  7.9968178991611316e-01  8.7656275381747795e-01  9.5159260453480532e-01  1.0236377378801351e+00  1.0912256117206371e+00  1.1523674968481530e+00  1.2043765911679063e+00  1.2438138674847086e+00  1.2668937220565137e+00  1.2710212714282567e+00  2.0298234855353128e-01  2.0713137243592294e-01  2.2760902568790575e-01  2.6299827124429304e-01  3.1058574488193630e-01  3.6755501125876594e-01  4.3145639390128482e-01  5.0030629140004113e-01  5.7252227752656382e-01  6.4681112946799024e-01  7.2205905909285639e-01  7.9723579299102931e-01  8.7130843516828682e-01  9.4315632168735974e-01  1.0114787256038968e+00  1.0746930309429590e+00  1.1308361660363742e+00  1.1775146931136575e+00  1.2120062840065624e+00  1.2316946768091448e+00  1.2351594415879008e+00  2.3742443002689712e-01  2.4097023002263590e-01  2.5880929204172987e-01  2.9015219261580411e-01  3.3308949433595586e-01  3.8541487804961222e-01  4.4501266950138740e-01  5.1000924322446706e-01  5.7879011811319314e-01  6.4995330262612061e-01  7.2224030486273549e-01  7.9446328145420975e-01  8.6543352484015545e-01  9.3389101564400945e-01  9.9843498459661717e-01  1.0574609867335403e+00  1.1091221603090393e+00  1.1513522340796041e+00  1.1820129439334557e+00  1.1992550372235777e+00  1.2022790496057472e+00  2.6834768707281115e-01  2.7146092053922993e-01  2.8733766350959661e-01  3.1553313318711679e-01  3.5465509455487221e-01  4.0295400647096119e-01  4.5861789122217977e-01  5.1992080751913727e-01  5.8527580703122939e-01  6.5323010394399772e-01  7.2243034564703112e-01  7.9157505164111197e-01  8.5936310926246418e-01  9.2444312683717256e-01  9.8536841598041225e-01  1.0405661906404557e+00  1.0883368927401225e+00  1.1269088803867311e+00  1.1545817385415920e+00  1.1700019074724821e+00  1.1727120184018720e+00  2.9554513651830405e-01  2.9833612089488393e-01  3.1272128810956884e-01  3.3845266647820071e-01  3.7447288512943733e-01  4.1936171150105439e-01  4.7155623080760173e-01  5.2947810736893730e-01  5.9159715186568596e-01  6.5644996053265969e-01  7.2263027792255807e-01  7.8876405027822694e-01  8.5347827550360544e-01  9.1537044007943447e-01  9.7298522070348048e-01  1.0248071269003047e+00  1.0692810888873332e+00  1.1048759545251330e+00  1.1302069957977419e+00  1.1442421918871302e+00  1.1467203350999018e+00  3.1885155241816249e-01  3.2139743924054126e-01  3.3463886020489370e-01  3.5844346391301646e-01  3.9197287633061251e-01  4.3403979005058912e-01  4.8327438814260959e-01  5.3822824575245887e-01  5.9743691759767958e-01  6.5945028937758365e-01  7.2283984790622635e-01  7.8619175627379523e-01  8.4809348222196479e-01  9.0712078522295303e-01  9.6183175410100341e-01  1.0107752745302288e+00  1.0525221316133913e+00  1.0857268453055013e+00  1.1092276608141853e+00  1.1222028981748255e+00  1.1245075699180660e+00  3.3814026569591588e-01  3.4049885569598398e-01  3.5286891355830374e-01  3.7518700279831269e-01  4.0675872593665935e-01  4.4655909996674126e-01  4.9336223908040117e-01  5.4582555958422474e-01  6.0254728245870404e-01  6.6210184921169002e-01  7.2305794692941461e-01  7.8398486091873365e-01  8.4345314369894286e-01  9.0003548326598082e-01  9.5231356611346785e-01  9.9889665868082189e-01  1.0384571790984196e+00  1.0697872987596972e+00  1.0918801293318154e+00  1.1040521558823686e+00  1.1062288297190881e+00  3.5331829927723352e-01  3.5553567328544095e-01  3.6725967622754108e-01  3.8846773341387875e-01  4.1855928166217521e-01  4.5661987338628074e-01  5.0152659981495173e-01  5.5201761349707279e-01  6.0674406501433265e-01  6.6430722320338820e-01  7.2328301832096575e-01  7.8223755133069472e-01  8.3973797671144546e-01  8.9436348586366976e-01  9.4472105955114916e-01  9.8947022496840042e-01  1.0273600842622879e+00  1.0572804544694010e+00  1.0783292082971250e+00  1.0899126588776631e+00  1.0919993313866965e+00  3.6432120365526327e-01  3.6643621629492845e-01  3.7771005187970286e-01  3.9814333756681142e-01  4.2719425003867778e-01  4.6401987838796105e-01  5.0756636348102402e-01  5.5662850131496022e-01  6.0989718283975558e-01  6.6599676265902774e-01  7.2351332606388485e-01  7.8101603802553310e-01  8.3707480536894019e-01  8.9027798422884252e-01  9.3925383016130959e-01  9.8269882216634719e-01  1.0194148870124615e+00  1.0483562652417711e+00  1.0686877014228964e+00  1.0798713911488551e+00  1.0819017650856799e+00  3.7110841192587124e-01  3.7315548669681248e-01  3.8415712330968060e-01  4.0412527114313418e-01  4.3255059757900116e-01  4.6863084114352621e-01  5.1135233223981835e-01  5.5954383069171421e-01  6.1192110289832524e-01  6.6712409927264016e-01  7.2374710075214566e-01  7.8036327812464412e-01  8.3554618309152440e-01  8.8789125580054129e-01  9.3604041765354140e-01  9.7871222285543980e-01  1.0147389416245809e+00  1.0431108401528046e+00  1.0630293241464512e+00  1.0739869091597383e+00  1.0759923686573218e+00  3.7365965852289418e-01  3.7567063386007626e-01  3.8656811253694356e-01  4.0636644087927859e-01  4.3456721258477282e-01  4.7038242754154469e-01  5.1281276888534966e-01  5.6069934776304553e-01  6.1276721576314330e-01  6.6766239595255705e-01  7.2398259647698104e-01  7.8030279700140392e-01  8.3519797719081723e-01  8.8726584519091400e-01  9.3515242406860855e-01  9.7758276541241318e-01  1.0133979803691844e+00  1.0415987520746783e+00  1.0613970804170130e+00  1.0722945590938797e+00  1.0743055344310617e+00  3.7197282429663397e-01  3.7397828379421727e-01  3.8493586880750508e-01  4.0485435280115178e-01  4.3322625132937675e-01  4.6925297009851874e-01  5.1192477530041824e-01  5.6007393715341947e-01  6.1241900986243614e-01  6.6760191482931763e-01  7.2421809220181721e-01  7.8084109368132237e-01  8.3604409005563585e-01  8.8842136226224555e-01  9.3661286071414029e-01  9.7933435181043149e-01  1.0154145953749578e+00  1.0438399218108241e+00  1.0638080696442775e+00  1.0748097062571447e+00  1.0768567810280862e+00  3.6606342786827534e-01  3.6809380180510093e-01  3.7927749153105950e-01  3.9960892771218576e-01  4.2855030594149640e-01  4.6526637078761246e-01  5.0871136279265106e-01  5.5768720872511890e-01  6.1089038758502157e-01  6.6694915492842977e-01  7.2445186689007868e-01  7.8196843029493557e-01  8.3806801011420684e-01  8.9133669163900087e-01  9.4039882947293685e-01  9.8394531456599954e-01  1.0207709429152834e+00  1.0498218553871490e+00  1.0702551410742573e+00  1.0815289766590315e+00  1.0836439892986964e+00  3.5596586156726145e-01  3.5805253407629478e-01  3.6963598465683317e-01  3.9068473848455687e-01  4.2060510869167200e-01  4.5849496798556028e-01  5.0324413340281315e-01  5.5360170709029333e-01  6.0822721624251819e-01  6.6572764162326958e-01  7.2468217463300011e-01  7.8365796975057855e-01  8.4122112793963255e-01  8.9594757945688985e-01  9.4643859313901146e-01  9.9134531956768179e-01  1.0294059112917886e+00  1.0594974595400852e+00  1.0807055167264212e+00  1.0924295196685208e+00  1.0946468936767282e+00  3.4173636323487161e-01  3.4391303707159132e-01  3.5608506362214459e-01  3.7817789419426384e-01  4.0950801385554303e-01  4.4906853427314147e-01  4.9565162684049696e-01  5.4792970968798527e-01  6.0451204925502389e-01  6.6398033203523343e-01  7.2490724602455403e-01  7.8586334374227951e-01  8.4541791049526416e-01  9.0213963336974190e-01  9.5460295387356475e-01  1.0014060929872242e+00  1.0412064670173076e+00  1.0727781901556530e+00  1.0950962793956605e+00  1.1074663372579796e+00  1.1098249272580476e+00  3.2345762303589781e-01  3.2576229477913804e-01  3.3873753213977881e-01  3.6223834764846341e-01  3.9544306134057539e-01  4.3718991842373889e-01  4.8613343885296578e-01  5.4084440773101727e-01  5.9987171073200696e-01  6.6177343668017752e-01  7.2512534504774639e-01  7.8851490357638965e-01  8.5052827535629316e-01  9.0973694720151332e-01  9.6469080481136205e-01  1.0139254029033824e+00  1.0559923166233587e+00  1.0895217290409527e+00  1.1133263327490737e+00  1.1265677537134249e+00  1.1291136405358040e+00  3.0124485785406618e-01  3.0372300106683747e-01  3.1775819715622694e-01  3.4308923842883565e-01  3.7868410406663744e-01  4.2315806605366779e-01  4.7497997225049349e-01  5.3259475287454039e-01  5.9448691745037152e-01  6.5920114267575169e-01  7.2533491503142067e-01  7.9151523242132016e-01  8.5636804108829279e-01  9.1848708558504122e-01  9.7640896214637551e-01  1.0286034814529215e+00  1.0734923078245378e+00  1.1095125264757717e+00  1.1352439048444019e+00  1.1496290720590854e+00  1.1524200564356650e+00  2.7525317455209891e-01  2.7796328548148819e-01  2.9338345441238017e-01  3.2105631256724215e-01  3.5962830021385189e-01  4.0739900231352172e-01  4.6259677697356677e-01  5.2352206611680829e-01  5.8860208369151845e-01  6.5639014131287210e-01  7.2553484730695361e-01  7.9473508900998813e-01  8.6268938592275646e-01  9.2804438543484713e-01  9.8934730173180252e-01  1.0450111864830192e+00  1.0933100983991066e+00  1.1324320597668593e+00  1.1606275294443771e+00  1.1765042724147421e+00  1.1796175058811611e+00  2.4568614334822853e-01  2.4871015573039823e-01  2.6595224902052056e-01  2.9661295887437267e-01  3.3884303264493959e-01  3.9050420622044124e-01  4.4953020835736623e-01  5.1407417730997640e-01  5.8253166811383206e-01  6.5350191149977954e-01  7.2572488809125468e-01  7.9801189032787034e-01  8.6917507484079781e-01  9.3795594972952290e-01  1.0029525234526002e+00  1.0625503149043722e+00  1.1148756986180273e+00  1.1578130003381768e+00  1.1891559009122483e+00  1.2069949629313399e+00  1.2105407629270788e+00  2.1280575136607924e-01  2.1627051614483483e-01  2.3595890894741764e-01  2.7045049984032332e-01  3.1712902691760908e-01  3.7327216201102759e-01  4.3648646735009239e-01  5.0480887126663221e-01  5.7665675778570691e-01  6.5072939996296564e-01  7.2590613386113934e-01  8.0115406348600637e-01  8.7544291542743280e-01  9.4765890155395327e-01  1.0165087990527075e+00  1.0804101816952238e+00  1.1373794480720514e+00  1.1849669217096923e+00  1.2203561672660770e+00  1.2408338205180574e+00  1.2449828444004487e+00  1.7694392152572855e-01  1.8107147089747114e-01  2.0415132546927667e-01  2.4358860178608088e-01  2.9559769610583675e-01  3.5673958123335431e-01  4.2432745507385849e-01  4.9637258841919180e-01  5.7140243913652122e-01  6.4828340303788712e-01  7.2608140915029462e-01  8.0395566803033192e-01  8.8106997163839507e-01  9.5650360972874238e-01  1.0291429407988106e+00  1.0975345184275400e+00  1.1596892278947879e+00  1.2128685363426468e+00  1.2535066412001210e+00  1.2776535090198198e+00  1.2826962174732046e+00  1.3851273574325579e-01  1.4375712702362839e-01  1.7172507473566673e-01  2.1754067894720519e-01  2.7574189311506919e-01  3.4216830781585655e-01  4.1401332288888548e-01  4.8943400394773806e-01  5.6718453929288115e-01  6.4636358857490539e-01  7.2625504674933017e-01  8.0622548275620809e-01  8.8564752343703546e-01  9.6382397402390352e-01  1.0398867187085754e+00  1.1126359272152115e+00  1.1802714244434023e+00  1.2399754075588505e+00  1.2874388847756753e+00  1.3169105802894343e+00  1.3234048516012993e+00  9.7993460930566129e-02  1.0546437335806676e-01  1.4070640570284151e-01  1.9451426195185711e-01  2.5942404715969541e-01  3.3091651276723683e-01  4.0644652808400467e-01  4.8455050989139792e-01  5.6431739425562732e-01  6.4511161344337076e-01  7.2643128650498512e-01  8.0783137706845098e-01  8.8887321833313937e-01  9.6907579538121291e-01  1.0478445330173363e+00  1.1243389481590726e+00  1.1972016123669893e+00  1.2639917976136104e+00  1.3201216132793687e+00  1.3576537196347696e+00  1.3668406090491634e+00  5.5827153756170186e-02  6.8659280394370345e-02  1.1459708058031137e-01  1.7745769659879226e-01  2.4858118667351758e-01  3.2407705958600463e-01  4.0217256729870882e-01  4.8196077363553197e-01  5.6288846885778188e-01  6.4455152541615435e-01  7.2661044294418298e-01  8.0875245059294609e-01  8.9067039349678678e-01  9.7204346813541109e-01  1.0525062237863663e+00  1.1315808778393479e+00  1.2085082698424285e+00  1.2817889166779664e+00  1.3478590738600231e+00  1.3977104058371337e+00  1.4127999445481947e+00  1.2360794561098461e-02  3.9444565821127285e-02  9.8785008139241223e-02  1.6925357221680601e-01  2.4427536511921075e-01  3.2177881833604033e-01  4.0095111337807732e-01  4.8134589773973341e-01  5.6263546176276180e-01  6.4453600734195882e-01  7.2678232876441218e-01  8.0911837413404042e-01  8.9129330076295077e-01  9.7305867502411991e-01  1.0541634071841217e+00  1.1343404932194447e+00  1.2132679263703718e+00  1.2904319795241672e+00  1.3645541911457000e+00  1.4306590054742196e+00  1.4607930257176138e+00  -1.2988702367521978e-02  3.0892444654290915e-02  9.7298019600611463e-02  1.6950267535853661e-01  2.4482408488572582e-01  3.2229843667617680e-01  4.0138272092553118e-01  4.8168838139356029e-01  5.6289797764024530e-01  6.4472856525442579e-01  7.2691466786055015e-01  8.0920064069493880e-01  8.9133733970703932e-01  9.7308016345881188e-01  1.0541861073986301e+00  1.1344065067813922e+00  1.2134675089853131e+00  1.2910112080665488e+00  1.3663650029939944e+00  1.4373474198711980e+00  1.5021980145178482e+00  </DataArray> 
</PointData> 
</Piece>
</UnstructuredGrid>
</VTKFile>