<?xml version="1.0"?>
<VTKFile type="UnstructuredGrid"  version="0.1"  >
<UnstructuredGrid>
<Piece  NumberOfPoints="651" NumberOfCells="1200">
<Points>
<DataArray  type="Float64"  NumberOfComponents="3"  format="ascii">0 0 0  50000 0 0  100000 0 0  150000 0 0  200000 0 0  250000 0 0  300000 0 0  350000 0 0  400000 0 0  450000 0 0  500000 0 0  550000 0 0  600000 0 0  650000 0 0  700000 0 0  750000 0 0  800000 0 0  850000 0 0  900000 0 0  950000 0 0  1000000 0 0  0 50000 0  50000 50000 0  100000 50000 0  150000 50000 0  200000 50000 0  250000 50000 0  300000 50000 0  350000 50000 0  400000 50000 0  450000 50000 0  500000 50000 0  550000 50000 0  600000 50000 0  650000 50000 0  700000 50000 0  750000 50000 0  800000 50000 0  850000 50000 0  900000 50000 0  950000 50000 0  1000000 50000 0  0 100000 0  50000 100000 0  100000 100000 0  150000 100000 0  200000 100000 0  250000 100000 0  300000 100000 0  350000 100000 0  400000 100000 0  450000 100000 0  500000 100000 0  550000 100000 0  600000 100000 0  650000 100000 0  700000 100000 0  750000 100000 0  800000 100000 0  850000 100000 0  900000 100000 0  950000 100000 0  1000000 100000 0  0 150000 0  50000 150000 0  100000 150000 0  150000 150000 0  200000 150000 0  250000 150000 0  300000 150000 0  350000 150000 0  400000 150000 0  450000 150000 0  500000 150000 0  550000 150000 0  600000 150000 0  650000 150000 0  700000 150000 0  750000 150000 0  800000 150000 0  850000 150000 0  900000 150000 0  950000 150000 0  1000000 150000 0  0 200000 0  50000 200000 0  100000 200000 0  150000 200000 0  200000 200000 0  250000 200000 0  300000 200000 0  350000 200000 0  400000 200000 0  450000 200000 0  500000 200000 0  550000 200000 0  600000 200000 0  650000 200000 0  700000 200000 0  750000 200000 0  800000 200000 0  850000 200000 0  900000 200000 0  950000 200000 0  1000000 200000 0  0 250000 0  50000 250000 0  100000 250000 0  150000 250000 0  200000 250000 0  250000 250000 0  300000 250000 0  350000 250000 0  400000 250000 0  450000 250000 0  500000 250000 0  550000 250000 0  600000 250000 0  650000 250000 0  700000 250000 0  750000 250000 0  800000 250000 0  850000 250000 0  900000 250000 0  950000 250000 0  1000000 250000 0  0 300000 0  50000 300000 0  100000 300000 0  150000 300000 0  200000 300000 0  250000 300000 0  300000 300000 0  350000 300000 0  400000 300000 0  450000 300000 0  500000 300000 0  550000 300000 0  600000 300000 0  650000 300000 0  700000 300000 0  750000 300000 0  800000 300000 0  850000 300000 0  900000 300000 0  950000 300000 0  1000000 300000 0  0 350000 0  50000 350000 0  100000 350000 0  150000 350000 0  200000 350000 0  250000 350000 0  300000 350000 0  350000 350000 0  400000 350000 0  450000 350000 0  500000 350000 0  550000 350000 0  600000 350000 0  650000 350000 0  700000 350000 0  750000 350000 0  800000 350000 0  850000 350000 0  900000 350000 0  950000 350000 0  1000000 350000 0  0 400000 0  50000 400000 0  100000 400000 0  150000 400000 0  200000 400000 0  250000 400000 0  300000 400000 0  350000 400000 0  400000 400000 0  450000 400000 0  500000 400000 0  550000 400000 0  600000 400000 0  650000 400000 0  700000 400000 0  750000 400000 0  800000 400000 0  850000 400000 0  900000 400000 0  950000 400000 0  1000000 400000 0  0 450000 0  50000 450000 0  100000 450000 0  150000 450000 0  200000 450000 0  250000 450000 0  300000 450000 0  350000 450000 0  400000 450000 0  450000 450000 0  500000 450000 0  550000 450000 0  600000 450000 0  650000 450000 0  700000 450000 0  750000 450000 0  800000 450000 0  850000 450000 0  900000 450000 0  950000 450000 0  1000000 450000 0  0 500000 0  50000 500000 0  100000 500000 0  150000 500000 0  200000 500000 0  250000 500000 0  300000 500000 0  350000 500000 0  400000 500000 0  450000 500000 0  500000 500000 0  550000 500000 0  600000 500000 0  650000 500000 0  700000 500000 0  750000 500000 0  800000 500000 0  850000 500000 0  900000 500000 0  950000 500000 0  1000000 500000 0  0 550000 0  50000 550000 0  100000 550000 0  150000 550000 0  200000 550000 0  250000 550000 0  300000 550000 0  350000 550000 0  400000 550000 0  450000 550000 0  500000 550000 0  550000 550000 0  600000 550000 0  650000 550000 0  700000 550000 0  750000 550000 0  800000 550000 0  850000 550000 0  900000 550000 0  950000 550000 0  1000000 550000 0  0 600000 0  50000 600000 0  100000 600000 0  150000 600000 0  200000 600000 0  250000 600000 0  300000 600000 0  350000 600000 0  400000 600000 0  450000 600000 0  500000 600000 0  550000 600000 0  600000 600000 0  650000 600000 0  700000 600000 0  750000 600000 0  800000 600000 0  850000 600000 0  900000 600000 0  950000 600000 0  1000000 600000 0  0 650000 0  50000 650000 0  100000 650000 0  150000 650000 0  200000 650000 0  250000 650000 0  300000 650000 0  350000 650000 0  400000 650000 0  450000 650000 0  500000 650000 0  550000 650000 0  600000 650000 0  650000 650000 0  700000 650000 0  750000 650000 0  800000 650000 0  850000 650000 0  900000 650000 0  950000 650000 0  1000000 650000 0  0 700000 0  50000 700000 0  100000 700000 0  150000 700000 0  200000 700000 0  250000 700000 0  300000 700000 0  350000 700000 0  400000 700000 0  450000 700000 0  500000 700000 0  550000 700000 0  600000 700000 0  650000 700000 0  700000 700000 0  750000 700000 0  800000 700000 0  850000 700000 0  900000 700000 0  950000 700000 0  1000000 700000 0  0 750000 0  50000 750000 0  100000 750000 0  150000 750000 0  200000 750000 0  250000 750000 0  300000 750000 0  350000 750000 0  400000 750000 0  450000 750000 0  500000 750000 0  550000 750000 0  600000 750000 0  650000 750000 0  700000 750000 0  750000 750000 0  800000 750000 0  850000 750000 0  900000 750000 0  950000 750000 0  1000000 750000 0  0 800000 0  50000 800000 0  100000 800000 0  150000 800000 0  200000 800000 0  250000 800000 0  300000 800000 0  350000 800000 0  400000 800000 0  450000 800000 0  500000 800000 0  550000 800000 0  600000 800000 0  650000 800000 0  700000 800000 0  750000 800000 0  800000 800000 0  850000 800000 0  900000 800000 0  950000 800000 0  1000000 800000 0  0 850000 0  50000 850000 0  100000 850000 0  150000 850000 0  200000 850000 0  250000 850000 0  300000 850000 0  350000 850000 0  400000 850000 0  450000 850000 0  500000 850000 0  550000 850000 0  600000 850000 0  650000 850000 0  700000 850000 0  750000 850000 0  800000 850000 0  850000 850000 0  900000 850000 0  950000 850000 0  1000000 850000 0  0 900000 0  50000 900000 0  100000 900000 0  150000 900000 0  200000 900000 0  250000 900000 0  300000 900000 0  350000 900000 0  400000 900000 0  450000 900000 0  500000 900000 0  550000 900000 0  600000 900000 0  650000 900000 0  700000 900000 0  750000 900000 0  800000 900000 0  850000 900000 0  900000 900000 0  950000 900000 0  1000000 900000 0  0 950000 0  50000 950000 0  100000 950000 0  150000 950000 0  200000 950000 0  250000 950000 0  300000 950000 0  350000 950000 0  400000 950000 0  450000 950000 0  500000 950000 0  550000 950000 0  600000 950000 0  650000 950000 0  700000 950000 0  750000 950000 0  800000 950000 0  850000 950000 0  900000 950000 0  950000 950000 0  1000000 950000 0  0 1000000 0  50000 1000000 0  100000 1000000 0  150000 1000000 0  200000 1000000 0  250000 1000000 0  300000 1000000 0  350000 1000000 0  400000 1000000 0  450000 1000000 0  500000 1000000 0  550000 1000000 0  600000 1000000 0  650000 1000000 0  700000 1000000 0  750000 1000000 0  800000 1000000 0  850000 1000000 0  900000 1000000 0  950000 1000000 0  1000000 1000000 0  0 1050000 0  50000 1050000 0  100000 1050000 0  150000 1050000 0  200000 1050000 0  250000 1050000 0  300000 1050000 0  350000 1050000 0  400000 1050000 0  450000 1050000 0  500000 1050000 0  550000 1050000 0  600000 1050000 0  650000 1050000 0  700000 1050000 0  750000 1050000 0  800000 1050000 0  850000 1050000 0  900000 1050000 0  950000 1050000 0  1000000 1050000 0  0 1100000 0  50000 1100000 0  100000 1100000 0  150000 1100000 0  200000 1100000 0  250000 1100000 0  300000 1100000 0  350000 1100000 0  400000 1100000 0  450000 1100000 0  500000 1100000 0  550000 1100000 0  600000 1100000 0  650000 1100000 0  700000 1100000 0  750000 1100000 0  800000 1100000 0  850000 1100000 0  900000 1100000 0  950000 1100000 0  1000000 1100000 0  0 1150000 0  50000 1150000 0  100000 1150000 0  150000 1150000 0  200000 1150000 0  250000 1150000 0  300000 1150000 0  350000 1150000 0  400000 1150000 0  450000 1150000 0  500000 1150000 0  550000 1150000 0  600000 1150000 0  650000 1150000 0  700000 1150000 0  750000 1150000 0  800000 1150000 0  850000 1150000 0  900000 1150000 0  950000 1150000 0  1000000 1150000 0  0 1200000 0  50000 1200000 0  100000 1200000 0  150000 1200000 0  200000 1200000 0  250000 1200000 0  300000 1200000 0  350000 1200000 0  400000 1200000 0  450000 1200000 0  500000 1200000 0  550000 1200000 0  600000 1200000 0  650000 1200000 0  700000 1200000 0  750000 1200000 0  800000 1200000 0  850000 1200000 0  900000 1200000 0  950000 1200000 0  1000000 1200000 0  0 1250000 0  50000 1250000 0  100000 1250000 0  150000 1250000 0  200000 1250000 0  250000 1250000 0  300000 1250000 0  350000 1250000 0  400000 1250000 0  450000 1250000 0  500000 1250000 0  550000 1250000 0  600000 1250000 0  650000 1250000 0  700000 1250000 0  750000 1250000 0  800000 1250000 0  850000 1250000 0  900000 1250000 0  950000 1250000 0  1000000 1250000 0  0 1300000 0  50000 1300000 0  100000 1300000 0  150000 1300000 0  200000 1300000 0  250000 1300000 0  300000 1300000 0  350000 1300000 0  400000 1300000 0  450000 1300000 0  500000 1300000 0  550000 1300000 0  600000 1300000 0  650000 1300000 0  700000 1300000 0  750000 1300000 0  800000 1300000 0  850000 1300000 0  900000 1300000 0  950000 1300000 0  1000000 1300000 0  0 1350000 0  50000 1350000 0  100000 1350000 0  150000 1350000 0  200000 1350000 0  250000 1350000 0  300000 1350000 0  350000 1350000 0  400000 1350000 0  450000 1350000 0  500000 1350000 0  550000 1350000 0  600000 1350000 0  650000 1350000 0  700000 135
[...]
<PointData  Scalars="f_25"> 
<DataArray  type="Float64"  Name="f_25"  format="ascii">-4.3469452063620810e+00  -3.9381792162850844e+00  -3.4850283450842703e+00  -3.0016651673957337e+00  -2.5029927911728387e+00  -1.9936494700451339e+00  -1.4761415081818006e+00  -9.5238033045796511e-01  -4.2408639367631595e-01  1.0707129432936932e-01  6.3941999224350488e-01  1.1712574117704475e+00  1.7008312316132157e+00  2.2263057798809598e+00  2.7456922475210952e+00  3.2567004771186192e+00  3.7564271747817672e+00  4.2406647513845614e+00  4.7018852565260465e+00  5.1208433731466965e+00  5.3928543042388144e+00  -4.0879609049055006e+00  -3.9015675570228980e+00  -3.4773830904097824e+00  -3.0005611538492198e+00  -2.5035201301559540e+00  -1.9945720275669787e+00  -1.4770739483503561e+00  -9.5316417104631002e-01  -4.2463775554452410e-01  1.0680787080238791e-01  6.3948942174042256e-01  1.1717042775712641e+00  1.7017095968136322e+00  2.2276919453926762e+00  2.7476985768153122e+00  3.2594609445838065e+00  3.7598852053363085e+00  4.2433767299729475e+00  4.6958496978988560e+00  5.0733133109712005e+00  5.2368270219043884e+00  -3.7888348885168543e+00  -3.6976369148988604e+00  -3.3782335582208622e+00  -2.9518890147277936e+00  -2.4784198726885984e+00  -1.9811579537859858e+00  -1.4698059074534138e+00  -9.4925881568374515e-01  -4.2261318903179707e-01  1.0774065124489109e-01  6.3968743274370710e-01  1.1711914398782137e+00  1.7001747252815098e+00  2.2243814554181403e+00  2.7411310303181011e+00  3.2467630595714247e+00  3.7352831645954434e+00  4.1949587210185575e+00  4.5999962178907507e+00  4.8930284274295657e+00  4.9676394129736199e+00  -3.5025534211047131e+00  -3.4481632512094751e+00  -3.2080779373770536e+00  -2.8453978446624295e+00  -2.4127644273570272e+00  -1.9405243527928218e+00  -1.4446516771030862e+00  -9.3395528311089082e-01  -4.1387084960947434e-01  1.1175206335811418e-01  6.3978823040097310e-01  1.1673776127619540e+00  1.6916124765954887e+00  2.2092112830042487e+00  2.7160171260877504e+00  3.2060643218253770e+00  3.6697441920683236e+00  4.0902899057010860e+00  4.4378442711050390e+00  4.6630833314407356e+00  4.7060462910101579e+00  -3.2320679225068694e+00  -3.1940844646732915e+00  -3.0056782370933259e+00  -2.6986620254773865e+00  -2.3111375615803724e+00  -1.8716905817737137e+00  -1.3988973433812932e+00  -9.0453396443873946e-01  -3.9640468667195505e-01  1.1985930901436154e-01  6.3973693889693184e-01  1.1591555095344686e+00  1.6739965876774259e+00  2.1795961109513744e+00  2.6700709887097966e+00  3.1372669103440849e+00  3.5690804111781387e+00  3.9470155514039975e+00  4.2435826059525068e+00  4.4227261207168898e+00  4.4531468429136565e+00  -2.9785383934503713e+00  -2.9491899520663272e+00  -2.7947432898710312e+00  -2.5315096499119067e+00  -2.1856490632532020e+00  -1.7808580654362869e+00  -1.3352609553406001e+00  -8.6194133014608687e-01  -3.7040551669333205e-01  1.3209137310628960e-01  6.3956319121245442e-01  1.1465749988380343e+00  1.6476568739915991e+00  2.1367204547125822e+00  2.6063573513541107e+00  3.0469137562422599e+00  3.4453072084978684e+00  3.7838045485188494e+00  4.0396544963803152e+00  4.1878771122993577e+00  4.2121303923644708e+00  -2.7436054184560712e+00  -2.7194722618202758e+00  -2.5882965562569047e+00  -2.3586455186900266e+00  -2.0484916826477453e+00  -1.6765887042123577e+00  -1.2591941576073549e+00  -8.0940436476831945e-01  -3.3761343528200505e-01  1.4771887741221104e-01  6.3932554775059480e-01  1.1304912015392543e+00  1.6144801924065446e+00  2.0839722074245537e+00  2.5304489196618709e+00  2.9435135769517506e+00  3.3102263615793097e+00  3.6147581039283043e+00  3.8390625490923771e+00  3.9658626116370508e+00  3.9864301652995566e+00  -2.5290092744169952e+00  -2.5083479567848683e+00  -2.3938207774359324e+00  -2.1899796907287277e+00  -1.9094839595609632e+00  -1.5670597885391337e+00  -1.1767841178971195e+00  -7.5106353753977029e-01  -3.0053800926579072e-01  1.6558925178531239e-01  6.3907941570869387e-01  1.1121661235695754e+00  1.5770761876157140e+00  2.0255585003580872e+00  2.4484185032616756e+00  2.8350927883020929e+00  3.1733801163904345e+00  3.4495811954036228e+00  3.6494814454194802e+00  3.7608417142610953e+00  3.7789131579925348e+00  -2.3363367276782463e+00  -2.3181402933269912e+00  -2.2159394217472843e+00  -2.0321133876568291e+00  -1.7759114823674929e+00  -1.4590444595095273e+00  -1.0935999695457410e+00  -6.9103633570367407e-01  -2.6184105602890034e-01  1.8442116955697649e-01  6.3886397337403589e-01  1.0929532687473593e+00  1.5381576755228652e+00  1.9656055993552224e+00  2.3657789284917912e+00  2.7282990104548941e+00  3.0419103646306036e+00  3.2948333861861387e+00  3.4757235010315326e+00  3.5755891072598991e+00  3.5918500698543774e+00  -2.1669316132943934e+00  -2.1505575020461509e+00  -2.0576905997829260e+00  -1.8894904573435356e+00  -1.6530048745969195e+00  -1.3577718016550784e+00  -1.0142453278696750e+00  -6.3292917584855035e-01  -2.2396028163910689e-01  2.0300232120503314e-01  6.3870069466007251e-01  1.0741012712848490e+00  1.5001785368601874e+00  1.9077032770231612e+00  2.2870786503997720e+00  2.6282809569198480e+00  2.9209852163703713e+00  3.1549787298325200e+00  3.3209843539788082e+00  3.4121129529263499e+00  3.4270162357764749e+00  -2.0218795314824467e+00  -2.0068826553047385e+00  -1.9211498997035183e+00  -1.7651382971115481e+00  -1.5444602343731957e+00  -1.2671182430817074e+00  -9.4229945924941805e-01  -5.7966485487668262e-01  -1.8893675378251315e-01  2.2029245500801609e-01  6.3859690561771998e-01  1.0566600452590633e+00  1.4651753837175672e+00  1.8547500243321149e+00  2.2158548832654885e+00  2.5388703524576548e+00  2.8142826393602718e+00  3.0330882111139466e+00  3.1874689851486937e+00  3.2719095285967508e+00  3.2857858237114224e+00  -1.9020230978641406e+00  -1.8880722893112560e+00  -1.8077585538216914e+00  -1.6611299373256176e+00  -1.4528579961375692e+00  -1.1898764467115055e+00  -8.8042818307395432e-01  -5.3348655556067570e-01  -1.5837533074222357e-01  2.3545783311800428e-01  6.3855036289917122e-01  1.0414559027716910e+00  1.4347379008601762e+00  1.8089647262470088e+00  2.1547446790184539e+00  2.4628390064680272e+00  2.7243888606425615e+00  2.9312864655812505e+00  3.0767264370725136e+00  3.1560953291445282e+00  3.1692059923338762e+00  -1.8079891015390528e+00  -1.7948214756253704e+00  -1.7185129128843013e+00  -1.5788760804128086e+00  -1.3799712774414437e+00  -1.1280052278875219e+00  -8.3054541931892900e-01  -4.9604020800956966e-01  -1.3347517171403248e-01  2.4786572208675484e-01  6.3855310830245449e-01  1.0291044439155344e+00  1.4100453484497175e+00  1.7719717014197449e+00  2.1056436489836168e+00  2.4021399795976848e+00  2.6530955796470930e+00  2.8510374593562786e+00  2.9898449113026553e+00  3.0654912526083060e+00  3.0780565852156476e+00  -1.7402184216001730e+00  -1.7276126942446552e+00  -1.6540829582673253e+00  -1.5193138709199836e+00  -1.3269844705189016e+00  -1.0828314169266433e+00  -7.9396926340809670e-01  -4.6847762294173612e-01  -1.1508725519339627e-01  2.5706094718238909e-01  6.3859415791272744e-01  1.0200388758306576e+00  1.3919273512157391e+00  1.7449043412214655e+00  2.0698590664904080e+00  2.3581036359098122e+00  2.6016124640133786e+00  2.7933307751454666e+00  2.9275747043578275e+00  3.0006833005276610e+00  3.0128991306756654e+00  -1.6989933142831120e+00  -1.6867532798722917e+00  -1.6148896506683006e+00  -1.4830299135455107e+00  -1.2946434211398081e+00  -1.0551998193981000e+00  -7.7154963554592326e-01  -4.5155074892833980e-01  -1.0377362592265711e-01  2.6273861790532466e-01  6.3866114036232313e-01  1.0145401175302253e+00  1.3809246792957321e+00  1.7284989594104436e+00  2.0482350504761557e+00  2.3315838475999211e+00  2.5707140087337548e+00  2.7588039395215054e+00  2.8904090872546075e+00  2.9620679214765135e+00  2.9741161974736676e+00  -1.6844585270267631e+00  -1.6724021791218551e+00  -1.6011544231007602e+00  -1.4703379036287645e+00  -1.2833529316847181e+00  -1.0455752340715609e+00  -7.6376009678738155e-01  -4.4568359879840658e-01  -9.9855240573871851e-02  2.6472095459351980e-01  6.3874116177546825e-01  1.0127613689574095e+00  1.3773375641248014e+00  1.7231659223493319e+00  2.0412424203383019e+00  2.3230575576224823e+00  2.5608352552356348e+00  2.7478202271796861e+00  2.8786367466516780e+00  2.9498845026727776e+00  2.9619408505776903e+00  -1.6966338739227456e+00  -1.6845855979255944e+00  -1.6129267637036908e+00  -1.4813216159705889e+00  -1.2932316851828378e+00  -1.0541015240490019e+00  -7.7075272692523511e-01  -4.5101663585951929e-01  -1.0344235574480798e-01  2.6294220602070573e-01  6.3882118318861836e-01  1.0147437056456134e+00  1.3812559494735932e+00  1.7290330724792666e+00  2.0490319590968431e+00  2.3326821429490230e+00  2.5721257446907346e+00  2.7605122370964374e+00  2.8923719742192406e+00  2.9642356034232367e+00  2.9764756378340582e+00  -1.7354168071247424e+00  -1.7232009769767411e+00  -1.6500923808069143e+00  -1.5158484515945456e+00  -1.3241301404624668e+00  -1.0806213123588995e+00  -7.9237674293949112e-01  -4.6742201767054403e-01  -1.1444502766480932e-01  2.5744344772028221e-01  6.3888816563822370e-01  1.0204213763685608e+00  1.3925695787443411e+00  1.7459599464926736e+00  2.0714515869590371e+00  2.3603137404775825e+00  2.6044667940698449e+00  2.7967961944709230e+00  2.9315652818182860e+00  3.0050950177956315e+00  3.0177007451511439e+00  -1.8005742616647074e+00  -1.7880089290573626e+00  -1.7123625877517179e+00  -1.5735551358053401e+00  -1.3756132560961620e+00  -1.1246576560467634e+00  -8.2816132543268650e-01  -4.9448937786881053e-01  -1.3256302489877028e-01  2.4837787963541902e-01  6.3892921524851443e-01  1.0296166014642181e+00  1.4109574952649975e+00  1.7735225315605225e+00  2.1080277428698819e+00  2.4054875514384748e+00  2.6574536009924099e+00  2.8563584039637742e+00  2.9959952364352662e+00  3.0723037991763342e+00  3.0854714250900157e+00  -1.8917236687829253e+00  -1.8786130055935801e+00  -1.7992441135215658e+00  -1.6538041420303085e+00  -1.4469065370916170e+00  -1.1853566829170865e+00  -8.7726235546750686e-01  -5.3148240269605462e-01  -1.5725557730920975e-01  2.3602642077928068e-01  6.3893196065181390e-01  1.0420244904329843e+00  1.4358576542932087e+00  1.8109688791116447e+00  2.1579105066249209e+00  2.4673587702624675e+00  2.7303403196885427e+00  2.9386122608765883e+00  3.0852408773726481e+00  3.1655546128622083e+00  3.1795054214150955e+00  -2.0083035001604457e+00  -1.9944272050457761e+00  -1.9099866615977203e+00  -1.7556058875629781e+00  -1.5368003158092978e+00  -1.2613880289066803e+00  -9.3837255971450917e-01  -5.7726770078113054e-01  -1.8769306016657020e-01  2.2082227829193810e-01  6.3888541793329090e-01  1.0571898685429968e+00  1.4664190773335273e+00  1.8571471784276932e+00  2.2197817828004252e+00  2.5446005666327101e+00  2.8219425579241864e+00  3.0426206206625230e+00  3.1986322232544913e+00  3.2843649788557001e+00  3.2993618550334061e+00  -2.1495339122254649e+00  -2.1346306293753510e+00  -2.0435020304278044e+00  -1.8774964062815211e+00  -1.6435028928193702e+00  -1.3507986333688413e+00  -1.0095963268487629e+00  -6.3022095347214724e-01  -2.2269621330915815e-01  2.0338105226619096e-01  6.3878162889097356e-01  1.0744800023460181e+00  1.5014426051901579e+00  1.9104114993996029e+00  2.2917276514207252e+00  2.6352541252061168e+00  2.9304871981479388e+00  3.1669727808945325e+00  3.3351729233339134e+00  3.4280398255971267e+00  3.4444139368453563e+00  -2.3143677463033510e+00  -2.2981067837088798e+00  -2.1982411774805026e+00  -2.0173510626351110e+00  -1.7644280410795754e+00  -1.4508166869038555e+00  -1.0882966049407483e+00  -6.8812327580416355e-01  -2.6067535197179409e-01  1.8452905480371734e-01  6.3861835017705026e-01  1.0930611539941169e+00  1.5393233795799981e+00  1.9685186592547672e+00  2.3710822930968249e+00  2.7365267830605924e+00  3.0533938059185348e+00  3.3095957112078525e+00  3.4934217452982885e+00  3.5956226168779848e+00  3.6138190512292407e+00  -2.5014308344414848e+00  -2.4833593907100400e+00  -2.3719991218684235e+00  -2.1720988718525733e+00  -1.8958977928393734e+00  -1.5576104647510187e+00  -1.1709361797105926e+00  -7.4807617680699334e-01  -2.9959386406460864e-01  1.6531619998153740e-01  6.3840290784242815e-01  1.1118930717658155e+00  1.5780203328169222e+00  2.0285458610908904e+00  2.4542664414482265e+00  2.8445421120902235e+00  3.1869662831120369e+00  3.4674620142797750e+00  3.6713031009869588e+00  3.7858302803358885e+00  3.8064915979680136e+00  -2.7089478417484849e+00  -2.6883802880859813e+00  -2.5615802255413116e+00  -2.3372757803772335e+00  -2.0327440380282185e+00  -1.6660312534006441e+00  -1.2529665961107459e+00  -8.0648988387341536e-01  -3.3699786885539351e-01  1.4699112201190098e-01  6.3815677580056651e-01  1.1297634461389539e+00  1.6150957588331700e+00  2.0868866883194652e+00  2.5366764811584881e+00  2.9540710277634719e+00  3.3259740061988490e+00  3.6361278422411125e+00  3.8657788798079684e+00  3.9969545853713271e+00  4.0210877420071229e+00  -2.9346480688133663e+00  -2.9103947887482597e+00  -2.7621721728292092e+00  -2.5063222249677373e+00  -2.1678248849467434e+00  -1.7694314326911265e+00  -1.3288750278029546e+00  -8.5923813116140146e-01  -3.7017455044041048e-01  1.3090732471315525e-01  6.3791913233874264e-01  1.1453909504449100e+00  1.6478878402445303e+00  2.1394236536972691e+00  2.6127432788917666e+00  3.0583403889874439e+00  3.4631313868043438e+00  3.8089919734630251e+00  4.0722256134221260e+00  4.2266722756174158e+00  4.2560207170014541e+00  -3.1756645193625213e+00  -3.1452437971657563e+00  -2.9661002824013636e+00  -2.6695332278528543e+00  -2.2915980876269861e+00  -1.8597845867929239e+00  -1.3925886651586115e+00  -9.0211378740016779e-01  -3.9651426412621249e-01  1.1832681401674505e-01  6.3774538465428998e-01  1.1576230145368627e+00  1.6738870102231731e+00  2.1820162879899470e+00  2.6763796669324931e+00  3.1491729053249129e+00  3.5886198851315445e+00  3.9761443490285373e+00  4.2831605606444585e+00  4.4715667882244148e+00  4.5095502460579882e+00  -3.4285639674589987e+00  -3.3856010078895720e+00  -3.1603619475538731e+00  -2.8128075821499183e+00  -2.3922618685171506e+00  -1.9285819982741894e+00  -1.4385348025365401e+00  -9.3172895945302603e-01  -4.1413015304425804e-01  1.1010471078927697e-01  6.3769409315026460e-01  1.1657302601931263e+00  1.6913531731607070e+00  2.2114376066621135e+00  2.7221340006543135e+00  3.2180066763440420e+00  3.6902467509082331e+00  4.1228801682136060e+00  4.4855602609282101e+00  4.7256455747606205e+00  4.7800357446558568e+00  -3.6901570894224451e+00  -3.6155461038783780e+00  -3.3225138943395720e+00  -2.9174763974673712e+00  -2.4578008410442647e+00  -1.9692807360202300e+00  -1.4636487067668866e+00  -9.4689913186690633e-01  -4.2269240173027556e-01  1.0629088367302628e-01  6.3779489080754104e-01  1.1697416723063569e+00  1.7000955125830410e+00  2.2267411392349765e+00  2.7472882310046498e+00  3.2586402773372121e+00  3.7559021962398114e+00  4.2293713382789830e+00  4.6557158817720330e+00  4.9751192384500191e+00  5.0663172120680313e+00  -3.9593446983532159e+00  -3.7958309874200253e+00  -3.4183673743476990e+00  -2.9658944064217754e+00  -2.4824028817851285e+00  -1.9819786210326096e+00  -1.4702162532640919e+00  -9.5020962184144420e-01  -4.2422727326239251e-01  1.0577804597997975e-01  6.3799290181082502e-01  1.1706744527488626e+00  1.7021200790957718e+00  2.2306464945975528e+00  2.7545562719015928e+00  3.2720543511181948e+00  3.7810024537071625e+00  4.2780434774004092e+00  4.7548654139609692e+00  5.1790498805740706e+00  5.3654432284566775e+00  -4.1153719806876383e+00  -3.8433610495955177e+00  -3.4244029329748789e+00  -2.9631824278333867e+00  -2.4789448512305792e+00  -1.9792181535674209e+00  -1.4682099239698749e+00  -9.4882345632972964e-01  -4.2334890806197228e-01  1.0622491178079886e-01  6.3806233130774692e-01  1.1704110292218768e+00  1.7015687172275660e+00  2.2298626540092084e+00  2.7536238317330368e+00  3.2711317935963513e+00  3.7804751147240494e+00  4.2791474909469338e+00  4.7625106686354535e+00  5.2156615398362636e+00  5.6244275299132616e+00  </DataArray> 
</PointData> 
</Piece>
</UnstructuredGrid>
</VTKFile>