<?xml version="1.0"?>
<VTKFile type="UnstructuredGrid"  version="0.1"  >
<UnstructuredGrid>
<Piece  NumberOfPoints="651" NumberOfCells="1200">
<Points>
<DataArray  type="Float64"  NumberOfComponents="3"  format="ascii">0 0 0  50000 0 0  100000 0 0  150000 0 0  200000 0 0  250000 0 0  300000 0 0  350000 0 0  400000 0 0  450000 0 0  500000 0 0  550000 0 0  600000 0 0  650000 0 0  700000 0 0  750000 0 0  800000 0 0  850000 0 0  900000 0 0  950000 0 0  1000000 0 0  0 50000 0  50000 50000 0  100000 50000 0  150000 50000 0  200000 50000 0  250000 50000 0  300000 50000 0  350000 50000 0  400000 50000 0  450000 50000 0  500000 50000 0  550000 50000 0  600000 50000 0  650000 50000 0  700000 50000 0  750000 50000 0  800000 50000 0  850000 50000 0  900000 50000 0  950000 50000 0  1000000 50000 0  0 100000 0  50000 100000 0  100000 100000 0  150000 100000 0  200000 100000 0  250000 100000 0  300000 100000 0  350000 100000 0  400000 100000 0  450000 100000 0  500000 100000 0  550000 100000 0  600000 100000 0  650000 100000 0  700000 100000 0  750000 100000 0  800000 100000 0  850000 100000 0  900000 100000 0  950000 100000 0  1000000 100000 0  0 150000 0  50000 150000 0  100000 150000 0  150000 150000 0  200000 150000 0  250000 150000 0  300000 150000 0  350000 150000 0  400000 150000 0  450000 150000 0  500000 150000 0  550000 150000 0  600000 150000 0  650000 150000 0  700000 150000 0  750000 150000 0  800000 150000 0  850000 150000 0  900000 150000 0  950000 150000 0  1000000 150000 0  0 200000 0  50000 200000 0  100000 200000 0  150000 200000 0  200000 200000 0  250000 200000 0  300000 200000 0  350000 200000 0  400000 200000 0  450000 200000 0  500000 200000 0  550000 200000 0  600000 200000 0  650000 200000 0  700000 200000 0  750000 200000 0  800000 200000 0  850000 200000 0  900000 200000 0  950000 200000 0  1000000 200000 0  0 250000 0  50000 250000 0  100000 250000 0  150000 250000 0  200000 250000 0  250000 250000 0  300000 250000 0  350000 250000 0  400000 250000 0  450000 250000 0  500000 250000 0  550000 250000 0  600000 250000 0  650000 250000 0  700000 250000 0  750000 250000 0  800000 250000 0  850000 250000 0  900000 250000 0  950000 250000 0  1000000 250000 0  0 300000 0  50000 300000 0  100000 300000 0  150000 300000 0  200000 300000 0  250000 300000 0  300000 300000 0  350000 300000 0  400000 300000 0  450000 300000 0  500000 300000 0  550000 300000 0  600000 300000 0  650000 300000 0  700000 300000 0  750000 300000 0  800000 300000 0  850000 300000 0  900000 300000 0  950000 300000 0  1000000 300000 0  0 350000 0  50000 350000 0  100000 350000 0  150000 350000 0  200000 350000 0  250000 350000 0  300000 350000 0  350000 350000 0  400000 350000 0  450000 350000 0  500000 350000 0  550000 350000 0  600000 350000 0  650000 350000 0  700000 350000 0  750000 350000 0  800000 350000 0  850000 350000 0  900000 350000 0  950000 350000 0  1000000 350000 0  0 400000 0  50000 400000 0  100000 400000 0  150000 400000 0  200000 400000 0  250000 400000 0  300000 400000 0  350000 400000 0  400000 400000 0  450000 400000 0  500000 400000 0  550000 400000 0  600000 400000 0  650000 400000 0  700000 400000 0  750000 400000 0  800000 400000 0  850000 400000 0  900000 400000 0  950000 400000 0  1000000 400000 0  0 450000 0  50000 450000 0  100000 450000 0  150000 450000 0  200000 450000 0  250000 450000 0  300000 450000 0  350000 450000 0  400000 450000 0  450000 450000 0  500000 450000 0  550000 450000 0  600000 450000 0  650000 450000 0  700000 450000 0  750000 450000 0  800000 450000 0  850000 450000 0  900000 450000 0  950000 450000 0  1000000 450000 0  0 500000 0  50000 500000 0  100000 500000 0  150000 500000 0  200000 500000 0  250000 500000 0  300000 500000 0  350000 500000 0  400000 500000 0  450000 500000 0  500000 500000 0  550000 500000 0  600000 500000 0  650000 500000 0  700000 500000 0  750000 500000 0  800000 500000 0  850000 500000 0  900000 500000 0  950000 500000 0  1000000 500000 0  0 550000 0  50000 550000 0  100000 550000 0  150000 550000 0  200000 550000 0  250000 550000 0  300000 550000 0  350000 550000 0  400000 550000 0  450000 550000 0  500000 550000 0  550000 550000 0  600000 550000 0  650000 550000 0  700000 550000 0  750000 550000 0  800000 550000 0  850000 550000 0  900000 550000 0  950000 550000 0  1000000 550000 0  0 600000 0  50000 600000 0  100000 600000 0  150000 600000 0  200000 600000 0  250000 600000 0  300000 600000 0  350000 600000 0  400000 600000 0  450000 600000 0  500000 600000 0  550000 600000 0  600000 600000 0  650000 600000 0  700000 600000 0  750000 600000 0  800000 600000 0  850000 600000 0  900000 600000 0  950000 600000 0  1000000 600000 0  0 650000 0  50000 650000 0  100000 650000 0  150000 650000 0  200000 650000 0  250000 650000 0  300000 650000 0  350000 650000 0  400000 650000 0  450000 650000 0  500000 650000 0  550000 650000 0  600000 650000 0  650000 650000 0  700000 650000 0  750000 650000 0  800000 650000 0  850000 650000 0  900000 650000 0  950000 650000 0  1000000 650000 0  0 700000 0  50000 700000 0  100000 700000 0  150000 700000 0  200000 700000 0  250000 700000 0  300000 700000 0  350000 700000 0  400000 700000 0  450000 700000 0  500000 700000 0  550000 700000 0  600000 700000 0  650000 700000 0  700000 700000 0  750000 700000 0  800000 700000 0  850000 700000 0  900000 700000 0  950000 700000 0  1000000 700000 0  0 750000 0  50000 750000 0  100000 750000 0  150000 750000 0  200000 750000 0  250000 750000 0  300000 750000 0  350000 750000 0  400000 750000 0  450000 750000 0  500000 750000 0  550000 750000 0  600000 750000 0  650000 750000 0  700000 750000 0  750000 750000 0  800000 750000 0  850000 750000 0  900000 750000 0  950000 750000 0  1000000 750000 0  0 800000 0  50000 800000 0  100000 800000 0  150000 800000 0  200000 800000 0  250000 800000 0  300000 800000 0  350000 800000 0  400000 800000 0  450000 800000 0  500000 800000 0  550000 800000 0  600000 800000 0  650000 800000 0  700000 800000 0  750000 800000 0  800000 800000 0  850000 800000 0  900000 800000 0  950000 800000 0  1000000 800000 0  0 850000 0  50000 850000 0  100000 850000 0  150000 850000 0  200000 850000 0  250000 850000 0  300000 850000 0  350000 850000 0  400000 850000 0  450000 850000 0  500000 850000 0  550000 850000 0  600000 850000 0  650000 850000 0  700000 850000 0  750000 850000 0  800000 850000 0  850000 850000 0  900000 850000 0  950000 850000 0  1000000 850000 0  0 900000 0  50000 900000 0  100000 900000 0  150000 900000 0  200000 900000 0  250000 900000 0  300000 900000 0  350000 900000 0  400000 900000 0  450000 900000 0  500000 900000 0  550000 900000 0  600000 900000 0  650000 900000 0  700000 900000 0  750000 900000 0  800000 900000 0  850000 900000 0  900000 900000 0  950000 900000 0  1000000 900000 0  0 950000 0  50000 950000 0  100000 950000 0  150000 950000 0  200000 950000 0  250000 950000 0  300000 950000 0  350000 950000 0  400000 950000 0  450000 950000 0  500000 950000 0  550000 950000 0  600000 950000 0  650000 950000 0  700000 950000 0  750000 950000 0  800000 950000 0  850000 950000 0  900000 950000 0  950000 950000 0  1000000 950000 0  0 1000000 0  50000 1000000 0  100000 1000000 0  150000 1000000 0  200000 1000000 0  250000 1000000 0  300000 1000000 0  350000 1000000 0  400000 1000000 0  450000 1000000 0  500000 1000000 0  550000 1000000 0  600000 1000000 0  650000 1000000 0  700000 1000000 0  750000 1000000 0  800000 1000000 0  850000 1000000 0  900000 1000000 0  950000 1000000 0  1000000 1000000 0  0 1050000 0  50000 1050000 0  100000 1050000 0  150000 1050000 0  200000 1050000 0  250000 1050000 0  300000 1050000 0  350000 1050000 0  400000 1050000 0  450000 1050000 0  500000 1050000 0  550000 1050000 0  600000 1050000 0  650000 1050000 0  700000 1050000 0  750000 1050000 0  800000 1050000 0  850000 1050000 0  900000 1050000 0  950000 1050000 0  1000000 1050000 0  0 1100000 0  50000 1100000 0  100000 1100000 0  150000 1100000 0  200000 1100000 0  250000 1100000 0  300000 1100000 0  350000 1100000 0  400000 1100000 0  450000 1100000 0  500000 1100000 0  550000 1100000 0  600000 1100000 0  650000 1100000 0  700000 1100000 0  750000 1100000 0  800000 1100000 0  850000 1100000 0  900000 1100000 0  950000 1100000 0  1000000 1100000 0  0 1150000 0  50000 1150000 0  100000 1150000 0  150000 1150000 0  200000 1150000 0  250000 1150000 0  300000 1150000 0  350000 1150000 0  400000 1150000 0  450000 1150000 0  500000 1150000 0  550000 1150000 0  600000 1150000 0  650000 1150000 0  700000 1150000 0  750000 1150000 0  800000 1150000 0  850000 1150000 0  900000 1150000 0  950000 1150000 0  1000000 1150000 0  0 1200000 0  50000 1200000 0  100000 1200000 0  150000 1200000 0  200000 1200000 0  250000 1200000 0  300000 1200000 0  350000 1200000 0  400000 1200000 0  450000 1200000 0  500000 1200000 0  550000 1200000 0  600000 1200000 0  650000 1200000 0  700000 1200000 0  750000 1200000 0  800000 1200000 0  850000 1200000 0  900000 1200000 0  950000 1200000 0  1000000 1200000 0  0 1250000 0  50000 1250000 0  100000 1250000 0  150000 1250000 0  200000 1250000 0  250000 1250000 0  300000 1250000 0  350000 1250000 0  400000 1250000 0  450000 1250000 0  500000 1250000 0  550000 1250000 0  600000 1250000 0  650000 1250000 0  700000 1250000 0  750000 1250000 0  800000 1250000 0  850000 1250000 0  900000 1250000 0  950000 1250000 0  1000000 1250000 0  0 1300000 0  50000 1300000 0  100000 1300000 0  150000 1300000 0  200000 1300000 0  250000 1300000 0  300000 1300000 0  350000 1300000 0  400000 1300000 0  450000 1300000 0  500000 1300000 0  550000 1300000 0  600000 1300000 0  650000 1300000 0  700000 1300000 0  750000 1300000 0  800000 1300000 0  850000 1300000 0  900000 1300000 0  950000 1300000 0  1000000 1300000 0  0 1350000 0  50000 1350000 0  100000 1350000 0  150000 1350000 0  200000 1350000 0  250000 1350000 0  300000 1350000 0  350000 1350000 0  400000 1350000 0  450000 1350000 0  500000 1350000 0  550000 1350000 0  600000 1350000 0  650000 1350000 0  700000 135
[...]
<PointData  Vectors="f_19"> 
<DataArray  type="Float64"  Name="f_19"  NumberOfComponents="3" format="ascii">-2.4273815685722329e-08 -1.1055209275311851e-08 0.0000000000000000e+00  4.8800338390677730e-08 -7.0974421517486955e-09 0.0000000000000000e+00  4.3131884887175653e-08 -2.7471462839334241e-09 0.0000000000000000e+00  4.0737452796504138e-08 -1.3572619842052428e-09 0.0000000000000000e+00  3.9586556544074818e-08 -8.7790933994385675e-10 0.0000000000000000e+00  3.8844908243454063e-08 -6.8373417034014126e-10 0.0000000000000000e+00  3.8314460782119369e-08 -6.0340739108525542e-10 0.0000000000000000e+00  3.7937436655755144e-08 -5.7671841385916338e-10 0.0000000000000000e+00  3.7694942179078021e-08 -5.7650287919081411e-10 0.0000000000000000e+00  3.7581239480040482e-08 -5.8668061149436352e-10 0.0000000000000000e+00  3.7596217587661103e-08 -5.9458592551042188e-10 0.0000000000000000e+00  3.7744020559013247e-08 -5.8747560038763107e-10 0.0000000000000000e+00  3.8035222681162139e-08 -5.5009223617158692e-10 0.0000000000000000e+00  3.8493609628579012e-08 -4.6162839717654657e-10 0.0000000000000000e+00  3.9172951458273879e-08 -2.8955258520481409e-10 0.0000000000000000e+00  4.0199734974654075e-08 2.6610454664619747e-11 0.0000000000000000e+00  4.1884421382858963e-08 6.2148501428960076e-10 0.0000000000000000e+00  4.4981411173417151e-08 1.8283223471346448e-09 0.0000000000000000e+00  5.0820487700898893e-08 4.4457148254788162e-09 0.0000000000000000e+00  5.8063119181851009e-08 9.0202465508880800e-09 0.0000000000000000e+00  -1.6384684107312119e-08 6.9156640231663967e-09 0.0000000000000000e+00  -1.7994013854219224e-08 -1.6642042287865525e-08 0.0000000000000000e+00  7.4405679318004117e-09 -1.1594970620379571e-08 0.0000000000000000e+00  1.8491441040534902e-08 -5.3912297988852448e-09 0.0000000000000000e+00  2.3555539889551782e-08 -2.5338458545472482e-09 0.0000000000000000e+00  2.6132354853940364e-08 -1.2746009663795668e-09 0.0000000000000000e+00  2.7591921509486537e-08 -6.7730351011591949e-10 0.0000000000000000e+00  2.8437554960207987e-08 -3.7390018131247181e-10 0.0000000000000000e+00  2.8924256939764980e-08 -2.1420630737483935e-10 0.0000000000000000e+00  2.9193334611524647e-08 -1.2912683832442341e-10 0.0000000000000000e+00  2.9323718611393415e-08 -8.1118906319204412e-11 0.0000000000000000e+00  2.9356957426111037e-08 -4.5531874037160287e-11 0.0000000000000000e+00  2.9308941926761028e-08 -2.1831534665677176e-12 0.0000000000000000e+00  2.9174233527128451e-08 7.0102894329117432e-11 0.0000000000000000e+00  2.8924884262930788e-08 1.9981457019164598e-10 0.0000000000000000e+00  2.8502508695650130e-08 4.3442518708397570e-10 0.0000000000000000e+00  2.7797202638647002e-08 8.6667217108135121e-10 0.0000000000000000e+00  2.6590788100616412e-08 1.6967791697430089e-09 0.0000000000000000e+00  2.4376164044056879e-08 3.3712316570095983e-09 0.0000000000000000e+00  1.9703746681610573e-08 6.7892622179361341e-09 0.0000000000000000e+00  8.3145129354530874e-09 1.2938714115146841e-08 0.0000000000000000e+00  -1.8350622268435953e-08 1.0852866283880142e-08 0.0000000000000000e+00  -1.0950163020718796e-08 -2.0258070494928777e-08 0.0000000000000000e+00  -1.2194555506856643e-10 -1.8759511906237053e-08 0.0000000000000000e+00  6.1459599923277962e-09 -1.1404918029721555e-08 0.0000000000000000e+00  1.1084238252558691e-08 -6.6048841433575822e-09 0.0000000000000000e+00  1.4897504341479617e-08 -3.8359054323041740e-09 0.0000000000000000e+00  1.7522723227624420e-08 -2.2563392526368750e-09 0.0000000000000000e+00  1.9264842199150644e-08 -1.3244484692122465e-09 0.0000000000000000e+00  2.0392087902817829e-08 -7.4959804821033465e-10 0.0000000000000000e+00  2.1083876143762888e-08 -3.7367972026294959e-10 0.0000000000000000e+00  2.1450902889733423e-08 -1.0334565870883268e-10 0.0000000000000000e+00  2.1554022315978355e-08 1.2439019282275978e-10 0.0000000000000000e+00  2.1415425255659475e-08 3.6071005152069623e-10 0.0000000000000000e+00  2.1022666286173458e-08 6.5784529635164475e-10 0.0000000000000000e+00  2.0326121207599138e-08 1.0826101313818352e-09 0.0000000000000000e+00  1.9229183944714234e-08 1.7367813628932265e-09 0.0000000000000000e+00  1.7569221268871833e-08 2.7923676413677872e-09 0.0000000000000000e+00  1.5087982085238941e-08 4.5485628228187453e-09 0.0000000000000000e+00  1.1402110538176912e-08 7.4837893585820527e-09 0.0000000000000000e+00  6.0421537444606120e-09 1.2079110826251329e-08 0.0000000000000000e+00  -1.2336582662040833e-09 1.7524473270224104e-08 0.0000000000000000e+00  -1.3120924685130467e-08 1.4593914527368826e-08 0.0000000000000000e+00  -7.2035492445073724e-09 -2.0878036276412260e-08 0.0000000000000000e+00  -1.4682158217461035e-09 -2.0322206217278127e-08 0.0000000000000000e+00  1.3153111456958875e-09 -1.5445177844912106e-08 0.0000000000000000e+00  4.1658180047273386e-09 -1.0483530519643037e-08 0.0000000000000000e+00  7.0886128763710660e-09 -6.8725894941522529e-09 0.0000000000000000e+00  9.6001803455105686e-09 -4.4403719801061365e-09 0.0000000000000000e+00  1.1517681131591547e-08 -2.8190928033655809e-09 0.0000000000000000e+00  1.2873737135148678e-08 -1.7148691575054794e-09 0.0000000000000000e+00  1.3756846195282014e-08 -9.2706421293089761e-10 0.0000000000000000e+00  1.4244229765180910e-08 -3.1864828953424548e-10 0.0000000000000000e+00  1.4385375428714435e-08 2.1140667149492857e-10 0.0000000000000000e+00  1.4199826375841875e-08 7.4830607400665738e-10 0.0000000000000000e+00  1.3677432051944687e-08 1.3774038098367423e-09 0.0000000000000000e+00  1.2778357385041636e-08 2.1998530410082462e-09 0.0000000000000000e+00  1.1434147301886393e-08 3.3507435745554172e-09 0.0000000000000000e+00  9.5561707899963270e-09 5.0183338778258524e-09 0.0000000000000000e+00  7.0685932523870262e-09 7.4466991753086377e-09 0.0000000000000000e+00  4.0006736399688327e-09 1.0851322349773626e-08 0.0000000000000000e+00  6.4618041147142372e-10 1.5056533809682755e-08 0.0000000000000000e+00  -2.5897109298183213e-09 1.8706499149314213e-08 0.0000000000000000e+00  -8.7224416391926698e-09 1.7419026122922246e-08 0.0000000000000000e+00  -5.3028840281787908e-09 -2.0281822809984946e-08 0.0000000000000000e+00  -1.8270576286572626e-09 -2.0149343955170326e-08 0.0000000000000000e+00  -8.0830264818845834e-10 -1.6945750018550509e-08 0.0000000000000000e+00  3.9033013837305990e-10 -1.2899392609025753e-08 0.0000000000000000e+00  2.0644936797364330e-09 -9.2775493979002507e-09 0.0000000000000000e+00  3.8419838607331428e-09 -6.4488964061626606e-09 0.0000000000000000e+00  5.4087176705434201e-09 -4.3410025885900607e-09 0.0000000000000000e+00  6.6287570739367165e-09 -2.7736755078887765e-09 0.0000000000000000e+00  7.4743471273683768e-09 -1.5737324667719247e-09 0.0000000000000000e+00  7.9590420643576879e-09 -5.9749195000668318e-10 0.0000000000000000e+00  8.1020249946921955e-09 2.7433625627506750e-10 0.0000000000000000e+00  7.9135687718025400e-09 1.1479477550033676e-09 0.0000000000000000e+00  7.3910205532998101e-09 2.1281468067446113e-09 0.0000000000000000e+00  6.5213069402716582e-09 3.3290083497954512e-09 0.0000000000000000e+00  5.2913288715114859e-09 4.8811431241584551e-09 0.0000000000000000e+00  3.7124817273234777e-09 6.9271181696364606e-09 0.0000000000000000e+00  1.8689777773907302e-09 9.5816994851372762e-09 0.0000000000000000e+00  -1.2325497264904765e-11 1.2809253935093717e-08 0.0000000000000000e+00  -1.5614019808040615e-09 1.6173416523958159e-08 0.0000000000000000e+00  -2.7240700180337923e-09 1.8652677996138438e-08 0.0000000000000000e+00  -6.3249123207889734e-09 1.8366720932872614e-08 0.0000000000000000e+00  -4.2169431011505684e-09 -1.9145642287292340e-08 0.0000000000000000e+00  -2.0087112657935337e-09 -1.9268281594089726e-08 0.0000000000000000e+00  -1.9308132436613196e-09 -1.7035331646161257e-08 0.0000000000000000e+00  -1.8026611554060691e-09 -1.3909442767863419e-08 0.0000000000000000e+00  -1.1722988986235878e-09 -1.0698056939101467e-08 0.0000000000000000e+00  -2.2250639853417527e-10 -7.8708784135873423e-09 0.0000000000000000e+00  7.8175254121607426e-10 -5.5480779946592632e-09 0.0000000000000000e+00  1.6565390790034256e-09 -3.6799556838332579e-09 0.0000000000000000e+00  2.3072724333072293e-09 -2.1579705505094509e-09 0.0000000000000000e+00  2.6955637334704822e-09 -8.6339228862409612e-10 0.0000000000000000e+00  2.8102701103373209e-09 3.1781498572640979e-10 0.0000000000000000e+00  2.6511337340341148e-09 1.4939525583578401e-09 0.0000000000000000e+00  2.2230893925371189e-09 2.7708030898984440e-09 0.0000000000000000e+00  1.5393006765930662e-09 4.2538867575324000e-09 0.0000000000000000e+00  6.3317149371317305e-10 6.0444257742677506e-09 0.0000000000000000e+00  -4.1930663538088242e-10 8.2200314977082170e-09 0.0000000000000000e+00  -1.4696889938652688e-09 1.0785593122236892e-08 0.0000000000000000e+00  -2.2834792510814450e-09 1.3581551466735585e-08 0.0000000000000000e+00  -2.6318366539854749e-09 1.6175981904680080e-08 0.0000000000000000e+00  -2.7159359319137095e-09 1.7927829061968949e-08 0.0000000000000000e+00  -4.8801296599542043e-09 1.8060992241430019e-08 0.0000000000000000e+00  -3.5189514006419424e-09 -1.7711811354565870e-08 0.0000000000000000e+00  -2.1431552052899031e-09 -1.8001690759147179e-08 0.0000000000000000e+00  -2.6297055801358042e-09 -1.6359558155724205e-08 0.0000000000000000e+00  -3.1832753341744516e-09 -1.3935115055727114e-08 0.0000000000000000e+00  -3.3189873982696460e-09 -1.1222651081645733e-08 0.0000000000000000e+00  -3.0832112948100543e-09 -8.6130782000581814e-09 0.0000000000000000e+00  -2.6521876794222972e-09 -6.2925163714089904e-09 0.0000000000000000e+00  -2.1890350630902066e-09 -4.2969079720018214e-09 0.0000000000000000e+00  -1.8049943312799812e-09 -2.5812050969309603e-09 0.0000000000000000e+00  -1.5636318115720112e-09 -1.0648795293171652e-09 0.0000000000000000e+00  -1.4950754994714864e-09 3.4484381509107404e-10 0.0000000000000000e+00  -1.6072026895157840e-09 1.7428118874771319e-09 0.0000000000000000e+00  -1.8903096505279796e-09 3.2211084068433489e-09 0.0000000000000000e+00  -2.3150225336497757e-09 4.8638086210261833e-09 0.0000000000000000e+00  -2.8240716844928007e-09 6.7359772288848948e-09 0.0000000000000000e+00  -3.3202539742383474e-09 8.8609812479742567e-09 0.0000000000000000e+00  -3.6587483582878794e-09 1.1181408599290713e-08 0.0000000000000000e+00  -3.6669480783025966e-09 1.3508844067979422e-08 0.0000000000000000e+00  -3.2491089980824190e-09 1.5497921663459846e-08 0.0000000000000000e+00  -2.7038148582942338e-09 1.6764779620039612e-08 0.0000000000000000e+00  -3.9260483770803766e-09 1.7079536057426047e-08 0.0000000000000000e+00  -3.0312332927803638e-09 -1.6080288785872164e-08 0.0000000000000000e+00  -2.2512891499819374e-09 -1.6483554154256185e-08 0.0000000000000000e+00  -3.1131008719243711e-09 -1.5224160198494584e-08 0.0000000000000000e+00  -4.1137775862691541e-09 -1.3312817385724333e-08 0.0000000000000000e+00  -4.7903693947049329e-09 -1.1057730328379641e-08 0.0000000000000000e+00  -5.1112307061627761e-09 -8.7481541603000235e-09 0.0000000000000000e+00  -5.1755112006952040e-09 -6.5652429444224809e-09 0.0000000000000000e+00  -5.1033680656400756e-09 -4.5832712697038351e-09 0.0000000000000000e+00  -4.9933253838523351e-09 -2.8015140925057753e-09 0.0000000000000000e+00  -4.9117305790314559e-09 -1.1756859314205342e-09 0.0000000000000000e+00  -4.8950611084348010e-09 3.5992288632887632e-10 0.0000000000000000e+00  -4.9546518648151094e-09 1.8784726925662288e-09 0.0000000000000000e+00  -5.0792946362135155e-09 3.4507972630781569e-09 0.0000000000000000e+00  -5.2344885380488210e-09 5.1357120561384243e-09 0.0000000000000000e+00  -5.3592094787040945e-09 6.9667117611666830e-09 0.0000000000000000e+00  -5.3635024583388445e-09 8.9324187593038484e-09 0.0000000000000000e+00  -5.1344944563653801e-09 1.0951531855888012e-08 0.0000000000000000e+00  -4.5663559535801910e-09 1.2851573248067189e-08 0.0000000000000000e+00  -3.6480866800424431e-09 1.4376784366083222e-08 0.0000000000000000e+00  -2.6973570993493697e-09 1.5299635923808094e-08 0.0000000000000000e+00  -3.2602695007297071e-09 1.5705550962269163e-08 0.0000000000000000e+00  -2.6716686373546250e-09 -1.4304531882109261e-08 0.0000000000000000e+00  -2.3383355964805023e-09 -1.4785545772040258e-08 0.0000000000000000e+00  -3.4663568909112255e-09 -1.3788809380084008e-08 0.0000000000000000e+00  -4.7704489130154312e-09 -1.2258588833766236e-08 0.0000000000000000e+00  -5.8255066586271872e-09 -1.0393190610222244e-08 0.0000000000000000e+00  -6.5601693050298387e-09 -8.3987005978034502e-09 0.0000000000000000e+00  -7.0183229955036322e-09 -6.4264123829825041e-09 0.0000000000000000e+00  -7.2774664017250912e-09 -4.5586076794615144e-09 0.0000000000000000e+00  -7.4121033165391698e-09 -2.8188765339258742e-09 0.0000000000000000e+00  -7.4786088481079093e-09 -1.1902916418788217e-09 0.0000000000000000e+00  -7.5108879453409334e-09 3.6752142637432830e-10 0.0000000000000000e+00  -7.5203567885292864e-09 1.9046694363235699e-09 0.0000000000000000e+00  -7.4966956904962058e-09 3.4696239533635694e-09 0.0000000000000000e+00  -7.4081464207369684e-09 5.0981685195011514e-09 0.0000000000000000e+00  -7.2020552645751060e-09 6.8008535181275726e-09 0.0000000000000000e+00  -6.8083202093369087e-09 8.5484915339564931e-09 0.0000000000000000e+00  -6.1508239128667606e-09 1.0258212976785203e-08 0.0000000000000000e+00  -5.1759404894828497e-09 1.1787735069927979e-08 0.0000000000000000e+00  -3.9202541209355720e-09 1.2953085384214980e-08 0.0000000000000000e+00  -2.6925205924654847e-09 1.3620514326558378e-08 0.0000000000000000e+00  -2.7818162386260960e-09 1.4081170625194425e-08 0.0000000000000000e+00  -2.3980653769631527e-09 -1.2420093453859685e-08 0.0000000000000000e+00  -2.4073590067436813e-09 -1.2954184098473631e-08 0.0000000000000000e+00  -3.7307745730187636e-09 -1.2147729581816491e-08 0.0000000000000000e+00  -5.2457725703815721e-09 -1.0910261277376634e-08 0.0000000000000000e+00  -6.5652566776325915e-09 -9.3739698636995928e-09 0.0000000000000000e+00  -7.5993905889799272e-09 -7.6838288357601126e-09 0.0000000000000000e+00  -8.3555043288008900e-09 -5.9577094662338219e-09 0.0000000000000000e+00  -8.8763554278699750e-09 -4.2709856540852534e-09 0.0000000000000000e+00  -9.2114428454625010e-09 -2.6570588312251325e-09 0.0000000000000000e+00  -9.4023637546609789e-09 -1.1165335647113699e-09 0.0000000000000000e+00  -9.4759622247903245e-09 3.7106414965383126e-10 0.0000000000000000e+00  -9.4417757063624507e-09 1.8358436267366465e-09 0.0000000000000000e+00  -9.2916212801657324e-09 3.3069143650930632e-09 0.0000000000000000e+00  -9.0004629568581403e-09 4.8020811728073365e-09 0.0000000000000000e+00  -8.5289748952184081e-09 6.3174519811553787e-09 0.0000000000000000e+00  -7.8294104652707942e-09 7.8175434819222317e-09 0.0000000000000000e+00  -6.8576014908265666e-09 9.2283708813553299e-09 0.0000000000000000e+00  -5.5964580665967062e-09 1.0438554937293974e-08 0.0000000000000000e+00  -4.1081858252702709e-09 1.1317335286939236e-08 0.0000000000000000e+00  -2.6862562886044677e-09 1.1788070383797633e-08 0.0000000000000000e+00  -2.4334785626072571e-09 1.2287099248593014e-08 0.0000000000000000e+00  -2.1868831420259830e-09 -1.0453666545671497e-08 0.0000000000000000e+00  -2.4612787538412196e-09 -1.1023219796863822e-08 0.0000000000000000e+00  -3.9300286661000055e-09 -1.0362166700288472e-08 0.0000000000000000e+00  -5.5931700342657538e-09 -9.3590583245751555e-09 0.0000000000000000e+00  -7.0967118947258705e-09 -8.1053501044406360e-09 0.0000000000000000e+00  -8.3432170211379540e-09 -6.7023747370647387e-09 0.0000000000000000e+00  -9.3167420215948126e-09 -5.2382883294548168e-09 0.0000000000000000e+00  -1.0034241228662106e-08 -3.7758213087562481e-09 0.0000000000000000e+00  -1.0523736479401533e-08 -2.3493180177347363e-09 0.0000000000000000e+00  -1.0812026692264347e-08 -9.6876368985863625e-10 0.0000000000000000e+00  -1.0917690385922712e-08 3.7272938415040245e-10 0.0000000000000000e+00  -1.0847645783511591e-08 1.6902702505036352e-09 0.0000000000000000e+00  -1.0596195476912893e-08 2.9984236146477639e-09 0.0000000000000000e+00  -1.0146077615667307e-08 4.3026935085412449e-09 0.0000000000000000e+00  -9.4716970878296550e-09 5.5915973915427925e-09 0.0000000000000000e+00  -8.5452967972646345e-09 6.8302472589736515e-09 0.0000000000000000e+00  -7.3474633253085694e-09 7.9573358383567083e-09 0.0000000000000000e+00  -5.8856006099352736e-09 8.8885244838615888e-09 0.0000000000000000e+00  -4.2356984427797676e-09 9.5317508293872611e-09 0.0000000000000000e+00  -2.6773596307466779e-09 9.8459814346973977e-09 0.0000000000000000e+00  -2.1796812063049717e-09 1.0374656541085972e-08 0.0000000000000000e+00  -2.0242589212347469e-09 -8.4263519018476338e-09 0.0000000000000000e+00  -2.5030832386097476e-09 -9.0185211087422262e-09 0.0000000000000000e+00  -4.0797589111581173e-09 -8.4746771616382942e-09 0.0000000000000000e+00  -5.8465600318368042e-09 -7.6676719264083706e-09 0.0000000000000000e+00  -7.4767096125493587e-09 -6.6632161573304639e-09 0.0000000000000000e+00  -8.8704645330524384e-09 -5.5313554767755966e-09 0.0000000000000000e+00  -9.9974109414526265e-09 -4.3356908417645921e-09 0.0000000000000000e+00  -1.0856383496682785e-08 -3.1249918399376437e-09 0.0000000000000000e+00  -1.1458766696133202e-08 -1.9296493392701482e-09 0.0000000000000000e+00  -1.1818808789757913e-08 -7.6309093491434299e-10 0.0000000000000000e+00  -1.1947503202585352e-08 3.7367624495229837e-10 0.0000000000000000e+00  -1.1849188884308501e-08 1.4859750902132202e-09 0.0000000000000000e+00  -1.1520460517634924e-08 2.5788591510597930e-09 0.0000000000000000e+00  -1.0951181242101048e-08 3.6506665159952749e-09 0.0000000000000000e+00  -1.0127619687632437e-08 4.6873439879920644e-09 0.0000000000000000e+00  -9.0379496331669267e-09 5.6584223832935646e-09 0.0000000000000000e+00  -7.6807733828712501e-09 6.5159370237823079e-09 0.0000000000000000e+00  -6.0796392050133792e-09 7.1980115775666241e-09 0.0000000000000000e+00  -4.3181681061779448e-09 7.6409698028766602e-09 0.0000000000000000e+00  -2.6657822432904003e-09 7.8265921865776217e-09 0.0000000000000000e+00  -1.9971265716844387e-09 8.3791840736626777e-09 0.0000000000000000e+00  -1.9018223987059792e-09 -6.3551483607210943e-09 0.0000000000000000e+00  -2.5356928844334027e-09 -6.9604145934289266e-09 0.0000000000000000e+00  -4.1912524451919204e-09 -6.5161696916048006e-09 0.0000000000000000e+00  -6.0290222220562195e-09 -5.8805935171457320e-09 0.0000000000000000e+00  -7.7438937241796546e-09 -5.1026258517033188e-09 0.0000000000000000e+00  -9.2362693130378560e-09 -4.2293086739043775e-09 0.0000000000000000e+00  -1.0467000500769371e-08 -3.3042482632936791e-09 0.0000000000000000e+00  -1.1422812216231597e-08 -2.3626948807189644e-09 0.0000000000000000e+00  -1.2103162237006447e-08 -1.4285753612920663e-09 0.0000000000000000e+00  -1.2512749708618546e-08 -5.1474596422884725e-10 0.0000000000000000e+00  -1.2656512034254823e-08 3.7438694870222279e-10 0.0000000000000000e+00  -1.2536645572786133e-08 1.2388626079747815e-09 0.0000000000000000e+00  -1.2151585260780494e-08 2.0785934803937737e-09 0.0000000000000000e+00  -1.1496894365836734e-08 2.8888697007826962e-09 0.0000000000000000e+00  -1.0568009967143394e-08 3.6565443592466418e-09 0.0000000000000000e+00  -9.3648199196843810e-09 4.3575933238194667e-09 0.0000000000000000e+00  -7.8984264452912331e-09 4.9568730762650849e-09 0.0000000000000000e+00  -6.2028937246435702e-09 5.4110672109034560e-09 0.0000000000000000e+00  -4.3663309088312751e-09 5.6778948637723876e-09 0.0000000000000000e+00  -2.6520198425079692e-09 5.7542470792727274e-09 0.0000000000000000e+00  -1.8702372554351390e-09 6.3262602043313014e-09 0.0000000000000000e+00  -1.8145849945087370e-09 -4.2539187520366354e-09 0.0000000000000000e+00  -2.5617656288445152e-09 -4.8651048105073978e-09 0.0000000000000000e+00  -4.2728784355926724e-09 -4.5098689924175091e-09 0.0000000000000000e+00  -6.1566801298160014e-09 -4.0303933102052788e-09 0.0000000000000000e+00  -7.9248300842132500e-09 -3.4641940551527606e-09 0.0000000000000000e+00  -9.4789275200198025e-09 -2.8406152673488302e-09 0.0000000000000000e+00  -1.0774896936029963e-08 -2.18667061