<?xml version="1.0"?>
<VTKFile type="UnstructuredGrid"  version="0.1"  >
<UnstructuredGrid>
<Piece  NumberOfPoints="651" NumberOfCells="1200">
<Points>
<DataArray  type="Float64"  NumberOfComponents="3"  format="ascii">0 0 0  50000 0 0  100000 0 0  150000 0 0  200000 0 0  250000 0 0  300000 0 0  350000 0 0  400000 0 0  450000 0 0  500000 0 0  550000 0 0  600000 0 0  650000 0 0  700000 0 0  750000 0 0  800000 0 0  850000 0 0  900000 0 0  950000 0 0  1000000 0 0  0 50000 0  50000 50000 0  100000 50000 0  150000 50000 0  200000 50000 0  250000 50000 0  300000 50000 0  350000 50000 0  400000 50000 0  450000 50000 0  500000 50000 0  550000 50000 0  600000 50000 0  650000 50000 0  700000 50000 0  750000 50000 0  800000 50000 0  850000 50000 0  900000 50000 0  950000 50000 0  1000000 50000 0  0 100000 0  50000 100000 0  100000 100000 0  150000 100000 0  200000 100000 0  250000 100000 0  300000 100000 0  350000 100000 0  400000 100000 0  450000 100000 0  500000 100000 0  550000 100000 0  600000 100000 0  650000 100000 0  700000 100000 0  750000 100000 0  800000 100000 0  850000 100000 0  900000 100000 0  950000 100000 0  1000000 100000 0  0 150000 0  50000 150000 0  100000 150000 0  150000 150000 0  200000 150000 0  250000 150000 0  300000 150000 0  350000 150000 0  400000 150000 0  450000 150000 0  500000 150000 0  550000 150000 0  600000 150000 0  650000 150000 0  700000 150000 0  750000 150000 0  800000 150000 0  850000 150000 0  900000 150000 0  950000 150000 0  1000000 150000 0  0 200000 0  50000 200000 0  100000 200000 0  150000 200000 0  200000 200000 0  250000 200000 0  300000 200000 0  350000 200000 0  400000 200000 0  450000 200000 0  500000 200000 0  550000 200000 0  600000 200000 0  650000 200000 0  700000 200000 0  750000 200000 0  800000 200000 0  850000 200000 0  900000 200000 0  950000 200000 0  1000000 200000 0  0 250000 0  50000 250000 0  100000 250000 0  150000 250000 0  200000 250000 0  250000 250000 0  300000 250000 0  350000 250000 0  400000 250000 0  450000 250000 0  500000 250000 0  550000 250000 0  600000 250000 0  650000 250000 0  700000 250000 0  750000 250000 0  800000 250000 0  850000 250000 0  900000 250000 0  950000 250000 0  1000000 250000 0  0 300000 0  50000 300000 0  100000 300000 0  150000 300000 0  200000 300000 0  250000 300000 0  300000 300000 0  350000 300000 0  400000 300000 0  450000 300000 0  500000 300000 0  550000 300000 0  600000 300000 0  650000 300000 0  700000 300000 0  750000 300000 0  800000 300000 0  850000 300000 0  900000 300000 0  950000 300000 0  1000000 300000 0  0 350000 0  50000 350000 0  100000 350000 0  150000 350000 0  200000 350000 0  250000 350000 0  300000 350000 0  350000 350000 0  400000 350000 0  450000 350000 0  500000 350000 0  550000 350000 0  600000 350000 0  650000 350000 0  700000 350000 0  750000 350000 0  800000 350000 0  850000 350000 0  900000 350000 0  950000 350000 0  1000000 350000 0  0 400000 0  50000 400000 0  100000 400000 0  150000 400000 0  200000 400000 0  250000 400000 0  300000 400000 0  350000 400000 0  400000 400000 0  450000 400000 0  500000 400000 0  550000 400000 0  600000 400000 0  650000 400000 0  700000 400000 0  750000 400000 0  800000 400000 0  850000 400000 0  900000 400000 0  950000 400000 0  1000000 400000 0  0 450000 0  50000 450000 0  100000 450000 0  150000 450000 0  200000 450000 0  250000 450000 0  300000 450000 0  350000 450000 0  400000 450000 0  450000 450000 0  500000 450000 0  550000 450000 0  600000 450000 0  650000 450000 0  700000 450000 0  750000 450000 0  800000 450000 0  850000 450000 0  900000 450000 0  950000 450000 0  1000000 450000 0  0 500000 0  50000 500000 0  100000 500000 0  150000 500000 0  200000 500000 0  250000 500000 0  300000 500000 0  350000 500000 0  400000 500000 0  450000 500000 0  500000 500000 0  550000 500000 0  600000 500000 0  650000 500000 0  700000 500000 0  750000 500000 0  800000 500000 0  850000 500000 0  900000 500000 0  950000 500000 0  1000000 500000 0  0 550000 0  50000 550000 0  100000 550000 0  150000 550000 0  200000 550000 0  250000 550000 0  300000 550000 0  350000 550000 0  400000 550000 0  450000 550000 0  500000 550000 0  550000 550000 0  600000 550000 0  650000 550000 0  700000 550000 0  750000 550000 0  800000 550000 0  850000 550000 0  900000 550000 0  950000 550000 0  1000000 550000 0  0 600000 0  50000 600000 0  100000 600000 0  150000 600000 0  200000 600000 0  250000 600000 0  300000 600000 0  350000 600000 0  400000 600000 0  450000 600000 0  500000 600000 0  550000 600000 0  600000 600000 0  650000 600000 0  700000 600000 0  750000 600000 0  800000 600000 0  850000 600000 0  900000 600000 0  950000 600000 0  1000000 600000 0  0 650000 0  50000 650000 0  100000 650000 0  150000 650000 0  200000 650000 0  250000 650000 0  300000 650000 0  350000 650000 0  400000 650000 0  450000 650000 0  500000 650000 0  550000 650000 0  600000 650000 0  650000 650000 0  700000 650000 0  750000 650000 0  800000 650000 0  850000 650000 0  900000 650000 0  950000 650000 0  1000000 650000 0  0 700000 0  50000 700000 0  100000 700000 0  150000 700000 0  200000 700000 0  250000 700000 0  300000 700000 0  350000 700000 0  400000 700000 0  450000 700000 0  500000 700000 0  550000 700000 0  600000 700000 0  650000 700000 0  700000 700000 0  750000 700000 0  800000 700000 0  850000 700000 0  900000 700000 0  950000 700000 0  1000000 700000 0  0 750000 0  50000 750000 0  100000 750000 0  150000 750000 0  200000 750000 0  250000 750000 0  300000 750000 0  350000 750000 0  400000 750000 0  450000 750000 0  500000 750000 0  550000 750000 0  600000 750000 0  650000 750000 0  700000 750000 0  750000 750000 0  800000 750000 0  850000 750000 0  900000 750000 0  950000 750000 0  1000000 750000 0  0 800000 0  50000 800000 0  100000 800000 0  150000 800000 0  200000 800000 0  250000 800000 0  300000 800000 0  350000 800000 0  400000 800000 0  450000 800000 0  500000 800000 0  550000 800000 0  600000 800000 0  650000 800000 0  700000 800000 0  750000 800000 0  800000 800000 0  850000 800000 0  900000 800000 0  950000 800000 0  1000000 800000 0  0 850000 0  50000 850000 0  100000 850000 0  150000 850000 0  200000 850000 0  250000 850000 0  300000 850000 0  350000 850000 0  400000 850000 0  450000 850000 0  500000 850000 0  550000 850000 0  600000 850000 0  650000 850000 0  700000 850000 0  750000 850000 0  800000 850000 0  850000 850000 0  900000 850000 0  950000 850000 0  1000000 850000 0  0 900000 0  50000 900000 0  100000 900000 0  150000 900000 0  200000 900000 0  250000 900000 0  300000 900000 0  350000 900000 0  400000 900000 0  450000 900000 0  500000 900000 0  550000 900000 0  600000 900000 0  650000 900000 0  700000 900000 0  750000 900000 0  800000 900000 0  850000 900000 0  900000 900000 0  950000 900000 0  1000000 900000 0  0 950000 0  50000 950000 0  100000 950000 0  150000 950000 0  200000 950000 0  250000 950000 0  300000 950000 0  350000 950000 0  400000 950000 0  450000 950000 0  500000 950000 0  550000 950000 0  600000 950000 0  650000 950000 0  700000 950000 0  750000 950000 0  800000 950000 0  850000 950000 0  900000 950000 0  950000 950000 0  1000000 950000 0  0 1000000 0  50000 1000000 0  100000 1000000 0  150000 1000000 0  200000 1000000 0  250000 1000000 0  300000 1000000 0  350000 1000000 0  400000 1000000 0  450000 1000000 0  500000 1000000 0  550000 1000000 0  600000 1000000 0  650000 1000000 0  700000 1000000 0  750000 1000000 0  800000 1000000 0  850000 1000000 0  900000 1000000 0  950000 1000000 0  1000000 1000000 0  0 1050000 0  50000 1050000 0  100000 1050000 0  150000 1050000 0  200000 1050000 0  250000 1050000 0  300000 1050000 0  350000 1050000 0  400000 1050000 0  450000 1050000 0  500000 1050000 0  550000 1050000 0  600000 1050000 0  650000 1050000 0  700000 1050000 0  750000 1050000 0  800000 1050000 0  850000 1050000 0  900000 1050000 0  950000 1050000 0  1000000 1050000 0  0 1100000 0  50000 1100000 0  100000 1100000 0  150000 1100000 0  200000 1100000 0  250000 1100000 0  300000 1100000 0  350000 1100000 0  400000 1100000 0  450000 1100000 0  500000 1100000 0  550000 1100000 0  600000 1100000 0  650000 1100000 0  700000 1100000 0  750000 1100000 0  800000 1100000 0  850000 1100000 0  900000 1100000 0  950000 1100000 0  1000000 1100000 0  0 1150000 0  50000 1150000 0  100000 1150000 0  150000 1150000 0  200000 1150000 0  250000 1150000 0  300000 1150000 0  350000 1150000 0  400000 1150000 0  450000 1150000 0  500000 1150000 0  550000 1150000 0  600000 1150000 0  650000 1150000 0  700000 1150000 0  750000 1150000 0  800000 1150000 0  850000 1150000 0  900000 1150000 0  950000 1150000 0  1000000 1150000 0  0 1200000 0  50000 1200000 0  100000 1200000 0  150000 1200000 0  200000 1200000 0  250000 1200000 0  300000 1200000 0  350000 1200000 0  400000 1200000 0  450000 1200000 0  500000 1200000 0  550000 1200000 0  600000 1200000 0  650000 1200000 0  700000 1200000 0  750000 1200000 0  800000 1200000 0  850000 1200000 0  900000 1200000 0  950000 1200000 0  1000000 1200000 0  0 1250000 0  50000 1250000 0  100000 1250000 0  150000 1250000 0  200000 1250000 0  250000 1250000 0  300000 1250000 0  350000 1250000 0  400000 1250000 0  450000 1250000 0  500000 1250000 0  550000 1250000 0  600000 1250000 0  650000 1250000 0  700000 1250000 0  750000 1250000 0  800000 1250000 0  850000 1250000 0  900000 1250000 0  950000 1250000 0  1000000 1250000 0  0 1300000 0  50000 1300000 0  100000 1300000 0  150000 1300000 0  200000 1300000 0  250000 1300000 0  300000 1300000 0  350000 1300000 0  400000 1300000 0  450000 1300000 0  500000 1300000 0  550000 1300000 0  600000 1300000 0  650000 1300000 0  700000 1300000 0  750000 1300000 0  800000 1300000 0  850000 1300000 0  900000 1300000 0  950000 1300000 0  1000000 1300000 0  0 1350000 0  50000 1350000 0  100000 1350000 0  150000 1350000 0  200000 1350000 0  250000 1350000 0  300000 1350000 0  350000 1350000 0  400000 1350000 0  450000 1350000 0  500000 1350000 0  550000 1350000 0  600000 1350000 0  650000 1350000 0  700000 135
[...]
<PointData  Vectors="f_19"> 
<DataArray  type="Float64"  Name="f_19"  NumberOfComponents="3" format="ascii">-2.4153252688155119e-08 -1.1024838137437643e-08 0.0000000000000000e+00  4.8894831897833865e-08 -7.0899252110557183e-09 0.0000000000000000e+00  4.3164838474727752e-08 -2.7643687954613606e-09 0.0000000000000000e+00  4.0709114956003313e-08 -1.3822971515380449e-09 0.0000000000000000e+00  3.9498986554789134e-08 -8.9770027163898422e-10 0.0000000000000000e+00  3.8701643959558217e-08 -6.8846627124681164e-10 0.0000000000000000e+00  3.8120335486769801e-08 -5.8471760743968330e-10 0.0000000000000000e+00  3.7698597876801337e-08 -5.2715867694718767e-10 0.0000000000000000e+00  3.7419305483734726e-08 -4.8961174760759532e-10 0.0000000000000000e+00  3.7278989629523561e-08 -4.5754097081227237e-10 0.0000000000000000e+00  3.7280124570504470e-08 -4.2082700088756910e-10 0.0000000000000000e+00  3.7429326613771491e-08 -3.7062514853971106e-10 0.0000000000000000e+00  3.7738795826662661e-08 -2.9705184240145230e-10 0.0000000000000000e+00  3.8232064477118401e-08 -1.8581208375200923e-10 0.0000000000000000e+00  3.8959620941087556e-08 -1.0937117994369558e-11 0.0000000000000000e+00  4.0040882705814473e-08 2.8348478048397845e-10 0.0000000000000000e+00  4.1776025610464627e-08 8.3236369062721074e-10 0.0000000000000000e+00  4.4909079127534248e-08 1.9768496354627244e-09 0.0000000000000000e+00  5.0765347614894323e-08 4.5317880412659520e-09 0.0000000000000000e+00  5.8011295289015484e-08 9.0631100627804030e-09 0.0000000000000000e+00  -1.6441386426791896e-08 6.9581159625917502e-09 0.0000000000000000e+00  -1.7892545353672139e-08 -1.6577105110990916e-08 0.0000000000000000e+00  7.4207156211044672e-09 -1.1561825057053969e-08 0.0000000000000000e+00  1.8419205939935028e-08 -5.3535306992007678e-09 0.0000000000000000e+00  2.3472136166083620e-08 -2.4835303361321939e-09 0.0000000000000000e+00  2.6028104814019034e-08 -1.2203158843830171e-09 0.0000000000000000e+00  2.7460004028870357e-08 -6.2228639486269257e-10 0.0000000000000000e+00  2.8278579346237621e-08 -3.1983083437568592e-10 0.0000000000000000e+00  2.8742793779884548e-08 -1.6240564831327975e-10 0.0000000000000000e+00  2.8996586204826240e-08 -8.1187560477582090e-11 0.0000000000000000e+00  2.9120977928644012e-08 -3.9194297772675745e-11 0.0000000000000000e+00  2.9159085530644079e-08 -1.2314151510041224e-11 0.0000000000000000e+00  2.9127550527530052e-08 1.9448885597096852e-11 0.0000000000000000e+00  2.9020350856664155e-08 7.7839899636217088e-11 0.0000000000000000e+00  2.8807012171608430e-08 1.9310617182203466e-10 0.0000000000000000e+00  2.8424234645422958e-08 4.1594754590882641e-10 0.0000000000000000e+00  2.7754946521461698e-08 8.4354428795429844e-10 0.0000000000000000e+00  2.6572800437625993e-08 1.6804415529022359e-09 0.0000000000000000e+00  2.4364451053202342e-08 3.3742512238758727e-09 0.0000000000000000e+00  1.9681138499838947e-08 6.8170445117577413e-09 0.0000000000000000e+00  8.2716924956778779e-09 1.2974229128798693e-08 0.0000000000000000e+00  -1.8409034069955181e-08 1.0889835390114972e-08 0.0000000000000000e+00  -1.0882510120712205e-08 -2.0157198744199591e-08 0.0000000000000000e+00  -1.5668113086886683e-10 -1.8730552237521462e-08 0.0000000000000000e+00  6.0495089703159531e-09 -1.1371050568827658e-08 0.0000000000000000e+00  1.0971082835688518e-08 -6.5461957078283884e-09 0.0000000000000000e+00  1.4779453151179728e-08 -3.7659167698562336e-09 0.0000000000000000e+00  1.7401047812763844e-08 -2.1848167771567325e-09 0.0000000000000000e+00  1.9140038126575128e-08 -1.2581218830506172e-09 0.0000000000000000e+00  2.0266716137242930e-08 -6.9369013620203166e-10 0.0000000000000000e+00  2.0962247605764985e-08 -3.3280134651973000e-10 0.0000000000000000e+00  2.1338287232734817e-08 -8.1844621907148063e-11 0.0000000000000000e+00  2.1455816971810937e-08 1.2263505929274915e-10 0.0000000000000000e+00  2.1336245849091209e-08 3.3302388752440809e-10 0.0000000000000000e+00  2.0965372260763972e-08 6.0396804366097482e-10 0.0000000000000000e+00  2.0290919673485422e-08 1.0062049871028688e-09 0.0000000000000000e+00  1.9213102399100359e-08 1.6467930061070879e-09 0.0000000000000000e+00  1.7566341279561788e-08 2.7033823458782791e-09 0.0000000000000000e+00  1.5090756717332041e-08 4.4788929676710740e-09 0.0000000000000000e+00  1.1403604522930198e-08 7.4497715300963227e-09 0.0000000000000000e+00  6.0374275116588571e-09 1.2084858394057232e-08 0.0000000000000000e+00  -1.2651329411699920e-09 1.7541251898758819e-08 0.0000000000000000e+00  -1.3224176294978711e-08 1.4633497518886744e-08 0.0000000000000000e+00  -7.1581361344762351e-09 -2.0753014388102825e-08 0.0000000000000000e+00  -1.4899010935837977e-09 -2.0246955825062294e-08 0.0000000000000000e+00  1.2437404482734929e-09 -1.5391673520010951e-08 0.0000000000000000e+00  4.0691692317313341e-09 -1.0420053055423537e-08 0.0000000000000000e+00  6.9849193838781284e-09 -6.8016415931601984e-09 0.0000000000000000e+00  9.4988854684711733e-09 -4.3701417719876834e-09 0.0000000000000000e+00  1.1423842374987714e-08 -2.7571018389501290e-09 0.0000000000000000e+00  1.2791105916192712e-08 -1.6673857171001770e-09 0.0000000000000000e+00  1.3688893084561096e-08 -8.9935712007261020e-10 0.0000000000000000e+00  1.4194094770992414e-08 -3.1506420097890155e-10 0.0000000000000000e+00  1.4355388625794749e-08 1.8777340888435698e-10 0.0000000000000000e+00  1.4190925135650036e-08 6.9637586312071029e-10 0.0000000000000000e+00  1.3688676259440880e-08 1.2992013550090584e-09 0.0000000000000000e+00  1.2806745436209355e-08 2.1016566904101537e-09 0.0000000000000000e+00  1.1474939732493290e-08 3.2437998362455554e-09 0.0000000000000000e+00  9.6038287102577918e-09 4.9183899804206184e-09 0.0000000000000000e+00  7.1181203180994595e-09 7.3714468636458022e-09 0.0000000000000000e+00  4.0484023211527769e-09 1.0814925538522343e-08 0.0000000000000000e+00  6.8704536783074539e-10 1.5060727994000053e-08 0.0000000000000000e+00  -2.5935984166337838e-09 1.8715540304554567e-08 0.0000000000000000e+00  -8.8925630598315804e-09 1.7476391005439106e-08 0.0000000000000000e+00  -5.2694000645543083e-09 -2.0134217272060673e-08 0.0000000000000000e+00  -1.8439248393180337e-09 -2.0034478752161799e-08 0.0000000000000000e+00  -8.6172567491927663e-10 -1.6864954661768188e-08 0.0000000000000000e+00  3.1576396056806599e-10 -1.2826156189086131e-08 0.0000000000000000e+00  1.9827105238613142e-09 -9.2080141979670680e-09 0.0000000000000000e+00  3.7642018554051981e-09 -6.3866806861496840e-09 0.0000000000000000e+00  5.3425179418782027e-09 -4.2915747557006655e-09 0.0000000000000000e+00  6.5792002217320802e-09 -2.7423702182781591e-09 0.0000000000000000e+00  7.4448584755074594e-09 -1.5650943012365944e-09 0.0000000000000000e+00  7.9517037782578576e-09 -6.1491222434153268e-10 0.0000000000000000e+00  8.1175087544477221e-09 2.2910600266644766e-10 0.0000000000000000e+00  7.9509684581461345e-09 1.0755069045029127e-09 0.0000000000000000e+00  7.4478034814981586e-09 2.0322929619139195e-09 0.0000000000000000e+00  6.5935556614760962e-09 3.2174711482460955e-09 0.0000000000000000e+00  5.3743623800117624e-09 4.7657988588100301e-09 0.0000000000000000e+00  3.8017661920011178e-09 6.8231682039517280e-09 0.0000000000000000e+00  1.9608930583856605e-09 9.5053075476159126e-09 0.0000000000000000e+00  7.8989491922074695e-11 1.2773273670197909e-08 0.0000000000000000e+00  -1.4790294358199532e-09 1.6180657152946917e-08 0.0000000000000000e+00  -2.7050919903447050e-09 1.8672586836424622e-08 0.0000000000000000e+00  -6.5650835583163396e-09 1.8464116781153014e-08 0.0000000000000000e+00  -4.1901754814842530e-09 -1.8975985363185721e-08 0.0000000000000000e+00  -2.0233792442056667e-09 -1.9126341339001814e-08 0.0000000000000000e+00  -1.9728572727777107e-09 -1.6930985963672871e-08 0.0000000000000000e+00  -1.8600158149233810e-09 -1.3825734720064011e-08 0.0000000000000000e+00  -1.2344701708707833e-09 -1.0629930223043751e-08 0.0000000000000000e+00  -2.7936432017821598e-10 -7.8186856620381268e-09 0.0000000000000000e+00  7.3809895751372874e-10 -5.5145855852891002e-09 0.0000000000000000e+00  1.6315739293768688e-09 -3.6685190188405284e-09 0.0000000000000000e+00  2.3043907738678213e-09 -2.1715338424580007e-09 0.0000000000000000e+00  2.7163395155865035e-09 -9.0382667125501613e-10 0.0000000000000000e+00  2.8545980836633329e-09 2.5031783950496302e-10 0.0000000000000000e+00  2.7173470634149077e-09 1.4015301525250098e-09 0.0000000000000000e+00  2.3081851519526456e-09 2.6585574344510302e-09 0.0000000000000000e+00  1.6393658886698905e-09 4.1303205479975182e-09 0.0000000000000000e+00  7.4400390241670113e-10 5.9214057741061408e-09 0.0000000000000000e+00  -3.0156304100778587e-10 8.1119877512622498e-09 0.0000000000000000e+00  -1.3483624109486761e-09 1.0707757447626750e-08 0.0000000000000000e+00  -2.1627758579133505e-09 1.3547195826046319e-08 0.0000000000000000e+00  -2.5240239395694578e-09 1.6192356373399150e-08 0.0000000000000000e+00  -2.6862996249294601e-09 1.7978453946050221e-08 0.0000000000000000e+00  -5.1768530672111860e-09 1.8218025194922699e-08 0.0000000000000000e+00  -3.4962727177226929e-09 -1.7519877120666528e-08 0.0000000000000000e+00  -2.1571751007387425e-09 -1.7838777262937930e-08 0.0000000000000000e+00  -2.6652286385827386e-09 -1.6237908220123842e-08 0.0000000000000000e+00  -3.2292239629700375e-09 -1.3843530289249902e-08 0.0000000000000000e+00  -3.3667749794121924e-09 -1.1156828503435859e-08 0.0000000000000000e+00  -3.1242428630916064e-09 -8.5716709376371165e-09 0.0000000000000000e+00  -2.6792790407848361e-09 -6.2759972223564215e-09 0.0000000000000000e+00  -2.1970008796942099e-09 -4.3064617168812076e-09 0.0000000000000000e+00  -1.7906944065035118e-09 -2.6178395263097189e-09 0.0000000000000000e+00  -1.5258257539349261e-09 -1.1287127725511260e-09 0.0000000000000000e+00  -1.4342254497371488e-09 2.5521103469162526e-10 0.0000000000000000e+00  -1.5252258479664983e-09 1.6308778062761655e-09 0.0000000000000000e+00  -1.7902384803485827e-09 3.0929602103361124e-09 0.0000000000000000e+00  -2.2005552626649928e-09 4.7284025605332488e-09 0.0000000000000000e+00  -2.6990768782134420e-09 6.6050572255846172e-09 0.0000000000000000e+00  -3.1884280582231837e-09 8.7485214017268627e-09 0.0000000000000000e+00  -3.5238433863304503e-09 1.1102597848255744e-08 0.0000000000000000e+00  -3.5345907278076687e-09 1.3478816271730297e-08 0.0000000000000000e+00  -3.1344831890350426e-09 1.5530231299332866e-08 0.0000000000000000e+00  -2.6753893146954074e-09 1.6860274437533560e-08 0.0000000000000000e+00  -4.2564227553454695e-09 1.7306125007082237e-08 0.0000000000000000e+00  -3.0114912807081231e-09 -1.5865458461728933e-08 0.0000000000000000e+00  -2.2658220197333623e-09 -1.6302536902292713e-08 0.0000000000000000e+00  -3.1456290764130517e-09 -1.5089919511801969e-08 0.0000000000000000e+00  -4.1531884219466738e-09 -1.3216523242450939e-08 0.0000000000000000e+00  -4.8290477268065390e-09 -1.0995721426467791e-08 0.0000000000000000e+00  -5.1418348929149070e-09 -8.7180756148233909e-09 0.0000000000000000e+00  -5.1918313138014922e-09 -6.5657750279147716e-09 0.0000000000000000e+00  -5.1008710702844422e-09 -4.6136055265323823e-09 0.0000000000000000e+00  -4.9693240896776607e-09 -2.8607344237500425e-09 0.0000000000000000e+00  -4.8653218592299651e-09 -1.2621603099091297e-09 0.0000000000000000e+00  -4.8269371635937834e-09 2.4910966006309136e-10 0.0000000000000000e+00  -4.8668249116157552e-09 1.7480263308432583e-09 0.0000000000000000e+00  -4.9747481010691945e-09 3.3076180430942802e-09 0.0000000000000000e+00  -5.1167851047309220e-09 4.9891278365852599e-09 0.0000000000000000e+00  -5.2321428751103473e-09 6.8284791591633196e-09 0.0000000000000000e+00  -5.2309697139107304e-09 8.8164968566108437e-09 0.0000000000000000e+00  -5.0009153159813320e-09 1.0873775067028825e-08 0.0000000000000000e+00  -4.4384818178187454e-09 1.2829679292004970e-08 0.0000000000000000e+00  -3.5421949597021988e-09 1.4430674336858760e-08 0.0000000000000000e+00  -2.6782013388166382e-09 1.5446231138685130e-08 0.0000000000000000e+00  -3.5993474403907475e-09 1.6000835762905657e-08 0.0000000000000000e+00  -2.6547962327976025e-09 -1.4066038773236311e-08 0.0000000000000000e+00  -2.3541947458479413e-09 -1.4587761726494694e-08 0.0000000000000000e+00  -3.4982673251869508e-09 -1.3644953792659120e-08 0.0000000000000000e+00  -4.8069050970507504e-09 -1.2160171781762796e-08 0.0000000000000000e+00  -5.8593445496949990e-09 -1.0336462217198603e-08 0.0000000000000000e+00  -6.5849438110320195e-09 -8.3803846187308562e-09 0.0000000000000000e+00  -7.0287434632131554e-09 -6.4436741508514518e-09 0.0000000000000000e+00  -7.2697547932980176e-09 -4.6088718493958155e-09 0.0000000000000000e+00  -7.3841375557996711e-09 -2.8994542172007936e-09 0.0000000000000000e+00  -7.4298813890959435e-09 -1.2979206193779104e-09 0.0000000000000000e+00  -7.4423351434344101e-09 2.3714917458913623e-10 0.0000000000000000e+00  -7.4341010116699647e-09 1.7573448975539981e-09 0.0000000000000000e+00  -7.3957351921148169e-09 3.3129818481854214e-09 0.0000000000000000e+00  -7.2960420143720710e-09 4.9419377971056625e-09 0.0000000000000000e+00  -7.0826974139297752e-09 6.6569939428629990e-09 0.0000000000000000e+00  -6.6859102632654754e-09 8.4312859305811349e-09 0.0000000000000000e+00  -6.0302938023976428e-09 1.0184513564645560e-08 0.0000000000000000e+00  -5.0644526165848044e-09 1.1777724612715660e-08 0.0000000000000000e+00  -3.8333043748844794e-09 1.3031775655265594e-08 0.0000000000000000e+00  -2.6863128773529852e-09 1.3817107132660280e-08 0.0000000000000000e+00  -3.1078429034671701e-09 1.4436011854153764e-08 0.0000000000000000e+00  -2.3848945934890300e-09 -1.2157162302154251e-08 0.0000000000000000e+00  -2.4251268541793211e-09 -1.2740078476714330e-08 0.0000000000000000e+00  -3.7635250741567194e-09 -1.1996009172171350e-08 0.0000000000000000e+00  -5.2816100118554143e-09 -1.0811510214609155e-08 0.0000000000000000e+00  -6.5972265240807510e-09 -9.3236422653829047e-09 0.0000000000000000e+00  -7.6216813155438980e-09 -7.6775319140525171e-09 0.0000000000000000e+00  -8.3636097619531074e-09 -5.9911668247721667e-09 0.0000000000000000e+00  -8.8672387686757465e-09 -4.3400139412003118e-09 0.0000000000000000e+00  -9.1835908563492688e-09 -2.7573618495094731e-09 0.0000000000000000e+00  -9.3557203236394866e-09 -1.2433717044707927e-09 0.0000000000000000e+00  -9.4117636428836429e-09 2.2325651087581713e-10 0.0000000000000000e+00  -9.3623183527611896e-09 1.6738393985465536e-09 0.0000000000000000e+00  -9.1999975241818167e-09 3.1390384216845520e-09 0.0000000000000000e+00  -8.9003123225289445e-09 4.6385051729883266e-09 0.0000000000000000e+00  -8.4243151124902777e-09 6.1704645441679772e-09 0.0000000000000000e+00  -7.7246331393480638e-09 7.7018876345786847e-09 0.0000000000000000e+00  -6.7577629036156442e-09 9.1618414174963245e-09 0.0000000000000000e+00  -5.5083243011506641e-09 1.0443166524023712e-08 0.0000000000000000e+00  -4.0450197535367957e-09 1.1421255781949249e-08 0.0000000000000000e+00  -2.6931857827386888e-09 1.2028206291381742e-08 0.0000000000000000e+00  -2.7305129093786019e-09 1.2687684034277863e-08 0.0000000000000000e+00  -2.1790478674384893e-09 -1.0165615378389603e-08 0.0000000000000000e+00  -2.4813893982030081e-09 -1.0792782354072781e-08 0.0000000000000000e+00  -3.9643545075203502e-09 -1.0203579783366827e-08 0.0000000000000000e+00  -5.6296260873443919e-09 -9.2611292523838121e-09 0.0000000000000000e+00  -7.1284965581165456e-09 -8.0621681575546119e-09 0.0000000000000000e+00  -8.3650092978397819e-09 -6.7081519465822792e-09 0.0000000000000000e+00  -9.3247111834593190e-09 -5.2872601266060533e-09 0.0000000000000000e+00  -1.0026048595760682e-08 -3.8622778254194498e-09 0.0000000000000000e+00  -1.0498485473575735e-08 -2.4674907741675957e-09 0.0000000000000000e+00  -1.0770147850634828e-08 -1.1125821838893322e-09 0.0000000000000000e+00  -1.0860766912189509e-08 2.0995495650657358e-10 0.0000000000000000e+00  -1.0778197480965437e-08 1.5161933898717805e-09 0.0000000000000000e+00  -1.0517447548162804e-08 2.8220051964919092e-09 0.0000000000000000e+00  -1.0061748505163869e-08 4.1345421175772107e-09 0.0000000000000000e+00  -9.3858451311464742e-09 5.4443399095858220e-09 0.0000000000000000e+00  -8.4622660645217011e-09 6.7190151891010984e-09 0.0000000000000000e+00  -7.2719864201347601e-09 7.9005206138141546e-09 0.0000000000000000e+00  -5.8233748417029969e-09 8.9090295337489078e-09 0.0000000000000000e+00  -4.1969034344358814e-09 9.6588911594066250e-09 0.0000000000000000e+00  -2.6954564438414908e-09 1.0120167924205179e-08 0.0000000000000000e+00  -2.4381036240973408e-09 1.0805718650923729e-08 0.0000000000000000e+00  -2.0241501268930892e-09 -8.1126931880941093e-09 0.0000000000000000e+00  -2.5258522491814794e-09 -8.7716450736151852e-09 0.0000000000000000e+00  -4.1157884150505114e-09 -8.3098732253507338e-09 0.0000000000000000e+00  -5.8839127480409884e-09 -7.5713572651285901e-09 0.0000000000000000e+00  -7.5088021389652636e-09 -6.6276615185253760e-09 0.0000000000000000e+00  -8.8924302208671887e-09 -5.5491025399448456e-09 0.0000000000000000e+00  -1.0006044421640408e-08 -4.3993912693954804e-09 0.0000000000000000e+00  -1.0850014656153334e-08 -3.2274415524027349e-09 0.0000000000000000e+00  -1.1437111940280640e-08 -2.0637118312255076e-09 0.0000000000000000e+00  -1.1782799418843812e-08 -9.2149797094706486e-10 0.0000000000000000e+00  -1.1899089619362252e-08 1.9860596943775943e-10 0.0000000000000000e+00  -1.1791127324890059e-08 1.3026618809811132e-09 0.0000000000000000e+00  -1.1456096324161606e-08 2.3968114531554721e-09 0.0000000000000000e+00  -1.0884246700364898e-08 3.4808541487770723e-09 0.0000000000000000e+00  -1.0062062649213087e-08 4.5426248504222410e-09 0.0000000000000000e+00  -8.9777996283415355e-09 5.5540866194927683e-09 0.0000000000000000e+00  -7.6300552308981462e-09 6.4704707183904804e-09 0.0000000000000000e+00  -6.0425510319414560e-09 7.2342243734465230e-09 0.0000000000000000e+00  -4.3015225024257951e-09 7.7876117922821455e-09 0.0000000000000000e+00  -2.6921127778960906e-09 8.1243068431025179e-09 0.0000000000000000e+00  -2.2128623747344457e-09 8.8262530881301869e-09 0.0000000000000000e+00  -1.9125689852070909e-09 -6.0157143693883491e-09 0.0000000000000000e+00  -2.5613081941977097e-09 -6.6972062831566968e-09 0.0000000000000000e+00  -4.2285525306284564e-09 -6.3457932973747137e-09 0.0000000000000000e+00  -6.0666848354207625e-09 -5.7865916272463207e-09 0.0000000000000000e+00  -7.7757086706185871e-09 -5.0750748597868981e-09 0.0000000000000000e+00  -9.2578752495620410e-09 -4.2588381365368447e-09 0.0000000000000000e+00  -1.0475828600720647e-08 -3.3818282007483085e-09 0.0000000000000000e+00  -1.1417859380106108e-08 -2.4796440773772923e-09 0.0000000000000000e+00  -1.2084755343221451e-08 -1.5764804529536395e-09 0.0000000000000000e+00  -1.2482318700400132e-08 -6.8526957446455422e-10 0.0000000000000000e+00  -1.2616367411485083e-08 1.8977829060233855e-10 0.0000000000000000e+00  -1.2489757625971473e-08 1.0492209098841856e-09 0.0000000000000000e+00  -1.2101367029706719e-08 1.8938450181446527e-09 0.0000000000000000e+00  -1.1446991561820894e-08 2.7202040322106833e-09 0.0000000000000000e+00  -1.0522095834616755e-08 3.5168558156993438e-09 0.0000000000000000e+00  -9.3263804130889064e-09 4.2620132470256922e-09 0.0000000000000000e+00  -7.8705203645009757e-09 4.9234471381100859e-09 0.0000000000000000e+00  -6.1880409548159758e-09 5.4616569429774833e-09 0.0000000000000000e+00  -4.3681173427786917e-09 5.8394316222881819e-09 0.0000000000000000e+00  -2.6835306306902573e-09 6.0653794485784589e-09 0.0000000000000000e+00  -2.0434282419990270e-09 6.7769130643837515e-09 0.0000000000000000e+00  -1.8400341955021318e-09 -3.8890304929207508e-09 0.0000000000000000e+00  -2.5902475458989132e-09 -4.5861723521539610e-09 0.0000000000000000e+00  -4.3104493821249690e-09 -4.3348494754006574e-09 0.0000000000000000e+00  -6.1932540730323267e-09 -3.9395387870315213e-09 0.0000000000000000e+00  -7.9548046813827681e-09 -3.4450632631355048e-09 0.0000000000000000e+00  -9.4985684938643458e-09 -2.8817298117477866e-09 0.0000000000000000e+00  -1.0782334965930624e-08 -2.2772494240