<?xml version="1.0"?>
<VTKFile type="UnstructuredGrid"  version="0.1"  >
<UnstructuredGrid>
<Piece  NumberOfPoints="651" NumberOfCells="1200">
<Points>
<DataArray  type="Float64"  NumberOfComponents="3"  format="ascii">0 0 0  50000 0 0  100000 0 0  150000 0 0  200000 0 0  250000 0 0  300000 0 0  350000 0 0  400000 0 0  450000 0 0  500000 0 0  550000 0 0  600000 0 0  650000 0 0  700000 0 0  750000 0 0  800000 0 0  850000 0 0  900000 0 0  950000 0 0  1000000 0 0  0 50000 0  50000 50000 0  100000 50000 0  150000 50000 0  200000 50000 0  250000 50000 0  300000 50000 0  350000 50000 0  400000 50000 0  450000 50000 0  500000 50000 0  550000 50000 0  600000 50000 0  650000 50000 0  700000 50000 0  750000 50000 0  800000 50000 0  850000 50000 0  900000 50000 0  950000 50000 0  1000000 50000 0  0 100000 0  50000 100000 0  100000 100000 0  150000 100000 0  200000 100000 0  250000 100000 0  300000 100000 0  350000 100000 0  400000 100000 0  450000 100000 0  500000 100000 0  550000 100000 0  600000 100000 0  650000 100000 0  700000 100000 0  750000 100000 0  800000 100000 0  850000 100000 0  900000 100000 0  950000 100000 0  1000000 100000 0  0 150000 0  50000 150000 0  100000 150000 0  150000 150000 0  200000 150000 0  250000 150000 0  300000 150000 0  350000 150000 0  400000 150000 0  450000 150000 0  500000 150000 0  550000 150000 0  600000 150000 0  650000 150000 0  700000 150000 0  750000 150000 0  800000 150000 0  850000 150000 0  900000 150000 0  950000 150000 0  1000000 150000 0  0 200000 0  50000 200000 0  100000 200000 0  150000 200000 0  200000 200000 0  250000 200000 0  300000 200000 0  350000 200000 0  400000 200000 0  450000 200000 0  500000 200000 0  550000 200000 0  600000 200000 0  650000 200000 0  700000 200000 0  750000 200000 0  800000 200000 0  850000 200000 0  900000 200000 0  950000 200000 0  1000000 200000 0  0 250000 0  50000 250000 0  100000 250000 0  150000 250000 0  200000 250000 0  250000 250000 0  300000 250000 0  350000 250000 0  400000 250000 0  450000 250000 0  500000 250000 0  550000 250000 0  600000 250000 0  650000 250000 0  700000 250000 0  750000 250000 0  800000 250000 0  850000 250000 0  900000 250000 0  950000 250000 0  1000000 250000 0  0 300000 0  50000 300000 0  100000 300000 0  150000 300000 0  200000 300000 0  250000 300000 0  300000 300000 0  350000 300000 0  400000 300000 0  450000 300000 0  500000 300000 0  550000 300000 0  600000 300000 0  650000 300000 0  700000 300000 0  750000 300000 0  800000 300000 0  850000 300000 0  900000 300000 0  950000 300000 0  1000000 300000 0  0 350000 0  50000 350000 0  100000 350000 0  150000 350000 0  200000 350000 0  250000 350000 0  300000 350000 0  350000 350000 0  400000 350000 0  450000 350000 0  500000 350000 0  550000 350000 0  600000 350000 0  650000 350000 0  700000 350000 0  750000 350000 0  800000 350000 0  850000 350000 0  900000 350000 0  950000 350000 0  1000000 350000 0  0 400000 0  50000 400000 0  100000 400000 0  150000 400000 0  200000 400000 0  250000 400000 0  300000 400000 0  350000 400000 0  400000 400000 0  450000 400000 0  500000 400000 0  550000 400000 0  600000 400000 0  650000 400000 0  700000 400000 0  750000 400000 0  800000 400000 0  850000 400000 0  900000 400000 0  950000 400000 0  1000000 400000 0  0 450000 0  50000 450000 0  100000 450000 0  150000 450000 0  200000 450000 0  250000 450000 0  300000 450000 0  350000 450000 0  400000 450000 0  450000 450000 0  500000 450000 0  550000 450000 0  600000 450000 0  650000 450000 0  700000 450000 0  750000 450000 0  800000 450000 0  850000 450000 0  900000 450000 0  950000 450000 0  1000000 450000 0  0 500000 0  50000 500000 0  100000 500000 0  150000 500000 0  200000 500000 0  250000 500000 0  300000 500000 0  350000 500000 0  400000 500000 0  450000 500000 0  500000 500000 0  550000 500000 0  600000 500000 0  650000 500000 0  700000 500000 0  750000 500000 0  800000 500000 0  850000 500000 0  900000 500000 0  950000 500000 0  1000000 500000 0  0 550000 0  50000 550000 0  100000 550000 0  150000 550000 0  200000 550000 0  250000 550000 0  300000 550000 0  350000 550000 0  400000 550000 0  450000 550000 0  500000 550000 0  550000 550000 0  600000 550000 0  650000 550000 0  700000 550000 0  750000 550000 0  800000 550000 0  850000 550000 0  900000 550000 0  950000 550000 0  1000000 550000 0  0 600000 0  50000 600000 0  100000 600000 0  150000 600000 0  200000 600000 0  250000 600000 0  300000 600000 0  350000 600000 0  400000 600000 0  450000 600000 0  500000 600000 0  550000 600000 0  600000 600000 0  650000 600000 0  700000 600000 0  750000 600000 0  800000 600000 0  850000 600000 0  900000 600000 0  950000 600000 0  1000000 600000 0  0 650000 0  50000 650000 0  100000 650000 0  150000 650000 0  200000 650000 0  250000 650000 0  300000 650000 0  350000 650000 0  400000 650000 0  450000 650000 0  500000 650000 0  550000 650000 0  600000 650000 0  650000 650000 0  700000 650000 0  750000 650000 0  800000 650000 0  850000 650000 0  900000 650000 0  950000 650000 0  1000000 650000 0  0 700000 0  50000 700000 0  100000 700000 0  150000 700000 0  200000 700000 0  250000 700000 0  300000 700000 0  350000 700000 0  400000 700000 0  450000 700000 0  500000 700000 0  550000 700000 0  600000 700000 0  650000 700000 0  700000 700000 0  750000 700000 0  800000 700000 0  850000 700000 0  900000 700000 0  950000 700000 0  1000000 700000 0  0 750000 0  50000 750000 0  100000 750000 0  150000 750000 0  200000 750000 0  250000 750000 0  300000 750000 0  350000 750000 0  400000 750000 0  450000 750000 0  500000 750000 0  550000 750000 0  600000 750000 0  650000 750000 0  700000 750000 0  750000 750000 0  800000 750000 0  850000 750000 0  900000 750000 0  950000 750000 0  1000000 750000 0  0 800000 0  50000 800000 0  100000 800000 0  150000 800000 0  200000 800000 0  250000 800000 0  300000 800000 0  350000 800000 0  400000 800000 0  450000 800000 0  500000 800000 0  550000 800000 0  600000 800000 0  650000 800000 0  700000 800000 0  750000 800000 0  800000 800000 0  850000 800000 0  900000 800000 0  950000 800000 0  1000000 800000 0  0 850000 0  50000 850000 0  100000 850000 0  150000 850000 0  200000 850000 0  250000 850000 0  300000 850000 0  350000 850000 0  400000 850000 0  450000 850000 0  500000 850000 0  550000 850000 0  600000 850000 0  650000 850000 0  700000 850000 0  750000 850000 0  800000 850000 0  850000 850000 0  900000 850000 0  950000 850000 0  1000000 850000 0  0 900000 0  50000 900000 0  100000 900000 0  150000 900000 0  200000 900000 0  250000 900000 0  300000 900000 0  350000 900000 0  400000 900000 0  450000 900000 0  500000 900000 0  550000 900000 0  600000 900000 0  650000 900000 0  700000 900000 0  750000 900000 0  800000 900000 0  850000 900000 0  900000 900000 0  950000 900000 0  1000000 900000 0  0 950000 0  50000 950000 0  100000 950000 0  150000 950000 0  200000 950000 0  250000 950000 0  300000 950000 0  350000 950000 0  400000 950000 0  450000 950000 0  500000 950000 0  550000 950000 0  600000 950000 0  650000 950000 0  700000 950000 0  750000 950000 0  800000 950000 0  850000 950000 0  900000 950000 0  950000 950000 0  1000000 950000 0  0 1000000 0  50000 1000000 0  100000 1000000 0  150000 1000000 0  200000 1000000 0  250000 1000000 0  300000 1000000 0  350000 1000000 0  400000 1000000 0  450000 1000000 0  500000 1000000 0  550000 1000000 0  600000 1000000 0  650000 1000000 0  700000 1000000 0  750000 1000000 0  800000 1000000 0  850000 1000000 0  900000 1000000 0  950000 1000000 0  1000000 1000000 0  0 1050000 0  50000 1050000 0  100000 1050000 0  150000 1050000 0  200000 1050000 0  250000 1050000 0  300000 1050000 0  350000 1050000 0  400000 1050000 0  450000 1050000 0  500000 1050000 0  550000 1050000 0  600000 1050000 0  650000 1050000 0  700000 1050000 0  750000 1050000 0  800000 1050000 0  850000 1050000 0  900000 1050000 0  950000 1050000 0  1000000 1050000 0  0 1100000 0  50000 1100000 0  100000 1100000 0  150000 1100000 0  200000 1100000 0  250000 1100000 0  300000 1100000 0  350000 1100000 0  400000 1100000 0  450000 1100000 0  500000 1100000 0  550000 1100000 0  600000 1100000 0  650000 1100000 0  700000 1100000 0  750000 1100000 0  800000 1100000 0  850000 1100000 0  900000 1100000 0  950000 1100000 0  1000000 1100000 0  0 1150000 0  50000 1150000 0  100000 1150000 0  150000 1150000 0  200000 1150000 0  250000 1150000 0  300000 1150000 0  350000 1150000 0  400000 1150000 0  450000 1150000 0  500000 1150000 0  550000 1150000 0  600000 1150000 0  650000 1150000 0  700000 1150000 0  750000 1150000 0  800000 1150000 0  850000 1150000 0  900000 1150000 0  950000 1150000 0  1000000 1150000 0  0 1200000 0  50000 1200000 0  100000 1200000 0  150000 1200000 0  200000 1200000 0  250000 1200000 0  300000 1200000 0  350000 1200000 0  400000 1200000 0  450000 1200000 0  500000 1200000 0  550000 1200000 0  600000 1200000 0  650000 1200000 0  700000 1200000 0  750000 1200000 0  800000 1200000 0  850000 1200000 0  900000 1200000 0  950000 1200000 0  1000000 1200000 0  0 1250000 0  50000 1250000 0  100000 1250000 0  150000 1250000 0  200000 1250000 0  250000 1250000 0  300000 1250000 0  350000 1250000 0  400000 1250000 0  450000 1250000 0  500000 1250000 0  550000 1250000 0  600000 1250000 0  650000 1250000 0  700000 1250000 0  750000 1250000 0  800000 1250000 0  850000 1250000 0  900000 1250000 0  950000 1250000 0  1000000 1250000 0  0 1300000 0  50000 1300000 0  100000 1300000 0  150000 1300000 0  200000 1300000 0  250000 1300000 0  300000 1300000 0  350000 1300000 0  400000 1300000 0  450000 1300000 0  500000 1300000 0  550000 1300000 0  600000 1300000 0  650000 1300000 0  700000 1300000 0  750000 1300000 0  800000 1300000 0  850000 1300000 0  900000 1300000 0  950000 1300000 0  1000000 1300000 0  0 1350000 0  50000 1350000 0  100000 1350000 0  150000 1350000 0  200000 1350000 0  250000 1350000 0  300000 1350000 0  350000 1350000 0  400000 1350000 0  450000 1350000 0  500000 1350000 0  550000 1350000 0  600000 1350000 0  650000 1350000 0  700000 135
[...]
<PointData  Vectors="f_19"> 
<DataArray  type="Float64"  Name="f_19"  NumberOfComponents="3" format="ascii">-2.4238942103883506e-08 -1.0748006983163712e-08 0.0000000000000000e+00  4.8796566246820746e-08 -6.8175587670512656e-09 0.0000000000000000e+00  4.3042715363117124e-08 -2.4931612208738879e-09 0.0000000000000000e+00  4.0569276828773960e-08 -1.1051356396425331e-09 0.0000000000000000e+00  3.9348232634910232e-08 -6.1070980036834062e-10 0.0000000000000000e+00  3.8546854710045803e-08 -3.9044659142405257e-10 0.0000000000000000e+00  3.7968426801400162e-08 -2.7645355837279398e-10 0.0000000000000000e+00  3.7556224435915574e-08 -2.1126936846706527e-10 0.0000000000000000e+00  3.7292476800368857e-08 -1.7048861519448340e-10 0.0000000000000000e+00  3.7172600545719071e-08 -1.4119347435682352e-10 0.0000000000000000e+00  3.7197429859898636e-08 -1.1455451885619338e-10 0.0000000000000000e+00  3.7371439879773320e-08 -8.2460399024273650e-11 0.0000000000000000e+00  3.7704336325082668e-08 -3.4960149088462853e-11 0.0000000000000000e+00  3.8217108717092222e-08 4.3305072312576899e-11 0.0000000000000000e+00  3.8958118398090803e-08 1.8042568102853693e-10 0.0000000000000000e+00  4.0045638283910651e-08 4.3533270799738779e-10 0.0000000000000000e+00  4.1780214342518561e-08 9.4642735345752313e-10 0.0000000000000000e+00  4.4908049781688657e-08 2.0581895472262560e-09 0.0000000000000000e+00  5.0758233295435260e-08 4.5879765490307340e-09 0.0000000000000000e+00  5.8001410150031395e-08 9.1033543630974804e-09 0.0000000000000000e+00  -1.6453617021006543e-08 6.9960256788885708e-09 0.0000000000000000e+00  -1.7982856442791423e-08 -1.6286456010422017e-08 0.0000000000000000e+00  7.3309137713548531e-09 -1.1427171527397321e-08 0.0000000000000000e+00  1.8270017287815016e-08 -5.2827849389861085e-09 0.0000000000000000e+00  2.3315700638463395e-08 -2.4219234501173191e-09 0.0000000000000000e+00  2.5876418134644884e-08 -1.1657561393507694e-09 0.0000000000000000e+00  2.7316479185343357e-08 -5.7429986000710938e-10 0.0000000000000000e+00  2.8147808994041699e-08 -2.7839211567945657e-10 0.0000000000000000e+00  2.8629431689213659e-08 -1.2749532415350178e-10 0.0000000000000000e+00  2.8904493795032612e-08 -5.2551053108105794e-11 0.0000000000000000e+00  2.9052769573522499e-08 -1.6212525544539032e-11 0.0000000000000000e+00  2.9115735398284781e-08 6.0981050657190199e-12 0.0000000000000000e+00  2.9108088158964946e-08 3.4889889971569392e-11 0.0000000000000000e+00  2.9021730346016830e-08 9.2360863262917605e-11 0.0000000000000000e+00  2.8824239894704746e-08 2.0899755647580185e-10 0.0000000000000000e+00  2.8450819317050685e-08 4.3535228170906234e-10 0.0000000000000000e+00  2.7783682392374024e-08 8.6793220298766605e-10 0.0000000000000000e+00  2.6596827528303370e-08 1.7100460535776156e-09 0.0000000000000000e+00  2.4378550940456620e-08 3.4075823969588286e-09 0.0000000000000000e+00  1.9683509842106486e-08 6.8506646535507144e-09 0.0000000000000000e+00  8.2635497215351534e-09 1.3001964207324820e-08 0.0000000000000000e+00  -1.8421060561341717e-08 1.0929023137999421e-08 0.0000000000000000e+00  -1.0983042006629058e-08 -1.9850214601594534e-08 0.0000000000000000e+00  -2.1843302027845725e-10 -1.8581710432921280e-08 0.0000000000000000e+00  5.9312963803089883e-09 -1.1321534870719291e-08 0.0000000000000000e+00  1.0827635209950211e-08 -6.5230519289190373e-09 0.0000000000000000e+00  1.4632420118037659e-08 -3.7590499295972256e-09 0.0000000000000000e+00  1.7261400044232458e-08 -2.1918350983720770e-09 0.0000000000000000e+00  1.9013060629292351e-08 -1.2780012825603943e-09 0.0000000000000000e+00  2.0155580584382361e-08 -7.2537886692707693e-10 0.0000000000000000e+00  2.0868855270630041e-08 -3.7462927888841089e-10 0.0000000000000000e+00  2.1263374497202004e-08 -1.3129674770094568e-10 0.0000000000000000e+00  2.1398974066281983e-08 6.8973284998236436e-11 0.0000000000000000e+00  2.1295973027588123e-08 2.7937119897872146e-10 0.0000000000000000e+00  2.0939218751453041e-08 5.5506213333187733e-10 0.0000000000000000e+00  2.0275720967728292e-08 9.6679780218679250e-10 0.0000000000000000e+00  1.9205300275679110e-08 1.6209438196901690e-09 0.0000000000000000e+00  1.7562346919333287e-08 2.6936359220911939e-09 0.0000000000000000e+00  1.5087316436296060e-08 4.4855002596058093e-09 0.0000000000000000e+00  1.1398139019197944e-08 7.4701442012842241e-09 0.0000000000000000e+00  6.0283035391074047e-09 1.2113563440818064e-08 0.0000000000000000e+00  -1.2841658329071887e-09 1.7565941093991634e-08 0.0000000000000000e+00  -1.3251597844441330e-08 1.4677437621007296e-08 0.0000000000000000e+00  -7.2672211048572558e-09 -2.0433607586760518e-08 0.0000000000000000e+00  -1.5322383180345163e-09 -2.0046597018833974e-08 0.0000000000000000e+00  1.1646292245722646e-09 -1.5311100235077768e-08 0.0000000000000000e+00  3.9605458265601332e-09 -1.0390894659167961e-08 0.0000000000000000e+00  6.8637378168601820e-09 -6.8021034402239653e-09 0.0000000000000000e+00  9.3786090682286729e-09 -4.3921666758399022e-09 0.0000000000000000e+00  1.1312357999162369e-08 -2.7966437267599102e-09 0.0000000000000000e+00  1.2692672159187345e-08 -1.7214038806217596e-09 0.0000000000000000e+00  1.3605520143580382e-08 -9.6467257040612729e-10 0.0000000000000000e+00  1.4126275367668596e-08 -3.8788762465083937e-10 0.0000000000000000e+00  1.4302506342885045e-08 1.1196987572912510e-10 0.0000000000000000e+00  1.4151552192646038e-08 6.2274668525775668e-10 0.0000000000000000e+00  1.3660841259959616e-08 1.2331957006695735e-09 0.0000000000000000e+00  1.2788181200243342e-08 2.0484772683135532e-09 0.0000000000000000e+00  1.1463286601531962e-08 3.2076955388882448e-09 0.0000000000000000e+00  9.5967591265577494e-09 4.9018754562120865e-09 0.0000000000000000e+00  7.1133674278538176e-09 7.3745821402228714e-09 0.0000000000000000e+00  4.0436997453222514e-09 1.0834751013382068e-08 0.0000000000000000e+00  6.7999289518138656e-10 1.5090653908239450e-08 0.0000000000000000e+00  -2.6151344938846645e-09 1.8735512860152078e-08 0.0000000000000000e+00  -8.9444889639389215e-09 1.7522453765247967e-08 0.0000000000000000e+00  -5.3861012844420672e-09 -1.9802328593142395e-08 0.0000000000000000e+00  -1.8785875640128129e-09 -1.9797142004960070e-08 0.0000000000000000e+00  -9.1706716506854246e-10 -1.6749797043301108e-08 0.0000000000000000e+00  2.3692708935521720e-10 -1.2778894563605864e-08 0.0000000000000000e+00  1.8893704342459716e-09 -9.2044591362157622e-09 0.0000000000000000e+00  3.6674282766256352e-09 -6.4139128913017921e-09 0.0000000000000000e+00  5.2504517730410762e-09 -4.3418855343030187e-09 0.0000000000000000e+00  6.4968226075423734e-09 -2.8101830829555014e-09 0.0000000000000000e+00  7.3747548985166297e-09 -1.6454506619426971e-09 0.0000000000000000e+00  7.8947754966801620e-09 -7.0275784518583189e-10 0.0000000000000000e+00  8.0735118445188754e-09 1.3918175757604667e-10 0.0000000000000000e+00  7.9189215213033214e-09 9.8922966181901136e-10 0.0000000000000000e+00  7.4263006505187867e-09 1.9554247939417504e-09 0.0000000000000000e+00  6.5809900990426746e-09 3.1553382508143844e-09 0.0000000000000000e+00  5.3690443594655262e-09 4.7226809780184647e-09 0.0000000000000000e+00  3.8019211246864191e-09 6.8016262471418596e-09 0.0000000000000000e+00  1.9645490758872343e-09 9.5055189481454054e-09 0.0000000000000000e+00  8.3766767730297161e-11 1.2792297352489884e-08 0.0000000000000000e+00  -1.4765499263897319e-09 1.6210951283826136e-08 0.0000000000000000e+00  -2.7245552368455929e-09 1.8687930782473736e-08 0.0000000000000000e+00  -6.6496811806059475e-09 1.8512908939844566e-08 0.0000000000000000e+00  -4.3153237291256852e-09 -1.8631698551280519e-08 0.0000000000000000e+00  -2.0548554005756348e-09 -1.8865464409069148e-08 0.0000000000000000e+00  -2.0137231348117485e-09 -1.6788910913149338e-08 0.0000000000000000e+00  -1.9171224609205266e-09 -1.3760258766316648e-08 0.0000000000000000e+00  -1.3039165416288771e-09 -1.0618795100000564e-08 0.0000000000000000e+00  -3.5338188123245540e-10 -7.8469046002887903e-09 0.0000000000000000e+00  6.6636619114683673e-10 -5.5717207591749919e-09 0.0000000000000000e+00  1.5669436441079614e-09 -3.7466368123157941e-09 0.0000000000000000e+00  2.2497314322031532e-09 -2.2638870033392103e-09 0.0000000000000000e+00  2.6729911270894138e-09 -1.0040915506147632e-09 0.0000000000000000e+00  2.8228183595289344e-09 1.4839336716808574e-10 0.0000000000000000e+00  2.6966923382233879e-09 1.3041747784307898e-09 0.0000000000000000e+00  2.2977995045226976e-09 2.5717911658426667e-09 0.0000000000000000e+00  1.6381627167207551e-09 4.0595905969345272e-09 0.0000000000000000e+00  7.5072607075381281e-10 5.8710975232257507e-09 0.0000000000000000e+00  -2.8840823075237693e-10 8.0848614034901328e-09 0.0000000000000000e+00  -1.3306829830403686e-09 1.0704317242132252e-08 0.0000000000000000e+00  -2.1432613687515897e-09 1.3564793743537109e-08 0.0000000000000000e+00  -2.5076154939895409e-09 1.6223143097517522e-08 0.0000000000000000e+00  -2.7012897886838287e-09 1.7992802724583599e-08 0.0000000000000000e+00  -5.3000026136486698e-09 1.8274127691244377e-08 0.0000000000000000e+00  -3.6314165874667169e-09 -1.7163490919230774e-08 0.0000000000000000e+00  -2.1875737311795016e-09 -1.7561826170064158e-08 0.0000000000000000e+00  -2.6965605906882957e-09 -1.6077097607026787e-08 0.0000000000000000e+00  -3.2704519393293964e-09 -1.3763764465055882e-08 0.0000000000000000e+00  -3.4167690814863079e-09 -1.1138464524057285e-08 0.0000000000000000e+00  -3.1778862843727696e-09 -8.5994047281978060e-09 0.0000000000000000e+00  -2.7313606388358272e-09 -6.3378521942667643e-09 0.0000000000000000e+00  -2.2434157876543380e-09 -4.3927732866606891e-09 0.0000000000000000e+00  -1.8286856495869053e-09 -2.7203639367438967e-09 0.0000000000000000e+00  -1.5538319531789564e-09 -1.2399908246979778e-09 0.0000000000000000e+00  -1.4516003862191956e-09 1.4221209103258398e-10 0.0000000000000000e+00  -1.5319564846784229e-09 1.5228745466816009e-09 0.0000000000000000e+00  -1.7867238034863913e-09 2.9962591629490152e-09 0.0000000000000000e+00  -2.1874798098619843e-09 4.6486471938424229e-09 0.0000000000000000e+00  -2.6773979286056857e-09 6.5468582732104689e-09 0.0000000000000000e+00  -3.1594837859873093e-09 8.7149980526411273e-09 0.0000000000000000e+00  -3.4895968131981682e-09 1.1094800536579636e-08 0.0000000000000000e+00  -3.4982073198760599e-09 1.3494794468653106e-08 0.0000000000000000e+00  -3.1027876710775049e-09 1.5562816619790385e-08 0.0000000000000000e+00  -2.6853456425180867e-09 1.6879488886818815e-08 0.0000000000000000e+00  -4.4208258975696684e-09 1.7376747930343213e-08 0.0000000000000000e+00  -3.1584569894938853e-09 -1.5497655213153062e-08 0.0000000000000000e+00  -2.2961533441172900e-09 -1.6014365458869135e-08 0.0000000000000000e+00  -3.1699357813449069e-09 -1.4916736407917259e-08 0.0000000000000000e+00  -4.1821036280509268e-09 -1.3127090290510865e-08 0.0000000000000000e+00  -4.8629915870119410e-09 -1.0972275777144746e-08 0.0000000000000000e+00  -5.1775360869235826e-09 -8.7455966678111382e-09 0.0000000000000000e+00  -5.2255598624718896e-09 -6.6315763749640553e-09 0.0000000000000000e+00  -5.1294149983994873e-09 -4.7069319256735887e-09 0.0000000000000000e+00  -4.9903023590365519e-09 -2.9722551886259692e-09 0.0000000000000000e+00  -4.8771884110105284e-09 -1.3835146260502906e-09 0.0000000000000000e+00  -4.8288453112847206e-09 1.2562066148740078e-10 0.0000000000000000e+00  -4.8584576039761297e-09 1.6295758598033103e-09 0.0000000000000000e+00  -4.9561802852128920e-09 3.2008304169851175e-09 0.0000000000000000e+00  -5.0884194208519737e-09 4.8999227774400106e-09 0.0000000000000000e+00  -5.1947441176402559e-09 6.7618120047919781e-09 0.0000000000000000e+00  -5.1858168155890189e-09 8.7760081756666340e-09 0.0000000000000000e+00  -4.9501199971932056e-09 1.0861312194353039e-08 0.0000000000000000e+00  -4.3857926731061262e-09 1.2844470642633624e-08 0.0000000000000000e+00  -3.4963972215565112e-09 1.4467269364832942e-08 0.0000000000000000e+00  -2.6839405624715335e-09 1.5477153902049278e-08 0.0000000000000000e+00  -3.8041973478419426e-09 1.6094038812636429e-08 0.0000000000000000e+00  -2.8155077210067476e-09 -1.3688042590148388e-08 0.0000000000000000e+00  -2.3848176178777132e-09 -1.4292204804556669e-08 0.0000000000000000e+00  -3.5165727099006546e-09 -1.3464309691360074e-08 0.0000000000000000e+00  -4.8253941992491534e-09 -1.2065319764121261e-08 0.0000000000000000e+00  -5.8794321698094575e-09 -1.0310637251542506e-08 0.0000000000000000e+00  -6.6046306821448962e-09 -8.4088821392673554e-09 0.0000000000000000e+00  -7.0454953603080215e-09 -6.5135281696780500e-09 0.0000000000000000e+00  -7.2812309533279999e-09 -4.7087149798091271e-09 0.0000000000000000e+00  -7.3884552359384376e-09 -3.0192525868027534e-09 0.0000000000000000e+00  -7.4256820776319727e-09 -1.4286704131873901e-09 0.0000000000000000e+00  -7.4287462194425718e-09 1.0366653340148720e-10 0.0000000000000000e+00  -7.4106609431146516e-09 1.6287026487756840e-09 0.0000000000000000e+00  -7.3623352930847016e-09 3.1961343549366333e-09 0.0000000000000000e+00  -7.2529239501621640e-09 4.8431452814883074e-09 0.0000000000000000e+00  -7.0305357442723180e-09 6.5816632447250825e-09 0.0000000000000000e+00  -6.6260101792238824e-09 8.3837363933139995e-09 0.0000000000000000e+00  -5.9649824150582847e-09 1.0167640928601561e-08 0.0000000000000000e+00  -4.9980764598242611e-09 1.1792389241608325e-08 0.0000000000000000e+00  -3.7764069795105113e-09 1.3075114922912739e-08 0.0000000000000000e+00  -2.6894912292301069e-09 1.3866445781612645e-08 0.0000000000000000e+00  -3.3490981545421755e-09 1.4559111418077586e-08 0.0000000000000000e+00  -2.5612298082698827e-09 -1.1770837770527774e-08 0.0000000000000000e+00  -2.4560103728634630e-09 -1.2440604226791076e-08 0.0000000000000000e+00  -3.7759528690823661e-09 -1.1811918737724256e-08 0.0000000000000000e+00  -5.2904319818743288e-09 -1.0714892528628221e-08 0.0000000000000000e+00  -6.6046764082381933e-09 -9.2980853199399239e-09 0.0000000000000000e+00  -7.6267039261725713e-09 -7.7085009841554277e-09 0.0000000000000000e+00  -8.3646229949257049e-09 -6.0656035124049196e-09 0.0000000000000000e+00  -8.8626799880656898e-09 -4.4462504156977342e-09 0.0000000000000000e+00  -9.1721040029964479e-09 -2.8849635342899189e-09 0.0000000000000000e+00  -9.3362331717067916e-09 -1.3829251718112678e-09 0.0000000000000000e+00  -9.3835059702561233e-09 8.0340540999926897e-11 0.0000000000000000e+00  -9.3248171536095114e-09 1.5354636888409896e-09 0.0000000000000000e+00  -9.1530848652234923e-09 3.0124818766566460e-09 0.0000000000000000e+00  -8.8441780014945418e-09 4.5304142592361279e-09 0.0000000000000000e+00  -8.3596335384213838e-09 6.0867864214912135e-09 0.0000000000000000e+00  -7.6528013341031018e-09 7.6477568957316028e-09 0.0000000000000000e+00  -6.6813458727614179e-09 9.1414122383844358e-09 0.0000000000000000e+00  -5.4321819349155570e-09 1.0459270629016245e-08 0.0000000000000000e+00  -3.9810365339143963e-09 1.1474194692560549e-08 0.0000000000000000e+00  -2.6957664154325426e-09 1.2101647164588224e-08 0.0000000000000000e+00  -3.0016397091235568e-09 1.2846128278848536e-08 0.0000000000000000e+00  -2.3726921470844645e-09 -9.7735298495170078e-09 0.0000000000000000e+00  -2.5122525732869858e-09 -1.0492845978820283e-08 0.0000000000000000e+00  -3.9704964688976248e-09 -1.0019517353651973e-08 0.0000000000000000e+00  -5.6288352958582743e-09 -9.1658339046326209e-09 0.0000000000000000e+00  -7.1238564446332732e-09 -8.0391972097089233e-09 0.0000000000000000e+00  -8.3562588463754032e-09 -6.7430036027297819e-09 0.0000000000000000e+00  -9.3110563304720958e-09 -5.3668659506757442e-09 0.0000000000000000e+00  -1.0006605295909481e-08 -3.9748676899161257e-09 0.0000000000000000e+00  -1.0472403671999221e-08 -2.6024514890774699e-09 0.0000000000000000e+00  -1.0736682507323075e-08 -1.2602804599724165e-09 0.0000000000000000e+00  -1.0819327968186706e-08 5.8346458643337868e-11 0.0000000000000000e+00  -1.0728393880658977e-08 1.3688357351176378e-09 0.0000000000000000e+00  -1.0459145933708007e-08 2.6864856743019263e-09 0.0000000000000000e+00  -9.9951703990664151e-09 4.0179223282072940e-09 0.0000000000000000e+00  -9.3117289956560798e-09 5.3531727380782128e-09 0.0000000000000000e+00  -8.3821321225575041e-09 6.6593491061422155e-09 0.0000000000000000e+00  -7.1886065645189853e-09 7.8779030861699223e-09 0.0000000000000000e+00  -5.7419533981978310e-09 8.9284409268706881e-09 0.0000000000000000e+00  -4.1301201274434372e-09 9.7240337167056742e-09 0.0000000000000000e+00  -2.6992829307842742e-09 1.0221800127627658e-08 0.0000000000000000e+00  -2.7310487934539218e-09 1.1002512712822753e-08 0.0000000000000000e+00  -2.2364367782465259e-09 -7.7181492487615589e-09 0.0000000000000000e+00  -2.5562371343668313e-09 -8.4748802354756321e-09 0.0000000000000000e+00  -4.1149405659275182e-09 -8.1289767981326021e-09 0.0000000000000000e+00  -5.8731705114871511e-09 -7.4799703311843702e-09 0.0000000000000000e+00  -7.4922285441510798e-09 -6.6091471350902725e-09 0.0000000000000000e+00  -8.8705173234664726e-09 -5.5889346548741017e-09 0.0000000000000000e+00  -9.9786888318917529e-09 -4.4845538241679785e-09 0.0000000000000000e+00  -1.0816925844143888e-08 -3.3462014601427269e-09 0.0000000000000000e+00  -1.1397902405876476e-08 -2.2054407985456511e-09 0.0000000000000000e+00  -1.1737051722250124e-08 -1.0764904212442189e-09 0.0000000000000000e+00  -1.1846427255569381e-08 3.9306041545932096e-11 0.0000000000000000e+00  -1.1731293033508938e-08 1.1474098921795262e-09 0.0000000000000000e+00  -1.1389047869418865e-08 2.2534818639216231e-09 0.0000000000000000e+00  -1.0810286293824828e-08 3.3569370445724611e-09 0.0000000000000000e+00  -9.9820213813909656e-09 4.4453161242143154e-09 0.0000000000000000e+00  -8.8933110060183847e-09 5.4903973401508588e-09 0.0000000000000000e+00  -7.5440168558223465e-09 6.4473839180577686e-09 0.0000000000000000e+00  -5.9602877789987090e-09 7.2588726774894201e-09 0.0000000000000000e+00  -4.2359244680539983e-09 7.8670162375222795e-09 0.0000000000000000e+00  -2.6986374840057872e-09 8.2563679173124347e-09 0.0000000000000000e+00  -2.5190322731412305e-09 9.0618724385898179e-09 0.0000000000000000e+00  -2.1443013647162009e-09 -5.6227470968891157e-09 0.0000000000000000e+00  -2.5906268868128038e-09 -6.4075005344755766e-09 0.0000000000000000e+00  -4.2198862569623271e-09 -6.1709616149703301e-09 0.0000000000000000e+00  -6.0454981633823319e-09 -5.7012370713191893e-09 0.0000000000000000e+00  -7.7472063459237005e-09 -5.0623874755052841e-09 0.0000000000000000e+00  -9.2233148809065261e-09 -4.3043089077148440e-09 0.0000000000000000e+00  -1.0435740290848934e-08 -3.4725791136516806e-09 0.0000000000000000e+00  -1.1372474336512940e-08 -2.6040980717676519e-09 0.0000000000000000e+00  -1.2034093430282328e-08 -1.7241223022044749e-09 0.0000000000000000e+00  -1.2426262354237339e-08 -8.4643628163134730e-10 0.0000000000000000e+00  -1.2554751127202594e-08 2.4084206915313657e-11 0.0000000000000000e+00  -1.2422471697963442e-08 8.8749492745210829e-10 0.0000000000000000e+00  -1.2028479151759464e-08 1.7442248893394376e-09 0.0000000000000000e+00  -1.1368896325460173e-08 2.5906064532487842e-09 0.0000000000000000e+00  -1.0439707653508462e-08 3.4151262111535421e-09 0.0000000000000000e+00  -9.2413971992784494e-09 4.1961197462027804e-09 0.0000000000000000e+00  -7.7858477139080945e-09 4.9017577936575897e-09 0.0000000000000000e+00  -6.1088805355659021e-09 5.4933051370106402e-09 0.0000000000000000e+00  -4.3070219189383345e-09 5.9344222854389355e-09 0.0000000000000000e+00  -2.6936946278734231e-09 6.2282751844311767e-09 0.0000000000000000e+00  -2.3545183739382745e-09 7.0495694720460627e-09 0.0000000000000000e+00  -2.0912894050264767e-09 -3.5023586790376467e-09 0.0000000000000000e+00  -2.6178247491625456e-09 -4.3076528132216001e-09 0.0000000000000000e+00  -4.2931585974049318e-09 -4.1687597297715540e-09 0.0000000000000000e+00  -6.1611762774522233e-09 -3.8618863743652637e-09 0.0000000000000000e+00  -7.9144352240571108e-09 -3.4390466469715270e-09 0.0000000000000000e+00  -9.4519556810007267e-09 -2.9329959721000914e-09 0.0000000000000000e+00  -1.0730599593526374e-08 -2.3731844991908