<?xml version="1.0"?>
<VTKFile type="UnstructuredGrid"  version="0.1"  >
<UnstructuredGrid>
<Piece  NumberOfPoints="651" NumberOfCells="1200">
<Points>
<DataArray  type="Float64"  NumberOfComponents="3"  format="ascii">0 0 0  50000 0 0  100000 0 0  150000 0 0  200000 0 0  250000 0 0  300000 0 0  350000 0 0  400000 0 0  450000 0 0  500000 0 0  550000 0 0  600000 0 0  650000 0 0  700000 0 0  750000 0 0  800000 0 0  850000 0 0  900000 0 0  950000 0 0  1000000 0 0  0 50000 0  50000 50000 0  100000 50000 0  150000 50000 0  200000 50000 0  250000 50000 0  300000 50000 0  350000 50000 0  400000 50000 0  450000 50000 0  500000 50000 0  550000 50000 0  600000 50000 0  650000 50000 0  700000 50000 0  750000 50000 0  800000 50000 0  850000 50000 0  900000 50000 0  950000 50000 0  1000000 50000 0  0 100000 0  50000 100000 0  100000 100000 0  150000 100000 0  200000 100000 0  250000 100000 0  300000 100000 0  350000 100000 0  400000 100000 0  450000 100000 0  500000 100000 0  550000 100000 0  600000 100000 0  650000 100000 0  700000 100000 0  750000 100000 0  800000 100000 0  850000 100000 0  900000 100000 0  950000 100000 0  1000000 100000 0  0 150000 0  50000 150000 0  100000 150000 0  150000 150000 0  200000 150000 0  250000 150000 0  300000 150000 0  350000 150000 0  400000 150000 0  450000 150000 0  500000 150000 0  550000 150000 0  600000 150000 0  650000 150000 0  700000 150000 0  750000 150000 0  800000 150000 0  850000 150000 0  900000 150000 0  950000 150000 0  1000000 150000 0  0 200000 0  50000 200000 0  100000 200000 0  150000 200000 0  200000 200000 0  250000 200000 0  300000 200000 0  350000 200000 0  400000 200000 0  450000 200000 0  500000 200000 0  550000 200000 0  600000 200000 0  650000 200000 0  700000 200000 0  750000 200000 0  800000 200000 0  850000 200000 0  900000 200000 0  950000 200000 0  1000000 200000 0  0 250000 0  50000 250000 0  100000 250000 0  150000 250000 0  200000 250000 0  250000 250000 0  300000 250000 0  350000 250000 0  400000 250000 0  450000 250000 0  500000 250000 0  550000 250000 0  600000 250000 0  650000 250000 0  700000 250000 0  750000 250000 0  800000 250000 0  850000 250000 0  900000 250000 0  950000 250000 0  1000000 250000 0  0 300000 0  50000 300000 0  100000 300000 0  150000 300000 0  200000 300000 0  250000 300000 0  300000 300000 0  350000 300000 0  400000 300000 0  450000 300000 0  500000 300000 0  550000 300000 0  600000 300000 0  650000 300000 0  700000 300000 0  750000 300000 0  800000 300000 0  850000 300000 0  900000 300000 0  950000 300000 0  1000000 300000 0  0 350000 0  50000 350000 0  100000 350000 0  150000 350000 0  200000 350000 0  250000 350000 0  300000 350000 0  350000 350000 0  400000 350000 0  450000 350000 0  500000 350000 0  550000 350000 0  600000 350000 0  650000 350000 0  700000 350000 0  750000 350000 0  800000 350000 0  850000 350000 0  900000 350000 0  950000 350000 0  1000000 350000 0  0 400000 0  50000 400000 0  100000 400000 0  150000 400000 0  200000 400000 0  250000 400000 0  300000 400000 0  350000 400000 0  400000 400000 0  450000 400000 0  500000 400000 0  550000 400000 0  600000 400000 0  650000 400000 0  700000 400000 0  750000 400000 0  800000 400000 0  850000 400000 0  900000 400000 0  950000 400000 0  1000000 400000 0  0 450000 0  50000 450000 0  100000 450000 0  150000 450000 0  200000 450000 0  250000 450000 0  300000 450000 0  350000 450000 0  400000 450000 0  450000 450000 0  500000 450000 0  550000 450000 0  600000 450000 0  650000 450000 0  700000 450000 0  750000 450000 0  800000 450000 0  850000 450000 0  900000 450000 0  950000 450000 0  1000000 450000 0  0 500000 0  50000 500000 0  100000 500000 0  150000 500000 0  200000 500000 0  250000 500000 0  300000 500000 0  350000 500000 0  400000 500000 0  450000 500000 0  500000 500000 0  550000 500000 0  600000 500000 0  650000 500000 0  700000 500000 0  750000 500000 0  800000 500000 0  850000 500000 0  900000 500000 0  950000 500000 0  1000000 500000 0  0 550000 0  50000 550000 0  100000 550000 0  150000 550000 0  200000 550000 0  250000 550000 0  300000 550000 0  350000 550000 0  400000 550000 0  450000 550000 0  500000 550000 0  550000 550000 0  600000 550000 0  650000 550000 0  700000 550000 0  750000 550000 0  800000 550000 0  850000 550000 0  900000 550000 0  950000 550000 0  1000000 550000 0  0 600000 0  50000 600000 0  100000 600000 0  150000 600000 0  200000 600000 0  250000 600000 0  300000 600000 0  350000 600000 0  400000 600000 0  450000 600000 0  500000 600000 0  550000 600000 0  600000 600000 0  650000 600000 0  700000 600000 0  750000 600000 0  800000 600000 0  850000 600000 0  900000 600000 0  950000 600000 0  1000000 600000 0  0 650000 0  50000 650000 0  100000 650000 0  150000 650000 0  200000 650000 0  250000 650000 0  300000 650000 0  350000 650000 0  400000 650000 0  450000 650000 0  500000 650000 0  550000 650000 0  600000 650000 0  650000 650000 0  700000 650000 0  750000 650000 0  800000 650000 0  850000 650000 0  900000 650000 0  950000 650000 0  1000000 650000 0  0 700000 0  50000 700000 0  100000 700000 0  150000 700000 0  200000 700000 0  250000 700000 0  300000 700000 0  350000 700000 0  400000 700000 0  450000 700000 0  500000 700000 0  550000 700000 0  600000 700000 0  650000 700000 0  700000 700000 0  750000 700000 0  800000 700000 0  850000 700000 0  900000 700000 0  950000 700000 0  1000000 700000 0  0 750000 0  50000 750000 0  100000 750000 0  150000 750000 0  200000 750000 0  250000 750000 0  300000 750000 0  350000 750000 0  400000 750000 0  450000 750000 0  500000 750000 0  550000 750000 0  600000 750000 0  650000 750000 0  700000 750000 0  750000 750000 0  800000 750000 0  850000 750000 0  900000 750000 0  950000 750000 0  1000000 750000 0  0 800000 0  50000 800000 0  100000 800000 0  150000 800000 0  200000 800000 0  250000 800000 0  300000 800000 0  350000 800000 0  400000 800000 0  450000 800000 0  500000 800000 0  550000 800000 0  600000 800000 0  650000 800000 0  700000 800000 0  750000 800000 0  800000 800000 0  850000 800000 0  900000 800000 0  950000 800000 0  1000000 800000 0  0 850000 0  50000 850000 0  100000 850000 0  150000 850000 0  200000 850000 0  250000 850000 0  300000 850000 0  350000 850000 0  400000 850000 0  450000 850000 0  500000 850000 0  550000 850000 0  600000 850000 0  650000 850000 0  700000 850000 0  750000 850000 0  800000 850000 0  850000 850000 0  900000 850000 0  950000 850000 0  1000000 850000 0  0 900000 0  50000 900000 0  100000 900000 0  150000 900000 0  200000 900000 0  250000 900000 0  300000 900000 0  350000 900000 0  400000 900000 0  450000 900000 0  500000 900000 0  550000 900000 0  600000 900000 0  650000 900000 0  700000 900000 0  750000 900000 0  800000 900000 0  850000 900000 0  900000 900000 0  950000 900000 0  1000000 900000 0  0 950000 0  50000 950000 0  100000 950000 0  150000 950000 0  200000 950000 0  250000 950000 0  300000 950000 0  350000 950000 0  400000 950000 0  450000 950000 0  500000 950000 0  550000 950000 0  600000 950000 0  650000 950000 0  700000 950000 0  750000 950000 0  800000 950000 0  850000 950000 0  900000 950000 0  950000 950000 0  1000000 950000 0  0 1000000 0  50000 1000000 0  100000 1000000 0  150000 1000000 0  200000 1000000 0  250000 1000000 0  300000 1000000 0  350000 1000000 0  400000 1000000 0  450000 1000000 0  500000 1000000 0  550000 1000000 0  600000 1000000 0  650000 1000000 0  700000 1000000 0  750000 1000000 0  800000 1000000 0  850000 1000000 0  900000 1000000 0  950000 1000000 0  1000000 1000000 0  0 1050000 0  50000 1050000 0  100000 1050000 0  150000 1050000 0  200000 1050000 0  250000 1050000 0  300000 1050000 0  350000 1050000 0  400000 1050000 0  450000 1050000 0  500000 1050000 0  550000 1050000 0  600000 1050000 0  650000 1050000 0  700000 1050000 0  750000 1050000 0  800000 1050000 0  850000 1050000 0  900000 1050000 0  950000 1050000 0  1000000 1050000 0  0 1100000 0  50000 1100000 0  100000 1100000 0  150000 1100000 0  200000 1100000 0  250000 1100000 0  300000 1100000 0  350000 1100000 0  400000 1100000 0  450000 1100000 0  500000 1100000 0  550000 1100000 0  600000 1100000 0  650000 1100000 0  700000 1100000 0  750000 1100000 0  800000 1100000 0  850000 1100000 0  900000 1100000 0  950000 1100000 0  1000000 1100000 0  0 1150000 0  50000 1150000 0  100000 1150000 0  150000 1150000 0  200000 1150000 0  250000 1150000 0  300000 1150000 0  350000 1150000 0  400000 1150000 0  450000 1150000 0  500000 1150000 0  550000 1150000 0  600000 1150000 0  650000 1150000 0  700000 1150000 0  750000 1150000 0  800000 1150000 0  850000 1150000 0  900000 1150000 0  950000 1150000 0  1000000 1150000 0  0 1200000 0  50000 1200000 0  100000 1200000 0  150000 1200000 0  200000 1200000 0  250000 1200000 0  300000 1200000 0  350000 1200000 0  400000 1200000 0  450000 1200000 0  500000 1200000 0  550000 1200000 0  600000 1200000 0  650000 1200000 0  700000 1200000 0  750000 1200000 0  800000 1200000 0  850000 1200000 0  900000 1200000 0  950000 1200000 0  1000000 1200000 0  0 1250000 0  50000 1250000 0  100000 1250000 0  150000 1250000 0  200000 1250000 0  250000 1250000 0  300000 1250000 0  350000 1250000 0  400000 1250000 0  450000 1250000 0  500000 1250000 0  550000 1250000 0  600000 1250000 0  650000 1250000 0  700000 1250000 0  750000 1250000 0  800000 1250000 0  850000 1250000 0  900000 1250000 0  950000 1250000 0  1000000 1250000 0  0 1300000 0  50000 1300000 0  100000 1300000 0  150000 1300000 0  200000 1300000 0  250000 1300000 0  300000 1300000 0  350000 1300000 0  400000 1300000 0  450000 1300000 0  500000 1300000 0  550000 1300000 0  600000 1300000 0  650000 1300000 0  700000 1300000 0  750000 1300000 0  800000 1300000 0  850000 1300000 0  900000 1300000 0  950000 1300000 0  1000000 1300000 0  0 1350000 0  50000 1350000 0  100000 1350000 0  150000 1350000 0  200000 1350000 0  250000 1350000 0  300000 1350000 0  350000 1350000 0  400000 1350000 0  450000 1350000 0  500000 1350000 0  550000 1350000 0  600000 1350000 0  650000 1350000 0  700000 135
[...]
<PointData  Vectors="f_19"> 
<DataArray  type="Float64"  Name="f_19"  NumberOfComponents="3" format="ascii">-2.4490960176722212e-08 -1.0122509279109178e-08 0.0000000000000000e+00  4.8584404297740376e-08 -6.2156345025252064e-09 0.0000000000000000e+00  4.2882695931942243e-08 -1.9370296350420361e-09 0.0000000000000000e+00  4.0451488097544836e-08 -5.9385228103414388e-10 0.0000000000000000e+00  3.9267319892519135e-08 -1.4117814146145744e-10 0.0000000000000000e+00  3.8497855997216516e-08 3.8668885488696784e-11 0.0000000000000000e+00  3.7946541844197741e-08 1.1289463999992690e-10 0.0000000000000000e+00  3.7556717358521514e-08 1.3892593217799739e-10 0.0000000000000000e+00  3.7310695438117503e-08 1.4142553546427803e-10 0.0000000000000000e+00  3.7204082918194111e-08 1.3372521287383509e-10 0.0000000000000000e+00  3.7238050369685804e-08 1.2514359366486929e-10 0.0000000000000000e+00  3.7417565809029042e-08 1.2429165704292205e-10 0.0000000000000000e+00  3.7752973137977897e-08 1.4157948183816360e-10 0.0000000000000000e+00  3.8266017808436642e-08 1.9274986842420219e-10 0.0000000000000000e+00  3.9005898080908990e-08 3.0618639783333004e-10 0.0000000000000000e+00  4.0091768694095423e-08 5.4102667627137021e-10 0.0000000000000000e+00  4.1825079196940283e-08 1.0358148349929389e-09 0.0000000000000000e+00  4.4952950772351617e-08 2.1351528514947688e-09 0.0000000000000000e+00  5.0805270106382372e-08 4.6565362544867105e-09 0.0000000000000000e+00  5.8052436018348530e-08 9.1674136423766015e-09 0.0000000000000000e+00  -1.6400652607065556e-08 7.0618974573008733e-09 0.0000000000000000e+00  -1.8264570686904588e-08 -1.5683541680183040e-08 0.0000000000000000e+00  7.1949962418260515e-09 -1.1234410168614475e-08 0.0000000000000000e+00  1.8062522594653910e-08 -5.2410132698518323e-09 0.0000000000000000e+00  2.3143024267289712e-08 -2.3898966239388674e-09 0.0000000000000000e+00  2.5755959991769020e-08 -1.1359876728956635e-09 0.0000000000000000e+00  2.7238726285164370e-08 -5.4484035634502947e-10 0.0000000000000000e+00  2.8104624075368821e-08 -2.4867441171131088e-10 0.0000000000000000e+00  2.8614042408434811e-08 -9.7435741380257078e-11 0.0000000000000000e+00  2.8910681637652644e-08 -2.2153764411486085e-11 0.0000000000000000e+00  2.9074841300367313e-08 1.4476442671121026e-11 0.0000000000000000e+00  2.9148564769673324e-08 3.6972436171704555e-11 0.0000000000000000e+00  2.9147150322149167e-08 6.5774806915238349e-11 0.0000000000000000e+00  2.9063138773592793e-08 1.2302283868542393e-10 0.0000000000000000e+00  2.8864775872579039e-08 2.3917230407440319e-10 0.0000000000000000e+00  2.8487939197282054e-08 4.6479275310169057e-10 0.0000000000000000e+00  2.7815486866027728e-08 8.9648513992090265e-10 0.0000000000000000e+00  2.6621992683896396e-08 1.7377776671379025e-09 0.0000000000000000e+00  2.4396418395310878e-08 3.4349224284451331e-09 0.0000000000000000e+00  1.9695284567052126e-08 6.8784602106030128e-09 0.0000000000000000e+00  8.2729274101928577e-09 1.3032764885254435e-08 0.0000000000000000e+00  -1.8369883677909820e-08 1.0991574582243683e-08 0.0000000000000000e+00  -1.1302542320967464e-08 -1.9299815665074244e-08 0.0000000000000000e+00  -2.9222000936143714e-10 -1.8404724746073985e-08 0.0000000000000000e+00  5.7929286738732214e-09 -1.1369356363606727e-08 0.0000000000000000e+00  1.0664485143202549e-08 -6.6060471337319281e-09 0.0000000000000000e+00  1.4482288227859917e-08 -3.8431977069677950e-09 0.0000000000000000e+00  1.7138404859591806e-08 -2.2680220053033498e-09 0.0000000000000000e+00  1.8917875282227342e-08 -1.3434592025600710e-09 0.0000000000000000e+00  2.0085007650152109e-08 -7.7955240247086252e-10 0.0000000000000000e+00  2.0818821955385060e-08 -4.1768881952601305e-10 0.0000000000000000e+00  2.1229742790638330e-08 -1.6370228975065778e-10 0.0000000000000000e+00  2.1377847468514039e-08 4.6561063871192798e-11 0.0000000000000000e+00  2.1283831775598384e-08 2.6610813532210417e-10 0.0000000000000000e+00  2.0932979247675117e-08 5.4994270226026047e-10 0.0000000000000000e+00  2.0272762969612272e-08 9.6870289005680852e-10 0.0000000000000000e+00  1.9203479145232859e-08 1.6287228601145540e-09 0.0000000000000000e+00  1.7559999762378343e-08 2.7062339952327543e-09 0.0000000000000000e+00  1.5083291514166248e-08 4.5021428369738521e-09 0.0000000000000000e+00  1.1391953288314283e-08 7.4905685297814390e-09 0.0000000000000000e+00  6.0208914661378255e-09 1.2138334001964481e-08 0.0000000000000000e+00  -1.2895532925749259e-09 1.7591750936053254e-08 0.0000000000000000e+00  -1.3205712145828043e-08 1.4732869685306936e-08 0.0000000000000000e+00  -7.6166245606201486e-09 -1.9936062078809266e-08 0.0000000000000000e+00  -1.5685125658293304e-09 -1.9813245374973190e-08 0.0000000000000000e+00  1.1078345445263257e-09 -1.5321069561850977e-08 0.0000000000000000e+00  3.8636554468877388e-09 -1.0480172126640247e-08 0.0000000000000000e+00  6.7496431541663909e-09 -6.9109848436654864e-09 0.0000000000000000e+00  9.2673647064734493e-09 -4.4986972286105153e-09 0.0000000000000000e+00  1.1213327356232391e-08 -2.8923201542139052e-09 0.0000000000000000e+00  1.2608708100179659e-08 -1.8030825871899983e-09 0.0000000000000000e+00  1.3536320139021363e-08 -1.0315080720409281e-09 0.0000000000000000e+00  1.4070167082588862e-08 -4.4008731132571925e-10 0.0000000000000000e+00  1.4257296542712349e-08 7.3638912899846590e-11 0.0000000000000000e+00  1.4114935991577700e-08 5.9715947828656422e-10 0.0000000000000000e+00  1.3630610848625369e-08 1.2189736454810510e-09 0.0000000000000000e+00  1.2762343010557121e-08 2.0440720310170712e-09 0.0000000000000000e+00  1.1440142564833398e-08 3.2114850606167822e-09 0.0000000000000000e+00  9.5749881649841850e-09 4.9122874280472960e-09 0.0000000000000000e+00  7.0921491338645438e-09 7.3902448750378098e-09 0.0000000000000000e+00  4.0229889551339755e-09 1.0854603461027157e-08 0.0000000000000000e+00  6.6161440060697935e-10 1.5113610014863963e-08 0.0000000000000000e+00  -2.6278100791368989e-09 1.8752163051474868e-08 0.0000000000000000e+00  -8.9080026224182376e-09 1.7567626729602598e-08 0.0000000000000000e+00  -5.7580236078597952e-09 -1.9356763114932775e-08 0.0000000000000000e+00  -1.8996961826978900e-09 -1.9540941949442040e-08 0.0000000000000000e+00  -9.2328287779642926e-10 -1.6712175395300649e-08 0.0000000000000000e+00  1.9942632070279878e-10 -1.2841035289744734e-08 0.0000000000000000e+00  1.8242765321897978e-09 -9.3065637724629276e-09 0.0000000000000000e+00  3.5891391734367527e-09 -6.5256022879303312e-09 0.0000000000000000e+00  5.1700006988422527e-09 -4.4483785095125996e-09 0.0000000000000000e+00  6.4204659697625420e-09 -2.9045810366621393e-09 0.0000000000000000e+00  7.3053504899651469e-09 -1.7248383737024118e-09 0.0000000000000000e+00  7.8331328436852055e-09 -7.6628669892319699e-10 0.0000000000000000e+00  8.0193038332709113e-09 9.1222332771833439e-11 0.0000000000000000e+00  7.8712378976716135e-09 9.5586745179207867e-10 0.0000000000000000e+00  7.3839793090346471e-09 1.9352432537427166e-09 0.0000000000000000e+00  6.5428295409234279e-09 3.1466223111800763e-09 0.0000000000000000e+00  5.3339654617397812e-09 4.7235284993933408e-09 0.0000000000000000e+00  3.7691271787400741e-09 6.8100479781407587e-09 0.0000000000000000e+00  1.9337342599509044e-09 9.5195141905176655e-09 0.0000000000000000e+00  5.5480176665033706e-11 1.2809777037275151e-08 0.0000000000000000e+00  -1.4998759467870772e-09 1.6228949066689464e-08 0.0000000000000000e+00  -2.7417201109481994e-09 1.8692508870489529e-08 0.0000000000000000e+00  -6.6263111228813865e-09 1.8545982170652827e-08 0.0000000000000000e+00  -4.7037951760834874e-09 -1.8236960430785545e-08 0.0000000000000000e+00  -2.0696339488884455e-09 -1.8613091527874548e-08 0.0000000000000000e+00  -1.9893131762980124e-09 -1.6718759330951031e-08 0.0000000000000000e+00  -1.9111337677148605e-09 -1.3790902996104226e-08 0.0000000000000000e+00  -1.3247101050227816e-09 -1.0701019468054783e-08 0.0000000000000000e+00  -3.9420628694809189e-10 -7.9496175752618094e-09 0.0000000000000000e+00  6.1405266182489487e-10 -5.6767807727010725e-09 0.0000000000000000e+00  1.5098250906625053e-09 -3.8440353204332926e-09 0.0000000000000000e+00  2.1921742810772794e-09 -2.3484781581433392e-09 0.0000000000000000e+00  2.6174953452536429e-09 -1.0735890396627135e-09 0.0000000000000000e+00  2.7705846675875477e-09 9.4567492885043308e-11 0.0000000000000000e+00  2.6480853177983723e-09 1.2655334068011660e-09 0.0000000000000000e+00  2.2526875984835162e-09 2.5471432620805991e-09 0.0000000000000000e+00  1.5961718068498446e-09 4.0472509558587387e-09 0.0000000000000000e+00  7.1145138586402471e-10 5.8690144717163928e-09 0.0000000000000000e+00  -3.2519056811192080e-10 8.0906907647973539e-09 0.0000000000000000e+00  -1.3647630139649897e-09 1.0715426447309787e-08 0.0000000000000000e+00  -2.1736368639187578e-09 1.3578053717758573e-08 0.0000000000000000e+00  -2.5317684541653608e-09 1.6233931473621939e-08 0.0000000000000000e+00  -2.7212588622652044e-09 1.7983522894685142e-08 0.0000000000000000e+00  -5.2933866864947882e-09 1.8294167189054424e-08 0.0000000000000000e+00  -4.0310550766264013e-09 -1.6818194454584078e-08 0.0000000000000000e+00  -2.1999797289546843e-09 -1.7327254775425068e-08 0.0000000000000000e+00  -2.6532672985547519e-09 -1.5990177005146000e-08 0.0000000000000000e+00  -3.2342405671495774e-09 -1.3768617211408579e-08 0.0000000000000000e+00  -3.4022705718523754e-09 -1.1197957751087767e-08 0.0000000000000000e+00  -3.1843631748364508e-09 -8.6861887647466821e-09 0.0000000000000000e+00  -2.7538124900391907e-09 -6.4335400058759334e-09 0.0000000000000000e+00  -2.2764351747070223e-09 -4.4858308924866576e-09 0.0000000000000000e+00  -1.8678071588267826e-09 -2.8040210603110780e-09 0.0000000000000000e+00  -1.5958105988102604e-09 -1.3106351784703929e-09 0.0000000000000000e+00  -1.4942800281829657e-09 8.6124217674747453e-11 0.0000000000000000e+00  -1.5740233597989457e-09 1.4815082884802254e-09 0.0000000000000000e+00  -1.8274567736861979e-09 2.9688208676166780e-09 0.0000000000000000e+00  -2.2265227793749929e-09 4.6336313781824424e-09 0.0000000000000000e+00  -2.7145449288211678e-09 6.5421824639367676e-09 0.0000000000000000e+00  -3.1944559106395814e-09 8.7180533890620133e-09 0.0000000000000000e+00  -3.5217890086354461e-09 1.1102404991572427e-08 0.0000000000000000e+00  -3.5263937071793750e-09 1.3502912481145562e-08 0.0000000000000000e+00  -3.1247734188800596e-09 1.5565461472125344e-08 0.0000000000000000e+00  -2.7070504364114307e-09 1.6856058262600408e-08 0.0000000000000000e+00  -4.4344744319948341e-09 1.7383653173165554e-08 0.0000000000000000e+00  -3.5641281301219412e-09 -1.5200213592374611e-08 0.0000000000000000e+00  -2.3080094816872490e-09 -1.5805289805290529e-08 0.0000000000000000e+00  -3.1149591547866397e-09 -1.4824584939848715e-08 0.0000000000000000e+00  -4.1253752051747338e-09 -1.3113892139939049e-08 0.0000000000000000e+00  -4.8220025846630475e-09 -1.1011156787058657e-08 0.0000000000000000e+00  -5.1554585011065346e-09 -8.8144093852030857e-09 0.0000000000000000e+00  -5.2205310792249084e-09 -6.7136927819856956e-09 0.0000000000000000e+00  -5.1378515999449843e-09 -4.7907857288447417e-09 0.0000000000000000e+00  -5.0084469857066022e-09 -3.0503254940079309e-09 0.0000000000000000e+00  -4.9017803194282443e-09 -1.4512811650897078e-09 0.0000000000000000e+00  -4.8573253076137132e-09 7.0524307561723546e-11 0.0000000000000000e+00  -4.8889479815128532e-09 1.5879693863839206e-09 0.0000000000000000e+00  -4.9873683007533169e-09 3.1723876580373142e-09 0.0000000000000000e+00  -5.1194014902821465e-09 4.8834146914051671e-09 0.0000000000000000e+00  -5.2248484743877099e-09 6.7552308851577452e-09 0.0000000000000000e+00  -5.2144045565538805e-09 8.7765940726934621e-09 0.0000000000000000e+00  -4.9763632940440855e-09 1.0865470509652085e-08 0.0000000000000000e+00  -4.4084689125290941e-09 1.2847450702021776e-08 0.0000000000000000e+00  -3.5139449416441812e-09 1.4462001040975288e-08 0.0000000000000000e+00  -2.7066237229286159e-09 1.5440561037190234e-08 0.0000000000000000e+00  -3.8414234202784506e-09 1.6088555474457293e-08 0.0000000000000000e+00  -3.2222095217665295e-09 -1.3436633063569884e-08 0.0000000000000000e+00  -2.3969209217564680e-09 -1.4112909769030950e-08 0.0000000000000000e+00  -3.4545567651101003e-09 -1.3374827307241157e-08 0.0000000000000000e+00  -4.7551623631422901e-09 -1.2041092919003101e-08 0.0000000000000000e+00  -5.8194117779721534e-09 -1.0332853486554078e-08 0.0000000000000000e+00  -6.5602427743890367e-09 -8.4605529976834214e-09 0.0000000000000000e+00  -7.0171860874651604e-09 -6.5806926546064968e-09 0.0000000000000000e+00  -7.2671396346509545e-09 -4.7807884947473629e-09 0.0000000000000000e+00  -7.3858276017856145e-09 -3.0887462323421256e-09 0.0000000000000000e+00  -7.4316648663999002e-09 -1.4906533150621374e-09 0.0000000000000000e+00  -7.4407850295321465e-09 5.2116521973708567e-11 0.0000000000000000e+00  -7.4266536082622965e-09 1.5889499248515750e-09 0.0000000000000000e+00  -7.3806445813029563e-09 3.1683085165655819e-09 0.0000000000000000e+00  -7.2723105905879000e-09 4.8263417377664705e-09 0.0000000000000000e+00  -7.0500422046564086e-09 6.5740364974738838e-09 0.0000000000000000e+00  -6.6448089279589806e-09 8.3824962381508168e-09 0.0000000000000000e+00  -5.9822038302430788e-09 1.0168938725880015e-08 0.0000000000000000e+00  -5.0127027322375490e-09 1.1790964052954925e-08 0.0000000000000000e+00  -3.7877607007967333e-09 1.3063068271550720e-08 0.0000000000000000e+00  -2.7125570443168054e-09 1.3818706053840493e-08 0.0000000000000000e+00  -3.4129269073027504e-09 1.4542839981476425e-08 0.0000000000000000e+00  -2.9640583846526631e-09 -1.1563340058065811e-08 0.0000000000000000e+00  -2.4686855356774627e-09 -1.2293175712246893e-08 0.0000000000000000e+00  -3.7101265885158124e-09 -1.1730377539741730e-08 0.0000000000000000e+00  -5.2119034328830188e-09 -1.0685276058026026e-08 0.0000000000000000e+00  -6.5317277247282197e-09 -9.3078705835856163e-09 0.0000000000000000e+00  -7.5658572890374024e-09 -7.7452687216446867e-09 0.0000000000000000e+00  -8.3178243258131957e-09 -6.1182774903428935e-09 0.0000000000000000e+00  -8.8294284664111965e-09 -4.5057672517033156e-09 0.0000000000000000e+00  -9.1506270913905989e-09 -2.9444184762659180e-09 0.0000000000000000e+00  -9.3242532733584623e-09 -1.4374091344361799e-09 0.0000000000000000e+00  -9.3787140197494804e-09 3.4019837913179678e-11 0.0000000000000000e+00  -9.3251325165783605e-09 1.4990579260565747e-09 0.0000000000000000e+00  -9.1567693859614246e-09 2.9865174950129998e-09 0.0000000000000000e+00  -8.8498535375294485e-09 4.5143251737369289e-09 0.0000000000000000e+00  -8.3662340300211427e-09 6.0789595458085449e-09 0.0000000000000000e+00  -7.6594788778780552e-09 7.6454895367768294e-09 0.0000000000000000e+00  -6.6873571662770337e-09 9.1407635666312062e-09 0.0000000000000000e+00  -5.4368890342504633e-09 1.0454672395125694e-08 0.0000000000000000e+00  -3.9848633451850495e-09 1.1457161052031358e-08 0.0000000000000000e+00  -2.7187288057944265e-09 1.2045605555502159e-08 0.0000000000000000e+00  -3.0946960579729458e-09 1.2821505196944454e-08 0.0000000000000000e+00  -2.7668553651571887e-09 -9.6074651081953703e-09 0.0000000000000000e+00  -2.5256205314235781e-09 -1.0377817670305164e-08 0.0000000000000000e+00  -3.9033103121984903e-09 -9.9492686577687421e-09 0.0000000000000000e+00  -5.5460551230333701e-09 -9.1350956088443783e-09 0.0000000000000000e+00  -7.0429967902420005e-09 -8.0404122475392430e-09 0.0000000000000000e+00  -8.2841865090877915e-09 -6.7676273430591185e-09 0.0000000000000000e+00  -9.2505640210605755e-09 -5.4065739036006774e-09 0.0000000000000000e+00  -9.9581375649138784e-09 -4.0223163293460937e-09 0.0000000000000000e+00  -1.0434995178441146e-08 -2.6516402279496022e-09 0.0000000000000000e+00  -1.0708631563360235e-08 -1.3066324558485137e-09 0.0000000000000000e+00  -1.0798672124044492e-08 1.8052946229828313e-11 0.0000000000000000e+00  -1.0713220610300019e-08 1.3365850921891929e-09 0.0000000000000000e+00  -1.0447775049798412e-08 2.6631283701035048e-09 0.0000000000000000e+00  -9.9862412437014969e-09 4.0032291111952086e-09 0.0000000000000000e+00  -9.3042172915896344e-09 5.3458223186552240e-09 0.0000000000000000e+00  -8.3753157267957337e-09 6.6568391013148016e-09 0.0000000000000000e+00  -7.1820138332447789e-09 7.8763605133777998e-09 0.0000000000000000e+00  -5.7354772620166220e-09 8.9221918326709512e-09 0.0000000000000000e+00  -4.1254791743757424e-09 9.7042504870664381e-09 0.0000000000000000e+00  -2.7217546097791325e-09 1.0160963724011267e-08 0.0000000000000000e+00  -2.8554347443234480e-09 1.0972751044420004e-08 0.0000000000000000e+00  -2.6173031589737948e-09 -7.5906308472996413e-09 0.0000000000000000e+00  -2.5703444187600073e-09 -8.3916069963396270e-09 0.0000000000000000e+00  -4.0484080218742572e-09 -8.0719248830786329e-09 0.0000000000000000e+00  -5.7894381650877839e-09 -7.4511837969393150e-09 0.0000000000000000e+00  -7.4076654353509061e-09 -6.6050466496603301e-09 0.0000000000000000e+00  -8.7918438872874964e-09 -5.6042061275909291e-09 0.0000000000000000e+00  -9.9090575632636349e-09 -4.5133439860657448e-09 0.0000000000000000e+00  -1.0757351905041945e-08 -3.3828777437394111e-09 0.0000000000000000e+00  -1.1348002418751562e-08 -2.2450460578365770e-09 0.0000000000000000e+00  -1.1695608246466181e-08 -1.1149668159120122e-09 0.0000000000000000e+00  -1.1811828684484535e-08 5.0388780982446385e-12 0.0000000000000000e+00  -1.1701857466936402e-08 1.1194461803025339e-09 0.0000000000000000e+00  -1.1363245927015560e-08 2.2329331840565042e-09 0.0000000000000000e+00  -1.0786881079216451e-08 3.3439096093075555e-09 0.0000000000000000e+00  -9.9601420208300656e-09 4.4388378299544745e-09 0.0000000000000000e+00  -8.8724755604571397e-09 5.4882778719293167e-09 0.0000000000000000e+00  -7.5241434194244055e-09 6.4459791838421156e-09 0.0000000000000000e+00  -5.9419277463356218e-09 7.2526099569023228e-09 0.0000000000000000e+00  -4.2222591419695424e-09 7.8469907982799750e-09 0.0000000000000000e+00  -2.7203314019597624e-09 8.1947454844334964e-09 0.0000000000000000e+00  -2.6762098801132659e-09 9.0308582980971763e-09 0.0000000000000000e+00  -2.5074757621018550e-09 -5.5304499591714031e-09 0.0000000000000000e+00  -2.6055077045124234e-09 -6.3543847913812003e-09 0.0000000000000000e+00  -4.1557602176660192e-09 -6.1278877626983285e-09 0.0000000000000000e+00  -5.9636153705237343e-09 -5.6764730999069059e-09 0.0000000000000000e+00  -7.6625452024720155e-09 -5.0555740649143888e-09 0.0000000000000000e+00  -9.1421315486728481e-09 -4.3128045852943285e-09 0.0000000000000000e+00  -1.0361198183264316e-08 -3.4926772259287289e-09 0.0000000000000000e+00  -1.1305853191624323e-08 -2.6317563297407765e-09 0.0000000000000000e+00  -1.1975370054201299e-08 -1.7554440532650340e-09 0.0000000000000000e+00  -1.2374572577754941e-08 -8.7796865412372252e-10 0.0000000000000000e+00  -1.2508779571768290e-08 -4.8208176311393275e-12 0.0000000000000000e+00  -1.2380767383917161e-08 8.6334058126127387e-10 0.0000000000000000e+00  -1.1989699063860603e-08 1.7261536236281383e-09 0.0000000000000000e+00  -1.1331984017620110e-08 2.5790698912020096e-09 0.0000000000000000e+00  -1.0404015239007854e-08 3.4095650736785760e-09 0.0000000000000000e+00  -9.2067619430808810e-09 4.1947727730411052e-09 0.0000000000000000e+00  -7.7526660158631166e-09 4.9013778712160156e-09 0.0000000000000000e+00  -6.0784650047073352e-09 5.4886403301072293e-09 0.0000000000000000e+00  -4.2841532839060189e-09 5.9167819367702521e-09 0.0000000000000000e+00  -2.7144239126155687e-09 6.1702143748345210e-09 0.0000000000000000e+00  -2.5452143472121105e-09 7.0217198468772492e-09 0.0000000000000000e+00  -2.4327082792302668e-09 -3.4415130736560497e-09 0.0000000000000000e+00  -2.6335273670709714e-09 -4.2822978953402035e-09 0.0000000000000000e+00  -4.2330127802604825e-09 -4.1395513188410587e-09 0.0000000000000000e+00  -6.0835816600896405e-09 -3.8423808470868399e-09 0.0000000000000000e+00  -7.8328123137376877e-09 -3.4314989576860858e-09 0.0000000000000000e+00  -9.3718917995693133e-09 -2.9369606850015619e-09 0.0000000000000000e+00  -1.0655026297697040e-08 -2.3867794449580783e-09 