<?xml version="1.0"?>
<VTKFile type="UnstructuredGrid"  version="0.1"  >
<UnstructuredGrid>
<Piece  NumberOfPoints="651" NumberOfCells="1200">
<Points>
<DataArray  type="Float64"  NumberOfComponents="3"  format="ascii">0 0 0  50000 0 0  100000 0 0  150000 0 0  200000 0 0  250000 0 0  300000 0 0  350000 0 0  400000 0 0  450000 0 0  500000 0 0  550000 0 0  600000 0 0  650000 0 0  700000 0 0  750000 0 0  800000 0 0  850000 0 0  900000 0 0  950000 0 0  1000000 0 0  0 50000 0  50000 50000 0  100000 50000 0  150000 50000 0  200000 50000 0  250000 50000 0  300000 50000 0  350000 50000 0  400000 50000 0  450000 50000 0  500000 50000 0  550000 50000 0  600000 50000 0  650000 50000 0  700000 50000 0  750000 50000 0  800000 50000 0  850000 50000 0  900000 50000 0  950000 50000 0  1000000 50000 0  0 100000 0  50000 100000 0  100000 100000 0  150000 100000 0  200000 100000 0  250000 100000 0  300000 100000 0  350000 100000 0  400000 100000 0  450000 100000 0  500000 100000 0  550000 100000 0  600000 100000 0  650000 100000 0  700000 100000 0  750000 100000 0  800000 100000 0  850000 100000 0  900000 100000 0  950000 100000 0  1000000 100000 0  0 150000 0  50000 150000 0  100000 150000 0  150000 150000 0  200000 150000 0  250000 150000 0  300000 150000 0  350000 150000 0  400000 150000 0  450000 150000 0  500000 150000 0  550000 150000 0  600000 150000 0  650000 150000 0  700000 150000 0  750000 150000 0  800000 150000 0  850000 150000 0  900000 150000 0  950000 150000 0  1000000 150000 0  0 200000 0  50000 200000 0  100000 200000 0  150000 200000 0  200000 200000 0  250000 200000 0  300000 200000 0  350000 200000 0  400000 200000 0  450000 200000 0  500000 200000 0  550000 200000 0  600000 200000 0  650000 200000 0  700000 200000 0  750000 200000 0  800000 200000 0  850000 200000 0  900000 200000 0  950000 200000 0  1000000 200000 0  0 250000 0  50000 250000 0  100000 250000 0  150000 250000 0  200000 250000 0  250000 250000 0  300000 250000 0  350000 250000 0  400000 250000 0  450000 250000 0  500000 250000 0  550000 250000 0  600000 250000 0  650000 250000 0  700000 250000 0  750000 250000 0  800000 250000 0  850000 250000 0  900000 250000 0  950000 250000 0  1000000 250000 0  0 300000 0  50000 300000 0  100000 300000 0  150000 300000 0  200000 300000 0  250000 300000 0  300000 300000 0  350000 300000 0  400000 300000 0  450000 300000 0  500000 300000 0  550000 300000 0  600000 300000 0  650000 300000 0  700000 300000 0  750000 300000 0  800000 300000 0  850000 300000 0  900000 300000 0  950000 300000 0  1000000 300000 0  0 350000 0  50000 350000 0  100000 350000 0  150000 350000 0  200000 350000 0  250000 350000 0  300000 350000 0  350000 350000 0  400000 350000 0  450000 350000 0  500000 350000 0  550000 350000 0  600000 350000 0  650000 350000 0  700000 350000 0  750000 350000 0  800000 350000 0  850000 350000 0  900000 350000 0  950000 350000 0  1000000 350000 0  0 400000 0  50000 400000 0  100000 400000 0  150000 400000 0  200000 400000 0  250000 400000 0  300000 400000 0  350000 400000 0  400000 400000 0  450000 400000 0  500000 400000 0  550000 400000 0  600000 400000 0  650000 400000 0  700000 400000 0  750000 400000 0  800000 400000 0  850000 400000 0  900000 400000 0  950000 400000 0  1000000 400000 0  0 450000 0  50000 450000 0  100000 450000 0  150000 450000 0  200000 450000 0  250000 450000 0  300000 450000 0  350000 450000 0  400000 450000 0  450000 450000 0  500000 450000 0  550000 450000 0  600000 450000 0  650000 450000 0  700000 450000 0  750000 450000 0  800000 450000 0  850000 450000 0  900000 450000 0  950000 450000 0  1000000 450000 0  0 500000 0  50000 500000 0  100000 500000 0  150000 500000 0  200000 500000 0  250000 500000 0  300000 500000 0  350000 500000 0  400000 500000 0  450000 500000 0  500000 500000 0  550000 500000 0  600000 500000 0  650000 500000 0  700000 500000 0  750000 500000 0  800000 500000 0  850000 500000 0  900000 500000 0  950000 500000 0  1000000 500000 0  0 550000 0  50000 550000 0  100000 550000 0  150000 550000 0  200000 550000 0  250000 550000 0  300000 550000 0  350000 550000 0  400000 550000 0  450000 550000 0  500000 550000 0  550000 550000 0  600000 550000 0  650000 550000 0  700000 550000 0  750000 550000 0  800000 550000 0  850000 550000 0  900000 550000 0  950000 550000 0  1000000 550000 0  0 600000 0  50000 600000 0  100000 600000 0  150000 600000 0  200000 600000 0  250000 600000 0  300000 600000 0  350000 600000 0  400000 600000 0  450000 600000 0  500000 600000 0  550000 600000 0  600000 600000 0  650000 600000 0  700000 600000 0  750000 600000 0  800000 600000 0  850000 600000 0  900000 600000 0  950000 600000 0  1000000 600000 0  0 650000 0  50000 650000 0  100000 650000 0  150000 650000 0  200000 650000 0  250000 650000 0  300000 650000 0  350000 650000 0  400000 650000 0  450000 650000 0  500000 650000 0  550000 650000 0  600000 650000 0  650000 650000 0  700000 650000 0  750000 650000 0  800000 650000 0  850000 650000 0  900000 650000 0  950000 650000 0  1000000 650000 0  0 700000 0  50000 700000 0  100000 700000 0  150000 700000 0  200000 700000 0  250000 700000 0  300000 700000 0  350000 700000 0  400000 700000 0  450000 700000 0  500000 700000 0  550000 700000 0  600000 700000 0  650000 700000 0  700000 700000 0  750000 700000 0  800000 700000 0  850000 700000 0  900000 700000 0  950000 700000 0  1000000 700000 0  0 750000 0  50000 750000 0  100000 750000 0  150000 750000 0  200000 750000 0  250000 750000 0  300000 750000 0  350000 750000 0  400000 750000 0  450000 750000 0  500000 750000 0  550000 750000 0  600000 750000 0  650000 750000 0  700000 750000 0  750000 750000 0  800000 750000 0  850000 750000 0  900000 750000 0  950000 750000 0  1000000 750000 0  0 800000 0  50000 800000 0  100000 800000 0  150000 800000 0  200000 800000 0  250000 800000 0  300000 800000 0  350000 800000 0  400000 800000 0  450000 800000 0  500000 800000 0  550000 800000 0  600000 800000 0  650000 800000 0  700000 800000 0  750000 800000 0  800000 800000 0  850000 800000 0  900000 800000 0  950000 800000 0  1000000 800000 0  0 850000 0  50000 850000 0  100000 850000 0  150000 850000 0  200000 850000 0  250000 850000 0  300000 850000 0  350000 850000 0  400000 850000 0  450000 850000 0  500000 850000 0  550000 850000 0  600000 850000 0  650000 850000 0  700000 850000 0  750000 850000 0  800000 850000 0  850000 850000 0  900000 850000 0  950000 850000 0  1000000 850000 0  0 900000 0  50000 900000 0  100000 900000 0  150000 900000 0  200000 900000 0  250000 900000 0  300000 900000 0  350000 900000 0  400000 900000 0  450000 900000 0  500000 900000 0  550000 900000 0  600000 900000 0  650000 900000 0  700000 900000 0  750000 900000 0  800000 900000 0  850000 900000 0  900000 900000 0  950000 900000 0  1000000 900000 0  0 950000 0  50000 950000 0  100000 950000 0  150000 950000 0  200000 950000 0  250000 950000 0  300000 950000 0  350000 950000 0  400000 950000 0  450000 950000 0  500000 950000 0  550000 950000 0  600000 950000 0  650000 950000 0  700000 950000 0  750000 950000 0  800000 950000 0  850000 950000 0  900000 950000 0  950000 950000 0  1000000 950000 0  0 1000000 0  50000 1000000 0  100000 1000000 0  150000 1000000 0  200000 1000000 0  250000 1000000 0  300000 1000000 0  350000 1000000 0  400000 1000000 0  450000 1000000 0  500000 1000000 0  550000 1000000 0  600000 1000000 0  650000 1000000 0  700000 1000000 0  750000 1000000 0  800000 1000000 0  850000 1000000 0  900000 1000000 0  950000 1000000 0  1000000 1000000 0  0 1050000 0  50000 1050000 0  100000 1050000 0  150000 1050000 0  200000 1050000 0  250000 1050000 0  300000 1050000 0  350000 1050000 0  400000 1050000 0  450000 1050000 0  500000 1050000 0  550000 1050000 0  600000 1050000 0  650000 1050000 0  700000 1050000 0  750000 1050000 0  800000 1050000 0  850000 1050000 0  900000 1050000 0  950000 1050000 0  1000000 1050000 0  0 1100000 0  50000 1100000 0  100000 1100000 0  150000 1100000 0  200000 1100000 0  250000 1100000 0  300000 1100000 0  350000 1100000 0  400000 1100000 0  450000 1100000 0  500000 1100000 0  550000 1100000 0  600000 1100000 0  650000 1100000 0  700000 1100000 0  750000 1100000 0  800000 1100000 0  850000 1100000 0  900000 1100000 0  950000 1100000 0  1000000 1100000 0  0 1150000 0  50000 1150000 0  100000 1150000 0  150000 1150000 0  200000 1150000 0  250000 1150000 0  300000 1150000 0  350000 1150000 0  400000 1150000 0  450000 1150000 0  500000 1150000 0  550000 1150000 0  600000 1150000 0  650000 1150000 0  700000 1150000 0  750000 1150000 0  800000 1150000 0  850000 1150000 0  900000 1150000 0  950000 1150000 0  1000000 1150000 0  0 1200000 0  50000 1200000 0  100000 1200000 0  150000 1200000 0  200000 1200000 0  250000 1200000 0  300000 1200000 0  350000 1200000 0  400000 1200000 0  450000 1200000 0  500000 1200000 0  550000 1200000 0  600000 1200000 0  650000 1200000 0  700000 1200000 0  750000 1200000 0  800000 1200000 0  850000 1200000 0  900000 1200000 0  950000 1200000 0  1000000 1200000 0  0 1250000 0  50000 1250000 0  100000 1250000 0  150000 1250000 0  200000 1250000 0  250000 1250000 0  300000 1250000 0  350000 1250000 0  400000 1250000 0  450000 1250000 0  500000 1250000 0  550000 1250000 0  600000 1250000 0  650000 1250000 0  700000 1250000 0  750000 1250000 0  800000 1250000 0  850000 1250000 0  900000 1250000 0  950000 1250000 0  1000000 1250000 0  0 1300000 0  50000 1300000 0  100000 1300000 0  150000 1300000 0  200000 1300000 0  250000 1300000 0  300000 1300000 0  350000 1300000 0  400000 1300000 0  450000 1300000 0  500000 1300000 0  550000 1300000 0  600000 1300000 0  650000 1300000 0  700000 1300000 0  750000 1300000 0  800000 1300000 0  850000 1300000 0  900000 1300000 0  950000 1300000 0  1000000 1300000 0  0 1350000 0  50000 1350000 0  100000 1350000 0  150000 1350000 0  200000 1350000 0  250000 1350000 0  300000 1350000 0  350000 1350000 0  400000 1350000 0  450000 1350000 0  500000 1350000 0  550000 1350000 0  600000 1350000 0  650000 1350000 0  700000 135
[...]
<PointData  Vectors="f_19"> 
<DataArray  type="Float64"  Name="f_19"  NumberOfComponents="3" format="ascii">-2.4474684858649737e-08 -1.0164699694509070e-08 0.0000000000000000e+00  4.8598858841172821e-08 -6.2569735843035796e-09 0.0000000000000000e+00  4.2894348747673341e-08 -1.9765656551437645e-09 0.0000000000000000e+00  4.0460476457213402e-08 -6.3136663814394773e-10 0.0000000000000000e+00  3.9273772319816849e-08 -1.7653935084453209e-10 0.0000000000000000e+00  3.8501955791069757e-08 5.6305813513979316e-12 0.0000000000000000e+00  3.7948528887170721e-08 8.2354531990998734e-11 0.0000000000000000e+00  3.7556884915540634e-08 1.1103491366330979e-10 0.0000000000000000e+00  3.7309378728111204e-08 1.1628863586496448e-10 0.0000000000000000e+00  3.7201640969488966e-08 1.1138664862508922e-10 0.0000000000000000e+00  3.7234843739577456e-08 1.0557877460684153e-10 0.0000000000000000e+00  3.7413932958930332e-08 1.0740645562452995e-10 0.0000000000000000e+00  3.7749208440418179e-08 1.2721612901180134e-10 0.0000000000000000e+00  3.8262353842275923e-08 1.8069775250950379e-10 0.0000000000000000e+00  3.9002493878680582e-08 2.9619519341363175e-10 0.0000000000000000e+00  4.0088704065268522e-08 5.3281894356637593e-10 0.0000000000000000e+00  4.1822353504399252e-08 1.0290956332881251e-09 0.0000000000000000e+00  4.4950483528437559e-08 2.1296147938104886e-09 0.0000000000000000e+00  5.0802905938671491e-08 4.6518598346082798e-09 0.0000000000000000e+00  5.8049988760389672e-08 9.1632615958881048e-09 0.0000000000000000e+00  -1.6403115875709382e-08 7.0577303090547097e-09 0.0000000000000000e+00  -1.8247042021174727e-08 -1.5724761173484206e-08 0.0000000000000000e+00  7.2046342557774586e-09 -1.1249051892541617e-08 0.0000000000000000e+00  1.8077196545875968e-08 -5.2450197531865442e-09 0.0000000000000000e+00  2.3155821301814328e-08 -2.3927830009780011e-09 0.0000000000000000e+00  2.5765400868284760e-08 -1.1384926612467212e-09 0.0000000000000000e+00  2.7245143467758390e-08 -5.4718080343090562e-10 0.0000000000000000e+00  2.8108410913797779e-08 -2.5094474188916279e-10 0.0000000000000000e+00  2.8615592169832292e-08 -9.9688395071087958e-11 0.0000000000000000e+00  2.8910407580456432e-08 -2.4425444027979194e-11 0.0000000000000000e+00  2.9073162278103489e-08 1.2161845987204756e-11 0.0000000000000000e+00  2.9145889298869818e-08 3.4605289126657590e-11 0.0000000000000000e+00  2.9143862566274277e-08 6.3360198114238773e-11 0.0000000000000000e+00  2.9059586161414245e-08 1.2057891656462261e-10 0.0000000000000000e+00  2.8861259247749755e-08 2.3672637619855705e-10 0.0000000000000000e+00  2.8484706408821129e-08 4.6237554104155801e-10 0.0000000000000000e+00  2.7812730306947898e-08 8.9412365371975122e-10 0.0000000000000000e+00  2.6619849854833222e-08 1.7354868128471762e-09 0.0000000000000000e+00  2.4394962873822209e-08 3.4326984635162634e-09 0.0000000000000000e+00  1.9694450814467600e-08 6.8762800002108315e-09 0.0000000000000000e+00  8.2724982045657569e-09 1.3030547749451065e-08 0.0000000000000000e+00  -1.8372289274702139e-08 1.0987508695613942e-08 0.0000000000000000e+00  -1.1283314481500197e-08 -1.9338960023114400e-08 0.0000000000000000e+00  -2.8640424614681546e-10 -1.8419178448068016e-08 0.0000000000000000e+00  5.8036464898129780e-09 -1.1367782049373987e-08 0.0000000000000000e+00  1.0677117847950269e-08 -6.6011135712397288e-09 0.0000000000000000e+00  1.4494199338592379e-08 -3.8375212287320770e-09 0.0000000000000000e+00  1.7148483375391811e-08 -2.2624480729327214e-09 0.0000000000000000e+00  1.8925930514754318e-08 -1.3383451210338966e-09 0.0000000000000000e+00  2.0091164088640662e-08 -7.7507343215794679e-10 0.0000000000000000e+00  2.0823310383783174e-08 -4.1394387009177759e-10 0.0000000000000000e+00  2.1232832792101234e-08 -1.6074508956995346e-10 0.0000000000000000e+00  2.1379817064631904e-08 4.8714972380742421e-11 0.0000000000000000e+00  2.1284951085258369e-08 2.6747908159711487e-10 0.0000000000000000e+00  2.0933500812580551e-08 5.5058319954256919e-10 0.0000000000000000e+00  2.0272915182487374e-08 9.6869100838673998e-10 0.0000000000000000e+00  1.9203461035056839e-08 1.6281527272212951e-09 0.0000000000000000e+00  1.7559976145675415e-08 2.7052039465174573e-09 0.0000000000000000e+00  1.5083386822451470e-08 4.5007416421065889e-09 0.0000000000000000e+00  1.1392239283927665e-08 7.4888608271815441e-09 0.0000000000000000e+00  6.0213463173726095e-09 1.2136341542602435e-08 0.0000000000000000e+00  -1.2889811450751306e-09 1.7589792529586718e-08 0.0000000000000000e+00  -1.3207582766873467e-08 1.4728979893673252e-08 0.0000000000000000e+00  -7.5957079322978760e-09 -1.9973120755101048e-08 0.0000000000000000e+00  -1.5650688776768432e-09 -1.9832076245910721e-08 0.0000000000000000e+00  1.1135640982463706e-09 -1.5322343724404619e-08 0.0000000000000000e+00  3.8722773566035422e-09 -1.0475012917815950e-08 0.0000000000000000e+00  6.7594883951541531e-09 -6.9036425199676266e-09 0.0000000000000000e+00  9.2769859641217753e-09 -4.4909133090280212e-09 0.0000000000000000e+00  1.1221996191561347e-08 -2.8848910855482195e-09 0.0000000000000000e+00  1.2616154633560825e-08 -1.7964037686697124e-09 0.0000000000000000e+00  1.3542513645706048e-08 -1.0257839590549247e-09 0.0000000000000000e+00  1.4075193893336295e-08 -4.3541788786271506e-10 0.0000000000000000e+00  1.4261298816156543e-08 7.7222707404569279e-11 0.0000000000000000e+00  1.4118080430724420e-08 5.9967977259412169e-10 0.0000000000000000e+00  1.3633071626560995e-08 1.2204955985100929e-09 0.0000000000000000e+00  1.2764291188740584e-08 2.0446944694240500e-09 0.0000000000000000e+00  1.1441737815553439e-08 3.2113300834125405e-09 0.0000000000000000e+00  9.5763702384876962e-09 4.9114886984662231e-09 0.0000000000000000e+00  7.0934268522813788e-09 7.3889350685141914e-09 0.0000000000000000e+00  4.0242219481122909e-09 1.0852905223420305e-08 0.0000000000000000e+00  6.6275434218255700e-10 1.5111657581215936e-08 0.0000000000000000e+00  -2.6267270843862326e-09 1.8750727845724575e-08 0.0000000000000000e+00  -8.9090087767852589e-09 1.7564141143161452e-08 0.0000000000000000e+00  -5.7354826281769279e-09 -1.9391688489920061e-08 0.0000000000000000e+00  -1.8972986138285954e-09 -1.9562079374675451e-08 0.0000000000000000e+00  -9.2082309311100244e-10 -1.6716934058868276e-08 0.0000000000000000e+00  2.0424068302434558e-10 -1.2837841117870515e-08 0.0000000000000000e+00  1.8309933740978912e-09 -9.2996985020311374e-09 0.0000000000000000e+00  3.5966878110027777e-09 -6.5173800638354925e-09 0.0000000000000000e+00  5.1775590401005019e-09 -4.4400398053851839e-09 0.0000000000000000e+00  6.4275477519897791e-09 -2.8967995300489297e-09 0.0000000000000000e+00  7.3117147574222152e-09 -1.7179816520391859e-09 0.0000000000000000e+00  7.8386936378585196e-09 -7.6054673478449604e-10 0.0000000000000000e+00  8.0240681773549876e-09 9.5764250515859232e-11 0.0000000000000000e+00  7.8752675731672886e-09 9.5920719171545299e-10 0.0000000000000000e+00  7.3873676012417643e-09 1.9374344921514951e-09 0.0000000000000000e+00  6.5456858929485271e-09 3.1477631012483682e-09 0.0000000000000000e+00  5.3364032245194905e-09 4.7237501534597710e-09 0.0000000000000000e+00  3.7712511068142834e-09 6.8095050990465938e-09 0.0000000000000000e+00  1.9356247855862048e-09 9.5183768499280963e-09 0.0000000000000000e+00  5.7169435907994929e-11 1.2808234095526698e-08 0.0000000000000000e+00  -1.4984572270951351e-09 1.6227264541990884e-08 0.0000000000000000e+00  -2.7403190667606144e-09 1.8691813996438167e-08 0.0000000000000000e+00  -6.6261430786517201e-09 1.8543054675866412e-08 0.0000000000000000e+00  -4.6797256465700242e-09 -1.8269673021891688e-08 0.0000000000000000e+00  -2.0677382324282213e-09 -1.8634798470354470e-08 0.0000000000000000e+00  -1.9890004125471137e-09 -1.6726036993414060e-08 0.0000000000000000e+00  -1.9093027013510151e-09 -1.3789949518730979e-08 0.0000000000000000e+00  -1.3210196668603237e-09 -1.0695491466362787e-08 0.0000000000000000e+00  -3.8922611290314520e-10 -7.9419056983708138e-09 0.0000000000000000e+00  6.1966976169920037e-10 -5.6683698293715477e-09 0.0000000000000000e+00  1.5155695994381972e-09 -3.8358251079177770e-09 0.0000000000000000e+00  2.1977065836895671e-09 -2.3410027665294188e-09 0.0000000000000000e+00  2.6226147432022076e-09 -1.0671530404260818e-09 0.0000000000000000e+00  2.7751914283258040e-09 9.9809073745189879e-11 0.0000000000000000e+00  2.6521499273879602e-09 1.2695287563980711e-09 0.0000000000000000e+00  2.2562282912168491e-09 2.5499161753465513e-09 0.0000000000000000e+00  1.5992377004776491e-09 4.0488833612105568e-09 0.0000000000000000e+00  7.1410800173273122e-10 5.8696346778575380e-09 0.0000000000000000e+00  -3.2287631298860172e-10 8.0904657838008137e-09 0.0000000000000000e+00  -1.3627410011201704e-09 1.0714559740226626e-08 0.0000000000000000e+00  -2.1718972856543715e-09 1.3576799236334595e-08 0.0000000000000000e+00  -2.5303711609602525e-09 1.6232669636124345e-08 0.0000000000000000e+00  -2.7196611893987487e-09 1.7983676370110672e-08 0.0000000000000000e+00  -5.2917470462907740e-09 1.8291870446633426e-08 0.0000000000000000e+00  -4.0055962076977758e-09 -1.6848593574413689e-08 0.0000000000000000e+00  -2.1983434581744589e-09 -1.7348508129428498e-08 0.0000000000000000e+00  -2.6544511180452036e-09 -1.5998928977435145e-08 0.0000000000000000e+00  -3.2346830459828718e-09 -1.3769525106919155e-08 0.0000000000000000e+00  -3.4011848478316063e-09 -1.1193953846979001e-08 0.0000000000000000e+00  -3.1819145067223997e-09 -8.6794534447365531e-09 0.0000000000000000e+00  -2.7504152408448049e-09 -6.4255964049673291e-09 0.0000000000000000e+00  -2.2725109327321869e-09 -4.4776964717255725e-09 0.0000000000000000e+00  -1.8637006301344927e-09 -2.7963521820240600e-09 0.0000000000000000e+00  -1.5917727486015995e-09 -1.3038383719763823e-09 0.0000000000000000e+00  -1.4904767829794241e-09 9.1815700914332425e-11 0.0000000000000000e+00  -1.5705512215713588e-09 1.4859847266208682e-09 0.0000000000000000e+00  -1.8243584269106830e-09 2.9720645469431304e-09 0.0000000000000000e+00  -2.2238013411899079e-09 4.6356969217074587e-09 0.0000000000000000e+00  -2.7121777635113726e-09 6.5431851630608333e-09 0.0000000000000000e+00  -3.1924096378159063e-09 8.7181639599078478e-09 0.0000000000000000e+00  -3.5200371252611203e-09 1.1101852139682302e-08 0.0000000000000000e+00  -3.5249348999149791e-09 1.3502004324803218e-08 0.0000000000000000e+00  -3.1236297895295894e-09 1.5564672990549831e-08 0.0000000000000000e+00  -2.7053413036216069e-09 1.6857048297121445e-08 0.0000000000000000e+00  -4.4310806407320353e-09 1.7381981437575289e-08 0.0000000000000000e+00  -3.5374676216225271e-09 -1.5228187011180507e-08 0.0000000000000000e+00  -2.3065242148604847e-09 -1.5825424004038141e-08 0.0000000000000000e+00  -3.1172480524812184e-09 -1.4833999436779819e-08 0.0000000000000000e+00  -4.1275659036081870e-09 -1.3116136436219250e-08 0.0000000000000000e+00  -4.8230687702090869e-09 -1.1008537743972954e-08 0.0000000000000000e+00  -5.1552884904102592e-09 -8.8087957007853492e-09 0.0000000000000000e+00  -5.2193231262028260e-09 -6.7065110950084189e-09 0.0000000000000000e+00  -5.1359020471369243e-09 -4.7830697154039679e-09 0.0000000000000000e+00  -5.0060517242482895e-09 -3.0427931641792726e-09 0.0000000000000000e+00  -4.8991915566794193e-09 -1.4444109299065488e-09 0.0000000000000000e+00  -4.8547375671543621e-09 7.6432175601284731e-11 0.0000000000000000e+00  -4.8864981831977828e-09 1.5927480661069350e-09 0.0000000000000000e+00  -4.9851419135190431e-09 3.1759734570707511e-09 0.0000000000000000e+00  -5.1174413327802086e-09 4.8858279001458522e-09 0.0000000000000000e+00  -5.2231652911569715e-09 6.7565653947963293e-09 0.0000000000000000e+00  -5.2129896308292846e-09 8.7770147106634544e-09 0.0000000000000000e+00  -4.9752030486763084e-09 1.0865219526756848e-08 0.0000000000000000e+00  -4.4075554487444203e-09 1.2846874380010506e-08 0.0000000000000000e+00  -3.5132393458303765e-09 1.4461645475488351e-08 0.0000000000000000e+00  -2.7048709362773709e-09 1.5442273169986302e-08 0.0000000000000000e+00  -3.8360137799229185e-09 1.6087424480128675e-08 0.0000000000000000e+00  -3.1945850810321041e-09 -1.3462068429403391e-08 0.0000000000000000e+00  -2.3955409371249611e-09 -1.4131456969091547e-08 0.0000000000000000e+00  -3.4576971367266997e-09 -1.3384302072248234e-08 0.0000000000000000e+00  -4.7587116610164209e-09 -1.2044180774649955e-08 0.0000000000000000e+00  -5.8222218506014947e-09 -1.0331355996173197e-08 0.0000000000000000e+00  -6.5620269692461252e-09 -8.4560183056223423e-09 0.0000000000000000e+00  -7.0179767648003990e-09 -6.5743848899205851e-09 0.0000000000000000e+00  -7.2671124541382664e-09 -4.7736866550381566e-09 0.0000000000000000e+00  -7.3852091891550444e-09 -3.0815753265805690e-09 0.0000000000000000e+00  -7.4306801567369720e-09 -1.4839284842281303e-09 0.0000000000000000e+00  -7.4396297833684463e-09 5.8047309878902297e-11 0.0000000000000000e+00  -7.4254824453112444e-09 1.5938710811438508e-09 0.0000000000000000e+00  -7.3795680236791164e-09 3.1721115752822690e-09 0.0000000000000000e+00  -7.2713973683474114e-09 4.8290092170689011e-09 0.0000000000000000e+00  -7.0493250591880255e-09 6.5756340636654055e-09 0.0000000000000000e+00  -6.6442931904786902e-09 8.3831729015248928e-09 0.0000000000000000e+00  -5.9818774466654919e-09 1.0168936757656972e-08 0.0000000000000000e+00  -5.0125376024392446e-09 1.1790649793268137e-08 0.0000000000000000e+00  -3.7876377170757492e-09 1.3063035230053515e-08 0.0000000000000000e+00  -2.7108180387576102e-09 1.3820941555877180e-08 0.0000000000000000e+00  -3.4052709863543059e-09 1.4542086750188441e-08 0.0000000000000000e+00  -2.9357568363632502e-09 -1.1586137722449107e-08 0.0000000000000000e+00  -2.4673921864310003e-09 -1.2309801507848780e-08 0.0000000000000000e+00  -3.7139325042388918e-09 -1.1739467941076102e-08 0.0000000000000000e+00  -5.2165049481345446e-09 -1.0688794816332274e-08 0.0000000000000000e+00  -6.5359229978574567e-09 -9.3072080825767345e-09 0.0000000000000000e+00  -7.5692566440335112e-09 -7.7416775237307949e-09 0.0000000000000000e+00  -8.3203445557599804e-09 -6.1128365409246275e-09 0.0000000000000000e+00  -8.8311465990588920e-09 -4.4993600455907246e-09 0.0000000000000000e+00  -9.1517008718618025e-09 -2.9377370466212047e-09 0.0000000000000000e+00  -9.3248687497805534e-09 -1.4309742864720577e-09 0.0000000000000000e+00  -9.3790520949376539e-09 3.9833115426809197e-11 0.0000000000000000e+00  -9.3253492776815748e-09 1.5039969005203070e-09 0.0000000000000000e+00  -9.1569858802054813e-09 2.9904334588181191e-09 0.0000000000000000e+00  -8.8501518876816398e-09 4.5171619159114051e-09 0.0000000000000000e+00  -8.3666579768881137e-09 6.0807490106432198e-09 0.0000000000000000e+00  -7.6600375214091126e-09 7.6463551844453154e-09 0.0000000000000000e+00  -6.6880295752383223e-09 9.1409335416747134e-09 0.0000000000000000e+00  -5.4376154216564796e-09 1.0454514090949669e-08 0.0000000000000000e+00  -3.9854284247489121e-09 1.1457290637544614e-08 0.0000000000000000e+00  -2.7170509264464028e-09 1.2048097462347267e-08 0.0000000000000000e+00  -3.0846085310568490e-09 1.2820891429286695e-08 0.0000000000000000e+00  -2.7382088698277797e-09 -9.6275515525125020e-09 0.0000000000000000e+00  -2.5244043304178157e-09 -1.0392290891623640e-08 0.0000000000000000e+00  -3.9076240726064196e-09 -9.9576519988343541e-09 0.0000000000000000e+00  -5.5514472764327540e-09 -9.1387180035567255e-09 0.0000000000000000e+00  -7.0482540876321266e-09 -8.0403199612038667e-09 0.0000000000000000e+00  -8.2888653740323479e-09 -6.7648093916883322e-09 0.0000000000000000e+00  -9.2545074208917493e-09 -5.4019237903116784e-09 0.0000000000000000e+00  -9.9613500655079430e-09 -4.0166030096419643e-09 0.0000000000000000e+00  -1.0437576345396490e-08 -2.6454976369574339e-09 0.0000000000000000e+00  -1.0710728060906624e-08 -1.3005637626569429e-09 0.0000000000000000e+00  -1.0800443103117281e-08 2.3663640106822854e-11 0.0000000000000000e+00  -1.0714813976962008e-08 1.3414595314598661e-09 0.0000000000000000e+00  -1.0449312146909571e-08 2.6670832554354448e-09 0.0000000000000000e+00  -9.9878077652849053e-09 4.0061697907301640e-09 0.0000000000000000e+00  -9.3058587892224508e-09 5.3477423966732036e-09 0.0000000000000000e+00  -8.3770363349824156e-09 6.6578271161526299e-09 0.0000000000000000e+00  -7.1837750980807295e-09 7.8766162182110562e-09 0.0000000000000000e+00  -5.7371784434632178e-09 8.9220640183007798e-09 0.0000000000000000e+00  -4.1267959721750659e-09 9.7043511923197768e-09 0.0000000000000000e+00  -2.7201728333689120e-09 1.0163392747813977e-08 0.0000000000000000e+00  -2.8427905737107129e-09 1.0971972335101535e-08 0.0000000000000000e+00  -2.5886820758090894e-09 -7.6079719420063709e-09 0.0000000000000000e+00  -2.5691958217172772e-09 -8.4037859533303209e-09 0.0000000000000000e+00  -4.0530790507376626e-09 -8.0793775185387275e-09 0.0000000000000000e+00  -5.7953799493891861e-09 -7.4546615838319154e-09 0.0000000000000000e+00  -7.4136828369803021e-09 -6.6052991551965104e-09 0.0000000000000000e+00  -8.7974732506610600e-09 -5.6019887605291804e-09 0.0000000000000000e+00  -9.9141002635837979e-09 -4.5093746010876039e-09 0.0000000000000000e+00  -1.0761764354506792e-08 -3.3778053461236771e-09 0.0000000000000000e+00  -1.1351840339556827e-08 -2.2394331142446020e-09 0.0000000000000000e+00  -1.1698984519391614e-08 -1.1092835395740855e-09 0.0000000000000000e+00  -1.1814880134314954e-08 1.0412748794022075e-11 0.0000000000000000e+00  -1.1704719587222339e-08 1.1242165809990815e-09 0.0000000000000000e+00  -1.1366034342930823e-08 2.2368874244524872e-09 0.0000000000000000e+00  -1.0789678405115734e-08 3.3469150851164106e-09 0.0000000000000000e+00  -9.9629888907052736e-09 4.4408455335936694e-09 0.0000000000000000e+00  -8.8753645145899808e-09 5.4893322778457950e-09 0.0000000000000000e+00  -7.5270118799503238e-09 6.4462373397543224e-09 0.0000000000000000e+00  -5.9446270289806969e-09 7.2523817318959970e-09 0.0000000000000000e+00  -4.2243467769967656e-09 7.8468549956836913e-09 0.0000000000000000e+00  -2.7188660157924865e-09 8.1967572933611139e-09 0.0000000000000000e+00  -2.6609581271331620e-09 9.0295596567527285e-09 0.0000000000000000e+00  -2.4792779308879021e-09 -5.5450631188605861e-09 0.0000000000000000e+00  -2.6044124150043793e-09 -6.3642117724779950e-09 0.0000000000000000e+00  -4.1606348834017585e-09 -6.1342701109261185e-09 0.0000000000000000e+00  -5.9698731751718066e-09 -5.6796284491663633e-09 0.0000000000000000e+00  -7.6690325382548281e-09 -5.0559902182374408e-09 0.0000000000000000e+00  -9.1483886515019078e-09 -4.3110293930561794e-09 0.0000000000000000e+00  -1.0367008996622903e-08 -3.4892665801341806e-09 0.0000000000000000e+00  -1.1311146343246298e-08 -2.6272416917582382e-09 0.0000000000000000e+00  -1.1980171775043862e-08 -1.7503112549482204e-09 0.0000000000000000e+00  -1.2378970168624062e-08 -8.7264626738505638e-10 0.0000000000000000e+00  -1.2512890711344040e-08 3.2475191009356120e-13 0.0000000000000000e+00  -1.2384714828156239e-08 8.6800654830544092e-10 0.0000000000000000e+00  -1.1993590259112135e-08 1.7301018175478015e-09 0.0000000000000000e+00  -1.1335894899357897e-08 2.5821297463918630e-09 0.0000000000000000e+00  -1.0407977400390713e-08 3.4116405798616248e-09 0.0000000000000000e+00  -9.2107519963957301e-09 4.1958551806785483e-09 0.0000000000000000e+00  -7.7565928202270662e-09 4.9015670734047528e-09 0.0000000000000000e+00  -6.0821273447296207e-09 5.4881863776026596e-09 0.0000000000000000e+00  -4.2869857016504455e-09 5.9161995248140897e-09 0.0000000000000000e+00  -2.7130795652374012e-09 6.1714385019138249e-09 0.0000000000000000e+00  -2.5273879723817468e-09 7.0195163877275364e-09 0.0000000000000000e+00  -2.4053448151557039e-09 -3.4534771455858444e-09 0.0000000000000000e+00  -2.6324644565723826e-09 -4.2897968740907888e-09 0.0000000000000000e+00  -4.2379312796065949e-09 -4.1447973793558169e-09 0.0000000000000000e+00  -6.0899242511531321e-09 -3.8450979660488156e-09 0.0000000000000000e+00  -7.8394872421578072e-09 -3.4319412753444397e-09 0.0000000000000000e+00  -9.3784607230217890e-09 -2.9354913671134328e-09 0.0000000000000000e+00  -1.0661273543577655e-08 -2.3838073338047080e-09 0