<?xml version="1.0"?>
<VTKFile type="UnstructuredGrid"  version="0.1"  >
<UnstructuredGrid>
<Piece  NumberOfPoints="651" NumberOfCells="1200">
<Points>
<DataArray  type="Float64"  NumberOfComponents="3"  format="ascii">0 0 0  50000 0 0  100000 0 0  150000 0 0  200000 0 0  250000 0 0  300000 0 0  350000 0 0  400000 0 0  450000 0 0  500000 0 0  550000 0 0  600000 0 0  650000 0 0  700000 0 0  750000 0 0  800000 0 0  850000 0 0  900000 0 0  950000 0 0  1000000 0 0  0 50000 0  50000 50000 0  100000 50000 0  150000 50000 0  200000 50000 0  250000 50000 0  300000 50000 0  350000 50000 0  400000 50000 0  450000 50000 0  500000 50000 0  550000 50000 0  600000 50000 0  650000 50000 0  700000 50000 0  750000 50000 0  800000 50000 0  850000 50000 0  900000 50000 0  950000 50000 0  1000000 50000 0  0 100000 0  50000 100000 0  100000 100000 0  150000 100000 0  200000 100000 0  250000 100000 0  300000 100000 0  350000 100000 0  400000 100000 0  450000 100000 0  500000 100000 0  550000 100000 0  600000 100000 0  650000 100000 0  700000 100000 0  750000 100000 0  800000 100000 0  850000 100000 0  900000 100000 0  950000 100000 0  1000000 100000 0  0 150000 0  50000 150000 0  100000 150000 0  150000 150000 0  200000 150000 0  250000 150000 0  300000 150000 0  350000 150000 0  400000 150000 0  450000 150000 0  500000 150000 0  550000 150000 0  600000 150000 0  650000 150000 0  700000 150000 0  750000 150000 0  800000 150000 0  850000 150000 0  900000 150000 0  950000 150000 0  1000000 150000 0  0 200000 0  50000 200000 0  100000 200000 0  150000 200000 0  200000 200000 0  250000 200000 0  300000 200000 0  350000 200000 0  400000 200000 0  450000 200000 0  500000 200000 0  550000 200000 0  600000 200000 0  650000 200000 0  700000 200000 0  750000 200000 0  800000 200000 0  850000 200000 0  900000 200000 0  950000 200000 0  1000000 200000 0  0 250000 0  50000 250000 0  100000 250000 0  150000 250000 0  200000 250000 0  250000 250000 0  300000 250000 0  350000 250000 0  400000 250000 0  450000 250000 0  500000 250000 0  550000 250000 0  600000 250000 0  650000 250000 0  700000 250000 0  750000 250000 0  800000 250000 0  850000 250000 0  900000 250000 0  950000 250000 0  1000000 250000 0  0 300000 0  50000 300000 0  100000 300000 0  150000 300000 0  200000 300000 0  250000 300000 0  300000 300000 0  350000 300000 0  400000 300000 0  450000 300000 0  500000 300000 0  550000 300000 0  600000 300000 0  650000 300000 0  700000 300000 0  750000 300000 0  800000 300000 0  850000 300000 0  900000 300000 0  950000 300000 0  1000000 300000 0  0 350000 0  50000 350000 0  100000 350000 0  150000 350000 0  200000 350000 0  250000 350000 0  300000 350000 0  350000 350000 0  400000 350000 0  450000 350000 0  500000 350000 0  550000 350000 0  600000 350000 0  650000 350000 0  700000 350000 0  750000 350000 0  800000 350000 0  850000 350000 0  900000 350000 0  950000 350000 0  1000000 350000 0  0 400000 0  50000 400000 0  100000 400000 0  150000 400000 0  200000 400000 0  250000 400000 0  300000 400000 0  350000 400000 0  400000 400000 0  450000 400000 0  500000 400000 0  550000 400000 0  600000 400000 0  650000 400000 0  700000 400000 0  750000 400000 0  800000 400000 0  850000 400000 0  900000 400000 0  950000 400000 0  1000000 400000 0  0 450000 0  50000 450000 0  100000 450000 0  150000 450000 0  200000 450000 0  250000 450000 0  300000 450000 0  350000 450000 0  400000 450000 0  450000 450000 0  500000 450000 0  550000 450000 0  600000 450000 0  650000 450000 0  700000 450000 0  750000 450000 0  800000 450000 0  850000 450000 0  900000 450000 0  950000 450000 0  1000000 450000 0  0 500000 0  50000 500000 0  100000 500000 0  150000 500000 0  200000 500000 0  250000 500000 0  300000 500000 0  350000 500000 0  400000 500000 0  450000 500000 0  500000 500000 0  550000 500000 0  600000 500000 0  650000 500000 0  700000 500000 0  750000 500000 0  800000 500000 0  850000 500000 0  900000 500000 0  950000 500000 0  1000000 500000 0  0 550000 0  50000 550000 0  100000 550000 0  150000 550000 0  200000 550000 0  250000 550000 0  300000 550000 0  350000 550000 0  400000 550000 0  450000 550000 0  500000 550000 0  550000 550000 0  600000 550000 0  650000 550000 0  700000 550000 0  750000 550000 0  800000 550000 0  850000 550000 0  900000 550000 0  950000 550000 0  1000000 550000 0  0 600000 0  50000 600000 0  100000 600000 0  150000 600000 0  200000 600000 0  250000 600000 0  300000 600000 0  350000 600000 0  400000 600000 0  450000 600000 0  500000 600000 0  550000 600000 0  600000 600000 0  650000 600000 0  700000 600000 0  750000 600000 0  800000 600000 0  850000 600000 0  900000 600000 0  950000 600000 0  1000000 600000 0  0 650000 0  50000 650000 0  100000 650000 0  150000 650000 0  200000 650000 0  250000 650000 0  300000 650000 0  350000 650000 0  400000 650000 0  450000 650000 0  500000 650000 0  550000 650000 0  600000 650000 0  650000 650000 0  700000 650000 0  750000 650000 0  800000 650000 0  850000 650000 0  900000 650000 0  950000 650000 0  1000000 650000 0  0 700000 0  50000 700000 0  100000 700000 0  150000 700000 0  200000 700000 0  250000 700000 0  300000 700000 0  350000 700000 0  400000 700000 0  450000 700000 0  500000 700000 0  550000 700000 0  600000 700000 0  650000 700000 0  700000 700000 0  750000 700000 0  800000 700000 0  850000 700000 0  900000 700000 0  950000 700000 0  1000000 700000 0  0 750000 0  50000 750000 0  100000 750000 0  150000 750000 0  200000 750000 0  250000 750000 0  300000 750000 0  350000 750000 0  400000 750000 0  450000 750000 0  500000 750000 0  550000 750000 0  600000 750000 0  650000 750000 0  700000 750000 0  750000 750000 0  800000 750000 0  850000 750000 0  900000 750000 0  950000 750000 0  1000000 750000 0  0 800000 0  50000 800000 0  100000 800000 0  150000 800000 0  200000 800000 0  250000 800000 0  300000 800000 0  350000 800000 0  400000 800000 0  450000 800000 0  500000 800000 0  550000 800000 0  600000 800000 0  650000 800000 0  700000 800000 0  750000 800000 0  800000 800000 0  850000 800000 0  900000 800000 0  950000 800000 0  1000000 800000 0  0 850000 0  50000 850000 0  100000 850000 0  150000 850000 0  200000 850000 0  250000 850000 0  300000 850000 0  350000 850000 0  400000 850000 0  450000 850000 0  500000 850000 0  550000 850000 0  600000 850000 0  650000 850000 0  700000 850000 0  750000 850000 0  800000 850000 0  850000 850000 0  900000 850000 0  950000 850000 0  1000000 850000 0  0 900000 0  50000 900000 0  100000 900000 0  150000 900000 0  200000 900000 0  250000 900000 0  300000 900000 0  350000 900000 0  400000 900000 0  450000 900000 0  500000 900000 0  550000 900000 0  600000 900000 0  650000 900000 0  700000 900000 0  750000 900000 0  800000 900000 0  850000 900000 0  900000 900000 0  950000 900000 0  1000000 900000 0  0 950000 0  50000 950000 0  100000 950000 0  150000 950000 0  200000 950000 0  250000 950000 0  300000 950000 0  350000 950000 0  400000 950000 0  450000 950000 0  500000 950000 0  550000 950000 0  600000 950000 0  650000 950000 0  700000 950000 0  750000 950000 0  800000 950000 0  850000 950000 0  900000 950000 0  950000 950000 0  1000000 950000 0  0 1000000 0  50000 1000000 0  100000 1000000 0  150000 1000000 0  200000 1000000 0  250000 1000000 0  300000 1000000 0  350000 1000000 0  400000 1000000 0  450000 1000000 0  500000 1000000 0  550000 1000000 0  600000 1000000 0  650000 1000000 0  700000 1000000 0  750000 1000000 0  800000 1000000 0  850000 1000000 0  900000 1000000 0  950000 1000000 0  1000000 1000000 0  0 1050000 0  50000 1050000 0  100000 1050000 0  150000 1050000 0  200000 1050000 0  250000 1050000 0  300000 1050000 0  350000 1050000 0  400000 1050000 0  450000 1050000 0  500000 1050000 0  550000 1050000 0  600000 1050000 0  650000 1050000 0  700000 1050000 0  750000 1050000 0  800000 1050000 0  850000 1050000 0  900000 1050000 0  950000 1050000 0  1000000 1050000 0  0 1100000 0  50000 1100000 0  100000 1100000 0  150000 1100000 0  200000 1100000 0  250000 1100000 0  300000 1100000 0  350000 1100000 0  400000 1100000 0  450000 1100000 0  500000 1100000 0  550000 1100000 0  600000 1100000 0  650000 1100000 0  700000 1100000 0  750000 1100000 0  800000 1100000 0  850000 1100000 0  900000 1100000 0  950000 1100000 0  1000000 1100000 0  0 1150000 0  50000 1150000 0  100000 1150000 0  150000 1150000 0  200000 1150000 0  250000 1150000 0  300000 1150000 0  350000 1150000 0  400000 1150000 0  450000 1150000 0  500000 1150000 0  550000 1150000 0  600000 1150000 0  650000 1150000 0  700000 1150000 0  750000 1150000 0  800000 1150000 0  850000 1150000 0  900000 1150000 0  950000 1150000 0  1000000 1150000 0  0 1200000 0  50000 1200000 0  100000 1200000 0  150000 1200000 0  200000 1200000 0  250000 1200000 0  300000 1200000 0  350000 1200000 0  400000 1200000 0  450000 1200000 0  500000 1200000 0  550000 1200000 0  600000 1200000 0  650000 1200000 0  700000 1200000 0  750000 1200000 0  800000 1200000 0  850000 1200000 0  900000 1200000 0  950000 1200000 0  1000000 1200000 0  0 1250000 0  50000 1250000 0  100000 1250000 0  150000 1250000 0  200000 1250000 0  250000 1250000 0  300000 1250000 0  350000 1250000 0  400000 1250000 0  450000 1250000 0  500000 1250000 0  550000 1250000 0  600000 1250000 0  650000 1250000 0  700000 1250000 0  750000 1250000 0  800000 1250000 0  850000 1250000 0  900000 1250000 0  950000 1250000 0  1000000 1250000 0  0 1300000 0  50000 1300000 0  100000 1300000 0  150000 1300000 0  200000 1300000 0  250000 1300000 0  300000 1300000 0  350000 1300000 0  400000 1300000 0  450000 1300000 0  500000 1300000 0  550000 1300000 0  600000 1300000 0  650000 1300000 0  700000 1300000 0  750000 1300000 0  800000 1300000 0  850000 1300000 0  900000 1300000 0  950000 1300000 0  1000000 1300000 0  0 1350000 0  50000 1350000 0  100000 1350000 0  150000 1350000 0  200000 1350000 0  250000 1350000 0  300000 1350000 0  350000 1350000 0  400000 1350000 0  450000 1350000 0  500000 1350000 0  550000 1350000 0  600000 1350000 0  650000 1350000 0  700000 135
[...]
<PointData  Vectors="f_19"> 
<DataArray  type="Float64"  Name="f_19"  NumberOfComponents="3" format="ascii">-2.4380763186917800e-08 -1.1034831958497568e-08 0.0000000000000000e+00  4.8703383047121173e-08 -7.0618409054592741e-09 0.0000000000000000e+00  4.3061818475227452e-08 -2.6926914745745241e-09 0.0000000000000000e+00  4.0693725183125051e-08 -1.2931586318652617e-09 0.0000000000000000e+00  3.9570551020051510e-08 -8.1011512547927991e-10 0.0000000000000000e+00  3.8857019271300508e-08 -6.1652811851004127e-10 0.0000000000000000e+00  3.8354767715465050e-08 -5.4055007541407822e-10 0.0000000000000000e+00  3.8006064785438270e-08 -5.2199670156052683e-10 0.0000000000000000e+00  3.7791885397601453e-08 -5.3414718310334613e-10 0.0000000000000000e+00  3.7705926406757262e-08 -5.6158546751218648e-10 0.0000000000000000e+00  3.7746855466607730e-08 -5.9224969182697775e-10 0.0000000000000000e+00  3.7916738365618758e-08 -6.1352331708623848e-10 0.0000000000000000e+00  3.8223130633338564e-08 -6.0918699435049333e-10 0.0000000000000000e+00  3.8686093645783206e-08 -5.5560527937409577e-10 0.0000000000000000e+00  3.9355828445432693e-08 -4.1485174165504315e-10 0.0000000000000000e+00  4.0357185209690383e-08 -1.1849089037313891e-10 0.0000000000000000e+00  4.2003478725286992e-08 4.7684657566936635e-10 0.0000000000000000e+00  4.5058425950505273e-08 1.7092499183883952e-09 0.0000000000000000e+00  5.0865947556631692e-08 4.3704972130594317e-09 0.0000000000000000e+00  5.8100087896707521e-08 8.9830057141210884e-09 0.0000000000000000e+00  -1.6340860747303856e-08 6.8743352781187586e-09 0.0000000000000000e+00  -1.8085416428349266e-08 -1.6643815354372391e-08 0.0000000000000000e+00  7.4338096598044488e-09 -1.1589746516986324e-08 0.0000000000000000e+00  1.8503014201831340e-08 -5.3921878248988642e-09 0.0000000000000000e+00  2.3562624353665207e-08 -2.5435583529529419e-09 0.0000000000000000e+00  2.6144739250872818e-08 -1.2887013285903139e-09 0.0000000000000000e+00  2.7616766154492817e-08 -6.9389437559720767e-10 0.0000000000000000e+00  2.8478038592173387e-08 -3.9231073243895099e-10 0.0000000000000000e+00  2.8981537633963019e-08 -2.3440069456257932e-10 0.0000000000000000e+00  2.9267122530740772e-08 -1.5114611815502211e-10 0.0000000000000000e+00  2.9412327214117002e-08 -1.0467754324130345e-10 0.0000000000000000e+00  2.9457105941873470e-08 -6.9678504839028606e-11 0.0000000000000000e+00  2.9415473164076083e-08 -2.4993006270460433e-11 0.0000000000000000e+00  2.9279990059273389e-08 5.1703049249908513e-11 0.0000000000000000e+00  2.9021098922805868e-08 1.8983327427930027e-10 0.0000000000000000e+00  2.8580164637772622e-08 4.3679052453717312e-10 0.0000000000000000e+00  2.7849744868147195e-08 8.8297818103432933e-10 0.0000000000000000e+00  2.6618023915526676e-08 1.7228496707699929e-09 0.0000000000000000e+00  2.4387753060685206e-08 3.3942387483713534e-09 0.0000000000000000e+00  1.9717921961696161e-08 6.7907291041027686e-09 0.0000000000000000e+00  8.3520502513384589e-09 1.2914022953123547e-08 0.0000000000000000e+00  -1.8305406331710359e-08 1.0824235166976543e-08 0.0000000000000000e+00  -1.1016269338707898e-08 -2.0279949743729534e-08 0.0000000000000000e+00  -1.1243069190907991e-10 -1.8741275527488971e-08 0.0000000000000000e+00  6.1858654641905887e-09 -1.1397832031801380e-08 0.0000000000000000e+00  1.1126218815823826e-08 -6.6175943345416899e-09 0.0000000000000000e+00  1.4936851938494419e-08 -3.8612994950868335e-09 0.0000000000000000e+00  1.7561614108312129e-08 -2.2891323466418025e-09 0.0000000000000000e+00  1.9305840349631410e-08 -1.3611815659803642e-09 0.0000000000000000e+00  2.0436270708878970e-08 -7.8793749505279209e-10 0.0000000000000000e+00  2.1130791949956101e-08 -4.1161595742588778e-10 0.0000000000000000e+00  2.1498765340680063e-08 -1.3855325112450376e-10 0.0000000000000000e+00  2.1599917889887158e-08 9.4977354601530009e-11 0.0000000000000000e+00  2.1455623712648393e-08 3.4106773892643434e-10 0.0000000000000000e+00  2.1053172197350331e-08 6.5261519783248155e-10 0.0000000000000000e+00  2.0343578472371390e-08 1.0961743071450646e-09 0.0000000000000000e+00  1.9232102414300202e-08 1.7713806856018481e-09 0.0000000000000000e+00  1.7559173715516442e-08 2.8452842412654480e-09 0.0000000000000000e+00  1.5069942073346211e-08 4.6092934665363878e-09 0.0000000000000000e+00  1.1382834094884642e-08 7.5339827730788835e-09 0.0000000000000000e+00  6.0270922048194433e-09 1.2100473438579986e-08 0.0000000000000000e+00  -1.2268526383083215e-09 1.7526849464282121e-08 0.0000000000000000e+00  -1.3034489119012089e-08 1.4567900925918540e-08 0.0000000000000000e+00  -7.2527634557834702e-09 -2.0909807834317479e-08 0.0000000000000000e+00  -1.4647656208913643e-09 -2.0324024227353498e-08 0.0000000000000000e+00  1.3455401378953610e-09 -1.5442353047252865e-08 0.0000000000000000e+00  4.2066460713658301e-09 -1.0494561657933543e-08 0.0000000000000000e+00  7.1304256052151843e-09 -6.8966548284406760e-09 0.0000000000000000e+00  9.6393739159159306e-09 -4.4731247122835310e-09 0.0000000000000000e+00  1.1553219159644296e-08 -2.8564219293753079e-09 0.0000000000000000e+00  1.2904973832534190e-08 -1.7533157782806066e-09 0.0000000000000000e+00  1.3782647124228289e-08 -9.6346450628399380e-10 0.0000000000000000e+00  1.4262804771455687e-08 -3.4969465104603305e-10 0.0000000000000000e+00  1.4394470283888527e-08 1.8943819067829270e-10 0.0000000000000000e+00  1.4197145334557285e-08 7.3951897071699344e-10 0.0000000000000000e+00  1.3661257139443341e-08 1.3857825857032927e-09 0.0000000000000000e+00  1.2748285517073199e-08 2.2281485269394117e-09 0.0000000000000000e+00  1.1391715099399077e-08 3.3987106933286171e-09 0.0000000000000000e+00  9.5049340619435974e-09 5.0806708463493189e-09 0.0000000000000000e+00  7.0131648208869227e-09 7.5117783110896334e-09 0.0000000000000000e+00  3.9448717088373424e-09 1.0902803107840542e-08 0.0000000000000000e+00  5.9359196979578948e-10 1.5080619360320522e-08 0.0000000000000000e+00  -2.6100057290352030e-09 1.8713367948485787e-08 0.0000000000000000e+00  -8.5849485786109579e-09 1.7370148771985716e-08 0.0000000000000000e+00  -5.3427252219187720e-09 -2.0320881905833001e-08 0.0000000000000000e+00  -1.8258440182838710e-09 -2.0169505084147160e-08 0.0000000000000000e+00  -7.8688666885345603e-10 -1.6954421079794083e-08 0.0000000000000000e+00  4.2220663542556601e-10 -1.2913058148936385e-08 0.0000000000000000e+00  2.0993674981946791e-09 -9.2994248309390770e-09 0.0000000000000000e+00  3.8744993364582973e-09 -6.4772656360717262e-09 0.0000000000000000e+00  5.4355809751318566e-09 -4.3726620313508883e-09 0.0000000000000000e+00  6.6477655534770123e-09 -2.8051583546923141e-09 0.0000000000000000e+00  7.4836652718316400e-09 -1.6015576236051705e-09 0.0000000000000000e+00  7.9569290046724143e-09 -6.1809876252512404e-10 0.0000000000000000e+00  8.0869129793793405e-09 2.6461023321817892e-10 0.0000000000000000e+00  7.8843780044355420e-09 1.1526467269846041e-09 0.0000000000000000e+00  7.3475965741619940e-09 2.1501044077561670e-09 0.0000000000000000e+00  6.4648235581843735e-09 3.3693273387680048e-09 0.0000000000000000e+00  5.2244219355645128e-09 4.9378522101847715e-09 0.0000000000000000e+00  3.6388474373022934e-09 6.9939064711604832e-09 0.0000000000000000e+00  1.7923766102983870e-09 9.6475107402187317e-09 0.0000000000000000e+00  -8.8830198362301402e-11 1.2859734051197625e-08 0.0000000000000000e+00  -1.6320596866468740e-09 1.6194873928028907e-08 0.0000000000000000e+00  -2.7523864197067769e-09 1.8642967729397249e-08 0.0000000000000000e+00  -6.1519526160975072e-09 1.8277519985219569e-08 0.0000000000000000e+00  -4.2515505048299320e-09 -1.9190695810246516e-08 0.0000000000000000e+00  -2.0087143101162281e-09 -1.9299881366158330e-08 0.0000000000000000e+00  -1.9156445986264443e-09 -1.7055094580787129e-08 0.0000000000000000e+00  -1.7793013227062150e-09 -1.3927786388272680e-08 0.0000000000000000e+00  -1.1461135723050038e-09 -1.0718888213679444e-08 0.0000000000000000e+00  -1.9853458163706229e-10 -7.8942212875884962e-09 0.0000000000000000e+00  7.9955959767602196e-10 -5.5719761788266976e-09 0.0000000000000000e+00  1.6652531813520080e-09 -3.7016054809704133e-09 0.0000000000000000e+00  2.3047094365230795e-09 -2.1742395917505331e-09 0.0000000000000000e+00  2.6801209626252510e-09 -8.7104840008475077e-10 0.0000000000000000e+00  2.7809576482272018e-09 3.2190494923218316e-10 0.0000000000000000e+00  2.6077545335716339e-09 1.5124768363774956e-09 0.0000000000000000e+00  2.1664675789616388e-09 2.8054147539594551e-09 0.0000000000000000e+00  1.4714182916654985e-09 4.3043649486361336e-09 0.0000000000000000e+00  5.5705703535131515e-10 6.1077172227390122e-09 0.0000000000000000e+00  -5.0002953621961006e-10 8.2894630028658344e-09 0.0000000000000000e+00  -1.5514195022208398e-09 1.0850636675295784e-08 0.0000000000000000e+00  -2.3625265954417528e-09 1.3628321683199703e-08 0.0000000000000000e+00  -2.7002670449795606e-09 1.6188053829582387e-08 0.0000000000000000e+00  -2.7377491570612890e-09 1.7888831057010980e-08 0.0000000000000000e+00  -4.6964583397115598e-09 1.7928052915711537e-08 0.0000000000000000e+00  -3.5507578707920454e-09 -1.7762342596021149e-08 0.0000000000000000e+00  -2.1437999927807932e-09 -1.8041148958970280e-08 0.0000000000000000e+00  -2.6185910976398838e-09 -1.6387516927046292e-08 0.0000000000000000e+00  -3.1662664020046008e-09 -1.3957662460008167e-08 0.0000000000000000e+00  -3.3001514594388472e-09 -1.1242828191135818e-08 0.0000000000000000e+00  -3.0667664684825152e-09 -8.6315518098942731e-09 0.0000000000000000e+00  -2.6418854997037429e-09 -6.3082910099804877e-09 0.0000000000000000e+00  -2.1878463004666069e-09 -4.3080244189978364e-09 0.0000000000000000e+00  -1.8150707575961448e-09 -2.5852396798713357e-09 0.0000000000000000e+00  -1.5863217071720444e-09 -1.0592931888448238e-09 0.0000000000000000e+00  -1.5308882472343081e-09 3.6238378629309526e-10 0.0000000000000000e+00  -1.6557206333824741e-09 1.7740274511846634e-09 0.0000000000000000e+00  -1.9501067111188338e-09 3.2665651655420801e-09 0.0000000000000000e+00  -2.3836778941998963e-09 4.9222419062758867e-09 0.0000000000000000e+00  -2.8983547838946482e-09 6.8035843315172563e-09 0.0000000000000000e+00  -3.3964744650917073e-09 8.9308301062727930e-09 0.0000000000000000e+00  -3.7330645985699430e-09 1.1243056175587976e-08 0.0000000000000000e+00  -3.7349759987448624e-09 1.3547958851104102e-08 0.0000000000000000e+00  -3.3024628157459043e-09 1.5495248133442210e-08 0.0000000000000000e+00  -2.7130098007231621e-09 1.6693950998877868e-08 0.0000000000000000e+00  -3.7536501453963348e-09 1.6910692392747852e-08 0.0000000000000000e+00  -3.0617520962023323e-09 -1.6136197443404244e-08 0.0000000000000000e+00  -2.2520933731352120e-09 -1.6529054412669551e-08 0.0000000000000000e+00  -3.1042186648043850e-09 -1.5257847950677342e-08 0.0000000000000000e+00  -4.1007791683211180e-09 -1.3338308470289804e-08 0.0000000000000000e+00  -4.7765835765909218e-09 -1.1077012051192924e-08 0.0000000000000000e+00  -5.1001088241900972e-09 -8.7619823528306479e-09 0.0000000000000000e+00  -5.1702861573720921e-09 -6.5732465785805133e-09 0.0000000000000000e+00  -5.1066808630713039e-09 -4.5842856066368985e-09 0.0000000000000000e+00  -5.0070398970504163e-09 -2.7939446019943194e-09 0.0000000000000000e+00  -4.9368516070656457e-09 -1.1578515702873496e-09 0.0000000000000000e+00  -4.9316829544294941e-09 3.8943811346572940e-10 0.0000000000000000e+00  -5.0019199512299721e-09 1.9204129593468035e-09 0.0000000000000000e+00  -5.1354057553958402e-09 3.5047473868858562e-09 0.0000000000000000e+00  -5.2967725425852503e-09 5.1995436297475840e-09 0.0000000000000000e+00  -5.4243184492243652e-09 7.0360140622772252e-09 0.0000000000000000e+00  -5.4276744572944843e-09 8.9999642340546483e-09 0.0000000000000000e+00  -5.1937517416525609e-09 1.1006733225242488e-08 0.0000000000000000e+00  -4.6162682016383744e-09 1.2879654439680722e-08 0.0000000000000000e+00  -3.6815557277455383e-09 1.4357147650264742e-08 0.0000000000000000e+00  -2.6940763956577997e-09 1.5201606655620081e-08 0.0000000000000000e+00  -3.1133912704272733e-09 1.5513782601228945e-08 0.0000000000000000e+00  -2.7018142497133698e-09 -1.4365998209966056e-08 0.0000000000000000e+00  -2.3389111181696443e-09 -1.4836186829552041e-08 0.0000000000000000e+00  -3.4582807557163541e-09 -1.3826621490668295e-08 0.0000000000000000e+00  -4.7594048580667958e-09 -1.2285869585790152e-08 0.0000000000000000e+00  -5.8144449135603485e-09 -1.0411179672305388e-08 0.0000000000000000e+00  -6.5519576130550916e-09 -8.4080970528618367e-09 0.0000000000000000e+00  -7.0156388456012640e-09 -6.4272791114077346e-09 0.0000000000000000e+00  -7.2824856029462035e-09 -4.5504797099375908e-09 0.0000000000000000e+00  -7.4262847292759240e-09 -2.8009859074514425e-09 0.0000000000000000e+00  -7.5025760085852794e-09 -1.1618484885823983e-09 0.0000000000000000e+00  -7.5443723393198178e-09 4.0700528743369493e-10 0.0000000000000000e+00  -7.5621871548634955e-09 1.9550067325960865e-09 0.0000000000000000e+00  -7.5448404060331041e-09 3.5295245204808855e-09 0.0000000000000000e+00  -7.4598251088579504e-09 5.1647707201627813e-09 0.0000000000000000e+00  -7.2539254441246364e-09 6.8692368490141798e-09 0.0000000000000000e+00  -6.8567174431542515e-09 8.6111734873966370e-09 0.0000000000000000e+00  -6.1919976538810580e-09 1.0304561659882653e-08 0.0000000000000000e+00  -5.2061313206643143e-09 1.1803096652631631e-08 0.0000000000000000e+00  -3.9346533088151278e-09 1.2917336696501960e-08 0.0000000000000000e+00  -2.6799678672382321e-09 1.3503306840060692e-08 0.0000000000000000e+00  -2.6667542205926260e-09 1.3879629368454144e-08 0.0000000000000000e+00  -2.4283124106306028e-09 -1.2487522066467128e-08 0.0000000000000000e+00  -2.4073760654200532e-09 -1.3009704744470021e-08 0.0000000000000000e+00  -3.7224180653535581e-09 -1.2188785648169034e-08 0.0000000000000000e+00  -5.2350410019169531e-09 -1.0938565601095172e-08 0.0000000000000000e+00  -6.5549464931897675e-09 -9.3903717381927365e-09 0.0000000000000000e+00  -7.5919701073442370e-09 -7.6890359566724401e-09 0.0000000000000000e+00  -8.3531738895994276e-09 -5.9521643569808878e-09 0.0000000000000000e+00  -8.8808258085671966e-09 -4.2548575644356839e-09 0.0000000000000000e+00  -9.2237503918570159e-09 -2.6303620782306480e-09 0.0000000000000000e+00  -9.4227604392569206e-09 -1.0793340280008645e-09 0.0000000000000000e+00  -9.5038710170216305e-09 4.1837834350114840e-10 0.0000000000000000e+00  -9.4758024512452847e-09 1.8922382017731401e-09 0.0000000000000000e+00  -9.3296236225129005e-09 3.3703406722898651e-09 0.0000000000000000e+00  -9.0396819127222659e-09 4.8690761420994060e-09 0.0000000000000000e+00  -8.5662323988733602e-09 6.3827178200971009e-09 0.0000000000000000e+00  -7.8613717804969252e-09 7.8735026314881737e-09 0.0000000000000000e+00  -6.8811028375033071e-09 9.2646556895177638e-09 0.0000000000000000e+00  -5.6088648028984573e-09 1.0441339580272642e-08 0.0000000000000000e+00  -4.1071982916463207e-09 1.1268387730925284e-08 0.0000000000000000e+00  -2.6683295631661001e-09 1.1660199099533189e-08 0.0000000000000000e+00  -2.3505756879078195e-09 1.2086447076315190e-08 0.0000000000000000e+00  -2.2173484273556953e-09 -1.0527661384633611e-08 0.0000000000000000e+00  -2.4604321747363488e-09 -1.1083826504041174e-08 0.0000000000000000e+00  -3.9205724124761991e-09 -1.0406129639911093e-08 0.0000000000000000e+00  -5.5815252266289879e-09 -9.3880019009383124e-09 0.0000000000000000e+00  -7.0856618410338248e-09 -8.1200385675344513e-09 0.0000000000000000e+00  -8.3349819852544393e-09 -6.7036700879484714e-09 0.0000000000000000e+00  -9.3131525235300006e-09 -5.2270444256559881e-09 0.0000000000000000e+00  -1.0036602326701274e-08 -3.7528181454476716e-09 0.0000000000000000e+00  -1.0532698136144589e-08 -2.3153050831436358e-09 0.0000000000000000e+00  -1.0827508971388119e-08 -9.2459886298316306e-10 0.0000000000000000e+00  -1.0938866315685958e-08 4.2586674811275062e-10 0.0000000000000000e+00  -1.0872979014067698e-08 1.7506096682060694e-09 0.0000000000000000e+00  -1.0623533014832781e-08 3.0632927805872011e-09 0.0000000000000000e+00  -1.0172801615861235e-08 4.3681817594919925e-09 0.0000000000000000e+00  -9.4949427398617079e-09 5.6522064172614218e-09 0.0000000000000000e+00  -8.5622498628467918e-09 6.8785358174512378e-09 0.0000000000000000e+00  -7.3557644661338725e-09 7.9835574875925010e-09 0.0000000000000000e+00  -5.8838699167073905e-09 8.8802490086377995e-09 0.0000000000000000e+00  -4.2238369775240656e-09 9.4734248039578521e-09 0.0000000000000000e+00  -2.6574081094162449e-09 9.7147966705832085e-09 0.0000000000000000e+00  -2.1257332587022801e-09 1.0182271751559321e-08 0.0000000000000000e+00  -2.0547341425911787e-09 -8.5077059343975891e-09 0.0000000000000000e+00  -2.5010710221626578e-09 -9.0847495432167339e-09 0.0000000000000000e+00  -4.0685960644147184e-09 -8.5215782542176423e-09 0.0000000000000000e+00  -5.8331573796996806e-09 -7.6971408127330306e-09 0.0000000000000000e+00  -7.4639293920065076e-09 -6.6761864669426032e-09 0.0000000000000000e+00  -8.8603919081764823e-09 -5.5290110744195534e-09 0.0000000000000000e+00  -9.9916034995025439e-09 -4.3193745215322193e-09 0.0000000000000000e+00  -1.0855811425843512e-08 -3.0961039606031341e-09 0.0000000000000000e+00  -1.1463746732126899e-08 -1.8896372822294068e-09 0.0000000000000000e+00  -1.1828978468071102e-08 -7.1353261248228647e-10 0.0000000000000000e+00  -1.1961841729517817e-08 4.3091157606258443e-10 0.0000000000000000e+00  -1.1866085179914755e-08 1.5485083461609224e-09 0.0000000000000000e+00  -1.1537830424861637e-08 2.6435448942736752e-09 0.0000000000000000e+00  -1.0966639303934682e-08 3.7133179219598928e-09 0.0000000000000000e+00  -1.0138715865564133e-08 4.7424590373782383e-09 0.0000000000000000e+00  -9.0424899158133770e-09 5.6989329060838617e-09 0.0000000000000000e+00  -7.6772552006573589e-09 6.5330096448671113e-09 0.0000000000000000e+00  -6.0678240368953460e-09 7.1809351071443862e-09 0.0000000000000000e+00  -4.2996108994254036e-09 7.5770949801611081e-09 0.0000000000000000e+00  -2.6461882665538984e-09 7.6976336082040447e-09 0.0000000000000000e+00  -1.9673359399090164e-09 8.1994279151596401e-09 0.0000000000000000e+00  -1.9317687477375078e-09 -6.4448364646120239e-09 0.0000000000000000e+00  -2.5322042793892037e-09 -7.0330138685848296e-09 0.0000000000000000e+00  -4.1779576009814638e-09 -6.5662433020143731e-09 0.0000000000000000e+00  -6.0133656320009615e-09 -5.9106008633365661e-09 0.0000000000000000e+00  -7.7288780033338936e-09 -5.1138968035103243e-09 0.0000000000000000e+00  -9.2239198850016948e-09 -4.2235224928587366e-09 0.0000000000000000e+00  -1.0458670519462356e-08 -3.2833372575552133e-09 0.0000000000000000e+00  -1.1419192569600861e-08 -2.3287102724630350e-09 0.0000000000000000e+00  -1.2104282088849072e-08 -1.3836351155039247e-09 0.0000000000000000e+00  -1.2518006447424750e-08 -4.6107533135036682e-10 0.0000000000000000e+00  -1.2664735735723646e-08 4.3433701533231372e-10 0.0000000000000000e+00  -1.2546199796281690e-08 1.3022403697880964e-09 0.0000000000000000e+00  -1.2160507755472202e-08 2.1419376446790046e-09 0.0000000000000000e+00  -1.1503084484042713e-08 2.9478910309576126e-09 0.0000000000000000e+00  -1.0569474039697781e-08 3.7059240951139893e-09 0.0000000000000000e+00  -9.3599919439992537e-09 4.3908307865805961e-09 0.0000000000000000e+00  -7.8865872748424735e-09 4.9662263476009758e-09 0.0000000000000000e+00  -6.1847056950003211e-09 5.3876331734263626e-09 0.0000000000000000e+00  -4.3444290547195917e-09 5.6117711404667078e-09 0.0000000000000000e+00  -2.6342299856124004e-09 5.6312216686817224e-09 0.0000000000000000e+00  -1.8594988854306858e-09 6.1611623513990844e-09 0.0000000000000000e+00  -1.8430957080391629e-09 -4.3530842598103883e-09 0.0000000000000000e+00  -2.5564776502283940e-09 -4.9449310136866075e-09 0.0000000000000000e+00  -4.2572007130093193e-09 -4.5633970927745162e-09 0.0000000000000000e+00  -6.1386082568662232e-09 -4.0609315554346788e-09 0.0000000000000000e+00  -7.9075413557627446e-09 -3.4736958260909731e-09 0.0000000000000000e+00  -9.4644244572548025e-09 -2.8314367105220506e-09 0.0000000000000000e+00  -1.0764359383606283e-08 -2.1614464