<?xml version="1.0"?>
<VTKFile type="UnstructuredGrid"  version="0.1"  >
<UnstructuredGrid>
<Piece  NumberOfPoints="651" NumberOfCells="1200">
<Points>
<DataArray  type="Float64"  NumberOfComponents="3"  format="ascii">0 0 0  50000 0 0  100000 0 0  150000 0 0  200000 0 0  250000 0 0  300000 0 0  350000 0 0  400000 0 0  450000 0 0  500000 0 0  550000 0 0  600000 0 0  650000 0 0  700000 0 0  750000 0 0  800000 0 0  850000 0 0  900000 0 0  950000 0 0  1000000 0 0  0 50000 0  50000 50000 0  100000 50000 0  150000 50000 0  200000 50000 0  250000 50000 0  300000 50000 0  350000 50000 0  400000 50000 0  450000 50000 0  500000 50000 0  550000 50000 0  600000 50000 0  650000 50000 0  700000 50000 0  750000 50000 0  800000 50000 0  850000 50000 0  900000 50000 0  950000 50000 0  1000000 50000 0  0 100000 0  50000 100000 0  100000 100000 0  150000 100000 0  200000 100000 0  250000 100000 0  300000 100000 0  350000 100000 0  400000 100000 0  450000 100000 0  500000 100000 0  550000 100000 0  600000 100000 0  650000 100000 0  700000 100000 0  750000 100000 0  800000 100000 0  850000 100000 0  900000 100000 0  950000 100000 0  1000000 100000 0  0 150000 0  50000 150000 0  100000 150000 0  150000 150000 0  200000 150000 0  250000 150000 0  300000 150000 0  350000 150000 0  400000 150000 0  450000 150000 0  500000 150000 0  550000 150000 0  600000 150000 0  650000 150000 0  700000 150000 0  750000 150000 0  800000 150000 0  850000 150000 0  900000 150000 0  950000 150000 0  1000000 150000 0  0 200000 0  50000 200000 0  100000 200000 0  150000 200000 0  200000 200000 0  250000 200000 0  300000 200000 0  350000 200000 0  400000 200000 0  450000 200000 0  500000 200000 0  550000 200000 0  600000 200000 0  650000 200000 0  700000 200000 0  750000 200000 0  800000 200000 0  850000 200000 0  900000 200000 0  950000 200000 0  1000000 200000 0  0 250000 0  50000 250000 0  100000 250000 0  150000 250000 0  200000 250000 0  250000 250000 0  300000 250000 0  350000 250000 0  400000 250000 0  450000 250000 0  500000 250000 0  550000 250000 0  600000 250000 0  650000 250000 0  700000 250000 0  750000 250000 0  800000 250000 0  850000 250000 0  900000 250000 0  950000 250000 0  1000000 250000 0  0 300000 0  50000 300000 0  100000 300000 0  150000 300000 0  200000 300000 0  250000 300000 0  300000 300000 0  350000 300000 0  400000 300000 0  450000 300000 0  500000 300000 0  550000 300000 0  600000 300000 0  650000 300000 0  700000 300000 0  750000 300000 0  800000 300000 0  850000 300000 0  900000 300000 0  950000 300000 0  1000000 300000 0  0 350000 0  50000 350000 0  100000 350000 0  150000 350000 0  200000 350000 0  250000 350000 0  300000 350000 0  350000 350000 0  400000 350000 0  450000 350000 0  500000 350000 0  550000 350000 0  600000 350000 0  650000 350000 0  700000 350000 0  750000 350000 0  800000 350000 0  850000 350000 0  900000 350000 0  950000 350000 0  1000000 350000 0  0 400000 0  50000 400000 0  100000 400000 0  150000 400000 0  200000 400000 0  250000 400000 0  300000 400000 0  350000 400000 0  400000 400000 0  450000 400000 0  500000 400000 0  550000 400000 0  600000 400000 0  650000 400000 0  700000 400000 0  750000 400000 0  800000 400000 0  850000 400000 0  900000 400000 0  950000 400000 0  1000000 400000 0  0 450000 0  50000 450000 0  100000 450000 0  150000 450000 0  200000 450000 0  250000 450000 0  300000 450000 0  350000 450000 0  400000 450000 0  450000 450000 0  500000 450000 0  550000 450000 0  600000 450000 0  650000 450000 0  700000 450000 0  750000 450000 0  800000 450000 0  850000 450000 0  900000 450000 0  950000 450000 0  1000000 450000 0  0 500000 0  50000 500000 0  100000 500000 0  150000 500000 0  200000 500000 0  250000 500000 0  300000 500000 0  350000 500000 0  400000 500000 0  450000 500000 0  500000 500000 0  550000 500000 0  600000 500000 0  650000 500000 0  700000 500000 0  750000 500000 0  800000 500000 0  850000 500000 0  900000 500000 0  950000 500000 0  1000000 500000 0  0 550000 0  50000 550000 0  100000 550000 0  150000 550000 0  200000 550000 0  250000 550000 0  300000 550000 0  350000 550000 0  400000 550000 0  450000 550000 0  500000 550000 0  550000 550000 0  600000 550000 0  650000 550000 0  700000 550000 0  750000 550000 0  800000 550000 0  850000 550000 0  900000 550000 0  950000 550000 0  1000000 550000 0  0 600000 0  50000 600000 0  100000 600000 0  150000 600000 0  200000 600000 0  250000 600000 0  300000 600000 0  350000 600000 0  400000 600000 0  450000 600000 0  500000 600000 0  550000 600000 0  600000 600000 0  650000 600000 0  700000 600000 0  750000 600000 0  800000 600000 0  850000 600000 0  900000 600000 0  950000 600000 0  1000000 600000 0  0 650000 0  50000 650000 0  100000 650000 0  150000 650000 0  200000 650000 0  250000 650000 0  300000 650000 0  350000 650000 0  400000 650000 0  450000 650000 0  500000 650000 0  550000 650000 0  600000 650000 0  650000 650000 0  700000 650000 0  750000 650000 0  800000 650000 0  850000 650000 0  900000 650000 0  950000 650000 0  1000000 650000 0  0 700000 0  50000 700000 0  100000 700000 0  150000 700000 0  200000 700000 0  250000 700000 0  300000 700000 0  350000 700000 0  400000 700000 0  450000 700000 0  500000 700000 0  550000 700000 0  600000 700000 0  650000 700000 0  700000 700000 0  750000 700000 0  800000 700000 0  850000 700000 0  900000 700000 0  950000 700000 0  1000000 700000 0  0 750000 0  50000 750000 0  100000 750000 0  150000 750000 0  200000 750000 0  250000 750000 0  300000 750000 0  350000 750000 0  400000 750000 0  450000 750000 0  500000 750000 0  550000 750000 0  600000 750000 0  650000 750000 0  700000 750000 0  750000 750000 0  800000 750000 0  850000 750000 0  900000 750000 0  950000 750000 0  1000000 750000 0  0 800000 0  50000 800000 0  100000 800000 0  150000 800000 0  200000 800000 0  250000 800000 0  300000 800000 0  350000 800000 0  400000 800000 0  450000 800000 0  500000 800000 0  550000 800000 0  600000 800000 0  650000 800000 0  700000 800000 0  750000 800000 0  800000 800000 0  850000 800000 0  900000 800000 0  950000 800000 0  1000000 800000 0  0 850000 0  50000 850000 0  100000 850000 0  150000 850000 0  200000 850000 0  250000 850000 0  300000 850000 0  350000 850000 0  400000 850000 0  450000 850000 0  500000 850000 0  550000 850000 0  600000 850000 0  650000 850000 0  700000 850000 0  750000 850000 0  800000 850000 0  850000 850000 0  900000 850000 0  950000 850000 0  1000000 850000 0  0 900000 0  50000 900000 0  100000 900000 0  150000 900000 0  200000 900000 0  250000 900000 0  300000 900000 0  350000 900000 0  400000 900000 0  450000 900000 0  500000 900000 0  550000 900000 0  600000 900000 0  650000 900000 0  700000 900000 0  750000 900000 0  800000 900000 0  850000 900000 0  900000 900000 0  950000 900000 0  1000000 900000 0  0 950000 0  50000 950000 0  100000 950000 0  150000 950000 0  200000 950000 0  250000 950000 0  300000 950000 0  350000 950000 0  400000 950000 0  450000 950000 0  500000 950000 0  550000 950000 0  600000 950000 0  650000 950000 0  700000 950000 0  750000 950000 0  800000 950000 0  850000 950000 0  900000 950000 0  950000 950000 0  1000000 950000 0  0 1000000 0  50000 1000000 0  100000 1000000 0  150000 1000000 0  200000 1000000 0  250000 1000000 0  300000 1000000 0  350000 1000000 0  400000 1000000 0  450000 1000000 0  500000 1000000 0  550000 1000000 0  600000 1000000 0  650000 1000000 0  700000 1000000 0  750000 1000000 0  800000 1000000 0  850000 1000000 0  900000 1000000 0  950000 1000000 0  1000000 1000000 0  0 1050000 0  50000 1050000 0  100000 1050000 0  150000 1050000 0  200000 1050000 0  250000 1050000 0  300000 1050000 0  350000 1050000 0  400000 1050000 0  450000 1050000 0  500000 1050000 0  550000 1050000 0  600000 1050000 0  650000 1050000 0  700000 1050000 0  750000 1050000 0  800000 1050000 0  850000 1050000 0  900000 1050000 0  950000 1050000 0  1000000 1050000 0  0 1100000 0  50000 1100000 0  100000 1100000 0  150000 1100000 0  200000 1100000 0  250000 1100000 0  300000 1100000 0  350000 1100000 0  400000 1100000 0  450000 1100000 0  500000 1100000 0  550000 1100000 0  600000 1100000 0  650000 1100000 0  700000 1100000 0  750000 1100000 0  800000 1100000 0  850000 1100000 0  900000 1100000 0  950000 1100000 0  1000000 1100000 0  0 1150000 0  50000 1150000 0  100000 1150000 0  150000 1150000 0  200000 1150000 0  250000 1150000 0  300000 1150000 0  350000 1150000 0  400000 1150000 0  450000 1150000 0  500000 1150000 0  550000 1150000 0  600000 1150000 0  650000 1150000 0  700000 1150000 0  750000 1150000 0  800000 1150000 0  850000 1150000 0  900000 1150000 0  950000 1150000 0  1000000 1150000 0  0 1200000 0  50000 1200000 0  100000 1200000 0  150000 1200000 0  200000 1200000 0  250000 1200000 0  300000 1200000 0  350000 1200000 0  400000 1200000 0  450000 1200000 0  500000 1200000 0  550000 1200000 0  600000 1200000 0  650000 1200000 0  700000 1200000 0  750000 1200000 0  800000 1200000 0  850000 1200000 0  900000 1200000 0  950000 1200000 0  1000000 1200000 0  0 1250000 0  50000 1250000 0  100000 1250000 0  150000 1250000 0  200000 1250000 0  250000 1250000 0  300000 1250000 0  350000 1250000 0  400000 1250000 0  450000 1250000 0  500000 1250000 0  550000 1250000 0  600000 1250000 0  650000 1250000 0  700000 1250000 0  750000 1250000 0  800000 1250000 0  850000 1250000 0  900000 1250000 0  950000 1250000 0  1000000 1250000 0  0 1300000 0  50000 1300000 0  100000 1300000 0  150000 1300000 0  200000 1300000 0  250000 1300000 0  300000 1300000 0  350000 1300000 0  400000 1300000 0  450000 1300000 0  500000 1300000 0  550000 1300000 0  600000 1300000 0  650000 1300000 0  700000 1300000 0  750000 1300000 0  800000 1300000 0  850000 1300000 0  900000 1300000 0  950000 1300000 0  1000000 1300000 0  0 1350000 0  50000 1350000 0  100000 1350000 0  150000 1350000 0  200000 1350000 0  250000 1350000 0  300000 1350000 0  350000 1350000 0  400000 1350000 0  450000 1350000 0  500000 1350000 0  550000 1350000 0  600000 1350000 0  650000 1350000 0  700000 135
[...]
<PointData  Vectors="f_19"> 
<DataArray  type="Float64"  Name="f_19"  NumberOfComponents="3" format="ascii">-2.4600648008480884e-08 -9.8294087611946888e-09 0.0000000000000000e+00  4.8472146451530221e-08 -5.9246654256058814e-09 0.0000000000000000e+00  4.2766239541323206e-08 -1.6475409898680524e-09 0.0000000000000000e+00  4.0335616205392177e-08 -3.0344468078015829e-10 0.0000000000000000e+00  3.9156579083403145e-08 1.5063164902698875e-10 0.0000000000000000e+00  3.8396368164091669e-08 3.3072955969210772e-10 0.0000000000000000e+00  3.7857932388656282e-08 4.0284074294488542e-10 0.0000000000000000e+00  3.7483879629503158e-08 4.2338336110645609e-10 0.0000000000000000e+00  3.7255535052516791e-08 4.1623117494680146e-10 0.0000000000000000e+00  3.7167285389255043e-08 3.9423438136599295e-10 0.0000000000000000e+00  3.7218916724464094e-08 3.6663297440249402e-10 0.0000000000000000e+00  3.7413974277533268e-08 3.4243859759201978e-10 0.0000000000000000e+00  3.7761523478684551e-08 3.3296987050657035e-10 0.0000000000000000e+00  3.8282395547581312e-08 3.5533867578778420e-10 0.0000000000000000e+00  3.9025455638138572e-08 4.3961835420361521e-10 0.0000000000000000e+00  4.0110261715770297e-08 6.4673287157487627e-10 0.0000000000000000e+00  4.1839434379799834e-08 1.1168452532073774e-09 0.0000000000000000e+00  4.4961903387521823e-08 2.1957823549780705e-09 0.0000000000000000e+00  5.0809718291540673e-08 4.7017692778715577e-09 0.0000000000000000e+00  5.8055220295975510e-08 9.2028321716266471e-09 0.0000000000000000e+00  -1.6399274855699585e-08 7.0958911005845681e-09 0.0000000000000000e+00  -1.8378028521268615e-08 -1.5386053101895724e-08 0.0000000000000000e+00  7.1108040467858321e-09 -1.1106626949413775e-08 0.0000000000000000e+00  1.7929904344960985e-08 -5.1849771095900979e-09 0.0000000000000000e+00  2.3011171076792488e-08 -2.3448903547440635e-09 0.0000000000000000e+00  2.5637997143245299e-08 -1.0975839399448885e-09 0.0000000000000000e+00  2.7137049323476290e-08 -5.1167313164978106e-10 0.0000000000000000e+00  2.8021310517353079e-08 -2.2010563759021398e-10 0.0000000000000000e+00  2.8550618943336500e-08 -7.2927063607541081e-11 0.0000000000000000e+00  2.8867691558231858e-08 -1.0250351802189594e-12 0.0000000000000000e+00  2.9051714810694671e-08 3.3102991939895553e-11 0.0000000000000000e+00  2.9143564601829945e-08 5.4156668883974206e-11 0.0000000000000000e+00  2.9157410855285129e-08 8.2685238212713429e-11 0.0000000000000000e+00  2.9084833686863022e-08 1.4080395782001588e-10 0.0000000000000000e+00  2.8893422034495657e-08 2.5876562969925290e-10 0.0000000000000000e+00  2.8518815200000046e-08 4.8674572253953481e-10 0.0000000000000000e+00  2.7844115994553057e-08 9.2080093859626087e-10 0.0000000000000000e+00  2.6644632389086444e-08 1.7638597347666380e-09 0.0000000000000000e+00  2.4410585822355466e-08 3.4616098553085899e-09 0.0000000000000000e+00  1.9700674049559816e-08 6.9041465011012459e-09 0.0000000000000000e+00  8.2709773387562004e-09 1.3055126700966270e-08 0.0000000000000000e+00  -1.8368387860922650e-08 1.1026278572200395e-08 0.0000000000000000e+00  -1.1423208050336044e-08 -1.8998311720985474e-08 0.0000000000000000e+00  -3.4644053953232415e-10 -1.8266809889091716e-08 0.0000000000000000e+00  5.6929182168277964e-09 -1.1341371612005190e-08 0.0000000000000000e+00  1.0543784870219919e-08 -6.6082347803329446e-09 0.0000000000000000e+00  1.4361309601580732e-08 -3.8603429635192733e-09 0.0000000000000000e+00  1.7027405892163952e-08 -2.2949944673821682e-09 0.0000000000000000e+00  1.8820936684605079e-08 -1.3775727922730580e-09 0.0000000000000000e+00  2.0003725496309804e-08 -8.1870345266495088e-10 0.0000000000000000e+00  2.0753484092987683e-08 -4.5967534736939693e-10 0.0000000000000000e+00  2.1179696668737304e-08 -2.0605409531561414e-10 0.0000000000000000e+00  2.1341703457245218e-08 6.5252118580235737e-12 0.0000000000000000e+00  2.1259633119460916e-08 2.3109722573963117e-10 0.0000000000000000e+00  2.0918373883199215e-08 5.2242294592555217e-10 0.0000000000000000e+00  2.0265183548237676e-08 9.5058101377517745e-10 0.0000000000000000e+00  1.9200322998974405e-08 1.6210428162094866e-09 0.0000000000000000e+00  1.7558801186861243e-08 2.7089596550933977e-09 0.0000000000000000e+00  1.5081897041878916e-08 4.5140912726738933e-09 0.0000000000000000e+00  1.1388730533339791e-08 7.5095214231176471e-09 0.0000000000000000e+00  6.0150397953979384e-09 1.2161388578478630e-08 0.0000000000000000e+00  -1.3010517445753097e-09 1.7612126832287543e-08 0.0000000000000000e+00  -1.3213638483419518e-08 1.4770229819122096e-08 0.0000000000000000e+00  -7.7448605553582298e-09 -1.9632133169574080e-08 0.0000000000000000e+00  -1.6049546993036558e-09 -1.9632783253149410e-08 0.0000000000000000e+00  1.0441115535135724e-09 -1.5266254406795323e-08 0.0000000000000000e+00  3.7745363082105205e-09 -1.0479057651924790e-08 0.0000000000000000e+00  6.6493464139052726e-09 -6.9373546146699978e-09 0.0000000000000000e+00  9.1679022408573837e-09 -4.5413943180444553e-09 0.0000000000000000e+00  1.1121507238268133e-08 -2.9453658375121838e-09 0.0000000000000000e+00  1.2527847889000062e-08 -1.8623576269825621e-09 0.0000000000000000e+00  1.3467669404167653e-08 -1.0934870446194294e-09 0.0000000000000000e+00  1.4013733529330380e-08 -5.0137078093544207e-10 0.0000000000000000e+00  1.4212314759872386e-08 1.6405111751524800e-11 0.0000000000000000e+00  1.4080163063651009e-08 5.4715777492258429e-10 0.0000000000000000e+00  1.3604528232267219e-08 1.1789720212400833e-09 0.0000000000000000e+00  1.2743292634353976e-08 2.0161303720980650e-09 0.0000000000000000e+00  1.1426409825707772e-08 3.1966749287289970e-09 0.0000000000000000e+00  9.5648492944668928e-09 4.9104888324362417e-09 0.0000000000000000e+00  7.0839165403730750e-09 7.4000680241247460e-09 0.0000000000000000e+00  4.0151034425613672e-09 1.0873419966820375e-08 0.0000000000000000e+00  6.5291828956665775e-10 1.5137436627104444e-08 0.0000000000000000e+00  -2.6434397753299938e-09 1.8768599929001003e-08 0.0000000000000000e+00  -8.9307374533709187e-09 1.7605125775029642e-08 0.0000000000000000e+00  -5.8944334350924722e-09 -1.9050312165405327e-08 0.0000000000000000e+00  -1.9288505166317233e-09 -1.9332184496577803e-08 0.0000000000000000e+00  -9.6460086999895228e-10 -1.6627125397983801e-08 0.0000000000000000e+00  1.3772350166748077e-10 -1.2823260566246257e-08 0.0000000000000000e+00  1.7483626851914394e-09 -9.3286812319422325e-09 0.0000000000000000e+00  3.5083067037293533e-09 -6.5721224822925142e-09 0.0000000000000000e+00  5.0912581055390291e-09 -4.5099112687418160e-09 0.0000000000000000e+00  6.3480906623912896e-09 -2.9747003146342356e-09 0.0000000000000000e+00  7.2415689683746943e-09 -1.7985119728866992e-09 0.0000000000000000e+00  7.7788021223530931e-09 -8.3915110455260624e-10 0.0000000000000000e+00  7.9744140897010311e-09 2.3121368017289811e-11 0.0000000000000000e+00  7.8352520084277045e-09 8.9607065971377993e-10 0.0000000000000000e+00  7.3560473546380844e-09 1.8867256420453829e-09 0.0000000000000000e+00  6.5219068619319295e-09 3.1115717456233721e-09 0.0000000000000000e+00  5.3188580316163615e-09 4.7031178298427834e-09 0.0000000000000000e+00  3.7584951114586769e-09 6.8042489248718999e-09 0.0000000000000000e+00  1.9260999508623645e-09 9.5269685614832312e-09 0.0000000000000000e+00  4.9292512741044002e-11 1.2827622695284033e-08 0.0000000000000000e+00  -1.5061749673147050e-09 1.6252082309242420e-08 0.0000000000000000e+00  -2.7585760060039434e-09 1.8703691747688153e-08 0.0000000000000000e+00  -6.6690746872061958e-09 1.8582520289507577e-08 0.0000000000000000e+00  -4.8495936085373500e-09 -1.7928261554880045e-08 0.0000000000000000e+00  -2.0956039170706922e-09 -1.8388336199879440e-08 0.0000000000000000e+00  -2.0164847072196265e-09 -1.6610716537382091e-08 0.0000000000000000e+00  -1.9521936429920712e-09 -1.3755773105154151e-08 0.0000000000000000e+00  -1.3786034676220759e-09 -1.0714319522037903e-08 0.0000000000000000e+00  -4.5502370983334656e-10 -7.9945468769828021e-09 0.0000000000000000e+00  5.5200640732180566e-10 -5.7417466557513294e-09 0.0000000000000000e+00  1.4507459185881506e-09 -3.9206590243808355e-09 0.0000000000000000e+00  2.1387321732269429e-09 -2.4302776834532487e-09 0.0000000000000000e+00  2.5711626348052274e-09 -1.1552121894482683e-09 0.0000000000000000e+00  2.7319914806512420e-09 1.7712948520221188e-11 0.0000000000000000e+00  2.6173006459729087e-09 1.1973875660140481e-09 0.0000000000000000e+00  2.2294054728653710e-09 2.4909410211145081e-09 0.0000000000000000e+00  1.5798089866175981e-09 4.0053820043035820e-09 0.0000000000000000e+00  7.0117555668017257e-10 5.8428501475737196e-09 0.0000000000000000e+00  -3.3047130888659193e-10 8.0804081237225238e-09 0.0000000000000000e+00  -1.3664087466565947e-09 1.0719813104686712e-08 0.0000000000000000e+00  -2.1732830245533861e-09 1.3594129716786242e-08 0.0000000000000000e+00  -2.5317344626244786e-09 1.6255753263344979e-08 0.0000000000000000e+00  -2.7373425927870640e-09 1.7990317212155935e-08 0.0000000000000000e+00  -5.3607462215667428e-09 1.8330847509435930e-08 0.0000000000000000e+00  -4.1875504674607056e-09 -1.6507880138998632e-08 0.0000000000000000e+00  -2.2245941584027130e-09 -1.7093676961456554e-08 0.0000000000000000e+00  -2.6706054811719221e-09 -1.5866778753334624e-08 0.0000000000000000e+00  -3.2595866974237548e-09 -1.3719552063036802e-08 0.0000000000000000e+00  -3.4374205811334471e-09 -1.1202176602297443e-08 0.0000000000000000e+00  -3.2260857941604364e-09 -8.7273364231843248e-09 0.0000000000000000e+00  -2.7980671601649210e-09 -6.4991057829884531e-09 0.0000000000000000e+00  -2.3197149528271536e-09 -4.5661907361756536e-09 0.0000000000000000e+00  -1.9075055894344254e-09 -2.8915692449139430e-09 0.0000000000000000e+00  -1.6301875449561585e-09 -1.3991524992511375e-09 0.0000000000000000e+00  -1.5222953639243343e-09 1.8483670056764288e-12 0.0000000000000000e+00  -1.5951646954229387e-09 1.4058462550082522e-09 0.0000000000000000e+00  -1.8416140976950001e-09 2.9053296420127951e-09 0.0000000000000000e+00  -2.2339246272200315e-09 4.5849817335562410e-09 0.0000000000000000e+00  -2.7157493656191093e-09 6.5100330473128267e-09 0.0000000000000000e+00  -3.1903763942463728e-09 8.7028837178217614e-09 0.0000000000000000e+00  -3.5137366327486244e-09 1.1103271023383993e-08 0.0000000000000000e+00  -3.5162165744777345e-09 1.3516937254262502e-08 0.0000000000000000e+00  -3.1158891557114644e-09 1.5586381476086432e-08 0.0000000000000000e+00  -2.7211444020286118e-09 1.6861085891746349e-08 0.0000000000000000e+00  -4.5298619345846941e-09 1.7423543873517170e-08 0.0000000000000000e+00  -3.7325035414644812e-09 -1.4889328131801738e-08 0.0000000000000000e+00  -2.3320527103466175e-09 -1.5567793264921764e-08 0.0000000000000000e+00  -3.1246278434979513e-09 -1.4691857298501519e-08 0.0000000000000000e+00  -4.1380563231181117e-09 -1.3055122721324152e-08 0.0000000000000000e+00  -4.8411173334641975e-09 -1.1008012874498706e-08 0.0000000000000000e+00  -5.1796346091763795e-09 -8.8515822768548177e-09 0.0000000000000000e+00  -5.2472059704287804e-09 -6.7786049802229384e-09 0.0000000000000000e+00  -5.1644023277802636e-09 -4.8732324306074020e-09 0.0000000000000000e+00  -5.0326353753698906e-09 -3.1419946783623284e-09 0.0000000000000000e+00  -4.9218843702847249e-09 -1.5453098607489332e-09 0.0000000000000000e+00  -4.8721238756094302e-09 -2.0129280603311105e-11 0.0000000000000000e+00  -4.8976587056286239e-09 1.5054803881501240e-09 0.0000000000000000e+00  -4.9895944692726144e-09 3.1019737273733749e-09 0.0000000000000000e+00  -5.1151128227313527e-09 4.8280853959330427e-09 0.0000000000000000e+00  -5.2144007868035137e-09 6.7170070960336314e-09 0.0000000000000000e+00  -5.1985932529617782e-09 8.7563561253469267e-09 0.0000000000000000e+00  -4.9565201136055769e-09 1.0862698866644433e-08 0.0000000000000000e+00  -4.3867664800225119e-09 1.2859673036584573e-08 0.0000000000000000e+00  -3.4951013606821811e-09 1.4483256673566276e-08 0.0000000000000000e+00  -2.7182288426294738e-09 1.5447669299880061e-08 0.0000000000000000e+00  -3.9667078375183925e-09 1.6136096921258984e-08 0.0000000000000000e+00  -3.4034167733260652e-09 -1.3126683366789834e-08 0.0000000000000000e+00  -2.4206104731697348e-09 -1.3875429164323609e-08 0.0000000000000000e+00  -3.4575037076027738e-09 -1.3237490080393439e-08 0.0000000000000000e+00  -4.7569181560257440e-09 -1.1976581600559013e-08 0.0000000000000000e+00  -5.8244255036344601e-09 -1.0324746862855577e-08 0.0000000000000000e+00  -6.5684051249563490e-09 -8.4946371485811043e-09 0.0000000000000000e+00  -7.0271071382504843e-09 -6.6447571499369519e-09 0.0000000000000000e+00  -7.2770486238883526e-09 -4.8645254494950800e-09 0.0000000000000000e+00  -7.3939772677028464e-09 -3.1835144500040227e-09 0.0000000000000000e+00  -7.4365275201351484e-09 -1.5891938717309067e-09 0.0000000000000000e+00  -7.4411322593257006e-09 -4.4074962162078497e-11 0.0000000000000000e+00  -7.4215815077990095e-09 1.5002576595564607e-09 0.0000000000000000e+00  -7.3695878403242303e-09 3.0913770753977254e-09 0.0000000000000000e+00  -7.2550712223051393e-09 4.7645528120591921e-09 0.0000000000000000e+00  -7.0268454044361433e-09 6.5298352648371461e-09 0.0000000000000000e+00  -6.6163944152518294e-09 8.3572646229909739e-09 0.0000000000000000e+00  -5.9499877563636590e-09 1.0162757343787322e-08 0.0000000000000000e+00  -4.9792505849483593e-09 1.1802093174899527e-08 0.0000000000000000e+00  -3.7591427304288091e-09 1.3086475119334974e-08 0.0000000000000000e+00  -2.7218036228693455e-09 1.3832404632755693e-08 0.0000000000000000e+00  -3.5681650905845528e-09 1.4603101566988687e-08 0.0000000000000000e+00  -3.1587193383012920e-09 -1.1256307611848112e-08 0.0000000000000000e+00  -2.4919296834940737e-09 -1.2059197964710947e-08 0.0000000000000000e+00  -3.7066395583479930e-09 -1.1592280933722225e-08 0.0000000000000000e+00  -5.2036709243175011e-09 -1.0618452645243677e-08 0.0000000000000000e+00  -6.5239754336252830e-09 -9.2972371736926919e-09 0.0000000000000000e+00  -7.5593680206615439e-09 -7.7775816096102712e-09 0.0000000000000000e+00  -8.3121041581020434e-09 -6.1818782640646293e-09 0.0000000000000000e+00  -8.8234394283999081e-09 -4.5905451716119490e-09 0.0000000000000000e+00  -9.1431204742396286e-09 -3.0416918263797598e-09 0.0000000000000000e+00  -9.3139758423222366e-09 -1.5397449496960473e-09 0.0000000000000000e+00  -9.3645380808003023e-09 -6.7014733779635520e-11 0.0000000000000000e+00  -9.3061413349178293e-09 1.4047584719162857e-09 0.0000000000000000e+00  -9.1323258698933140e-09 2.9035411904460164e-09 0.0000000000000000e+00  -8.8196737317188684e-09 4.4464410136027938e-09 0.0000000000000000e+00  -8.3304811892234913e-09 6.0290882101499434e-09 0.0000000000000000e+00  -7.6188958629162459e-09 7.6156115358158671e-09 0.0000000000000000e+00  -6.6434918699945212e-09 9.1317319359756094e-09 0.0000000000000000e+00  -5.3927164762523474e-09 1.0465785712531543e-08 0.0000000000000000e+00  -3.9477196396880794e-09 1.1484864058580411e-08 0.0000000000000000e+00  -2.7262200425614221e-09 1.2070512730391861e-08 0.0000000000000000e+00  -3.2781323141520226e-09 1.2899438463174946e-08 0.0000000000000000e+00  -2.9751586640377855e-09 -9.3057868269321973e-09 0.0000000000000000e+00  -2.5481559714404524e-09 -1.0150630825534684e-08 0.0000000000000000e+00  -3.8933575191958001e-09 -9.8136590976597240e-09 0.0000000000000000e+00  -5.5283461023098144e-09 -9.0688359042770521e-09 0.0000000000000000e+00  -7.0234593161670303e-09 -8.0294233235186188e-09 0.0000000000000000e+00  -8.2642834341072025e-09 -6.7995126793886103e-09 0.0000000000000000e+00  -9.2304879283656401e-09 -5.4703000028508176e-09 0.0000000000000000e+00  -9.9374478778866899e-09 -4.1081489762937231e-09 0.0000000000000000e+00  -1.0412891276354201e-08 -2.7510603137918912e-09 0.0000000000000000e+00  -1.0684148964614970e-08 -1.4122093727040730e-09 0.0000000000000000e+00  -1.0770836041843145e-08 -8.7203413257950063e-11 0.0000000000000000e+00  -1.0681169762524916e-08 1.2372886175994638e-09 0.0000000000000000e+00  -1.0410871158473095e-08 2.5746726728967777e-09 0.0000000000000000e+00  -9.9441802876256468e-09 3.9297753346511581e-09 0.0000000000000000e+00  -9.2571585410006851e-09 5.2908082666332333e-09 0.0000000000000000e+00  -8.3240513163340084e-09 6.6229293039526137e-09 0.0000000000000000e+00  -7.1282462439416400e-09 7.8653286676316817e-09 0.0000000000000000e+00  -5.6825568508612477e-09 8.9346216049220030e-09 0.0000000000000000e+00  -4.0818088501646793e-09 9.7384816061493771e-09 0.0000000000000000e+00  -2.7283690750836142e-09 1.0201315445589063e-08 0.0000000000000000e+00  -3.0637333961314487e-09 1.1072565710344133e-08 0.0000000000000000e+00  -2.8388984746041169e-09 -7.2971488226643412e-09 0.0000000000000000e+00  -2.5918159295985015e-09 -8.1743998981324803e-09 0.0000000000000000e+00  -4.0318551359675702e-09 -7.9415833089502915e-09 0.0000000000000000e+00  -5.7626096514555903e-09 -7.3878339350949355e-09 0.0000000000000000e+00  -7.3771923026786289e-09 -6.5954735685971155e-09 0.0000000000000000e+00  -8.7597518769259563e-09 -5.6367991528805646e-09 0.0000000000000000e+00  -9.8760755903150893e-09 -4.5777348763428003e-09 0.0000000000000000e+00  -1.0723512755005341e-08 -3.4698202405998273e-09 0.0000000000000000e+00  -1.1312879731368482e-08 -2.3463220968980269e-09 0.0000000000000000e+00  -1.1658501525951348e-08 -1.2232786794868675e-09 0.0000000000000000e+00  -1.1771927706580936e-08 -1.0382052854203368e-10 0.0000000000000000e+00  -1.1658389994996367e-08 1.0158163412603374e-09 0.0000000000000000e+00  -1.1315616193326085e-08 2.1396741777084747e-09 0.0000000000000000e+00  -1.0734810331194054e-08 3.2655751137823166e-09 0.0000000000000000e+00  -9.9038256782943617e-09 4.3794150987110184e-09 0.0000000000000000e+00  -8.8127810446606300e-09 5.4511825120839058e-09 0.0000000000000000e+00  -7.4629222116129644e-09 6.4340148054237650e-09 0.0000000000000000e+00  -5.8828272554902616e-09 7.2678101400566256e-09 0.0000000000000000e+00  -4.1744711869729413e-09 7.8898444507964995e-09 0.0000000000000000e+00  -2.7270276182930574e-09 8.2540157940091071e-09 0.0000000000000000e+00  -2.9048513835630361e-09 9.1555973834258632e-09 0.0000000000000000e+00  -2.7413702865343311e-09 -5.2483250312218498e-09 0.0000000000000000e+00  -2.6255254182423012e-09 -6.1502466651434996e-09 0.0000000000000000e+00  -4.1325240515038228e-09 -6.0051835837692469e-09 0.0000000000000000e+00  -5.9280673750675341e-09 -5.6178682294040916e-09 0.0000000000000000e+00  -7.6220365086295820e-09 -5.0487292002155425e-09 0.0000000000000000e+00  -9.0991806335095637e-09 -4.3469060471337735e-09 0.0000000000000000e+00  -1.0316959778488706e-08 -3.5580672351371586e-09 0.0000000000000000e+00  -1.1260726089204809e-08 -2.7197553027992175e-09 0.0000000000000000e+00  -1.1929222380592843e-08 -1.8582300419729667e-09 0.0000000000000000e+00  -1.2326922404962904e-08 -9.8846922790596300e-10 0.0000000000000000e+00  -1.2458966044273542e-08 -1.1661271021289142e-10 0.0000000000000000e+00  -1.2328113702368004e-08 7.5612006878019994e-10 0.0000000000000000e+00  -1.1933670744894409e-08 1.6288797936611671e-09 0.0000000000000000e+00  -1.1272350294480052e-08 2.4966878280805833e-09 0.0000000000000000e+00  -1.0341025815272603e-08 3.3466339160834228e-09 0.0000000000000000e+00  -9.1413617029628916e-09 4.1555031988187999e-09 0.0000000000000000e+00  -7.6868220896052108e-09 4.8896656048838369e-09 0.0000000000000000e+00  -6.0160111488441832e-09 5.5080430656698424e-09 0.0000000000000000e+00  -4.2347521080244551e-09 5.9700244547279983e-09 0.0000000000000000e+00  -2.7220811047895554e-09 6.2508736256928786e-09 0.0000000000000000e+00  -2.7889670340392420e-09 7.1730537350802638e-09 0.0000000000000000e+00  -2.6771742911159213e-09 -3.1740967313187974e-09 0.0000000000000000e+00  -2.6517180097617700e-09 -4.0941474207289087e-09 0.0000000000000000e+00  -4.2031830641931910e-09 -4.0264406406583960e-09 0.0000000000000000e+00  -6.0399078119715470e-09 -3.7898514889650543e-09 0.0000000000000000e+00  -7.7833612104067066e-09 -3.4282146576670171e-09 0.0000000000000000e+00  -9.3196188908611309e-09 -2.9729801532585058e-09 0.0000000000000000e+00  -1.0601422818528711e-08 -2.4532178148037458e