<?xml version="1.0"?>
<VTKFile type="UnstructuredGrid"  version="0.1"  >
<UnstructuredGrid>
<Piece  NumberOfPoints="651" NumberOfCells="1200">
<Points>
<DataArray  type="Float64"  NumberOfComponents="3"  format="ascii">0 0 0  50000 0 0  100000 0 0  150000 0 0  200000 0 0  250000 0 0  300000 0 0  350000 0 0  400000 0 0  450000 0 0  500000 0 0  550000 0 0  600000 0 0  650000 0 0  700000 0 0  750000 0 0  800000 0 0  850000 0 0  900000 0 0  950000 0 0  1000000 0 0  0 50000 0  50000 50000 0  100000 50000 0  150000 50000 0  200000 50000 0  250000 50000 0  300000 50000 0  350000 50000 0  400000 50000 0  450000 50000 0  500000 50000 0  550000 50000 0  600000 50000 0  650000 50000 0  700000 50000 0  750000 50000 0  800000 50000 0  850000 50000 0  900000 50000 0  950000 50000 0  1000000 50000 0  0 100000 0  50000 100000 0  100000 100000 0  150000 100000 0  200000 100000 0  250000 100000 0  300000 100000 0  350000 100000 0  400000 100000 0  450000 100000 0  500000 100000 0  550000 100000 0  600000 100000 0  650000 100000 0  700000 100000 0  750000 100000 0  800000 100000 0  850000 100000 0  900000 100000 0  950000 100000 0  1000000 100000 0  0 150000 0  50000 150000 0  100000 150000 0  150000 150000 0  200000 150000 0  250000 150000 0  300000 150000 0  350000 150000 0  400000 150000 0  450000 150000 0  500000 150000 0  550000 150000 0  600000 150000 0  650000 150000 0  700000 150000 0  750000 150000 0  800000 150000 0  850000 150000 0  900000 150000 0  950000 150000 0  1000000 150000 0  0 200000 0  50000 200000 0  100000 200000 0  150000 200000 0  200000 200000 0  250000 200000 0  300000 200000 0  350000 200000 0  400000 200000 0  450000 200000 0  500000 200000 0  550000 200000 0  600000 200000 0  650000 200000 0  700000 200000 0  750000 200000 0  800000 200000 0  850000 200000 0  900000 200000 0  950000 200000 0  1000000 200000 0  0 250000 0  50000 250000 0  100000 250000 0  150000 250000 0  200000 250000 0  250000 250000 0  300000 250000 0  350000 250000 0  400000 250000 0  450000 250000 0  500000 250000 0  550000 250000 0  600000 250000 0  650000 250000 0  700000 250000 0  750000 250000 0  800000 250000 0  850000 250000 0  900000 250000 0  950000 250000 0  1000000 250000 0  0 300000 0  50000 300000 0  100000 300000 0  150000 300000 0  200000 300000 0  250000 300000 0  300000 300000 0  350000 300000 0  400000 300000 0  450000 300000 0  500000 300000 0  550000 300000 0  600000 300000 0  650000 300000 0  700000 300000 0  750000 300000 0  800000 300000 0  850000 300000 0  900000 300000 0  950000 300000 0  1000000 300000 0  0 350000 0  50000 350000 0  100000 350000 0  150000 350000 0  200000 350000 0  250000 350000 0  300000 350000 0  350000 350000 0  400000 350000 0  450000 350000 0  500000 350000 0  550000 350000 0  600000 350000 0  650000 350000 0  700000 350000 0  750000 350000 0  800000 350000 0  850000 350000 0  900000 350000 0  950000 350000 0  1000000 350000 0  0 400000 0  50000 400000 0  100000 400000 0  150000 400000 0  200000 400000 0  250000 400000 0  300000 400000 0  350000 400000 0  400000 400000 0  450000 400000 0  500000 400000 0  550000 400000 0  600000 400000 0  650000 400000 0  700000 400000 0  750000 400000 0  800000 400000 0  850000 400000 0  900000 400000 0  950000 400000 0  1000000 400000 0  0 450000 0  50000 450000 0  100000 450000 0  150000 450000 0  200000 450000 0  250000 450000 0  300000 450000 0  350000 450000 0  400000 450000 0  450000 450000 0  500000 450000 0  550000 450000 0  600000 450000 0  650000 450000 0  700000 450000 0  750000 450000 0  800000 450000 0  850000 450000 0  900000 450000 0  950000 450000 0  1000000 450000 0  0 500000 0  50000 500000 0  100000 500000 0  150000 500000 0  200000 500000 0  250000 500000 0  300000 500000 0  350000 500000 0  400000 500000 0  450000 500000 0  500000 500000 0  550000 500000 0  600000 500000 0  650000 500000 0  700000 500000 0  750000 500000 0  800000 500000 0  850000 500000 0  900000 500000 0  950000 500000 0  1000000 500000 0  0 550000 0  50000 550000 0  100000 550000 0  150000 550000 0  200000 550000 0  250000 550000 0  300000 550000 0  350000 550000 0  400000 550000 0  450000 550000 0  500000 550000 0  550000 550000 0  600000 550000 0  650000 550000 0  700000 550000 0  750000 550000 0  800000 550000 0  850000 550000 0  900000 550000 0  950000 550000 0  1000000 550000 0  0 600000 0  50000 600000 0  100000 600000 0  150000 600000 0  200000 600000 0  250000 600000 0  300000 600000 0  350000 600000 0  400000 600000 0  450000 600000 0  500000 600000 0  550000 600000 0  600000 600000 0  650000 600000 0  700000 600000 0  750000 600000 0  800000 600000 0  850000 600000 0  900000 600000 0  950000 600000 0  1000000 600000 0  0 650000 0  50000 650000 0  100000 650000 0  150000 650000 0  200000 650000 0  250000 650000 0  300000 650000 0  350000 650000 0  400000 650000 0  450000 650000 0  500000 650000 0  550000 650000 0  600000 650000 0  650000 650000 0  700000 650000 0  750000 650000 0  800000 650000 0  850000 650000 0  900000 650000 0  950000 650000 0  1000000 650000 0  0 700000 0  50000 700000 0  100000 700000 0  150000 700000 0  200000 700000 0  250000 700000 0  300000 700000 0  350000 700000 0  400000 700000 0  450000 700000 0  500000 700000 0  550000 700000 0  600000 700000 0  650000 700000 0  700000 700000 0  750000 700000 0  800000 700000 0  850000 700000 0  900000 700000 0  950000 700000 0  1000000 700000 0  0 750000 0  50000 750000 0  100000 750000 0  150000 750000 0  200000 750000 0  250000 750000 0  300000 750000 0  350000 750000 0  400000 750000 0  450000 750000 0  500000 750000 0  550000 750000 0  600000 750000 0  650000 750000 0  700000 750000 0  750000 750000 0  800000 750000 0  850000 750000 0  900000 750000 0  950000 750000 0  1000000 750000 0  0 800000 0  50000 800000 0  100000 800000 0  150000 800000 0  200000 800000 0  250000 800000 0  300000 800000 0  350000 800000 0  400000 800000 0  450000 800000 0  500000 800000 0  550000 800000 0  600000 800000 0  650000 800000 0  700000 800000 0  750000 800000 0  800000 800000 0  850000 800000 0  900000 800000 0  950000 800000 0  1000000 800000 0  0 850000 0  50000 850000 0  100000 850000 0  150000 850000 0  200000 850000 0  250000 850000 0  300000 850000 0  350000 850000 0  400000 850000 0  450000 850000 0  500000 850000 0  550000 850000 0  600000 850000 0  650000 850000 0  700000 850000 0  750000 850000 0  800000 850000 0  850000 850000 0  900000 850000 0  950000 850000 0  1000000 850000 0  0 900000 0  50000 900000 0  100000 900000 0  150000 900000 0  200000 900000 0  250000 900000 0  300000 900000 0  350000 900000 0  400000 900000 0  450000 900000 0  500000 900000 0  550000 900000 0  600000 900000 0  650000 900000 0  700000 900000 0  750000 900000 0  800000 900000 0  850000 900000 0  900000 900000 0  950000 900000 0  1000000 900000 0  0 950000 0  50000 950000 0  100000 950000 0  150000 950000 0  200000 950000 0  250000 950000 0  300000 950000 0  350000 950000 0  400000 950000 0  450000 950000 0  500000 950000 0  550000 950000 0  600000 950000 0  650000 950000 0  700000 950000 0  750000 950000 0  800000 950000 0  850000 950000 0  900000 950000 0  950000 950000 0  1000000 950000 0  0 1000000 0  50000 1000000 0  100000 1000000 0  150000 1000000 0  200000 1000000 0  250000 1000000 0  300000 1000000 0  350000 1000000 0  400000 1000000 0  450000 1000000 0  500000 1000000 0  550000 1000000 0  600000 1000000 0  650000 1000000 0  700000 1000000 0  750000 1000000 0  800000 1000000 0  850000 1000000 0  900000 1000000 0  950000 1000000 0  1000000 1000000 0  0 1050000 0  50000 1050000 0  100000 1050000 0  150000 1050000 0  200000 1050000 0  250000 1050000 0  300000 1050000 0  350000 1050000 0  400000 1050000 0  450000 1050000 0  500000 1050000 0  550000 1050000 0  600000 1050000 0  650000 1050000 0  700000 1050000 0  750000 1050000 0  800000 1050000 0  850000 1050000 0  900000 1050000 0  950000 1050000 0  1000000 1050000 0  0 1100000 0  50000 1100000 0  100000 1100000 0  150000 1100000 0  200000 1100000 0  250000 1100000 0  300000 1100000 0  350000 1100000 0  400000 1100000 0  450000 1100000 0  500000 1100000 0  550000 1100000 0  600000 1100000 0  650000 1100000 0  700000 1100000 0  750000 1100000 0  800000 1100000 0  850000 1100000 0  900000 1100000 0  950000 1100000 0  1000000 1100000 0  0 1150000 0  50000 1150000 0  100000 1150000 0  150000 1150000 0  200000 1150000 0  250000 1150000 0  300000 1150000 0  350000 1150000 0  400000 1150000 0  450000 1150000 0  500000 1150000 0  550000 1150000 0  600000 1150000 0  650000 1150000 0  700000 1150000 0  750000 1150000 0  800000 1150000 0  850000 1150000 0  900000 1150000 0  950000 1150000 0  1000000 1150000 0  0 1200000 0  50000 1200000 0  100000 1200000 0  150000 1200000 0  200000 1200000 0  250000 1200000 0  300000 1200000 0  350000 1200000 0  400000 1200000 0  450000 1200000 0  500000 1200000 0  550000 1200000 0  600000 1200000 0  650000 1200000 0  700000 1200000 0  750000 1200000 0  800000 1200000 0  850000 1200000 0  900000 1200000 0  950000 1200000 0  1000000 1200000 0  0 1250000 0  50000 1250000 0  100000 1250000 0  150000 1250000 0  200000 1250000 0  250000 1250000 0  300000 1250000 0  350000 1250000 0  400000 1250000 0  450000 1250000 0  500000 1250000 0  550000 1250000 0  600000 1250000 0  650000 1250000 0  700000 1250000 0  750000 1250000 0  800000 1250000 0  850000 1250000 0  900000 1250000 0  950000 1250000 0  1000000 1250000 0  0 1300000 0  50000 1300000 0  100000 1300000 0  150000 1300000 0  200000 1300000 0  250000 1300000 0  300000 1300000 0  350000 1300000 0  400000 1300000 0  450000 1300000 0  500000 1300000 0  550000 1300000 0  600000 1300000 0  650000 1300000 0  700000 1300000 0  750000 1300000 0  800000 1300000 0  850000 1300000 0  900000 1300000 0  950000 1300000 0  1000000 1300000 0  0 1350000 0  50000 1350000 0  100000 1350000 0  150000 1350000 0  200000 1350000 0  250000 1350000 0  300000 1350000 0  350000 1350000 0  400000 1350000 0  450000 1350000 0  500000 1350000 0  550000 1350000 0  600000 1350000 0  650000 1350000 0  700000 135
[...]
<PointData  Vectors="f_19"> 
<DataArray  type="Float64"  Name="f_19"  NumberOfComponents="3" format="ascii">-2.4303828503802239e-08 -1.0580310481439515e-08 0.0000000000000000e+00  4.8738570420635264e-08 -6.6531169990307844e-09 0.0000000000000000e+00  4.2995336587803017e-08 -2.3355659362629677e-09 0.0000000000000000e+00  4.0532126554789887e-08 -9.5516370313232265e-10 0.0000000000000000e+00  3.9320953703534846e-08 -4.6886449744462925e-10 0.0000000000000000e+00  3.8528865921025246e-08 -2.5742638213735944e-10 0.0000000000000000e+00  3.7958910289757048e-08 -1.5301396450268850e-10 0.0000000000000000e+00  3.7554128284385622e-08 -9.8099582949587117e-11 0.0000000000000000e+00  3.7296550157085359e-08 -6.8118527264955220e-11 0.0000000000000000e+00  3.7181458058277092e-08 -4.9922727155113921e-11 0.0000000000000000e+00  3.7209637334056805e-08 -3.4406775952068251e-11 0.0000000000000000e+00  3.7385611537636322e-08 -1.3166384414712831e-11 0.0000000000000000e+00  3.7719231981964349e-08 2.4030308565000480e-11 0.0000000000000000e+00  3.8231718767791437e-08 9.2786404441697505e-11 0.0000000000000000e+00  3.8971726908185310e-08 2.2138433064482849e-10 0.0000000000000000e+00  4.0057859887186311e-08 4.6889119156517053e-10 0.0000000000000000e+00  4.1791008210947285e-08 9.7379673256098799e-10 0.0000000000000000e+00  4.4917719965552416e-08 2.0806397772990698e-09 0.0000000000000000e+00  5.0767407521063152e-08 4.6068282722989250e-09 0.0000000000000000e+00  5.8010864131008791e-08 9.1200044835686425e-09 0.0000000000000000e+00  -1.6444132940203862e-08 7.0127023721068873e-09 0.0000000000000000e+00  -1.8052577611454536e-08 -1.6122398587848540e-08 0.0000000000000000e+00  7.2921671743201924e-09 -1.1368341882821337e-08 0.0000000000000000e+00  1.8210985405031474e-08 -5.2661756325724770e-09 0.0000000000000000e+00  2.3263840210628835e-08 -2.4098791383550040e-09 0.0000000000000000e+00  2.5837699221463808e-08 -1.1553524915631284e-09 0.0000000000000000e+00  2.7289714470414276e-08 -5.6467148907460161e-10 0.0000000000000000e+00  2.8131559152605196e-08 -2.6915516576487065e-10 0.0000000000000000e+00  2.8622232141378968e-08 -1.1842526138981612e-10 0.0000000000000000e+00  2.8904769254439683e-08 -4.3477830024459681e-11 0.0000000000000000e+00  2.9058888549445785e-08 -7.0106206703705260e-12 0.0000000000000000e+00  2.9126074018354029e-08 1.5500383545383242e-11 0.0000000000000000e+00  2.9121090063982611e-08 4.4503595533801488e-11 0.0000000000000000e+00  2.9035963338047105e-08 1.0213772087185784e-10 0.0000000000000000e+00  2.8838444541616536e-08 2.1884131983717115e-10 0.0000000000000000e+00  2.8463944227120752e-08 4.4513991893207440e-10 0.0000000000000000e+00  2.7794902611933120e-08 8.7754360969405712e-10 0.0000000000000000e+00  2.6605548979379829e-08 1.7194010315263980e-09 0.0000000000000000e+00  2.4384451288529445e-08 3.4166703778380530e-09 0.0000000000000000e+00  1.9686841212994979e-08 6.8595502493174673e-09 0.0000000000000000e+00  8.2651750421214226e-09 1.3010924575195518e-08 0.0000000000000000e+00  -1.8411792525245587e-08 1.0945330041248791e-08 0.0000000000000000e+00  -1.1059350779410698e-08 -1.9694029564806529e-08 0.0000000000000000e+00  -2.4182498679758933e-10 -1.8523348032154908e-08 0.0000000000000000e+00  5.8882308720827680e-09 -1.1326832022641153e-08 0.0000000000000000e+00  1.0776793298843580e-08 -6.5419221771817331e-09 0.0000000000000000e+00  1.4584314644169184e-08 -3.7811630374850857e-09 0.0000000000000000e+00  1.7220507629507155e-08 -2.2138334965849525e-09 0.0000000000000000e+00  1.8980206535556349e-08 -1.2984396153208000e-09 0.0000000000000000e+00  2.0130327176018810e-08 -7.4351551761564757e-10 0.0000000000000000e+00  2.0850326227876932e-08 -3.9001021722700364e-10 0.0000000000000000e+00  2.1250522556234744e-08 -1.4363691732130503e-10 0.0000000000000000e+00  2.1390703396368006e-08 5.9810419431174913e-11 0.0000000000000000e+00  2.1291206780264577e-08 2.7337406559166096e-10 0.0000000000000000e+00  2.0936940266422416e-08 5.5207704863550624e-10 0.0000000000000000e+00  2.0275002365112637e-08 9.6654871956937890e-10 0.0000000000000000e+00  1.9205325338642753e-08 1.6230671645713913e-09 0.0000000000000000e+00  1.7562432614759381e-08 2.6977289469267287e-09 0.0000000000000000e+00  1.5086940394258621e-08 4.4911802765542090e-09 0.0000000000000000e+00  1.1396991958482040e-08 7.4771122906642237e-09 0.0000000000000000e+00  6.0264536100816793e-09 1.2121685145153632e-08 0.0000000000000000e+00  -1.2865781386434268e-09 1.7573875172972610e-08 0.0000000000000000e+00  -1.3244562547894590e-08 1.4693131970990321e-08 0.0000000000000000e+00  -7.3500823650572475e-09 -2.0285354696863012e-08 0.0000000000000000e+00  -1.5461851205183368e-09 -1.9970605943187175e-08 0.0000000000000000e+00  1.1414093141252903e-09 -1.5304926858804780e-08 0.0000000000000000e+00  3.9257318292407143e-09 -1.0410541205907101e-08 0.0000000000000000e+00  6.8239960144793780e-09 -6.8307708144219550e-09 0.0000000000000000e+00  9.3397231621287258e-09 -4.4229452688146830e-09 0.0000000000000000e+00  1.1277257206144966e-08 -2.8263369386554870e-09 0.0000000000000000e+00  1.2662459562105009e-08 -1.7483828340761232e-09 0.0000000000000000e+00  1.3580341264042890e-08 -9.8804988044521735e-10 0.0000000000000000e+00  1.4105803142998881e-08 -4.0718125363996772e-10 0.0000000000000000e+00  1.4286185624822897e-08 9.6969184076135794e-11 0.0000000000000000e+00  1.4138725282888858e-08 6.1203008552747681e-10 0.0000000000000000e+00  1.3650816239036159e-08 1.2265678819121141e-09 0.0000000000000000e+00  1.2780273560452213e-08 2.0455874417635813e-09 0.0000000000000000e+00  1.1456851254228002e-08 3.2080757173127143e-09 0.0000000000000000e+00  9.5912237916808955e-09 4.9049874262240938e-09 0.0000000000000000e+00  7.1082770690013682e-09 7.3798705699839290e-09 0.0000000000000000e+00  4.0387911389601128e-09 1.0841683994429763e-08 0.0000000000000000e+00  6.7542867038196324e-10 1.5098640816986256e-08 0.0000000000000000e+00  -2.6196061737778719e-09 1.8741364395242308e-08 0.0000000000000000e+00  -8.9410481451096703e-09 1.7536606882421111e-08 0.0000000000000000e+00  -5.4752888169143195e-09 -1.9662167858937934e-08 0.0000000000000000e+00  -1.8883944917063676e-09 -1.9711741629162976e-08 0.0000000000000000e+00  -9.2734094553583891e-10 -1.6729663156603673e-08 0.0000000000000000e+00  2.1722693121717110e-10 -1.2790664013679609e-08 0.0000000000000000e+00  1.8620889663382692e-09 -9.2311937427473563e-09 0.0000000000000000e+00  3.6368459755422383e-09 -6.4464265636647042e-09 0.0000000000000000e+00  5.2198545172596840e-09 -4.3752141936827174e-09 0.0000000000000000e+00  6.4681579297024853e-09 -2.8415868408166584e-09 0.0000000000000000e+00  7.3489921630235445e-09 -1.6733885889552900e-09 0.0000000000000000e+00  7.8722655225078404e-09 -7.2637806064116948e-10 0.0000000000000000e+00  8.0542342101125302e-09 1.2029195157706552e-10 0.0000000000000000e+00  7.9026367489288397e-09 9.7516901586892316e-10 0.0000000000000000e+00  7.4126418873959288e-09 1.9460478118815525e-09 0.0000000000000000e+00  6.5695223823829789e-09 3.1503030934787305e-09 0.0000000000000000e+00  5.3593111074084274e-09 4.7214905854645753e-09 0.0000000000000000e+00  3.7934920228018309e-09 6.8036673811581532e-09 0.0000000000000000e+00  1.9570820563924860e-09 9.5100945244313543e-09 0.0000000000000000e+00  7.7104310239905284e-11 1.2798614631923824e-08 0.0000000000000000e+00  -1.4821710764486187e-09 1.6217894838071960e-08 0.0000000000000000e+00  -2.7302961444257891e-09 1.8690830180242676e-08 0.0000000000000000e+00  -6.6511213932051978e-09 1.8524894413637596e-08 0.0000000000000000e+00  -4.4105105717715989e-09 -1.8499922138576144e-08 0.0000000000000000e+00  -2.0626919407212957e-09 -1.8777540904147413e-08 0.0000000000000000e+00  -2.0155234420692908e-09 -1.6758663245108151e-08 0.0000000000000000e+00  -1.9250154449563082e-09 -1.3763090407128826e-08 0.0000000000000000e+00  -1.3191915953481101e-09 -1.0640217215586519e-08 0.0000000000000000e+00  -3.7374514438319143e-10 -7.8774132339557718e-09 0.0000000000000000e+00  6.4352390469953997e-10 -5.6053742543006391e-09 0.0000000000000000e+00  1.5436551950226557e-09 -3.7797927992812916e-09 0.0000000000000000e+00  2.2273514806242237e-09 -2.2943406914449705e-09 0.0000000000000000e+00  2.6523213828523364e-09 -1.0305426973940044e-09 0.0000000000000000e+00  2.8042594428947611e-09 1.2665084282824122e-10 0.0000000000000000e+00  2.6803659129769073e-09 1.2874300308972131e-09 0.0000000000000000e+00  2.2836363448636161e-09 2.5600200858642651e-09 0.0000000000000000e+00  1.6259675093344581e-09 4.0525205627721213e-09 0.0000000000000000e+00  7.4023226136908635e-10 5.8682510773004515e-09 0.0000000000000000e+00  -2.9748121021657993e-10 8.0855852280357422e-09 0.0000000000000000e+00  -1.3385587379381228e-09 1.0707790229215521e-08 0.0000000000000000e+00  -2.1500134175560697e-09 1.3569968735883540e-08 0.0000000000000000e+00  -2.5130568951741417e-09 1.6228434916316269e-08 0.0000000000000000e+00  -2.7077934883985025e-09 1.7992340258338613e-08 0.0000000000000000e+00  -5.3075593877953484e-09 1.8283666784271260e-08 0.0000000000000000e+00  -3.7321158273972381e-09 -1.7040483125953383e-08 0.0000000000000000e+00  -2.1944039427547364e-09 -1.7475429289566968e-08 0.0000000000000000e+00  -2.6924601686038252e-09 -1.6040888169066974e-08 0.0000000000000000e+00  -3.2693512882680226e-09 -1.3759185073576336e-08 0.0000000000000000e+00  -3.4217165372705148e-09 -1.1153861332669717e-08 0.0000000000000000e+00  -3.1881880946280026e-09 -8.6260862883554228e-09 0.0000000000000000e+00  -2.7453538644965411e-09 -6.3697129557781465e-09 0.0000000000000000e+00  -2.2594190004537877e-09 -4.4256979208038131e-09 0.0000000000000000e+00  -1.8453272016826152e-09 -2.7516599255866158e-09 0.0000000000000000e+00  -1.5701136525101720e-09 -1.2679528632104665e-09 0.0000000000000000e+00  -1.4668614141167188e-09 1.1860025518637264e-10 0.0000000000000000e+00  -1.5458113396230638e-09 1.5041322438512155e-09 0.0000000000000000e+00  -1.7990015707563056e-09 2.9825292020553294e-09 0.0000000000000000e+00  -2.1981698316407482e-09 4.6397701223057648e-09 0.0000000000000000e+00  -2.6865977499645151e-09 6.5424158414579020e-09 0.0000000000000000e+00  -3.1673422969571531e-09 8.7143317876887411e-09 0.0000000000000000e+00  -3.4962464046268801e-09 1.1096998862444905e-08 0.0000000000000000e+00  -3.5036935495337851e-09 1.3498601855378535e-08 0.0000000000000000e+00  -3.1070900726670284e-09 1.5566270361888258e-08 0.0000000000000000e+00  -2.6922512930318385e-09 1.6875751065237874e-08 0.0000000000000000e+00  -4.4356682281806076e-09 1.7383902500470307e-08 0.0000000000000000e+00  -3.2639966582320130e-09 -1.5383858068548979e-08 0.0000000000000000e+00  -2.3024051932884908e-09 -1.5932135356624518e-08 0.0000000000000000e+00  -3.1614670983466328e-09 -1.4877793261751472e-08 0.0000000000000000e+00  -4.1740705978671686e-09 -1.3117198974880430e-08 0.0000000000000000e+00  -4.8593888192211485e-09 -1.0982221945061524e-08 0.0000000000000000e+00  -5.1787656246789668e-09 -8.7678996577609971e-09 0.0000000000000000e+00  -5.2308152382950226e-09 -6.6604987937265902e-09 0.0000000000000000e+00  -5.1375123218428475e-09 -4.7382866466813484e-09 0.0000000000000000e+00  -5.0000651007169441e-09 -3.0031021482325321e-09 0.0000000000000000e+00  -4.8876151895813312e-09 -1.4118628806437625e-09 0.0000000000000000e+00  -4.8391636229249430e-09 1.0105285180695384e-10 0.0000000000000000e+00  -4.8681232802792256e-09 1.6095345191042860e-09 0.0000000000000000e+00  -4.9648541847047331e-09 3.1856426870485128e-09 0.0000000000000000e+00  -5.0959346425820829e-09 4.8895699029684647e-09 0.0000000000000000e+00  -5.2010668213240341e-09 6.7559679768231015e-09 0.0000000000000000e+00  -5.1909992031232774e-09 8.7740477072588689e-09 0.0000000000000000e+00  -4.9542454830855144e-09 1.0862281154184326e-08 0.0000000000000000e+00  -4.3889391591872313e-09 1.2846972567942326e-08 0.0000000000000000e+00  -3.4988058513946759e-09 1.4469065515751292e-08 0.0000000000000000e+00  -2.6909620658230389e-09 1.5470651123673783e-08 0.0000000000000000e+00  -3.8273950105720220e-09 1.6099210016001648e-08 0.0000000000000000e+00  -2.9250215231048283e-09 -1.3583914806836670e-08 0.0000000000000000e+00  -2.3906657548429161e-09 -1.4216011657984205e-08 0.0000000000000000e+00  -3.5047125772683215e-09 -1.3425035083606750e-08 0.0000000000000000e+00  -4.8119401210957214e-09 -1.2052087075126372e-08 0.0000000000000000e+00  -5.8688652532956211e-09 -1.0316194994349414e-08 0.0000000000000000e+00  -6.5980473437105934e-09 -8.4269944128902614e-09 0.0000000000000000e+00  -7.0427472945532451e-09 -6.5390863655622337e-09 0.0000000000000000e+00  -7.2816133772140133e-09 -4.7377405892684449e-09 0.0000000000000000e+00  -7.3910670584067744e-09 -3.0487743757497521e-09 0.0000000000000000e+00  -7.4296309782388915e-09 -1.4565510705488440e-09 0.0000000000000000e+00  -7.4332557749423384e-09 7.8897609352359596e-11 0.0000000000000000e+00  -7.4151177696695998e-09 1.6079850386767678e-09 0.0000000000000000e+00  -7.3663017427817315e-09 3.1799745264040145e-09 0.0000000000000000e+00  -7.2561309628250914e-09 4.8316784968307823e-09 0.0000000000000000e+00  -7.0328625959382587e-09 6.5746825922824527e-09 0.0000000000000000e+00  -6.6274538086727590e-09 8.3806895226979611e-09 0.0000000000000000e+00  -5.9656218538883334e-09 1.0167586632548068e-08 0.0000000000000000e+00  -4.9980756009838027e-09 1.1793866776375212e-08 0.0000000000000000e+00  -3.7763452177443933e-09 1.3075714036279641e-08 0.0000000000000000e+00  -2.6963939268119363e-09 1.3858033865416996e-08 0.0000000000000000e+00  -3.3815706221960374e-09 1.4563032729397192e-08 0.0000000000000000e+00  -2.6736565900820186e-09 -1.1676807253151570e-08 0.0000000000000000e+00  -2.4615180454371822e-09 -1.2371805381797421e-08 0.0000000000000000e+00  -3.7614039177640149e-09 -1.1774097036041735e-08 0.0000000000000000e+00  -5.2727317870223981e-09 -1.0699971572654076e-08 0.0000000000000000e+00  -6.5885291797343380e-09 -9.3004052553865057e-09 0.0000000000000000e+00  -7.6136187295352551e-09 -7.7229726609285443e-09 0.0000000000000000e+00  -8.3549118078722343e-09 -6.0878374410423354e-09 0.0000000000000000e+00  -8.8560301757687164e-09 -4.4726387335413462e-09 0.0000000000000000e+00  -9.1678881895485553e-09 -2.9126623749217327e-09 0.0000000000000000e+00  -9.3337136361436841e-09 -1.4097740190518644e-09 0.0000000000000000e+00  -9.3819655485161842e-09 5.5919179052827137e-11 0.0000000000000000e+00  -9.3236369332663485e-09 1.5145567851139690e-09 0.0000000000000000e+00  -9.1517856141386650e-09 2.9957570512823809e-09 0.0000000000000000e+00  -8.8424374578841714e-09 4.5181642961753871e-09 0.0000000000000000e+00  -8.3572870190062982e-09 6.0789451384581753e-09 0.0000000000000000e+00  -7.6498305627467412e-09 7.6438839154497650e-09 0.0000000000000000e+00  -6.6778659232018460e-09 9.1406373295110075e-09 0.0000000000000000e+00  -5.4284871328538748e-09 1.0460149206928925e-08 0.0000000000000000e+00  -3.9781059520086046e-09 1.1474254319919775e-08 0.0000000000000000e+00  -2.7023683005542213e-09 1.2092456108473990e-08 0.0000000000000000e+00  -3.0440939430518508e-09 1.2849838768595462e-08 0.0000000000000000e+00  -2.4867857215377327e-09 -9.6899426980185643e-09 0.0000000000000000e+00  -2.5174433809338974e-09 -1.0432406408665168e-08 0.0000000000000000e+00  -3.9538463624768929e-09 -9.9844565076528221e-09 0.0000000000000000e+00  -5.6078841839738463e-09 -9.1505396111841097e-09 0.0000000000000000e+00  -7.1033705691015573e-09 -8.0393395204535833e-09 0.0000000000000000e+00  -8.3379686215053988e-09 -6.7545159855223833e-09 0.0000000000000000e+00  -9.2955703366215006e-09 -5.3860809126166488e-09 0.0000000000000000e+00  -9.9939000360764381e-09 -3.9986245634591990e-09 0.0000000000000000e+00  -1.0462083144924070e-08 -2.6281339278996284e-09 0.0000000000000000e+00  -1.0728165281331587e-08 -1.2857973590959231e-09 0.0000000000000000e+00  -1.0811983015132248e-08 3.4608382066816490e-11 0.0000000000000000e+00  -1.0721634493420593e-08 1.3480646718778368e-09 0.0000000000000000e+00  -1.0452491334145813e-08 2.6694878155426246e-09 0.0000000000000000e+00  -9.9882835746958859e-09 4.0051465930099339e-09 0.0000000000000000e+00  -9.3044372638121177e-09 5.3447118553502439e-09 0.0000000000000000e+00  -8.3744360812417650e-09 6.6549122386475797e-09 0.0000000000000000e+00  -7.1806907629985773e-09 7.8767492781718893e-09 0.0000000000000000e+00  -5.7342775978243597e-09 8.9292241996974624e-09 0.0000000000000000e+00  -4.1241095078852452e-09 9.7243356996160619e-09 0.0000000000000000e+00  -2.7054629469443613e-09 1.0213161764417582e-08 0.0000000000000000e+00  -2.7839169137395488e-09 1.1007304322903003e-08 0.0000000000000000e+00  -2.3507881272426179e-09 -7.6452178386051428e-09 0.0000000000000000e+00  -2.5611326049286347e-09 -8.4234262404849561e-09 0.0000000000000000e+00  -4.0967488113931924e-09 -8.0975976904593649e-09 0.0000000000000000e+00  -5.8498840737726138e-09 -7.4653035976778660e-09 0.0000000000000000e+00  -7.4685645110473204e-09 -6.6080111926005656e-09 0.0000000000000000e+00  -8.8482963185119309e-09 -5.5981714590994226e-09 0.0000000000000000e+00  -9.9586897864857965e-09 -4.5011821013547285e-09 0.0000000000000000e+00  -1.0799318711218775e-08 -3.3675310537889146e-09 0.0000000000000000e+00  -1.1382465881575050e-08 -2.2291369093718702e-09 0.0000000000000000e+00  -1.1723338327116718e-08 -1.1005925736334027e-09 0.0000000000000000e+00  -1.1833894105533490e-08 1.6393296446628398e-11 0.0000000000000000e+00  -1.1719402102921871e-08 1.1269373442133036e-09 0.0000000000000000e+00  -1.1377340406508845e-08 2.2363735195013410e-09 0.0000000000000000e+00  -1.0798436689282071e-08 3.3437958345464764e-09 0.0000000000000000e+00  -9.9698754283138689e-09 4.4364105009447678e-09 0.0000000000000000e+00  -8.8809141193491501e-09 5.4856224900052262e-09 0.0000000000000000e+00  -7.5316483800522000e-09 6.4461860863767448e-09 0.0000000000000000e+00  -5.9485983407657273e-09 7.2600881937327752e-09 0.0000000000000000e+00  -4.2268150425673746e-09 7.8684033249190369e-09 0.0000000000000000e+00  -2.7043412142746159e-09 8.2497380399614613e-09 0.0000000000000000e+00  -2.5824209606199069e-09 9.0692130002467547e-09 0.0000000000000000e+00  -2.2573745508886962e-09 -5.5605003835083848e-09 0.0000000000000000e+00  -2.5952666379152139e-09 -6.3653389485878587e-09 0.0000000000000000e+00  -4.2007282320573343e-09 -6.1438551971997840e-09 0.0000000000000000e+00  -6.0207688116825370e-09 -5.6879173274317860e-09 0.0000000000000000e+00  -7.7214853317829767e-09 -5.0606914989866590e-09 0.0000000000000000e+00  -9.1984201352230005e-09 -4.3118899130696411e-09 0.0000000000000000e+00  -1.0412526345419859e-08 -3.4870917756779642e-09 0.0000000000000000e+00  -1.1351224278867885e-08 -2.6233156475166878e-09 0.0000000000000000e+00  -1.2014703863758541e-08 -1.7460133717284325e-09 0.0000000000000000e+00  -1.2408387174058864e-08 -8.6920607598965339e-10 0.0000000000000000e+00  -1.2537922877238673e-08 1.9774958303585839e-12 0.0000000000000000e+00  -1.2406202232611669e-08 8.6733650515733934e-10 0.0000000000000000e+00  -1.2012341471588521e-08 1.7270409993297502e-09 0.0000000000000000e+00  -1.1352590519555100e-08 2.5771539347205637e-09 0.0000000000000000e+00  -1.0423114347226296e-08 3.4058664680828254e-09 0.0000000000000000e+00  -9.2246235914599862e-09 4.1911702201239922e-09 0.0000000000000000e+00  -7.7692846292706840e-09 4.9008094997536334e-09 0.0000000000000000e+00  -6.0933849115465577e-09 5.4954606796958206e-09 0.0000000000000000e+00  -4.2949815620470060e-09 5.9377417975082396e-09 0.0000000000000000e+00  -2.6989329257511474e-09 6.2251508407081557e-09 0.0000000000000000e+00  -2.4281797559676545e-09 7.0610092892355347e-09 0.0000000000000000e+00  -2.2014715517728188e-09 -3.4505988590183607e-09 0.0000000000000000e+00  -2.6222760292780219e-09 -4.2747756577544268e-09 0.0000000000000000e+00  -4.2736420447766323e-09 -4.1462257067037673e-09 0.0000000000000000e+00  -6.1358974301046973e-09 -3.8503832244412485e-09 0.0000000000000000e+00  -7.8877585288174671e-09 -3.4373296633335245e-09 0.0000000000000000e+00  -9.4256279836393932e-09 -2.9394461378204891e-09 0.0000000000000000e+00  -1.0705480821610552e-08 -2.38603791956407