<?xml version="1.0"?>
<VTKFile type="UnstructuredGrid"  version="0.1"  >
<UnstructuredGrid>
<Piece  NumberOfPoints="651" NumberOfCells="1200">
<Points>
<DataArray  type="Float64"  NumberOfComponents="3"  format="ascii">0 0 0  50000 0 0  100000 0 0  150000 0 0  200000 0 0  250000 0 0  300000 0 0  350000 0 0  400000 0 0  450000 0 0  500000 0 0  550000 0 0  600000 0 0  650000 0 0  700000 0 0  750000 0 0  800000 0 0  850000 0 0  900000 0 0  950000 0 0  1000000 0 0  0 50000 0  50000 50000 0  100000 50000 0  150000 50000 0  200000 50000 0  250000 50000 0  300000 50000 0  350000 50000 0  400000 50000 0  450000 50000 0  500000 50000 0  550000 50000 0  600000 50000 0  650000 50000 0  700000 50000 0  750000 50000 0  800000 50000 0  850000 50000 0  900000 50000 0  950000 50000 0  1000000 50000 0  0 100000 0  50000 100000 0  100000 100000 0  150000 100000 0  200000 100000 0  250000 100000 0  300000 100000 0  350000 100000 0  400000 100000 0  450000 100000 0  500000 100000 0  550000 100000 0  600000 100000 0  650000 100000 0  700000 100000 0  750000 100000 0  800000 100000 0  850000 100000 0  900000 100000 0  950000 100000 0  1000000 100000 0  0 150000 0  50000 150000 0  100000 150000 0  150000 150000 0  200000 150000 0  250000 150000 0  300000 150000 0  350000 150000 0  400000 150000 0  450000 150000 0  500000 150000 0  550000 150000 0  600000 150000 0  650000 150000 0  700000 150000 0  750000 150000 0  800000 150000 0  850000 150000 0  900000 150000 0  950000 150000 0  1000000 150000 0  0 200000 0  50000 200000 0  100000 200000 0  150000 200000 0  200000 200000 0  250000 200000 0  300000 200000 0  350000 200000 0  400000 200000 0  450000 200000 0  500000 200000 0  550000 200000 0  600000 200000 0  650000 200000 0  700000 200000 0  750000 200000 0  800000 200000 0  850000 200000 0  900000 200000 0  950000 200000 0  1000000 200000 0  0 250000 0  50000 250000 0  100000 250000 0  150000 250000 0  200000 250000 0  250000 250000 0  300000 250000 0  350000 250000 0  400000 250000 0  450000 250000 0  500000 250000 0  550000 250000 0  600000 250000 0  650000 250000 0  700000 250000 0  750000 250000 0  800000 250000 0  850000 250000 0  900000 250000 0  950000 250000 0  1000000 250000 0  0 300000 0  50000 300000 0  100000 300000 0  150000 300000 0  200000 300000 0  250000 300000 0  300000 300000 0  350000 300000 0  400000 300000 0  450000 300000 0  500000 300000 0  550000 300000 0  600000 300000 0  650000 300000 0  700000 300000 0  750000 300000 0  800000 300000 0  850000 300000 0  900000 300000 0  950000 300000 0  1000000 300000 0  0 350000 0  50000 350000 0  100000 350000 0  150000 350000 0  200000 350000 0  250000 350000 0  300000 350000 0  350000 350000 0  400000 350000 0  450000 350000 0  500000 350000 0  550000 350000 0  600000 350000 0  650000 350000 0  700000 350000 0  750000 350000 0  800000 350000 0  850000 350000 0  900000 350000 0  950000 350000 0  1000000 350000 0  0 400000 0  50000 400000 0  100000 400000 0  150000 400000 0  200000 400000 0  250000 400000 0  300000 400000 0  350000 400000 0  400000 400000 0  450000 400000 0  500000 400000 0  550000 400000 0  600000 400000 0  650000 400000 0  700000 400000 0  750000 400000 0  800000 400000 0  850000 400000 0  900000 400000 0  950000 400000 0  1000000 400000 0  0 450000 0  50000 450000 0  100000 450000 0  150000 450000 0  200000 450000 0  250000 450000 0  300000 450000 0  350000 450000 0  400000 450000 0  450000 450000 0  500000 450000 0  550000 450000 0  600000 450000 0  650000 450000 0  700000 450000 0  750000 450000 0  800000 450000 0  850000 450000 0  900000 450000 0  950000 450000 0  1000000 450000 0  0 500000 0  50000 500000 0  100000 500000 0  150000 500000 0  200000 500000 0  250000 500000 0  300000 500000 0  350000 500000 0  400000 500000 0  450000 500000 0  500000 500000 0  550000 500000 0  600000 500000 0  650000 500000 0  700000 500000 0  750000 500000 0  800000 500000 0  850000 500000 0  900000 500000 0  950000 500000 0  1000000 500000 0  0 550000 0  50000 550000 0  100000 550000 0  150000 550000 0  200000 550000 0  250000 550000 0  300000 550000 0  350000 550000 0  400000 550000 0  450000 550000 0  500000 550000 0  550000 550000 0  600000 550000 0  650000 550000 0  700000 550000 0  750000 550000 0  800000 550000 0  850000 550000 0  900000 550000 0  950000 550000 0  1000000 550000 0  0 600000 0  50000 600000 0  100000 600000 0  150000 600000 0  200000 600000 0  250000 600000 0  300000 600000 0  350000 600000 0  400000 600000 0  450000 600000 0  500000 600000 0  550000 600000 0  600000 600000 0  650000 600000 0  700000 600000 0  750000 600000 0  800000 600000 0  850000 600000 0  900000 600000 0  950000 600000 0  1000000 600000 0  0 650000 0  50000 650000 0  100000 650000 0  150000 650000 0  200000 650000 0  250000 650000 0  300000 650000 0  350000 650000 0  400000 650000 0  450000 650000 0  500000 650000 0  550000 650000 0  600000 650000 0  650000 650000 0  700000 650000 0  750000 650000 0  800000 650000 0  850000 650000 0  900000 650000 0  950000 650000 0  1000000 650000 0  0 700000 0  50000 700000 0  100000 700000 0  150000 700000 0  200000 700000 0  250000 700000 0  300000 700000 0  350000 700000 0  400000 700000 0  450000 700000 0  500000 700000 0  550000 700000 0  600000 700000 0  650000 700000 0  700000 700000 0  750000 700000 0  800000 700000 0  850000 700000 0  900000 700000 0  950000 700000 0  1000000 700000 0  0 750000 0  50000 750000 0  100000 750000 0  150000 750000 0  200000 750000 0  250000 750000 0  300000 750000 0  350000 750000 0  400000 750000 0  450000 750000 0  500000 750000 0  550000 750000 0  600000 750000 0  650000 750000 0  700000 750000 0  750000 750000 0  800000 750000 0  850000 750000 0  900000 750000 0  950000 750000 0  1000000 750000 0  0 800000 0  50000 800000 0  100000 800000 0  150000 800000 0  200000 800000 0  250000 800000 0  300000 800000 0  350000 800000 0  400000 800000 0  450000 800000 0  500000 800000 0  550000 800000 0  600000 800000 0  650000 800000 0  700000 800000 0  750000 800000 0  800000 800000 0  850000 800000 0  900000 800000 0  950000 800000 0  1000000 800000 0  0 850000 0  50000 850000 0  100000 850000 0  150000 850000 0  200000 850000 0  250000 850000 0  300000 850000 0  350000 850000 0  400000 850000 0  450000 850000 0  500000 850000 0  550000 850000 0  600000 850000 0  650000 850000 0  700000 850000 0  750000 850000 0  800000 850000 0  850000 850000 0  900000 850000 0  950000 850000 0  1000000 850000 0  0 900000 0  50000 900000 0  100000 900000 0  150000 900000 0  200000 900000 0  250000 900000 0  300000 900000 0  350000 900000 0  400000 900000 0  450000 900000 0  500000 900000 0  550000 900000 0  600000 900000 0  650000 900000 0  700000 900000 0  750000 900000 0  800000 900000 0  850000 900000 0  900000 900000 0  950000 900000 0  1000000 900000 0  0 950000 0  50000 950000 0  100000 950000 0  150000 950000 0  200000 950000 0  250000 950000 0  300000 950000 0  350000 950000 0  400000 950000 0  450000 950000 0  500000 950000 0  550000 950000 0  600000 950000 0  650000 950000 0  700000 950000 0  750000 950000 0  800000 950000 0  850000 950000 0  900000 950000 0  950000 950000 0  1000000 950000 0  0 1000000 0  50000 1000000 0  100000 1000000 0  150000 1000000 0  200000 1000000 0  250000 1000000 0  300000 1000000 0  350000 1000000 0  400000 1000000 0  450000 1000000 0  500000 1000000 0  550000 1000000 0  600000 1000000 0  650000 1000000 0  700000 1000000 0  750000 1000000 0  800000 1000000 0  850000 1000000 0  900000 1000000 0  950000 1000000 0  1000000 1000000 0  0 1050000 0  50000 1050000 0  100000 1050000 0  150000 1050000 0  200000 1050000 0  250000 1050000 0  300000 1050000 0  350000 1050000 0  400000 1050000 0  450000 1050000 0  500000 1050000 0  550000 1050000 0  600000 1050000 0  650000 1050000 0  700000 1050000 0  750000 1050000 0  800000 1050000 0  850000 1050000 0  900000 1050000 0  950000 1050000 0  1000000 1050000 0  0 1100000 0  50000 1100000 0  100000 1100000 0  150000 1100000 0  200000 1100000 0  250000 1100000 0  300000 1100000 0  350000 1100000 0  400000 1100000 0  450000 1100000 0  500000 1100000 0  550000 1100000 0  600000 1100000 0  650000 1100000 0  700000 1100000 0  750000 1100000 0  800000 1100000 0  850000 1100000 0  900000 1100000 0  950000 1100000 0  1000000 1100000 0  0 1150000 0  50000 1150000 0  100000 1150000 0  150000 1150000 0  200000 1150000 0  250000 1150000 0  300000 1150000 0  350000 1150000 0  400000 1150000 0  450000 1150000 0  500000 1150000 0  550000 1150000 0  600000 1150000 0  650000 1150000 0  700000 1150000 0  750000 1150000 0  800000 1150000 0  850000 1150000 0  900000 1150000 0  950000 1150000 0  1000000 1150000 0  0 1200000 0  50000 1200000 0  100000 1200000 0  150000 1200000 0  200000 1200000 0  250000 1200000 0  300000 1200000 0  350000 1200000 0  400000 1200000 0  450000 1200000 0  500000 1200000 0  550000 1200000 0  600000 1200000 0  650000 1200000 0  700000 1200000 0  750000 1200000 0  800000 1200000 0  850000 1200000 0  900000 1200000 0  950000 1200000 0  1000000 1200000 0  0 1250000 0  50000 1250000 0  100000 1250000 0  150000 1250000 0  200000 1250000 0  250000 1250000 0  300000 1250000 0  350000 1250000 0  400000 1250000 0  450000 1250000 0  500000 1250000 0  550000 1250000 0  600000 1250000 0  650000 1250000 0  700000 1250000 0  750000 1250000 0  800000 1250000 0  850000 1250000 0  900000 1250000 0  950000 1250000 0  1000000 1250000 0  0 1300000 0  50000 1300000 0  100000 1300000 0  150000 1300000 0  200000 1300000 0  250000 1300000 0  300000 1300000 0  350000 1300000 0  400000 1300000 0  450000 1300000 0  500000 1300000 0  550000 1300000 0  600000 1300000 0  650000 1300000 0  700000 1300000 0  750000 1300000 0  800000 1300000 0  850000 1300000 0  900000 1300000 0  950000 1300000 0  1000000 1300000 0  0 1350000 0  50000 1350000 0  100000 1350000 0  150000 1350000 0  200000 1350000 0  250000 1350000 0  300000 1350000 0  350000 1350000 0  400000 1350000 0  450000 1350000 0  500000 1350000 0  550000 1350000 0  600000 1350000 0  650000 1350000 0  700000 135
[...]
<PointData  Vectors="f_19"> 
<DataArray  type="Float64"  Name="f_19"  NumberOfComponents="3" format="ascii">-2.4569010212864647e-08 -9.9243798558871085e-09 0.0000000000000000e+00  4.8508810924680147e-08 -6.0187681016468079e-09 0.0000000000000000e+00  4.2811872850217796e-08 -1.7425130051262830e-09 0.0000000000000000e+00  4.0387646748997821e-08 -4.0181253220570857e-10 0.0000000000000000e+00  3.9212238006698572e-08 4.7612794700293428e-11 0.0000000000000000e+00  3.8452864965692565e-08 2.2281279509586891e-10 0.0000000000000000e+00  3.7912488159110718e-08 2.9056829578414237e-10 0.0000000000000000e+00  3.7533872295807188e-08 3.0804278429956740e-10 0.0000000000000000e+00  3.7298690525484737e-08 2.9981549557378386e-10 0.0000000000000000e+00  3.7201897213719192e-08 2.7933880199077255e-10 0.0000000000000000e+00  3.7244065614475198e-08 2.5626232916853381e-10 0.0000000000000000e+00  3.7429699338632501e-08 2.3971870698277338e-10 0.0000000000000000e+00  3.7768885537286384e-08 2.4078124377676235e-10 0.0000000000000000e+00  3.8283375392375476e-08 2.7592243789682958e-10 0.0000000000000000e+00  3.9022653849197477e-08 3.7423298013593731e-10 0.0000000000000000e+00  4.0106415683149746e-08 5.9545190139666658e-10 0.0000000000000000e+00  4.1836833912855165e-08 1.0785646964955090e-09 0.0000000000000000e+00  4.4961844144606337e-08 2.1684454645020442e-09 0.0000000000000000e+00  5.0812146169979176e-08 4.6827324039219366e-09 0.0000000000000000e+00  5.8058767242476203e-08 9.1890818898696696e-09 0.0000000000000000e+00  -1.6394862251368308e-08 7.0830244915430973e-09 0.0000000000000000e+00  -1.8345459945277037e-08 -1.5486025506961112e-08 0.0000000000000000e+00  7.1428332308501737e-09 -1.1154489469571070e-08 0.0000000000000000e+00  1.7982503055596076e-08 -5.2108994359836145e-09 0.0000000000000000e+00  2.3066965451855228e-08 -2.3671800361393680e-09 0.0000000000000000e+00  2.5692447883182847e-08 -1.1170298719700223e-09 0.0000000000000000e+00  2.7188470348349360e-08 -5.2846279519900414e-10 0.0000000000000000e+00  2.8067729891583191e-08 -2.3426641114560083e-10 0.0000000000000000e+00  2.8590172043135231e-08 -8.4512950728072456e-11 0.0000000000000000e+00  2.8898927368651323e-08 -1.0219530068843056e-11 0.0000000000000000e+00  2.9073766787694164e-08 2.5936841356435743e-11 0.0000000000000000e+00  2.9156284363083377e-08 4.8454090092517586e-11 0.0000000000000000e+00  2.9161443816718337e-08 7.7698085702025239e-11 0.0000000000000000e+00  2.9081603601612057e-08 1.3567503694705828e-10 0.0000000000000000e+00  2.8885002887794159e-08 2.5266208656218065e-10 0.0000000000000000e+00  2.8507689656955359e-08 4.7903380348931730e-10 0.0000000000000000e+00  2.7832847081308935e-08 9.1122057282172414e-10 0.0000000000000000e+00  2.6635495179541718e-08 1.7526444505204453e-09 0.0000000000000000e+00  2.4405183546066926e-08 3.4495215968232683e-09 0.0000000000000000e+00  1.9699445230460767e-08 6.8924047474173177e-09 0.0000000000000000e+00  8.2734593458316937e-09 1.3045617050329659e-08 0.0000000000000000e+00  -1.8364111791234394e-08 1.1012834582766967e-08 0.0000000000000000e+00  -1.1388006586583082e-08 -1.9104594436167580e-08 0.0000000000000000e+00  -3.2476633329284420e-10 -1.8320437940618284e-08 0.0000000000000000e+00  5.7337902117323398e-09 -1.1360825994671720e-08 0.0000000000000000e+00  1.0593586708134656e-08 -6.6176272635490914e-09 0.0000000000000000e+00  1.4412624708750156e-08 -3.8631147081707219e-09 0.0000000000000000e+00  1.7076285227680913e-08 -2.2920559198935783e-09 0.0000000000000000e+00  1.8865368791698583e-08 -1.3694077995153086e-09 0.0000000000000000e+00  2.0042494355658593e-08 -8.0586322540892526e-10 0.0000000000000000e+00  2.0785892480995733e-08 -4.4299378698235658e-10 0.0000000000000000e+00  2.1205517598031793e-08 -1.8671856990992310e-10 0.0000000000000000e+00  2.1361149927108914e-08 2.6988373864838620e-11 0.0000000000000000e+00  2.1273308353117200e-08 2.5091502069120442e-10 0.0000000000000000e+00  2.0927193431643237e-08 5.3974991657167052e-10 0.0000000000000000e+00  2.0270273401490354e-08 9.6374430160503722e-10 0.0000000000000000e+00  1.9202907237392114e-08 1.6288216817520777e-09 0.0000000000000000e+00  1.7560093758170158e-08 2.7108398524891495e-09 0.0000000000000000e+00  1.5083001101069619e-08 4.5104274611687640e-09 0.0000000000000000e+00  1.1390536093500078e-08 7.5015598642920045e-09 0.0000000000000000e+00  6.0181159608830253e-09 1.2151096931681454e-08 0.0000000000000000e+00  -1.2946216416341014e-09 1.7603474370819157e-08 0.0000000000000000e+00  -1.3204312199729082e-08 1.4754913278794978e-08 0.0000000000000000e+00  -7.7074285491395544e-09 -1.9743427163634166e-08 0.0000000000000000e+00  -1.5898903551177961e-09 -1.9704217558060397e-08 0.0000000000000000e+00  1.0717275155471363e-09 -1.5296560308591652e-08 0.0000000000000000e+00  3.8122519514163753e-09 -1.0490774320453495e-08 0.0000000000000000e+00  6.6914537787634175e-09 -6.9377389849287603e-09 0.0000000000000000e+00  9.2097959114424760e-09 -4.5332702906456164e-09 0.0000000000000000e+00  1.1160448601734303e-08 -2.9302966216145014e-09 0.0000000000000000e+00  1.2562351993797912e-08 -1.8416386181377076e-09 0.0000000000000000e+00  1.3497048678625869e-08 -1.0685259949358510e-09 0.0000000000000000e+00  1.4037838404652809e-08 -4.7382945429543191e-10 0.0000000000000000e+00  1.4231373674599424e-08 4.4606153163277637e-11 0.0000000000000000e+00  1.4094660666662018e-08 5.7393524996272964e-10 0.0000000000000000e+00  1.3615103654466465e-08 1.2022597007127646e-09 0.0000000000000000e+00  1.2750661003298607e-08 2.0341198452797931e-09 0.0000000000000000e+00  1.1431315960702763e-08 3.2080790957655054e-09 0.0000000000000000e+00  9.5680563407467000e-09 4.9147769627784579e-09 0.0000000000000000e+00  7.0862170831072285e-09 7.3976223180849962e-09 0.0000000000000000e+00  4.0173283759005537e-09 1.0865596826474124e-08 0.0000000000000000e+00  6.5591840584657084e-10 1.5126630449931522e-08 0.0000000000000000e+00  -2.6356845383999052e-09 1.8761464793208749e-08 0.0000000000000000e+00  -8.9134241344327211e-09 1.7589033475275653e-08 0.0000000000000000e+00  -5.8548827044028739e-09 -1.9166707568678993e-08 0.0000000000000000e+00  -1.9163454664458661e-09 -1.9416522932800474e-08 0.0000000000000000e+00  -9.4483539162471854e-10 -1.6669290105006584e-08 0.0000000000000000e+00  1.6548690496935759e-10 -1.2841254697080260e-08 0.0000000000000000e+00  1.7810687977811798e-09 -9.3305485471185496e-09 0.0000000000000000e+00  3.5422214122160744e-09 -6.5623131913169172e-09 0.0000000000000000e+00  5.1236364388186051e-09 -4.4912413103570733e-09 0.0000000000000000e+00  6.3772609374800294e-09 -2.9493472447152244e-09 0.0000000000000000e+00  7.2666748691911175e-09 -1.7685013711439184e-09 0.0000000000000000e+00  7.7995518911440437e-09 -8.0657050414236540e-10 0.0000000000000000e+00  7.9908839193987912e-09 5.6072908294017702e-11 0.0000000000000000e+00  7.8477381644527679e-09 9.2714615878948952e-10 0.0000000000000000e+00  7.3649617562899760e-09 1.9137767291956046e-09 0.0000000000000000e+00  6.5277177086734213e-09 3.1327494070012486e-09 0.0000000000000000e+00  5.3220778597619369e-09 4.7170929867728237e-09 0.0000000000000000e+00  3.7597104949097644e-09 6.8104161658108541e-09 0.0000000000000000e+00  1.9260223946836435e-09 9.5256094959847578e-09 0.0000000000000000e+00  4.8806201279342274e-11 1.2820067707830373e-08 0.0000000000000000e+00  -1.5058881926110116e-09 1.6241116470192383e-08 0.0000000000000000e+00  -2.7510790542329931e-09 1.8698286642289386e-08 0.0000000000000000e+00  -6.6409565281145868e-09 1.8565828344765015e-08 0.0000000000000000e+00  -4.8074300975198597e-09 -1.8049785665156789e-08 0.0000000000000000e+00  -2.0841147396884889e-09 -1.8481155068004862e-08 0.0000000000000000e+00  -2.0014070588501389e-09 -1.6662126212392543e-08 0.0000000000000000e+00  -1.9315621326139880e-09 -1.3779985791055324e-08 0.0000000000000000e+00  -1.3538098313637379e-09 -1.0718801730163959e-08 0.0000000000000000e+00  -4.2869043945178687e-10 -7.9844646571373401e-09 0.0000000000000000e+00  5.7759128203429984e-10 -5.7208463181174195e-09 0.0000000000000000e+00  1.4739889183567883e-09 -3.8919184216081180e-09 0.0000000000000000e+00  2.1586923454118426e-09 -2.3963206930105125e-09 0.0000000000000000e+00  2.5873982788674042e-09 -1.1185361576866190e-09 0.0000000000000000e+00  2.7444003034291668e-09 5.4653588116141144e-11 0.0000000000000000e+00  2.6259884155934322e-09 1.2322051435956053e-09 0.0000000000000000e+00  2.2345960879428306e-09 2.5214163067975364e-09 0.0000000000000000e+00  1.5818020692173492e-09 4.0296161130332715e-09 0.0000000000000000e+00  7.0035210250322836e-10 5.8594393303558972e-09 0.0000000000000000e+00  -3.3360353852464424e-10 8.0886196623800590e-09 0.0000000000000000e+00  -1.3711475344169740e-09 1.0719763363856524e-08 0.0000000000000000e+00  -2.1786348581562013e-09 1.3587043877136192e-08 0.0000000000000000e+00  -2.5360112836906832e-09 1.6244624513238075e-08 0.0000000000000000e+00  -2.7311493919063022e-09 1.7985634617684214e-08 0.0000000000000000e+00  -5.3195238771461927e-09 1.8312356687049493e-08 0.0000000000000000e+00  -4.1420317839058266e-09 -1.6634465518236791e-08 0.0000000000000000e+00  -2.2134021970450090e-09 -1.7192529274087321e-08 0.0000000000000000e+00  -2.6585946227696852e-09 -1.5924702603927268e-08 0.0000000000000000e+00  -3.2441510943225257e-09 -1.3748620892990888e-08 0.0000000000000000e+00  -3.4190568872105799e-09 -1.1209091686921658e-08 0.0000000000000000e+00  -3.2065433423627545e-09 -8.7174212889163868e-09 0.0000000000000000e+00  -2.7790832411692023e-09 -6.4766441484087524e-09 0.0000000000000000e+00  -2.3026404152817234e-09 -4.5347448498475369e-09 0.0000000000000000e+00  -1.8932427182642902e-09 -2.8542547487002755e-09 0.0000000000000000e+00  -1.6192541835613790e-09 -1.3588262372635109e-09 0.0000000000000000e+00  -1.5149262666488825e-09 4.2496972162127076e-11 0.0000000000000000e+00  -1.5914058423906825e-09 1.4442890579336573e-09 0.0000000000000000e+00  -1.8413875688110893e-09 2.9392601702690121e-09 0.0000000000000000e+00  -2.2370533955971386e-09 4.6124213959114569e-09 0.0000000000000000e+00  -2.7219397222012999e-09 6.5294642271508710e-09 0.0000000000000000e+00  -3.1991631171899411e-09 8.7133998533809561e-09 0.0000000000000000e+00  -3.5243962302747508e-09 1.1104759667462040e-08 0.0000000000000000e+00  -3.5275948403572112e-09 1.3510391468369297e-08 0.0000000000000000e+00  -3.1256454821628006e-09 1.5574680321155867e-08 0.0000000000000000e+00  -2.7167557098645171e-09 1.6855249476404133e-08 0.0000000000000000e+00  -4.4741172746494440e-09 1.7400932741616497e-08 0.0000000000000000e+00  -3.6827875975338180e-09 -1.5020746528334383e-08 0.0000000000000000e+00  -2.3208242630782470e-09 -1.5671064536841957e-08 0.0000000000000000e+00  -3.1149181957290548e-09 -1.4754166357677767e-08 0.0000000000000000e+00  -4.1267149669718375e-09 -1.3087467401020150e-08 0.0000000000000000e+00  -4.8281363294106067e-09 -1.1016586491395218e-08 0.0000000000000000e+00  -5.1661594148995843e-09 -8.8416799890021437e-09 0.0000000000000000e+00  -5.2344860676748349e-09 -6.7547779783528384e-09 0.0000000000000000e+00  -5.1534940659596279e-09 -4.8394138393325208e-09 0.0000000000000000e+00  -5.0243184759267709e-09 -3.1016534496454036e-09 0.0000000000000000e+00  -4.9166740095281096e-09 -1.5015840960623733e-09 0.0000000000000000e+00  -4.8703221721348371e-09 2.4092131263301602e-11 0.0000000000000000e+00  -4.8994100297708495e-09 1.5475346675301219e-09 0.0000000000000000e+00  -4.9949224221010710e-09 3.1394527662295711e-09 0.0000000000000000e+00  -5.1239265006210330e-09 4.8589037287962133e-09 0.0000000000000000e+00  -5.2264652716796910e-09 6.7394979902833028e-09 0.0000000000000000e+00  -5.2134634504777024e-09 8.7693931589280608e-09 0.0000000000000000e+00  -4.9734280415945091e-09 1.0865863663418367e-08 0.0000000000000000e+00  -4.4043610035111040e-09 1.2853561368229296e-08 0.0000000000000000e+00  -3.5103312195568168e-09 1.4470257987302168e-08 0.0000000000000000e+00  -2.7156313473009399e-09 1.5438297861848623e-08 0.0000000000000000e+00  -3.8961661819947371e-09 1.6106435044423720e-08 0.0000000000000000e+00  -3.3486248642595323e-09 -1.3262481396850180e-08 0.0000000000000000e+00  -2.4092435865691798e-09 -1.3981796102596201e-08 0.0000000000000000e+00  -3.4498504233110491e-09 -1.3302511976632022e-08 0.0000000000000000e+00  -4.7491651542719641e-09 -1.2010741490395448e-08 0.0000000000000000e+00  -5.8162248673873235e-09 -1.0334023038406902e-08 0.0000000000000000e+00  -6.5604806851582166e-09 -8.4842895696063350e-09 0.0000000000000000e+00  -7.0203139394184667e-09 -6.6194640680148459e-09 0.0000000000000000e+00  -7.2721569090373743e-09 -4.8284323758150239e-09 0.0000000000000000e+00  -7.3916047147655410e-09 -3.1403162465121940e-09 0.0000000000000000e+00  -7.4371298484611114e-09 -1.5422251777443395e-09 0.0000000000000000e+00  -7.4450213022043768e-09 3.6219104048841333e-12 0.0000000000000000e+00  -7.4289484530406067e-09 1.5459011687492440e-09 0.0000000000000000e+00  -7.3805146422926967e-09 3.1324520281446509e-09 0.0000000000000000e+00  -7.2695186125971992e-09 4.7988474099036472e-09 0.0000000000000000e+00  -7.0446102801304618e-09 6.5555035131680625e-09 0.0000000000000000e+00  -6.6370298175807691e-09 8.3729141697252730e-09 0.0000000000000000e+00  -5.9726620247445064e-09 1.0167580500336968e-08 0.0000000000000000e+00  -5.0024051510690002e-09 1.1796118464395190e-08 0.0000000000000000e+00  -3.7790539718150806e-09 1.3071248671715196e-08 0.0000000000000000e+00  -2.7205711959227025e-09 1.3816987426329650e-08 0.0000000000000000e+00  -3.4837693113930055e-09 1.4563431525709799e-08 0.0000000000000000e+00  -3.0979912612208969e-09 -1.1395762762624912e-08 0.0000000000000000e+00  -2.4804656982994098e-09 -1.2167404648263012e-08 0.0000000000000000e+00  -3.7011146974108938e-09 -1.1658609251634614e-08 0.0000000000000000e+00  -5.1993932584861902e-09 -1.0653153449222437e-08 0.0000000000000000e+00  -6.5202937215817286e-09 -9.3062809004710125e-09 0.0000000000000000e+00  -7.5566814551769906e-09 -7.7662379189743350e-09 0.0000000000000000e+00  -8.3109483345019755e-09 -6.1548881448871886e-09 0.0000000000000000e+00  -8.8243270981330701e-09 -4.5521616819322995e-09 0.0000000000000000e+00  -9.1464973256620569e-09 -2.9957349912203218e-09 0.0000000000000000e+00  -9.3202057267316314e-09 -1.4896693605503815e-09 0.0000000000000000e+00  -9.3739011352244756e-09 -1.5968377311426664e-11 0.0000000000000000e+00  -9.3188336816768647e-09 1.4538972228016747e-09 0.0000000000000000e+00  -9.1484499246219472e-09 2.9481519913422726e-09 0.0000000000000000e+00  -8.8392096528006702e-09 4.4841730857207132e-09 0.0000000000000000e+00  -8.3532312353833584e-09 6.0578911436611491e-09 0.0000000000000000e+00  -7.6443906983221726e-09 7.6337845663164046e-09 0.0000000000000000e+00  -6.6708259875471836e-09 9.1380021096474450e-09 0.0000000000000000e+00  -5.4201436972246546e-09 1.0459471542746225e-08 0.0000000000000000e+00  -3.9709668317240795e-09 1.1466394626859535e-08 0.0000000000000000e+00  -2.7256758368788773e-09 1.2046760283647811e-08 0.0000000000000000e+00  -3.1819087439987185e-09 1.2847288931730276e-08 0.0000000000000000e+00  -2.9077136416729812e-09 -9.4478767266444024e-09 0.0000000000000000e+00  -2.5367326844202565e-09 -1.0259367873753740e-08 0.0000000000000000e+00  -3.8902211673488434e-09 -9.8800365224523915e-09 0.0000000000000000e+00  -5.5276703907550398e-09 -9.1029821304881583e-09 0.0000000000000000e+00  -7.0242574942006052e-09 -8.0374154804988328e-09 0.0000000000000000e+00  -8.2666674000440196e-09 -6.7866656472277678e-09 0.0000000000000000e+00  -9.2347213668975986e-09 -5.4413832432361047e-09 0.0000000000000000e+00  -9.9438157677232458e-09 -4.0674531405971202e-09 0.0000000000000000e+00  -1.0421673048537660e-08 -2.7024550191026777e-09 0.0000000000000000e+00  -1.0695603189513474e-08 -1.3592060883520629e-09 0.0000000000000000e+00  -1.0785186363067739e-08 -3.3012607716451486e-11 0.0000000000000000e+00  -1.0698587818410565e-08 1.2897146725517860e-09 0.0000000000000000e+00  -1.0431450426919945e-08 2.6226142235582287e-09 0.0000000000000000e+00  -9.9678937396478747e-09 3.9707348175527001e-09 0.0000000000000000e+00  -9.2837919495574266e-09 5.3225112827610652e-09 0.0000000000000000e+00  -8.3530993381982286e-09 6.6433330946340403e-09 0.0000000000000000e+00  -7.1587337115608170e-09 7.8726395526979328e-09 0.0000000000000000e+00  -5.7125994071778409e-09 8.9273559849312463e-09 0.0000000000000000e+00  -4.1067683103113810e-09 9.7157938377514226e-09 0.0000000000000000e+00  -2.7277616913828036e-09 1.0167436674067444e-08 0.0000000000000000e+00  -2.9584995831026075e-09 1.1006303259904963e-08 0.0000000000000000e+00  -2.7641055177025350e-09 -7.4405331282241969e-09 0.0000000000000000e+00  -2.5806423068582171e-09 -8.2822418516811250e-09 0.0000000000000000e+00  -4.0314697415890247e-09 -8.0068403945656473e-09 0.0000000000000000e+00  -5.7657874384358597e-09 -7.4204949281122081e-09 0.0000000000000000e+00  -7.3825472445687539e-09 -6.6017566316845573e-09 0.0000000000000000e+00  -8.7671113456589793e-09 -5.6220675462820629e-09 0.0000000000000000e+00  -9.8854578675700739e-09 -4.5467545691980386e-09 0.0000000000000000e+00  -1.0735000570808388e-08 -3.4268662785391384e-09 0.0000000000000000e+00  -1.1326599793750359e-08 -2.2952559559185204e-09 0.0000000000000000e+00  -1.1674607083476423e-08 -1.1676187252481062e-09 0.0000000000000000e+00  -1.1790575353022658e-08 -4.6803763207829572e-11 0.0000000000000000e+00  -1.1679710172387333e-08 1.0711842942597900e-09 0.0000000000000000e+00  -1.1339674594682636e-08 2.1905809456840586e-09 0.0000000000000000e+00  -1.0761555152507435e-08 3.3093721761104771e-09 0.0000000000000000e+00  -9.9330134642465934e-09 4.4135914146729651e-09 0.0000000000000000e+00  -8.8438683873086910e-09 5.4733336319864093e-09 0.0000000000000000e+00  -7.4948851749418406e-09 6.4418005186504313e-09 0.0000000000000000e+00  -5.9137164300931746e-09 7.2589153376805503e-09 0.0000000000000000e+00  -4.1994999668680629e-09 7.8621178723841988e-09 0.0000000000000000e+00  -2.7256785961879257e-09 8.2088886393537696e-09 0.0000000000000000e+00  -2.7938478494913294e-09 9.0745848247559377e-09 0.0000000000000000e+00  -2.6588296177178182e-09 -5.3913442034561043e-09 0.0000000000000000e+00  -2.6148630363968824e-09 -6.2556332655438682e-09 0.0000000000000000e+00  -4.1352874972098769e-09 -6.0682168378924521e-09 0.0000000000000000e+00  -5.9353830882399993e-09 -5.6482746496361764e-09 0.0000000000000000e+00  -7.6320481595477121e-09 -5.0528321930730350e-09 0.0000000000000000e+00  -9.1114191874193878e-09 -4.3300819526241472e-09 0.0000000000000000e+00  -1.0331213736645880e-08 -3.5250352025043007e-09 0.0000000000000000e+00  -1.1276898630277240e-08 -2.6747262083108163e-09 0.0000000000000000e+00  -1.1947305728904719e-08 -1.8050101276623590e-09 0.0000000000000000e+00  -1.2346973952628254e-08 -9.3054420498239790e-10 0.0000000000000000e+00  -1.2481076322931725e-08 -5.7217591005005654e-11 0.0000000000000000e+00  -1.2352367013968736e-08 8.1394312461012687e-10 0.0000000000000000e+00  -1.1960097449072820e-08 1.6822323978355763e-09 0.0000000000000000e+00  -1.1300867303445079e-08 2.5427697780027498e-09 0.0000000000000000e+00  -1.0371359445329072e-08 3.3826933033435557e-09 0.0000000000000000e+00  -9.1729418159493559e-09 4.1787713407630532e-09 0.0000000000000000e+00  -7.7186119377057592e-09 4.8972633952306540e-09 0.0000000000000000e+00  -6.0460830502837254e-09 5.4968574614585281e-09 0.0000000000000000e+00  -4.2583894780083381e-09 5.9366825300215693e-09 0.0000000000000000e+00  -2.7194805619714491e-09 6.1941026391689289e-09 0.0000000000000000e+00  -2.6754930897667071e-09 7.0776337453172979e-09 0.0000000000000000e+00  -2.5868083935465821e-09 -3.3147943590529356e-09 0.0000000000000000e+00  -2.6418609456845716e-09 -4.1954015280792732e-09 0.0000000000000000e+00  -4.2094656328157581e-09 -4.0862200438953293e-09 0.0000000000000000e+00  -6.0515966566320445e-09 -3.8174031710077503e-09 0.0000000000000000e+00  -7.7980690828954156e-09 -3.4298685362382034e-09 0.0000000000000000e+00  -9.3365687069899088e-09 -2.9540526553088896e-09 0.0000000000000000e+00  -1.0620187335047613e-08 -2.4183219006610246e-0