<?xml version="1.0"?>
<VTKFile type="UnstructuredGrid"  version="0.1"  >
<UnstructuredGrid>
<Piece  NumberOfPoints="651" NumberOfCells="1200">
<Points>
<DataArray  type="Float64"  NumberOfComponents="3"  format="ascii">0 0 0  50000 0 0  100000 0 0  150000 0 0  200000 0 0  250000 0 0  300000 0 0  350000 0 0  400000 0 0  450000 0 0  500000 0 0  550000 0 0  600000 0 0  650000 0 0  700000 0 0  750000 0 0  800000 0 0  850000 0 0  900000 0 0  950000 0 0  1000000 0 0  0 50000 0  50000 50000 0  100000 50000 0  150000 50000 0  200000 50000 0  250000 50000 0  300000 50000 0  350000 50000 0  400000 50000 0  450000 50000 0  500000 50000 0  550000 50000 0  600000 50000 0  650000 50000 0  700000 50000 0  750000 50000 0  800000 50000 0  850000 50000 0  900000 50000 0  950000 50000 0  1000000 50000 0  0 100000 0  50000 100000 0  100000 100000 0  150000 100000 0  200000 100000 0  250000 100000 0  300000 100000 0  350000 100000 0  400000 100000 0  450000 100000 0  500000 100000 0  550000 100000 0  600000 100000 0  650000 100000 0  700000 100000 0  750000 100000 0  800000 100000 0  850000 100000 0  900000 100000 0  950000 100000 0  1000000 100000 0  0 150000 0  50000 150000 0  100000 150000 0  150000 150000 0  200000 150000 0  250000 150000 0  300000 150000 0  350000 150000 0  400000 150000 0  450000 150000 0  500000 150000 0  550000 150000 0  600000 150000 0  650000 150000 0  700000 150000 0  750000 150000 0  800000 150000 0  850000 150000 0  900000 150000 0  950000 150000 0  1000000 150000 0  0 200000 0  50000 200000 0  100000 200000 0  150000 200000 0  200000 200000 0  250000 200000 0  300000 200000 0  350000 200000 0  400000 200000 0  450000 200000 0  500000 200000 0  550000 200000 0  600000 200000 0  650000 200000 0  700000 200000 0  750000 200000 0  800000 200000 0  850000 200000 0  900000 200000 0  950000 200000 0  1000000 200000 0  0 250000 0  50000 250000 0  100000 250000 0  150000 250000 0  200000 250000 0  250000 250000 0  300000 250000 0  350000 250000 0  400000 250000 0  450000 250000 0  500000 250000 0  550000 250000 0  600000 250000 0  650000 250000 0  700000 250000 0  750000 250000 0  800000 250000 0  850000 250000 0  900000 250000 0  950000 250000 0  1000000 250000 0  0 300000 0  50000 300000 0  100000 300000 0  150000 300000 0  200000 300000 0  250000 300000 0  300000 300000 0  350000 300000 0  400000 300000 0  450000 300000 0  500000 300000 0  550000 300000 0  600000 300000 0  650000 300000 0  700000 300000 0  750000 300000 0  800000 300000 0  850000 300000 0  900000 300000 0  950000 300000 0  1000000 300000 0  0 350000 0  50000 350000 0  100000 350000 0  150000 350000 0  200000 350000 0  250000 350000 0  300000 350000 0  350000 350000 0  400000 350000 0  450000 350000 0  500000 350000 0  550000 350000 0  600000 350000 0  650000 350000 0  700000 350000 0  750000 350000 0  800000 350000 0  850000 350000 0  900000 350000 0  950000 350000 0  1000000 350000 0  0 400000 0  50000 400000 0  100000 400000 0  150000 400000 0  200000 400000 0  250000 400000 0  300000 400000 0  350000 400000 0  400000 400000 0  450000 400000 0  500000 400000 0  550000 400000 0  600000 400000 0  650000 400000 0  700000 400000 0  750000 400000 0  800000 400000 0  850000 400000 0  900000 400000 0  950000 400000 0  1000000 400000 0  0 450000 0  50000 450000 0  100000 450000 0  150000 450000 0  200000 450000 0  250000 450000 0  300000 450000 0  350000 450000 0  400000 450000 0  450000 450000 0  500000 450000 0  550000 450000 0  600000 450000 0  650000 450000 0  700000 450000 0  750000 450000 0  800000 450000 0  850000 450000 0  900000 450000 0  950000 450000 0  1000000 450000 0  0 500000 0  50000 500000 0  100000 500000 0  150000 500000 0  200000 500000 0  250000 500000 0  300000 500000 0  350000 500000 0  400000 500000 0  450000 500000 0  500000 500000 0  550000 500000 0  600000 500000 0  650000 500000 0  700000 500000 0  750000 500000 0  800000 500000 0  850000 500000 0  900000 500000 0  950000 500000 0  1000000 500000 0  0 550000 0  50000 550000 0  100000 550000 0  150000 550000 0  200000 550000 0  250000 550000 0  300000 550000 0  350000 550000 0  400000 550000 0  450000 550000 0  500000 550000 0  550000 550000 0  600000 550000 0  650000 550000 0  700000 550000 0  750000 550000 0  800000 550000 0  850000 550000 0  900000 550000 0  950000 550000 0  1000000 550000 0  0 600000 0  50000 600000 0  100000 600000 0  150000 600000 0  200000 600000 0  250000 600000 0  300000 600000 0  350000 600000 0  400000 600000 0  450000 600000 0  500000 600000 0  550000 600000 0  600000 600000 0  650000 600000 0  700000 600000 0  750000 600000 0  800000 600000 0  850000 600000 0  900000 600000 0  950000 600000 0  1000000 600000 0  0 650000 0  50000 650000 0  100000 650000 0  150000 650000 0  200000 650000 0  250000 650000 0  300000 650000 0  350000 650000 0  400000 650000 0  450000 650000 0  500000 650000 0  550000 650000 0  600000 650000 0  650000 650000 0  700000 650000 0  750000 650000 0  800000 650000 0  850000 650000 0  900000 650000 0  950000 650000 0  1000000 650000 0  0 700000 0  50000 700000 0  100000 700000 0  150000 700000 0  200000 700000 0  250000 700000 0  300000 700000 0  350000 700000 0  400000 700000 0  450000 700000 0  500000 700000 0  550000 700000 0  600000 700000 0  650000 700000 0  700000 700000 0  750000 700000 0  800000 700000 0  850000 700000 0  900000 700000 0  950000 700000 0  1000000 700000 0  0 750000 0  50000 750000 0  100000 750000 0  150000 750000 0  200000 750000 0  250000 750000 0  300000 750000 0  350000 750000 0  400000 750000 0  450000 750000 0  500000 750000 0  550000 750000 0  600000 750000 0  650000 750000 0  700000 750000 0  750000 750000 0  800000 750000 0  850000 750000 0  900000 750000 0  950000 750000 0  1000000 750000 0  0 800000 0  50000 800000 0  100000 800000 0  150000 800000 0  200000 800000 0  250000 800000 0  300000 800000 0  350000 800000 0  400000 800000 0  450000 800000 0  500000 800000 0  550000 800000 0  600000 800000 0  650000 800000 0  700000 800000 0  750000 800000 0  800000 800000 0  850000 800000 0  900000 800000 0  950000 800000 0  1000000 800000 0  0 850000 0  50000 850000 0  100000 850000 0  150000 850000 0  200000 850000 0  250000 850000 0  300000 850000 0  350000 850000 0  400000 850000 0  450000 850000 0  500000 850000 0  550000 850000 0  600000 850000 0  650000 850000 0  700000 850000 0  750000 850000 0  800000 850000 0  850000 850000 0  900000 850000 0  950000 850000 0  1000000 850000 0  0 900000 0  50000 900000 0  100000 900000 0  150000 900000 0  200000 900000 0  250000 900000 0  300000 900000 0  350000 900000 0  400000 900000 0  450000 900000 0  500000 900000 0  550000 900000 0  600000 900000 0  650000 900000 0  700000 900000 0  750000 900000 0  800000 900000 0  850000 900000 0  900000 900000 0  950000 900000 0  1000000 900000 0  0 950000 0  50000 950000 0  100000 950000 0  150000 950000 0  200000 950000 0  250000 950000 0  300000 950000 0  350000 950000 0  400000 950000 0  450000 950000 0  500000 950000 0  550000 950000 0  600000 950000 0  650000 950000 0  700000 950000 0  750000 950000 0  800000 950000 0  850000 950000 0  900000 950000 0  950000 950000 0  1000000 950000 0  0 1000000 0  50000 1000000 0  100000 1000000 0  150000 1000000 0  200000 1000000 0  250000 1000000 0  300000 1000000 0  350000 1000000 0  400000 1000000 0  450000 1000000 0  500000 1000000 0  550000 1000000 0  600000 1000000 0  650000 1000000 0  700000 1000000 0  750000 1000000 0  800000 1000000 0  850000 1000000 0  900000 1000000 0  950000 1000000 0  1000000 1000000 0  0 1050000 0  50000 1050000 0  100000 1050000 0  150000 1050000 0  200000 1050000 0  250000 1050000 0  300000 1050000 0  350000 1050000 0  400000 1050000 0  450000 1050000 0  500000 1050000 0  550000 1050000 0  600000 1050000 0  650000 1050000 0  700000 1050000 0  750000 1050000 0  800000 1050000 0  850000 1050000 0  900000 1050000 0  950000 1050000 0  1000000 1050000 0  0 1100000 0  50000 1100000 0  100000 1100000 0  150000 1100000 0  200000 1100000 0  250000 1100000 0  300000 1100000 0  350000 1100000 0  400000 1100000 0  450000 1100000 0  500000 1100000 0  550000 1100000 0  600000 1100000 0  650000 1100000 0  700000 1100000 0  750000 1100000 0  800000 1100000 0  850000 1100000 0  900000 1100000 0  950000 1100000 0  1000000 1100000 0  0 1150000 0  50000 1150000 0  100000 1150000 0  150000 1150000 0  200000 1150000 0  250000 1150000 0  300000 1150000 0  350000 1150000 0  400000 1150000 0  450000 1150000 0  500000 1150000 0  550000 1150000 0  600000 1150000 0  650000 1150000 0  700000 1150000 0  750000 1150000 0  800000 1150000 0  850000 1150000 0  900000 1150000 0  950000 1150000 0  1000000 1150000 0  0 1200000 0  50000 1200000 0  100000 1200000 0  150000 1200000 0  200000 1200000 0  250000 1200000 0  300000 1200000 0  350000 1200000 0  400000 1200000 0  450000 1200000 0  500000 1200000 0  550000 1200000 0  600000 1200000 0  650000 1200000 0  700000 1200000 0  750000 1200000 0  800000 1200000 0  850000 1200000 0  900000 1200000 0  950000 1200000 0  1000000 1200000 0  0 1250000 0  50000 1250000 0  100000 1250000 0  150000 1250000 0  200000 1250000 0  250000 1250000 0  300000 1250000 0  350000 1250000 0  400000 1250000 0  450000 1250000 0  500000 1250000 0  550000 1250000 0  600000 1250000 0  650000 1250000 0  700000 1250000 0  750000 1250000 0  800000 1250000 0  850000 1250000 0  900000 1250000 0  950000 1250000 0  1000000 1250000 0  0 1300000 0  50000 1300000 0  100000 1300000 0  150000 1300000 0  200000 1300000 0  250000 1300000 0  300000 1300000 0  350000 1300000 0  400000 1300000 0  450000 1300000 0  500000 1300000 0  550000 1300000 0  600000 1300000 0  650000 1300000 0  700000 1300000 0  750000 1300000 0  800000 1300000 0  850000 1300000 0  900000 1300000 0  950000 1300000 0  1000000 1300000 0  0 1350000 0  50000 1350000 0  100000 1350000 0  150000 1350000 0  200000 1350000 0  250000 1350000 0  300000 1350000 0  350000 1350000 0  400000 1350000 0  450000 1350000 0  500000 1350000 0  550000 1350000 0  600000 1350000 0  650000 1350000 0  700000 135
[...]
<PointData  Vectors="f_19"> 
<DataArray  type="Float64"  Name="f_19"  NumberOfComponents="3" format="ascii">-2.4447622279926985e-08 -1.0235874613964061e-08 0.0000000000000000e+00  4.8622067896067786e-08 -6.3260675827245040e-09 0.0000000000000000e+00  4.2912073742622261e-08 -2.0414550756716981e-09 0.0000000000000000e+00  4.0473433367095553e-08 -6.9181202528712043e-10 0.0000000000000000e+00  3.9282463282496783e-08 -2.3255593313473875e-10 0.0000000000000000e+00  3.8506901247536267e-08 -4.5893559415261607e-11 0.0000000000000000e+00  3.7950277754858727e-08 3.5398942945654892e-11 0.0000000000000000e+00  3.7556010281623346e-08 6.8685474741644433e-11 0.0000000000000000e+00  3.7306461413758735e-08 7.8518570307004975e-11 0.0000000000000000e+00  3.7197246019511488e-08 7.8092495748956789e-11 0.0000000000000000e+00  3.7229495005906246e-08 7.6578101470731237e-11 0.0000000000000000e+00  3.7408089519317784e-08 8.2443540813348282e-11 0.0000000000000000e+00  3.7743245576457832e-08 1.0597317807262521e-10 0.0000000000000000e+00  3.8256550095647217e-08 1.6280876872538086e-10 0.0000000000000000e+00  3.8997024229476528e-08 2.8125960238981443e-10 0.0000000000000000e+00  4.0083637767783483e-08 5.2041257375771509e-10 0.0000000000000000e+00  4.1817653840681255e-08 1.0187774889851003e-09 0.0000000000000000e+00  4.4946006818161412e-08 2.1209286273463826e-09 0.0000000000000000e+00  5.0798409689289668e-08 4.6443312794881466e-09 0.0000000000000000e+00  5.8045220281095995e-08 9.1564051004350766e-09 0.0000000000000000e+00  -1.6407996295715053e-08 7.0507664679654800e-09 0.0000000000000000e+00  -1.8217206527890997e-08 -1.5793870927776651e-08 0.0000000000000000e+00  7.2201586247236282e-09 -1.1272192697871277e-08 0.0000000000000000e+00  1.8100969769689847e-08 -5.2504610170531237e-09 0.0000000000000000e+00  2.3175857967913531e-08 -2.3967842662620708e-09 0.0000000000000000e+00  2.5779506474624342e-08 -1.1421315964969296e-09 0.0000000000000000e+00  2.7254216098237253e-08 -5.5074207987326400e-10 0.0000000000000000e+00  2.8113322314950019e-08 -2.5452715670050058e-10 0.0000000000000000e+00  2.8617119206952025e-08 -1.0332465771807291e-10 0.0000000000000000e+00  2.8909290972591246e-08 -2.8126696639034375e-11 0.0000000000000000e+00  2.9070096491473499e-08 8.3988434950373244e-12 0.0000000000000000e+00  2.9141509164692195e-08 3.0797592646229108e-11 0.0000000000000000e+00  2.9138733620867929e-08 5.9536792886712741e-11 0.0000000000000000e+00  2.9054197287951034e-08 1.1677679507253847e-10 0.0000000000000000e+00  2.8856018012874229e-08 2.3298504808361987e-10 0.0000000000000000e+00  2.8479937816238824e-08 4.5873044705167111e-10 0.0000000000000000e+00  2.7808679704279793e-08 8.9059814110216418e-10 0.0000000000000000e+00  2.6616689144505088e-08 1.7320809448606369e-09 0.0000000000000000e+00  2.4392779303973630e-08 3.4293779901828548e-09 0.0000000000000000e+00  1.9693120908630158e-08 6.8729739757638857e-09 0.0000000000000000e+00  8.2716398749447313e-09 1.3027049189872926e-08 0.0000000000000000e+00  -1.8377030553246868e-08 1.0980803841075661e-08 0.0000000000000000e+00  -1.1249815647095830e-08 -1.9403459572940106e-08 0.0000000000000000e+00  -2.7727211476345615e-10 -1.8441160529728768e-08 0.0000000000000000e+00  5.8207367506295830e-09 -1.1363196567963254e-08 0.0000000000000000e+00  1.0697134190649475e-08 -6.5917730858598008e-09 0.0000000000000000e+00  1.4512736402950938e-08 -3.8276643063191720e-09 0.0000000000000000e+00  1.7163822476346855e-08 -2.2533147885329042e-09 0.0000000000000000e+00  1.8937910559197538e-08 -1.3303732554250012e-09 0.0000000000000000e+00  2.0100109671140692e-08 -7.6840763622622386e-10 0.0000000000000000e+00  2.0829678423389143e-08 -4.0861517213190766e-10 0.0000000000000000e+00  2.1237107938560103e-08 -1.5672735036707473e-10 0.0000000000000000e+00  2.1382469174468385e-08 5.1488602495235361e-11 0.0000000000000000e+00  2.1286414905727042e-08 2.6910834477489570e-10 0.0000000000000000e+00  2.0934165661419144e-08 5.5119293721952212e-10 0.0000000000000000e+00  2.0273118968137083e-08 9.6842158449719432e-10 0.0000000000000000e+00  1.9203486225602497e-08 1.6271484484012067e-09 0.0000000000000000e+00  1.7560046572564009e-08 2.7035989235305485e-09 0.0000000000000000e+00  1.5083662544730898e-08 4.4986418559354372e-09 0.0000000000000000e+00  1.1392799898991851e-08 7.4863229897438806e-09 0.0000000000000000e+00  6.0221185645986946e-09 1.2133343807463610e-08 0.0000000000000000e+00  -1.2882198322899130e-09 1.7586771218264985e-08 0.0000000000000000e+00  -1.3211603346702919e-08 1.4722797635628666e-08 0.0000000000000000e+00  -7.5588983375388896e-09 -2.0032939398747032e-08 0.0000000000000000e+00  -1.5600739963438751e-09 -1.9860992797826983e-08 0.0000000000000000e+00  1.1218713572450944e-09 -1.5322263167211339e-08 0.0000000000000000e+00  3.8853083470280099e-09 -1.0465022040191851e-08 0.0000000000000000e+00  6.7744665853658703e-09 -6.8908657561097542e-09 0.0000000000000000e+00  9.2915297492178143e-09 -4.4781062309537962e-09 0.0000000000000000e+00  1.1234962695422780e-08 -2.8731967929025631e-09 0.0000000000000000e+00  1.2627168557432315e-08 -1.7862982646597832e-09 0.0000000000000000e+00  1.3551583794934282e-08 -1.0174398870206140e-09 0.0000000000000000e+00  1.4082505342697097e-08 -4.2885630504500399e-10 0.0000000000000000e+00  1.4267111652925923e-08 8.2067943482647288e-11 0.0000000000000000e+00  1.4122679344966521e-08 6.0293188518204573e-10 0.0000000000000000e+00  1.3636738918171389e-08 1.2223170171968621e-09 0.0000000000000000e+00  1.2767290453101795e-08 2.0452727564545383e-09 0.0000000000000000e+00  1.1444301895056145e-08 3.2108644226981921e-09 0.0000000000000000e+00  9.5786896473936470e-09 4.9101754223379987e-09 0.0000000000000000e+00  7.0956348283152192e-09 7.3869518554686811e-09 0.0000000000000000e+00  4.0263663515715622e-09 1.0850400578003188e-08 0.0000000000000000e+00  6.6469263147702966e-10 1.5108789799611148e-08 0.0000000000000000e+00  -2.6251506560772372e-09 1.8748631332530001e-08 0.0000000000000000e+00  -8.9118212870594872e-09 1.7558837953910515e-08 0.0000000000000000e+00  -5.6957918918705889e-09 -1.9446747641716628e-08 0.0000000000000000e+00  -1.8941091727631985e-09 -1.9594298912771206e-08 0.0000000000000000e+00  -9.1824690367267660e-10 -1.6722523970571935e-08 0.0000000000000000e+00  2.1063683456088892e-10 -1.2831022144017700e-08 0.0000000000000000e+00  1.8405642337042237e-09 -9.2876464063798571e-09 0.0000000000000000e+00  3.6076766768164240e-09 -6.5038357065367927e-09 0.0000000000000000e+00  5.1886279144204272e-09 -4.4268927602166561e-09 0.0000000000000000e+00  6.4379264888110224e-09 -2.8849814682887340e-09 0.0000000000000000e+00  7.3210415225229930e-09 -1.7079237117937364e-09 0.0000000000000000e+00  7.8468586138189690e-09 -7.5240861567730120e-10 0.0000000000000000e+00  8.0311071927053311e-09 1.0197951731670141e-10 0.0000000000000000e+00  7.8812965852179282e-09 9.6359379618102514e-10 0.0000000000000000e+00  7.3925425165767700e-09 1.9401504830256139e-09 0.0000000000000000e+00  6.5501759334547811e-09 3.1490091264418765e-09 0.0000000000000000e+00  5.3403702103377268e-09 4.7237538148220806e-09 0.0000000000000000e+00  3.7748294718850286e-09 6.8085082028379975e-09 0.0000000000000000e+00  1.9388974169917700e-09 9.5166264087501019e-09 0.0000000000000000e+00  6.0129570134136837e-11 1.2805990875305028e-08 0.0000000000000000e+00  -1.4960028043927630e-09 1.6224893869663755e-08 0.0000000000000000e+00  -2.7382323973429390e-09 1.8690985219046317e-08 0.0000000000000000e+00  -6.6272987981267317e-09 1.8538858686957368e-08 0.0000000000000000e+00  -4.6375810513374960e-09 -1.8319891838054983e-08 0.0000000000000000e+00  -2.0653940082064937e-09 -1.8667293888624067e-08 0.0000000000000000e+00  -1.9901107855565349e-09 -1.6735649355632767e-08 0.0000000000000000e+00  -1.9080198534027842e-09 -1.3786835607892124e-08 0.0000000000000000e+00  -1.3166042148251281e-09 -1.0685688899026656e-08 0.0000000000000000e+00  -3.8257202545256910e-10 -7.9292692098322385e-09 0.0000000000000000e+00  6.2750205203986636e-10 -5.6551977130651054e-09 0.0000000000000000e+00  1.5237551335684887e-09 -3.8234259917511339e-09 0.0000000000000000e+00  2.2057040199883505e-09 -2.3300818642257753e-09 0.0000000000000000e+00  2.6301128766438616e-09 -1.0580514008414395e-09 0.0000000000000000e+00  2.7820429938769793e-09 1.0697423521024079e-10 0.0000000000000000e+00  2.6583173136138762e-09 1.2747831221195149e-09 0.0000000000000000e+00  2.2617431835597352e-09 2.5533810084692058e-09 0.0000000000000000e+00  1.6041704727175403e-09 4.0507469295639824e-09 0.0000000000000000e+00  7.1854189409574605e-10 5.8701344837135620e-09 0.0000000000000000e+00  -3.1887065412199408e-10 8.0898781238487395e-09 0.0000000000000000e+00  -1.3591348247371784e-09 1.0713197925321396e-08 0.0000000000000000e+00  -2.1687418774520961e-09 1.3575036546701020e-08 0.0000000000000000e+00  -2.5278594171649095e-09 1.6231055621427041e-08 0.0000000000000000e+00  -2.7172481939392246e-09 1.7984311067908571e-08 0.0000000000000000e+00  -5.2908138073814829e-09 1.8288898850174453e-08 0.0000000000000000e+00  -3.9614567997551139e-09 -1.6893897580769807e-08 0.0000000000000000e+00  -2.1964078221764454e-09 -1.7379563709025661e-08 0.0000000000000000e+00  -2.6580267603864375e-09 -1.6010778050012520e-08 0.0000000000000000e+00  -3.2371733957210668e-09 -1.3769497445334951e-08 0.0000000000000000e+00  -3.4010892310898592e-09 -1.1186761367334270e-08 0.0000000000000000e+00  -3.1794310791940902e-09 -8.6685551619739450e-09 0.0000000000000000e+00  -2.7461998857118709e-09 -6.4133410562440833e-09 0.0000000000000000e+00  -2.2672457187725173e-09 -4.4655857593481306e-09 0.0000000000000000e+00  -1.8579430477352178e-09 -2.7852939167926813e-09 0.0000000000000000e+00  -1.5859252744071622e-09 -1.2943409594783336e-09 0.0000000000000000e+00  -1.4848026549373965e-09 9.9509855458387837e-11 0.0000000000000000e+00  -1.5652032516107042e-09 1.4918130472817819e-09 0.0000000000000000e+00  -1.8194083185910070e-09 2.9760904262667121e-09 0.0000000000000000e+00  -2.2192666422377248e-09 4.6380769856048972e-09 0.0000000000000000e+00  -2.7080474685265614e-09 6.5441506236627982e-09 0.0000000000000000e+00  -3.1886706768562282e-09 8.7180126319504184e-09 0.0000000000000000e+00  -3.5167038664721348e-09 1.1100952286962630e-08 0.0000000000000000e+00  -3.5220805101185771e-09 1.3500826114113650e-08 0.0000000000000000e+00  -3.1214034973314486e-09 1.5563917572937966e-08 0.0000000000000000e+00  -2.7027217474393723e-09 1.6859166805844497e-08 0.0000000000000000e+00  -4.4276457893754486e-09 1.7380249562678991e-08 0.0000000000000000e+00  -3.4918374217211038e-09 -1.5268519369393991e-08 0.0000000000000000e+00  -2.3047911175640704e-09 -1.5853993163015013e-08 0.0000000000000000e+00  -3.1225259093541326e-09 -1.4846726721480535e-08 0.0000000000000000e+00  -4.1328156882425562e-09 -1.3118320760621571e-08 0.0000000000000000e+00  -4.8264038157907970e-09 -1.1003743202042125e-08 0.0000000000000000e+00  -5.1564382186128425e-09 -8.7999070847329421e-09 0.0000000000000000e+00  -5.2185769520769780e-09 -6.6956927690609103e-09 0.0000000000000000e+00  -5.1337320947258547e-09 -4.7718421036857205e-09 0.0000000000000000e+00  -5.0029365496412781e-09 -3.0321643005872272e-09 0.0000000000000000e+00  -4.8955395194735589e-09 -1.4350072439472146e-09 0.0000000000000000e+00  -4.8508632390620643e-09 8.4260151851456197e-11 0.0000000000000000e+00  -4.8826245309151177e-09 1.5988491561263952e-09 0.0000000000000000e+00  -4.9814136901526063e-09 3.1803443582986510e-09 0.0000000000000000e+00  -5.1139431802829172e-09 4.8885810953257947e-09 0.0000000000000000e+00  -5.2199425167123327e-09 6.7579118647158757e-09 0.0000000000000000e+00  -5.2100716294846723e-09 8.7772588678114522e-09 0.0000000000000000e+00  -4.9726292135896388e-09 1.0864767442052903e-08 0.0000000000000000e+00  -4.4053964486520656e-09 1.2846270565427248e-08 0.0000000000000000e+00  -3.5115661119367482e-09 1.4461710545029720e-08 0.0000000000000000e+00  -2.7021342159325890e-09 1.5445745560846818e-08 0.0000000000000000e+00  -3.8296894914422231e-09 1.6086846577093967e-08 0.0000000000000000e+00  -3.1480141744294160e-09 -1.3497405924478859e-08 0.0000000000000000e+00  -2.3939122708868725e-09 -1.4156870762472188e-08 0.0000000000000000e+00  -3.4641654457749726e-09 -1.3396934543513912e-08 0.0000000000000000e+00  -4.7659582144502938e-09 -1.2047762789033078e-08 0.0000000000000000e+00  -5.8281910314234382e-09 -1.0328526986203148e-08 0.0000000000000000e+00  -6.5661629004892133e-09 -8.4490785858697041e-09 0.0000000000000000e+00  -7.0202914316995980e-09 -6.5652021606537532e-09 0.0000000000000000e+00  -7.2678754753429223e-09 -4.7636790135488056e-09 0.0000000000000000e+00  -7.3847835700476859e-09 -3.0717583059165872e-09 0.0000000000000000e+00  -7.4294296948499673e-09 -1.4749876145485047e-09 0.0000000000000000e+00  -7.4378722924923483e-09 6.5685056666436359e-11 0.0000000000000000e+00  -7.4234712694753258e-09 1.5999788833412886e-09 0.0000000000000000e+00  -7.3774899386239309e-09 3.1766204744606028e-09 0.0000000000000000e+00  -7.2693798824402972e-09 4.8319811519949798e-09 0.0000000000000000e+00  -7.0474496411978565e-09 6.5772484125238393e-09 0.0000000000000000e+00  -6.6426128673885154e-09 8.3837252604877569e-09 0.0000000000000000e+00  -5.9804367647184505e-09 1.0168851360959236e-08 0.0000000000000000e+00  -5.0113821313812848e-09 1.1790520946199831e-08 0.0000000000000000e+00  -3.7867309195844586e-09 1.3063773332858209e-08 0.0000000000000000e+00  -2.7080393319500090e-09 1.3825515394807796e-08 0.0000000000000000e+00  -3.3957032356676326e-09 1.4542474343658996e-08 0.0000000000000000e+00  -2.8888358391034291e-09 -1.1616507710614255e-08 0.0000000000000000e+00  -2.4658173148394763e-09 -1.2331647333733718e-08 0.0000000000000000e+00  -3.7212115762501688e-09 -1.1751320990477591e-08 0.0000000000000000e+00  -5.2251506523255659e-09 -1.0693103354115036e-08 0.0000000000000000e+00  -6.5438378756533542e-09 -9.3058679420168675e-09 0.0000000000000000e+00  -7.5757293814991734e-09 -7.7364575574863419e-09 0.0000000000000000e+00  -8.3251992633622640e-09 -6.1052737060572884e-09 0.0000000000000000e+00  -8.8344889587513288e-09 -4.4907025109212207e-09 0.0000000000000000e+00  -9.1537783471178927e-09 -2.9289408260308311e-09 0.0000000000000000e+00  -9.3259794537525060e-09 -1.4227320083344087e-09 0.0000000000000000e+00  -9.3794881876472413e-09 4.7052304286984899e-11 0.0000000000000000e+00  -9.3253654283959654e-09 1.5099093674920594e-09 0.0000000000000000e+00  -9.1567848503360030e-09 2.9949114730991758e-09 0.0000000000000000e+00  -8.8498815044083301e-09 4.5202147852536055e-09 0.0000000000000000e+00  -8.3664159301985068e-09 6.0825154575127298e-09 0.0000000000000000e+00  -7.6598817755743979e-09 7.6471070715873088e-09 0.0000000000000000e+00  -6.6879910891954129e-09 9.1410930551459084e-09 0.0000000000000000e+00  -5.4376946329482307e-09 1.0454700413836323e-08 0.0000000000000000e+00  -3.9854552862318320e-09 1.1458475049259304e-08 0.0000000000000000e+00  -2.7142963245701693e-09 1.2053419469382969e-08 0.0000000000000000e+00  -3.0714901641232013e-09 1.2821953027641141e-08 0.0000000000000000e+00  -2.6915579921100121e-09 -9.6530475568054166e-09 0.0000000000000000e+00  -2.5228509047978098e-09 -1.0410350178581805e-08 0.0000000000000000e+00  -3.9154008495844966e-09 -9.9682600237045567e-09 0.0000000000000000e+00  -5.5609964351932104e-09 -9.1432307967135059e-09 0.0000000000000000e+00  -7.0575146900570527e-09 -8.0400253705338688e-09 0.0000000000000000e+00  -8.2970589238919477e-09 -6.7610124384718121e-09 0.0000000000000000e+00  -9.2613441368071664e-09 -5.3958375153408208e-09 0.0000000000000000e+00  -9.9668174867293567e-09 -4.0092770578127436e-09 0.0000000000000000e+00  -1.0441824596359182e-08 -2.6377877762171975e-09 0.0000000000000000e+00  -1.0713987974523367e-08 -1.2931313144761891e-09 0.0000000000000000e+00  -1.0802968365331442e-08 3.0336864258547386e-11 0.0000000000000000e+00  -1.0716842971553375e-08 1.3470520011737021e-09 0.0000000000000000e+00  -1.0451045015578674e-08 2.6714173511555360e-09 0.0000000000000000e+00  -9.9893947448807829e-09 4.0092022853153915e-09 0.0000000000000000e+00  -9.3073969207623055e-09 5.3495638312498593e-09 0.0000000000000000e+00  -8.3785723321446367e-09 6.6586713642690142e-09 0.0000000000000000e+00  -7.1853101720758929e-09 7.8768831829665239e-09 0.0000000000000000e+00  -5.7386505780486287e-09 8.9223723046273956e-09 0.0000000000000000e+00  -4.1278781061069494e-09 9.7057021991781501e-09 0.0000000000000000e+00  -2.7174990945257062e-09 1.0169027661288823e-08 0.0000000000000000e+00  -2.8258776329398712e-09 1.0973317544417333e-08 0.0000000000000000e+00  -2.5429354738173287e-09 -7.6287663731727444e-09 0.0000000000000000e+00  -2.5676360498314322e-09 -8.4179995521982527e-09 0.0000000000000000e+00  -4.0610736646396346e-09 -8.0884469957891358e-09 0.0000000000000000e+00  -5.8053995859708593e-09 -7.4589903894679289e-09 0.0000000000000000e+00  -7.4237555379895168e-09 -6.6056694705082561e-09 0.0000000000000000e+00  -8.8068130103064262e-09 -5.5993067569928794e-09 0.0000000000000000e+00  -9.9223599220016841e-09 -4.5045546637209336e-09 0.0000000000000000e+00  -1.0768855631463430e-08 -3.3716943662519766e-09 0.0000000000000000e+00  -1.1357840686969613e-08 -2.2327666815315597e-09 0.0000000000000000e+00  -1.1704066782633275e-08 -1.1026672713578115e-09 0.0000000000000000e+00  -1.1819258006693566e-08 1.6506174788857834e-11 0.0000000000000000e+00  -1.1708607275381900e-08 1.1294433726384662e-09 0.0000000000000000e+00  -1.1369618375074624e-08 2.2410282072621825e-09 0.0000000000000000e+00  -1.0793099285526749e-08 3.3498745280779439e-09 0.0000000000000000e+00  -9.9663306128517456e-09 4.4426589896481706e-09 0.0000000000000000e+00  -8.8786500601963375e-09 5.4901816075030384e-09 0.0000000000000000e+00  -7.5301998161285176e-09 6.4464796038505639e-09 0.0000000000000000e+00  -5.9475784620665544e-09 7.2526081311411047e-09 0.0000000000000000e+00  -4.2265573050449935e-09 7.8480623940085110e-09 0.0000000000000000e+00  -2.7163181476992189e-09 8.2022068054975310e-09 0.0000000000000000e+00  -2.6400875079707440e-09 9.0307096639209758e-09 0.0000000000000000e+00  -2.4350642016772615e-09 -5.5614157647346248e-09 0.0000000000000000e+00  -2.6028172051086714e-09 -6.3746590381121255e-09 0.0000000000000000e+00  -4.1685857225728104e-09 -6.1416469740114613e-09 0.0000000000000000e+00  -5.9799720492757436e-09 -5.6835008134970634e-09 0.0000000000000000e+00  -7.6794346623726922e-09 -5.0567151538747816e-09 0.0000000000000000e+00  -9.1583412283445080e-09 -4.3091724279144136e-09 0.0000000000000000e+00  -1.0376149059451985e-08 -3.4854755804559056e-09 0.0000000000000000e+00  -1.1319344985842014e-08 -2.6221703014379591e-09 0.0000000000000000e+00  -1.1987458582570276e-08 -1.7445693172297099e-09 0.0000000000000000e+00  -1.2385474137876136e-08 -8.6677086790361118e-10 0.0000000000000000e+00  -1.2518790963630019e-08 5.8840461248431171e-12 0.0000000000000000e+00  -1.2390200732964037e-08 8.7289478365198696e-10 0.0000000000000000e+00  -1.1998830349143163e-08 1.7340637610725905e-09 0.0000000000000000e+00  -1.1341013515920451e-08 2.5850174654397176e-09 0.0000000000000000e+00  -1.0413037953903998e-08 3.4134268329458478e-09 0.0000000000000000e+00  -9.2157454198550788e-09 4.1966553617230862e-09 0.0000000000000000e+00  -7.7614257309420052e-09 4.9016738999782353e-09 0.0000000000000000e+00  -6.0865727765029004e-09 5.4881346589853313e-09 0.0000000000000000e+00  -4.2903459423535541e-09 5.9169420773755737e-09 0.0000000000000000e+00  -2.7106882284014561e-09 6.1761617677163067e-09 0.0000000000000000e+00  -2.5024938342233559e-09 7.0199213772237224e-09 0.0000000000000000e+00  -2.3632648187838484e-09 -3.4657381752176870e-09 0.0000000000000000e+00  -2.6308020561091245e-09 -4.2966802521402308e-09 0.0000000000000000e+00  -4.2455910877453093e-09 -4.1504431611167894e-09 0.0000000000000000e+00  -6.0997444772804659e-09 -3.8483403805800046e-09 0.0000000000000000e+00  -7.8497795904303905e-09 -3.4327796944013828e-09 0.0000000000000000e+00  -9.3885335518387050e-09 -2.9342024247945507e-09 0.0000000000000000e+00  -1.0670777893938844e-08 -2.3808060474075028e-09 