<?xml version="1.0"?>
<VTKFile type="UnstructuredGrid"  version="0.1"  >
<UnstructuredGrid>
<Piece  NumberOfPoints="651" NumberOfCells="1200">
<Points>
<DataArray  type="Float64"  NumberOfComponents="3"  format="ascii">0 0 0  50000 0 0  100000 0 0  150000 0 0  200000 0 0  250000 0 0  300000 0 0  350000 0 0  400000 0 0  450000 0 0  500000 0 0  550000 0 0  600000 0 0  650000 0 0  700000 0 0  750000 0 0  800000 0 0  850000 0 0  900000 0 0  950000 0 0  1000000 0 0  0 50000 0  50000 50000 0  100000 50000 0  150000 50000 0  200000 50000 0  250000 50000 0  300000 50000 0  350000 50000 0  400000 50000 0  450000 50000 0  500000 50000 0  550000 50000 0  600000 50000 0  650000 50000 0  700000 50000 0  750000 50000 0  800000 50000 0  850000 50000 0  900000 50000 0  950000 50000 0  1000000 50000 0  0 100000 0  50000 100000 0  100000 100000 0  150000 100000 0  200000 100000 0  250000 100000 0  300000 100000 0  350000 100000 0  400000 100000 0  450000 100000 0  500000 100000 0  550000 100000 0  600000 100000 0  650000 100000 0  700000 100000 0  750000 100000 0  800000 100000 0  850000 100000 0  900000 100000 0  950000 100000 0  1000000 100000 0  0 150000 0  50000 150000 0  100000 150000 0  150000 150000 0  200000 150000 0  250000 150000 0  300000 150000 0  350000 150000 0  400000 150000 0  450000 150000 0  500000 150000 0  550000 150000 0  600000 150000 0  650000 150000 0  700000 150000 0  750000 150000 0  800000 150000 0  850000 150000 0  900000 150000 0  950000 150000 0  1000000 150000 0  0 200000 0  50000 200000 0  100000 200000 0  150000 200000 0  200000 200000 0  250000 200000 0  300000 200000 0  350000 200000 0  400000 200000 0  450000 200000 0  500000 200000 0  550000 200000 0  600000 200000 0  650000 200000 0  700000 200000 0  750000 200000 0  800000 200000 0  850000 200000 0  900000 200000 0  950000 200000 0  1000000 200000 0  0 250000 0  50000 250000 0  100000 250000 0  150000 250000 0  200000 250000 0  250000 250000 0  300000 250000 0  350000 250000 0  400000 250000 0  450000 250000 0  500000 250000 0  550000 250000 0  600000 250000 0  650000 250000 0  700000 250000 0  750000 250000 0  800000 250000 0  850000 250000 0  900000 250000 0  950000 250000 0  1000000 250000 0  0 300000 0  50000 300000 0  100000 300000 0  150000 300000 0  200000 300000 0  250000 300000 0  300000 300000 0  350000 300000 0  400000 300000 0  450000 300000 0  500000 300000 0  550000 300000 0  600000 300000 0  650000 300000 0  700000 300000 0  750000 300000 0  800000 300000 0  850000 300000 0  900000 300000 0  950000 300000 0  1000000 300000 0  0 350000 0  50000 350000 0  100000 350000 0  150000 350000 0  200000 350000 0  250000 350000 0  300000 350000 0  350000 350000 0  400000 350000 0  450000 350000 0  500000 350000 0  550000 350000 0  600000 350000 0  650000 350000 0  700000 350000 0  750000 350000 0  800000 350000 0  850000 350000 0  900000 350000 0  950000 350000 0  1000000 350000 0  0 400000 0  50000 400000 0  100000 400000 0  150000 400000 0  200000 400000 0  250000 400000 0  300000 400000 0  350000 400000 0  400000 400000 0  450000 400000 0  500000 400000 0  550000 400000 0  600000 400000 0  650000 400000 0  700000 400000 0  750000 400000 0  800000 400000 0  850000 400000 0  900000 400000 0  950000 400000 0  1000000 400000 0  0 450000 0  50000 450000 0  100000 450000 0  150000 450000 0  200000 450000 0  250000 450000 0  300000 450000 0  350000 450000 0  400000 450000 0  450000 450000 0  500000 450000 0  550000 450000 0  600000 450000 0  650000 450000 0  700000 450000 0  750000 450000 0  800000 450000 0  850000 450000 0  900000 450000 0  950000 450000 0  1000000 450000 0  0 500000 0  50000 500000 0  100000 500000 0  150000 500000 0  200000 500000 0  250000 500000 0  300000 500000 0  350000 500000 0  400000 500000 0  450000 500000 0  500000 500000 0  550000 500000 0  600000 500000 0  650000 500000 0  700000 500000 0  750000 500000 0  800000 500000 0  850000 500000 0  900000 500000 0  950000 500000 0  1000000 500000 0  0 550000 0  50000 550000 0  100000 550000 0  150000 550000 0  200000 550000 0  250000 550000 0  300000 550000 0  350000 550000 0  400000 550000 0  450000 550000 0  500000 550000 0  550000 550000 0  600000 550000 0  650000 550000 0  700000 550000 0  750000 550000 0  800000 550000 0  850000 550000 0  900000 550000 0  950000 550000 0  1000000 550000 0  0 600000 0  50000 600000 0  100000 600000 0  150000 600000 0  200000 600000 0  250000 600000 0  300000 600000 0  350000 600000 0  400000 600000 0  450000 600000 0  500000 600000 0  550000 600000 0  600000 600000 0  650000 600000 0  700000 600000 0  750000 600000 0  800000 600000 0  850000 600000 0  900000 600000 0  950000 600000 0  1000000 600000 0  0 650000 0  50000 650000 0  100000 650000 0  150000 650000 0  200000 650000 0  250000 650000 0  300000 650000 0  350000 650000 0  400000 650000 0  450000 650000 0  500000 650000 0  550000 650000 0  600000 650000 0  650000 650000 0  700000 650000 0  750000 650000 0  800000 650000 0  850000 650000 0  900000 650000 0  950000 650000 0  1000000 650000 0  0 700000 0  50000 700000 0  100000 700000 0  150000 700000 0  200000 700000 0  250000 700000 0  300000 700000 0  350000 700000 0  400000 700000 0  450000 700000 0  500000 700000 0  550000 700000 0  600000 700000 0  650000 700000 0  700000 700000 0  750000 700000 0  800000 700000 0  850000 700000 0  900000 700000 0  950000 700000 0  1000000 700000 0  0 750000 0  50000 750000 0  100000 750000 0  150000 750000 0  200000 750000 0  250000 750000 0  300000 750000 0  350000 750000 0  400000 750000 0  450000 750000 0  500000 750000 0  550000 750000 0  600000 750000 0  650000 750000 0  700000 750000 0  750000 750000 0  800000 750000 0  850000 750000 0  900000 750000 0  950000 750000 0  1000000 750000 0  0 800000 0  50000 800000 0  100000 800000 0  150000 800000 0  200000 800000 0  250000 800000 0  300000 800000 0  350000 800000 0  400000 800000 0  450000 800000 0  500000 800000 0  550000 800000 0  600000 800000 0  650000 800000 0  700000 800000 0  750000 800000 0  800000 800000 0  850000 800000 0  900000 800000 0  950000 800000 0  1000000 800000 0  0 850000 0  50000 850000 0  100000 850000 0  150000 850000 0  200000 850000 0  250000 850000 0  300000 850000 0  350000 850000 0  400000 850000 0  450000 850000 0  500000 850000 0  550000 850000 0  600000 850000 0  650000 850000 0  700000 850000 0  750000 850000 0  800000 850000 0  850000 850000 0  900000 850000 0  950000 850000 0  1000000 850000 0  0 900000 0  50000 900000 0  100000 900000 0  150000 900000 0  200000 900000 0  250000 900000 0  300000 900000 0  350000 900000 0  400000 900000 0  450000 900000 0  500000 900000 0  550000 900000 0  600000 900000 0  650000 900000 0  700000 900000 0  750000 900000 0  800000 900000 0  850000 900000 0  900000 900000 0  950000 900000 0  1000000 900000 0  0 950000 0  50000 950000 0  100000 950000 0  150000 950000 0  200000 950000 0  250000 950000 0  300000 950000 0  350000 950000 0  400000 950000 0  450000 950000 0  500000 950000 0  550000 950000 0  600000 950000 0  650000 950000 0  700000 950000 0  750000 950000 0  800000 950000 0  850000 950000 0  900000 950000 0  950000 950000 0  1000000 950000 0  0 1000000 0  50000 1000000 0  100000 1000000 0  150000 1000000 0  200000 1000000 0  250000 1000000 0  300000 1000000 0  350000 1000000 0  400000 1000000 0  450000 1000000 0  500000 1000000 0  550000 1000000 0  600000 1000000 0  650000 1000000 0  700000 1000000 0  750000 1000000 0  800000 1000000 0  850000 1000000 0  900000 1000000 0  950000 1000000 0  1000000 1000000 0  0 1050000 0  50000 1050000 0  100000 1050000 0  150000 1050000 0  200000 1050000 0  250000 1050000 0  300000 1050000 0  350000 1050000 0  400000 1050000 0  450000 1050000 0  500000 1050000 0  550000 1050000 0  600000 1050000 0  650000 1050000 0  700000 1050000 0  750000 1050000 0  800000 1050000 0  850000 1050000 0  900000 1050000 0  950000 1050000 0  1000000 1050000 0  0 1100000 0  50000 1100000 0  100000 1100000 0  150000 1100000 0  200000 1100000 0  250000 1100000 0  300000 1100000 0  350000 1100000 0  400000 1100000 0  450000 1100000 0  500000 1100000 0  550000 1100000 0  600000 1100000 0  650000 1100000 0  700000 1100000 0  750000 1100000 0  800000 1100000 0  850000 1100000 0  900000 1100000 0  950000 1100000 0  1000000 1100000 0  0 1150000 0  50000 1150000 0  100000 1150000 0  150000 1150000 0  200000 1150000 0  250000 1150000 0  300000 1150000 0  350000 1150000 0  400000 1150000 0  450000 1150000 0  500000 1150000 0  550000 1150000 0  600000 1150000 0  650000 1150000 0  700000 1150000 0  750000 1150000 0  800000 1150000 0  850000 1150000 0  900000 1150000 0  950000 1150000 0  1000000 1150000 0  0 1200000 0  50000 1200000 0  100000 1200000 0  150000 1200000 0  200000 1200000 0  250000 1200000 0  300000 1200000 0  350000 1200000 0  400000 1200000 0  450000 1200000 0  500000 1200000 0  550000 1200000 0  600000 1200000 0  650000 1200000 0  700000 1200000 0  750000 1200000 0  800000 1200000 0  850000 1200000 0  900000 1200000 0  950000 1200000 0  1000000 1200000 0  0 1250000 0  50000 1250000 0  100000 1250000 0  150000 1250000 0  200000 1250000 0  250000 1250000 0  300000 1250000 0  350000 1250000 0  400000 1250000 0  450000 1250000 0  500000 1250000 0  550000 1250000 0  600000 1250000 0  650000 1250000 0  700000 1250000 0  750000 1250000 0  800000 1250000 0  850000 1250000 0  900000 1250000 0  950000 1250000 0  1000000 1250000 0  0 1300000 0  50000 1300000 0  100000 1300000 0  150000 1300000 0  200000 1300000 0  250000 1300000 0  300000 1300000 0  350000 1300000 0  400000 1300000 0  450000 1300000 0  500000 1300000 0  550000 1300000 0  600000 1300000 0  650000 1300000 0  700000 1300000 0  750000 1300000 0  800000 1300000 0  850000 1300000 0  900000 1300000 0  950000 1300000 0  1000000 1300000 0  0 1350000 0  50000 1350000 0  100000 1350000 0  150000 1350000 0  200000 1350000 0  250000 1350000 0  300000 1350000 0  350000 1350000 0  400000 1350000 0  450000 1350000 0  500000 1350000 0  550000 1350000 0  600000 1350000 0  650000 1350000 0  700000 135
[...]
<PointData  Vectors="f_19"> 
<DataArray  type="Float64"  Name="f_19"  NumberOfComponents="3" format="ascii">-2.4218893696335898e-08 -1.0798441747321415e-08 0.0000000000000000e+00  4.8815844922122340e-08 -6.8677184508888513e-09 0.0000000000000000e+00  4.3060476882034231e-08 -2.5427289413938674e-09 0.0000000000000000e+00  4.0584975136033423e-08 -1.1539885470451754e-09 0.0000000000000000e+00  3.9361458951254162e-08 -6.5858404195301470e-10 0.0000000000000000e+00  3.8557327556315795e-08 -4.3694270981090141e-10 0.0000000000000000e+00  3.7976000521565456e-08 -3.2108415742555106e-10 0.0000000000000000e+00  3.7560908001094544e-08 -2.5350191527435627e-10 0.0000000000000000e+00  3.7294443583628116e-08 -2.0979334473797283e-10 0.0000000000000000e+00  3.7172182786928120e-08 -1.7709521921013249e-10 0.0000000000000000e+00  3.7195094865112660e-08 -1.4668246836120605e-10 0.0000000000000000e+00  3.7367747495698838e-08 -1.1058871309954343e-10 0.0000000000000000e+00  3.7699881015180179e-08 -5.9032687437307754e-11 0.0000000000000000e+00  3.8212453613823515e-08 2.3170449179924811e-11 0.0000000000000000e+00  3.8953731619174020e-08 1.6395368431844486e-10 0.0000000000000000e+00  4.0041842094816463e-08 4.2212338222070232e-10 0.0000000000000000e+00  4.1777154391383048e-08 9.3599587968244280e-10 0.0000000000000000e+00  4.4905685217729065e-08 2.0500022631879225e-09 0.0000000000000000e+00  5.0756343630887425e-08 4.5814739284706686e-09 0.0000000000000000e+00  5.7999639843323046e-08 9.0979278563270441e-09 0.0000000000000000e+00  -1.6455263159907100e-08 6.9907224440312777e-09 0.0000000000000000e+00  -1.7962111509753746e-08 -1.6336597600227144e-08 0.0000000000000000e+00  7.3440115510974832e-09 -1.1447311224573158e-08 0.0000000000000000e+00  1.8289998685992499e-08 -5.2901698613253435e-09 0.0000000000000000e+00  2.3334548610070241e-08 -2.4274011646740737e-09 0.0000000000000000e+00  2.5891944437977113e-08 -1.1702938557518913e-09 0.0000000000000000e+00  2.7328527770393417e-08 -5.7821580020624508e-10 0.0000000000000000e+00  2.8156403246003984e-08 -2.8185509362587331e-10 0.0000000000000000e+00  2.8634716393608098e-08 -1.3063823938042876e-10 0.0000000000000000e+00  2.8906757330114992e-08 -5.5504450946848637e-11 0.0000000000000000e+00  2.9052425918482950e-08 -1.9104182535540866e-11 0.0000000000000000e+00  2.9113297476353042e-08 3.1539631720883487e-12 0.0000000000000000e+00  2.9104134098565171e-08 3.1806127544901388e-11 0.0000000000000000e+00  2.9016863287764621e-08 8.9089479896996055e-11 0.0000000000000000e+00  2.8819045557399566e-08 2.0553623333624715e-10 0.0000000000000000e+00  2.8445826839057758e-08 4.3174232038726430e-10 0.0000000000000000e+00  2.7779333240646475e-08 8.6424683013660736e-10 0.0000000000000000e+00  2.6593453506954160e-08 1.7063713029212861e-09 0.0000000000000000e+00  2.4376346050943391e-08 3.4040001377737133e-09 0.0000000000000000e+00  1.9682428806926958e-08 6.8472444087677755e-09 0.0000000000000000e+00  8.2633454941274199e-09 1.2998776213571791e-08 0.0000000000000000e+00  -1.8422699413974220e-08 1.0923697626434980e-08 0.0000000000000000e+00  -1.0961193568169013e-08 -1.9899612359096192e-08 0.0000000000000000e+00  -2.1029490524521905e-10 -1.8602896848492724e-08 0.0000000000000000e+00  5.9460292161943428e-09 -1.1323340342087587e-08 0.0000000000000000e+00  1.0845279654214035e-08 -6.5196981594777771e-09 0.0000000000000000e+00  1.4649702193208551e-08 -3.7536148205836258e-09 0.0000000000000000e+00  1.7276733719299519e-08 -2.1854405990068229e-09 0.0000000000000000e+00  1.9025941529899116e-08 -1.2712370427683701e-09 0.0000000000000000e+00  2.0165936846848555e-08 -7.1865512913124001e-10 0.0000000000000000e+00  2.0876813670259380e-08 -3.6829492128350961e-10 0.0000000000000000e+00  2.1269175557917808e-08 -1.2566347867728560e-10 0.0000000000000000e+00  2.1402926275057035e-08 7.3641604600011457e-11 0.0000000000000000e+00  2.1298422135230288e-08 2.8287902935389127e-10 0.0000000000000000e+00  2.0940525035814227e-08 5.5730100513725042e-10 0.0000000000000000e+00  2.0276241232357125e-08 9.6775620048698026e-10 0.0000000000000000e+00  1.9205372556037877e-08 1.6207039382107514e-09 0.0000000000000000e+00  1.7562275630129055e-08 2.6923563987834879e-09 0.0000000000000000e+00  1.5087354427722629e-08 4.4833877018254104e-09 0.0000000000000000e+00  1.1398461654352560e-08 7.4674196606873163e-09 0.0000000000000000e+00  6.0289581395170587e-09 1.2110421756918873e-08 0.0000000000000000e+00  -1.2829805238060711e-09 1.7563030765531397e-08 0.0000000000000000e+00  -1.3252196781381880e-08 1.4671946337196535e-08 0.0000000000000000e+00  -7.2440297237738571e-09 -2.0482227970409226e-08 0.0000000000000000e+00  -1.5268939422530283e-09 -2.0073929198551546e-08 0.0000000000000000e+00  1.1735937650393701e-09 -1.5316894833208645e-08 0.0000000000000000e+00  3.9733313573977823e-09 -1.0387750213638182e-08 0.0000000000000000e+00  6.8782243092418673e-09 -6.7949085543547474e-09 0.0000000000000000e+00  9.3929392653949560e-09 -4.3830917651615462e-09 0.0000000000000000e+00  1.1325514159896250e-08 -2.7868429130045100e-09 0.0000000000000000e+00  1.2704200296565877e-08 -1.7116086927873786e-09 0.0000000000000000e+00  1.3615284751071856e-08 -9.5541785237624333e-10 0.0000000000000000e+00  1.4134315263292056e-08 -3.7959480217522301e-10 0.0000000000000000e+00  1.4308956836933330e-08 1.1897201901469053e-10 0.0000000000000000e+00  1.4156602329332817e-08 6.2822610080259671e-10 0.0000000000000000e+00  1.3664710018111596e-08 1.2370269552745474e-09 0.0000000000000000e+00  1.2791104002330065e-08 2.0506469479032920e-09 0.0000000000000000e+00  1.1465506036804008e-08 3.2082979679684829e-09 0.0000000000000000e+00  9.5985146205508254e-09 4.9010974338405900e-09 0.0000000000000000e+00  7.1148790364178762e-09 7.3726787893367993e-09 0.0000000000000000e+00  4.0451408791042310e-09 1.0832021417196366e-08 0.0000000000000000e+00  6.8142410776104699e-10 1.5087455746984722e-08 0.0000000000000000e+00  -2.6132387962587361e-09 1.8733206945226214e-08 0.0000000000000000e+00  -8.9434695128257532e-09 1.7517144822229546e-08 0.0000000000000000e+00  -5.3613503913219680e-09 -1.9850171366072377e-08 0.0000000000000000e+00  -1.8744343397791630e-09 -1.9828262174247692e-08 0.0000000000000000e+00  -9.1176682515120476e-10 -1.6760191169467927e-08 0.0000000000000000e+00  2.4532941208075285e-10 -1.2778363515760570e-08 0.0000000000000000e+00  1.9001202223618447e-09 -9.1979699975882336e-09 0.0000000000000000e+00  3.6791391605777970e-09 -6.4043135840295070e-09 0.0000000000000000e+00  5.2620555378561330e-09 -4.3308728272325543e-09 0.0000000000000000e+00  6.5076642038129924e-09 -2.7988456063771543e-09 0.0000000000000000e+00  7.3844872693379681e-09 -1.6345447340580993e-09 0.0000000000000000e+00  7.9032519400330226e-09 -6.9283831206121205e-10 0.0000000000000000e+00  8.0807101592376147e-09 1.4770613985821154e-10 0.0000000000000000e+00  7.9248972643976453e-09 9.9607738889182023e-10 0.0000000000000000e+00  7.4311607049324768e-09 1.9604374949900548e-09 0.0000000000000000e+00  6.5848783081205942e-09 3.1584790873632352e-09 0.0000000000000000e+00  5.3721321919996895e-09 4.7240293921657584e-09 0.0000000000000000e+00  3.8043970741169691e-09 6.8013673394063273e-09 0.0000000000000000e+00  1.9666008032784047e-09 9.5039303049751171e-09 0.0000000000000000e+00  8.5549905465592665e-11 1.2789749050392467e-08 0.0000000000000000e+00  -1.4749648395089414e-09 1.6207985088860851e-08 0.0000000000000000e+00  -2.7222588931316288e-09 1.8686517242868895e-08 0.0000000000000000e+00  -6.6464767265602841e-09 1.8508021006010016e-08 0.0000000000000000e+00  -4.2888173108608765e-09 -1.8678678283287775e-08 0.0000000000000000e+00  -2.0512549359553672e-09 -1.8898393390294598e-08 0.0000000000000000e+00  -2.0108230260180447e-09 -1.6802739603276910e-08 0.0000000000000000e+00  -1.9121361881705331e-09 -1.3762541697356496e-08 0.0000000000000000e+00  -1.2967218749599839e-09 -1.0613896524819869e-08 0.0000000000000000e+00  -3.4478881042628782e-10 -7.8378115417537975e-09 0.0000000000000000e+00  6.7550642090733778e-10 -5.5604439926280124e-09 0.0000000000000000e+00  1.5759754621850032e-09 -3.7345509527055547e-09 0.0000000000000000e+00  2.2582147586988299e-09 -2.2519599886130244e-09 0.0000000000000000e+00  2.6806593441283518e-09 -9.9302271144019943e-10 0.0000000000000000e+00  2.8295309676402487e-09 1.5809851192971487e-10 0.0000000000000000e+00  2.7023989409311298e-09 1.3121676731637241e-09 0.0000000000000000e+00  2.3025166612031355e-09 2.5778632049552418e-09 0.0000000000000000e+00  1.6419600724767687e-09 4.0636645811062194e-09 0.0000000000000000e+00  7.5371657382122234e-10 5.8732215597017303e-09 0.0000000000000000e+00  -2.8607961314504701e-10 8.0852037475153799e-09 0.0000000000000000e+00  -1.3288574765873461e-09 1.0703166143393521e-08 0.0000000000000000e+00  -2.1417930080985577e-09 1.3562582431582784e-08 0.0000000000000000e+00  -2.5063791302586385e-09 1.6220575971880383e-08 0.0000000000000000e+00  -2.6988153239691544e-09 1.7992345323824419e-08 0.0000000000000000e+00  -5.2940721802905218e-09 1.8269716044020037e-08 0.0000000000000000e+00  -3.6030106726073745e-09 -1.7209450839035841e-08 0.0000000000000000e+00  -2.1842515506715187e-09 -1.7595364057437053e-08 0.0000000000000000e+00  -2.6953943549754127e-09 -1.6093124089578817e-08 0.0000000000000000e+00  -3.2681452808559688e-09 -1.3768347422563670e-08 0.0000000000000000e+00  -3.4127007930798830e-09 -1.1135279080915701e-08 0.0000000000000000e+00  -3.1724077025438950e-09 -8.5912729391319990e-09 0.0000000000000000e+00  -2.7250425851260770e-09 -6.3268715463150938e-09 0.0000000000000000e+00  -2.2368005154468830e-09 -4.3804788111639693e-09 0.0000000000000000e+00  -1.8222069815392370e-09 -2.7078792195257652e-09 0.0000000000000000e+00  -1.5478051087252249e-09 -1.2281417353361656e-09 0.0000000000000000e+00  -1.4462361008690458e-09 1.5282279511448633e-10 0.0000000000000000e+00  -1.5273789129737828e-09 1.5318227185567017e-09 0.0000000000000000e+00  -1.7829847909543599e-09 3.0032744273198382e-09 0.0000000000000000e+00  -2.1845688149870557e-09 4.6535997153853051e-09 0.0000000000000000e+00  -2.6752500255204987e-09 6.5497525385327725e-09 0.0000000000000000e+00  -3.1579894433393754e-09 8.7159729435381268e-09 0.0000000000000000e+00  -3.4886166311272701e-09 1.1094140627373726e-08 0.0000000000000000e+00  -3.4975856709257624e-09 1.3492974354429140e-08 0.0000000000000000e+00  -3.1022980439836831e-09 1.5560659329800315e-08 0.0000000000000000e+00  -2.6828663693507819e-09 1.6879838538941396e-08 0.0000000000000000e+00  -4.4116749170430240e-09 1.7372676738164529e-08 0.0000000000000000e+00  -3.1280738826133132e-09 -1.5542373084830380e-08 0.0000000000000000e+00  -2.2930003171862364e-09 -1.6047669979423217e-08 0.0000000000000000e+00  -3.1701573911486626e-09 -1.4933975036807137e-08 0.0000000000000000e+00  -4.1819945133216939e-09 -1.3133306862466689e-08 0.0000000000000000e+00  -4.8616426626727306e-09 -1.0970571523293203e-08 0.0000000000000000e+00  -5.1749789991287240e-09 -8.7385229671600775e-09 0.0000000000000000e+00  -5.2221135942547858e-09 -6.6211696284450022e-09 0.0000000000000000e+00  -5.1254717345991496e-09 -4.6947728980335530e-09 0.0000000000000000e+00  -4.9862330347887596e-09 -2.9595522312074430e-09 0.0000000000000000e+00  -4.8733037122583295e-09 -1.3711833298702482e-09 0.0000000000000000e+00  -4.8253842156253295e-09 1.3689532453987085e-10 0.0000000000000000e+00  -4.8555873692414169e-09 1.6392967555772447e-09 0.0000000000000000e+00  -4.9539996205915429e-09 3.2086614755706446e-09 0.0000000000000000e+00  -5.0869618522189233e-09 4.9056741880719180e-09 0.0000000000000000e+00  -5.1939816885884057e-09 6.7654348856130430e-09 0.0000000000000000e+00  -5.1856656625151999e-09 8.7775990383124422e-09 0.0000000000000000e+00  -4.9504480886108159e-09 1.0861132636349322e-08 0.0000000000000000e+00  -4.3864152950662485e-09 1.2843004609212682e-08 0.0000000000000000e+00  -3.4969496371249643e-09 1.4465403213947124e-08 0.0000000000000000e+00  -2.6815908091489446e-09 1.5477984242528492e-08 0.0000000000000000e+00  -3.7914118811675397e-09 1.6089989522550130e-08 0.0000000000000000e+00  -2.7831458854075978e-09 -1.3731236673441707e-08 0.0000000000000000e+00  -2.3818074773971588e-09 -1.4324604500531209e-08 0.0000000000000000e+00  -3.5180058701825000e-09 -1.3481987801579950e-08 0.0000000000000000e+00  -4.8271724160340222e-09 -1.2072539838672337e-08 0.0000000000000000e+00  -5.8804688204308269e-09 -1.0310054109045594e-08 0.0000000000000000e+00  -6.6047428744974553e-09 -8.4027651607262243e-09 0.0000000000000000e+00  -7.0448042109342160e-09 -6.5037779797583613e-09 0.0000000000000000e+00  -7.2799846815962188e-09 -4.6968770626253184e-09 0.0000000000000000e+00  -7.3869408920615315e-09 -3.0065567145545764e-09 0.0000000000000000e+00  -7.4241756048300380e-09 -1.4160804700379299e-09 0.0000000000000000e+00  -7.4274854891326932e-09 1.1540667831952925e-10 0.0000000000000000e+00  -7.4098318846311232e-09 1.6390335054779177e-09 0.0000000000000000e+00  -7.3620646078920722e-09 3.2046565503722405e-09 0.0000000000000000e+00  -7.2532749596632683e-09 4.8496058861353649e-09 0.0000000000000000e+00  -7.0315061517558326e-09 6.5859521728134501e-09 0.0000000000000000e+00  -6.6275314831384562e-09 8.3858941793006911e-09 0.0000000000000000e+00  -5.9669184609988943e-09 1.0167883575375817e-08 0.0000000000000000e+00  -5.0001981944630304e-09 1.1791172517514070e-08 0.0000000000000000e+00  -3.7781863416123603e-09 1.3073326587489168e-08 0.0000000000000000e+00  -2.6873619230655433e-09 1.3867292960769932e-08 0.0000000000000000e+00  -3.3323867189301020e-09 1.4554608214905925e-08 0.0000000000000000e+00  -2.5269743325644428e-09 -1.1812177316450573e-08 0.0000000000000000e+00  -2.4531568566329629e-09 -1.2471526236983120e-08 0.0000000000000000e+00  -3.7785024125272257e-09 -1.1829416987256510e-08 0.0000000000000000e+00  -5.2938835882504845e-09 -1.0722573328897031e-08 0.0000000000000000e+00  -6.6078219341520945e-09 -9.2982478148085806e-09 0.0000000000000000e+00  -7.6292162877900063e-09 -7.7031518836566846e-09 0.0000000000000000e+00  -8.3664772461942357e-09 -6.0564768706838956e-09 0.0000000000000000e+00  -8.8640039415622544e-09 -4.4348069426469386e-09 0.0000000000000000e+00  -9.1731018534653564e-09 -2.8724068519443962e-09 0.0000000000000000e+00  -9.3371344000827621e-09 -1.3702305846129549e-09 0.0000000000000000e+00  -9.3845308070523933e-09 9.2394972319330107e-11 0.0000000000000000e+00  -9.3261535656369532e-09 1.5462703718763085e-09 0.0000000000000000e+00  -9.1548728736861414e-09 3.0215842693031988e-09 0.0000000000000000e+00  -8.8464983803982716e-09 4.5374959869650832e-09 0.0000000000000000e+00  -8.3624991050215316e-09 6.0916698070314925e-09 0.0000000000000000e+00  -7.6561493170567542e-09 7.6504128812784691e-09 0.0000000000000000e+00  -6.6850264236685954e-09 9.1419873805210143e-09 0.0000000000000000e+00  -5.4359114321647987e-09 1.0458152965802323e-08 0.0000000000000000e+00  -3.9841102891287952e-09 1.1472208068838859e-08 0.0000000000000000e+00  -2.6938991258866058e-09 1.2101953409521879e-08 0.0000000000000000e+00  -2.9808714513921701e-09 1.2840583129671142e-08 0.0000000000000000e+00  -2.3367246527341500e-09 -9.8126502520885484e-09 0.0000000000000000e+00  -2.5095862322312607e-09 -1.0521786228970920e-08 0.0000000000000000e+00  -3.9740951800605097e-09 -1.0036333852772227e-08 0.0000000000000000e+00  -5.6337868247786941e-09 -9.1735282016515258e-09 0.0000000000000000e+00  -7.1288606099717697e-09 -8.0397667474731010e-09 0.0000000000000000e+00  -8.3608900880805533e-09 -6.7382139979055639e-09 0.0000000000000000e+00  -9.3151856828207299e-09 -5.3582748831795005e-09 0.0000000000000000e+00  -1.0010267688931419e-08 -3.9638235612371063e-09 0.0000000000000000e+00  -1.0475732362996995e-08 -2.5900996241099444e-09 0.0000000000000000e+00  -1.0739860770307436e-08 -1.2475789085940190e-09 0.0000000000000000e+00  -1.0822551863736092e-08 7.0607215063651526e-11 0.0000000000000000e+00  -1.0731843925448525e-08 1.3800142814661217e-09 0.0000000000000000e+00  -1.0462965343107596e-08 2.6960756573962519e-09 0.0000000000000000e+00  -9.9994477129613043e-09 4.0255449410096143e-09 0.0000000000000000e+00  -9.3164832099011177e-09 5.3585772749411369e-09 0.0000000000000000e+00  -8.3872980523383180e-09 6.6624238255622547e-09 0.0000000000000000e+00  -7.1940135376544600e-09 7.8787016647735506e-09 0.0000000000000000e+00  -5.7472579370595067e-09 8.9272448546610674e-09 0.0000000000000000e+00  -4.1344394052225879e-09 9.7215382894258171e-09 0.0000000000000000e+00  -2.6976694087986437e-09 1.0220961796417638e-08 0.0000000000000000e+00  -2.7062780555688455e-09 1.0995285117662566e-08 0.0000000000000000e+00  -2.1990429651722452e-09 -7.7546720476081753e-09 0.0000000000000000e+00  -2.5537912392994788e-09 -8.5013963510708938e-09 0.0000000000000000e+00  -4.1195162119488683e-09 -8.1447087718423626e-09 0.0000000000000000e+00  -5.8794504300088649e-09 -7.4873242468406526e-09 0.0000000000000000e+00  -7.4988394388430979e-09 -6.6098445942986033e-09 0.0000000000000000e+00  -8.8769658725238110e-09 -5.5845148479576208e-09 0.0000000000000000e+00  -9.9847745033450595e-09 -4.4763962805766366e-09 0.0000000000000000e+00  -1.0822616408028568e-08 -3.3355279548047503e-09 0.0000000000000000e+00  -1.1403276010093061e-08 -2.1933182440306634e-09 0.0000000000000000e+00  -1.1742252146898154e-08 -1.0638393468847443e-09 0.0000000000000000e+00  -1.1851626465124382e-08 5.1699721048032201e-11 0.0000000000000000e+00  -1.1736660117752026e-08 1.1588830756697212e-09 0.0000000000000000e+00  -1.1394723197472361e-08 2.2634851504754304e-09 0.0000000000000000e+00  -1.0816359346866749e-08 3.3650303542099122e-09 0.0000000000000000e+00  -9.9885105162102755e-09 4.4511707795941924e-09 0.0000000000000000e+00  -8.9001424863797857e-09 5.4938066965051295e-09 0.0000000000000000e+00  -7.5509947545738324e-09 6.4482870154076713e-09 0.0000000000000000e+00  -5.9670082490074733e-09 7.2574088601432987e-09 0.0000000000000000e+00  -4.2413364696195639e-09 7.8636931585579220e-09 0.0000000000000000e+00  -2.6972265693902087e-09 8.2537854531960134e-09 0.0000000000000000e+00  -2.4905035098898309e-09 9.0523344221120876e-09 0.0000000000000000e+00  -2.1058742942337293e-09 -5.6563048503498237e-09 0.0000000000000000e+00  -2.5884273658208892e-09 -6.4312185202051694e-09 0.0000000000000000e+00  -4.2253401361281280e-09 -6.1852978475093462e-09 0.0000000000000000e+00  -6.0529112191966331e-09 -5.7079861751774326e-09 0.0000000000000000e+00  -7.7551493254424645e-09 -5.0630014897709349e-09 0.0000000000000000e+00  -9.2312492772095182e-09 -4.3001073794537360e-09 0.0000000000000000e+00  -1.0443419089028190e-08 -3.4647637783558584e-09 0.0000000000000000e+00  -1.1379820218247612e-08 -2.5937571751447159e-09 0.0000000000000000e+00  -1.2041145414441407e-08 -1.7122326990224919e-09 0.0000000000000000e+00  -1.2433134101765295e-08 -8.3386783976103345e-10 0.0000000000000000e+00  -1.2561594303575346e-08 3.6562128894908095e-11 0.0000000000000000e+00  -1.2429443751050420e-08 8.9920664725471432e-10 0.0000000000000000e+00  -1.2035714865427053e-08 1.7545831492165217e-09 0.0000000000000000e+00  -1.1376482052470833e-08 2.5991104816464846e-09 0.0000000000000000e+00  -1.0447656683751746e-08 3.4213646197313894e-09 0.0000000000000000e+00  -9.2496234859576471e-09 4.1997799068741039e-09 0.0000000000000000e+00  -7.7941285550562761e-09 4.9026450290649308e-09 0.0000000000000000e+00  -6.1167557595826402e-09 5.4913864508378340e-09 0.0000000000000000e+00  -4.3132924167065412e-09 5.9299687455607805e-09 0.0000000000000000e+00  -2.6924050519902887e-09 6.2234003620803598e-09 0.0000000000000000e+00  -2.3226503281876341e-09 7.0371655472470629e-09 0.0000000000000000e+00  -2.0523264751149957e-09 -3.5326240438845059e-09 0.0000000000000000e+00  -2.6158823169878208e-09 -4.3282816216538426e-09 0.0000000000000000e+00  -4.2993517200498768e-09 -4.1814790283503235e-09 0.0000000000000000e+00  -6.1694877714052204e-09 -3.8678515738855641e-09 0.0000000000000000e+00  -7.9233998606582372e-09 -3.4394344750417525e-09 0.0000000000000000e+00  -9.4610084645494019e-09 -2.9289073046547020e-09 0.0000000000000000e+00  -1.0739466884499387e-08 -2.3656438917194