<?xml version="1.0"?>
<VTKFile type="UnstructuredGrid"  version="0.1"  >
<UnstructuredGrid>
<Piece  NumberOfPoints="651" NumberOfCells="1200">
<Points>
<DataArray  type="Float64"  NumberOfComponents="3"  format="ascii">0 0 0  50000 0 0  100000 0 0  150000 0 0  200000 0 0  250000 0 0  300000 0 0  350000 0 0  400000 0 0  450000 0 0  500000 0 0  550000 0 0  600000 0 0  650000 0 0  700000 0 0  750000 0 0  800000 0 0  850000 0 0  900000 0 0  950000 0 0  1000000 0 0  0 50000 0  50000 50000 0  100000 50000 0  150000 50000 0  200000 50000 0  250000 50000 0  300000 50000 0  350000 50000 0  400000 50000 0  450000 50000 0  500000 50000 0  550000 50000 0  600000 50000 0  650000 50000 0  700000 50000 0  750000 50000 0  800000 50000 0  850000 50000 0  900000 50000 0  950000 50000 0  1000000 50000 0  0 100000 0  50000 100000 0  100000 100000 0  150000 100000 0  200000 100000 0  250000 100000 0  300000 100000 0  350000 100000 0  400000 100000 0  450000 100000 0  500000 100000 0  550000 100000 0  600000 100000 0  650000 100000 0  700000 100000 0  750000 100000 0  800000 100000 0  850000 100000 0  900000 100000 0  950000 100000 0  1000000 100000 0  0 150000 0  50000 150000 0  100000 150000 0  150000 150000 0  200000 150000 0  250000 150000 0  300000 150000 0  350000 150000 0  400000 150000 0  450000 150000 0  500000 150000 0  550000 150000 0  600000 150000 0  650000 150000 0  700000 150000 0  750000 150000 0  800000 150000 0  850000 150000 0  900000 150000 0  950000 150000 0  1000000 150000 0  0 200000 0  50000 200000 0  100000 200000 0  150000 200000 0  200000 200000 0  250000 200000 0  300000 200000 0  350000 200000 0  400000 200000 0  450000 200000 0  500000 200000 0  550000 200000 0  600000 200000 0  650000 200000 0  700000 200000 0  750000 200000 0  800000 200000 0  850000 200000 0  900000 200000 0  950000 200000 0  1000000 200000 0  0 250000 0  50000 250000 0  100000 250000 0  150000 250000 0  200000 250000 0  250000 250000 0  300000 250000 0  350000 250000 0  400000 250000 0  450000 250000 0  500000 250000 0  550000 250000 0  600000 250000 0  650000 250000 0  700000 250000 0  750000 250000 0  800000 250000 0  850000 250000 0  900000 250000 0  950000 250000 0  1000000 250000 0  0 300000 0  50000 300000 0  100000 300000 0  150000 300000 0  200000 300000 0  250000 300000 0  300000 300000 0  350000 300000 0  400000 300000 0  450000 300000 0  500000 300000 0  550000 300000 0  600000 300000 0  650000 300000 0  700000 300000 0  750000 300000 0  800000 300000 0  850000 300000 0  900000 300000 0  950000 300000 0  1000000 300000 0  0 350000 0  50000 350000 0  100000 350000 0  150000 350000 0  200000 350000 0  250000 350000 0  300000 350000 0  350000 350000 0  400000 350000 0  450000 350000 0  500000 350000 0  550000 350000 0  600000 350000 0  650000 350000 0  700000 350000 0  750000 350000 0  800000 350000 0  850000 350000 0  900000 350000 0  950000 350000 0  1000000 350000 0  0 400000 0  50000 400000 0  100000 400000 0  150000 400000 0  200000 400000 0  250000 400000 0  300000 400000 0  350000 400000 0  400000 400000 0  450000 400000 0  500000 400000 0  550000 400000 0  600000 400000 0  650000 400000 0  700000 400000 0  750000 400000 0  800000 400000 0  850000 400000 0  900000 400000 0  950000 400000 0  1000000 400000 0  0 450000 0  50000 450000 0  100000 450000 0  150000 450000 0  200000 450000 0  250000 450000 0  300000 450000 0  350000 450000 0  400000 450000 0  450000 450000 0  500000 450000 0  550000 450000 0  600000 450000 0  650000 450000 0  700000 450000 0  750000 450000 0  800000 450000 0  850000 450000 0  900000 450000 0  950000 450000 0  1000000 450000 0  0 500000 0  50000 500000 0  100000 500000 0  150000 500000 0  200000 500000 0  250000 500000 0  300000 500000 0  350000 500000 0  400000 500000 0  450000 500000 0  500000 500000 0  550000 500000 0  600000 500000 0  650000 500000 0  700000 500000 0  750000 500000 0  800000 500000 0  850000 500000 0  900000 500000 0  950000 500000 0  1000000 500000 0  0 550000 0  50000 550000 0  100000 550000 0  150000 550000 0  200000 550000 0  250000 550000 0  300000 550000 0  350000 550000 0  400000 550000 0  450000 550000 0  500000 550000 0  550000 550000 0  600000 550000 0  650000 550000 0  700000 550000 0  750000 550000 0  800000 550000 0  850000 550000 0  900000 550000 0  950000 550000 0  1000000 550000 0  0 600000 0  50000 600000 0  100000 600000 0  150000 600000 0  200000 600000 0  250000 600000 0  300000 600000 0  350000 600000 0  400000 600000 0  450000 600000 0  500000 600000 0  550000 600000 0  600000 600000 0  650000 600000 0  700000 600000 0  750000 600000 0  800000 600000 0  850000 600000 0  900000 600000 0  950000 600000 0  1000000 600000 0  0 650000 0  50000 650000 0  100000 650000 0  150000 650000 0  200000 650000 0  250000 650000 0  300000 650000 0  350000 650000 0  400000 650000 0  450000 650000 0  500000 650000 0  550000 650000 0  600000 650000 0  650000 650000 0  700000 650000 0  750000 650000 0  800000 650000 0  850000 650000 0  900000 650000 0  950000 650000 0  1000000 650000 0  0 700000 0  50000 700000 0  100000 700000 0  150000 700000 0  200000 700000 0  250000 700000 0  300000 700000 0  350000 700000 0  400000 700000 0  450000 700000 0  500000 700000 0  550000 700000 0  600000 700000 0  650000 700000 0  700000 700000 0  750000 700000 0  800000 700000 0  850000 700000 0  900000 700000 0  950000 700000 0  1000000 700000 0  0 750000 0  50000 750000 0  100000 750000 0  150000 750000 0  200000 750000 0  250000 750000 0  300000 750000 0  350000 750000 0  400000 750000 0  450000 750000 0  500000 750000 0  550000 750000 0  600000 750000 0  650000 750000 0  700000 750000 0  750000 750000 0  800000 750000 0  850000 750000 0  900000 750000 0  950000 750000 0  1000000 750000 0  0 800000 0  50000 800000 0  100000 800000 0  150000 800000 0  200000 800000 0  250000 800000 0  300000 800000 0  350000 800000 0  400000 800000 0  450000 800000 0  500000 800000 0  550000 800000 0  600000 800000 0  650000 800000 0  700000 800000 0  750000 800000 0  800000 800000 0  850000 800000 0  900000 800000 0  950000 800000 0  1000000 800000 0  0 850000 0  50000 850000 0  100000 850000 0  150000 850000 0  200000 850000 0  250000 850000 0  300000 850000 0  350000 850000 0  400000 850000 0  450000 850000 0  500000 850000 0  550000 850000 0  600000 850000 0  650000 850000 0  700000 850000 0  750000 850000 0  800000 850000 0  850000 850000 0  900000 850000 0  950000 850000 0  1000000 850000 0  0 900000 0  50000 900000 0  100000 900000 0  150000 900000 0  200000 900000 0  250000 900000 0  300000 900000 0  350000 900000 0  400000 900000 0  450000 900000 0  500000 900000 0  550000 900000 0  600000 900000 0  650000 900000 0  700000 900000 0  750000 900000 0  800000 900000 0  850000 900000 0  900000 900000 0  950000 900000 0  1000000 900000 0  0 950000 0  50000 950000 0  100000 950000 0  150000 950000 0  200000 950000 0  250000 950000 0  300000 950000 0  350000 950000 0  400000 950000 0  450000 950000 0  500000 950000 0  550000 950000 0  600000 950000 0  650000 950000 0  700000 950000 0  750000 950000 0  800000 950000 0  850000 950000 0  900000 950000 0  950000 950000 0  1000000 950000 0  0 1000000 0  50000 1000000 0  100000 1000000 0  150000 1000000 0  200000 1000000 0  250000 1000000 0  300000 1000000 0  350000 1000000 0  400000 1000000 0  450000 1000000 0  500000 1000000 0  550000 1000000 0  600000 1000000 0  650000 1000000 0  700000 1000000 0  750000 1000000 0  800000 1000000 0  850000 1000000 0  900000 1000000 0  950000 1000000 0  1000000 1000000 0  0 1050000 0  50000 1050000 0  100000 1050000 0  150000 1050000 0  200000 1050000 0  250000 1050000 0  300000 1050000 0  350000 1050000 0  400000 1050000 0  450000 1050000 0  500000 1050000 0  550000 1050000 0  600000 1050000 0  650000 1050000 0  700000 1050000 0  750000 1050000 0  800000 1050000 0  850000 1050000 0  900000 1050000 0  950000 1050000 0  1000000 1050000 0  0 1100000 0  50000 1100000 0  100000 1100000 0  150000 1100000 0  200000 1100000 0  250000 1100000 0  300000 1100000 0  350000 1100000 0  400000 1100000 0  450000 1100000 0  500000 1100000 0  550000 1100000 0  600000 1100000 0  650000 1100000 0  700000 1100000 0  750000 1100000 0  800000 1100000 0  850000 1100000 0  900000 1100000 0  950000 1100000 0  1000000 1100000 0  0 1150000 0  50000 1150000 0  100000 1150000 0  150000 1150000 0  200000 1150000 0  250000 1150000 0  300000 1150000 0  350000 1150000 0  400000 1150000 0  450000 1150000 0  500000 1150000 0  550000 1150000 0  600000 1150000 0  650000 1150000 0  700000 1150000 0  750000 1150000 0  800000 1150000 0  850000 1150000 0  900000 1150000 0  950000 1150000 0  1000000 1150000 0  0 1200000 0  50000 1200000 0  100000 1200000 0  150000 1200000 0  200000 1200000 0  250000 1200000 0  300000 1200000 0  350000 1200000 0  400000 1200000 0  450000 1200000 0  500000 1200000 0  550000 1200000 0  600000 1200000 0  650000 1200000 0  700000 1200000 0  750000 1200000 0  800000 1200000 0  850000 1200000 0  900000 1200000 0  950000 1200000 0  1000000 1200000 0  0 1250000 0  50000 1250000 0  100000 1250000 0  150000 1250000 0  200000 1250000 0  250000 1250000 0  300000 1250000 0  350000 1250000 0  400000 1250000 0  450000 1250000 0  500000 1250000 0  550000 1250000 0  600000 1250000 0  650000 1250000 0  700000 1250000 0  750000 1250000 0  800000 1250000 0  850000 1250000 0  900000 1250000 0  950000 1250000 0  1000000 1250000 0  0 1300000 0  50000 1300000 0  100000 1300000 0  150000 1300000 0  200000 1300000 0  250000 1300000 0  300000 1300000 0  350000 1300000 0  400000 1300000 0  450000 1300000 0  500000 1300000 0  550000 1300000 0  600000 1300000 0  650000 1300000 0  700000 1300000 0  750000 1300000 0  800000 1300000 0  850000 1300000 0  900000 1300000 0  950000 1300000 0  1000000 1300000 0  0 1350000 0  50000 1350000 0  100000 1350000 0  150000 1350000 0  200000 1350000 0  250000 1350000 0  300000 1350000 0  350000 1350000 0  400000 1350000 0  450000 1350000 0  500000 1350000 0  550000 1350000 0  600000 1350000 0  650000 1350000 0  700000 135
[...]
<PointData  Vectors="f_19"> 
<DataArray  type="Float64"  Name="f_19"  NumberOfComponents="3" format="ascii">-2.4460255105320392e-08 -1.0202530290572976e-08 0.0000000000000000e+00  4.8611358453501472e-08 -6.2938037211382435e-09 0.0000000000000000e+00  4.2904036826885967e-08 -2.0113462849863019e-09 0.0000000000000000e+00  4.0467657902583150e-08 -6.6394130281360066e-10 0.0000000000000000e+00  3.9278673908332234e-08 -2.0687307653373407e-10 0.0000000000000000e+00  3.8504826437666785e-08 -2.2391114978975748e-11 0.0000000000000000e+00  3.7949643353094367e-08 5.6719619295121213e-11 0.0000000000000000e+00  3.7556540639477187e-08 8.7838729815271745e-11 0.0000000000000000e+00  3.7307885985115053e-08 9.5545428220595828e-11 0.0000000000000000e+00  3.7199308792869690e-08 9.3065012644733428e-11 0.0000000000000000e+00  3.7231964311421735e-08 8.9599382939806473e-11 0.0000000000000000e+00  3.7410766659332995e-08 9.3644667028918659e-11 0.0000000000000000e+00  3.7745971342604002e-08 1.1550826320005053e-10 0.0000000000000000e+00  3.8259208822035164e-08 1.7084939612037926e-10 0.0000000000000000e+00  3.8999545630634296e-08 2.8798973778188808e-10 0.0000000000000000e+00  4.0085997336900322e-08 5.2602475488156789e-10 0.0000000000000000e+00  4.1819872974848835e-08 1.0234707445436270e-09 0.0000000000000000e+00  4.4948153624496262e-08 2.1249084739764692e-09 0.0000000000000000e+00  5.0800595044382514e-08 4.6478113695346427e-09 0.0000000000000000e+00  5.8047553775447795e-08 9.1596013148218731e-09 0.0000000000000000e+00  -1.6405597184659991e-08 7.0540256108568387e-09 0.0000000000000000e+00  -1.8231245577263828e-08 -1.5761558276950558e-08 0.0000000000000000e+00  7.2129876071178743e-09 -1.1261589336335083e-08 0.0000000000000000e+00  1.8089962667264041e-08 -5.2481023948803116e-09 0.0000000000000000e+00  2.3166684447730406e-08 -2.3950285691810215e-09 0.0000000000000000e+00  2.5773147327819918e-08 -1.1405046715361353e-09 0.0000000000000000e+00  2.7250199659019605e-08 -5.4912437963509334e-10 0.0000000000000000e+00  2.8111211268005020e-08 -2.5288215192460379e-10 0.0000000000000000e+00  2.8616535544563896e-08 -1.0164544497491820e-10 0.0000000000000000e+00  2.8909883774090137e-08 -2.6415135502449686e-11 0.0000000000000000e+00  2.9071544104275454e-08 1.0135697842418290e-11 0.0000000000000000e+00  2.9143523262453810e-08 3.2547993607087321e-11 0.0000000000000000e+00  2.9141061646759305e-08 6.1285330314854973e-11 0.0000000000000000e+00  2.9056624055004602e-08 1.1850615031641804e-10 0.0000000000000000e+00  2.8858366377490897e-08 2.3467822472448869e-10 0.0000000000000000e+00  2.8482068128444776e-08 4.6037333887467462e-10 0.0000000000000000e+00  2.7810487640304877e-08 8.9218277958925260e-10 0.0000000000000000e+00  2.6618102181681668e-08 1.7336104828981346e-09 0.0000000000000000e+00  2.4393761491153298e-08 3.4308720644335204e-09 0.0000000000000000e+00  1.9693732003848876e-08 6.8744701031788875e-09 0.0000000000000000e+00  8.2720617243035336e-09 1.3028654660681514e-08 0.0000000000000000e+00  -1.8374703321321001e-08 1.0983927834584186e-08 0.0000000000000000e+00  -1.1265700304345139e-08 -1.9373483897886757e-08 0.0000000000000000e+00  -2.8144434021062827e-10 -1.8431232078984439e-08 0.0000000000000000e+00  5.8128831946642877e-09 -1.1365625599566235e-08 0.0000000000000000e+00  1.0687953417125866e-08 -6.5962829980581629e-09 0.0000000000000000e+00  1.4504286117914349e-08 -3.8323053286742223e-09 0.0000000000000000e+00  1.7156883972278857e-08 -2.2575387456854996e-09 0.0000000000000000e+00  1.8932535108427790e-08 -1.3340020062983192e-09 0.0000000000000000e+00  2.0096128543141469e-08 -7.7139658845697641e-10 0.0000000000000000e+00  2.0826868199141611e-08 -4.1096938025691197e-10 0.0000000000000000e+00  2.1235237849304144e-08 -1.5847485325373375e-10 0.0000000000000000e+00  2.1381319603574212e-08 5.0304762066836309e-11 0.0000000000000000e+00  2.1285785782497613e-08 2.6843391337333592e-10 0.0000000000000000e+00  2.0933880389509516e-08 5.5096591908265229e-10 0.0000000000000000e+00  2.0273026459427055e-08 9.6857618899378438e-10 0.0000000000000000e+00  1.9203462073605547e-08 1.6276197306672970e-09 0.0000000000000000e+00  1.7559993820142402e-08 2.7043286032462239e-09 0.0000000000000000e+00  1.5083513362525980e-08 4.4995861344473288e-09 0.0000000000000000e+00  1.1392522932203961e-08 7.4874621944624406e-09 0.0000000000000000e+00  6.0217535658499685e-09 1.2134696004410072e-08 0.0000000000000000e+00  -1.2885480985039486e-09 1.7588145931465898e-08 0.0000000000000000e+00  -1.3209587616362253e-08 1.4725641698848464e-08 0.0000000000000000e+00  -7.5764033039229709e-09 -2.0005343267360176e-08 0.0000000000000000e+00  -1.5622835247331155e-09 -1.9847883135466885e-08 0.0000000000000000e+00  1.1181985134241329e-09 -1.5322626149221448e-08 0.0000000000000000e+00  3.8794447824311196e-09 -1.0469876370933389e-08 0.0000000000000000e+00  6.7677069235056861e-09 -6.8968889310692883e-09 0.0000000000000000e+00  9.2849804445855219e-09 -4.4840403445785965e-09 0.0000000000000000e+00  1.1229145818988658e-08 -2.8785393432897989e-09 0.0000000000000000e+00  1.2622247646953946e-08 -1.7908558070038512e-09 0.0000000000000000e+00  1.3547545570802540e-08 -1.0211567572754191e-09 0.0000000000000000e+00  1.4079257334218018e-08 -4.3174309524131070e-10 0.0000000000000000e+00  1.4264529299556222e-08 7.9964766095341457e-11 0.0000000000000000e+00  1.4120629216067633e-08 6.0154409024782341e-10 0.0000000000000000e+00  1.3635091019500277e-08 1.2215627093016223e-09 0.0000000000000000e+00  1.2765925544312081e-08 2.0450624110072303e-09 0.0000000000000000e+00  1.1443116745626685e-08 3.2111064716975887e-09 0.0000000000000000e+00  9.5776019667778031e-09 4.9107822623162372e-09 0.0000000000000000e+00  7.0945897289388599e-09 7.3878465773176377e-09 0.0000000000000000e+00  4.0253492115602098e-09 1.0851521358635571e-08 0.0000000000000000e+00  6.6377943150266313e-10 1.5110071409968794e-08 0.0000000000000000e+00  -2.6258544975956165e-09 1.8749564954978425e-08 0.0000000000000000e+00  -8.9103362016327368e-09 1.7561238791183632e-08 0.0000000000000000e+00  -5.7146605221232635e-09 -1.9421564404316004e-08 0.0000000000000000e+00  -1.8954679204855721e-09 -1.9579733095242732e-08 0.0000000000000000e+00  -9.1920180867558570e-10 -1.6720261452374159e-08 0.0000000000000000e+00  2.0791616611922926e-10 -1.2834411669404692e-08 0.0000000000000000e+00  1.8363612575722178e-09 -9.2933412078163146e-09 0.0000000000000000e+00  3.6028064197683254e-09 -6.5101132114481629e-09 0.0000000000000000e+00  5.1837092774336794e-09 -4.4329013300732288e-09 0.0000000000000000e+00  6.4333121601793912e-09 -2.8903165134252138e-09 0.0000000000000000e+00  7.3168938865896184e-09 -1.7124112388626405e-09 0.0000000000000000e+00  7.8432236460604966e-09 -7.5599700588723131e-10 0.0000000000000000e+00  8.0279645854222812e-09 9.9273607003767618e-11 0.0000000000000000e+00  7.8785905737326753e-09 9.6171328199336994e-10 0.0000000000000000e+00  7.3902007695519497e-09 1.9390132154268565e-09 0.0000000000000000e+00  6.5481220262497993e-09 3.1485173622463120e-09 0.0000000000000000e+00  5.3385332097514304e-09 4.7238009250485750e-09 0.0000000000000000e+00  3.7731530300505916e-09 6.8089839963840112e-09 0.0000000000000000e+00  1.9373507004245471e-09 9.5174207552622214e-09 0.0000000000000000e+00  5.8724827639406445e-11 1.2806989306698552e-08 0.0000000000000000e+00  -1.4971636070144932e-09 1.6225935649363586e-08 0.0000000000000000e+00  -2.7391713109349412e-09 1.8691320673267269e-08 0.0000000000000000e+00  -6.6265446384585425e-09 1.8540714002631386e-08 0.0000000000000000e+00  -4.6575696372856669e-09 -1.8297147292926412e-08 0.0000000000000000e+00  -2.0663595641372720e-09 -1.8652705205236940e-08 0.0000000000000000e+00  -1.9893330282648074e-09 -1.6731537432429300e-08 0.0000000000000000e+00  -1.9083360929661322e-09 -1.3788501093124076e-08 0.0000000000000000e+00  -1.3183863961884247e-09 -1.0690330822032943e-08 0.0000000000000000e+00  -3.8541199295720423e-10 -7.9351136973046264e-09 0.0000000000000000e+00  6.2409429440754364e-10 -5.6612021161725937e-09 0.0000000000000000e+00  1.5201601726619470e-09 -3.8290099094452220e-09 0.0000000000000000e+00  2.2021701228536492e-09 -2.3349441473949662e-09 0.0000000000000000e+00  2.6267813382552810e-09 -1.0620570458187340e-09 0.0000000000000000e+00  2.7789795337473755e-09 1.0386024333726189e-10 0.0000000000000000e+00  2.6555378670094645e-09 1.2725337667102582e-09 0.0000000000000000e+00  2.2592331124572730e-09 2.5519291956129666e-09 0.0000000000000000e+00  1.6018991210748652e-09 4.0499984916248536e-09 0.0000000000000000e+00  7.1647476700485113e-10 5.8699760354987277e-09 0.0000000000000000e+00  -3.2076005435307179e-10 8.0901814927152569e-09 0.0000000000000000e+00  -1.3608515440166250e-09 1.0713820634961889e-08 0.0000000000000000e+00  -2.1702518561963775e-09 1.3575811097258541e-08 0.0000000000000000e+00  -2.5290587520597996e-09 1.6231736576100719e-08 0.0000000000000000e+00  -2.7183384137949430e-09 1.7983955182155361e-08 0.0000000000000000e+00  -5.2909838158727082e-09 1.8290154978054614e-08 0.0000000000000000e+00  -3.9823152155741327e-09 -1.6873607770435553e-08 0.0000000000000000e+00  -2.1971894894447136e-09 -1.7365752214399628e-08 0.0000000000000000e+00  -2.6561093968816793e-09 -1.6005657186061425e-08 0.0000000000000000e+00  -3.2357376775857132e-09 -1.3769726437472206e-08 0.0000000000000000e+00  -3.4008642293745723e-09 -1.1190175703754119e-08 0.0000000000000000e+00  -3.1803364175682432e-09 -8.6735722162150840e-09 0.0000000000000000e+00  -2.7479353699526540e-09 -6.4188965084555547e-09 0.0000000000000000e+00  -2.2694969028551147e-09 -4.4710095747435088e-09 0.0000000000000000e+00  -1.8604530422999925e-09 -2.7901907358647267e-09 0.0000000000000000e+00  -1.5885091777029713e-09 -1.2984983178599696e-09 0.0000000000000000e+00  -1.4873399237164572e-09 9.6184326748387744e-11 0.0000000000000000e+00  -1.5676238184190844e-09 1.4893320159467577e-09 0.0000000000000000e+00  -1.8216784533231367e-09 2.9744119233218727e-09 0.0000000000000000e+00  -2.2213759790235380e-09 4.6371194593313431e-09 0.0000000000000000e+00  -2.7099967827375369e-09 6.5438013654526265e-09 0.0000000000000000e+00  -3.1904594170073632e-09 8.7181312767349641e-09 0.0000000000000000e+00  -3.5183164596500185e-09 1.1101368977253842e-08 0.0000000000000000e+00  -3.5234716576698736e-09 1.3501327294267661e-08 0.0000000000000000e+00  -3.1224871526975220e-09 1.5564187915189175e-08 0.0000000000000000e+00  -2.7039100614250468e-09 1.6858105030799135e-08 0.0000000000000000e+00  -4.4289247873283188e-09 1.7380896741884946e-08 0.0000000000000000e+00  -3.5133016872459147e-09 -1.5250686511511614e-08 0.0000000000000000e+00  -2.3054890881423235e-09 -1.5841434705958133e-08 0.0000000000000000e+00  -3.1198426359089678e-09 -1.4841231223687959e-08 0.0000000000000000e+00  -4.1301233866595297e-09 -1.3117521648980605e-08 0.0000000000000000e+00  -4.8246086186630958e-09 -1.1006026887724649e-08 0.0000000000000000e+00  -5.1556791546809881e-09 -8.8039667046336887e-09 0.0000000000000000e+00  -5.2187256242332789e-09 -6.7005533183000722e-09 0.0000000000000000e+00  -5.1345721570541328e-09 -4.7768259813658818e-09 0.0000000000000000e+00  -5.0042475989830766e-09 -3.0368298404509394e-09 0.0000000000000000e+00  -4.8971334028154311e-09 -1.4390873695475056e-09 0.0000000000000000e+00  -4.8525950126839698e-09 8.0907478464468971e-11 0.0000000000000000e+00  -4.8843911010188912e-09 1.5962767154083544e-09 0.0000000000000000e+00  -4.9831471133760751e-09 3.1785396226573885e-09 0.0000000000000000e+00  -5.1156017660418285e-09 4.8874810533609189e-09 0.0000000000000000e+00  -5.2215007562358012e-09 6.7574109481201973e-09 0.0000000000000000e+00  -5.2115090192505364e-09 8.7772112945347177e-09 0.0000000000000000e+00  -4.9739180474408892e-09 1.0864983635579812e-08 0.0000000000000000e+00  -4.4064914647960296e-09 1.2846500910089993e-08 0.0000000000000000e+00  -3.5124147249646026e-09 1.4461584010212708e-08 0.0000000000000000e+00  -2.7033819989395396e-09 1.5444030665799130e-08 0.0000000000000000e+00  -3.8322518051932145e-09 1.6086918465742278e-08 0.0000000000000000e+00  -3.1698058996557938e-09 -1.3482011833441001e-08 0.0000000000000000e+00  -2.3945754945191075e-09 -1.4145857747375257e-08 0.0000000000000000e+00  -3.4609683579899176e-09 -1.3391512973171707e-08 0.0000000000000000e+00  -4.7623823488600502e-09 -1.2046314726948977e-08 0.0000000000000000e+00  -5.8252151960715464e-09 -1.0329881608165934e-08 0.0000000000000000e+00  -6.5640578565099324e-09 -8.4522086256394380e-09 0.0000000000000000e+00  -7.0190581761644898e-09 -6.5692745289127994e-09 0.0000000000000000e+00  -7.2673922777302374e-09 -4.7680653769888456e-09 0.0000000000000000e+00  -7.3848839480505916e-09 -3.0760141426889138e-09 0.0000000000000000e+00  -7.4299461906498891e-09 -1.4788187320509468e-09 0.0000000000000000e+00  -7.4386583451811799e-09 6.2455694073619183e-11 0.0000000000000000e+00  -7.4244095761878275e-09 1.5974382822931138e-09 0.0000000000000000e+00  -7.3784930126831049e-09 3.1747852079348968e-09 0.0000000000000000e+00  -7.2703861742032573e-09 4.8308098154937332e-09 0.0000000000000000e+00  -7.0484169140195957e-09 6.5766478529014553e-09 0.0000000000000000e+00  -6.6435096020389157e-09 8.3835512792089130e-09 0.0000000000000000e+00  -5.9812324994718042e-09 1.0168903413203823e-08 0.0000000000000000e+00  -5.0120421453423427e-09 1.1790524081898941e-08 0.0000000000000000e+00  -3.7872492635868381e-09 1.3063313483945604e-08 0.0000000000000000e+00  -2.7093144971763865e-09 1.3823254799902218e-08 0.0000000000000000e+00  -3.3997094359500232e-09 1.4542048774462275e-08 0.0000000000000000e+00  -2.9106651595338132e-09 -1.1603506935667860e-08 0.0000000000000000e+00  -2.4664719219724712e-09 -1.2322347915948002e-08 0.0000000000000000e+00  -3.7176873693440651e-09 -1.1746283431666509e-08 0.0000000000000000e+00  -5.2209821809932930e-09 -1.0691317091100660e-08 0.0000000000000000e+00  -6.5400154915163448e-09 -9.3065163555597860e-09 0.0000000000000000e+00  -7.5725935434887863e-09 -7.7387662823224247e-09 0.0000000000000000e+00  -8.3228377238004453e-09 -6.1085667797664735e-09 0.0000000000000000e+00  -8.8328563175684833e-09 -4.4944322661581354e-09 0.0000000000000000e+00  -9.1527621121499957e-09 -2.9326911600852177e-09 0.0000000000000000e+00  -9.3254429580912149e-09 -1.4262058675397427e-09 0.0000000000000000e+00  -9.3792970198833287e-09 4.4051026702974212e-11 0.0000000000000000e+00  -9.3254019044700045e-09 1.5074932155515368e-09 0.0000000000000000e+00  -9.1569543362568806e-09 2.9931230101181173e-09 0.0000000000000000e+00  -8.8501133409269292e-09 4.5190352451549338e-09 0.0000000000000000e+00  -8.3666606774176160e-09 6.0818682834320212e-09 0.0000000000000000e+00  -7.6601058338484832e-09 7.6468563921397587e-09 0.0000000000000000e+00  -6.6881701661904646e-09 9.1410362984865231e-09 0.0000000000000000e+00  -5.4378139778577414e-09 1.0454548015111691e-08 0.0000000000000000e+00  -3.9855675454434387e-09 1.1457781841249389e-08 0.0000000000000000e+00  -2.7155703257891899e-09 1.2050765677138875e-08 0.0000000000000000e+00  -3.0770822212327058e-09 1.2821152597370955e-08 0.0000000000000000e+00  -2.7131290501780463e-09 -9.6423614615450787e-09 0.0000000000000000e+00  -2.5235137586467709e-09 -1.0402839459992386e-08 0.0000000000000000e+00  -3.9117015045157888e-09 -9.9638121874386193e-09 0.0000000000000000e+00  -5.5564738555150811e-09 -9.1413465113671112e-09 0.0000000000000000e+00  -7.0531333295235797e-09 -8.0401750870988982e-09 0.0000000000000000e+00  -8.2931869190170364e-09 -6.7626408305846785e-09 0.0000000000000000e+00  -9.2581208495612243e-09 -5.3984213753763702e-09 0.0000000000000000e+00  -9.9642521545098855e-09 -4.0123621956357143e-09 0.0000000000000000e+00  -1.0439850153939222e-08 -2.6410052942786704e-09 0.0000000000000000e+00  -1.0712499384504431e-08 -1.2961991159400385e-09 0.0000000000000000e+00  -1.0801849524041417e-08 2.7620268274039477e-11 0.0000000000000000e+00  -1.0715984238092658e-08 1.3448159545535253e-09 0.0000000000000000e+00  -1.0450353504376339e-08 2.6697263466747651e-09 0.0000000000000000e+00  -9.9887992602810169e-09 4.0080601965219690e-09 0.0000000000000000e+00  -9.3068489144520629e-09 5.3489141598988253e-09 0.0000000000000000e+00  -8.3780439110181133e-09 6.6583929900992961e-09 0.0000000000000000e+00  -7.1847909924517369e-09 7.8767804198912911e-09 0.0000000000000000e+00  -5.7381541595122108e-09 8.9221518312243435e-09 0.0000000000000000e+00  -4.1275267974760291e-09 9.7049002631343281e-09 0.0000000000000000e+00  -2.7187464840467731e-09 1.0166170328952613e-08 0.0000000000000000e+00  -2.8331725980627170e-09 1.0972308818441280e-08 0.0000000000000000e+00  -2.5639538886861781e-09 -7.6202788718371564e-09 0.0000000000000000e+00  -2.5683209561015241e-09 -8.4122776870338731e-09 0.0000000000000000e+00  -4.0573319880288382e-09 -8.0847135450914852e-09 0.0000000000000000e+00  -5.8007273204671624e-09 -7.4571853121373515e-09 0.0000000000000000e+00  -7.4190666251847701e-09 -6.6054989473170890e-09 0.0000000000000000e+00  -8.8024750700715161e-09 -5.6004018507447194e-09 0.0000000000000000e+00  -9.9185371924617532e-09 -4.5065317507969611e-09 0.0000000000000000e+00  -1.0765591977996629e-08 -3.3741939545807115e-09 0.0000000000000000e+00  -1.1355102835425510e-08 -2.2354759937500340e-09 0.0000000000000000e+00  -1.1701776976956071e-08 -1.1053303485017983e-09 0.0000000000000000e+00  -1.1817319224286375e-08 1.4086161209518928e-11 0.0000000000000000e+00  -1.1706921710319346e-08 1.1274053754201795e-09 0.0000000000000000e+00  -1.1368100155202481e-08 2.2394549431475838e-09 0.0000000000000000e+00  -1.0791682499721197e-08 3.3487923612350842e-09 0.0000000000000000e+00  -9.9649735699729451e-09 4.4420347132946466e-09 0.0000000000000000e+00  -8.8773366148782748e-09 5.4899151865108896e-09 0.0000000000000000e+00  -7.5289398609680268e-09 6.4463913158162377e-09 0.0000000000000000e+00  -5.9464208645890913e-09 7.2524123766891695e-09 0.0000000000000000e+00  -4.2257041282930967e-09 7.8472910460510034e-09 0.0000000000000000e+00  -2.7175173382496226e-09 8.1993651155323311e-09 0.0000000000000000e+00  -2.6491702800112537e-09 9.0297000570906964e-09 0.0000000000000000e+00  -2.4552459561278327e-09 -5.5549712737465007e-09 0.0000000000000000e+00  -2.6035374279362528e-09 -6.3706628351695198e-09 0.0000000000000000e+00  -4.1649222407109996e-09 -6.1386879199860784e-09 0.0000000000000000e+00  -5.9753303758164186e-09 -5.6818983242151233e-09 0.0000000000000000e+00  -7.6746608850500673e-09 -5.0563702785429883e-09 0.0000000000000000e+00  -9.1537834799681200e-09 -4.3098732822204479e-09 0.0000000000000000e+00  -1.0371976916055587e-08 -3.4869617466652262e-09 0.0000000000000000e+00  -1.1315620343826145e-08 -2.6241717214669277e-09 0.0000000000000000e+00  -1.1984170242535638e-08 -1.7468314564474224e-09 0.0000000000000000e+00  -1.2382564941645572e-08 -8.6906961507163965e-10 0.0000000000000000e+00  -1.2516180406398062e-08 3.7345142033216152e-12 0.0000000000000000e+00  -1.2387803158350730e-08 8.7103798323447122e-10 0.0000000000000000e+00  -1.1996568981528722e-08 1.7325979917922007e-09 0.0000000000000000e+00  -1.1338830799045327e-08 2.5839918890713490e-09 0.0000000000000000e+00  -1.0410902681481582e-08 3.4128349877283319e-09 0.0000000000000000e+00  -9.2136572508085622e-09 4.1964248857974046e-09 0.0000000000000000e+00  -7.7594194157846193e-09 4.9016506295163719e-09 0.0000000000000000e+00  -6.0847382185316462e-09 5.4880533050279484e-09 0.0000000000000000e+00  -4.2889733036307266e-09 5.9163467273694472e-09 0.0000000000000000e+00  -2.7118226292309977e-09 6.1735763049660757e-09 0.0000000000000000e+00  -2.5134099146718323e-09 7.0191532267731860e-09 0.0000000000000000e+00  -2.3823458934424803e-09 -3.4611422209621184e-09 0.0000000000000000e+00  -2.6315708041706104e-09 -4.2942920530005521e-09 0.0000000000000000e+00  -4.2421159435757313e-09 -4.1482659175156675e-09 0.0000000000000000e+00  -6.0952937475980821e-09 -3.8470182866228100e-09 0.0000000000000000e+00  -7.8451188265472003e-09 -3.4323743785921893e-09 0.0000000000000000e+00  -9.3839786716473022e-09 -2.9346330078787890e-09 0.0000000000000000e+00  -1.0666489925871113e-08 -2.3819183560604594e-09 