<?xml version="1.0"?>
<VTKFile type="UnstructuredGrid"  version="0.1"  >
<UnstructuredGrid>
<Piece  NumberOfPoints="651" NumberOfCells="1200">
<Points>
<DataArray  type="Float64"  NumberOfComponents="3"  format="ascii">0 0 0  50000 0 0  100000 0 0  150000 0 0  200000 0 0  250000 0 0  300000 0 0  350000 0 0  400000 0 0  450000 0 0  500000 0 0  550000 0 0  600000 0 0  650000 0 0  700000 0 0  750000 0 0  800000 0 0  850000 0 0  900000 0 0  950000 0 0  1000000 0 0  0 50000 0  50000 50000 0  100000 50000 0  150000 50000 0  200000 50000 0  250000 50000 0  300000 50000 0  350000 50000 0  400000 50000 0  450000 50000 0  500000 50000 0  550000 50000 0  600000 50000 0  650000 50000 0  700000 50000 0  750000 50000 0  800000 50000 0  850000 50000 0  900000 50000 0  950000 50000 0  1000000 50000 0  0 100000 0  50000 100000 0  100000 100000 0  150000 100000 0  200000 100000 0  250000 100000 0  300000 100000 0  350000 100000 0  400000 100000 0  450000 100000 0  500000 100000 0  550000 100000 0  600000 100000 0  650000 100000 0  700000 100000 0  750000 100000 0  800000 100000 0  850000 100000 0  900000 100000 0  950000 100000 0  1000000 100000 0  0 150000 0  50000 150000 0  100000 150000 0  150000 150000 0  200000 150000 0  250000 150000 0  300000 150000 0  350000 150000 0  400000 150000 0  450000 150000 0  500000 150000 0  550000 150000 0  600000 150000 0  650000 150000 0  700000 150000 0  750000 150000 0  800000 150000 0  850000 150000 0  900000 150000 0  950000 150000 0  1000000 150000 0  0 200000 0  50000 200000 0  100000 200000 0  150000 200000 0  200000 200000 0  250000 200000 0  300000 200000 0  350000 200000 0  400000 200000 0  450000 200000 0  500000 200000 0  550000 200000 0  600000 200000 0  650000 200000 0  700000 200000 0  750000 200000 0  800000 200000 0  850000 200000 0  900000 200000 0  950000 200000 0  1000000 200000 0  0 250000 0  50000 250000 0  100000 250000 0  150000 250000 0  200000 250000 0  250000 250000 0  300000 250000 0  350000 250000 0  400000 250000 0  450000 250000 0  500000 250000 0  550000 250000 0  600000 250000 0  650000 250000 0  700000 250000 0  750000 250000 0  800000 250000 0  850000 250000 0  900000 250000 0  950000 250000 0  1000000 250000 0  0 300000 0  50000 300000 0  100000 300000 0  150000 300000 0  200000 300000 0  250000 300000 0  300000 300000 0  350000 300000 0  400000 300000 0  450000 300000 0  500000 300000 0  550000 300000 0  600000 300000 0  650000 300000 0  700000 300000 0  750000 300000 0  800000 300000 0  850000 300000 0  900000 300000 0  950000 300000 0  1000000 300000 0  0 350000 0  50000 350000 0  100000 350000 0  150000 350000 0  200000 350000 0  250000 350000 0  300000 350000 0  350000 350000 0  400000 350000 0  450000 350000 0  500000 350000 0  550000 350000 0  600000 350000 0  650000 350000 0  700000 350000 0  750000 350000 0  800000 350000 0  850000 350000 0  900000 350000 0  950000 350000 0  1000000 350000 0  0 400000 0  50000 400000 0  100000 400000 0  150000 400000 0  200000 400000 0  250000 400000 0  300000 400000 0  350000 400000 0  400000 400000 0  450000 400000 0  500000 400000 0  550000 400000 0  600000 400000 0  650000 400000 0  700000 400000 0  750000 400000 0  800000 400000 0  850000 400000 0  900000 400000 0  950000 400000 0  1000000 400000 0  0 450000 0  50000 450000 0  100000 450000 0  150000 450000 0  200000 450000 0  250000 450000 0  300000 450000 0  350000 450000 0  400000 450000 0  450000 450000 0  500000 450000 0  550000 450000 0  600000 450000 0  650000 450000 0  700000 450000 0  750000 450000 0  800000 450000 0  850000 450000 0  900000 450000 0  950000 450000 0  1000000 450000 0  0 500000 0  50000 500000 0  100000 500000 0  150000 500000 0  200000 500000 0  250000 500000 0  300000 500000 0  350000 500000 0  400000 500000 0  450000 500000 0  500000 500000 0  550000 500000 0  600000 500000 0  650000 500000 0  700000 500000 0  750000 500000 0  800000 500000 0  850000 500000 0  900000 500000 0  950000 500000 0  1000000 500000 0  0 550000 0  50000 550000 0  100000 550000 0  150000 550000 0  200000 550000 0  250000 550000 0  300000 550000 0  350000 550000 0  400000 550000 0  450000 550000 0  500000 550000 0  550000 550000 0  600000 550000 0  650000 550000 0  700000 550000 0  750000 550000 0  800000 550000 0  850000 550000 0  900000 550000 0  950000 550000 0  1000000 550000 0  0 600000 0  50000 600000 0  100000 600000 0  150000 600000 0  200000 600000 0  250000 600000 0  300000 600000 0  350000 600000 0  400000 600000 0  450000 600000 0  500000 600000 0  550000 600000 0  600000 600000 0  650000 600000 0  700000 600000 0  750000 600000 0  800000 600000 0  850000 600000 0  900000 600000 0  950000 600000 0  1000000 600000 0  0 650000 0  50000 650000 0  100000 650000 0  150000 650000 0  200000 650000 0  250000 650000 0  300000 650000 0  350000 650000 0  400000 650000 0  450000 650000 0  500000 650000 0  550000 650000 0  600000 650000 0  650000 650000 0  700000 650000 0  750000 650000 0  800000 650000 0  850000 650000 0  900000 650000 0  950000 650000 0  1000000 650000 0  0 700000 0  50000 700000 0  100000 700000 0  150000 700000 0  200000 700000 0  250000 700000 0  300000 700000 0  350000 700000 0  400000 700000 0  450000 700000 0  500000 700000 0  550000 700000 0  600000 700000 0  650000 700000 0  700000 700000 0  750000 700000 0  800000 700000 0  850000 700000 0  900000 700000 0  950000 700000 0  1000000 700000 0  0 750000 0  50000 750000 0  100000 750000 0  150000 750000 0  200000 750000 0  250000 750000 0  300000 750000 0  350000 750000 0  400000 750000 0  450000 750000 0  500000 750000 0  550000 750000 0  600000 750000 0  650000 750000 0  700000 750000 0  750000 750000 0  800000 750000 0  850000 750000 0  900000 750000 0  950000 750000 0  1000000 750000 0  0 800000 0  50000 800000 0  100000 800000 0  150000 800000 0  200000 800000 0  250000 800000 0  300000 800000 0  350000 800000 0  400000 800000 0  450000 800000 0  500000 800000 0  550000 800000 0  600000 800000 0  650000 800000 0  700000 800000 0  750000 800000 0  800000 800000 0  850000 800000 0  900000 800000 0  950000 800000 0  1000000 800000 0  0 850000 0  50000 850000 0  100000 850000 0  150000 850000 0  200000 850000 0  250000 850000 0  300000 850000 0  350000 850000 0  400000 850000 0  450000 850000 0  500000 850000 0  550000 850000 0  600000 850000 0  650000 850000 0  700000 850000 0  750000 850000 0  800000 850000 0  850000 850000 0  900000 850000 0  950000 850000 0  1000000 850000 0  0 900000 0  50000 900000 0  100000 900000 0  150000 900000 0  200000 900000 0  250000 900000 0  300000 900000 0  350000 900000 0  400000 900000 0  450000 900000 0  500000 900000 0  550000 900000 0  600000 900000 0  650000 900000 0  700000 900000 0  750000 900000 0  800000 900000 0  850000 900000 0  900000 900000 0  950000 900000 0  1000000 900000 0  0 950000 0  50000 950000 0  100000 950000 0  150000 950000 0  200000 950000 0  250000 950000 0  300000 950000 0  350000 950000 0  400000 950000 0  450000 950000 0  500000 950000 0  550000 950000 0  600000 950000 0  650000 950000 0  700000 950000 0  750000 950000 0  800000 950000 0  850000 950000 0  900000 950000 0  950000 950000 0  1000000 950000 0  0 1000000 0  50000 1000000 0  100000 1000000 0  150000 1000000 0  200000 1000000 0  250000 1000000 0  300000 1000000 0  350000 1000000 0  400000 1000000 0  450000 1000000 0  500000 1000000 0  550000 1000000 0  600000 1000000 0  650000 1000000 0  700000 1000000 0  750000 1000000 0  800000 1000000 0  850000 1000000 0  900000 1000000 0  950000 1000000 0  1000000 1000000 0  0 1050000 0  50000 1050000 0  100000 1050000 0  150000 1050000 0  200000 1050000 0  250000 1050000 0  300000 1050000 0  350000 1050000 0  400000 1050000 0  450000 1050000 0  500000 1050000 0  550000 1050000 0  600000 1050000 0  650000 1050000 0  700000 1050000 0  750000 1050000 0  800000 1050000 0  850000 1050000 0  900000 1050000 0  950000 1050000 0  1000000 1050000 0  0 1100000 0  50000 1100000 0  100000 1100000 0  150000 1100000 0  200000 1100000 0  250000 1100000 0  300000 1100000 0  350000 1100000 0  400000 1100000 0  450000 1100000 0  500000 1100000 0  550000 1100000 0  600000 1100000 0  650000 1100000 0  700000 1100000 0  750000 1100000 0  800000 1100000 0  850000 1100000 0  900000 1100000 0  950000 1100000 0  1000000 1100000 0  0 1150000 0  50000 1150000 0  100000 1150000 0  150000 1150000 0  200000 1150000 0  250000 1150000 0  300000 1150000 0  350000 1150000 0  400000 1150000 0  450000 1150000 0  500000 1150000 0  550000 1150000 0  600000 1150000 0  650000 1150000 0  700000 1150000 0  750000 1150000 0  800000 1150000 0  850000 1150000 0  900000 1150000 0  950000 1150000 0  1000000 1150000 0  0 1200000 0  50000 1200000 0  100000 1200000 0  150000 1200000 0  200000 1200000 0  250000 1200000 0  300000 1200000 0  350000 1200000 0  400000 1200000 0  450000 1200000 0  500000 1200000 0  550000 1200000 0  600000 1200000 0  650000 1200000 0  700000 1200000 0  750000 1200000 0  800000 1200000 0  850000 1200000 0  900000 1200000 0  950000 1200000 0  1000000 1200000 0  0 1250000 0  50000 1250000 0  100000 1250000 0  150000 1250000 0  200000 1250000 0  250000 1250000 0  300000 1250000 0  350000 1250000 0  400000 1250000 0  450000 1250000 0  500000 1250000 0  550000 1250000 0  600000 1250000 0  650000 1250000 0  700000 1250000 0  750000 1250000 0  800000 1250000 0  850000 1250000 0  900000 1250000 0  950000 1250000 0  1000000 1250000 0  0 1300000 0  50000 1300000 0  100000 1300000 0  150000 1300000 0  200000 1300000 0  250000 1300000 0  300000 1300000 0  350000 1300000 0  400000 1300000 0  450000 1300000 0  500000 1300000 0  550000 1300000 0  600000 1300000 0  650000 1300000 0  700000 1300000 0  750000 1300000 0  800000 1300000 0  850000 1300000 0  900000 1300000 0  950000 1300000 0  1000000 1300000 0  0 1350000 0  50000 1350000 0  100000 1350000 0  150000 1350000 0  200000 1350000 0  250000 1350000 0  300000 1350000 0  350000 1350000 0  400000 1350000 0  450000 1350000 0  500000 1350000 0  550000 1350000 0  600000 1350000 0  650000 1350000 0  700000 135
[...]
<PointData  Vectors="f_19"> 
<DataArray  type="Float64"  Name="f_19"  NumberOfComponents="3" format="ascii">-2.4179091932410355e-08 -1.0900891263872061e-08 0.0000000000000000e+00  4.8856860380864150e-08 -6.9699940439581689e-09 0.0000000000000000e+00  4.3103043963708860e-08 -2.6454210967510187e-09 0.0000000000000000e+00  4.0627073307659344e-08 -1.2577991953368864e-09 0.0000000000000000e+00  3.9401264742354791e-08 -7.6345801129065652e-10 0.0000000000000000e+00  3.8593223095036549e-08 -5.4223923424168764e-10 0.0000000000000000e+00  3.8006610112097113e-08 -4.2571652697210579e-10 0.0000000000000000e+00  3.7585198036262161e-08 -3.5601931290718370e-10 0.0000000000000000e+00  3.7311825818857572e-08 -3.0848471377137351e-10 0.0000000000000000e+00  3.7182596417791576e-08 -2.7013320710488461e-10 0.0000000000000000e+00  3.7199045228642646e-08 -2.3230114928225186e-10 0.0000000000000000e+00  3.7366278930887993e-08 -1.8727739500647682e-10 0.0000000000000000e+00  3.7694468733208888e-08 -1.2571788517293335e-10 0.0000000000000000e+00  3.8204814493956644e-08 -3.3011223938503677e-11 0.0000000000000000e+00  3.8945574705175165e-08 1.1814261300183005e-10 0.0000000000000000e+00  4.0034600712737719e-08 3.8595047471325458e-10 0.0000000000000000e+00  4.1771754026656682e-08 9.0824661688148068e-10 0.0000000000000000e+00  4.4902395048547168e-08 2.0291450213802604e-09 0.0000000000000000e+00  5.0754731577670505e-08 4.5658173109926230e-09 0.0000000000000000e+00  5.7998673413610940e-08 9.0856148966762269e-09 0.0000000000000000e+00  -1.6455705259231112e-08 6.9789382797771407e-09 0.0000000000000000e+00  -1.7921520221599280e-08 -1.6440583242006903e-08 0.0000000000000000e+00  7.3739018207523631e-09 -1.1492845266735952e-08 0.0000000000000000e+00  1.8336624566391874e-08 -5.3104292091503261e-09 0.0000000000000000e+00  2.3381163957110022e-08 -2.4433888496301595e-09 0.0000000000000000e+00  2.5933677743553300e-08 -1.1837004612878081e-09 0.0000000000000000e+00  2.7364252342418661e-08 -5.8959143867694098e-10 0.0000000000000000e+00  2.8185244571539014e-08 -2.9148712728780358e-10 0.0000000000000000e+00  2.8656103002782707e-08 -1.3878999305947176e-10 0.0000000000000000e+00  2.8920551486996263e-08 -6.2500175170640712e-11 0.0000000000000000e+00  2.9058951604860851e-08 -2.5339682969992286e-11 0.0000000000000000e+00  2.9113334105055830e-08 -2.7668498304767414e-12 0.0000000000000000e+00  2.9098868956885162e-08 2.5750462492834671e-11 0.0000000000000000e+00  2.9007795398168472e-08 8.2508860336645393e-11 0.0000000000000000e+00  2.8807846932384668e-08 1.9816827570312598e-10 0.0000000000000000e+00  2.8434178435300190e-08 4.2350656273833365e-10 0.0000000000000000e+00  2.7768759779059461e-08 8.5526512007474545e-10 0.0000000000000000e+00  2.6585176867141568e-08 1.6969439701079798e-09 0.0000000000000000e+00  2.4371139177758402e-08 3.3945559165916030e-09 0.0000000000000000e+00  1.9680337529795193e-08 6.8382830471367580e-09 0.0000000000000000e+00  8.2638696497652704e-09 1.2990984045047977e-08 0.0000000000000000e+00  -1.8423214900024914e-08 1.0911614070367050e-08 0.0000000000000000e+00  -1.0918816088532449e-08 -2.0005339076546548e-08 0.0000000000000000e+00  -1.9121175558714788e-10 -1.8652483710335047e-08 0.0000000000000000e+00  5.9808244465136473e-09 -1.1334188866711592e-08 0.0000000000000000e+00  1.0887379154432308e-08 -6.5191945956807924e-09 0.0000000000000000e+00  1.4692027453208974e-08 -3.7472396077077383e-09 0.0000000000000000e+00  1.7315612088162468e-08 -2.1751713872679083e-09 0.0000000000000000e+00  1.9059855763006816e-08 -1.2581924230383231e-09 0.0000000000000000e+00  2.0194285171627149e-08 -7.0375454047623108e-10 0.0000000000000000e+00  2.0899494319022469e-08 -3.5249189855181864e-10 0.0000000000000000e+00  2.1286441748886701e-08 -1.0998870814873735e-10 0.0000000000000000e+00  2.1415298445877378e-08 8.8124758496297209e-11 0.0000000000000000e+00  2.1306614920666745e-08 2.9516456088441380e-10 0.0000000000000000e+00  2.0945379288559745e-08 5.6655284326748306e-10 0.0000000000000000e+00  2.0278660318372249e-08 9.7341915079255222e-10 0.0000000000000000e+00  1.9206264660022828e-08 1.6225859325899279e-09 0.0000000000000000e+00  1.7562500596985386e-08 2.6906583536233954e-09 0.0000000000000000e+00  1.5087666071972176e-08 4.4786699560262695e-09 0.0000000000000000e+00  1.1399432215288745e-08 7.4605134545588415e-09 0.0000000000000000e+00  6.0308644201236542e-09 1.2102282459185195e-08 0.0000000000000000e+00  -1.2791105182853046e-09 1.7555855777483805e-08 0.0000000000000000e+00  -1.3249524899543471e-08 1.4658828356476755e-08 0.0000000000000000e+00  -7.1995123369509430e-09 -2.0589249472125583e-08 0.0000000000000000e+00  -1.5138748048136247e-09 -2.0138314418061855e-08 0.0000000000000000e+00  1.1960450422422156e-09 -1.5337161982354301e-08 0.0000000000000000e+00  4.0045744891231318e-09 -1.0388536260921401e-08 0.0000000000000000e+00  6.9134136728290409e-09 -6.7853817155541563e-09 0.0000000000000000e+00  9.4279203591870272e-09 -4.3673208506107422e-09 0.0000000000000000e+00  1.1357903021388421e-08 -2.7671250145992463e-09 0.0000000000000000e+00  1.2732823506220933e-08 -1.6895980837786235e-09 0.0000000000000000e+00  1.3639693473509635e-08 -9.3255194976167670e-10 0.0000000000000000e+00  1.4154493646766063e-08 -3.5723855213237587e-10 0.0000000000000000e+00  1.4325152711718385e-08 1.3952036716392009e-10 0.0000000000000000e+00  1.4169222105826012e-08 6.4580004603920704e-10 0.0000000000000000e+00  1.3674252297878474e-08 1.2506884008363158e-09 0.0000000000000000e+00  1.2798121088964539e-08 2.0597845265326911e-09 0.0000000000000000e+00  1.1470584882518885e-08 3.2127010504292581e-09 0.0000000000000000e+00  9.6022652803068520e-09 4.9009863752994383e-09 0.0000000000000000e+00  7.1179139426122981e-09 7.3686838531917341e-09 0.0000000000000000e+00  4.0480269885577086e-09 1.0825127566972905e-08 0.0000000000000000e+00  6.8456544126531636e-10 1.5079010982773066e-08 0.0000000000000000e+00  -2.6077882363009895e-09 1.8727344960598301e-08 0.0000000000000000e+00  -8.9358382118965640e-09 1.7503897262833281e-08 0.0000000000000000e+00  -5.3142467487619238e-09 -1.9958571455644767e-08 0.0000000000000000e+00  -1.8638770457577160e-09 -1.9902585606911924e-08 0.0000000000000000e+00  -8.9684928681450110e-10 -1.6790953620523899e-08 0.0000000000000000e+00  2.6730464406948360e-10 -1.2785003273824625e-08 0.0000000000000000e+00  1.9270475675423347e-09 -9.1900184453873597e-09 0.0000000000000000e+00  3.7078391471425009e-09 -6.3873074536730301e-09 0.0000000000000000e+00  5.2901172128660465e-09 -4.3082834947486346e-09 0.0000000000000000e+00  6.5336052210182787e-09 -2.7731267255164375e-09 0.0000000000000000e+00  7.4075232166893965e-09 -1.6076535278738567e-09 0.0000000000000000e+00  7.9230609373008598e-09 -6.6646731406988587e-10 0.0000000000000000e+00  8.0972593626976364e-09 1.7205815831412151e-10 0.0000000000000000e+00  7.9383293146714217e-09 1.0171226062169357e-09 0.0000000000000000e+00  7.4417278744161166e-09 1.9771593669852841e-09 0.0000000000000000e+00  6.5929126045611518e-09 3.1702040799434147e-09 0.0000000000000000e+00  5.3780390264709040e-09 4.7304867151115935e-09 0.0000000000000000e+00  3.8086567112420803e-09 6.8027224997704051e-09 0.0000000000000000e+00  1.9697574786668776e-09 9.5007931268215501e-09 0.0000000000000000e+00  8.8169381633631622e-11 1.2783197818404040e-08 0.0000000000000000e+00  -1.4723533336680649e-09 1.6199787384799512e-08 0.0000000000000000e+00  -2.7161766353695545e-09 1.8682517000875360e-08 0.0000000000000000e+00  -6.6321287960202793e-09 1.8495152498154214e-08 0.0000000000000000e+00  -4.2385080440512432e-09 -1.8788376110025417e-08 0.0000000000000000e+00  -2.0417585291332351e-09 -1.8978519932525915e-08 0.0000000000000000e+00  -2.0006603094569836e-09 -1.6841502990489934e-08 0.0000000000000000e+00  -1.8971355127353150e-09 -1.3775226470860773e-08 0.0000000000000000e+00  -1.2772605838992681e-09 -1.0609066009337592e-08 0.0000000000000000e+00  -3.2288426011705606e-10 -7.8214453433563367e-09 0.0000000000000000e+00  6.9790861109648181e-10 -5.5367604289650402e-09 0.0000000000000000e+00  1.5974333770352773e-09 -3.7066653777539524e-09 0.0000000000000000e+00  2.2777969731789391e-09 -2.2223174779993518e-09 0.0000000000000000e+00  2.6978322476482253e-09 -9.6364483626564478e-10 0.0000000000000000e+00  2.8440393131074748e-09 1.8550144770501603e-10 0.0000000000000000e+00  2.7141754005084956e-09 1.3361708692266522e-09 0.0000000000000000e+00  2.3116271486596201e-09 2.5973503708892941e-09 0.0000000000000000e+00  1.6485805495910236e-09 4.0778717750864274e-09 0.0000000000000000e+00  7.5813126181085788e-10 5.8817828292682420e-09 0.0000000000000000e+00  -2.8347325814849754e-10 8.0881902529717883e-09 0.0000000000000000e+00  -1.3275544552160157e-09 1.0701128417214253e-08 0.0000000000000000e+00  -2.1411999122385069e-09 1.3556655669275372e-08 0.0000000000000000e+00  -2.5057181082223516e-09 1.6212866758072847e-08 0.0000000000000000e+00  -2.6928098156368687e-09 1.7990021378121881e-08 0.0000000000000000e+00  -5.2713928877274290e-09 1.8257030489962971e-08 0.0000000000000000e+00  -3.5488686346538388e-09 -1.7320208146965152e-08 0.0000000000000000e+00  -2.1752036716519240e-09 -1.7678851827313839e-08 0.0000000000000000e+00  -2.6885853903263534e-09 -1.6137281878149796e-08 0.0000000000000000e+00  -3.2585181043786258e-09 -1.3785881001029418e-08 0.0000000000000000e+00  -3.3996670793898645e-09 -1.1133628695628167e-08 0.0000000000000000e+00  -3.1570730585912607e-09 -8.5762767554988832e-09 0.0000000000000000e+00  -2.7087828995672976e-09 -6.3030569772341294e-09 0.0000000000000000e+00  -2.2208158587891552e-09 -4.3513764426369631e-09 0.0000000000000000e+00  -1.8074017706185187e-09 -2.6763058894599962e-09 0.0000000000000000e+00  -1.5348004406546452e-09 -1.1964041191651763e-09 0.0000000000000000e+00  -1.4354234269175098e-09 1.8280966452409075e-10 0.0000000000000000e+00  -1.5189724147701272e-09 1.5584848920841217e-09 0.0000000000000000e+00  -1.7770553918080605e-09 3.0253741020944564e-09 0.0000000000000000e+00  -2.1810568327176623e-09 4.6702563021400507e-09 0.0000000000000000e+00  -2.6739616118635181e-09 6.5604766527131154e-09 0.0000000000000000e+00  -3.1585868003471600e-09 8.7207104879033979e-09 0.0000000000000000e+00  -3.4906114350592552e-09 1.1093342651705504e-08 0.0000000000000000e+00  -3.5003120244787618e-09 1.3487760560382388e-08 0.0000000000000000e+00  -3.1046054687416271e-09 1.5553311182032728e-08 0.0000000000000000e+00  -2.6774433325542948e-09 1.6878383961129119e-08 0.0000000000000000e+00  -4.3793371506113872e-09 1.7359282152671757e-08 0.0000000000000000e+00  -3.0695345389261105e-09 -1.5653776169659591e-08 0.0000000000000000e+00  -2.2841528384222465e-09 -1.6132804990580240e-08 0.0000000000000000e+00  -3.1660440822833832e-09 -1.4981453250710575e-08 0.0000000000000000e+00  -4.1767997118000547e-09 -1.3154219802868952e-08 0.0000000000000000e+00  -4.8542156209954975e-09 -1.0971484623372536e-08 0.0000000000000000e+00  -5.1657903744845766e-09 -8.7249356142112968e-09 0.0000000000000000e+00  -5.2120329566818727e-09 -6.5976313144721399e-09 0.0000000000000000e+00  -5.1153939067975606e-09 -4.6650027046479179e-09 0.0000000000000000e+00  -4.9769324878696284e-09 -2.9265954804076461e-09 0.0000000000000000e+00  -4.8653906879716066e-09 -1.3375553207773071e-09 0.0000000000000000e+00  -4.8193067793188330e-09 1.6910675809234285e-10 0.0000000000000000e+00  -4.8516463532036630e-09 1.6683735734488273e-09 0.0000000000000000e+00  -4.9523587412058405e-09 3.2332345609689309e-09 0.0000000000000000e+00  -5.0876462563450092e-09 4.9247288407608904e-09 0.0000000000000000e+00  -5.1968654539244966e-09 6.7783357207780398e-09 0.0000000000000000e+00  -5.1904524104315300e-09 8.7841356635584552e-09 0.0000000000000000e+00  -4.9566441029477227e-09 1.0861604304885024e-08 0.0000000000000000e+00  -4.3932426218833994e-09 1.2838412631008624e-08 0.0000000000000000e+00  -3.5028021067186337e-09 1.4457995369031502e-08 0.0000000000000000e+00  -2.6770437213072697e-09 1.5476120925199362e-08 0.0000000000000000e+00  -3.7485421484861931e-09 1.6074429518676311e-08 0.0000000000000000e+00  -2.7197455995993994e-09 -1.3842677554651219e-08 0.0000000000000000e+00  -2.3731108447756416e-09 -1.4409963795458384e-08 0.0000000000000000e+00  -3.5163451465607851e-09 -1.3531133901883299e-08 0.0000000000000000e+00  -4.8259148894384908e-09 -1.2095448741331002e-08 0.0000000000000000e+00  -5.8780910208298089e-09 -1.0312683489494357e-08 0.0000000000000000e+00  -6.6012775713274747e-09 -8.3902589244904001e-09 0.0000000000000000e+00  -7.0407176516477845e-09 -6.4805606584130753e-09 0.0000000000000000e+00  -7.2758783760150927e-09 -4.6666938183562335e-09 0.0000000000000000e+00  -7.3834190594776297e-09 -2.9725529885018319e-09 0.0000000000000000e+00  -7.4217789896782477e-09 -1.3808959441611957e-09 0.0000000000000000e+00  -7.4266610927856579e-09 1.4955805132207137e-10 0.0000000000000000e+00  -7.4109186339214443e-09 1.6703094004635125e-09 0.0000000000000000e+00  -7.3652814348186588e-09 3.2315589791192735e-09 0.0000000000000000e+00  -7.2587039738667272e-09 4.8709773558693747e-09 0.0000000000000000e+00  -7.0390683074659970e-09 6.6009931248897150e-09 0.0000000000000000e+00  -6.6369536429336453e-09 8.3942055181376603e-09 0.0000000000000000e+00  -5.9776817199124220e-09 1.0169552116914008e-08 0.0000000000000000e+00  -5.0113873605582404e-09 1.1786964240014361e-08 0.0000000000000000e+00  -3.7877057030525151e-09 1.3065231463349393e-08 0.0000000000000000e+00  -2.6837621614835198e-09 1.3863441871349298e-08 0.0000000000000000e+00  -3.2787032746310978e-09 1.4535076643244991e-08 0.0000000000000000e+00  -2.4583901392406209e-09 -1.1922848870734153e-08 0.0000000000000000e+00  -2.4446710366622486e-09 -1.2555804928135608e-08 0.0000000000000000e+00  -3.7792714542706607e-09 -1.1878854933791001e-08 0.0000000000000000e+00  -5.2963317761008618e-09 -1.0746270352081679e-08 0.0000000000000000e+00  -6.6101269040843946e-09 -9.3017369859641728e-09 0.0000000000000000e+00  -7.6310932793256485e-09 -7.6912581134908513e-09 0.0000000000000000e+00  -8.3680813026260754e-09 -6.0334341408792117e-09 0.0000000000000000e+00  -8.8656842280661390e-09 -4.4042832156613333e-09 0.0000000000000000e+00  -9.1752912792561611e-09 -2.8375490848821581e-09 0.0000000000000000e+00  -9.3402790917176135e-09 -1.3337272130002015e-09 0.0000000000000000e+00  -9.3890425369856565e-09 1.2825337530845261e-10 0.0000000000000000e+00  -9.3323753257714730e-09 1.5795443754821603e-09 0.0000000000000000e+00  -9.1630491058578117e-09 3.0506573320669777e-09 0.0000000000000000e+00  -8.8567436258174456e-09 4.5610652779785334e-09 0.0000000000000000e+00  -8.3747608328010800e-09 6.1087566749221698e-09 0.0000000000000000e+00  -7.6701599412206581e-09 7.6603973750852088e-09 0.0000000000000000e+00  -6.7002266078606551e-09 9.1446820633105559e-09 0.0000000000000000e+00  -5.4512401808961901e-09 1.0453973228249474e-08 0.0000000000000000e+00  -3.9969967612370575e-09 1.1462672458488283e-08 0.0000000000000000e+00  -2.6911166244879519e-09 1.2094419654265123e-08 0.0000000000000000e+00  -2.9167496381227230e-09 1.2815184222426506e-08 0.0000000000000000e+00  -2.2628182208464206e-09 -9.9215542266029834e-09 0.0000000000000000e+00  -2.5014321694633538e-09 -1.0603719181795275e-08 0.0000000000000000e+00  -3.9773706669553278e-09 -1.0084880515428006e-08 0.0000000000000000e+00  -5.6398371351139855e-09 -9.1969925258075988e-09 0.0000000000000000e+00  -7.1355809721890635e-09 -8.0433549889161804e-09 0.0000000000000000e+00  -8.3677460824746379e-09 -6.7264640723296918e-09 0.0000000000000000e+00  -9.3220909477377412e-09 -5.3351998937470029e-09 0.0000000000000000e+00  -1.0017365510917420e-08 -3.9329504687095089e-09 0.0000000000000000e+00  -1.0483303055595310e-08 -2.5545065622205995e-09 0.0000000000000000e+00  -1.0748253173644635e-08 -1.2099424643571793e-09 0.0000000000000000e+00  -1.0832127321872459e-08 1.0796423197139288e-10 0.0000000000000000e+00  -1.0742928971377805e-08 1.4150830966304729e-09 0.0000000000000000e+00  -1.0475808540246616e-08 2.7271343938387006e-09 0.0000000000000000e+00  -1.0014175891571337e-08 4.0511459590059194e-09 0.0000000000000000e+00  -9.3330522621487430e-09 5.3775503444571339e-09 0.0000000000000000e+00  -8.4054308850068930e-09 6.6738985625587117e-09 0.0000000000000000e+00  -7.2131017455634416e-09 7.8821603107138357e-09 0.0000000000000000e+00  -5.7661028136343062e-09 8.9226521048613817e-09 0.0000000000000000e+00  -4.1500527258695519e-09 9.7097621105764579e-09 0.0000000000000000e+00  -2.6954247147464735e-09 1.0208118322352353e-08 0.0000000000000000e+00  -2.6327253730176940e-09 1.0962288776388705e-08 0.0000000000000000e+00  -2.1199068055914409e-09 -7.8606413452055411e-09 0.0000000000000000e+00  -2.5461209174043786e-09 -8.5797333634457215e-09 0.0000000000000000e+00  -4.1253944618879979e-09 -8.1913352081079694e-09 0.0000000000000000e+00  -5.8890284479340004e-09 -7.5097195609084359e-09 0.0000000000000000e+00  -7.5097243470544824e-09 -6.6129163134533341e-09 0.0000000000000000e+00  -8.8884114355749540e-09 -5.5725220942027878e-09 0.0000000000000000e+00  -9.9965038031650932e-09 -4.4531100286847349e-09 0.0000000000000000e+00  -1.0834609897354070e-08 -3.3042922386516075e-09 0.0000000000000000e+00  -1.1415688019902541e-08 -2.1570933604766328e-09 0.0000000000000000e+00  -1.1755344486414264e-08 -1.0252447097853007e-09 0.0000000000000000e+00  -1.1865708006012172e-08 9.0344738585485808e-11 0.0000000000000000e+00  -1.1752031293302034e-08 1.1955243465034829e-09 0.0000000000000000e+00  -1.1411623234713272e-08 2.2963078708568575e-09 0.0000000000000000e+00  -1.0834912704868301e-08 3.3924433699812989e-09 0.0000000000000000e+00  -1.0008667726260788e-08 4.4718018896407738e-09 0.0000000000000000e+00  -8.9216068989415041e-09 5.5065103537957916e-09 0.0000000000000000e+00  -7.5731085043047778e-09 6.4521705145993137e-09 0.0000000000000000e+00  -5.9884585193443409e-09 7.2519116303905827e-09 0.0000000000000000e+00  -4.2588099112902412e-09 7.8489061274887482e-09 0.0000000000000000e+00  -2.6951603656434409e-09 8.2342335848501370e-09 0.0000000000000000e+00  -2.4090532670093669e-09 9.0103823590278835e-09 0.0000000000000000e+00  -2.0218769542393212e-09 -5.7580430561885251e-09 0.0000000000000000e+00  -2.5814001185407019e-09 -6.5047365927294958e-09 0.0000000000000000e+00  -4.2338774963341596e-09 -6.2291199390763580e-09 0.0000000000000000e+00  -6.0658974151955873e-09 -5.7286599828219960e-09 0.0000000000000000e+00  -7.7698967241196085e-09 -5.0651090675987475e-09 0.0000000000000000e+00  -9.2468242303466347e-09 -4.2876108337883677e-09 0.0000000000000000e+00  -1.0459392855082550e-08 -3.4411680755988542e-09 0.0000000000000000e+00  -1.1396048259757584e-08 -2.5621921090295371e-09 0.0000000000000000e+00  -1.2057684547258373e-08 -1.6755062473013793e-09 0.0000000000000000e+00  -1.2450175782209351e-08 -7.9450988628669173e-10 0.0000000000000000e+00  -1.2579401107184818e-08 7.6261984843045379e-11 0.0000000000000000e+00  -1.2448288465643527e-08 9.3716723898395864e-10 0.0000000000000000e+00  -1.2055821045903648e-08 1.7889063993206385e-09 0.0000000000000000e+00  -1.1397963329244104e-08 2.6280626246073574e-09 0.0000000000000000e+00  -1.0470450416842483e-08 3.4433633779835857e-09 0.0000000000000000e+00  -9.2734102500566063e-09 4.2133866281139105e-09 0.0000000000000000e+00  -7.8182096179853003e-09 4.9065628469010672e-09 0.0000000000000000e+00  -6.1397406630214383e-09 5.4844867493349048e-09 0.0000000000000000e+00  -4.3316572336573937e-09 5.9115009548540613e-09 0.0000000000000000e+00  -2.6901480009220938e-09 6.1960889015033800e-09 0.0000000000000000e+00  -2.2352002031813796e-09 6.9854019151326573e-09 0.0000000000000000e+00  -1.9641515254489826e-09 -3.6287648501238824e-09 0.0000000000000000e+00  -2.6096420022510206e-09 -4.3958242255149778e-09 0.0000000000000000e+00  -4.3105152240855107e-09 -4.2217669347714559e-09 0.0000000000000000e+00  -6.1856596309840489e-09 -3.8863374242290127e-09 0.0000000000000000e+00  -7.9416034132377090e-09 -3.4403066076319073e-09 0.0000000000000000e+00  -9.4801446859040774e-09 -2.9157902565593805e-09 0.0000000000000000e+00  -1.0758987885839588e-08 -2.34174700103