<?xml version="1.0"?>
<VTKFile type="UnstructuredGrid"  version="0.1"  >
<UnstructuredGrid>
<Piece  NumberOfPoints="651" NumberOfCells="1200">
<Points>
<DataArray  type="Float64"  NumberOfComponents="3"  format="ascii">0 0 0  50000 0 0  100000 0 0  150000 0 0  200000 0 0  250000 0 0  300000 0 0  350000 0 0  400000 0 0  450000 0 0  500000 0 0  550000 0 0  600000 0 0  650000 0 0  700000 0 0  750000 0 0  800000 0 0  850000 0 0  900000 0 0  950000 0 0  1000000 0 0  0 50000 0  50000 50000 0  100000 50000 0  150000 50000 0  200000 50000 0  250000 50000 0  300000 50000 0  350000 50000 0  400000 50000 0  450000 50000 0  500000 50000 0  550000 50000 0  600000 50000 0  650000 50000 0  700000 50000 0  750000 50000 0  800000 50000 0  850000 50000 0  900000 50000 0  950000 50000 0  1000000 50000 0  0 100000 0  50000 100000 0  100000 100000 0  150000 100000 0  200000 100000 0  250000 100000 0  300000 100000 0  350000 100000 0  400000 100000 0  450000 100000 0  500000 100000 0  550000 100000 0  600000 100000 0  650000 100000 0  700000 100000 0  750000 100000 0  800000 100000 0  850000 100000 0  900000 100000 0  950000 100000 0  1000000 100000 0  0 150000 0  50000 150000 0  100000 150000 0  150000 150000 0  200000 150000 0  250000 150000 0  300000 150000 0  350000 150000 0  400000 150000 0  450000 150000 0  500000 150000 0  550000 150000 0  600000 150000 0  650000 150000 0  700000 150000 0  750000 150000 0  800000 150000 0  850000 150000 0  900000 150000 0  950000 150000 0  1000000 150000 0  0 200000 0  50000 200000 0  100000 200000 0  150000 200000 0  200000 200000 0  250000 200000 0  300000 200000 0  350000 200000 0  400000 200000 0  450000 200000 0  500000 200000 0  550000 200000 0  600000 200000 0  650000 200000 0  700000 200000 0  750000 200000 0  800000 200000 0  850000 200000 0  900000 200000 0  950000 200000 0  1000000 200000 0  0 250000 0  50000 250000 0  100000 250000 0  150000 250000 0  200000 250000 0  250000 250000 0  300000 250000 0  350000 250000 0  400000 250000 0  450000 250000 0  500000 250000 0  550000 250000 0  600000 250000 0  650000 250000 0  700000 250000 0  750000 250000 0  800000 250000 0  850000 250000 0  900000 250000 0  950000 250000 0  1000000 250000 0  0 300000 0  50000 300000 0  100000 300000 0  150000 300000 0  200000 300000 0  250000 300000 0  300000 300000 0  350000 300000 0  400000 300000 0  450000 300000 0  500000 300000 0  550000 300000 0  600000 300000 0  650000 300000 0  700000 300000 0  750000 300000 0  800000 300000 0  850000 300000 0  900000 300000 0  950000 300000 0  1000000 300000 0  0 350000 0  50000 350000 0  100000 350000 0  150000 350000 0  200000 350000 0  250000 350000 0  300000 350000 0  350000 350000 0  400000 350000 0  450000 350000 0  500000 350000 0  550000 350000 0  600000 350000 0  650000 350000 0  700000 350000 0  750000 350000 0  800000 350000 0  850000 350000 0  900000 350000 0  950000 350000 0  1000000 350000 0  0 400000 0  50000 400000 0  100000 400000 0  150000 400000 0  200000 400000 0  250000 400000 0  300000 400000 0  350000 400000 0  400000 400000 0  450000 400000 0  500000 400000 0  550000 400000 0  600000 400000 0  650000 400000 0  700000 400000 0  750000 400000 0  800000 400000 0  850000 400000 0  900000 400000 0  950000 400000 0  1000000 400000 0  0 450000 0  50000 450000 0  100000 450000 0  150000 450000 0  200000 450000 0  250000 450000 0  300000 450000 0  350000 450000 0  400000 450000 0  450000 450000 0  500000 450000 0  550000 450000 0  600000 450000 0  650000 450000 0  700000 450000 0  750000 450000 0  800000 450000 0  850000 450000 0  900000 450000 0  950000 450000 0  1000000 450000 0  0 500000 0  50000 500000 0  100000 500000 0  150000 500000 0  200000 500000 0  250000 500000 0  300000 500000 0  350000 500000 0  400000 500000 0  450000 500000 0  500000 500000 0  550000 500000 0  600000 500000 0  650000 500000 0  700000 500000 0  750000 500000 0  800000 500000 0  850000 500000 0  900000 500000 0  950000 500000 0  1000000 500000 0  0 550000 0  50000 550000 0  100000 550000 0  150000 550000 0  200000 550000 0  250000 550000 0  300000 550000 0  350000 550000 0  400000 550000 0  450000 550000 0  500000 550000 0  550000 550000 0  600000 550000 0  650000 550000 0  700000 550000 0  750000 550000 0  800000 550000 0  850000 550000 0  900000 550000 0  950000 550000 0  1000000 550000 0  0 600000 0  50000 600000 0  100000 600000 0  150000 600000 0  200000 600000 0  250000 600000 0  300000 600000 0  350000 600000 0  400000 600000 0  450000 600000 0  500000 600000 0  550000 600000 0  600000 600000 0  650000 600000 0  700000 600000 0  750000 600000 0  800000 600000 0  850000 600000 0  900000 600000 0  950000 600000 0  1000000 600000 0  0 650000 0  50000 650000 0  100000 650000 0  150000 650000 0  200000 650000 0  250000 650000 0  300000 650000 0  350000 650000 0  400000 650000 0  450000 650000 0  500000 650000 0  550000 650000 0  600000 650000 0  650000 650000 0  700000 650000 0  750000 650000 0  800000 650000 0  850000 650000 0  900000 650000 0  950000 650000 0  1000000 650000 0  0 700000 0  50000 700000 0  100000 700000 0  150000 700000 0  200000 700000 0  250000 700000 0  300000 700000 0  350000 700000 0  400000 700000 0  450000 700000 0  500000 700000 0  550000 700000 0  600000 700000 0  650000 700000 0  700000 700000 0  750000 700000 0  800000 700000 0  850000 700000 0  900000 700000 0  950000 700000 0  1000000 700000 0  0 750000 0  50000 750000 0  100000 750000 0  150000 750000 0  200000 750000 0  250000 750000 0  300000 750000 0  350000 750000 0  400000 750000 0  450000 750000 0  500000 750000 0  550000 750000 0  600000 750000 0  650000 750000 0  700000 750000 0  750000 750000 0  800000 750000 0  850000 750000 0  900000 750000 0  950000 750000 0  1000000 750000 0  0 800000 0  50000 800000 0  100000 800000 0  150000 800000 0  200000 800000 0  250000 800000 0  300000 800000 0  350000 800000 0  400000 800000 0  450000 800000 0  500000 800000 0  550000 800000 0  600000 800000 0  650000 800000 0  700000 800000 0  750000 800000 0  800000 800000 0  850000 800000 0  900000 800000 0  950000 800000 0  1000000 800000 0  0 850000 0  50000 850000 0  100000 850000 0  150000 850000 0  200000 850000 0  250000 850000 0  300000 850000 0  350000 850000 0  400000 850000 0  450000 850000 0  500000 850000 0  550000 850000 0  600000 850000 0  650000 850000 0  700000 850000 0  750000 850000 0  800000 850000 0  850000 850000 0  900000 850000 0  950000 850000 0  1000000 850000 0  0 900000 0  50000 900000 0  100000 900000 0  150000 900000 0  200000 900000 0  250000 900000 0  300000 900000 0  350000 900000 0  400000 900000 0  450000 900000 0  500000 900000 0  550000 900000 0  600000 900000 0  650000 900000 0  700000 900000 0  750000 900000 0  800000 900000 0  850000 900000 0  900000 900000 0  950000 900000 0  1000000 900000 0  0 950000 0  50000 950000 0  100000 950000 0  150000 950000 0  200000 950000 0  250000 950000 0  300000 950000 0  350000 950000 0  400000 950000 0  450000 950000 0  500000 950000 0  550000 950000 0  600000 950000 0  650000 950000 0  700000 950000 0  750000 950000 0  800000 950000 0  850000 950000 0  900000 950000 0  950000 950000 0  1000000 950000 0  0 1000000 0  50000 1000000 0  100000 1000000 0  150000 1000000 0  200000 1000000 0  250000 1000000 0  300000 1000000 0  350000 1000000 0  400000 1000000 0  450000 1000000 0  500000 1000000 0  550000 1000000 0  600000 1000000 0  650000 1000000 0  700000 1000000 0  750000 1000000 0  800000 1000000 0  850000 1000000 0  900000 1000000 0  950000 1000000 0  1000000 1000000 0  0 1050000 0  50000 1050000 0  100000 1050000 0  150000 1050000 0  200000 1050000 0  250000 1050000 0  300000 1050000 0  350000 1050000 0  400000 1050000 0  450000 1050000 0  500000 1050000 0  550000 1050000 0  600000 1050000 0  650000 1050000 0  700000 1050000 0  750000 1050000 0  800000 1050000 0  850000 1050000 0  900000 1050000 0  950000 1050000 0  1000000 1050000 0  0 1100000 0  50000 1100000 0  100000 1100000 0  150000 1100000 0  200000 1100000 0  250000 1100000 0  300000 1100000 0  350000 1100000 0  400000 1100000 0  450000 1100000 0  500000 1100000 0  550000 1100000 0  600000 1100000 0  650000 1100000 0  700000 1100000 0  750000 1100000 0  800000 1100000 0  850000 1100000 0  900000 1100000 0  950000 1100000 0  1000000 1100000 0  0 1150000 0  50000 1150000 0  100000 1150000 0  150000 1150000 0  200000 1150000 0  250000 1150000 0  300000 1150000 0  350000 1150000 0  400000 1150000 0  450000 1150000 0  500000 1150000 0  550000 1150000 0  600000 1150000 0  650000 1150000 0  700000 1150000 0  750000 1150000 0  800000 1150000 0  850000 1150000 0  900000 1150000 0  950000 1150000 0  1000000 1150000 0  0 1200000 0  50000 1200000 0  100000 1200000 0  150000 1200000 0  200000 1200000 0  250000 1200000 0  300000 1200000 0  350000 1200000 0  400000 1200000 0  450000 1200000 0  500000 1200000 0  550000 1200000 0  600000 1200000 0  650000 1200000 0  700000 1200000 0  750000 1200000 0  800000 1200000 0  850000 1200000 0  900000 1200000 0  950000 1200000 0  1000000 1200000 0  0 1250000 0  50000 1250000 0  100000 1250000 0  150000 1250000 0  200000 1250000 0  250000 1250000 0  300000 1250000 0  350000 1250000 0  400000 1250000 0  450000 1250000 0  500000 1250000 0  550000 1250000 0  600000 1250000 0  650000 1250000 0  700000 1250000 0  750000 1250000 0  800000 1250000 0  850000 1250000 0  900000 1250000 0  950000 1250000 0  1000000 1250000 0  0 1300000 0  50000 1300000 0  100000 1300000 0  150000 1300000 0  200000 1300000 0  250000 1300000 0  300000 1300000 0  350000 1300000 0  400000 1300000 0  450000 1300000 0  500000 1300000 0  550000 1300000 0  600000 1300000 0  650000 1300000 0  700000 1300000 0  750000 1300000 0  800000 1300000 0  850000 1300000 0  900000 1300000 0  950000 1300000 0  1000000 1300000 0  0 1350000 0  50000 1350000 0  100000 1350000 0  150000 1350000 0  200000 1350000 0  250000 1350000 0  300000 1350000 0  350000 1350000 0  400000 1350000 0  450000 1350000 0  500000 1350000 0  550000 1350000 0  600000 1350000 0  650000 1350000 0  700000 135
[...]
<PointData  Vectors="f_19"> 
<DataArray  type="Float64"  Name="f_19"  NumberOfComponents="3" format="ascii">-2.4401692874476507e-08 -1.0354764472863223e-08 0.0000000000000000e+00  4.8659388701223641e-08 -6.4394265099144554e-09 0.0000000000000000e+00  4.2938624784491347e-08 -2.1442953391802624e-09 0.0000000000000000e+00  4.0491802086270642e-08 -7.8456713232105623e-10 0.0000000000000000e+00  3.9294060916794753e-08 -3.1621564465997155e-10 0.0000000000000000e+00  3.8512941769818496e-08 -1.2107277750998355e-10 0.0000000000000000e+00  3.7951840984696874e-08 -3.1761346570632591e-11 0.0000000000000000e+00  3.7554068770487263e-08 9.1089756288020974e-12 0.0000000000000000e+00  3.7301886407529655e-08 2.6073451533037883e-11 0.0000000000000000e+00  3.7190801516720113e-08 3.2293730234516890e-11 0.0000000000000000e+00  3.7221829421037945e-08 3.6905085339696826e-11 0.0000000000000000e+00  3.7399728894792970e-08 4.8343583795017140e-11 0.0000000000000000e+00  3.7734589488839772e-08 7.6867742642145884e-11 0.0000000000000000e+00  3.8247870013852355e-08 1.3809995963301646e-10 0.0000000000000000e+00  3.8988463269058894e-08 2.6033536032657071e-10 0.0000000000000000e+00  4.0075210311210440e-08 5.0264974427880678e-10 0.0000000000000000e+00  4.1809243037900366e-08 1.0035421025401311e-09 0.0000000000000000e+00  4.4937359271163079e-08 2.1075713966456139e-09 0.0000000000000000e+00  5.0789157192322622e-08 4.6321803925266078e-09 0.0000000000000000e+00  5.8035089128385884e-08 9.1448324852641642e-09 0.0000000000000000e+00  -1.6418580931574923e-08 7.0387619196329469e-09 0.0000000000000000e+00  -1.8164571253579026e-08 -1.5908011553151643e-08 0.0000000000000000e+00  7.2446946927894004e-09 -1.1306545602840893e-08 0.0000000000000000e+00  1.8138951295400072e-08 -5.2564920974625124e-09 0.0000000000000000e+00  2.3206278308632603e-08 -2.4017134960651728e-09 0.0000000000000000e+00  2.5799557727631408e-08 -1.1470663962461586e-09 0.0000000000000000e+00  2.7266255645216028e-08 -5.5590006238585283e-10 0.0000000000000000e+00  2.8119216609671927e-08 -2.5991174539090705e-10 0.0000000000000000e+00  2.8618318385094266e-08 -1.0886531679021025e-10 0.0000000000000000e+00  2.8907032439777718e-08 -3.3750951575385832e-11 0.0000000000000000e+00  2.9065437443874377e-08 2.7561255715883604e-12 0.0000000000000000e+00  2.9135341418807958e-08 2.5195959207599684e-11 0.0000000000000000e+00  2.9131798302731085e-08 5.4030351180543448e-11 0.0000000000000000e+00  2.9047096840433147e-08 1.1141270709673871e-10 0.0000000000000000e+00  2.8849226487412164e-08 2.2780089157822304e-10 0.0000000000000000e+00  2.8473811641991149e-08 4.5374974197279716e-10 0.0000000000000000e+00  2.7803472006673464e-08 8.8582116489004626e-10 0.0000000000000000e+00  2.6612568644934972e-08 1.7274650345790808e-09 0.0000000000000000e+00  2.4389818169119373e-08 3.4248111131378828e-09 0.0000000000000000e+00  1.9691074211195401e-08 6.8682642538322299e-09 0.0000000000000000e+00  8.2697927666705910e-09 1.3021651348384860e-08 0.0000000000000000e+00  -1.8387239279021981e-08 1.0969517274996170e-08 0.0000000000000000e+00  -1.1188648193549659e-08 -1.9506185476268043e-08 0.0000000000000000e+00  -2.6418330249962714e-10 -1.8471125788985264e-08 0.0000000000000000e+00  5.8460115909957480e-09 -1.1351091553047000e-08 0.0000000000000000e+00  1.0726636960189166e-08 -6.5744907035342697e-09 0.0000000000000000e+00  1.4539268150127347e-08 -3.8113357605780887e-09 0.0000000000000000e+00  1.7184942326807244e-08 -2.2393319700209300e-09 0.0000000000000000e+00  1.8953755120097470e-08 -1.3189804277725513e-09 0.0000000000000000e+00  2.0111476255453189e-08 -7.5947047697393885e-10 0.0000000000000000e+00  2.0837454110069684e-08 -4.0189947714043842e-10 0.0000000000000000e+00  2.1242131984248170e-08 -1.5198234113572964e-10 0.0000000000000000e+00  2.1385489562606817e-08 5.4511543635891348e-11 0.0000000000000000e+00  2.1288074677365424e-08 2.7065117174946402e-10 0.0000000000000000e+00  2.0935001382205805e-08 5.5148800679794017e-10 0.0000000000000000e+00  2.0273563675474838e-08 9.6768718067732076e-10 0.0000000000000000e+00  1.9203874306886486e-08 1.6255805904893564e-09 0.0000000000000000e+00  1.7560619569687191e-08 2.7013558563870956e-09 0.0000000000000000e+00  1.5084570512370932e-08 4.4958168963345813e-09 0.0000000000000000e+00  1.1394077136008768e-08 7.4829067879185126e-09 0.0000000000000000e+00  6.0235409550662976e-09 1.2129170989834010e-08 0.0000000000000000e+00  -1.2874231090166680e-09 1.7582346864643364e-08 0.0000000000000000e+00  -1.3221052473870210e-08 1.4713097811720298e-08 0.0000000000000000e+00  -7.4912127727625760e-09 -2.0124027840708150e-08 0.0000000000000000e+00  -1.5543798735286847e-09 -1.9901214040089166e-08 0.0000000000000000e+00  1.1310371242948279e-09 -1.5316920826278243e-08 0.0000000000000000e+00  3.9019559013110970e-09 -1.0446060079209268e-08 0.0000000000000000e+00  6.7941752254898873e-09 -6.8695783051481323e-09 0.0000000000000000e+00  9.3105326337127762e-09 -4.4583558453902980e-09 0.0000000000000000e+00  1.1251603913850191e-08 -2.8562674694376001e-09 0.0000000000000000e+00  1.2641034560159281e-08 -1.7724852837144903e-09 0.0000000000000000e+00  1.3562834527412402e-08 -1.0066444722671637e-09 0.0000000000000000e+00  1.4091528165048453e-08 -4.2082704533709022e-10 0.0000000000000000e+00  1.4274362056986256e-08 8.7639240832223333e-11 0.0000000000000000e+00  1.4128606937132317e-08 6.0637166455715554e-10 0.0000000000000000e+00  1.3641751259233308e-08 1.2239524730153872e-09 0.0000000000000000e+00  1.2771734093307406e-08 2.0454209621519446e-09 0.0000000000000000e+00  1.1448450661483369e-08 3.2098214000389735e-09 0.0000000000000000e+00  9.5827338596762356e-09 4.9082010672340702e-09 0.0000000000000000e+00  7.0996634161072390e-09 7.3842496183224032e-09 0.0000000000000000e+00  4.0303197893295799e-09 1.0847104082702143e-08 0.0000000000000000e+00  6.6815450057482073e-10 1.5105029658282575e-08 0.0000000000000000e+00  -2.6230627059685141e-09 1.8745965075816606e-08 0.0000000000000000e+00  -8.9198282313470975e-09 1.7551274499786573e-08 0.0000000000000000e+00  -5.6235033010458757e-09 -1.9526334416770663e-08 0.0000000000000000e+00  -1.8913919407969058e-09 -1.9638205126616129e-08 0.0000000000000000e+00  -9.1909812591514215e-10 -1.6726038289415987e-08 0.0000000000000000e+00  2.1563083164516089e-10 -1.2817008571889603e-08 0.0000000000000000e+00  1.8507734251322677e-09 -9.2674699532790511e-09 0.0000000000000000e+00  3.6203762789497207e-09 -6.4830302055122974e-09 0.0000000000000000e+00  5.2017660857453006e-09 -4.4079516066156945e-09 0.0000000000000000e+00  6.4503820473709396e-09 -2.8689007391172075e-09 0.0000000000000000e+00  7.3323408482863028e-09 -1.6949747320363637e-09 0.0000000000000000e+00  7.8569067041448057e-09 -7.4251501769624552e-10 0.0000000000000000e+00  8.0400086482107486e-09 1.0906040413216043e-10 0.0000000000000000e+00  7.8892477837122711e-09 9.6818356259603108e-10 0.0000000000000000e+00  7.3997673792595947e-09 1.9426063682010132e-09 0.0000000000000000e+00  6.5568852377913794e-09 3.1497007375182774e-09 0.0000000000000000e+00  5.3467317942430177e-09 4.7230480680947603e-09 0.0000000000000000e+00  3.7809404465005480e-09 6.8067572157971154e-09 0.0000000000000000e+00  1.9447490308977242e-09 9.5141598213139691e-09 0.0000000000000000e+00  6.5543435078951597e-11 1.2803134908670289e-08 0.0000000000000000e+00  -1.4915718097843690e-09 1.6222113593869431e-08 0.0000000000000000e+00  -2.7353453496074770e-09 1.8690592043497836e-08 0.0000000000000000e+00  -6.6332596477320972e-09 1.8533737888121838e-08 0.0000000000000000e+00  -4.5622446864407619e-09 -1.8388260954854387e-08 0.0000000000000000e+00  -2.0638897157373282e-09 -1.8709612743614468e-08 0.0000000000000000e+00  -1.9969376995281456e-09 -1.6745147831803152e-08 0.0000000000000000e+00  -1.9114734262680696e-09 -1.3778753485051595e-08 0.0000000000000000e+00  -1.3149259820949699e-09 -1.0669269593104441e-08 0.0000000000000000e+00  -3.7700281591057626e-10 -7.9101885532628262e-09 0.0000000000000000e+00  6.3536354163175615e-10 -5.6366050329884137e-09 0.0000000000000000e+00  1.5326720591481803e-09 -3.8069149349974591e-09 0.0000000000000000e+00  2.2148874172551241e-09 -2.3163439054145575e-09 0.0000000000000000e+00  2.6391286406175920e-09 -1.0472728193082652e-09 0.0000000000000000e+00  2.7906972792563483e-09 1.1488625658013483e-10 0.0000000000000000e+00  2.6665631378689593e-09 1.2800760544688091e-09 0.0000000000000000e+00  2.2696117119124324e-09 2.5563893873231944e-09 0.0000000000000000e+00  1.6117200369265185e-09 4.0518556762011824e-09 0.0000000000000000e+00  7.2581654680076702e-10 5.8697590331112755e-09 0.0000000000000000e+00  -3.1188045005649184e-10 8.0884549822768948e-09 0.0000000000000000e+00  -1.3525369448615216e-09 1.0711187456718505e-08 0.0000000000000000e+00  -2.1628062079555670e-09 1.3572961719400661e-08 0.0000000000000000e+00  -2.5231641025868807e-09 1.6229673580903426e-08 0.0000000000000000e+00  -2.7138479364251355e-09 1.7986539089566292e-08 0.0000000000000000e+00  -5.2941350400578351e-09 1.8286389761757423e-08 0.0000000000000000e+00  -3.8844453009583126e-09 -1.6951451942479345e-08 0.0000000000000000e+00  -2.1953079797627758e-09 -1.7417621748059559e-08 0.0000000000000000e+00  -2.6683877252338330e-09 -1.6023213860443317e-08 0.0000000000000000e+00  -3.2463269972060699e-09 -1.3766308559742314e-08 0.0000000000000000e+00  -3.4060524507504743e-09 -1.1174735110294060e-08 0.0000000000000000e+00  -3.1802711139642854e-09 -8.6526092914351380e-09 0.0000000000000000e+00  -2.7438383211931380e-09 -6.3966673728910282e-09 0.0000000000000000e+00  -2.2626893587281488e-09 -4.4500729141812500e-09 0.0000000000000000e+00  -1.8520167056710942e-09 -2.7719449626100894e-09 0.0000000000000000e+00  -1.5792193276702059e-09 -1.2835917682561706e-09 0.0000000000000000e+00  -1.4777025500388485e-09 1.0757648326607708e-10 0.0000000000000000e+00  -1.5579417985582056e-09 1.4973335117205925e-09 0.0000000000000000e+00  -1.8121183012287460e-09 2.9793406686589674e-09 0.0000000000000000e+00  -2.2120282533052526e-09 4.6394273994945082e-09 0.0000000000000000e+00  -2.7009318459083063e-09 6.5440429504248071e-09 0.0000000000000000e+00  -3.1817829649128106e-09 8.7169523885215034e-09 0.0000000000000000e+00  -3.5102296630116760e-09 1.1099517604443120e-08 0.0000000000000000e+00  -3.5163402091136489e-09 1.3499714812800796e-08 0.0000000000000000e+00  -3.1169386825910483e-09 1.5564129432558793e-08 0.0000000000000000e+00  -2.6989768993180537e-09 1.6864119617117229e-08 0.0000000000000000e+00  -4.4277518608916843e-09 1.7380402609319189e-08 0.0000000000000000e+00  -3.4144124085738792e-09 -1.5315762778680568e-08 0.0000000000000000e+00  -2.3037045311965589e-09 -1.5886425010480822e-08 0.0000000000000000e+00  -3.1348809666688384e-09 -1.4859902251594182e-08 0.0000000000000000e+00  -4.1456195242592501e-09 -1.3118566046881054e-08 0.0000000000000000e+00  -4.8361448730940498e-09 -1.0995749449337986e-08 0.0000000000000000e+00  -5.1624286111265780e-09 -8.7875369005822511e-09 0.0000000000000000e+00  -5.2211344800766534e-09 -6.6817823427567929e-09 0.0000000000000000e+00  -5.1335187395958623e-09 -4.7582838737291257e-09 0.0000000000000000e+00  -5.0006498871571819e-09 -3.0201063455638485e-09 0.0000000000000000e+00  -4.8917815051078278e-09 -1.4250584790587569e-09 0.0000000000000000e+00  -4.8461031763862102e-09 9.1864604654142508e-11 0.0000000000000000e+00  -4.8772072966595241e-09 1.6041305390281855e-09 0.0000000000000000e+00  -4.9755870015169931e-09 3.1835038883534546e-09 0.0000000000000000e+00  -5.1078920002834157e-09 4.8899546123948108e-09 0.0000000000000000e+00  -5.2138265202370718e-09 6.7579471044422011e-09 0.0000000000000000e+00  -5.2040651934358776e-09 8.7765101299828992e-09 0.0000000000000000e+00  -4.9669640692765078e-09 1.0863907887549690e-08 0.0000000000000000e+00  -4.4004033424765939e-09 1.2846142380745152e-08 0.0000000000000000e+00  -3.5076989423476255e-09 1.4463512566925621e-08 0.0000000000000000e+00  -2.6981543155395345e-09 1.5453317202996202e-08 0.0000000000000000e+00  -3.8260301827728366e-09 1.6089592686104826e-08 0.0000000000000000e+00  -3.0713456303265526e-09 -1.3534940364496620e-08 0.0000000000000000e+00  -2.3926505992063382e-09 -1.4183031366384176e-08 0.0000000000000000e+00  -3.4774965981606628e-09 -1.3409393072979330e-08 0.0000000000000000e+00  -4.7809124480638574e-09 -1.2050120405343743e-08 0.0000000000000000e+00  -5.8411261776576545e-09 -1.0323830312544024e-08 0.0000000000000000e+00  -6.5759703601110390e-09 -8.4401471138882322e-09 0.0000000000000000e+00  -7.0268481059510461e-09 -6.5543382707757898e-09 0.0000000000000000e+00  -7.2715148680806898e-09 -4.7525810508017904e-09 0.0000000000000000e+00  -7.3860142361556463e-09 -3.0615683945733264e-09 0.0000000000000000e+00  -7.4287793032413435e-09 -1.4663934301824615e-09 0.0000000000000000e+00  -7.4358124275168109e-09 7.2345147576713280e-11 0.0000000000000000e+00  -7.4203916682816059e-09 1.6046296769635140e-09 0.0000000000000000e+00  -7.3737008016470292e-09 3.1793886875294389e-09 0.0000000000000000e+00  -7.2651295980737288e-09 4.8331576341232500e-09 0.0000000000000000e+00  -7.0429514331702834e-09 6.5772701646539256e-09 0.0000000000000000e+00  -6.6380773013116457e-09 8.3831740873178196e-09 0.0000000000000000e+00  -5.9761074931713209e-09 1.0168469605129727e-08 0.0000000000000000e+00  -5.0075637258803753e-09 1.1791264243206401e-08 0.0000000000000000e+00  -3.7837476665231196e-09 1.3067004430821503e-08 0.0000000000000000e+00  -2.7039071146737683e-09 1.3835433713260859e-08 0.0000000000000000e+00  -3.3877603193746875e-09 1.4547622488259502e-08 0.0000000000000000e+00  -2.8140031283533891e-09 -1.1645033510882828e-08 0.0000000000000000e+00  -2.4642892333062397e-09 -1.2351357715079849e-08 0.0000000000000000e+00  -3.7348048779573066e-09 -1.1762140419011193e-08 0.0000000000000000e+00  -5.2411428773523958e-09 -1.0696523640547304e-08 0.0000000000000000e+00  -6.5586817894893391e-09 -9.3036657254685332e-09 0.0000000000000000e+00  -7.5881279854823211e-09 -7.7305371135161374e-09 0.0000000000000000e+00  -8.3347493147179727e-09 -6.0973660181070589e-09 0.0000000000000000e+00  -8.8412654340527873e-09 -4.4822087233909724e-09 0.0000000000000000e+00  -9.1581024039175700e-09 -2.9208910774324075e-09 0.0000000000000000e+00  -9.3282688605413578e-09 -1.4158102551994044e-09 0.0000000000000000e+00  -9.3801674933427916e-09 5.2458127469078658e-11 0.0000000000000000e+00  -9.3248194265399637e-09 1.5136563594113138e-09 0.0000000000000000e+00  -9.1553412864955944e-09 2.9970617818159316e-09 0.0000000000000000e+00  -8.8478128149579855e-09 4.5210107709022417e-09 0.0000000000000000e+00  -8.3639535650736186e-09 6.0823702905096436e-09 0.0000000000000000e+00  -7.6572391649405408e-09 7.6466098156104701e-09 0.0000000000000000e+00  -6.6853909655700741e-09 9.1410296028193658e-09 0.0000000000000000e+00  -5.4353822259871832e-09 1.0456110969023621e-08 0.0000000000000000e+00  -3.9835866619010280e-09 1.1462857153464159e-08 0.0000000000000000e+00  -2.7100827046443018e-09 1.2065276456647120e-08 0.0000000000000000e+00  -3.0587856702263053e-09 1.2829187612225851e-08 0.0000000000000000e+00  -2.6195423115513532e-09 -9.6733602439876276e-09 0.0000000000000000e+00  -2.5210121840830743e-09 -1.0423753994843067e-08 0.0000000000000000e+00  -3.9287260826508300e-09 -9.9769040861108879e-09 0.0000000000000000e+00  -5.5771812919331204e-09 -9.1469320982752315e-09 0.0000000000000000e+00  -7.0732357290582310e-09 -8.0395793915497787e-09 0.0000000000000000e+00  -8.3109834426102741e-09 -6.7575609811964847e-09 0.0000000000000000e+00  -9.2729186220409572e-09 -5.3905749505718790e-09 0.0000000000000000e+00  -9.9759394083874840e-09 -4.0032730027059920e-09 0.0000000000000000e+00  -1.0448660461795071e-08 -2.6319004461235501e-09 0.0000000000000000e+00  -1.0718843698451640e-08 -1.2879821923027748e-09 0.0000000000000000e+00  -1.0806199759670121e-08 3.4355614548766824e-11 0.0000000000000000e+00  -1.0718799573554899e-08 1.3497584575282365e-09 0.0000000000000000e+00  -1.0452039681439747e-08 2.6728221368424153e-09 0.0000000000000000e+00  -9.9896922436003873e-09 4.0094991312800201e-09 0.0000000000000000e+00  -9.3072165209353736e-09 5.3491313090800560e-09 0.0000000000000000e+00  -8.3781007817608012e-09 6.6580867544718611e-09 0.0000000000000000e+00  -7.1847199260582444e-09 7.8769510766120978e-09 0.0000000000000000e+00  -5.7380972551113130e-09 8.9241898503042961e-09 0.0000000000000000e+00  -4.1273117947490538e-09 9.7108742284200280e-09 0.0000000000000000e+00  -2.7132698094696873e-09 1.0182301198615960e-08 0.0000000000000000e+00  -2.8079845432163049e-09 1.0982196841805273e-08 0.0000000000000000e+00  -2.4746083133765121e-09 -7.6417482886430971e-09 0.0000000000000000e+00  -2.5654669237067793e-09 -8.4254726617221554e-09 0.0000000000000000e+00  -4.0737209022337361e-09 -8.0946623960414947e-09 0.0000000000000000e+00  -5.8211205977955124e-09 -7.4624206558459172e-09 0.0000000000000000e+00  -7.4395254062711176e-09 -6.6063522367668749e-09 0.0000000000000000e+00  -8.8213609274462325e-09 -5.5977656905115730e-09 0.0000000000000000e+00  -9.9350783824032093e-09 -4.5015129970660001e-09 0.0000000000000000e+00  -1.0779538024971069e-08 -3.3678978320189547e-09 0.0000000000000000e+00  -1.1366542299111082e-08 -2.2288776854949437e-09 0.0000000000000000e+00  -1.1710998558877321e-08 -1.0992104243466970e-09 0.0000000000000000e+00  -1.1824705034412742e-08 1.9166302419169721e-11 0.0000000000000000e+00  -1.1712870512372419e-08 1.1311085709944232e-09 0.0000000000000000e+00  -1.1372976657622059e-08 2.2416689269615904e-09 0.0000000000000000e+00  -1.0795788035780998e-08 3.3496358296430367e-09 0.0000000000000000e+00  -9.9685341517131599e-09 4.4418745058467945e-09 0.0000000000000000e+00  -8.8805049127008020e-09 5.4893979190512540e-09 0.0000000000000000e+00  -7.5318034564562012e-09 6.4464948284693696e-09 0.0000000000000000e+00  -5.9489695562909040e-09 7.2545477611120979e-09 0.0000000000000000e+00  -4.2274429121150900e-09 7.8536082224936245e-09 0.0000000000000000e+00  -2.7121361577781713e-09 8.2162781881310219e-09 0.0000000000000000e+00  -2.6166430007477348e-09 9.0406667986272766e-09 0.0000000000000000e+00  -2.3711749165428985e-09 -5.5680220650404094e-09 0.0000000000000000e+00  -2.6003124733725416e-09 -6.3767479410939611e-09 0.0000000000000000e+00  -4.1802327084735792e-09 -6.1453907991226090e-09 0.0000000000000000e+00  -5.9947139111859244e-09 -5.6862965610499053e-09 0.0000000000000000e+00  -7.6945880603819627e-09 -5.0580192341230987e-09 0.0000000000000000e+00  -9.1727581789699945e-09 -4.3090173968764565e-09 0.0000000000000000e+00  -1.0389236102897675e-08 -3.4841878988687187e-09 0.0000000000000000e+00  -1.1330851286477674e-08 -2.6202017971362232e-09 0.0000000000000000e+00  -1.1997371464589474e-08 -1.7423869611115191e-09 0.0000000000000000e+00  -1.2393934930462030e-08 -8.6478785859473413e-10 0.0000000000000000e+00  -1.2526024373655436e-08 7.3489278725794707e-12 0.0000000000000000e+00  -1.2396458742601816e-08 8.7364164052477606e-10 0.0000000000000000e+00  -1.2004350498042099e-08 1.7340298986948631e-09 0.0000000000000000e+00  -1.1345990421046312e-08 2.5842970236562680e-09 0.0000000000000000e+00  -1.0417606795123613e-08 3.4122967686025608e-09 0.0000000000000000e+00  -9.2199759669572826e-09 4.1956111855185475e-09 0.0000000000000000e+00  -7.7653211208891661e-09 4.9014799572059329e-09 0.0000000000000000e+00  -6.0900307659662436e-09 5.4899126247136918e-09 0.0000000000000000e+00  -4.2927952861852740e-09 5.9224138427424236e-09 0.0000000000000000e+00  -2.7066137277894308e-09 6.1903317823297473e-09 0.0000000000000000e+00  -2.4732146020285912e-09 7.0302692393684649e-09 0.0000000000000000e+00  -2.3044296102444432e-09 -3.4669775932240582e-09 0.0000000000000000e+00  -2.6279672132903443e-09 -4.2940559371746332e-09 0.0000000000000000e+00  -4.2559868533990350e-09 -4.1518304071449200e-09 0.0000000000000000e+00  -6.1131046787208103e-09 -3.8502912593645778e-09 0.0000000000000000e+00  -7.8637852953480234e-09 -3.4343128749149782e-09 0.0000000000000000e+00  -9.4021960526380138e-09 -2.9349685075955957e-09 0.0000000000000000e+00  -1.0683564044801705e-08 -2.3808076746825945e-09