<?xml version="1.0"?>
<VTKFile type="UnstructuredGrid"  version="0.1"  >
<UnstructuredGrid>
<Piece  NumberOfPoints="651" NumberOfCells="1200">
<Points>
<DataArray  type="Float64"  NumberOfComponents="3"  format="ascii">0 0 0  50000 0 0  100000 0 0  150000 0 0  200000 0 0  250000 0 0  300000 0 0  350000 0 0  400000 0 0  450000 0 0  500000 0 0  550000 0 0  600000 0 0  650000 0 0  700000 0 0  750000 0 0  800000 0 0  850000 0 0  900000 0 0  950000 0 0  1000000 0 0  0 50000 0  50000 50000 0  100000 50000 0  150000 50000 0  200000 50000 0  250000 50000 0  300000 50000 0  350000 50000 0  400000 50000 0  450000 50000 0  500000 50000 0  550000 50000 0  600000 50000 0  650000 50000 0  700000 50000 0  750000 50000 0  800000 50000 0  850000 50000 0  900000 50000 0  950000 50000 0  1000000 50000 0  0 100000 0  50000 100000 0  100000 100000 0  150000 100000 0  200000 100000 0  250000 100000 0  300000 100000 0  350000 100000 0  400000 100000 0  450000 100000 0  500000 100000 0  550000 100000 0  600000 100000 0  650000 100000 0  700000 100000 0  750000 100000 0  800000 100000 0  850000 100000 0  900000 100000 0  950000 100000 0  1000000 100000 0  0 150000 0  50000 150000 0  100000 150000 0  150000 150000 0  200000 150000 0  250000 150000 0  300000 150000 0  350000 150000 0  400000 150000 0  450000 150000 0  500000 150000 0  550000 150000 0  600000 150000 0  650000 150000 0  700000 150000 0  750000 150000 0  800000 150000 0  850000 150000 0  900000 150000 0  950000 150000 0  1000000 150000 0  0 200000 0  50000 200000 0  100000 200000 0  150000 200000 0  200000 200000 0  250000 200000 0  300000 200000 0  350000 200000 0  400000 200000 0  450000 200000 0  500000 200000 0  550000 200000 0  600000 200000 0  650000 200000 0  700000 200000 0  750000 200000 0  800000 200000 0  850000 200000 0  900000 200000 0  950000 200000 0  1000000 200000 0  0 250000 0  50000 250000 0  100000 250000 0  150000 250000 0  200000 250000 0  250000 250000 0  300000 250000 0  350000 250000 0  400000 250000 0  450000 250000 0  500000 250000 0  550000 250000 0  600000 250000 0  650000 250000 0  700000 250000 0  750000 250000 0  800000 250000 0  850000 250000 0  900000 250000 0  950000 250000 0  1000000 250000 0  0 300000 0  50000 300000 0  100000 300000 0  150000 300000 0  200000 300000 0  250000 300000 0  300000 300000 0  350000 300000 0  400000 300000 0  450000 300000 0  500000 300000 0  550000 300000 0  600000 300000 0  650000 300000 0  700000 300000 0  750000 300000 0  800000 300000 0  850000 300000 0  900000 300000 0  950000 300000 0  1000000 300000 0  0 350000 0  50000 350000 0  100000 350000 0  150000 350000 0  200000 350000 0  250000 350000 0  300000 350000 0  350000 350000 0  400000 350000 0  450000 350000 0  500000 350000 0  550000 350000 0  600000 350000 0  650000 350000 0  700000 350000 0  750000 350000 0  800000 350000 0  850000 350000 0  900000 350000 0  950000 350000 0  1000000 350000 0  0 400000 0  50000 400000 0  100000 400000 0  150000 400000 0  200000 400000 0  250000 400000 0  300000 400000 0  350000 400000 0  400000 400000 0  450000 400000 0  500000 400000 0  550000 400000 0  600000 400000 0  650000 400000 0  700000 400000 0  750000 400000 0  800000 400000 0  850000 400000 0  900000 400000 0  950000 400000 0  1000000 400000 0  0 450000 0  50000 450000 0  100000 450000 0  150000 450000 0  200000 450000 0  250000 450000 0  300000 450000 0  350000 450000 0  400000 450000 0  450000 450000 0  500000 450000 0  550000 450000 0  600000 450000 0  650000 450000 0  700000 450000 0  750000 450000 0  800000 450000 0  850000 450000 0  900000 450000 0  950000 450000 0  1000000 450000 0  0 500000 0  50000 500000 0  100000 500000 0  150000 500000 0  200000 500000 0  250000 500000 0  300000 500000 0  350000 500000 0  400000 500000 0  450000 500000 0  500000 500000 0  550000 500000 0  600000 500000 0  650000 500000 0  700000 500000 0  750000 500000 0  800000 500000 0  850000 500000 0  900000 500000 0  950000 500000 0  1000000 500000 0  0 550000 0  50000 550000 0  100000 550000 0  150000 550000 0  200000 550000 0  250000 550000 0  300000 550000 0  350000 550000 0  400000 550000 0  450000 550000 0  500000 550000 0  550000 550000 0  600000 550000 0  650000 550000 0  700000 550000 0  750000 550000 0  800000 550000 0  850000 550000 0  900000 550000 0  950000 550000 0  1000000 550000 0  0 600000 0  50000 600000 0  100000 600000 0  150000 600000 0  200000 600000 0  250000 600000 0  300000 600000 0  350000 600000 0  400000 600000 0  450000 600000 0  500000 600000 0  550000 600000 0  600000 600000 0  650000 600000 0  700000 600000 0  750000 600000 0  800000 600000 0  850000 600000 0  900000 600000 0  950000 600000 0  1000000 600000 0  0 650000 0  50000 650000 0  100000 650000 0  150000 650000 0  200000 650000 0  250000 650000 0  300000 650000 0  350000 650000 0  400000 650000 0  450000 650000 0  500000 650000 0  550000 650000 0  600000 650000 0  650000 650000 0  700000 650000 0  750000 650000 0  800000 650000 0  850000 650000 0  900000 650000 0  950000 650000 0  1000000 650000 0  0 700000 0  50000 700000 0  100000 700000 0  150000 700000 0  200000 700000 0  250000 700000 0  300000 700000 0  350000 700000 0  400000 700000 0  450000 700000 0  500000 700000 0  550000 700000 0  600000 700000 0  650000 700000 0  700000 700000 0  750000 700000 0  800000 700000 0  850000 700000 0  900000 700000 0  950000 700000 0  1000000 700000 0  0 750000 0  50000 750000 0  100000 750000 0  150000 750000 0  200000 750000 0  250000 750000 0  300000 750000 0  350000 750000 0  400000 750000 0  450000 750000 0  500000 750000 0  550000 750000 0  600000 750000 0  650000 750000 0  700000 750000 0  750000 750000 0  800000 750000 0  850000 750000 0  900000 750000 0  950000 750000 0  1000000 750000 0  0 800000 0  50000 800000 0  100000 800000 0  150000 800000 0  200000 800000 0  250000 800000 0  300000 800000 0  350000 800000 0  400000 800000 0  450000 800000 0  500000 800000 0  550000 800000 0  600000 800000 0  650000 800000 0  700000 800000 0  750000 800000 0  800000 800000 0  850000 800000 0  900000 800000 0  950000 800000 0  1000000 800000 0  0 850000 0  50000 850000 0  100000 850000 0  150000 850000 0  200000 850000 0  250000 850000 0  300000 850000 0  350000 850000 0  400000 850000 0  450000 850000 0  500000 850000 0  550000 850000 0  600000 850000 0  650000 850000 0  700000 850000 0  750000 850000 0  800000 850000 0  850000 850000 0  900000 850000 0  950000 850000 0  1000000 850000 0  0 900000 0  50000 900000 0  100000 900000 0  150000 900000 0  200000 900000 0  250000 900000 0  300000 900000 0  350000 900000 0  400000 900000 0  450000 900000 0  500000 900000 0  550000 900000 0  600000 900000 0  650000 900000 0  700000 900000 0  750000 900000 0  800000 900000 0  850000 900000 0  900000 900000 0  950000 900000 0  1000000 900000 0  0 950000 0  50000 950000 0  100000 950000 0  150000 950000 0  200000 950000 0  250000 950000 0  300000 950000 0  350000 950000 0  400000 950000 0  450000 950000 0  500000 950000 0  550000 950000 0  600000 950000 0  650000 950000 0  700000 950000 0  750000 950000 0  800000 950000 0  850000 950000 0  900000 950000 0  950000 950000 0  1000000 950000 0  0 1000000 0  50000 1000000 0  100000 1000000 0  150000 1000000 0  200000 1000000 0  250000 1000000 0  300000 1000000 0  350000 1000000 0  400000 1000000 0  450000 1000000 0  500000 1000000 0  550000 1000000 0  600000 1000000 0  650000 1000000 0  700000 1000000 0  750000 1000000 0  800000 1000000 0  850000 1000000 0  900000 1000000 0  950000 1000000 0  1000000 1000000 0  0 1050000 0  50000 1050000 0  100000 1050000 0  150000 1050000 0  200000 1050000 0  250000 1050000 0  300000 1050000 0  350000 1050000 0  400000 1050000 0  450000 1050000 0  500000 1050000 0  550000 1050000 0  600000 1050000 0  650000 1050000 0  700000 1050000 0  750000 1050000 0  800000 1050000 0  850000 1050000 0  900000 1050000 0  950000 1050000 0  1000000 1050000 0  0 1100000 0  50000 1100000 0  100000 1100000 0  150000 1100000 0  200000 1100000 0  250000 1100000 0  300000 1100000 0  350000 1100000 0  400000 1100000 0  450000 1100000 0  500000 1100000 0  550000 1100000 0  600000 1100000 0  650000 1100000 0  700000 1100000 0  750000 1100000 0  800000 1100000 0  850000 1100000 0  900000 1100000 0  950000 1100000 0  1000000 1100000 0  0 1150000 0  50000 1150000 0  100000 1150000 0  150000 1150000 0  200000 1150000 0  250000 1150000 0  300000 1150000 0  350000 1150000 0  400000 1150000 0  450000 1150000 0  500000 1150000 0  550000 1150000 0  600000 1150000 0  650000 1150000 0  700000 1150000 0  750000 1150000 0  800000 1150000 0  850000 1150000 0  900000 1150000 0  950000 1150000 0  1000000 1150000 0  0 1200000 0  50000 1200000 0  100000 1200000 0  150000 1200000 0  200000 1200000 0  250000 1200000 0  300000 1200000 0  350000 1200000 0  400000 1200000 0  450000 1200000 0  500000 1200000 0  550000 1200000 0  600000 1200000 0  650000 1200000 0  700000 1200000 0  750000 1200000 0  800000 1200000 0  850000 1200000 0  900000 1200000 0  950000 1200000 0  1000000 1200000 0  0 1250000 0  50000 1250000 0  100000 1250000 0  150000 1250000 0  200000 1250000 0  250000 1250000 0  300000 1250000 0  350000 1250000 0  400000 1250000 0  450000 1250000 0  500000 1250000 0  550000 1250000 0  600000 1250000 0  650000 1250000 0  700000 1250000 0  750000 1250000 0  800000 1250000 0  850000 1250000 0  900000 1250000 0  950000 1250000 0  1000000 1250000 0  0 1300000 0  50000 1300000 0  100000 1300000 0  150000 1300000 0  200000 1300000 0  250000 1300000 0  300000 1300000 0  350000 1300000 0  400000 1300000 0  450000 1300000 0  500000 1300000 0  550000 1300000 0  600000 1300000 0  650000 1300000 0  700000 1300000 0  750000 1300000 0  800000 1300000 0  850000 1300000 0  900000 1300000 0  950000 1300000 0  1000000 1300000 0  0 1350000 0  50000 1350000 0  100000 1350000 0  150000 1350000 0  200000 1350000 0  250000 1350000 0  300000 1350000 0  350000 1350000 0  400000 1350000 0  450000 1350000 0  500000 1350000 0  550000 1350000 0  600000 1350000 0  650000 1350000 0  700000 135
[...]
<PointData  Vectors="f_19"> 
<DataArray  type="Float64"  Name="f_19"  NumberOfComponents="3" format="ascii">-2.4587121918121143e-08 -9.8747390054426386e-09 0.0000000000000000e+00  4.8488905518270527e-08 -5.9693076353507240e-09 0.0000000000000000e+00  4.2788983298089395e-08 -1.6925217155060368e-09 0.0000000000000000e+00  4.0363023502276038e-08 -3.5041462727748735e-10 0.0000000000000000e+00  3.9187134104265661e-08 1.0074023065408023e-10 0.0000000000000000e+00  3.8428489718719637e-08 2.7756457134060051e-10 0.0000000000000000e+00  3.7889986200245669e-08 3.4650248259654530e-10 0.0000000000000000e+00  3.7514253723760291e-08 3.6441181126136248e-10 0.0000000000000000e+00  3.7282746231225955e-08 3.5560519507413200e-10 0.0000000000000000e+00  3.7190112375861818e-08 3.3333839936275320e-10 0.0000000000000000e+00  3.7236546978318030e-08 3.0717010074933668e-10 0.0000000000000000e+00  3.7426137202294378e-08 2.8627883423737292e-10 0.0000000000000000e+00  3.7768571693154852e-08 2.8193677514863739e-10 0.0000000000000000e+00  3.8285291762189017e-08 3.1095875286223677e-10 0.0000000000000000e+00  3.9025631947160315e-08 4.0288009524081013e-10 0.0000000000000000e+00  4.0109345946337144e-08 6.1791738289250841e-10 0.0000000000000000e+00  4.1838882771895120e-08 1.0954851229916470e-09 0.0000000000000000e+00  4.4962626290208096e-08 2.1807708063827936e-09 0.0000000000000000e+00  5.0811810904273459e-08 4.6915846769234450e-09 0.0000000000000000e+00  5.8057951752269565e-08 9.1957091086352925e-09 0.0000000000000000e+00  -1.6396048860912269e-08 7.0892737223706358e-09 0.0000000000000000e+00  -1.8363910291766076e-08 -1.5434594736473448e-08 0.0000000000000000e+00  7.1269644329824746e-09 -1.1130588634453750e-08 0.0000000000000000e+00  1.7957078113017030e-08 -5.1988351845950030e-09 0.0000000000000000e+00  2.3040545773183293e-08 -2.3571717950742311e-09 0.0000000000000000e+00  2.5667462655236417e-08 -1.1084644504594394e-09 0.0000000000000000e+00  2.7165720101499290e-08 -5.2115822870164000e-10 0.0000000000000000e+00  2.8048019065396479e-08 -2.2814455653195442e-10 0.0000000000000000e+00  2.8574186285538408e-08 -7.9488878655874817e-11 0.0000000000000000e+00  2.8887117408507692e-08 -6.1517168085142493e-12 0.0000000000000000e+00  2.9066293668774133e-08 2.9262469550997867e-11 0.0000000000000000e+00  2.9152985449260295e-08 5.1322362645149312e-11 0.0000000000000000e+00  2.9161828053169563e-08 8.0443515195445656e-11 0.0000000000000000e+00  2.9084886659620368e-08 1.3863963693530229e-10 0.0000000000000000e+00  2.8890185080280130e-08 2.5613647590766210e-10 0.0000000000000000e+00  2.8513669859749427e-08 4.8319400128789157e-10 0.0000000000000000e+00  2.7838556411568633e-08 9.1607921031083721e-10 0.0000000000000000e+00  2.6640030997359291e-08 1.7580340961223095e-09 0.0000000000000000e+00  2.4407941725380024e-08 3.4551108961260551e-09 0.0000000000000000e+00  1.9700309095772676e-08 6.8977425711736546e-09 0.0000000000000000e+00  8.2726728914458629e-09 1.3050045989091325e-08 0.0000000000000000e+00  -1.8365234957244673e-08 1.1019329661882120e-08 0.0000000000000000e+00  -1.1407464372119128e-08 -1.9050890606780639e-08 0.0000000000000000e+00  -3.3520315605481232e-10 -1.8293879403664982e-08 0.0000000000000000e+00  5.7144585085647874e-09 -1.1352571967641065e-08 0.0000000000000000e+00  1.0570069527530255e-08 -6.6148997075657887e-09 0.0000000000000000e+00  1.4388590297855945e-08 -3.8637180836273058e-09 0.0000000000000000e+00  1.7053692069326791e-08 -2.2952734267371657e-09 0.0000000000000000e+00  1.8845149574064092e-08 -1.3748281831118459e-09 0.0000000000000000e+00  2.0025143071596844e-08 -8.1309271344318108e-10 0.0000000000000000e+00  2.0771634097007975e-08 -4.5154299527302986e-10 0.0000000000000000e+00  2.1194356536686324e-08 -1.9597561951312191e-10 0.0000000000000000e+00  2.1352901821095062e-08 1.7737776765337770e-11 0.0000000000000000e+00  2.1267634309383490e-08 2.4243277981886134e-10 0.0000000000000000e+00  2.0923640380189445e-08 5.3276206749478068e-10 0.0000000000000000e+00  2.0268318513536044e-08 9.5884063404176751e-10 0.0000000000000000e+00  1.9202001760809922e-08 1.6263582624025007e-09 0.0000000000000000e+00  1.7559703153161494e-08 2.7108686790982206e-09 0.0000000000000000e+00  1.5082644300456618e-08 4.5126735844813049e-09 0.0000000000000000e+00  1.1389831329257736e-08 7.5054530061406089e-09 0.0000000000000000e+00  6.0168390449307595e-09 1.2155866567089379e-08 0.0000000000000000e+00  -1.2972856634024495e-09 1.7607542957339587e-08 0.0000000000000000e+00  -1.3207553124168181e-08 1.4762200465924082e-08 0.0000000000000000e+00  -7.7278876753442130e-09 -1.9687907633219918e-08 0.0000000000000000e+00  -1.5971219474922425e-09 -1.9669316695842106e-08 0.0000000000000000e+00  1.0588558053075967e-09 -1.5283117128908177e-08 0.0000000000000000e+00  3.7945733984107552e-09 -1.0487065580424117e-08 0.0000000000000000e+00  6.6716428952570105e-09 -6.9396993528641746e-09 0.0000000000000000e+00  9.1900754493319987e-09 -4.5391808859753387e-09 0.0000000000000000e+00  1.1142127063258517e-08 -2.9391728357546048e-09 0.0000000000000000e+00  1.2546113910660813e-08 -1.8527047367783264e-09 0.0000000000000000e+00  1.3483189552813629e-08 -1.0810159842924932e-09 0.0000000000000000e+00  1.4026404133830306e-08 -4.8691898614361518e-10 0.0000000000000000e+00  1.4222245783482423e-08 3.1795985687307588e-11 0.0000000000000000e+00  1.4087615904575945e-08 5.6228844652998472e-10 0.0000000000000000e+00  1.3609857665916724e-08 1.1925855640643075e-09 0.0000000000000000e+00  1.2746897180597316e-08 2.0270585856042580e-09 0.0000000000000000e+00  1.1428699416935181e-08 3.2040118837684720e-09 0.0000000000000000e+00  9.5662365153802311e-09 4.9137603059431718e-09 0.0000000000000000e+00  7.0848284106571015e-09 7.3993614018681163e-09 0.0000000000000000e+00  4.0160016698987477e-09 1.0869455511551179e-08 0.0000000000000000e+00  6.5431967345272937e-10 1.5131624997833163e-08 0.0000000000000000e+00  -2.6391224660142711e-09 1.8764824945860321e-08 0.0000000000000000e+00  -8.9199855938829698e-09 1.7596585609323727e-08 0.0000000000000000e+00  -5.8764454336863403e-09 -1.9109316700980096e-08 0.0000000000000000e+00  -1.9223193426782673e-09 -1.9375730744464921e-08 0.0000000000000000e+00  -9.5386181796249088e-10 -1.6650160824497786e-08 0.0000000000000000e+00  1.5263711734424410e-10 -1.2834458322897648e-08 0.0000000000000000e+00  1.7657230441127216e-09 -9.3317217674026660e-09 0.0000000000000000e+00  3.5261326835305463e-09 -6.5689575180399998e-09 0.0000000000000000e+00  5.1081102103568254e-09 -4.5017582607347226e-09 0.0000000000000000e+00  6.3630954273428367e-09 -2.9625333622621903e-09 0.0000000000000000e+00  7.2542846910577315e-09 -1.7833004927959265e-09 0.0000000000000000e+00  7.7890919593459860e-09 -8.2196697336795825e-10 0.0000000000000000e+00  7.9823445664663600e-09 4.1078048739987316e-11 0.0000000000000000e+00  7.8410123438336683e-09 9.1350693978889958e-10 0.0000000000000000e+00  7.3598878250090647e-09 1.9023418644265556e-09 0.0000000000000000e+00  6.5240999374720665e-09 3.1241866744186958e-09 0.0000000000000000e+00  5.3196876005031826e-09 4.7118147776141326e-09 0.0000000000000000e+00  3.7582747477097962e-09 6.8085201427086072e-09 0.0000000000000000e+00  1.9252118973020863e-09 9.5268398570276828e-09 0.0000000000000000e+00  4.8235729238676028e-11 1.2823774880555908e-08 0.0000000000000000e+00  -1.5066717863651534e-09 1.6246104302028525e-08 0.0000000000000000e+00  -2.7546394606727195e-09 1.8700730572754924e-08 0.0000000000000000e+00  -6.6520216992044616e-09 1.8573441992644487e-08 0.0000000000000000e+00  -4.8304075432760731e-09 -1.7990525623246925e-08 0.0000000000000000e+00  -2.0895778436418000e-09 -1.8436613194710826e-08 0.0000000000000000e+00  -2.0080927315480849e-09 -1.6638600894201240e-08 0.0000000000000000e+00  -1.9408936481493251e-09 -1.3770089426289854e-08 0.0000000000000000e+00  -1.3653019675463951e-09 -1.0718537027462558e-08 0.0000000000000000e+00  -4.4115940407583333e-10 -7.9910319680593410e-09 0.0000000000000000e+00  5.6521637334360383e-10 -5.7322198695468067e-09 0.0000000000000000e+00  1.4624722368703467e-09 -3.9065236475061971e-09 0.0000000000000000e+00  2.1485032895161562e-09 -2.4128268665226917e-09 0.0000000000000000e+00  2.5787807319185373e-09 -1.1357425526864885e-09 0.0000000000000000e+00  2.7374446723019695e-09 3.7860992748572194e-11 0.0000000000000000e+00  2.6206881730968417e-09 1.2168475618885756e-09 0.0000000000000000e+00  2.2308834004829203e-09 2.5083842316465543e-09 0.0000000000000000e+00  1.5795619567969808e-09 4.0196146565780250e-09 0.0000000000000000e+00  6.9941804063636091e-10 5.8529295445850419e-09 0.0000000000000000e+00  -3.3346567273588497e-10 8.0857638641660143e-09 0.0000000000000000e+00  -1.3702568842753441e-09 1.0720371138974423e-08 0.0000000000000000e+00  -2.1774141443108117e-09 1.3590481553350259e-08 0.0000000000000000e+00  -2.5351100995653286e-09 1.6249548810629021e-08 0.0000000000000000e+00  -2.7343623285936241e-09 1.7987460992951748e-08 0.0000000000000000e+00  -5.3361252493729805e-09 1.8320367066041533e-08 0.0000000000000000e+00  -4.1668066276671895e-09 -1.6573404429041513e-08 0.0000000000000000e+00  -2.2186919546665321e-09 -1.7145456315377219e-08 0.0000000000000000e+00  -2.6636955943759494e-09 -1.5898121688962607e-08 0.0000000000000000e+00  -3.2508533989962486e-09 -1.3736278090057455e-08 0.0000000000000000e+00  -3.4273351701446165e-09 -1.1207436595849539e-08 0.0000000000000000e+00  -3.2156580265457560e-09 -8.7236347230307533e-09 0.0000000000000000e+00  -2.7882438453690416e-09 -6.4884791532042442e-09 0.0000000000000000e+00  -2.3112050298623910e-09 -4.5503715228134861e-09 0.0000000000000000e+00  -1.9007593741908095e-09 -2.8721243383689559e-09 0.0000000000000000e+00  -1.6254386805782386e-09 -1.3775773056073973e-09 0.0000000000000000e+00  -1.5196214213408243e-09 2.4086403037566697e-11 0.0000000000000000e+00  -1.5945441168089621e-09 1.4273105749945750e-09 0.0000000000000000e+00  -1.8429671435456931e-09 2.9246560275392779e-09 0.0000000000000000e+00  -2.2371310179545049e-09 4.6009483633266483e-09 0.0000000000000000e+00  -2.7206391293183385e-09 6.5216488012038772e-09 0.0000000000000000e+00  -3.1966943771866708e-09 8.7094880149734982e-09 0.0000000000000000e+00  -3.5210812483879644e-09 1.1104652270336748e-08 0.0000000000000000e+00  -3.5239180413735834e-09 1.3513521697567759e-08 0.0000000000000000e+00  -3.1225243586873728e-09 1.5579682632873682e-08 0.0000000000000000e+00  -2.7193344400675640e-09 1.6857149293534352e-08 0.0000000000000000e+00  -4.4970017931271005e-09 1.7410164418174612e-08 0.0000000000000000e+00  -3.7097567481639085e-09 -1.4958042211816484e-08 0.0000000000000000e+00  -2.3260872811222947e-09 -1.5622292398802381e-08 0.0000000000000000e+00  -3.1187811297597174e-09 -1.4725585792385863e-08 0.0000000000000000e+00  -4.1312883001591462e-09 -1.3073451261482656e-08 0.0000000000000000e+00  -4.8336590521198540e-09 -1.1013902801985345e-08 0.0000000000000000e+00  -5.1721998645440809e-09 -8.8475835062448203e-09 0.0000000000000000e+00  -5.2405015394839945e-09 -6.7669384904704291e-09 0.0000000000000000e+00  -5.1589924235042140e-09 -4.8558558017080255e-09 0.0000000000000000e+00  -5.0289108979073286e-09 -3.1206805770405692e-09 0.0000000000000000e+00  -4.9200797684242687e-09 -1.5217129360041493e-09 0.0000000000000000e+00  -4.8723533750839872e-09 4.1748878986046556e-12 0.0000000000000000e+00  -4.8999535158684096e-09 1.5289886857543481e-09 0.0000000000000000e+00  -4.9939287932784490e-09 3.1232784805556729e-09 0.0000000000000000e+00  -5.1214109137344931e-09 4.8459207621191236e-09 0.0000000000000000e+00  -5.2225207372544182e-09 6.7303123600150794e-09 0.0000000000000000e+00  -5.2082852377344676e-09 8.7643532951355692e-09 0.0000000000000000e+00  -4.9673512956216811e-09 1.0864994325905388e-08 0.0000000000000000e+00  -4.3979507700382137e-09 1.2856432218754883e-08 0.0000000000000000e+00  -3.5048114011166964e-09 1.4475634674479226e-08 0.0000000000000000e+00  -2.7174793242915717e-09 1.5441226754220796e-08 0.0000000000000000e+00  -3.9256717252639458e-09 1.6118044801595483e-08 0.0000000000000000e+00  -3.3781727525160950e-09 -1.3198405073191689e-08 0.0000000000000000e+00  -2.4145156892215350e-09 -1.3932018970187625e-08 0.0000000000000000e+00  -3.4525814138809742e-09 -1.3272771398854667e-08 0.0000000000000000e+00  -4.7518402332749288e-09 -1.1995773544329902e-08 0.0000000000000000e+00  -5.8192626826021170e-09 -1.0330773687662918e-08 0.0000000000000000e+00  -6.5636644265195591e-09 -8.4900926269844944e-09 0.0000000000000000e+00  -7.0233001407024651e-09 -6.6319773703557432e-09 0.0000000000000000e+00  -7.2745980662360829e-09 -4.8456147164848159e-09 0.0000000000000000e+00  -7.3931948576575721e-09 -3.1603876288378064e-09 0.0000000000000000e+00  -7.4376203464721052e-09 -1.5636221860733224e-09 0.0000000000000000e+00  -7.4442221629583253e-09 -1.7718945524881564e-11 0.0000000000000000e+00  -7.4267256200961498e-09 1.5258356352882533e-09 0.0000000000000000e+00  -7.3767908411654116e-09 3.1147213564207246e-09 0.0000000000000000e+00  -7.2642823047802300e-09 4.7843409440211174e-09 0.0000000000000000e+00  -7.0379349152379513e-09 6.5449184064600304e-09 0.0000000000000000e+00  -6.6291050630909775e-09 8.3667205868920510e-09 0.0000000000000000e+00  -5.9638453739471070e-09 1.0165963930361957e-08 0.0000000000000000e+00  -4.9933511381812392e-09 1.1798860703537639e-08 0.0000000000000000e+00  -3.7712934297474807e-09 1.3077401733678744e-08 0.0000000000000000e+00  -2.7217679333295251e-09 1.3822025588374876e-08 0.0000000000000000e+00  -3.5197538578411854e-09 1.4578699234207427e-08 0.0000000000000000e+00  -3.1304643162264473e-09 -1.1330713889175404e-08 0.0000000000000000e+00  -2.4857165356842107e-09 -1.2117280360430514e-08 0.0000000000000000e+00  -3.7026806644041883e-09 -1.1628417792821645e-08 0.0000000000000000e+00  -5.2002311305403572e-09 -1.0637865945606185e-08 0.0000000000000000e+00  -6.5209785629730126e-09 -9.3029243836778369e-09 0.0000000000000000e+00  -7.5571594109646800e-09 -7.7722053968562779e-09 0.0000000000000000e+00  -8.3110347146190411e-09 -6.1678583199653314e-09 0.0000000000000000e+00  -8.8238022306214305e-09 -4.5700799382152930e-09 0.0000000000000000e+00  -9.1451410297945515e-09 -3.0167875337285181e-09 0.0000000000000000e+00  -9.3178158191611396e-09 -1.5122507709730218e-09 0.0000000000000000e+00  -9.3703042374582701e-09 -3.8652507757340910e-11 0.0000000000000000e+00  -9.3138935010913116e-09 1.4323769693568939e-09 0.0000000000000000e+00  -9.1420777624984716e-09 2.9289112225561519e-09 0.0000000000000000e+00  -8.8313809353789967e-09 4.4681744278377643e-09 0.0000000000000000e+00  -8.3440110501679817e-09 6.0459325121085213e-09 0.0000000000000000e+00  -7.6339722867255744e-09 7.6264764369288990e-09 0.0000000000000000e+00  -6.6595953563138454e-09 9.1357264010736543e-09 0.0000000000000000e+00  -5.4088419437748074e-09 1.0462291293138887e-08 0.0000000000000000e+00  -3.9613967393796997e-09 1.1473781892168215e-08 0.0000000000000000e+00  -2.7264330281005523e-09 1.2054969612112036e-08 0.0000000000000000e+00  -3.2237560363113611e-09 1.2867404436974722e-08 0.0000000000000000e+00  -2.9433914570131976e-09 -9.3823909945727321e-09 0.0000000000000000e+00  -2.5418896875164368e-09 -1.0209569025157587e-08 0.0000000000000000e+00  -3.8905136194482813e-09 -9.8500233166387145e-09 0.0000000000000000e+00  -5.5266371171812946e-09 -9.0879170780336283e-09 0.0000000000000000e+00  -7.0226384836865797e-09 -8.0343555130141585e-09 0.0000000000000000e+00  -8.2645480451868848e-09 -6.7930477111748423e-09 0.0000000000000000e+00  -9.2320479400177225e-09 -5.4549242844844208e-09 0.0000000000000000e+00  -9.9404781932453989e-09 -4.0861193767816202e-09 0.0000000000000000e+00  -1.0417531182754731e-08 -2.7244357532399300e-09 0.0000000000000000e+00  -1.0690505402304488e-08 -1.3828849341060391e-09 0.0000000000000000e+00  -1.0778985806704564e-08 -5.6940877730965001e-11 0.0000000000000000e+00  -1.0691158265201124e-08 1.2668384208151736e-09 0.0000000000000000e+00  -1.0422704226562105e-08 2.6019569077237169e-09 0.0000000000000000e+00  -9.9578047879506068e-09 3.9533339816873831e-09 0.0000000000000000e+00  -9.2724268969696477e-09 5.3092733953680012e-09 0.0000000000000000e+00  -8.3406622729983283e-09 6.6350248845050725e-09 0.0000000000000000e+00  -7.1456403933759677e-09 7.8698686517413201e-09 0.0000000000000000e+00  -5.6996626549652928e-09 8.9305190130183186e-09 0.0000000000000000e+00  -4.0959990100094789e-09 9.7248773941387057e-09 0.0000000000000000e+00  -2.7283617131191697e-09 1.0179733738604129e-08 0.0000000000000000e+00  -3.0051970500996982e-09 1.1032192478940595e-08 0.0000000000000000e+00  -2.8031681533167765e-09 -7.3752831954986411e-09 0.0000000000000000e+00  -2.5856046825662083e-09 -8.2334781119677072e-09 0.0000000000000000e+00  -4.0303476298980664e-09 -7.9775789543390083e-09 0.0000000000000000e+00  -5.7628097589184229e-09 -7.4061073655079389e-09 0.0000000000000000e+00  -7.3786407406781070e-09 -6.5993175333311596e-09 0.0000000000000000e+00  -8.7624928933338185e-09 -5.6290577211241097e-09 0.0000000000000000e+00  -9.8801867197272350e-09 -4.5609445764925014e-09 0.0000000000000000e+00  -1.0729059829402307e-08 -3.4462683130233733e-09 0.0000000000000000e+00  -1.1319919650108195e-08 -2.3180898670864952e-09 0.0000000000000000e+00  -1.1667084018507691e-08 -1.1922813014408187e-09 0.0000000000000000e+00  -1.1782092197690408e-08 -7.1841727772689032e-11 0.0000000000000000e+00  -1.1670157316432496e-08 1.0470961512577424e-09 0.0000000000000000e+00  -1.1328973514931530e-08 2.1686560766158574e-09 0.0000000000000000e+00  -1.0749686384989165e-08 3.2907237047217032e-09 0.0000000000000000e+00  -9.9200521080191990e-09 4.3992400729567012e-09 0.0000000000000000e+00  -8.8300327429241961e-09 5.4642137564928976e-09 0.0000000000000000e+00  -7.4806157345572047e-09 6.4387641786223623e-09 0.0000000000000000e+00  -5.8998724257341651e-09 7.2627216763386252e-09 0.0000000000000000e+00  -4.1882174924863891e-09 7.8733138620148567e-09 0.0000000000000000e+00  -2.7264124788828833e-09 8.2259505217406055e-09 0.0000000000000000e+00  -2.8441135130454244e-09 9.1068010115185656e-09 0.0000000000000000e+00  -2.7013214544313513e-09 -5.3271309106113432e-09 0.0000000000000000e+00  -2.6195128592642416e-09 -6.2086523692169529e-09 0.0000000000000000e+00  -4.1326108343637608e-09 -6.0402314661365906e-09 0.0000000000000000e+00  -5.9303925788232882e-09 -5.6349323153725607e-09 0.0000000000000000e+00  -7.6258806586456958e-09 -5.0512458774629942e-09 0.0000000000000000e+00  -9.1044218050946720e-09 -4.3377936274534215e-09 0.0000000000000000e+00  -1.0323546062357728e-08 -3.5398886518914008e-09 0.0000000000000000e+00  -1.1268622252748795e-08 -2.6948013896767407e-09 0.0000000000000000e+00  -1.1938409678292993e-08 -1.8285788492380372e-09 0.0000000000000000e+00  -1.2337396343456844e-08 -9.5603485026932727e-10 0.0000000000000000e+00  -1.2470727900022947e-08 -8.3186093896712574e-11 0.0000000000000000e+00  -1.2341156464339640e-08 7.8883704506476866e-10 0.0000000000000000e+00  -1.1947958986582509e-08 1.6592447789763255e-09 0.0000000000000000e+00  -1.1287792096834485e-08 2.5230893485474725e-09 0.0000000000000000e+00  -1.0357433585594470e-08 3.3674581833011558e-09 0.0000000000000000e+00  -9.1583960653788970e-09 4.1690887228823867e-09 0.0000000000000000e+00  -7.7039001541574010e-09 4.8942355822925915e-09 0.0000000000000000e+00  -6.0320781626232153e-09 5.5016092824241571e-09 0.0000000000000000e+00  -4.2472623364169482e-09 5.9503179531063121e-09 0.0000000000000000e+00  -2.7205987003123979e-09 6.2163147201062480e-09 0.0000000000000000e+00  -2.7279213331638403e-09 7.1163196491557025e-09 0.0000000000000000e+00  -2.6326004318162184e-09 -3.2525255364104978e-09 0.0000000000000000e+00  -2.6460749631282287e-09 -4.1509730153823589e-09 0.0000000000000000e+00  -4.2051263022697902e-09 -4.0599795190769088e-09 0.0000000000000000e+00  -6.0445677972440493e-09 -3.8053823635349862e-09 0.0000000000000000e+00  -7.7897143077819685e-09 -3.4292676036950159e-09 0.0000000000000000e+00  -9.3273638826184504e-09 -2.9625081313146978e-09 0.0000000000000000e+00  -1.0610381090887177e-08 -2.4337764389862204e-