<?xml version="1.0"?>
<VTKFile type="UnstructuredGrid"  version="0.1"  >
<UnstructuredGrid>
<Piece  NumberOfPoints="651" NumberOfCells="1200">
<Points>
<DataArray  type="Float64"  NumberOfComponents="3"  format="ascii">0 0 0  50000 0 0  100000 0 0  150000 0 0  200000 0 0  250000 0 0  300000 0 0  350000 0 0  400000 0 0  450000 0 0  500000 0 0  550000 0 0  600000 0 0  650000 0 0  700000 0 0  750000 0 0  800000 0 0  850000 0 0  900000 0 0  950000 0 0  1000000 0 0  0 50000 0  50000 50000 0  100000 50000 0  150000 50000 0  200000 50000 0  250000 50000 0  300000 50000 0  350000 50000 0  400000 50000 0  450000 50000 0  500000 50000 0  550000 50000 0  600000 50000 0  650000 50000 0  700000 50000 0  750000 50000 0  800000 50000 0  850000 50000 0  900000 50000 0  950000 50000 0  1000000 50000 0  0 100000 0  50000 100000 0  100000 100000 0  150000 100000 0  200000 100000 0  250000 100000 0  300000 100000 0  350000 100000 0  400000 100000 0  450000 100000 0  500000 100000 0  550000 100000 0  600000 100000 0  650000 100000 0  700000 100000 0  750000 100000 0  800000 100000 0  850000 100000 0  900000 100000 0  950000 100000 0  1000000 100000 0  0 150000 0  50000 150000 0  100000 150000 0  150000 150000 0  200000 150000 0  250000 150000 0  300000 150000 0  350000 150000 0  400000 150000 0  450000 150000 0  500000 150000 0  550000 150000 0  600000 150000 0  650000 150000 0  700000 150000 0  750000 150000 0  800000 150000 0  850000 150000 0  900000 150000 0  950000 150000 0  1000000 150000 0  0 200000 0  50000 200000 0  100000 200000 0  150000 200000 0  200000 200000 0  250000 200000 0  300000 200000 0  350000 200000 0  400000 200000 0  450000 200000 0  500000 200000 0  550000 200000 0  600000 200000 0  650000 200000 0  700000 200000 0  750000 200000 0  800000 200000 0  850000 200000 0  900000 200000 0  950000 200000 0  1000000 200000 0  0 250000 0  50000 250000 0  100000 250000 0  150000 250000 0  200000 250000 0  250000 250000 0  300000 250000 0  350000 250000 0  400000 250000 0  450000 250000 0  500000 250000 0  550000 250000 0  600000 250000 0  650000 250000 0  700000 250000 0  750000 250000 0  800000 250000 0  850000 250000 0  900000 250000 0  950000 250000 0  1000000 250000 0  0 300000 0  50000 300000 0  100000 300000 0  150000 300000 0  200000 300000 0  250000 300000 0  300000 300000 0  350000 300000 0  400000 300000 0  450000 300000 0  500000 300000 0  550000 300000 0  600000 300000 0  650000 300000 0  700000 300000 0  750000 300000 0  800000 300000 0  850000 300000 0  900000 300000 0  950000 300000 0  1000000 300000 0  0 350000 0  50000 350000 0  100000 350000 0  150000 350000 0  200000 350000 0  250000 350000 0  300000 350000 0  350000 350000 0  400000 350000 0  450000 350000 0  500000 350000 0  550000 350000 0  600000 350000 0  650000 350000 0  700000 350000 0  750000 350000 0  800000 350000 0  850000 350000 0  900000 350000 0  950000 350000 0  1000000 350000 0  0 400000 0  50000 400000 0  100000 400000 0  150000 400000 0  200000 400000 0  250000 400000 0  300000 400000 0  350000 400000 0  400000 400000 0  450000 400000 0  500000 400000 0  550000 400000 0  600000 400000 0  650000 400000 0  700000 400000 0  750000 400000 0  800000 400000 0  850000 400000 0  900000 400000 0  950000 400000 0  1000000 400000 0  0 450000 0  50000 450000 0  100000 450000 0  150000 450000 0  200000 450000 0  250000 450000 0  300000 450000 0  350000 450000 0  400000 450000 0  450000 450000 0  500000 450000 0  550000 450000 0  600000 450000 0  650000 450000 0  700000 450000 0  750000 450000 0  800000 450000 0  850000 450000 0  900000 450000 0  950000 450000 0  1000000 450000 0  0 500000 0  50000 500000 0  100000 500000 0  150000 500000 0  200000 500000 0  250000 500000 0  300000 500000 0  350000 500000 0  400000 500000 0  450000 500000 0  500000 500000 0  550000 500000 0  600000 500000 0  650000 500000 0  700000 500000 0  750000 500000 0  800000 500000 0  850000 500000 0  900000 500000 0  950000 500000 0  1000000 500000 0  0 550000 0  50000 550000 0  100000 550000 0  150000 550000 0  200000 550000 0  250000 550000 0  300000 550000 0  350000 550000 0  400000 550000 0  450000 550000 0  500000 550000 0  550000 550000 0  600000 550000 0  650000 550000 0  700000 550000 0  750000 550000 0  800000 550000 0  850000 550000 0  900000 550000 0  950000 550000 0  1000000 550000 0  0 600000 0  50000 600000 0  100000 600000 0  150000 600000 0  200000 600000 0  250000 600000 0  300000 600000 0  350000 600000 0  400000 600000 0  450000 600000 0  500000 600000 0  550000 600000 0  600000 600000 0  650000 600000 0  700000 600000 0  750000 600000 0  800000 600000 0  850000 600000 0  900000 600000 0  950000 600000 0  1000000 600000 0  0 650000 0  50000 650000 0  100000 650000 0  150000 650000 0  200000 650000 0  250000 650000 0  300000 650000 0  350000 650000 0  400000 650000 0  450000 650000 0  500000 650000 0  550000 650000 0  600000 650000 0  650000 650000 0  700000 650000 0  750000 650000 0  800000 650000 0  850000 650000 0  900000 650000 0  950000 650000 0  1000000 650000 0  0 700000 0  50000 700000 0  100000 700000 0  150000 700000 0  200000 700000 0  250000 700000 0  300000 700000 0  350000 700000 0  400000 700000 0  450000 700000 0  500000 700000 0  550000 700000 0  600000 700000 0  650000 700000 0  700000 700000 0  750000 700000 0  800000 700000 0  850000 700000 0  900000 700000 0  950000 700000 0  1000000 700000 0  0 750000 0  50000 750000 0  100000 750000 0  150000 750000 0  200000 750000 0  250000 750000 0  300000 750000 0  350000 750000 0  400000 750000 0  450000 750000 0  500000 750000 0  550000 750000 0  600000 750000 0  650000 750000 0  700000 750000 0  750000 750000 0  800000 750000 0  850000 750000 0  900000 750000 0  950000 750000 0  1000000 750000 0  0 800000 0  50000 800000 0  100000 800000 0  150000 800000 0  200000 800000 0  250000 800000 0  300000 800000 0  350000 800000 0  400000 800000 0  450000 800000 0  500000 800000 0  550000 800000 0  600000 800000 0  650000 800000 0  700000 800000 0  750000 800000 0  800000 800000 0  850000 800000 0  900000 800000 0  950000 800000 0  1000000 800000 0  0 850000 0  50000 850000 0  100000 850000 0  150000 850000 0  200000 850000 0  250000 850000 0  300000 850000 0  350000 850000 0  400000 850000 0  450000 850000 0  500000 850000 0  550000 850000 0  600000 850000 0  650000 850000 0  700000 850000 0  750000 850000 0  800000 850000 0  850000 850000 0  900000 850000 0  950000 850000 0  1000000 850000 0  0 900000 0  50000 900000 0  100000 900000 0  150000 900000 0  200000 900000 0  250000 900000 0  300000 900000 0  350000 900000 0  400000 900000 0  450000 900000 0  500000 900000 0  550000 900000 0  600000 900000 0  650000 900000 0  700000 900000 0  750000 900000 0  800000 900000 0  850000 900000 0  900000 900000 0  950000 900000 0  1000000 900000 0  0 950000 0  50000 950000 0  100000 950000 0  150000 950000 0  200000 950000 0  250000 950000 0  300000 950000 0  350000 950000 0  400000 950000 0  450000 950000 0  500000 950000 0  550000 950000 0  600000 950000 0  650000 950000 0  700000 950000 0  750000 950000 0  800000 950000 0  850000 950000 0  900000 950000 0  950000 950000 0  1000000 950000 0  0 1000000 0  50000 1000000 0  100000 1000000 0  150000 1000000 0  200000 1000000 0  250000 1000000 0  300000 1000000 0  350000 1000000 0  400000 1000000 0  450000 1000000 0  500000 1000000 0  550000 1000000 0  600000 1000000 0  650000 1000000 0  700000 1000000 0  750000 1000000 0  800000 1000000 0  850000 1000000 0  900000 1000000 0  950000 1000000 0  1000000 1000000 0  0 1050000 0  50000 1050000 0  100000 1050000 0  150000 1050000 0  200000 1050000 0  250000 1050000 0  300000 1050000 0  350000 1050000 0  400000 1050000 0  450000 1050000 0  500000 1050000 0  550000 1050000 0  600000 1050000 0  650000 1050000 0  700000 1050000 0  750000 1050000 0  800000 1050000 0  850000 1050000 0  900000 1050000 0  950000 1050000 0  1000000 1050000 0  0 1100000 0  50000 1100000 0  100000 1100000 0  150000 1100000 0  200000 1100000 0  250000 1100000 0  300000 1100000 0  350000 1100000 0  400000 1100000 0  450000 1100000 0  500000 1100000 0  550000 1100000 0  600000 1100000 0  650000 1100000 0  700000 1100000 0  750000 1100000 0  800000 1100000 0  850000 1100000 0  900000 1100000 0  950000 1100000 0  1000000 1100000 0  0 1150000 0  50000 1150000 0  100000 1150000 0  150000 1150000 0  200000 1150000 0  250000 1150000 0  300000 1150000 0  350000 1150000 0  400000 1150000 0  450000 1150000 0  500000 1150000 0  550000 1150000 0  600000 1150000 0  650000 1150000 0  700000 1150000 0  750000 1150000 0  800000 1150000 0  850000 1150000 0  900000 1150000 0  950000 1150000 0  1000000 1150000 0  0 1200000 0  50000 1200000 0  100000 1200000 0  150000 1200000 0  200000 1200000 0  250000 1200000 0  300000 1200000 0  350000 1200000 0  400000 1200000 0  450000 1200000 0  500000 1200000 0  550000 1200000 0  600000 1200000 0  650000 1200000 0  700000 1200000 0  750000 1200000 0  800000 1200000 0  850000 1200000 0  900000 1200000 0  950000 1200000 0  1000000 1200000 0  0 1250000 0  50000 1250000 0  100000 1250000 0  150000 1250000 0  200000 1250000 0  250000 1250000 0  300000 1250000 0  350000 1250000 0  400000 1250000 0  450000 1250000 0  500000 1250000 0  550000 1250000 0  600000 1250000 0  650000 1250000 0  700000 1250000 0  750000 1250000 0  800000 1250000 0  850000 1250000 0  900000 1250000 0  950000 1250000 0  1000000 1250000 0  0 1300000 0  50000 1300000 0  100000 1300000 0  150000 1300000 0  200000 1300000 0  250000 1300000 0  300000 1300000 0  350000 1300000 0  400000 1300000 0  450000 1300000 0  500000 1300000 0  550000 1300000 0  600000 1300000 0  650000 1300000 0  700000 1300000 0  750000 1300000 0  800000 1300000 0  850000 1300000 0  900000 1300000 0  950000 1300000 0  1000000 1300000 0  0 1350000 0  50000 1350000 0  100000 1350000 0  150000 1350000 0  200000 1350000 0  250000 1350000 0  300000 1350000 0  350000 1350000 0  400000 1350000 0  450000 1350000 0  500000 1350000 0  550000 1350000 0  600000 1350000 0  650000 1350000 0  700000 135
[...]
<PointData  Vectors="f_19"> 
<DataArray  type="Float64"  Name="f_19"  NumberOfComponents="3" format="ascii">-2.4315604285674035e-08 -1.0549185457960238e-08 0.0000000000000000e+00  4.8728682526214226e-08 -6.6230880062325982e-09 0.0000000000000000e+00  4.2988016683967603e-08 -2.3076989383558979e-09 0.0000000000000000e+00  4.0526930586520851e-08 -9.2950622531425312e-10 0.0000000000000000e+00  3.9317596130650966e-08 -4.4533111058189404e-10 0.0000000000000000e+00  3.8527075034441523e-08 -2.3597904278780319e-10 0.0000000000000000e+00  3.7958420394491450e-08 -1.3362703984338951e-10 0.0000000000000000e+00  3.7554679570929086e-08 -8.0735921768349202e-11 0.0000000000000000e+00  3.7297893571309333e-08 -5.2719690965835821e-11 0.0000000000000000e+00  3.7183362622140325e-08 -3.6405574100385881e-11 0.0000000000000000e+00  3.7211897616131163e-08 -2.2663807511400820e-11 0.0000000000000000e+00  3.7388053983847222e-08 -3.0685421136617354e-12 0.0000000000000000e+00  3.7721719454066442e-08 3.2629535042864413e-11 0.0000000000000000e+00  3.8234153159545183e-08 1.0004659559843871e-10 0.0000000000000000e+00  3.8974050177380437e-08 2.2747431826213386e-10 0.0000000000000000e+00  4.0060054208257152e-08 4.7398634915777701e-10 0.0000000000000000e+00  4.1793096204798041e-08 9.7807766106604919e-10 0.0000000000000000e+00  4.4919765688059516e-08 2.0842926964537821e-09 0.0000000000000000e+00  5.0769512562234670e-08 4.6100466958139264e-09 0.0000000000000000e+00  5.8013124220727824e-08 9.1229815115404905e-09 0.0000000000000000e+00  -1.6441800942545403e-08 7.0157483244141239e-09 0.0000000000000000e+00  -1.8065754469358001e-08 -1.6092287784152369e-08 0.0000000000000000e+00  7.2855452060435011e-09 -1.1358631031276884e-08 0.0000000000000000e+00  1.8200799229664498e-08 -5.2641155880482308e-09 0.0000000000000000e+00  2.3255427694035165e-08 -2.4083241395550034e-09 0.0000000000000000e+00  2.5831938063746892e-08 -1.1538876063464162e-09 0.0000000000000000e+00  2.7286125162369199e-08 -5.6319669476911191e-10 0.0000000000000000e+00  2.8129713014311785e-08 -2.6764408996464391e-10 0.0000000000000000e+00  2.8621767583520096e-08 -1.1687773164677420e-10 0.0000000000000000e+00  2.8905357415851118e-08 -4.1900451376635141e-11 0.0000000000000000e+00  2.9060233137043795e-08 -5.4134284737515637e-12 0.0000000000000000e+00  2.9127913335499205e-08 1.7104405316243137e-11 0.0000000000000000e+00  2.9123197758764192e-08 4.6099412072261204e-11 0.0000000000000000e+00  2.9038148636220260e-08 1.0370968448767090e-10 0.0000000000000000e+00  2.8840551910520359e-08 2.2037492328893731e-10 0.0000000000000000e+00  2.8465852175637308e-08 4.4662381558907196e-10 0.0000000000000000e+00  2.7796521185903827e-08 8.7897234817152991e-10 0.0000000000000000e+00  2.6606816080205704e-08 1.7207796437271375e-09 0.0000000000000000e+00  2.4385336815769300e-08 3.4180196534464170e-09 0.0000000000000000e+00  1.9687402473657994e-08 6.8609083025734622e-09 0.0000000000000000e+00  8.2655844293703886e-09 1.3012399562967385e-08 0.0000000000000000e+00  -1.8409533187231214e-08 1.0948238544463926e-08 0.0000000000000000e+00  -1.1074356264868402e-08 -1.9666247574176465e-08 0.0000000000000000e+00  -2.4563267858363089e-10 -1.8514373416119086e-08 0.0000000000000000e+00  5.8810257008165701e-09 -1.1329308607240754e-08 0.0000000000000000e+00  1.0768381214243258e-08 -6.5462214119634402e-09 0.0000000000000000e+00  1.4576611301714225e-08 -3.7855000240482963e-09 0.0000000000000000e+00  1.7214223462308216e-08 -2.2177250350567196e-09 0.0000000000000000e+00  1.8975370761422958e-08 -1.3017413335458441e-09 0.0000000000000000e+00  2.0126769938414959e-08 -7.4620358495699096e-10 0.0000000000000000e+00  2.0847832424652350e-08 -3.9210353879377563e-10 0.0000000000000000e+00  2.1248874549341418e-08 -1.4517240918891274e-10 0.0000000000000000e+00  2.1389697106829030e-08 5.8785152543881467e-11 0.0000000000000000e+00  2.1290658628925357e-08 2.7280406266583325e-10 0.0000000000000000e+00  2.0936690133251042e-08 5.5190285007495984e-10 0.0000000000000000e+00  2.0274914893586623e-08 9.6670950803488124e-10 0.0000000000000000e+00  1.9205290485322435e-08 1.6235044913044218e-09 0.0000000000000000e+00  1.7562365827767073e-08 2.6983916507248273e-09 0.0000000000000000e+00  1.5086783676683251e-08 4.4920314972859153e-09 0.0000000000000000e+00  1.1396720465021751e-08 7.4781384395221440e-09 0.0000000000000000e+00  6.0261086981129855e-09 1.2122908672324119e-08 0.0000000000000000e+00  -1.2868637479044423e-09 1.7575128343263912e-08 0.0000000000000000e+00  -1.3242574358031754e-08 1.4695750674562866e-08 0.0000000000000000e+00  -7.3666518226579160e-09 -2.0259948743593973e-08 0.0000000000000000e+00  -1.5481394326279333e-09 -1.9958715340653122e-08 0.0000000000000000e+00  1.1381650734204423e-09 -1.5305508914272487e-08 0.0000000000000000e+00  3.9204595663181598e-09 -1.0415191490799301e-08 0.0000000000000000e+00  6.8178983697748875e-09 -6.8364065511623919e-09 0.0000000000000000e+00  9.3338251844901897e-09 -4.4284218382641332e-09 0.0000000000000000e+00  1.1272035492879781e-08 -2.8312125216297107e-09 0.0000000000000000e+00  1.2658057133808809e-08 -1.7524998808363741e-09 0.0000000000000000e+00  1.3576738750298824e-08 -9.9137507801407867e-10 0.0000000000000000e+00  1.4102910052664551e-08 -4.0973884724616506e-10 0.0000000000000000e+00  1.4283883997058303e-08 9.5125544717132968e-11 0.0000000000000000e+00  1.4136890997663055e-08 6.1083019606838761e-10 0.0000000000000000e+00  1.3649330175521093e-08 1.2259320837378794e-09 0.0000000000000000e+00  1.2779028104256162e-08 2.0454316859338253e-09 0.0000000000000000e+00  1.1455754843788648e-08 3.2083161778748935e-09 0.0000000000000000e+00  9.5902051154194500e-09 4.9055455792091000e-09 0.0000000000000000e+00  7.1072907120683414e-09 7.3806790744464440e-09 0.0000000000000000e+00  4.0378294570895365e-09 1.0842690499129057e-08 0.0000000000000000e+00  6.7456987524720410e-10 1.5099790592618908e-08 0.0000000000000000e+00  -2.6202381446672814e-09 1.8742198481103812e-08 0.0000000000000000e+00  -8.9395292641228208e-09 1.7538785831356836e-08 0.0000000000000000e+00  -5.4931344910771364e-09 -1.9639163051985367e-08 0.0000000000000000e+00  -1.8895524938978290e-09 -1.9698565762474638e-08 0.0000000000000000e+00  -9.2802354077005574e-10 -1.6727818995871357e-08 0.0000000000000000e+00  2.1491596986221157e-10 -1.2793963049681162e-08 0.0000000000000000e+00  1.8583980844811435e-09 -9.2365302986050900e-09 0.0000000000000000e+00  3.6325289324506513e-09 -6.4522200573190333e-09 0.0000000000000000e+00  5.2154822128876002e-09 -4.3806976846594393e-09 0.0000000000000000e+00  6.4640528268053662e-09 -2.8464077959521007e-09 0.0000000000000000e+00  7.3453000847368587e-09 -1.6774056393674948e-09 0.0000000000000000e+00  7.8690251526238084e-09 -7.2955970713990036e-10 0.0000000000000000e+00  8.0514240828562119e-09 1.1791772897519949e-10 0.0000000000000000e+00  7.9002040713696182e-09 9.7354044586487042e-10 0.0000000000000000e+00  7.4105201450692006e-09 1.9450832306258976e-09 0.0000000000000000e+00  6.5676428885152928e-09 3.1499092662788538e-09 0.0000000000000000e+00  5.3576117750473758e-09 4.7215684343410216e-09 0.0000000000000000e+00  3.7919255981069934e-09 6.8041164697362324e-09 0.0000000000000000e+00  1.9556260263163738e-09 9.5108160347449151e-09 0.0000000000000000e+00  7.5777164576341840e-11 1.2799506998934349e-08 0.0000000000000000e+00  -1.4832651167433219e-09 1.6218815063686543e-08 0.0000000000000000e+00  -2.7311446370816809e-09 1.8691101307685185e-08 0.0000000000000000e+00  -6.6502518002527384e-09 1.8526541538122507e-08 0.0000000000000000e+00  -4.4293689167665371e-09 -1.8479329438025382e-08 0.0000000000000000e+00  -2.0634876513336905e-09 -1.8764429185957653e-08 0.0000000000000000e+00  -2.0145888821863010e-09 -1.6755121332525441e-08 0.0000000000000000e+00  -1.9250789123412909e-09 -1.3764789850491332e-08 0.0000000000000000e+00  -1.3206211210024872e-09 -1.0644571556385767e-08 0.0000000000000000e+00  -3.7616883101312788e-10 -7.8827955811450958e-09 0.0000000000000000e+00  6.4055740015199289e-10 -5.6108398749456927e-09 0.0000000000000000e+00  1.5404959164332758e-09 -3.7848258825939150e-09 0.0000000000000000e+00  2.2242265834120236e-09 -2.2986823935820286e-09 0.0000000000000000e+00  2.6493590592959241e-09 -1.0340851530948218e-09 0.0000000000000000e+00  2.8015185243186559e-09 1.2392626436877709e-10 0.0000000000000000e+00  2.6778601813116389e-09 1.2854879129722101e-09 0.0000000000000000e+00  2.2813526290231668e-09 2.5587910817146080e-09 0.0000000000000000e+00  1.6238793506130996e-09 4.0519130965752722e-09 0.0000000000000000e+00  7.3831126056512652e-10 5.8681582412131639e-09 0.0000000000000000e+00  -2.9925447588038968e-10 8.0858885355547519e-09 0.0000000000000000e+00  -1.3401823827508914e-09 1.0708359787259388e-08 0.0000000000000000e+00  -2.1514478878141963e-09 1.3570653230403268e-08 0.0000000000000000e+00  -2.5141946807566715e-09 1.6229013314291330e-08 0.0000000000000000e+00  -2.7087816878008155e-09 1.7991960581656877e-08 0.0000000000000000e+00  -5.3075131299342434e-09 1.8284733131797555e-08 0.0000000000000000e+00  -3.7517256876700256e-09 -1.7022299026905970e-08 0.0000000000000000e+00  -2.1950366535161625e-09 -1.7463123461707940e-08 0.0000000000000000e+00  -2.6904795673017438e-09 -1.6036436141975489e-08 0.0000000000000000e+00  -3.2677975191551206e-09 -1.3759552273465714e-08 0.0000000000000000e+00  -3.4212904377288724e-09 -1.1157066959826783e-08 0.0000000000000000e+00  -3.1888248301182818e-09 -8.6306863079928764e-09 0.0000000000000000e+00  -2.7467794099084311e-09 -6.3747439103506287e-09 0.0000000000000000e+00  -2.2613444838872502e-09 -4.4305610902619997e-09 0.0000000000000000e+00  -1.8475167234981699e-09 -2.7560092768645727e-09 0.0000000000000000e+00  -1.5723978186957319e-09 -1.2716091933150914e-09 0.0000000000000000e+00  -1.4691300090192125e-09 1.1570788867539043e-10 0.0000000000000000e+00  -1.5480000920899982e-09 1.5020040105031153e-09 0.0000000000000000e+00  -1.8010787008125570e-09 2.9811175798902242e-09 0.0000000000000000e+00  -2.2001237499280030e-09 4.6389936005117277e-09 0.0000000000000000e+00  -2.6884255529136629e-09 6.5421664613700277e-09 0.0000000000000000e+00  -3.1690381522332974e-09 8.7144781694006119e-09 0.0000000000000000e+00  -3.4977889072025708e-09 1.1097384408100542e-08 0.0000000000000000e+00  -3.5050319879415303e-09 1.3499031795397642e-08 0.0000000000000000e+00  -3.1081318486301197e-09 1.5566459176104406e-08 0.0000000000000000e+00  -2.6933313016688599e-09 1.6874703694933486e-08 0.0000000000000000e+00  -4.4366120455567934e-09 1.7384377586715102e-08 0.0000000000000000e+00  -3.2840908629755900e-09 -1.5368062100230748e-08 0.0000000000000000e+00  -2.3029711911329017e-09 -1.5921065846782985e-08 0.0000000000000000e+00  -3.1588020102544804e-09 -1.4873021037960740e-08 0.0000000000000000e+00  -4.1713783512207544e-09 -1.3116614636323880e-08 0.0000000000000000e+00  -4.8575316702296837e-09 -1.0984368330562627e-08 0.0000000000000000e+00  -5.1778829843691105e-09 -8.7715949196562092e-09 0.0000000000000000e+00  -5.2307933619511718e-09 -6.6648649457900895e-09 0.0000000000000000e+00  -5.1381536750470856e-09 -4.7427188576209361e-09 0.0000000000000000e+00  -5.0011675076428842e-09 -3.0072118006445633e-09 0.0000000000000000e+00  -4.8890059378925402e-09 -1.4154205212962839e-09 0.0000000000000000e+00  -4.8407095771436690e-09 9.8163555734480463e-11 0.0000000000000000e+00  -4.8697293550520987e-09 1.6073499244337761e-09 0.0000000000000000e+00  -4.9664568007479934e-09 3.1841412439285796e-09 0.0000000000000000e+00  -5.0974931619585610e-09 4.8886857146068481e-09 0.0000000000000000e+00  -5.2025539607883679e-09 6.7555979812126731e-09 0.0000000000000000e+00  -5.1923905193885162e-09 8.7740537706141261e-09 0.0000000000000000e+00  -4.9555079901486008e-09 1.0862486854120443e-08 0.0000000000000000e+00  -4.3900214254033041e-09 1.2847148642547808e-08 0.0000000000000000e+00  -3.4996443504541257e-09 1.4468874673678867e-08 0.0000000000000000e+00  -2.6920999534315168e-09 1.5468979897851014e-08 0.0000000000000000e+00  -3.8294865522512311e-09 1.6099121351895367e-08 0.0000000000000000e+00  -2.9453260567359768e-09 -1.3570464425589865e-08 0.0000000000000000e+00  -2.3912127022200825e-09 -1.4206432893172816e-08 0.0000000000000000e+00  -3.5016072339991922e-09 -1.3420355000210543e-08 0.0000000000000000e+00  -4.8084692137057894e-09 -1.2050903461894602e-08 0.0000000000000000e+00  -5.8659530800647439e-09 -1.0317470188665103e-08 0.0000000000000000e+00  -6.5959543947207277e-09 -8.4298113517683569e-09 0.0000000000000000e+00  -7.0414799563899255e-09 -6.5427014803792786e-09 0.0000000000000000e+00  -7.2810621496406313e-09 -4.7415959834134858e-09 0.0000000000000000e+00  -7.3910799257744372e-09 -3.0524793465526201e-09 0.0000000000000000e+00  -7.4300544526797643e-09 -1.4598514517419275e-09 0.0000000000000000e+00  -7.4339552168663181e-09 7.6150004222059148e-11 0.0000000000000000e+00  -7.4159849454923613e-09 1.6058574048551348e-09 0.0000000000000000e+00  -7.3672550391302000e-09 3.1784710684910783e-09 0.0000000000000000e+00  -7.2571114597149013e-09 4.8307518225746562e-09 0.0000000000000000e+00  -7.0338276205558170e-09 6.5742393926809530e-09 0.0000000000000000e+00  -6.6283687193200596e-09 8.3805912597226878e-09 0.0000000000000000e+00  -5.9664508742365790e-09 1.0167644898234604e-08 0.0000000000000000e+00  -4.9987763080223347e-09 1.1793827313338076e-08 0.0000000000000000e+00  -3.7768950910006051e-09 1.3075198842787125e-08 0.0000000000000000e+00  -2.6975619509290232e-09 1.3855831704464169e-08 0.0000000000000000e+00  -3.3849559080299011e-09 1.4562446454492999e-08 0.0000000000000000e+00  -2.6938933204727606e-09 -1.1665632539817289e-08 0.0000000000000000e+00  -2.4620716325803729e-09 -1.2363853177283372e-08 0.0000000000000000e+00  -3.7580381814428649e-09 -1.1769789644132583e-08 0.0000000000000000e+00  -5.2687610258785405e-09 -1.0698475893981305e-08 0.0000000000000000e+00  -6.5848816919359050e-09 -9.3010173307561855e-09 0.0000000000000000e+00  -7.6106173402386905e-09 -7.7250136927093251e-09 0.0000000000000000e+00  -8.3526427195457028e-09 -6.0907117816754328e-09 0.0000000000000000e+00  -8.8544546665097884e-09 -4.4758644375622324e-09 0.0000000000000000e+00  -9.1669044880920200e-09 -2.9158756921065818e-09 0.0000000000000000e+00  -9.3331970143733929e-09 -1.4127185842890927e-09 0.0000000000000000e+00  -9.3817928471442352e-09 5.3408663897684515e-11 0.0000000000000000e+00  -9.3236998061380622e-09 1.5125703578948822e-09 0.0000000000000000e+00  -9.1519961032228547e-09 2.9943218510479343e-09 0.0000000000000000e+00  -8.8427285101505976e-09 4.5172524220681367e-09 0.0000000000000000e+00  -8.3576095794984021e-09 6.0784768690124185e-09 0.0000000000000000e+00  -7.6501482453240712e-09 7.6437264018740613e-09 0.0000000000000000e+00  -6.6781485772917189e-09 9.1405981370347652e-09 0.0000000000000000e+00  -5.4287101441706651e-09 1.0459958442414156e-08 0.0000000000000000e+00  -3.9782987378807703e-09 1.1473503399345513e-08 0.0000000000000000e+00  -2.7035417479912970e-09 1.2089856404593117e-08 0.0000000000000000e+00  -3.0489036193791328e-09 1.2848860333940115e-08 0.0000000000000000e+00  -2.5066774747339674e-09 -9.6809421062014861e-09 0.0000000000000000e+00  -2.5180199331762502e-09 -1.0426128812054205e-08 0.0000000000000000e+00  -3.9503645815341972e-09 -9.9807037673385469e-09 0.0000000000000000e+00  -5.6036392844764339e-09 -9.1489524840829269e-09 0.0000000000000000e+00  -7.0992596227337452e-09 -8.0394822050615263e-09 0.0000000000000000e+00  -8.3343371638296404e-09 -6.7559145816795760e-09 0.0000000000000000e+00  -9.2925512451564283e-09 -5.3882826437017864e-09 0.0000000000000000e+00  -9.9915049319125424e-09 -4.0012348877044484e-09 0.0000000000000000e+00  -1.0460252457257566e-08 -2.6308333093695880e-09 0.0000000000000000e+00  -1.0726803861753689e-08 -1.2883436927179373e-09 0.0000000000000000e+00  -1.0810985014995443e-08 3.2384860922757529e-11 0.0000000000000000e+00  -1.0720899418655796e-08 1.3462687971959772e-09 0.0000000000000000e+00  -1.0451933295644161e-08 2.6681659487552887e-09 0.0000000000000000e+00  -9.9878355072606079e-09 4.0042903498804895e-09 0.0000000000000000e+00  -9.3040514153418511e-09 5.3442582669717206e-09 0.0000000000000000e+00  -8.3740817277761152e-09 6.6547399324457886e-09 0.0000000000000000e+00  -7.1803507750585215e-09 7.8766696876308794e-09 0.0000000000000000e+00  -5.7339530117290945e-09 8.9289611840942541e-09 0.0000000000000000e+00  -4.1238920162207005e-09 9.7234605209445936e-09 0.0000000000000000e+00  -2.7066193290326826e-09 1.0210331511673426e-08 0.0000000000000000e+00  -2.7902612631387315e-09 1.1006078278319606e-08 0.0000000000000000e+00  -2.3700654106030977e-09 -7.6382556392794563e-09 0.0000000000000000e+00  -2.5617447690276184e-09 -8.4188019697574353e-09 0.0000000000000000e+00  -4.0932744193073637e-09 -8.0945058259045657e-09 0.0000000000000000e+00  -5.8455550839688513e-09 -7.4637866980909512e-09 0.0000000000000000e+00  -7.4642240546972338e-09 -6.6078511061671601e-09 0.0000000000000000e+00  -8.8442862652784485e-09 -5.5990670152237762e-09 0.0000000000000000e+00  -9.9551645854794300e-09 -4.5028100592123507e-09 0.0000000000000000e+00  -1.0796321517191787e-08 -3.3695848040662492e-09 0.0000000000000000e+00  -1.1379968387794502e-08 -2.2313490943822478e-09 0.0000000000000000e+00  -1.1721270886888790e-08 -1.1027455610737214e-09 0.0000000000000000e+00  -1.1832168924587967e-08 1.4464522021827990e-11 0.0000000000000000e+00  -1.1717930128114716e-08 1.1253458224853821e-09 0.0000000000000000e+00  -1.1376042802072240e-08 2.2351814629372232e-09 0.0000000000000000e+00  -1.0797251901117475e-08 3.3430142716310933e-09 0.0000000000000000e+00  -9.9687626890047499e-09 4.4359961799816638e-09 0.0000000000000000e+00  -8.8798541473946621e-09 5.4854712293223902e-09 0.0000000000000000e+00  -7.5306431058585333e-09 6.4461212331778074e-09 0.0000000000000000e+00  -5.9476812499418937e-09 7.2598372782049394e-09 0.0000000000000000e+00  -4.2261496728392407e-09 7.8675293064999557e-09 0.0000000000000000e+00  -2.7054606478447066e-09 8.2468714743093995e-09 0.0000000000000000e+00  -2.5903839836747158e-09 9.0679210751866514e-09 0.0000000000000000e+00  -2.2757832820867106e-09 -5.5554062407543579e-09 0.0000000000000000e+00  -2.5959256388442229e-09 -6.3622895867144518e-09 0.0000000000000000e+00  -4.1973703100893767e-09 -6.1414708491420348e-09 0.0000000000000000e+00  -6.0165197007797064e-09 -5.6865823153594469e-09 0.0000000000000000e+00  -7.7171187239630339e-09 -5.0603649486584901e-09 0.0000000000000000e+00  -9.1942567204194748e-09 -4.3124144990131584e-09 0.0000000000000000e+00  -1.0408723905274198e-08 -3.4882575239683732e-09 0.0000000000000000e+00  -1.1347841937355825e-08 -2.6248983459896801e-09 0.0000000000000000e+00  -1.2011733562074283e-08 -1.7477994301021765e-09 0.0000000000000000e+00  -1.2405778468179013e-08 -8.7100740660462088e-10 0.0000000000000000e+00  -1.2535603600120565e-08 3.1542106511677642e-13 0.0000000000000000e+00  -1.2404095056474311e-08 8.6593036380948165e-10 0.0000000000000000e+00  -1.2010376574004316e-08 1.7259664958024342e-09 0.0000000000000000e+00  -1.1350714766821673e-08 2.5764418542447824e-09 0.0000000000000000e+00  -1.0421297421656584e-08 3.4054964759192073e-09 0.0000000000000000e+00  -9.2228615670141926e-09 4.1910613134927367e-09 0.0000000000000000e+00  -7.7676030010617174e-09 4.9008055057045175e-09 0.0000000000000000e+00  -6.0918552100423178e-09 5.4953037786207277e-09 0.0000000000000000e+00  -4.2938475092788833e-09 5.9370006924406155e-09 0.0000000000000000e+00  -2.6999990132075236e-09 6.2224628250094738e-09 0.0000000000000000e+00  -2.4378129490110539e-09 7.0598662461443635e-09 0.0000000000000000e+00  -2.2187811178201041e-09 -3.4471698180270574e-09 0.0000000000000000e+00  -2.6229921097692620e-09 -4.2731750949511807e-09 0.0000000000000000e+00  -4.2704973623533643e-09 -4.1445478125878260e-09 0.0000000000000000e+00  -6.1318704854512612e-09 -3.8492997654121151e-09 0.0000000000000000e+00  -7.8835427556873766e-09 -3.4369432431307155e-09 0.0000000000000000e+00  -9.4215113809260204e-09 -2.9397177327024999e-09 0.0000000000000000e+00  -1.0701611643646821e-08 -2.38685415207469