<?xml version="1.0"?>
<VTKFile type="UnstructuredGrid"  version="0.1"  >
<UnstructuredGrid>
<Piece  NumberOfPoints="651" NumberOfCells="1200">
<Points>
<DataArray  type="Float64"  NumberOfComponents="3"  format="ascii">0 0 0  50000 0 0  100000 0 0  150000 0 0  200000 0 0  250000 0 0  300000 0 0  350000 0 0  400000 0 0  450000 0 0  500000 0 0  550000 0 0  600000 0 0  650000 0 0  700000 0 0  750000 0 0  800000 0 0  850000 0 0  900000 0 0  950000 0 0  1000000 0 0  0 50000 0  50000 50000 0  100000 50000 0  150000 50000 0  200000 50000 0  250000 50000 0  300000 50000 0  350000 50000 0  400000 50000 0  450000 50000 0  500000 50000 0  550000 50000 0  600000 50000 0  650000 50000 0  700000 50000 0  750000 50000 0  800000 50000 0  850000 50000 0  900000 50000 0  950000 50000 0  1000000 50000 0  0 100000 0  50000 100000 0  100000 100000 0  150000 100000 0  200000 100000 0  250000 100000 0  300000 100000 0  350000 100000 0  400000 100000 0  450000 100000 0  500000 100000 0  550000 100000 0  600000 100000 0  650000 100000 0  700000 100000 0  750000 100000 0  800000 100000 0  850000 100000 0  900000 100000 0  950000 100000 0  1000000 100000 0  0 150000 0  50000 150000 0  100000 150000 0  150000 150000 0  200000 150000 0  250000 150000 0  300000 150000 0  350000 150000 0  400000 150000 0  450000 150000 0  500000 150000 0  550000 150000 0  600000 150000 0  650000 150000 0  700000 150000 0  750000 150000 0  800000 150000 0  850000 150000 0  900000 150000 0  950000 150000 0  1000000 150000 0  0 200000 0  50000 200000 0  100000 200000 0  150000 200000 0  200000 200000 0  250000 200000 0  300000 200000 0  350000 200000 0  400000 200000 0  450000 200000 0  500000 200000 0  550000 200000 0  600000 200000 0  650000 200000 0  700000 200000 0  750000 200000 0  800000 200000 0  850000 200000 0  900000 200000 0  950000 200000 0  1000000 200000 0  0 250000 0  50000 250000 0  100000 250000 0  150000 250000 0  200000 250000 0  250000 250000 0  300000 250000 0  350000 250000 0  400000 250000 0  450000 250000 0  500000 250000 0  550000 250000 0  600000 250000 0  650000 250000 0  700000 250000 0  750000 250000 0  800000 250000 0  850000 250000 0  900000 250000 0  950000 250000 0  1000000 250000 0  0 300000 0  50000 300000 0  100000 300000 0  150000 300000 0  200000 300000 0  250000 300000 0  300000 300000 0  350000 300000 0  400000 300000 0  450000 300000 0  500000 300000 0  550000 300000 0  600000 300000 0  650000 300000 0  700000 300000 0  750000 300000 0  800000 300000 0  850000 300000 0  900000 300000 0  950000 300000 0  1000000 300000 0  0 350000 0  50000 350000 0  100000 350000 0  150000 350000 0  200000 350000 0  250000 350000 0  300000 350000 0  350000 350000 0  400000 350000 0  450000 350000 0  500000 350000 0  550000 350000 0  600000 350000 0  650000 350000 0  700000 350000 0  750000 350000 0  800000 350000 0  850000 350000 0  900000 350000 0  950000 350000 0  1000000 350000 0  0 400000 0  50000 400000 0  100000 400000 0  150000 400000 0  200000 400000 0  250000 400000 0  300000 400000 0  350000 400000 0  400000 400000 0  450000 400000 0  500000 400000 0  550000 400000 0  600000 400000 0  650000 400000 0  700000 400000 0  750000 400000 0  800000 400000 0  850000 400000 0  900000 400000 0  950000 400000 0  1000000 400000 0  0 450000 0  50000 450000 0  100000 450000 0  150000 450000 0  200000 450000 0  250000 450000 0  300000 450000 0  350000 450000 0  400000 450000 0  450000 450000 0  500000 450000 0  550000 450000 0  600000 450000 0  650000 450000 0  700000 450000 0  750000 450000 0  800000 450000 0  850000 450000 0  900000 450000 0  950000 450000 0  1000000 450000 0  0 500000 0  50000 500000 0  100000 500000 0  150000 500000 0  200000 500000 0  250000 500000 0  300000 500000 0  350000 500000 0  400000 500000 0  450000 500000 0  500000 500000 0  550000 500000 0  600000 500000 0  650000 500000 0  700000 500000 0  750000 500000 0  800000 500000 0  850000 500000 0  900000 500000 0  950000 500000 0  1000000 500000 0  0 550000 0  50000 550000 0  100000 550000 0  150000 550000 0  200000 550000 0  250000 550000 0  300000 550000 0  350000 550000 0  400000 550000 0  450000 550000 0  500000 550000 0  550000 550000 0  600000 550000 0  650000 550000 0  700000 550000 0  750000 550000 0  800000 550000 0  850000 550000 0  900000 550000 0  950000 550000 0  1000000 550000 0  0 600000 0  50000 600000 0  100000 600000 0  150000 600000 0  200000 600000 0  250000 600000 0  300000 600000 0  350000 600000 0  400000 600000 0  450000 600000 0  500000 600000 0  550000 600000 0  600000 600000 0  650000 600000 0  700000 600000 0  750000 600000 0  800000 600000 0  850000 600000 0  900000 600000 0  950000 600000 0  1000000 600000 0  0 650000 0  50000 650000 0  100000 650000 0  150000 650000 0  200000 650000 0  250000 650000 0  300000 650000 0  350000 650000 0  400000 650000 0  450000 650000 0  500000 650000 0  550000 650000 0  600000 650000 0  650000 650000 0  700000 650000 0  750000 650000 0  800000 650000 0  850000 650000 0  900000 650000 0  950000 650000 0  1000000 650000 0  0 700000 0  50000 700000 0  100000 700000 0  150000 700000 0  200000 700000 0  250000 700000 0  300000 700000 0  350000 700000 0  400000 700000 0  450000 700000 0  500000 700000 0  550000 700000 0  600000 700000 0  650000 700000 0  700000 700000 0  750000 700000 0  800000 700000 0  850000 700000 0  900000 700000 0  950000 700000 0  1000000 700000 0  0 750000 0  50000 750000 0  100000 750000 0  150000 750000 0  200000 750000 0  250000 750000 0  300000 750000 0  350000 750000 0  400000 750000 0  450000 750000 0  500000 750000 0  550000 750000 0  600000 750000 0  650000 750000 0  700000 750000 0  750000 750000 0  800000 750000 0  850000 750000 0  900000 750000 0  950000 750000 0  1000000 750000 0  0 800000 0  50000 800000 0  100000 800000 0  150000 800000 0  200000 800000 0  250000 800000 0  300000 800000 0  350000 800000 0  400000 800000 0  450000 800000 0  500000 800000 0  550000 800000 0  600000 800000 0  650000 800000 0  700000 800000 0  750000 800000 0  800000 800000 0  850000 800000 0  900000 800000 0  950000 800000 0  1000000 800000 0  0 850000 0  50000 850000 0  100000 850000 0  150000 850000 0  200000 850000 0  250000 850000 0  300000 850000 0  350000 850000 0  400000 850000 0  450000 850000 0  500000 850000 0  550000 850000 0  600000 850000 0  650000 850000 0  700000 850000 0  750000 850000 0  800000 850000 0  850000 850000 0  900000 850000 0  950000 850000 0  1000000 850000 0  0 900000 0  50000 900000 0  100000 900000 0  150000 900000 0  200000 900000 0  250000 900000 0  300000 900000 0  350000 900000 0  400000 900000 0  450000 900000 0  500000 900000 0  550000 900000 0  600000 900000 0  650000 900000 0  700000 900000 0  750000 900000 0  800000 900000 0  850000 900000 0  900000 900000 0  950000 900000 0  1000000 900000 0  0 950000 0  50000 950000 0  100000 950000 0  150000 950000 0  200000 950000 0  250000 950000 0  300000 950000 0  350000 950000 0  400000 950000 0  450000 950000 0  500000 950000 0  550000 950000 0  600000 950000 0  650000 950000 0  700000 950000 0  750000 950000 0  800000 950000 0  850000 950000 0  900000 950000 0  950000 950000 0  1000000 950000 0  0 1000000 0  50000 1000000 0  100000 1000000 0  150000 1000000 0  200000 1000000 0  250000 1000000 0  300000 1000000 0  350000 1000000 0  400000 1000000 0  450000 1000000 0  500000 1000000 0  550000 1000000 0  600000 1000000 0  650000 1000000 0  700000 1000000 0  750000 1000000 0  800000 1000000 0  850000 1000000 0  900000 1000000 0  950000 1000000 0  1000000 1000000 0  0 1050000 0  50000 1050000 0  100000 1050000 0  150000 1050000 0  200000 1050000 0  250000 1050000 0  300000 1050000 0  350000 1050000 0  400000 1050000 0  450000 1050000 0  500000 1050000 0  550000 1050000 0  600000 1050000 0  650000 1050000 0  700000 1050000 0  750000 1050000 0  800000 1050000 0  850000 1050000 0  900000 1050000 0  950000 1050000 0  1000000 1050000 0  0 1100000 0  50000 1100000 0  100000 1100000 0  150000 1100000 0  200000 1100000 0  250000 1100000 0  300000 1100000 0  350000 1100000 0  400000 1100000 0  450000 1100000 0  500000 1100000 0  550000 1100000 0  600000 1100000 0  650000 1100000 0  700000 1100000 0  750000 1100000 0  800000 1100000 0  850000 1100000 0  900000 1100000 0  950000 1100000 0  1000000 1100000 0  0 1150000 0  50000 1150000 0  100000 1150000 0  150000 1150000 0  200000 1150000 0  250000 1150000 0  300000 1150000 0  350000 1150000 0  400000 1150000 0  450000 1150000 0  500000 1150000 0  550000 1150000 0  600000 1150000 0  650000 1150000 0  700000 1150000 0  750000 1150000 0  800000 1150000 0  850000 1150000 0  900000 1150000 0  950000 1150000 0  1000000 1150000 0  0 1200000 0  50000 1200000 0  100000 1200000 0  150000 1200000 0  200000 1200000 0  250000 1200000 0  300000 1200000 0  350000 1200000 0  400000 1200000 0  450000 1200000 0  500000 1200000 0  550000 1200000 0  600000 1200000 0  650000 1200000 0  700000 1200000 0  750000 1200000 0  800000 1200000 0  850000 1200000 0  900000 1200000 0  950000 1200000 0  1000000 1200000 0  0 1250000 0  50000 1250000 0  100000 1250000 0  150000 1250000 0  200000 1250000 0  250000 1250000 0  300000 1250000 0  350000 1250000 0  400000 1250000 0  450000 1250000 0  500000 1250000 0  550000 1250000 0  600000 1250000 0  650000 1250000 0  700000 1250000 0  750000 1250000 0  800000 1250000 0  850000 1250000 0  900000 1250000 0  950000 1250000 0  1000000 1250000 0  0 1300000 0  50000 1300000 0  100000 1300000 0  150000 1300000 0  200000 1300000 0  250000 1300000 0  300000 1300000 0  350000 1300000 0  400000 1300000 0  450000 1300000 0  500000 1300000 0  550000 1300000 0  600000 1300000 0  650000 1300000 0  700000 1300000 0  750000 1300000 0  800000 1300000 0  850000 1300000 0  900000 1300000 0  950000 1300000 0  1000000 1300000 0  0 1350000 0  50000 1350000 0  100000 1350000 0  150000 1350000 0  200000 1350000 0  250000 1350000 0  300000 1350000 0  350000 1350000 0  400000 1350000 0  450000 1350000 0  500000 1350000 0  550000 1350000 0  600000 1350000 0  650000 1350000 0  700000 135
[...]
<PointData  Vectors="f_19"> 
<DataArray  type="Float64"  Name="f_19"  NumberOfComponents="3" format="ascii">-2.4357984250933240e-08 -1.0440173724352967e-08 0.0000000000000000e+00  4.8694424339817722e-08 -6.5193614104942433e-09 0.0000000000000000e+00  4.2963787355409428e-08 -2.2139758143029079e-09 0.0000000000000000e+00  4.0510215793223104e-08 -8.4528252582327702e-10 0.0000000000000000e+00  3.9307056536829584e-08 -3.6958989828996159e-10 0.0000000000000000e+00  3.8521573911278085e-08 -1.6808262326086208e-10 0.0000000000000000e+00  3.7956960466048143e-08 -7.3097206859703313e-11 0.0000000000000000e+00  3.7556373948725710e-08 -2.7130692305905162e-11 0.0000000000000000e+00  3.7301956314192589e-08 -5.5915002183831370e-12 0.0000000000000000e+00  3.7189110891334688e-08 4.7137095426677102e-12 0.0000000000000000e+00  3.7218756504581847e-08 1.2939027592137922e-11 0.0000000000000000e+00  3.7395560458072121e-08 2.7532727357763003e-11 0.0000000000000000e+00  3.7729524469721196e-08 5.8762284849441399e-11 0.0000000000000000e+00  3.8242022202324083e-08 1.2225752482557611e-10 0.0000000000000000e+00  3.8981863108732565e-08 2.4632025167145932e-10 0.0000000000000000e+00  4.0067805631829794e-08 4.9003232914189726e-10 0.0000000000000000e+00  4.1800897951972384e-08 9.9189725725116018e-10 0.0000000000000000e+00  4.4927851820126905e-08 2.0964725190093296e-09 0.0000000000000000e+00  5.0778218114174876e-08 4.6211931002409817e-09 0.0000000000000000e+00  5.8022685453829015e-08 9.1336535057056880e-09 0.0000000000000000e+00  -1.6431792957655286e-08 7.0268453492802844e-09 0.0000000000000000e+00  -1.8114498294142649e-08 -1.5987783750354106e-08 0.0000000000000000e+00  7.2631452370946062e-09 -1.1327568787727213e-08 0.0000000000000000e+00  1.8166099526718025e-08 -5.2588639092699317e-09 0.0000000000000000e+00  2.3227775466604562e-08 -2.4039556967413831e-09 0.0000000000000000e+00  2.5813823683578990e-08 -1.1494651634928648e-09 0.0000000000000000e+00  2.7275308224958855e-08 -5.5854516535795731e-10 0.0000000000000000e+00  2.8124450493944780e-08 -2.6277409166394947e-10 0.0000000000000000e+00  2.8620722229604301e-08 -1.1186369485242383e-10 0.0000000000000000e+00  2.8907399448089525e-08 -3.6814899987386095e-11 0.0000000000000000e+00  2.9064405634513534e-08 -3.1916248797195859e-13 0.0000000000000000e+00  2.9133415384172544e-08 2.2152007948774671e-11 0.0000000000000000e+00  2.9129368536876445e-08 5.1051646992514043e-11 0.0000000000000000e+00  2.9044454670709359e-08 1.0852530127346061e-10 0.0000000000000000e+00  2.8846576457507073e-08 2.2502200563477404e-10 0.0000000000000000e+00  2.8471284522069566e-08 4.5108351795127589e-10 0.0000000000000000e+00  2.7801142829878767e-08 8.8324728190102287e-10 0.0000000000000000e+00  2.6610482614559192e-08 1.7249124504190114e-09 0.0000000000000000e+00  2.4387988500416893e-08 3.4221183899951203e-09 0.0000000000000000e+00  1.9689268392817648e-08 6.8651568282696404e-09 0.0000000000000000e+00  8.2673304927871124e-09 1.3017321057537236e-08 0.0000000000000000e+00  -1.8399887248877050e-08 1.0958643645101599e-08 0.0000000000000000e+00  -1.1131162056382673e-08 -1.9572639699176408e-08 0.0000000000000000e+00  -2.5738784274044500e-10 -1.8487581450127442e-08 0.0000000000000000e+00  5.8582478297585941e-09 -1.1340796872095104e-08 0.0000000000000000e+00  1.0741780861400139e-08 -6.5621770756574614e-09 0.0000000000000000e+00  1.4552765422857425e-08 -3.8004187839468054e-09 0.0000000000000000e+00  1.7195327462522253e-08 -2.2304025276901403e-09 0.0000000000000000e+00  1.8961262426785836e-08 -1.3119998999472350e-09 0.0000000000000000e+00  2.0116697324825909e-08 -7.5419916661321565e-10 0.0000000000000000e+00  2.0840974093338835e-08 -3.9807359959547788e-10 0.0000000000000000e+00  2.1244461506818574e-08 -1.4936168309451126e-10 0.0000000000000000e+00  2.1387049802033955e-08 5.6140114465010949e-11 0.0000000000000000e+00  2.1289197513612903e-08 2.7147759335977283e-10 0.0000000000000000e+00  2.0935935591806970e-08 5.5168160759697832e-10 0.0000000000000000e+00  2.0274483359382552e-08 9.6739552391001605e-10 0.0000000000000000e+00  1.9204888939390289e-08 1.6249219425427937e-09 0.0000000000000000e+00  1.7561785528913733e-08 2.7004008176151959e-09 0.0000000000000000e+00  1.5085898151914060e-08 4.4945539819323579e-09 0.0000000000000000e+00  1.1395507780084308e-08 7.4811925738907118e-09 0.0000000000000000e+00  6.0247853657298191e-09 1.2126659462067293e-08 0.0000000000000000e+00  -1.2875458826436006e-09 1.7579134295995162e-08 0.0000000000000000e+00  -1.3233580851003973e-08 1.4704617869401787e-08 0.0000000000000000e+00  -7.4295011747802549e-09 -2.0177439967663317e-08 0.0000000000000000e+00  -1.5530672122200463e-09 -1.9922671737669572e-08 0.0000000000000000e+00  1.1303175155442283e-09 -1.5310870385158880e-08 0.0000000000000000e+00  3.9057976322672200e-09 -1.0432732255932767e-08 0.0000000000000000e+00  6.8004385978494906e-09 -6.8558608107124552e-09 0.0000000000000000e+00  9.3169943300134460e-09 -4.4463320378081607e-09 0.0000000000000000e+00  1.1257325244017619e-08 -2.8464641957274080e-09 0.0000000000000000e+00  1.2645826534296664e-08 -1.7648681080293222e-09 0.0000000000000000e+00  1.3566828986873158e-08 -1.0009830738581921e-09 0.0000000000000000e+00  1.4094960942193448e-08 -4.1683933055238283e-10 0.0000000000000000e+00  1.4277478634545052e-08 9.0236027913875116e-11 0.0000000000000000e+00  1.4131622331107284e-08 6.0784475618337681e-10 0.0000000000000000e+00  1.3644833068778323e-08 1.2245479956338666e-09 0.0000000000000000e+00  1.2774995767676199e-08 2.0453591236719927e-09 0.0000000000000000e+00  1.1451948699266301e-08 3.2092873694929348e-09 0.0000000000000000e+00  9.5864639268266216e-09 4.9073281741536078e-09 0.0000000000000000e+00  7.1035465366751283e-09 7.3830946660331180e-09 0.0000000000000000e+00  4.0341513330228618e-09 1.0845626900560385e-08 0.0000000000000000e+00  6.7135965639701919e-10 1.5103140525884721e-08 0.0000000000000000e+00  -2.6221017885351870e-09 1.8744563048765387e-08 0.0000000000000000e+00  -8.9318033136393434e-09 1.7545613898175274e-08 0.0000000000000000e+00  -5.5601366798742014e-09 -1.9567581103262596e-08 0.0000000000000000e+00  -1.8917690255461366e-09 -1.9659352325003217e-08 0.0000000000000000e+00  -9.2666167540750929e-10 -1.6725131586990796e-08 0.0000000000000000e+00  2.1098669858812030e-10 -1.2806998980871839e-08 0.0000000000000000e+00  1.8496965544579938e-09 -9.2549642953070001e-09 0.0000000000000000e+00  3.6215239087213189e-09 -6.4710641772590897e-09 0.0000000000000000e+00  5.2040319699451734e-09 -4.3977356844613171e-09 0.0000000000000000e+00  6.4531669824808980e-09 -2.8607802280337695e-09 0.0000000000000000e+00  7.3353999078474411e-09 -1.6889036329812688e-09 0.0000000000000000e+00  7.8601902242882429e-09 -7.3828165902832284e-10 0.0000000000000000e+00  8.0435560326302302e-09 1.1173023330597409e-10 0.0000000000000000e+00  7.8931248582905244e-09 9.6958080872165726e-10 0.0000000000000000e+00  7.4040303219090955e-09 1.9430178899512928e-09 0.0000000000000000e+00  6.5615582748133050e-09 3.1493977445553889e-09 0.0000000000000000e+00  5.3517901664329932e-09 4.7222761944580880e-09 0.0000000000000000e+00  3.7862917164504555e-09 6.8057253823385284e-09 0.0000000000000000e+00  1.9502034478571192e-09 9.5130309839737583e-09 0.0000000000000000e+00  7.0747348951647392e-11 1.2802038112870545e-08 0.0000000000000000e+00  -1.4873771297691870e-09 1.6221248029929763e-08 0.0000000000000000e+00  -2.7337379618898506e-09 1.8691357235345712e-08 0.0000000000000000e+00  -6.6443347870344309e-09 1.8531056618717801e-08 0.0000000000000000e+00  -4.4990111928298873e-09 -1.8418352902513433e-08 0.0000000000000000e+00  -2.0646264026752289e-09 -1.8726893627697483e-08 0.0000000000000000e+00  -2.0077949534783744e-09 -1.6747035640005418e-08 0.0000000000000000e+00  -1.9212985644689146e-09 -1.3772419520746721e-08 0.0000000000000000e+00  -1.3215276749013163e-09 -1.0659558533757597e-08 0.0000000000000000e+00  -3.8065771944069757e-10 -7.9000288735003630e-09 0.0000000000000000e+00  6.3392875126434010e-10 -5.6275071956746412e-09 0.0000000000000000e+00  1.5328436669354948e-09 -3.7995253068289882e-09 0.0000000000000000e+00  2.2162607996741332e-09 -2.3108252087549529e-09 0.0000000000000000e+00  2.6414689354876948e-09 -1.0435340562278195e-09 0.0000000000000000e+00  2.7938773991679662e-09 1.1706237185911647e-10 0.0000000000000000e+00  2.6705110107087026e-09 1.2809661381521690e-09 0.0000000000000000e+00  2.2742707374491572e-09 2.5562949110270012e-09 0.0000000000000000e+00  1.6170188572178917e-09 4.0510847395635291e-09 0.0000000000000000e+00  7.3164272366113860e-10 5.8686158798492503e-09 0.0000000000000000e+00  -3.0570837246641343e-10 8.0872342861770958e-09 0.0000000000000000e+00  -1.3463060607922578e-09 1.0710176661186985e-08 0.0000000000000000e+00  -2.1569740480835382e-09 1.3572469518731784e-08 0.0000000000000000e+00  -2.5185646263720807e-09 1.6230147137258199e-08 0.0000000000000000e+00  -2.7118429162892394e-09 1.7989786266597875e-08 0.0000000000000000e+00  -5.3039390970031217e-09 1.8286783047251522e-08 0.0000000000000000e+00  -3.8226931806521424e-09 -1.6971489086104026e-08 0.0000000000000000e+00  -2.1958449791325018e-09 -1.7429685278560212e-08 0.0000000000000000e+00  -2.6805324003421628e-09 -1.6025750917822158e-08 0.0000000000000000e+00  -3.2588815410517945e-09 -1.3762732876399361e-08 0.0000000000000000e+00  -3.4161913264122053e-09 -1.1168027914333684e-08 0.0000000000000000e+00  -3.1875129488530185e-09 -8.6450212900579036e-09 0.0000000000000000e+00  -2.7484328403149015e-09 -6.3896072668079669e-09 0.0000000000000000e+00  -2.2650578699664966e-09 -4.4442849312542756e-09 0.0000000000000000e+00  -1.8525474251714518e-09 -2.7677235233837821e-09 0.0000000000000000e+00  -1.5782142264833945e-09 -1.2809519947040920e-09 0.0000000000000000e+00  -1.4753844467941200e-09 1.0878438454112374e-10 0.0000000000000000e+00  -1.5544807990096618e-09 1.4973545831120166e-09 0.0000000000000000e+00  -1.8076615804949590e-09 2.9784754433690845e-09 0.0000000000000000e+00  -2.2067289423579016e-09 4.6380105200420477e-09 0.0000000000000000e+00  -2.6949776603226687e-09 6.5424330198223641e-09 0.0000000000000000e+00  -3.1754269755472597e-09 8.7155300822925339e-09 0.0000000000000000e+00  -3.5038270848086074e-09 1.1098694086653207e-08 0.0000000000000000e+00  -3.5104046741138539e-09 1.3499965470809861e-08 0.0000000000000000e+00  -3.1123107951530027e-09 1.5566112452770716e-08 0.0000000000000000e+00  -2.6967074484624705e-09 1.6869998076463290e-08 0.0000000000000000e+00  -4.4359003222873009e-09 1.7383914760908051e-08 0.0000000000000000e+00  -3.3551934108430070e-09 -1.5326883747903164e-08 0.0000000000000000e+00  -2.3038097991344867e-09 -1.5892927547512788e-08 0.0000000000000000e+00  -3.1471359316965551e-09 -1.4861740338560132e-08 0.0000000000000000e+00  -4.1592390527404290e-09 -1.3116685405931207e-08 0.0000000000000000e+00  -4.8481731974858023e-09 -1.0991639207689095e-08 0.0000000000000000e+00  -5.1719627026705001e-09 -8.7826346506884229e-09 0.0000000000000000e+00  -5.2280410336954764e-09 -6.6771587884586163e-09 0.0000000000000000e+00  -5.1379794307406846e-09 -4.7545992415148225e-09 0.0000000000000000e+00  -5.0029454077168583e-09 -3.0176792415611775e-09 0.0000000000000000e+00  -4.8921943571511426e-09 -1.4239581780209308e-09 0.0000000000000000e+00  -4.8448849817583293e-09 9.1739347308082930e-11 0.0000000000000000e+00  -4.8745785193424162e-09 1.6029955339257261e-09 0.0000000000000000e+00  -4.9717515933154079e-09 3.1816543271335592e-09 0.0000000000000000e+00  -5.1030588593223528e-09 4.8877456578982130e-09 0.0000000000000000e+00  -5.2082348514577576e-09 6.7557859268345421e-09 0.0000000000000000e+00  -5.1980133074708295e-09 8.7748570263474726e-09 0.0000000000000000e+00  -4.9608428004462748e-09 1.0863287529670471e-08 0.0000000000000000e+00  -4.3947428742848256e-09 1.2847178340015855e-08 0.0000000000000000e+00  -3.5033012610122200e-09 1.4467045757382799e-08 0.0000000000000000e+00  -2.6956931799906267e-09 1.5461831024001293e-08 0.0000000000000000e+00  -3.8321348237002804e-09 1.6096204221774067e-08 0.0000000000000000e+00  -3.0154770222482794e-09 -1.3538292721669888e-08 0.0000000000000000e+00  -2.3922534461190246e-09 -1.4184130664440253e-08 0.0000000000000000e+00  -3.4891655193647093e-09 -1.3409793651180888e-08 0.0000000000000000e+00  -4.7944981064230390e-09 -1.2049072263742497e-08 0.0000000000000000e+00  -5.8538080492358421e-09 -1.0321729071771478e-08 0.0000000000000000e+00  -6.5866708208900136e-09 -8.4376890630820650e-09 0.0000000000000000e+00  -7.0351883077947961e-09 -6.5521756519156960e-09 0.0000000000000000e+00  -7.2774721896013574e-09 -4.7511796644749097e-09 0.0000000000000000e+00  -7.3897386032409926e-09 -3.0611812715858107e-09 0.0000000000000000e+00  -7.4304885581793799e-09 -1.4670856277302910e-09 0.0000000000000000e+00  -7.4357399266684826e-09 7.0658476846296877e-11 0.0000000000000000e+00  -7.4187670178827907e-09 1.6021495545992921e-09 0.0000000000000000e+00  -7.3707503031424369e-09 3.1764088116479672e-09 0.0000000000000000e+00  -7.2610882386472857e-09 4.8300515651261431e-09 0.0000000000000000e+00  -7.0380820705032419e-09 6.5744878288357782e-09 0.0000000000000000e+00  -6.6326949121945299e-09 8.3812463072769228e-09 0.0000000000000000e+00  -5.9706079358112213e-09 1.0168021451586344e-08 0.0000000000000000e+00  -5.0024617826712005e-09 1.1793049946965846e-08 0.0000000000000000e+00  -3.7797728812021470e-09 1.3072027945572247e-08 0.0000000000000000e+00  -2.7012995501609669e-09 1.3846477075638194e-08 0.0000000000000000e+00  -3.3914344038391395e-09 1.4557241855785559e-08 0.0000000000000000e+00  -2.7621060874963752e-09 -1.1641755645746702e-08 0.0000000000000000e+00  -2.4633953544292442e-09 -1.2347495562941618e-08 0.0000000000000000e+00  -3.7454759157686864e-09 -1.1760767758032024e-08 0.0000000000000000e+00  -5.2539815678695954e-09 -1.0695696792079347e-08 0.0000000000000000e+00  -6.5711352716798081e-09 -9.3030014976452909e-09 0.0000000000000000e+00  -7.5991034171587590e-09 -7.7301282131833282e-09 0.0000000000000000e+00  -8.3437440487030904e-09 -6.0974586078388719e-09 0.0000000000000000e+00  -8.8481157461863604e-09 -4.4830302629860781e-09 0.0000000000000000e+00  -9.1628431641265255e-09 -2.9225737000693025e-09 0.0000000000000000e+00  -9.3310408155077761e-09 -1.4183685666876570e-09 0.0000000000000000e+00  -9.3811606553826600e-09 4.9124101736163826e-11 0.0000000000000000e+00  -9.3242438921712463e-09 1.5097508329373341e-09 0.0000000000000000e+00  -9.1534174073231458e-09 2.9928845390005070e-09 0.0000000000000000e+00  -8.8447745406181763e-09 4.5169538738858669e-09 0.0000000000000000e+00  -8.3600608557256768e-09 6.0789210607936886e-09 0.0000000000000000e+00  -7.6527969074407879e-09 7.6443599432434236e-09 0.0000000000000000e+00  -6.6807729698630310e-09 9.1406915051321129e-09 0.0000000000000000e+00  -5.4310610938325591e-09 1.0458554706155499e-08 0.0000000000000000e+00  -3.9801902009935384e-09 1.1469236387513092e-08 0.0000000000000000e+00  -2.7073620240544179e-09 1.2078655468727661e-08 0.0000000000000000e+00  -3.0596482429210071e-09 1.2841645909040219e-08 0.0000000000000000e+00  -2.5720698202662812e-09 -9.6645670360190406e-09 0.0000000000000000e+00  -2.5196626720010691e-09 -1.0415532119358190e-08 0.0000000000000000e+00  -3.9381610258921282e-09 -9.9736867398600105e-09 0.0000000000000000e+00  -5.5888200582698326e-09 -9.1459314393461521e-09 0.0000000000000000e+00  -7.0848530890882864e-09 -8.0398677080659510e-09 0.0000000000000000e+00  -8.3215669575817407e-09 -6.7587680871765300e-09 0.0000000000000000e+00  -9.2819329217789129e-09 -5.3925959693213262e-09 0.0000000000000000e+00  -9.9831429430312623e-09 -4.0060981755731145e-09 0.0000000000000000e+00  -1.0454005094567565e-08 -2.6355180249207460e-09 0.0000000000000000e+00  -1.0722400859519568e-08 -1.2923285001980332e-09 0.0000000000000000e+00  -1.0808108632707667e-08 2.9418833122999171e-11 0.0000000000000000e+00  -1.0719235097969034e-08 1.3444538254768322e-09 0.0000000000000000e+00  -1.0451196781986503e-08 2.6674626934469162e-09 0.0000000000000000e+00  -9.9877826161922938e-09 4.0044956293084333e-09 0.0000000000000000e+00  -9.3044750281582878e-09 5.3450029911338201e-09 0.0000000000000000e+00  -8.3747993050698539e-09 6.6554763876112692e-09 0.0000000000000000e+00  -7.1811869393593247e-09 7.8766459398476323e-09 0.0000000000000000e+00  -5.7347396445541508e-09 8.9271629683888414e-09 0.0000000000000000e+00  -4.1246274703453749e-09 9.7184186636275177e-09 0.0000000000000000e+00  -2.7104650528577181e-09 1.0197746317456346e-08 0.0000000000000000e+00  -2.8056648375260786e-09 1.0997244137028935e-08 0.0000000000000000e+00  -2.4318673033782666e-09 -7.6285184196293288e-09 0.0000000000000000e+00  -2.5637187963001948e-09 -8.4135760477693137e-09 0.0000000000000000e+00  -4.0817927387258424e-09 -8.0897010746309503e-09 0.0000000000000000e+00  -5.8312837449356137e-09 -7.4610183722304192e-09 0.0000000000000000e+00  -7.4499034037999200e-09 -6.6072109055608849e-09 0.0000000000000000e+00  -8.8310753851661145e-09 -5.6001752790604590e-09 0.0000000000000000e+00  -9.9436236235558278e-09 -4.5050861687240527e-09 0.0000000000000000e+00  -1.0786647333603317e-08 -3.3724137305719530e-09 0.0000000000000000e+00  -1.1372119600756406e-08 -2.2341813307078194e-09 0.0000000000000000e+00  -1.1715063672981909e-08 -1.1051493370558936e-09 0.0000000000000000e+00  -1.1827350521673230e-08 1.2781001060610699e-11 0.0000000000000000e+00  -1.1714231222517462e-08 1.1245270918825676e-09 0.0000000000000000e+00  -1.1373211431962644e-08 2.2352215274991353e-09 0.0000000000000000e+00  -1.0795072106946636e-08 3.3437503308441806e-09 0.0000000000000000e+00  -9.9670607156231243e-09 4.4370954029922954e-09 0.0000000000000000e+00  -8.8784945538692248e-09 5.4864084767935056e-09 0.0000000000000000e+00  -7.5295196572108876e-09 6.4461444172981184e-09 0.0000000000000000e+00  -5.9467321083975401e-09 7.2578997021726451e-09 0.0000000000000000e+00  -4.2255915567487869e-09 7.8620845549142643e-09 0.0000000000000000e+00  -2.7092763399921019e-09 8.2334514915368471e-09 0.0000000000000000e+00  -2.6107853622445437e-09 9.0579695874529599e-09 0.0000000000000000e+00  -2.3333452058936653e-09 -5.5513866660611339e-09 0.0000000000000000e+00  -2.5982288519081916e-09 -6.3618962283084228e-09 0.0000000000000000e+00  -4.1868889375512294e-09 -6.1388959864617164e-09 0.0000000000000000e+00  -6.0032487811441060e-09 -5.6843888795854370e-09 0.0000000000000000e+00  -7.7034739663556132e-09 -5.0591609962644574e-09 0.0000000000000000e+00  -9.1812779280737594e-09 -4.3122604958289487e-09 0.0000000000000000e+00  -1.0396953813693142e-08 -3.4889304148625281e-09 0.0000000000000000e+00  -1.1337514930396925e-08 -2.6260490320043894e-09 0.0000000000000000e+00  -1.2002868741893850e-08 -1.7490559913940081e-09 0.0000000000000000e+00  -1.2398254980677985e-08 -8.7204011089117750e-10 0.0000000000000000e+00  -1.2529223969450874e-08 -2.4471723005409581e-13 0.0000000000000000e+00  -1.2398635427652058e-08 8.6598671391585839e-10 0.0000000000000000e+00  -1.2005623882786611e-08 1.7266605937472722e-09 0.0000000000000000e+00  -1.1346491814033621e-08 2.5776535107002913e-09 0.0000000000000000e+00  -1.0417476961389168e-08 3.4069398106646971e-09 0.0000000000000000e+00  -9.2193706435641059e-09 4.1922520536116613e-09 0.0000000000000000e+00  -7.7644225705703018e-09 4.9010156241509040e-09 0.0000000000000000e+00  -6.0890520128169800e-09 5.4934822094000373e-09 0.0000000000000000e+00  -4.2918893549086725e-09 5.9315552104908251e-09 0.0000000000000000e+00  -2.7037304317939878e-09 6.2088314249288972e-09 0.0000000000000000e+00  -2.4634842013565935e-09 7.0494088351935651e-09 0.0000000000000000e+00  -2.2715808933177960e-09 -3.4479102854068193e-09 0.0000000000000000e+00  -2.6256120040721260e-09 -4.2769714910328063e-09 0.0000000000000000e+00  -4.2612265316502888e-09 -4.1440797569800482e-09 0.0000000000000000e+00  -6.1199454120017946e-09 -3.8478642067324053e-09 0.0000000000000000e+00  -7.8710366408659498e-09 -3.4355314879615050e-09 0.0000000000000000e+00  -9.4093126408764738e-09 -2.9387288396159074e-09 0.0000000000000000e+00  -1.0690203734898623e-08 -2.3863544356184686