<?xml version="1.0"?>
<VTKFile type="UnstructuredGrid"  version="0.1"  >
<UnstructuredGrid>
<Piece  NumberOfPoints="651" NumberOfCells="1200">
<Points>
<DataArray  type="Float64"  NumberOfComponents="3"  format="ascii">0 0 0  50000 0 0  100000 0 0  150000 0 0  200000 0 0  250000 0 0  300000 0 0  350000 0 0  400000 0 0  450000 0 0  500000 0 0  550000 0 0  600000 0 0  650000 0 0  700000 0 0  750000 0 0  800000 0 0  850000 0 0  900000 0 0  950000 0 0  1000000 0 0  0 50000 0  50000 50000 0  100000 50000 0  150000 50000 0  200000 50000 0  250000 50000 0  300000 50000 0  350000 50000 0  400000 50000 0  450000 50000 0  500000 50000 0  550000 50000 0  600000 50000 0  650000 50000 0  700000 50000 0  750000 50000 0  800000 50000 0  850000 50000 0  900000 50000 0  950000 50000 0  1000000 50000 0  0 100000 0  50000 100000 0  100000 100000 0  150000 100000 0  200000 100000 0  250000 100000 0  300000 100000 0  350000 100000 0  400000 100000 0  450000 100000 0  500000 100000 0  550000 100000 0  600000 100000 0  650000 100000 0  700000 100000 0  750000 100000 0  800000 100000 0  850000 100000 0  900000 100000 0  950000 100000 0  1000000 100000 0  0 150000 0  50000 150000 0  100000 150000 0  150000 150000 0  200000 150000 0  250000 150000 0  300000 150000 0  350000 150000 0  400000 150000 0  450000 150000 0  500000 150000 0  550000 150000 0  600000 150000 0  650000 150000 0  700000 150000 0  750000 150000 0  800000 150000 0  850000 150000 0  900000 150000 0  950000 150000 0  1000000 150000 0  0 200000 0  50000 200000 0  100000 200000 0  150000 200000 0  200000 200000 0  250000 200000 0  300000 200000 0  350000 200000 0  400000 200000 0  450000 200000 0  500000 200000 0  550000 200000 0  600000 200000 0  650000 200000 0  700000 200000 0  750000 200000 0  800000 200000 0  850000 200000 0  900000 200000 0  950000 200000 0  1000000 200000 0  0 250000 0  50000 250000 0  100000 250000 0  150000 250000 0  200000 250000 0  250000 250000 0  300000 250000 0  350000 250000 0  400000 250000 0  450000 250000 0  500000 250000 0  550000 250000 0  600000 250000 0  650000 250000 0  700000 250000 0  750000 250000 0  800000 250000 0  850000 250000 0  900000 250000 0  950000 250000 0  1000000 250000 0  0 300000 0  50000 300000 0  100000 300000 0  150000 300000 0  200000 300000 0  250000 300000 0  300000 300000 0  350000 300000 0  400000 300000 0  450000 300000 0  500000 300000 0  550000 300000 0  600000 300000 0  650000 300000 0  700000 300000 0  750000 300000 0  800000 300000 0  850000 300000 0  900000 300000 0  950000 300000 0  1000000 300000 0  0 350000 0  50000 350000 0  100000 350000 0  150000 350000 0  200000 350000 0  250000 350000 0  300000 350000 0  350000 350000 0  400000 350000 0  450000 350000 0  500000 350000 0  550000 350000 0  600000 350000 0  650000 350000 0  700000 350000 0  750000 350000 0  800000 350000 0  850000 350000 0  900000 350000 0  950000 350000 0  1000000 350000 0  0 400000 0  50000 400000 0  100000 400000 0  150000 400000 0  200000 400000 0  250000 400000 0  300000 400000 0  350000 400000 0  400000 400000 0  450000 400000 0  500000 400000 0  550000 400000 0  600000 400000 0  650000 400000 0  700000 400000 0  750000 400000 0  800000 400000 0  850000 400000 0  900000 400000 0  950000 400000 0  1000000 400000 0  0 450000 0  50000 450000 0  100000 450000 0  150000 450000 0  200000 450000 0  250000 450000 0  300000 450000 0  350000 450000 0  400000 450000 0  450000 450000 0  500000 450000 0  550000 450000 0  600000 450000 0  650000 450000 0  700000 450000 0  750000 450000 0  800000 450000 0  850000 450000 0  900000 450000 0  950000 450000 0  1000000 450000 0  0 500000 0  50000 500000 0  100000 500000 0  150000 500000 0  200000 500000 0  250000 500000 0  300000 500000 0  350000 500000 0  400000 500000 0  450000 500000 0  500000 500000 0  550000 500000 0  600000 500000 0  650000 500000 0  700000 500000 0  750000 500000 0  800000 500000 0  850000 500000 0  900000 500000 0  950000 500000 0  1000000 500000 0  0 550000 0  50000 550000 0  100000 550000 0  150000 550000 0  200000 550000 0  250000 550000 0  300000 550000 0  350000 550000 0  400000 550000 0  450000 550000 0  500000 550000 0  550000 550000 0  600000 550000 0  650000 550000 0  700000 550000 0  750000 550000 0  800000 550000 0  850000 550000 0  900000 550000 0  950000 550000 0  1000000 550000 0  0 600000 0  50000 600000 0  100000 600000 0  150000 600000 0  200000 600000 0  250000 600000 0  300000 600000 0  350000 600000 0  400000 600000 0  450000 600000 0  500000 600000 0  550000 600000 0  600000 600000 0  650000 600000 0  700000 600000 0  750000 600000 0  800000 600000 0  850000 600000 0  900000 600000 0  950000 600000 0  1000000 600000 0  0 650000 0  50000 650000 0  100000 650000 0  150000 650000 0  200000 650000 0  250000 650000 0  300000 650000 0  350000 650000 0  400000 650000 0  450000 650000 0  500000 650000 0  550000 650000 0  600000 650000 0  650000 650000 0  700000 650000 0  750000 650000 0  800000 650000 0  850000 650000 0  900000 650000 0  950000 650000 0  1000000 650000 0  0 700000 0  50000 700000 0  100000 700000 0  150000 700000 0  200000 700000 0  250000 700000 0  300000 700000 0  350000 700000 0  400000 700000 0  450000 700000 0  500000 700000 0  550000 700000 0  600000 700000 0  650000 700000 0  700000 700000 0  750000 700000 0  800000 700000 0  850000 700000 0  900000 700000 0  950000 700000 0  1000000 700000 0  0 750000 0  50000 750000 0  100000 750000 0  150000 750000 0  200000 750000 0  250000 750000 0  300000 750000 0  350000 750000 0  400000 750000 0  450000 750000 0  500000 750000 0  550000 750000 0  600000 750000 0  650000 750000 0  700000 750000 0  750000 750000 0  800000 750000 0  850000 750000 0  900000 750000 0  950000 750000 0  1000000 750000 0  0 800000 0  50000 800000 0  100000 800000 0  150000 800000 0  200000 800000 0  250000 800000 0  300000 800000 0  350000 800000 0  400000 800000 0  450000 800000 0  500000 800000 0  550000 800000 0  600000 800000 0  650000 800000 0  700000 800000 0  750000 800000 0  800000 800000 0  850000 800000 0  900000 800000 0  950000 800000 0  1000000 800000 0  0 850000 0  50000 850000 0  100000 850000 0  150000 850000 0  200000 850000 0  250000 850000 0  300000 850000 0  350000 850000 0  400000 850000 0  450000 850000 0  500000 850000 0  550000 850000 0  600000 850000 0  650000 850000 0  700000 850000 0  750000 850000 0  800000 850000 0  850000 850000 0  900000 850000 0  950000 850000 0  1000000 850000 0  0 900000 0  50000 900000 0  100000 900000 0  150000 900000 0  200000 900000 0  250000 900000 0  300000 900000 0  350000 900000 0  400000 900000 0  450000 900000 0  500000 900000 0  550000 900000 0  600000 900000 0  650000 900000 0  700000 900000 0  750000 900000 0  800000 900000 0  850000 900000 0  900000 900000 0  950000 900000 0  1000000 900000 0  0 950000 0  50000 950000 0  100000 950000 0  150000 950000 0  200000 950000 0  250000 950000 0  300000 950000 0  350000 950000 0  400000 950000 0  450000 950000 0  500000 950000 0  550000 950000 0  600000 950000 0  650000 950000 0  700000 950000 0  750000 950000 0  800000 950000 0  850000 950000 0  900000 950000 0  950000 950000 0  1000000 950000 0  0 1000000 0  50000 1000000 0  100000 1000000 0  150000 1000000 0  200000 1000000 0  250000 1000000 0  300000 1000000 0  350000 1000000 0  400000 1000000 0  450000 1000000 0  500000 1000000 0  550000 1000000 0  600000 1000000 0  650000 1000000 0  700000 1000000 0  750000 1000000 0  800000 1000000 0  850000 1000000 0  900000 1000000 0  950000 1000000 0  1000000 1000000 0  0 1050000 0  50000 1050000 0  100000 1050000 0  150000 1050000 0  200000 1050000 0  250000 1050000 0  300000 1050000 0  350000 1050000 0  400000 1050000 0  450000 1050000 0  500000 1050000 0  550000 1050000 0  600000 1050000 0  650000 1050000 0  700000 1050000 0  750000 1050000 0  800000 1050000 0  850000 1050000 0  900000 1050000 0  950000 1050000 0  1000000 1050000 0  0 1100000 0  50000 1100000 0  100000 1100000 0  150000 1100000 0  200000 1100000 0  250000 1100000 0  300000 1100000 0  350000 1100000 0  400000 1100000 0  450000 1100000 0  500000 1100000 0  550000 1100000 0  600000 1100000 0  650000 1100000 0  700000 1100000 0  750000 1100000 0  800000 1100000 0  850000 1100000 0  900000 1100000 0  950000 1100000 0  1000000 1100000 0  0 1150000 0  50000 1150000 0  100000 1150000 0  150000 1150000 0  200000 1150000 0  250000 1150000 0  300000 1150000 0  350000 1150000 0  400000 1150000 0  450000 1150000 0  500000 1150000 0  550000 1150000 0  600000 1150000 0  650000 1150000 0  700000 1150000 0  750000 1150000 0  800000 1150000 0  850000 1150000 0  900000 1150000 0  950000 1150000 0  1000000 1150000 0  0 1200000 0  50000 1200000 0  100000 1200000 0  150000 1200000 0  200000 1200000 0  250000 1200000 0  300000 1200000 0  350000 1200000 0  400000 1200000 0  450000 1200000 0  500000 1200000 0  550000 1200000 0  600000 1200000 0  650000 1200000 0  700000 1200000 0  750000 1200000 0  800000 1200000 0  850000 1200000 0  900000 1200000 0  950000 1200000 0  1000000 1200000 0  0 1250000 0  50000 1250000 0  100000 1250000 0  150000 1250000 0  200000 1250000 0  250000 1250000 0  300000 1250000 0  350000 1250000 0  400000 1250000 0  450000 1250000 0  500000 1250000 0  550000 1250000 0  600000 1250000 0  650000 1250000 0  700000 1250000 0  750000 1250000 0  800000 1250000 0  850000 1250000 0  900000 1250000 0  950000 1250000 0  1000000 1250000 0  0 1300000 0  50000 1300000 0  100000 1300000 0  150000 1300000 0  200000 1300000 0  250000 1300000 0  300000 1300000 0  350000 1300000 0  400000 1300000 0  450000 1300000 0  500000 1300000 0  550000 1300000 0  600000 1300000 0  650000 1300000 0  700000 1300000 0  750000 1300000 0  800000 1300000 0  850000 1300000 0  900000 1300000 0  950000 1300000 0  1000000 1300000 0  0 1350000 0  50000 1350000 0  100000 1350000 0  150000 1350000 0  200000 1350000 0  250000 1350000 0  300000 1350000 0  350000 1350000 0  400000 1350000 0  450000 1350000 0  500000 1350000 0  550000 1350000 0  600000 1350000 0  650000 1350000 0  700000 135
[...]
<PointData  Vectors="f_19"> 
<DataArray  type="Float64"  Name="f_19"  NumberOfComponents="3" format="ascii">-2.4783398323815285e-08 -1.0897668984723933e-08 0.0000000000000000e+00  4.8229523262937853e-08 -6.8510235108100442e-09 0.0000000000000000e+00  4.2533643442250411e-08 -2.4050817703610308e-09 0.0000000000000000e+00  4.0124886460530252e-08 -9.9087728372667456e-10 0.0000000000000000e+00  3.8991061903244255e-08 -5.1050337024405712e-10 0.0000000000000000e+00  3.8282247462075175e-08 -3.2493566279205817e-10 0.0000000000000000e+00  3.7796565886128647e-08 -2.5931746607478541e-10 0.0000000000000000e+00  3.7476118525893206e-08 -2.5297450110244744e-10 0.0000000000000000e+00  3.7302898226705173e-08 -2.8049129944762790e-10 0.0000000000000000e+00  3.7272254581645110e-08 -3.2926651086738956e-10 0.0000000000000000e+00  3.7384621952887550e-08 -3.9154406107188873e-10 0.0000000000000000e+00  3.7643201420285880e-08 -4.6054355599380039e-10 0.0000000000000000e+00  3.8054818352876461e-08 -5.2710520449289227e-10 0.0000000000000000e+00  3.8634997720149917e-08 -5.7449762773147167e-10 0.0000000000000000e+00  3.9423029532986338e-08 -5.6785465172940346e-10 0.0000000000000000e+00  4.0524339470830707e-08 -4.3036642466728214e-10 0.0000000000000000e+00  4.2226236395555201e-08 1.3083358655214052e-11 0.0000000000000000e+00  4.5274739615298510e-08 1.1669935762910321e-09 0.0000000000000000e+00  5.1041144727594254e-08 3.9072134303175120e-09 0.0000000000000000e+00  5.8310577360297898e-08 8.6855914431333856e-09 0.0000000000000000e+00  -1.6024686651415117e-08 6.5067717213183204e-09 0.0000000000000000e+00  -1.8388104948274126e-08 -1.6689130185186055e-08 0.0000000000000000e+00  7.4365149637366840e-09 -1.1511746204139325e-08 0.0000000000000000e+00  1.8480264549977492e-08 -5.2870356274167933e-09 0.0000000000000000e+00  2.3424123676591040e-08 -2.4516514693746639e-09 0.0000000000000000e+00  2.5930900086743523e-08 -1.2184444094337181e-09 0.0000000000000000e+00  2.7357895704264001e-08 -6.4352995092583900e-10 0.0000000000000000e+00  2.8196935663824211e-08 -3.5958710961588063e-10 0.0000000000000000e+00  2.8697663907900899e-08 -2.1905679418131379e-10 0.0000000000000000e+00  2.8997432443470529e-08 -1.5438197550115947e-10 0.0000000000000000e+00  2.9171839862586361e-08 -1.2863131922666609e-10 0.0000000000000000e+00  2.9258817757829388e-08 -1.1688078186310870e-10 0.0000000000000000e+00  2.9269336336602354e-08 -9.7437178083466674e-11 0.0000000000000000e+00  2.9190815297491014e-08 -4.5759589410858834e-11 0.0000000000000000e+00  2.8985425953465414e-08 7.2532476480467421e-11 0.0000000000000000e+00  2.8582857978399449e-08 3.1342613108683142e-10 0.0000000000000000e+00  2.7862799790165155e-08 7.7865689484397275e-10 0.0000000000000000e+00  2.6607107957361069e-08 1.6702025413390994e-09 0.0000000000000000e+00  2.4335702885110921e-08 3.4113087020371369e-09 0.0000000000000000e+00  1.9672753330726480e-08 6.8261338361576956e-09 0.0000000000000000e+00  8.5070169751939934e-09 1.2807801208452026e-08 0.0000000000000000e+00  -1.8013166788144091e-08 1.0606445533111220e-08 0.0000000000000000e+00  -1.1188482849244668e-08 -2.0498411392561957e-08 0.0000000000000000e+00  -5.2621975466169077e-11 -1.8608464557612098e-08 0.0000000000000000e+00  6.3189501375191524e-09 -1.1225200019533527e-08 0.0000000000000000e+00  1.1219103959078744e-08 -6.4752381790626226e-09 0.0000000000000000e+00  1.4962526971539740e-08 -3.7637756453588429e-09 0.0000000000000000e+00  1.7528186555441203e-08 -2.2343658546675543e-09 0.0000000000000000e+00  1.9230319168013958e-08 -1.3439843628063615e-09 0.0000000000000000e+00  2.0335452845352578e-08 -8.0470129934550174e-10 0.0000000000000000e+00  2.1019223969440755e-08 -4.6035847542614192e-10 0.0000000000000000e+00  2.1388008253412728e-08 -2.1791680849241147e-10 0.0000000000000000e+00  2.1497941931997478e-08 -1.2952904312703298e-11 0.0000000000000000e+00  2.1366046352220005e-08 2.0906062532410737e-10 0.0000000000000000e+00  2.0974442765282663e-08 5.0570431640799821e-10 0.0000000000000000e+00  2.0268668731960442e-08 9.5066295073185116e-10 0.0000000000000000e+00  1.9149816921652150e-08 1.6520434788992114e-09 0.0000000000000000e+00  1.7458568715080966e-08 2.7824306823274005e-09 0.0000000000000000e+00  1.4948460795404440e-08 4.6261869082831165e-09 0.0000000000000000e+00  1.1254170253667224e-08 7.6210489066975523e-09 0.0000000000000000e+00  5.9156219764322100e-09 1.2194988677756073e-08 0.0000000000000000e+00  -1.2539209521405396e-09 1.7627844546298406e-08 0.0000000000000000e+00  -1.2551348280768836e-08 1.4458312858056768e-08 0.0000000000000000e+00  -7.3590328577863599e-09 -2.1197806391532453e-08 0.0000000000000000e+00  -1.4332936360164514e-09 -2.0267436398833267e-08 0.0000000000000000e+00  1.4628498417715972e-09 -1.5255322125059521e-08 0.0000000000000000e+00  4.3455257210916571e-09 -1.0308399798545718e-08 0.0000000000000000e+00  7.2478150818139987e-09 -6.7514939594757227e-09 0.0000000000000000e+00  9.7205544841739190e-09 -4.3783233621914718e-09 0.0000000000000000e+00  1.1598540260965037e-08 -2.8109949070351930e-09 0.0000000000000000e+00  1.2921041546792125e-08 -1.7536294777305026e-09 0.0000000000000000e+00  1.3777219849056192e-08 -1.0055043072465594e-09 0.0000000000000000e+00  1.4242228662994698e-08 -4.2899564852202866e-10 0.0000000000000000e+00  1.4362370358999812e-08 7.8827472907278840e-11 0.0000000000000000e+00  1.4153769554129872e-08 6.0655009760477619e-10 0.0000000000000000e+00  1.3603480561879690e-08 1.2440456036928474e-09 0.0000000000000000e+00  1.2670648486126565e-08 2.0969279375002966e-09 0.0000000000000000e+00  1.1288961259719886e-08 3.3020158068162988e-09 0.0000000000000000e+00  9.3759471169794789e-09 5.0419987469808431e-09 0.0000000000000000e+00  6.8643247746877203e-09 7.5428265045574436e-09 0.0000000000000000e+00  3.7881743893635690e-09 1.0989458600331563e-08 0.0000000000000000e+00  4.4246963836167964e-10 1.5183451497777946e-08 0.0000000000000000e+00  -2.6609875842795189e-09 1.8821433177394894e-08 0.0000000000000000e+00  -7.9703220585136659e-09 1.7253966801316504e-08 0.0000000000000000e+00  -5.4223898644705312e-09 -2.0629444591713621e-08 0.0000000000000000e+00  -1.8142643074762780e-09 -2.0185451123835764e-08 0.0000000000000000e+00  -7.0377190118704681e-10 -1.6803972842731738e-08 0.0000000000000000e+00  5.4636307643886797e-10 -1.2725009636291267e-08 0.0000000000000000e+00  2.2337985835485165e-09 -9.1312042487902638e-09 0.0000000000000000e+00  3.9982827496865792e-09 -6.3524876739157365e-09 0.0000000000000000e+00  5.5388660579760472e-09 -4.2982595117915041e-09 0.0000000000000000e+00  6.7278324023922976e-09 -2.7806432339873850e-09 0.0000000000000000e+00  7.5410455073741141e-09 -1.6230910440267180e-09 0.0000000000000000e+00  7.9927390878824579e-09 -6.7970267580981195e-10 0.0000000000000000e+00  8.1013304018393456e-09 1.7123030878977202e-10 0.0000000000000000e+00  7.8760724642123340e-09 1.0388572176739250e-09 0.0000000000000000e+00  7.3140699111250516e-09 2.0310439835286214e-09 0.0000000000000000e+00  6.4037200162132676e-09 3.2637671229770774e-09 0.0000000000000000e+00  5.1356970362485267e-09 4.8661583045248926e-09 0.0000000000000000e+00  3.5270311268340558e-09 6.9730831300875539e-09 0.0000000000000000e+00  1.6671741643925241e-09 9.6834407103738901e-09 0.0000000000000000e+00  -2.1474754381028464e-10 1.2939476456437983e-08 0.0000000000000000e+00  -1.7386000985712047e-09 1.6283776584299960e-08 0.0000000000000000e+00  -2.7485285991885178e-09 1.8686393908760595e-08 0.0000000000000000e+00  -5.5638737107498834e-09 1.8133669391805369e-08 0.0000000000000000e+00  -4.3226132443082802e-09 -1.9493527393153129e-08 0.0000000000000000e+00  -2.0133525129039715e-09 -1.9359755848412176e-08 0.0000000000000000e+00  -1.8654511255272457e-09 -1.6952272094326640e-08 0.0000000000000000e+00  -1.6863363086295200e-09 -1.3763359754473133e-08 0.0000000000000000e+00  -1.0279348633058051e-09 -1.0552665499740518e-08 0.0000000000000000e+00  -7.2985342547449233e-11 -7.7576763621713615e-09 0.0000000000000000e+00  9.1948582491476215e-10 -5.4789550521622364e-09 0.0000000000000000e+00  1.7715621243489585e-09 -3.6558299105869880e-09 0.0000000000000000e+00  2.3928224119196945e-09 -2.1736541382794512e-09 0.0000000000000000e+00  2.7471870872168859e-09 -9.0986522248181976e-10 0.0000000000000000e+00  2.8247343176858020e-09 2.5253109382632441e-10 0.0000000000000000e+00  2.6262344886845958e-09 1.4243692415139945e-09 0.0000000000000000e+00  2.1582754761981739e-09 2.7132275587980355e-09 0.0000000000000000e+00  1.4368893745014520e-09 4.2247001562686511e-09 0.0000000000000000e+00  4.9966927924304039e-10 6.0568560765081290e-09 0.0000000000000000e+00  -5.7259560689209803e-10 8.2793495765594251e-09 0.0000000000000000e+00  -1.6275261706229304e-09 1.0883479575243303e-08 0.0000000000000000e+00  -2.4278347433158907e-09 1.3690807083832247e-08 0.0000000000000000e+00  -2.7335611022301837e-09 1.6245096954845827e-08 0.0000000000000000e+00  -2.6802549749981521e-09 1.7868755400346861e-08 0.0000000000000000e+00  -4.2280969887602146e-09 1.7787733848410121e-08 0.0000000000000000e+00  -3.6216018772787955e-09 -1.8042995977324429e-08 0.0000000000000000e+00  -2.1618005581979892e-09 -1.8124889380345156e-08 0.0000000000000000e+00  -2.5963313805364723e-09 -1.6325243532719039e-08 0.0000000000000000e+00  -3.1063979030203835e-09 -1.3825430054264454e-08 0.0000000000000000e+00  -3.2104397488940201e-09 -1.1093621419826935e-08 0.0000000000000000e+00  -2.9595192192964163e-09 -8.4981750735289670e-09 0.0000000000000000e+00  -2.5291463804440699e-09 -6.2083152686157531e-09 0.0000000000000000e+00  -2.0792996186378064e-09 -4.2485650486148968e-09 0.0000000000000000e+00  -1.7178784943121190e-09 -2.5665217555518453e-09 0.0000000000000000e+00  -1.5056551055568034e-09 -1.0768391055071649e-09 0.0000000000000000e+00  -1.4704158684288841e-09 3.1656728560707750e-10 0.0000000000000000e+00  -1.6177123215620896e-09 1.7107487663352741e-09 0.0000000000000000e+00  -1.9350638713387246e-09 3.1987154691600020e-09 0.0000000000000000e+00  -2.3895962320947849e-09 4.8635470923424724e-09 0.0000000000000000e+00  -2.9199390329189655e-09 6.7664687098047584e-09 0.0000000000000000e+00  -3.4248280589118332e-09 8.9232787805448471e-09 0.0000000000000000e+00  -3.7563652281077755e-09 1.1264716243157691e-08 0.0000000000000000e+00  -3.7399950299583245e-09 1.3585775480754739e-08 0.0000000000000000e+00  -3.2741721393454401e-09 1.5518406732042799e-08 0.0000000000000000e+00  -2.6283249216366648e-09 1.6638485202108883e-08 0.0000000000000000e+00  -3.4308708069947332e-09 1.6807951447136045e-08 0.0000000000000000e+00  -3.1363045248798369e-09 -1.6383595573310369e-08 0.0000000000000000e+00  -2.2807540830220010e-09 -1.6622154390761512e-08 0.0000000000000000e+00  -3.1042835946353349e-09 -1.5225725499789043e-08 0.0000000000000000e+00  -4.0705580247447435e-09 -1.3237781220407542e-08 0.0000000000000000e+00  -4.7172750128973473e-09 -1.0951388507169493e-08 0.0000000000000000e+00  -5.0187947570400102e-09 -8.6413579635451770e-09 0.0000000000000000e+00  -5.0763700795288084e-09 -6.4759056231354204e-09 0.0000000000000000e+00  -5.0093280203335180e-09 -4.5192409777299956e-09 0.0000000000000000e+00  -4.9140427564674264e-09 -2.7633866111984043e-09 0.0000000000000000e+00  -4.8542976828805656e-09 -1.1590334571292184e-09 0.0000000000000000e+00  -4.8638743193336430e-09 3.6287126938975384e-10 0.0000000000000000e+00  -4.9512194131895293e-09 1.8774058823070418e-09 0.0000000000000000e+00  -5.1019004346160880e-09 3.4558042513426768e-09 0.0000000000000000e+00  -5.2778326471235098e-09 5.1553855975627878e-09 0.0000000000000000e+00  -5.4142974994681587e-09 7.0057331577372772e-09 0.0000000000000000e+00  -5.4181207482783738e-09 8.9886761148665065e-09 0.0000000000000000e+00  -5.1745126339632098e-09 1.1012955398047716e-08 0.0000000000000000e+00  -4.5776840609400351e-09 1.2892755384460143e-08 0.0000000000000000e+00  -3.6169207502977327e-09 1.4355241012703207e-08 0.0000000000000000e+00  -2.6068374493244049e-09 1.5139188164953947e-08 0.0000000000000000e+00  -2.9236899337517585e-09 1.5466724233877430e-08 0.0000000000000000e+00  -2.7818670968927133e-09 -1.4572915490084060e-08 0.0000000000000000e+00  -2.3756599303033320e-09 -1.4927748327027359e-08 0.0000000000000000e+00  -3.4752893393965873e-09 -1.3814931182289259e-08 0.0000000000000000e+00  -4.7534781984438316e-09 -1.2212823215272672e-08 0.0000000000000000e+00  -5.7826487178659408e-09 -1.0310524978546524e-08 0.0000000000000000e+00  -6.4972241070742617e-09 -8.3052983000271279e-09 0.0000000000000000e+00  -6.9444304049405032e-09 -6.3393006981894121e-09 0.0000000000000000e+00  -7.2024141357151064e-09 -4.4868187751299886e-09 0.0000000000000000e+00  -7.3446018560587673e-09 -2.7651319106524784e-09 0.0000000000000000e+00  -7.4253467016991820e-09 -1.1526974535326218e-09 0.0000000000000000e+00  -7.4760067060564435e-09 3.9393583713820087e-10 0.0000000000000000e+00  -7.5050973618036842e-09 1.9265018141334016e-09 0.0000000000000000e+00  -7.4991306403801336e-09 3.4935832640345845e-09 0.0000000000000000e+00  -7.4230652383754520e-09 5.1293589207430778e-09 0.0000000000000000e+00  -7.2211843936381670e-09 6.8408186371272440e-09 0.0000000000000000e+00  -6.8211218937013152e-09 8.5931121398554236e-09 0.0000000000000000e+00  -6.1461198496342582e-09 1.0295676604161668e-08 0.0000000000000000e+00  -5.1444850549346266e-09 1.1796860617388504e-08 0.0000000000000000e+00  -3.8572135295439885e-09 1.2902253206172253e-08 0.0000000000000000e+00  -2.6055399724656361e-09 1.3452977819147629e-08 0.0000000000000000e+00  -2.5828277871822743e-09 1.3890388230635959e-08 0.0000000000000000e+00  -2.5145859834795270e-09 -1.2649747369707638e-08 0.0000000000000000e+00  -2.4498178904487749e-09 -1.3091797179128005e-08 0.0000000000000000e+00  -3.7514408586947617e-09 -1.2189358364506382e-08 0.0000000000000000e+00  -5.2475803560449510e-09 -1.0887758722016475e-08 0.0000000000000000e+00  -6.5456598245069200e-09 -9.3133357695553644e-09 0.0000000000000000e+00  -7.5607909570930566e-09 -7.6060103522658061e-09 0.0000000000000000e+00  -8.3039642355105341e-09 -5.8776586033911453e-09 0.0000000000000000e+00  -8.8193774465392713e-09 -4.1978043340698401e-09 0.0000000000000000e+00  -9.1562470364110368e-09 -2.5948457822952089e-09 0.0000000000000000e+00  -9.3547478915975663e-09 -1.0655344385100412e-09 0.0000000000000000e+00  -9.4395857560042228e-09 4.1321270943365041e-10 0.0000000000000000e+00  -9.4177218210464338e-09 1.8728288238949343e-09 0.0000000000000000e+00  -9.2781777057127682e-09 3.3423982143919089e-09 0.0000000000000000e+00  -8.9931610616624549e-09 4.8382671920984540e-09 0.0000000000000000e+00  -8.5210096741627890e-09 6.3536102951974738e-09 0.0000000000000000e+00  -7.8126189722035976e-09 7.8486421022551257e-09 0.0000000000000000e+00  -6.8242015127632547e-09 9.2440932010078731e-09 0.0000000000000000e+00  -5.5417028616382820e-09 1.0423094029520324e-08 0.0000000000000000e+00  -4.0335585771427124e-09 1.1250166641178904e-08 0.0000000000000000e+00  -2.6136219236129746e-09 1.1630745574921006e-08 0.0000000000000000e+00  -2.3436899257376220e-09 1.2146771547542657e-08 0.0000000000000000e+00  -2.3099947057000768e-09 -1.0643409648804342e-08 0.0000000000000000e+00  -2.5063740928594671e-09 -1.1151090089757604e-08 0.0000000000000000e+00  -3.9571648784537747e-09 -1.0412561744642969e-08 0.0000000000000000e+00  -5.6068225961933743e-09 -9.3544023352041433e-09 0.0000000000000000e+00  -7.0931266826009482e-09 -8.0640651754793387e-09 0.0000000000000000e+00  -8.3225665883601414e-09 -6.6404133320787528e-09 0.0000000000000000e+00  -9.2826947776749261e-09 -5.1680533513112624e-09 0.0000000000000000e+00  -9.9922282353839554e-09 -3.7057929705671436e-09 0.0000000000000000e+00  -1.0479420723042043e-08 -2.2843307860943796e-09 0.0000000000000000e+00  -1.0770180936283685e-08 -9.1069078013986988e-10 0.0000000000000000e+00  -1.0881445012528919e-08 4.2406820100185149e-10 0.0000000000000000e+00  -1.0818038971474657e-08 1.7360802047485959e-09 0.0000000000000000e+00  -1.0571995357638205e-08 3.0398413739577753e-09 0.0000000000000000e+00  -1.0123903455469601e-08 4.3396848620451865e-09 0.0000000000000000e+00  -9.4465195572776227e-09 5.6219482903975199e-09 0.0000000000000000e+00  -8.5114321433390343e-09 6.8488337582914589e-09 0.0000000000000000e+00  -7.3001832188313950e-09 7.9559690807565698e-09 0.0000000000000000e+00  -5.8234495611566817e-09 8.8567281864931470e-09 0.0000000000000000e+00  -4.1635845366819116e-09 9.4584237013132671e-09 0.0000000000000000e+00  -2.6237822178464934e-09 9.7072211178491149e-09 0.0000000000000000e+00  -2.1714212752858140e-09 1.0278925433905642e-08 0.0000000000000000e+00  -2.1535717564944198e-09 -8.5771733058619249e-09 0.0000000000000000e+00  -2.5485084555634462e-09 -9.1340671010116692e-09 0.0000000000000000e+00  -4.1087616581244198e-09 -8.5292308910076457e-09 0.0000000000000000e+00  -5.8658570136960837e-09 -7.6764641922585600e-09 0.0000000000000000e+00  -7.4823021634828785e-09 -6.6383874853837218e-09 0.0000000000000000e+00  -8.8612524828765922e-09 -5.4844007437770276e-09 0.0000000000000000e+00  -9.9753816555678107e-09 -4.2764275688270248e-09 0.0000000000000000e+00  -1.0825309090072270e-08 -3.0609258909994573e-09 0.0000000000000000e+00  -1.1422935333434465e-08 -1.8658759993715327e-09 0.0000000000000000e+00  -1.1782036221121803e-08 -7.0261198522928471e-10 0.0000000000000000e+00  -1.1912443944665851e-08 4.2936110031778438e-10 0.0000000000000000e+00  -1.1816925748371446e-08 1.5361175497197910e-09 0.0000000000000000e+00  -1.1490362362181331e-08 2.6226484610877016e-09 0.0000000000000000e+00  -1.0921047906932349e-08 3.6864541469503442e-09 0.0000000000000000e+00  -1.0094160742323400e-08 4.7120425987425041e-09 0.0000000000000000e+00  -8.9976555610535458e-09 5.6672741042676449e-09 0.0000000000000000e+00  -7.6312237997774280e-09 6.5029156748699312e-09 0.0000000000000000e+00  -6.0212845843299405e-09 7.1571087943844511e-09 0.0000000000000000e+00  -4.2570184059353366e-09 7.5680619088981657e-09 0.0000000000000000e+00  -2.6320521771298152e-09 7.7081266030790716e-09 0.0000000000000000e+00  -2.0468305093316977e-09 8.3178551611311079e-09 0.0000000000000000e+00  -2.0363640280219127e-09 -6.4698655960473186e-09 0.0000000000000000e+00  -2.5792748159027336e-09 -7.0632350701287038e-09 0.0000000000000000e+00  -4.2180765927298613e-09 -6.5721426993610957e-09 0.0000000000000000e+00  -6.0485288571042428e-09 -5.8995208543146719e-09 0.0000000000000000e+00  -7.7525491266202423e-09 -5.0915168382928905e-09 0.0000000000000000e+00  -9.2324589894647170e-09 -4.1958613173003845e-09 0.0000000000000000e+00  -1.0451665071520242e-08 -3.2559128406277267e-09 0.0000000000000000e+00  -1.1398508347188259e-08 -2.3058957499056757e-09 0.0000000000000000e+00  -1.2073071432688796e-08 -1.3683588611555249e-09 0.0000000000000000e+00  -1.2479879394217698e-08 -4.5481836865134763e-10 0.0000000000000000e+00  -1.2623125890060520e-08 4.3133499708407444e-10 0.0000000000000000e+00  -1.2503921877621165e-08 1.2906578779406338e-09 0.0000000000000000e+00  -1.2119502207945710e-08 2.1230222114067829e-09 0.0000000000000000e+00  -1.1464353533508223e-08 2.9231839068138745e-09 0.0000000000000000e+00  -1.0533218982755151e-08 3.6771799499489521e-09 0.0000000000000000e+00  -9.3259509746459145e-09 4.3602820190246234e-09 0.0000000000000000e+00  -7.8545438701818595e-09 4.9373568590871219e-09 0.0000000000000000e+00  -6.1551724836035208e-09 5.3665469900991036e-09 0.0000000000000000e+00  -4.3203187607164299e-09 5.6087347526041604e-09 0.0000000000000000e+00  -2.6367642672638182e-09 5.6535632360190730e-09 0.0000000000000000e+00  -1.9592704265866570e-09 6.2875054900107164e-09 0.0000000000000000e+00  -1.9527363676823547e-09 -4.3369343320458272e-09 0.0000000000000000e+00  -2.6013871975610792e-09 -4.9566485182826658e-09 0.0000000000000000e+00  -4.2939413374910602e-09 -4.5660887322784258e-09 0.0000000000000000e+00  -6.1717049898085765e-09 -4.0571122480609420e-09 0.0000000000000000e+00  -7.9312860955529151e-09 -3.4643266687967244e-09 0.0000000000000000e+00  -9.4752682482130359e-09 -2.8187793428735204e-09 0.0000000000000000e+00  -1.0761522178628881e-08 -2.14832