<?xml version="1.0"?>
<VTKFile type="UnstructuredGrid"  version="0.1"  >
<UnstructuredGrid>
<Piece  NumberOfPoints="651" NumberOfCells="1200">
<Points>
<DataArray  type="Float64"  NumberOfComponents="3"  format="ascii">0 0 0  50000 0 0  100000 0 0  150000 0 0  200000 0 0  250000 0 0  300000 0 0  350000 0 0  400000 0 0  450000 0 0  500000 0 0  550000 0 0  600000 0 0  650000 0 0  700000 0 0  750000 0 0  800000 0 0  850000 0 0  900000 0 0  950000 0 0  1000000 0 0  0 50000 0  50000 50000 0  100000 50000 0  150000 50000 0  200000 50000 0  250000 50000 0  300000 50000 0  350000 50000 0  400000 50000 0  450000 50000 0  500000 50000 0  550000 50000 0  600000 50000 0  650000 50000 0  700000 50000 0  750000 50000 0  800000 50000 0  850000 50000 0  900000 50000 0  950000 50000 0  1000000 50000 0  0 100000 0  50000 100000 0  100000 100000 0  150000 100000 0  200000 100000 0  250000 100000 0  300000 100000 0  350000 100000 0  400000 100000 0  450000 100000 0  500000 100000 0  550000 100000 0  600000 100000 0  650000 100000 0  700000 100000 0  750000 100000 0  800000 100000 0  850000 100000 0  900000 100000 0  950000 100000 0  1000000 100000 0  0 150000 0  50000 150000 0  100000 150000 0  150000 150000 0  200000 150000 0  250000 150000 0  300000 150000 0  350000 150000 0  400000 150000 0  450000 150000 0  500000 150000 0  550000 150000 0  600000 150000 0  650000 150000 0  700000 150000 0  750000 150000 0  800000 150000 0  850000 150000 0  900000 150000 0  950000 150000 0  1000000 150000 0  0 200000 0  50000 200000 0  100000 200000 0  150000 200000 0  200000 200000 0  250000 200000 0  300000 200000 0  350000 200000 0  400000 200000 0  450000 200000 0  500000 200000 0  550000 200000 0  600000 200000 0  650000 200000 0  700000 200000 0  750000 200000 0  800000 200000 0  850000 200000 0  900000 200000 0  950000 200000 0  1000000 200000 0  0 250000 0  50000 250000 0  100000 250000 0  150000 250000 0  200000 250000 0  250000 250000 0  300000 250000 0  350000 250000 0  400000 250000 0  450000 250000 0  500000 250000 0  550000 250000 0  600000 250000 0  650000 250000 0  700000 250000 0  750000 250000 0  800000 250000 0  850000 250000 0  900000 250000 0  950000 250000 0  1000000 250000 0  0 300000 0  50000 300000 0  100000 300000 0  150000 300000 0  200000 300000 0  250000 300000 0  300000 300000 0  350000 300000 0  400000 300000 0  450000 300000 0  500000 300000 0  550000 300000 0  600000 300000 0  650000 300000 0  700000 300000 0  750000 300000 0  800000 300000 0  850000 300000 0  900000 300000 0  950000 300000 0  1000000 300000 0  0 350000 0  50000 350000 0  100000 350000 0  150000 350000 0  200000 350000 0  250000 350000 0  300000 350000 0  350000 350000 0  400000 350000 0  450000 350000 0  500000 350000 0  550000 350000 0  600000 350000 0  650000 350000 0  700000 350000 0  750000 350000 0  800000 350000 0  850000 350000 0  900000 350000 0  950000 350000 0  1000000 350000 0  0 400000 0  50000 400000 0  100000 400000 0  150000 400000 0  200000 400000 0  250000 400000 0  300000 400000 0  350000 400000 0  400000 400000 0  450000 400000 0  500000 400000 0  550000 400000 0  600000 400000 0  650000 400000 0  700000 400000 0  750000 400000 0  800000 400000 0  850000 400000 0  900000 400000 0  950000 400000 0  1000000 400000 0  0 450000 0  50000 450000 0  100000 450000 0  150000 450000 0  200000 450000 0  250000 450000 0  300000 450000 0  350000 450000 0  400000 450000 0  450000 450000 0  500000 450000 0  550000 450000 0  600000 450000 0  650000 450000 0  700000 450000 0  750000 450000 0  800000 450000 0  850000 450000 0  900000 450000 0  950000 450000 0  1000000 450000 0  0 500000 0  50000 500000 0  100000 500000 0  150000 500000 0  200000 500000 0  250000 500000 0  300000 500000 0  350000 500000 0  400000 500000 0  450000 500000 0  500000 500000 0  550000 500000 0  600000 500000 0  650000 500000 0  700000 500000 0  750000 500000 0  800000 500000 0  850000 500000 0  900000 500000 0  950000 500000 0  1000000 500000 0  0 550000 0  50000 550000 0  100000 550000 0  150000 550000 0  200000 550000 0  250000 550000 0  300000 550000 0  350000 550000 0  400000 550000 0  450000 550000 0  500000 550000 0  550000 550000 0  600000 550000 0  650000 550000 0  700000 550000 0  750000 550000 0  800000 550000 0  850000 550000 0  900000 550000 0  950000 550000 0  1000000 550000 0  0 600000 0  50000 600000 0  100000 600000 0  150000 600000 0  200000 600000 0  250000 600000 0  300000 600000 0  350000 600000 0  400000 600000 0  450000 600000 0  500000 600000 0  550000 600000 0  600000 600000 0  650000 600000 0  700000 600000 0  750000 600000 0  800000 600000 0  850000 600000 0  900000 600000 0  950000 600000 0  1000000 600000 0  0 650000 0  50000 650000 0  100000 650000 0  150000 650000 0  200000 650000 0  250000 650000 0  300000 650000 0  350000 650000 0  400000 650000 0  450000 650000 0  500000 650000 0  550000 650000 0  600000 650000 0  650000 650000 0  700000 650000 0  750000 650000 0  800000 650000 0  850000 650000 0  900000 650000 0  950000 650000 0  1000000 650000 0  0 700000 0  50000 700000 0  100000 700000 0  150000 700000 0  200000 700000 0  250000 700000 0  300000 700000 0  350000 700000 0  400000 700000 0  450000 700000 0  500000 700000 0  550000 700000 0  600000 700000 0  650000 700000 0  700000 700000 0  750000 700000 0  800000 700000 0  850000 700000 0  900000 700000 0  950000 700000 0  1000000 700000 0  0 750000 0  50000 750000 0  100000 750000 0  150000 750000 0  200000 750000 0  250000 750000 0  300000 750000 0  350000 750000 0  400000 750000 0  450000 750000 0  500000 750000 0  550000 750000 0  600000 750000 0  650000 750000 0  700000 750000 0  750000 750000 0  800000 750000 0  850000 750000 0  900000 750000 0  950000 750000 0  1000000 750000 0  0 800000 0  50000 800000 0  100000 800000 0  150000 800000 0  200000 800000 0  250000 800000 0  300000 800000 0  350000 800000 0  400000 800000 0  450000 800000 0  500000 800000 0  550000 800000 0  600000 800000 0  650000 800000 0  700000 800000 0  750000 800000 0  800000 800000 0  850000 800000 0  900000 800000 0  950000 800000 0  1000000 800000 0  0 850000 0  50000 850000 0  100000 850000 0  150000 850000 0  200000 850000 0  250000 850000 0  300000 850000 0  350000 850000 0  400000 850000 0  450000 850000 0  500000 850000 0  550000 850000 0  600000 850000 0  650000 850000 0  700000 850000 0  750000 850000 0  800000 850000 0  850000 850000 0  900000 850000 0  950000 850000 0  1000000 850000 0  0 900000 0  50000 900000 0  100000 900000 0  150000 900000 0  200000 900000 0  250000 900000 0  300000 900000 0  350000 900000 0  400000 900000 0  450000 900000 0  500000 900000 0  550000 900000 0  600000 900000 0  650000 900000 0  700000 900000 0  750000 900000 0  800000 900000 0  850000 900000 0  900000 900000 0  950000 900000 0  1000000 900000 0  0 950000 0  50000 950000 0  100000 950000 0  150000 950000 0  200000 950000 0  250000 950000 0  300000 950000 0  350000 950000 0  400000 950000 0  450000 950000 0  500000 950000 0  550000 950000 0  600000 950000 0  650000 950000 0  700000 950000 0  750000 950000 0  800000 950000 0  850000 950000 0  900000 950000 0  950000 950000 0  1000000 950000 0  0 1000000 0  50000 1000000 0  100000 1000000 0  150000 1000000 0  200000 1000000 0  250000 1000000 0  300000 1000000 0  350000 1000000 0  400000 1000000 0  450000 1000000 0  500000 1000000 0  550000 1000000 0  600000 1000000 0  650000 1000000 0  700000 1000000 0  750000 1000000 0  800000 1000000 0  850000 1000000 0  900000 1000000 0  950000 1000000 0  1000000 1000000 0  0 1050000 0  50000 1050000 0  100000 1050000 0  150000 1050000 0  200000 1050000 0  250000 1050000 0  300000 1050000 0  350000 1050000 0  400000 1050000 0  450000 1050000 0  500000 1050000 0  550000 1050000 0  600000 1050000 0  650000 1050000 0  700000 1050000 0  750000 1050000 0  800000 1050000 0  850000 1050000 0  900000 1050000 0  950000 1050000 0  1000000 1050000 0  0 1100000 0  50000 1100000 0  100000 1100000 0  150000 1100000 0  200000 1100000 0  250000 1100000 0  300000 1100000 0  350000 1100000 0  400000 1100000 0  450000 1100000 0  500000 1100000 0  550000 1100000 0  600000 1100000 0  650000 1100000 0  700000 1100000 0  750000 1100000 0  800000 1100000 0  850000 1100000 0  900000 1100000 0  950000 1100000 0  1000000 1100000 0  0 1150000 0  50000 1150000 0  100000 1150000 0  150000 1150000 0  200000 1150000 0  250000 1150000 0  300000 1150000 0  350000 1150000 0  400000 1150000 0  450000 1150000 0  500000 1150000 0  550000 1150000 0  600000 1150000 0  650000 1150000 0  700000 1150000 0  750000 1150000 0  800000 1150000 0  850000 1150000 0  900000 1150000 0  950000 1150000 0  1000000 1150000 0  0 1200000 0  50000 1200000 0  100000 1200000 0  150000 1200000 0  200000 1200000 0  250000 1200000 0  300000 1200000 0  350000 1200000 0  400000 1200000 0  450000 1200000 0  500000 1200000 0  550000 1200000 0  600000 1200000 0  650000 1200000 0  700000 1200000 0  750000 1200000 0  800000 1200000 0  850000 1200000 0  900000 1200000 0  950000 1200000 0  1000000 1200000 0  0 1250000 0  50000 1250000 0  100000 1250000 0  150000 1250000 0  200000 1250000 0  250000 1250000 0  300000 1250000 0  350000 1250000 0  400000 1250000 0  450000 1250000 0  500000 1250000 0  550000 1250000 0  600000 1250000 0  650000 1250000 0  700000 1250000 0  750000 1250000 0  800000 1250000 0  850000 1250000 0  900000 1250000 0  950000 1250000 0  1000000 1250000 0  0 1300000 0  50000 1300000 0  100000 1300000 0  150000 1300000 0  200000 1300000 0  250000 1300000 0  300000 1300000 0  350000 1300000 0  400000 1300000 0  450000 1300000 0  500000 1300000 0  550000 1300000 0  600000 1300000 0  650000 1300000 0  700000 1300000 0  750000 1300000 0  800000 1300000 0  850000 1300000 0  900000 1300000 0  950000 1300000 0  1000000 1300000 0  0 1350000 0  50000 1350000 0  100000 1350000 0  150000 1350000 0  200000 1350000 0  250000 1350000 0  300000 1350000 0  350000 1350000 0  400000 1350000 0  450000 1350000 0  500000 1350000 0  550000 1350000 0  600000 1350000 0  650000 1350000 0  700000 135
[...]
<PointData  Vectors="f_19"> 
<DataArray  type="Float64"  Name="f_19"  NumberOfComponents="3" format="ascii">-2.4162893214283694e-08 -1.0948700251061809e-08 0.0000000000000000e+00  4.8875548851971734e-08 -7.0174268321587048e-09 0.0000000000000000e+00  4.3126129044392967e-08 -2.6933663306982200e-09 0.0000000000000000e+00  4.0653244351451174e-08 -1.3074924390526618e-09 0.0000000000000000e+00  3.9429122195741043e-08 -8.1549645750337533e-10 0.0000000000000000e+00  3.8621361649778222e-08 -5.9671642881105185e-10 0.0000000000000000e+00  3.8033636950487955e-08 -4.8232949067470996e-10 0.0000000000000000e+00  3.7609808056137157e-08 -4.1409095454090424e-10 0.0000000000000000e+00  3.7332900002386756e-08 -3.6698678444983586e-10 0.0000000000000000e+00  3.7199313206549426e-08 -3.2774289248084918e-10 0.0000000000000000e+00  3.7210989286505812e-08 -2.8750329171069715e-10 0.0000000000000000e+00  3.7373522170878290e-08 -2.3851423443168208e-10 0.0000000000000000e+00  3.7697593583079770e-08 -1.7157498589688848e-10 0.0000000000000000e+00  3.8204852030883492e-08 -7.2412498707916968e-11 0.0000000000000000e+00  3.8943844087333687e-08 8.5771246671397701e-11 0.0000000000000000e+00  4.0032462232175753e-08 3.6059287909351277e-10 0.0000000000000000e+00  4.1770320732206877e-08 8.8931417045016479e-10 0.0000000000000000e+00  4.4902273708660545e-08 2.0155984353729014e-09 0.0000000000000000e+00  5.0755864627774582e-08 4.5563494458404968e-09 0.0000000000000000e+00  5.8000368384837152e-08 9.0787480818619116e-09 0.0000000000000000e+00  -1.6453578800180442e-08 6.9725125912963691e-09 0.0000000000000000e+00  -1.7904901305337648e-08 -1.6490845823040817e-08 0.0000000000000000e+00  7.3900097714354394e-09 -1.1516923425972189e-08 0.0000000000000000e+00  1.8362984936084236e-08 -5.3234275929498939e-09 0.0000000000000000e+00  2.3409106965702388e-08 -2.4545170779341397e-09 0.0000000000000000e+00  2.5960889995771368e-08 -1.1933778482652881e-09 0.0000000000000000e+00  2.7389864617263616e-08 -5.9792122844032690e-10 0.0000000000000000e+00  2.8208263782051651e-08 -2.9848994212613693e-10 0.0000000000000000e+00  2.8675603092391923e-08 -1.4450103929548939e-10 0.0000000000000000e+00  2.8935824403117355e-08 -6.7021798454269352e-11 0.0000000000000000e+00  2.9069590938174586e-08 -2.8865863960974304e-11 0.0000000000000000e+00  2.9119298849688008e-08 -5.5922099672091118e-12 0.0000000000000000e+00  2.9100516464188496e-08 2.3243199735119805e-11 0.0000000000000000e+00  2.9005867374420276e-08 7.9889897412933583e-11 0.0000000000000000e+00  2.8803399009605970e-08 1.9503033226838969e-10 0.0000000000000000e+00  2.8428454952296300e-08 4.1955225887908207e-10 0.0000000000000000e+00  2.7763029198830123e-08 8.5038981922074894e-10 0.0000000000000000e+00  2.6580552277691898e-08 1.6912868770291101e-09 0.0000000000000000e+00  2.4368395308820937e-08 3.3885067006988337e-09 0.0000000000000000e+00  1.9679675373639134e-08 6.8324381750460300e-09 0.0000000000000000e+00  8.2650543332568088e-09 1.2986248108899387e-08 0.0000000000000000e+00  -1.8421159943172750e-08 1.0904896033606445e-08 0.0000000000000000e+00  -1.0900952627228267e-08 -2.0058717801538001e-08 0.0000000000000000e+00  -1.8035979056084837e-10 -1.8679477902898616e-08 0.0000000000000000e+00  6.0012226342081958e-09 -1.1343934153089960e-08 0.0000000000000000e+00  1.0912241211809300e-08 -6.5237952423736664e-09 0.0000000000000000e+00  1.4717640138088955e-08 -3.7484632356159614e-09 0.0000000000000000e+00  1.7339987560859873e-08 -2.1735033100012545e-09 0.0000000000000000e+00  1.9081982191405695e-08 -1.2538981185974610e-09 0.0000000000000000e+00  2.0213557189535043e-08 -6.9713203114498474e-10 0.0000000000000000e+00  2.0915572049564678e-08 -3.4398087691681230e-10 0.0000000000000000e+00  2.1299223427122759e-08 -1.0020468132502522e-10 0.0000000000000000e+00  2.1424902271617992e-08 9.8401077319654757e-11 0.0000000000000000e+00  2.1313351470388501e-08 3.0503799492138861e-10 0.0000000000000000e+00  2.0949710689562484e-08 5.7510526969877568e-10 0.0000000000000000e+00  2.0281148823102121e-08 9.7983425226744209e-10 0.0000000000000000e+00  1.9207517617438837e-08 1.6262869552836154e-09 0.0000000000000000e+00  1.7563118647140078e-08 2.6914279253777608e-09 0.0000000000000000e+00  1.5088195092165346e-08 4.4767193752248662e-09 0.0000000000000000e+00  1.1400312988771711e-08 7.4564807083960603e-09 0.0000000000000000e+00  6.0323770686499492e-09 1.2097137321507310e-08 0.0000000000000000e+00  -1.2759462358124922e-09 1.7551533828470651e-08 0.0000000000000000e+00  -1.3244988791177427e-08 1.4651172471416663e-08 0.0000000000000000e+00  -7.1805793679356388e-09 -2.0645113161287524e-08 0.0000000000000000e+00  -1.5063246384430480e-09 -2.0174187282961675e-08 0.0000000000000000e+00  1.2098215432277827e-09 -1.5352334228856058e-08 0.0000000000000000e+00  4.0233886637956410e-09 -1.0394298327641545e-08 0.0000000000000000e+00  6.9344274282344305e-09 -6.7853997577988492e-09 0.0000000000000000e+00  9.4488337556107842e-09 -4.3630420155928617e-09 0.0000000000000000e+00  1.1377347651674557e-08 -2.7593613404303685e-09 0.0000000000000000e+00  1.2750059608188722e-08 -1.6790248959778332e-09 0.0000000000000000e+00  1.3654381397179251e-08 -9.1989857452260435e-10 0.0000000000000000e+00  1.4166562339964841e-08 -3.4335777552628752e-10 0.0000000000000000e+00  1.4334717860376345e-08 1.5365289718030699e-10 0.0000000000000000e+00  1.4176524131639783e-08 6.5913758674074417e-10 0.0000000000000000e+00  1.3679605621620502e-08 1.2622061026876712e-09 0.0000000000000000e+00  1.2801876345336848e-08 2.0686006615007030e-09 0.0000000000000000e+00  1.1473108085613611e-08 3.2182059325723299e-09 0.0000000000000000e+00  9.6039342214206510e-09 4.9029528947835757e-09 0.0000000000000000e+00  7.1191241545268565e-09 7.3673355488286413e-09 0.0000000000000000e+00  4.0491936982240144e-09 1.0821158067405306e-08 0.0000000000000000e+00  6.8610783311907141e-10 1.5073606018063818e-08 0.0000000000000000e+00  -2.6039249830824733e-09 1.8723773530296388e-08 0.0000000000000000e+00  -8.9273845113712796e-09 1.7495860459919960e-08 0.0000000000000000e+00  -5.2942748843563719e-09 -2.0016970175938822e-08 0.0000000000000000e+00  -1.8576037252934971e-09 -1.9944884232174411e-08 0.0000000000000000e+00  -8.8698410534503477e-10 -1.6812046209855176e-08 0.0000000000000000e+00  2.8115830586608275e-10 -1.2793910370649592e-08 0.0000000000000000e+00  1.9433792145877955e-09 -9.1907897523889086e-09 0.0000000000000000e+00  3.7247915921714221e-09 -6.3821999658905487e-09 0.0000000000000000e+00  5.3063238177038029e-09 -4.2987358223421702e-09 0.0000000000000000e+00  6.5482339622121565e-09 -2.7602557142622610e-09 0.0000000000000000e+00  7.4201480367894927e-09 -1.5924966412597133e-09 0.0000000000000000e+00  7.9335357119733212e-09 -6.5008801779086181e-10 0.0000000000000000e+00  8.1056189718316307e-09 1.8854803225229439e-10 0.0000000000000000e+00  7.9447157542536974e-09 1.0325973195392815e-09 0.0000000000000000e+00  7.4463390947176352e-09 1.9905544240138689e-09 0.0000000000000000e+00  6.5959747404087442e-09 3.1806165824926746e-09 0.0000000000000000e+00  5.3798025741190100e-09 4.7372828942296274e-09 0.0000000000000000e+00  3.8094126961630992e-09 6.8056339549107883e-09 0.0000000000000000e+00  1.9698621967323946e-09 9.4999907553630605e-09 0.0000000000000000e+00  8.8064441616907219e-11 1.2779363953879766e-08 0.0000000000000000e+00  -1.4720882556713435e-09 1.6194308940980175e-08 0.0000000000000000e+00  -2.7123936875316137e-09 1.8679824787074912e-08 0.0000000000000000e+00  -6.6183670666415989e-09 1.8486854280637274e-08 0.0000000000000000e+00  -4.2172328265641572e-09 -1.8849325424317439e-08 0.0000000000000000e+00  -2.0359902765044647e-09 -1.9025043612713621e-08 0.0000000000000000e+00  -1.9931291294985649e-09 -1.6867208231628761e-08 0.0000000000000000e+00  -1.8868342579620964e-09 -1.3787247916457692e-08 0.0000000000000000e+00  -1.2648694187444047e-09 -1.0611161268924077e-08 0.0000000000000000e+00  -3.0970302629673182e-10 -7.8162252459997332e-09 0.0000000000000000e+00  7.1074373071861402e-10 -5.5261260282115091e-09 0.0000000000000000e+00  1.6091302094177801e-09 -3.6921313899943896e-09 0.0000000000000000e+00  2.2878864607004536e-09 -2.2052179440557111e-09 0.0000000000000000e+00  2.7060917743858410e-09 -9.4524515425027807e-10 0.0000000000000000e+00  2.8504129426624017e-09 2.0396464918686261e-10 0.0000000000000000e+00  2.7187089115296401e-09 1.3535034802001586e-09 0.0000000000000000e+00  2.3144244490014674e-09 2.6124526972252690e-09 0.0000000000000000e+00  1.6497842990769074e-09 4.0898140963521459e-09 0.0000000000000000e+00  7.5792738007314582e-10 5.8898905112902055e-09 0.0000000000000000e+00  -2.8483221029132475e-10 8.0921275765606279e-09 0.0000000000000000e+00  -1.3297166895259852e-09 1.0700982189373209e-08 0.0000000000000000e+00  -2.1436704578422405e-09 1.3553058915484025e-08 0.0000000000000000e+00  -2.5076697788216665e-09 1.6207320547721497e-08 0.0000000000000000e+00  -2.6896369545993683e-09 1.7987735693421689e-08 0.0000000000000000e+00  -5.2511681002763023e-09 1.8247916133876693e-08 0.0000000000000000e+00  -3.5259057695827042e-09 -1.7383673388423657e-08 0.0000000000000000e+00  -2.1695824512187028e-09 -1.7728380959144806e-08 0.0000000000000000e+00  -2.6825844615887051e-09 -1.6166237521536026e-08 0.0000000000000000e+00  -3.2508097450009073e-09 -1.3800335698989054e-08 0.0000000000000000e+00  -3.3904847309450016e-09 -1.1136957502702373e-08 0.0000000000000000e+00  -3.1472801925678463e-09 -8.5711664689818367e-09 0.0000000000000000e+00  -2.6992399490818724e-09 -6.2916740260047383e-09 0.0000000000000000e+00  -2.2121934482360273e-09 -4.3355243972697255e-09 0.0000000000000000e+00  -1.8001497731649978e-09 -2.6575613468247970e-09 0.0000000000000000e+00  -1.5291798625445658e-09 -1.1762090819332713e-09 0.0000000000000000e+00  -1.4315565520884047e-09 2.0310360363249907e-10 0.0000000000000000e+00  -1.5168889800002317e-09 1.5776147220749816e-09 0.0000000000000000e+00  -1.7767236217928410e-09 3.0421961800607631e-09 0.0000000000000000e+00  -2.1823942693699243e-09 4.6837990100436150e-09 0.0000000000000000e+00  -2.6768250811925481e-09 6.5700052856230777e-09 0.0000000000000000e+00  -3.1627447284998471e-09 8.7257995860641843e-09 0.0000000000000000e+00  -3.4957019634101574e-09 1.1093964247339805e-08 0.0000000000000000e+00  -3.5057614881018901e-09 1.3484436523999407e-08 0.0000000000000000e+00  -3.1092648136490020e-09 1.5547499677363579e-08 0.0000000000000000e+00  -2.6751518110457087e-09 1.6875595686341720e-08 0.0000000000000000e+00  -4.3519089629386084e-09 1.7348230394804143e-08 0.0000000000000000e+00  -3.0444526894339578e-09 -1.5719639697498858e-08 0.0000000000000000e+00  -2.2785139033144675e-09 -1.6184531160670502e-08 0.0000000000000000e+00  -3.1611980289951525e-09 -1.5012596027078671e-08 0.0000000000000000e+00  -4.1711432128763044e-09 -1.3170317576285968e-08 0.0000000000000000e+00  -4.8477296632927507e-09 -1.0975659161720180e-08 0.0000000000000000e+00  -5.1590368244222373e-09 -8.7198575797017014e-09 0.0000000000000000e+00  -5.2056285177505270e-09 -6.5855977095542283e-09 0.0000000000000000e+00  -5.1098620259188945e-09 -4.6479989963545035e-09 0.0000000000000000e+00  -4.9726617913323092e-09 -2.9063714459150622e-09 0.0000000000000000e+00  -4.8626407659353664e-09 -1.3156905462528375e-09 0.0000000000000000e+00  -4.8182332664323205e-09 1.9116316070372050e-10 0.0000000000000000e+00  -4.8523275549023748e-09 1.6892922639415208e-09 0.0000000000000000e+00  -4.9548128434637630e-09 3.2518206092575211e-09 0.0000000000000000e+00  -5.0918331733977234e-09 4.9399553915704445e-09 0.0000000000000000e+00  -5.2026711701514967e-09 6.7893910273272898e-09 0.0000000000000000e+00  -5.1976558741750060e-09 8.7904824229825114e-09 0.0000000000000000e+00  -4.9648623733443100e-09 1.0863062163283980e-08 0.0000000000000000e+00  -4.4018051946348754e-09 1.2835310744246730e-08 0.0000000000000000e+00  -3.5102063737420180e-09 1.4451563137360252e-08 0.0000000000000000e+00  -2.6756522887446926e-09 1.5471657940491080e-08 0.0000000000000000e+00  -3.7137232135969199e-09 1.6059993740523587e-08 0.0000000000000000e+00  -2.6920976145803225e-09 -1.3910706717361688e-08 0.0000000000000000e+00  -2.3674056220285865e-09 -1.4463220669222725e-08 0.0000000000000000e+00  -3.5125384913539876e-09 -1.3563626043119115e-08 0.0000000000000000e+00  -4.8220664009425961e-09 -1.2112458097965675e-08 0.0000000000000000e+00  -5.8740105712851152e-09 -1.0317224351730800e-08 0.0000000000000000e+00  -6.5973161736728190e-09 -8.3849824988416888e-09 0.0000000000000000e+00  -7.0372950028062567e-09 -6.4678244396496237e-09 0.0000000000000000e+00  -7.2733750793346779e-09 -4.6485859824881475e-09 0.0000000000000000e+00  -7.3821428314585311e-09 -2.9509328796205816e-09 0.0000000000000000e+00  -7.4219596385019907e-09 -1.3574385464765243e-09 0.0000000000000000e+00  -7.4284588608764186e-09 1.7332891277031869e-10 0.0000000000000000e+00  -7.4144348458294032e-09 1.6930058650822569e-09 0.0000000000000000e+00  -7.3705630918923735e-09 3.2519322114111764e-09 0.0000000000000000e+00  -7.2657367252066764e-09 4.8879359556471065e-09 0.0000000000000000e+00  -7.0477544811732873e-09 6.6136339214760146e-09 0.0000000000000000e+00  -6.6470723055767233e-09 8.4018570987835040e-09 0.0000000000000000e+00  -5.9888195432788708e-09 1.0171840588465066e-08 0.0000000000000000e+00  -5.0227711801152526e-09 1.1783940971119226e-08 0.0000000000000000e+00  -3.7974949955323676e-09 1.3057718937819725e-08 0.0000000000000000e+00  -2.6830790131067317e-09 1.3856051667028698e-08 0.0000000000000000e+00  -3.2369091178193732e-09 1.4515769727148438e-08 0.0000000000000000e+00  -2.4277407978204055e-09 -1.1992674015264945e-08 0.0000000000000000e+00  -2.4389228327178699e-09 -1.2609956977609243e-08 0.0000000000000000e+00  -3.7765463134745362e-09 -1.1911989450878522e-08 0.0000000000000000e+00  -5.2942423177105983e-09 -1.0763551847766978e-08 0.0000000000000000e+00  -6.6083294184713487e-09 -9.3061747904125699e-09 0.0000000000000000e+00  -7.6297760062796732e-09 -7.6855059864400644e-09 0.0000000000000000e+00  -8.3675043228239695e-09 -6.0198777765030052e-09 0.0000000000000000e+00  -8.8660996907572345e-09 -4.3850610927367641e-09 0.0000000000000000e+00  -9.1769211831212768e-09 -2.8145798415730015e-09 0.0000000000000000e+00  -9.3433074775559233e-09 -1.3087430841237200e-09 0.0000000000000000e+00  -9.3936138460482767e-09 1.5367760820380812e-10 0.0000000000000000e+00  -9.3385933566394003e-09 1.6039733049286320e-09 0.0000000000000000e+00  -9.1709712146231592e-09 3.0727894014424863e-09 0.0000000000000000e+00  -8.8663656068847703e-09 4.5797386646610341e-09 0.0000000000000000e+00  -8.3859885719459936e-09 6.1229647902236723e-09 0.0000000000000000e+00  -7.6827625933691652e-09 7.6693139352007138e-09 0.0000000000000000e+00  -6.7137551721256928e-09 9.1477016009115773e-09 0.0000000000000000e+00  -5.4648276429877634e-09 1.0450796552984746e-08 0.0000000000000000e+00  -4.0085225779283742e-09 1.1453574015589040e-08 0.0000000000000000e+00  -2.6908152806961131e-09 1.2082944249938275e-08 0.0000000000000000e+00  -2.8689446982583295e-09 1.2789738299528299e-08 0.0000000000000000e+00  -2.2287752049204408e-09 -9.9926534017326349e-09 0.0000000000000000e+00  -2.4957127177439228e-09 -1.0658101964431256e-08 0.0000000000000000e+00  -3.9758620793988958e-09 -1.0118023643882415e-08 0.0000000000000000e+00  -5.6395755190206715e-09 -9.2139955734005723e-09 0.0000000000000000e+00  -7.1360524024363161e-09 -8.0472782977996518e-09 0.0000000000000000e+00  -8.3689944337994736e-09 -6.7199809282275166e-09 0.0000000000000000e+00  -9.3242404094864036e-09 -5.3207066782045396e-09 0.0000000000000000e+00  -1.0020554749648258e-08 -3.9126008706595995e-09 0.0000000000000000e+00  -1.0487671427055416e-08 -2.5302407625819188e-09 0.0000000000000000e+00  -1.0753932517464800e-08 -1.1835185006768461e-09 0.0000000000000000e+00  -1.0839234202832694e-08 1.3494216281452650e-10 0.0000000000000000e+00  -1.0751555310104851e-08 1.4411435638054744e-09 0.0000000000000000e+00  -1.0486007699163298e-08 2.7509262062627070e-09 0.0000000000000000e+00  -1.0025940776561441e-08 4.0714333214719764e-09 0.0000000000000000e+00  -9.3462814885842410e-09 5.3932138248136401e-09 0.0000000000000000e+00  -8.4198766762006413e-09 6.6839403070711994e-09 0.0000000000000000e+00  -7.2282808601598132e-09 7.8857148505899828e-09 0.0000000000000000e+00  -5.7810777406060900e-09 8.9190211827030831e-09 0.0000000000000000e+00  -4.1625124196033168e-09 9.6985872297963398e-09 0.0000000000000000e+00  -2.6951311223847319e-09 1.0191636373504640e-08 0.0000000000000000e+00  -2.5802860418221086e-09 1.0929840275483283e-08 0.0000000000000000e+00  -2.0821566293689036e-09 -7.9323315383585596e-09 0.0000000000000000e+00  -2.5405375805583539e-09 -8.6336230944603768e-09 0.0000000000000000e+00  -4.1252871962942973e-09 -8.2238967743466608e-09 0.0000000000000000e+00  -5.8907234974278786e-09 -7.5259762206942405e-09 0.0000000000000000e+00  -7.5125054594118425e-09 -6.6159950212767335e-09 0.0000000000000000e+00  -8.8921794735772924e-09 -5.5651162200459623e-09 0.0000000000000000e+00  -1.0001260417901082e-08 -4.4376101059905226e-09 0.0000000000000000e+00  -1.0840393215495073e-08 -3.2828403475667985e-09 0.0000000000000000e+00  -1.1422561748613433e-08 -2.1316223357341570e-09 0.0000000000000000e+00  -1.1763388493322342e-08 -9.9751345861746946e-10 0.0000000000000000e+00  -1.1875005952444820e-08 1.1872053365883984e-10 0.0000000000000000e+00  -1.1762655088672650e-08 1.2230475375964775e-09 0.0000000000000000e+00  -1.1423612970006796e-08 2.3215811566560967e-09 0.0000000000000000e+00  -1.0848249602895768e-08 3.4141550739015966e-09 0.0000000000000000e+00  -1.0023236530265249e-08 4.4887134898164589e-09 0.0000000000000000e+00  -8.9371413297128202e-09 5.5174422724784547e-09 0.0000000000000000e+00  -7.5891006183890406e-09 6.4559831765039037e-09 0.0000000000000000e+00  -6.0039356327998203e-09 7.2474900130562421e-09 0.0000000000000000e+00  -4.2713774491186748e-09 7.8352369508212983e-09 0.0000000000000000e+00  -2.6945287789006291e-09 8.2121515477492040e-09 0.0000000000000000e+00  -2.3535873458310386e-09 8.9705619555834723e-09 0.0000000000000000e+00  -1.9802265395912386e-09 -5.8294802624029393e-09 0.0000000000000000e+00  -2.5760862855052835e-09 -6.5573419047553060e-09 0.0000000000000000e+00  -4.2353720180204082e-09 -6.2605434367459980e-09 0.0000000000000000e+00  -6.0696914157448717e-09 -5.7437839741552495e-09 0.0000000000000000e+00  -7.7750362749390117e-09 -5.0671073599899193e-09 0.0000000000000000e+00  -9.2530614786289980e-09 -4.2791780606045964e-09 0.0000000000000000e+00  -1.0466614985854419e-08 -3.4246666322385220e-09 0.0000000000000000e+00  -1.1404204456344039e-08 -2.5397279365506500e-09 0.0000000000000000e+00  -1.2066772208236004e-08 -1.6489812626863741e-09 0.0000000000000000e+00  -1.2460227721144009e-08 -7.6566416506393565e-10 0.0000000000000000e+00  -1.2590468713138514e-08 1.0581545166502002e-10 0.0000000000000000e+00  -1.2460421228157343e-08 9.6591394786636355e-10 0.0000000000000000e+00  -1.2069041957122012e-08 1.8154062333884490e-09 0.0000000000000000e+00  -1.1412238450858356e-08 2.6509276344852600e-09 0.0000000000000000e+00  -1.0485649673081185e-08 3.4612336440215430e-09 0.0000000000000000e+00  -9.2892538322444080e-09 4.2248989598723674e-09 0.0000000000000000e+00  -7.8341819770388601e-09 4.9103059254747133e-09 0.0000000000000000e+00  -6.1548765358821882e-09 5.4789426363579394e-09 0.0000000000000000e+00  -4.3435878813950231e-09 5.8950381109071826e-09 0.0000000000000000e+00  -2.6889123463114870e-09 6.1681759768464785e-09 0.0000000000000000e+00  -2.1783633858913061e-09 6.9383354255637166e-09 0.0000000000000000e+00  -1.9185745165969705e-09 -3.6989564558404182e-09 0.0000000000000000e+00  -2.6047465231604647e-09 -4.4462965424434437e-09 0.0000000000000000e+00  -4.3137954261277618e-09 -4.2515343050210990e-09 0.0000000000000000e+00  -6.1916666679087272e-09 -3.9000286926667505e-09 0.0000000000000000e+00  -7.9491160222410035e-09 -3.4410909653745058e-09 0.0000000000000000e+00  -9.4887609856840113e-09 -2.9063258949606939e-09 0.0000000000000000e+00  -1.0768488010814036e-08 -2.32433790742