<?xml version="1.0"?>
<VTKFile type="UnstructuredGrid"  version="0.1"  >
<UnstructuredGrid>
<Piece  NumberOfPoints="651" NumberOfCells="1200">
<Points>
<DataArray  type="Float64"  NumberOfComponents="3"  format="ascii">0 0 0  50000 0 0  100000 0 0  150000 0 0  200000 0 0  250000 0 0  300000 0 0  350000 0 0  400000 0 0  450000 0 0  500000 0 0  550000 0 0  600000 0 0  650000 0 0  700000 0 0  750000 0 0  800000 0 0  850000 0 0  900000 0 0  950000 0 0  1000000 0 0  0 50000 0  50000 50000 0  100000 50000 0  150000 50000 0  200000 50000 0  250000 50000 0  300000 50000 0  350000 50000 0  400000 50000 0  450000 50000 0  500000 50000 0  550000 50000 0  600000 50000 0  650000 50000 0  700000 50000 0  750000 50000 0  800000 50000 0  850000 50000 0  900000 50000 0  950000 50000 0  1000000 50000 0  0 100000 0  50000 100000 0  100000 100000 0  150000 100000 0  200000 100000 0  250000 100000 0  300000 100000 0  350000 100000 0  400000 100000 0  450000 100000 0  500000 100000 0  550000 100000 0  600000 100000 0  650000 100000 0  700000 100000 0  750000 100000 0  800000 100000 0  850000 100000 0  900000 100000 0  950000 100000 0  1000000 100000 0  0 150000 0  50000 150000 0  100000 150000 0  150000 150000 0  200000 150000 0  250000 150000 0  300000 150000 0  350000 150000 0  400000 150000 0  450000 150000 0  500000 150000 0  550000 150000 0  600000 150000 0  650000 150000 0  700000 150000 0  750000 150000 0  800000 150000 0  850000 150000 0  900000 150000 0  950000 150000 0  1000000 150000 0  0 200000 0  50000 200000 0  100000 200000 0  150000 200000 0  200000 200000 0  250000 200000 0  300000 200000 0  350000 200000 0  400000 200000 0  450000 200000 0  500000 200000 0  550000 200000 0  600000 200000 0  650000 200000 0  700000 200000 0  750000 200000 0  800000 200000 0  850000 200000 0  900000 200000 0  950000 200000 0  1000000 200000 0  0 250000 0  50000 250000 0  100000 250000 0  150000 250000 0  200000 250000 0  250000 250000 0  300000 250000 0  350000 250000 0  400000 250000 0  450000 250000 0  500000 250000 0  550000 250000 0  600000 250000 0  650000 250000 0  700000 250000 0  750000 250000 0  800000 250000 0  850000 250000 0  900000 250000 0  950000 250000 0  1000000 250000 0  0 300000 0  50000 300000 0  100000 300000 0  150000 300000 0  200000 300000 0  250000 300000 0  300000 300000 0  350000 300000 0  400000 300000 0  450000 300000 0  500000 300000 0  550000 300000 0  600000 300000 0  650000 300000 0  700000 300000 0  750000 300000 0  800000 300000 0  850000 300000 0  900000 300000 0  950000 300000 0  1000000 300000 0  0 350000 0  50000 350000 0  100000 350000 0  150000 350000 0  200000 350000 0  250000 350000 0  300000 350000 0  350000 350000 0  400000 350000 0  450000 350000 0  500000 350000 0  550000 350000 0  600000 350000 0  650000 350000 0  700000 350000 0  750000 350000 0  800000 350000 0  850000 350000 0  900000 350000 0  950000 350000 0  1000000 350000 0  0 400000 0  50000 400000 0  100000 400000 0  150000 400000 0  200000 400000 0  250000 400000 0  300000 400000 0  350000 400000 0  400000 400000 0  450000 400000 0  500000 400000 0  550000 400000 0  600000 400000 0  650000 400000 0  700000 400000 0  750000 400000 0  800000 400000 0  850000 400000 0  900000 400000 0  950000 400000 0  1000000 400000 0  0 450000 0  50000 450000 0  100000 450000 0  150000 450000 0  200000 450000 0  250000 450000 0  300000 450000 0  350000 450000 0  400000 450000 0  450000 450000 0  500000 450000 0  550000 450000 0  600000 450000 0  650000 450000 0  700000 450000 0  750000 450000 0  800000 450000 0  850000 450000 0  900000 450000 0  950000 450000 0  1000000 450000 0  0 500000 0  50000 500000 0  100000 500000 0  150000 500000 0  200000 500000 0  250000 500000 0  300000 500000 0  350000 500000 0  400000 500000 0  450000 500000 0  500000 500000 0  550000 500000 0  600000 500000 0  650000 500000 0  700000 500000 0  750000 500000 0  800000 500000 0  850000 500000 0  900000 500000 0  950000 500000 0  1000000 500000 0  0 550000 0  50000 550000 0  100000 550000 0  150000 550000 0  200000 550000 0  250000 550000 0  300000 550000 0  350000 550000 0  400000 550000 0  450000 550000 0  500000 550000 0  550000 550000 0  600000 550000 0  650000 550000 0  700000 550000 0  750000 550000 0  800000 550000 0  850000 550000 0  900000 550000 0  950000 550000 0  1000000 550000 0  0 600000 0  50000 600000 0  100000 600000 0  150000 600000 0  200000 600000 0  250000 600000 0  300000 600000 0  350000 600000 0  400000 600000 0  450000 600000 0  500000 600000 0  550000 600000 0  600000 600000 0  650000 600000 0  700000 600000 0  750000 600000 0  800000 600000 0  850000 600000 0  900000 600000 0  950000 600000 0  1000000 600000 0  0 650000 0  50000 650000 0  100000 650000 0  150000 650000 0  200000 650000 0  250000 650000 0  300000 650000 0  350000 650000 0  400000 650000 0  450000 650000 0  500000 650000 0  550000 650000 0  600000 650000 0  650000 650000 0  700000 650000 0  750000 650000 0  800000 650000 0  850000 650000 0  900000 650000 0  950000 650000 0  1000000 650000 0  0 700000 0  50000 700000 0  100000 700000 0  150000 700000 0  200000 700000 0  250000 700000 0  300000 700000 0  350000 700000 0  400000 700000 0  450000 700000 0  500000 700000 0  550000 700000 0  600000 700000 0  650000 700000 0  700000 700000 0  750000 700000 0  800000 700000 0  850000 700000 0  900000 700000 0  950000 700000 0  1000000 700000 0  0 750000 0  50000 750000 0  100000 750000 0  150000 750000 0  200000 750000 0  250000 750000 0  300000 750000 0  350000 750000 0  400000 750000 0  450000 750000 0  500000 750000 0  550000 750000 0  600000 750000 0  650000 750000 0  700000 750000 0  750000 750000 0  800000 750000 0  850000 750000 0  900000 750000 0  950000 750000 0  1000000 750000 0  0 800000 0  50000 800000 0  100000 800000 0  150000 800000 0  200000 800000 0  250000 800000 0  300000 800000 0  350000 800000 0  400000 800000 0  450000 800000 0  500000 800000 0  550000 800000 0  600000 800000 0  650000 800000 0  700000 800000 0  750000 800000 0  800000 800000 0  850000 800000 0  900000 800000 0  950000 800000 0  1000000 800000 0  0 850000 0  50000 850000 0  100000 850000 0  150000 850000 0  200000 850000 0  250000 850000 0  300000 850000 0  350000 850000 0  400000 850000 0  450000 850000 0  500000 850000 0  550000 850000 0  600000 850000 0  650000 850000 0  700000 850000 0  750000 850000 0  800000 850000 0  850000 850000 0  900000 850000 0  950000 850000 0  1000000 850000 0  0 900000 0  50000 900000 0  100000 900000 0  150000 900000 0  200000 900000 0  250000 900000 0  300000 900000 0  350000 900000 0  400000 900000 0  450000 900000 0  500000 900000 0  550000 900000 0  600000 900000 0  650000 900000 0  700000 900000 0  750000 900000 0  800000 900000 0  850000 900000 0  900000 900000 0  950000 900000 0  1000000 900000 0  0 950000 0  50000 950000 0  100000 950000 0  150000 950000 0  200000 950000 0  250000 950000 0  300000 950000 0  350000 950000 0  400000 950000 0  450000 950000 0  500000 950000 0  550000 950000 0  600000 950000 0  650000 950000 0  700000 950000 0  750000 950000 0  800000 950000 0  850000 950000 0  900000 950000 0  950000 950000 0  1000000 950000 0  0 1000000 0  50000 1000000 0  100000 1000000 0  150000 1000000 0  200000 1000000 0  250000 1000000 0  300000 1000000 0  350000 1000000 0  400000 1000000 0  450000 1000000 0  500000 1000000 0  550000 1000000 0  600000 1000000 0  650000 1000000 0  700000 1000000 0  750000 1000000 0  800000 1000000 0  850000 1000000 0  900000 1000000 0  950000 1000000 0  1000000 1000000 0  0 1050000 0  50000 1050000 0  100000 1050000 0  150000 1050000 0  200000 1050000 0  250000 1050000 0  300000 1050000 0  350000 1050000 0  400000 1050000 0  450000 1050000 0  500000 1050000 0  550000 1050000 0  600000 1050000 0  650000 1050000 0  700000 1050000 0  750000 1050000 0  800000 1050000 0  850000 1050000 0  900000 1050000 0  950000 1050000 0  1000000 1050000 0  0 1100000 0  50000 1100000 0  100000 1100000 0  150000 1100000 0  200000 1100000 0  250000 1100000 0  300000 1100000 0  350000 1100000 0  400000 1100000 0  450000 1100000 0  500000 1100000 0  550000 1100000 0  600000 1100000 0  650000 1100000 0  700000 1100000 0  750000 1100000 0  800000 1100000 0  850000 1100000 0  900000 1100000 0  950000 1100000 0  1000000 1100000 0  0 1150000 0  50000 1150000 0  100000 1150000 0  150000 1150000 0  200000 1150000 0  250000 1150000 0  300000 1150000 0  350000 1150000 0  400000 1150000 0  450000 1150000 0  500000 1150000 0  550000 1150000 0  600000 1150000 0  650000 1150000 0  700000 1150000 0  750000 1150000 0  800000 1150000 0  850000 1150000 0  900000 1150000 0  950000 1150000 0  1000000 1150000 0  0 1200000 0  50000 1200000 0  100000 1200000 0  150000 1200000 0  200000 1200000 0  250000 1200000 0  300000 1200000 0  350000 1200000 0  400000 1200000 0  450000 1200000 0  500000 1200000 0  550000 1200000 0  600000 1200000 0  650000 1200000 0  700000 1200000 0  750000 1200000 0  800000 1200000 0  850000 1200000 0  900000 1200000 0  950000 1200000 0  1000000 1200000 0  0 1250000 0  50000 1250000 0  100000 1250000 0  150000 1250000 0  200000 1250000 0  250000 1250000 0  300000 1250000 0  350000 1250000 0  400000 1250000 0  450000 1250000 0  500000 1250000 0  550000 1250000 0  600000 1250000 0  650000 1250000 0  700000 1250000 0  750000 1250000 0  800000 1250000 0  850000 1250000 0  900000 1250000 0  950000 1250000 0  1000000 1250000 0  0 1300000 0  50000 1300000 0  100000 1300000 0  150000 1300000 0  200000 1300000 0  250000 1300000 0  300000 1300000 0  350000 1300000 0  400000 1300000 0  450000 1300000 0  500000 1300000 0  550000 1300000 0  600000 1300000 0  650000 1300000 0  700000 1300000 0  750000 1300000 0  800000 1300000 0  850000 1300000 0  900000 1300000 0  950000 1300000 0  1000000 1300000 0  0 1350000 0  50000 1350000 0  100000 1350000 0  150000 1350000 0  200000 1350000 0  250000 1350000 0  300000 1350000 0  350000 1350000 0  400000 1350000 0  450000 1350000 0  500000 1350000 0  550000 1350000 0  600000 1350000 0  650000 1350000 0  700000 135
[...]
<PointData  Vectors="f_19"> 
<DataArray  type="Float64"  Name="f_19"  NumberOfComponents="3" format="ascii">-2.4206627795061692e-08 -1.1058821609203360e-08 0.0000000000000000e+00  4.8857459198926200e-08 -7.1119322760500063e-09 0.0000000000000000e+00  4.3164130599681298e-08 -2.7744693614441435e-09 0.0000000000000000e+00  4.0744620802555277e-08 -1.3904434846764476e-09 0.0000000000000000e+00  3.9568632599544389e-08 -9.1164185923645365e-10 0.0000000000000000e+00  3.8802468053249437e-08 -7.1397426906860607e-10 0.0000000000000000e+00  3.8248472453471878e-08 -6.2654538657473495e-10 0.0000000000000000e+00  3.7849215904650838e-08 -5.8923782297253291e-10 0.0000000000000000e+00  3.7586408620872544e-08 -5.7486485231861571e-10 0.0000000000000000e+00  3.7455290376470279e-08 -5.6743909789182989e-10 0.0000000000000000e+00  3.7457132445851983e-08 -5.5476982052387081e-10 0.0000000000000000e+00  3.7597788020401386e-08 -5.2526979733734296e-10 0.0000000000000000e+00  3.7889604379676652e-08 -4.6580272821026637e-10 0.0000000000000000e+00  3.8357673801124625e-08 -3.5878490331272356e-10 0.0000000000000000e+00  3.9055789505305662e-08 -1.7576732966138630e-10 0.0000000000000000e+00  4.0108247823139842e-08 1.3970544389811594e-10 0.0000000000000000e+00  4.1820611854990921e-08 7.2007980766030582e-10 0.0000000000000000e+00  4.4940634112912299e-08 1.9006290850688093e-09 0.0000000000000000e+00  5.0792973484729200e-08 4.4879242053142690e-09 0.0000000000000000e+00  5.8038844258176964e-08 9.0404184278627034e-09 0.0000000000000000e+00  -1.6411582937839059e-08 6.9365061181100409e-09 0.0000000000000000e+00  -1.7936464802616639e-08 -1.6630713619526065e-08 0.0000000000000000e+00  7.4398964269797762e-09 -1.1590932486845465e-08 0.0000000000000000e+00  1.8471711336497198e-08 -5.3821186273049818e-09 0.0000000000000000e+00  2.3533709742175861e-08 -2.5181098673558263e-09 0.0000000000000000e+00  2.6102481138118869e-08 -1.2561875285585562e-09 0.0000000000000000e+00  2.7549725010059774e-08 -6.5767828641469811e-10 0.0000000000000000e+00  2.8382031584728144e-08 -3.5367669953135270e-10 0.0000000000000000e+00  2.8856168372193432e-08 -1.9373431474935027e-10 0.0000000000000000e+00  2.9114712632092044e-08 -1.0887396202278766e-10 0.0000000000000000e+00  2.9237756522291131e-08 -6.1906906863730034e-11 0.0000000000000000e+00  2.9267971096774386e-08 -2.8656609472888640e-11 0.0000000000000000e+00  2.9222230846043466e-08 1.0603698887088242e-11 0.0000000000000000e+00  2.9095669185308569e-08 7.6836935504266825e-11 0.0000000000000000e+00  2.8860069092041582e-08 1.9889787308384462e-10 0.0000000000000000e+00  2.8455442594419692e-08 4.2559533326647812e-10 0.0000000000000000e+00  2.7768630357639366e-08 8.5220025727639000e-10 0.0000000000000000e+00  2.6576815354465022e-08 1.6822895372019791e-09 0.0000000000000000e+00  2.4368293434790622e-08 3.3648485831254580e-09 0.0000000000000000e+00  1.9692102874740263e-08 6.7971145294717881e-09 0.0000000000000000e+00  8.2922411635126246e-09 1.2954869451153731e-08 0.0000000000000000e+00  -1.8378557628418495e-08 1.0869434461571391e-08 0.0000000000000000e+00  -1.0909074247919037e-08 -2.0232150652337607e-08 0.0000000000000000e+00  -1.3263159131458840e-10 -1.8760815716589482e-08 0.0000000000000000e+00  6.1102541474214652e-09 -1.1398660663892323e-08 0.0000000000000000e+00  1.1043569101999843e-08 -6.5846357477727885e-09 0.0000000000000000e+00  1.4855949267971391e-08 -3.8079991078118803e-09 0.0000000000000000e+00  1.7479671379244165e-08 -2.2251894431432518e-09 0.0000000000000000e+00  1.9219542395714009e-08 -1.2929984501008055e-09 0.0000000000000000e+00  2.0344928373959846e-08 -7.2007930879795756e-10 0.0000000000000000e+00  2.1036289662717059e-08 -3.4816285352491292e-10 0.0000000000000000e+00  2.1405073800527651e-08 -8.4059350135968309e-11 0.0000000000000000e+00  2.1512561230929896e-08 1.3499640333633396e-10 0.0000000000000000e+00  2.1380962094926581e-08 3.6018794429493184e-10 0.0000000000000000e+00  2.0997328218425916e-08 6.4430898961925204e-10 0.0000000000000000e+00  2.0310932531379694e-08 1.0556576451922329e-09 0.0000000000000000e+00  1.9223538290198301e-08 1.6986547018860760e-09 0.0000000000000000e+00  1.7570704572136101e-08 2.7489337747839312e-09 0.0000000000000000e+00  1.5092878196797612e-08 4.5092599285259994e-09 0.0000000000000000e+00  1.1406693320728677e-08 7.4592329565170217e-09 0.0000000000000000e+00  6.0437980624730295e-09 1.2075129748554371e-08 0.0000000000000000e+00  -1.2454087118127675e-09 1.7529131428877699e-08 0.0000000000000000e+00  -1.3172133958434863e-08 1.4610626173116853e-08 0.0000000000000000e+00  -7.1734643519525796e-09 -2.0843134744087848e-08 0.0000000000000000e+00  -1.4741100323984570e-09 -2.0305953208865416e-08 0.0000000000000000e+00  1.2884254030099705e-09 -1.5432705976136662e-08 0.0000000000000000e+00  4.1293737358706460e-09 -1.0462338500761081e-08 0.0000000000000000e+00  7.0500191069128788e-09 -6.8443096972034531e-09 0.0000000000000000e+00  9.5628063275873342e-09 -4.4088891002763778e-09 0.0000000000000000e+00  1.1483098898487389e-08 -2.7879133528861448e-09 0.0000000000000000e+00  1.2843184538044305e-08 -1.6869647177720946e-09 0.0000000000000000e+00  1.3731724989162581e-08 -9.0511629706905604e-10 0.0000000000000000e+00  1.4226092056293283e-08 -3.0522305197002120e-10 0.0000000000000000e+00  1.4375676379938213e-08 2.1389399510818766e-10 0.0000000000000000e+00  1.4199572998355910e-08 7.3789633269469997e-10 0.0000000000000000e+00  1.3686811407556652e-08 1.3531856545134138e-09 0.0000000000000000e+00  1.2796457071184575e-08 2.1627828899186295e-09 0.0000000000000000e+00  1.1458929247843087e-08 3.3044865794570462e-09 0.0000000000000000e+00  9.5848586460370256e-09 4.9696932302256542e-09 0.0000000000000000e+00  7.0984817054514799e-09 7.4049604183309607e-09 0.0000000000000000e+00  4.0298777005846639e-09 1.0825725408644033e-08 0.0000000000000000e+00  6.7245172831627370e-10 1.5051251788045610e-08 0.0000000000000000e+00  -2.5851174917990443e-09 1.8707545611709190e-08 0.0000000000000000e+00  -8.8067521110813245e-09 1.7446609926946282e-08 0.0000000000000000e+00  -5.2788336461525666e-09 -2.0238851730868155e-08 0.0000000000000000e+00  -1.8312287240970913e-09 -2.0117583074094443e-08 0.0000000000000000e+00  -8.2811330236393223e-10 -1.6923020045412112e-08 0.0000000000000000e+00  3.6207562698127655e-10 -1.2875030293536362e-08 0.0000000000000000e+00  2.0336527351483331e-09 -9.2502969756626181e-09 0.0000000000000000e+00  3.8130241575197519e-09 -6.4207399876441458e-09 0.0000000000000000e+00  5.3845932092993349e-09 -4.3147464968658023e-09 0.0000000000000000e+00  6.6115074221102210e-09 -2.7521341526213446e-09 0.0000000000000000e+00  7.4655215550682375e-09 -1.5595336857006700e-09 0.0000000000000000e+00  7.9598122674852287e-09 -5.9301138895433120e-10 0.0000000000000000e+00  8.1130904274043583e-09 2.6713181933037949e-10 0.0000000000000000e+00  7.9349713903180730e-09 1.1278354662447613e-09 0.0000000000000000e+00  7.4219811591572815e-09 2.0951644780177681e-09 0.0000000000000000e+00  6.5601986719061391e-09 3.2850674559974314e-09 0.0000000000000000e+00  5.3358922925077985e-09 4.8305363118784846e-09 0.0000000000000000e+00  3.7603115945578848e-09 6.8765929713114576e-09 0.0000000000000000e+00  1.9181050737152328e-09 9.5396976034766956e-09 0.0000000000000000e+00  3.6586341733956544e-11 1.2783977550395143e-08 0.0000000000000000e+00  -1.5164835361387471e-09 1.6169483436389282e-08 0.0000000000000000e+00  -2.7089778226297388e-09 1.8661122333754500e-08 0.0000000000000000e+00  -6.4402655535683765e-09 1.8417429874514163e-08 0.0000000000000000e+00  -4.1962439106050394e-09 -1.9094987062455523e-08 0.0000000000000000e+00  -2.0120389790120006e-09 -1.9226215950799974e-08 0.0000000000000000e+00  -1.9459559348655157e-09 -1.7003420004689550e-08 0.0000000000000000e+00  -1.8240468504345359e-09 -1.3881226051906809e-08 0.0000000000000000e+00  -1.1954936775356900e-09 -1.0671722446817417e-08 0.0000000000000000e+00  -2.4334419671598989e-10 -7.8470629888454538e-09 0.0000000000000000e+00  7.6653746676051993e-10 -5.5285579721973909e-09 0.0000000000000000e+00  1.6493033958726530e-09 -3.6668705526345479e-09 0.0000000000000000e+00  2.3096152749672526e-09 -2.1534325000194313e-09 0.0000000000000000e+00  2.7084141462608122e-09 -8.6924421871378964e-10 0.0000000000000000e+00  2.8338804961600451e-09 3.0025067687213315e-10 0.0000000000000000e+00  2.6850339570397932e-09 1.4642106246366790e-09 0.0000000000000000e+00  2.2660818936895660e-09 2.7296969628373696e-09 0.0000000000000000e+00  1.5895741620154763e-09 4.2039384445006851e-09 0.0000000000000000e+00  6.8857533192953029e-10 5.9901537571303031e-09 0.0000000000000000e+00  -3.6087628900976877e-10 8.1678984781521515e-09 0.0000000000000000e+00  -1.4100225602458344e-09 1.0743443597474227e-08 0.0000000000000000e+00  -2.2245394628858482e-09 1.3557513152141418e-08 0.0000000000000000e+00  -2.5791787282028745e-09 1.6176912338364551e-08 0.0000000000000000e+00  -2.6986133040528929e-09 1.7953509628965555e-08 0.0000000000000000e+00  -5.0159188687827743e-09 1.8142836163640429e-08 0.0000000000000000e+00  -3.5000790269824916e-09 -1.7653480118885438e-08 0.0000000000000000e+00  -2.1461676615681419e-09 -1.7951882936283171e-08 0.0000000000000000e+00  -2.6420625665035683e-09 -1.6320910364786550e-08 0.0000000000000000e+00  -3.1999498864602514e-09 -1.3903888728250328e-08 0.0000000000000000e+00  -3.3363721574271629e-09 -1.1197451051744464e-08 0.0000000000000000e+00  -3.0977377387867845e-09 -8.5938999756417845e-09 0.0000000000000000e+00  -2.6608121184209353e-09 -6.2802614294038012e-09 0.0000000000000000e+00  -2.1894742878681452e-09 -4.2929025606993797e-09 0.0000000000000000e+00  -1.7957578310653746e-09 -2.5868284731364562e-09 0.0000000000000000e+00  -1.5439972730046758e-09 -1.0812668691943435e-09 0.0000000000000000e+00  -1.4650652097803897e-09 3.1708866705092917e-10 0.0000000000000000e+00  -1.5675508918822994e-09 1.7039334096288176e-09 0.0000000000000000e+00  -1.8423824208838034e-09 3.1725395946678074e-09 0.0000000000000000e+00  -2.2606554503499840e-09 4.8084794930821311e-09 0.0000000000000000e+00  -2.7653272908397233e-09 6.6785012714369526e-09 0.0000000000000000e+00  -3.2591771533798457e-09 8.8076314830734711e-09 0.0000000000000000e+00  -3.5973290328202144e-09 1.1139869681432554e-08 0.0000000000000000e+00  -3.6078062561764197e-09 1.3487895004601461e-08 0.0000000000000000e+00  -3.1988495181634865e-09 1.5507307225048435e-08 0.0000000000000000e+00  -2.6905082921854654e-09 1.6813102925750213e-08 0.0000000000000000e+00  -4.0685878247140731e-09 1.7193810242271769e-08 0.0000000000000000e+00  -3.0133117219227470e-09 -1.6014078071401994e-08 0.0000000000000000e+00  -2.2544153659975170e-09 -1.6427201718639974e-08 0.0000000000000000e+00  -3.1241462033018439e-09 -1.5180676138578856e-08 0.0000000000000000e+00  -4.1277507776291582e-09 -1.3279758978864142e-08 0.0000000000000000e+00  -4.8041003300644378e-09 -1.1034148818825694e-08 0.0000000000000000e+00  -5.1216768133851371e-09 -8.7337348432508428e-09 0.0000000000000000e+00  -5.1800234496827158e-09 -6.5602194440676899e-09 0.0000000000000000e+00  -5.0999364915611536e-09 -4.5881951935968830e-09 0.0000000000000000e+00  -4.9806832050002324e-09 -2.8169857375984340e-09 0.0000000000000000e+00  -4.8893711609060033e-09 -1.2020844553988257e-09 0.0000000000000000e+00  -4.8632097797056656e-09 3.2271289915119209e-10 0.0000000000000000e+00  -4.9142015227098400e-09 1.8313443313718318e-09 0.0000000000000000e+00  -5.0316960615865702e-09 3.3957017656552123e-09 0.0000000000000000e+00  -5.1815908867766667e-09 5.0759025172599786e-09 0.0000000000000000e+00  -5.3030744713184455e-09 6.9069082459160612e-09 0.0000000000000000e+00  -5.3062662714603310e-09 8.8788799331031819e-09 0.0000000000000000e+00  -5.0784302412380661e-09 1.0912102271066120e-08 0.0000000000000000e+00  -4.5145029645104079e-09 1.2835924877655475e-08 0.0000000000000000e+00  -3.6070437756981896e-09 1.4397139559008156e-08 0.0000000000000000e+00  -2.6911120128974796e-09 1.5371282211824001e-08 0.0000000000000000e+00  -3.3970925109462269e-09 1.5847939528169662e-08 0.0000000000000000e+00  -2.6542830488556856e-09 -1.4230116179271403e-08 0.0000000000000000e+00  -2.3419004365541689e-09 -1.4723164811235848e-08 0.0000000000000000e+00  -3.4771713600006847e-09 -1.3741658498381396e-08 0.0000000000000000e+00  -4.7833309422185657e-09 -1.2224656502136521e-08 0.0000000000000000e+00  -5.8374886220952066e-09 -1.0371695273033269e-08 0.0000000000000000e+00  -6.5685953712046700e-09 -8.3890752011738775e-09 0.0000000000000000e+00  -7.0209386525639745e-09 -6.4283373255808654e-09 0.0000000000000000e+00  -7.2725986324992888e-09 -4.5719329716823193e-09 0.0000000000000000e+00  -7.3987643252112705e-09 -2.8434555861467715e-09 0.0000000000000000e+00  -7.4565230727810549e-09 -1.2257699319846690e-09 0.0000000000000000e+00  -7.4804632577754145e-09 3.2194042358235570e-10 0.0000000000000000e+00  -7.4826119507950474e-09 1.8504685362084221e-09 0.0000000000000000e+00  -7.4531493897840385e-09 3.4092117296676125e-09 0.0000000000000000e+00  -7.3606779150925145e-09 5.0350950135581915e-09 0.0000000000000000e+00  -7.1527639101611284e-09 6.7399911915916065e-09 0.0000000000000000e+00  -6.7594372179218762e-09 8.4962040564089012e-09 0.0000000000000000e+00  -6.1047667121891110e-09 1.0222605408434453e-08 0.0000000000000000e+00  -5.1357388421067456e-09 1.1779187238607577e-08 0.0000000000000000e+00  -3.8915883199824060e-09 1.2985298778944357e-08 0.0000000000000000e+00  -2.6937047468728935e-09 1.3712597707638537e-08 0.0000000000000000e+00  -2.9039284979461476e-09 1.4244230411428727e-08 0.0000000000000000e+00  -2.3811732723221010e-09 -1.2337066909801574e-08 0.0000000000000000e+00  -2.4116203727557586e-09 -1.2885848980085910e-08 0.0000000000000000e+00  -3.7421104608876500e-09 -1.2097525885139996e-08 0.0000000000000000e+00  -5.2587308319450200e-09 -1.0876064667474547e-08 0.0000000000000000e+00  -6.5769417963515450e-09 -9.3548766087535400e-09 0.0000000000000000e+00  -7.6074120215510085e-09 -7.6789432891574395e-09 0.0000000000000000e+00  -8.3579439651204635e-09 -5.9661841204593341e-09 0.0000000000000000e+00  -8.8718708622066788e-09 -4.2920202577030644e-09 0.0000000000000000e+00  -9.1993366758901766e-09 -2.6898106264390077e-09 0.0000000000000000e+00  -9.3825975570293299e-09 -1.1599646894643056e-09 0.0000000000000000e+00  -9.4491217148197495e-09 3.1837633419370896e-10 0.0000000000000000e+00  -9.4089963863993398e-09 1.7759145157882871e-09 0.0000000000000000e+00  -9.2544837394893361e-09 3.2425635255511255e-09 0.0000000000000000e+00  -8.9608707374396836e-09 4.7371372940553123e-09 0.0000000000000000e+00  -8.4890357482132748e-09 6.2569549626518481e-09 0.0000000000000000e+00  -7.7913499039590410e-09 7.7679764641633971e-09 0.0000000000000000e+00  -6.8237473033434377e-09 9.1980036899209765e-09 0.0000000000000000e+00  -5.5694225213428554e-09 1.0438045106075150e-08 0.0000000000000000e+00  -4.0921762971044223e-09 1.1360738701066462e-08 0.0000000000000000e+00  -2.6936233647048012e-09 1.1895715308861582e-08 0.0000000000000000e+00  -2.5358436419529692e-09 1.2462578800227705e-08 0.0000000000000000e+00  -2.1707715534483535e-09 -1.0361566184920274e-08 0.0000000000000000e+00  -2.4664593090533168e-09 -1.0948723751242068e-08 0.0000000000000000e+00  -3.9423779466172643e-09 -1.0309150163858973e-08 0.0000000000000000e+00  -5.6069596744206519e-09 -9.3249148625017457e-09 0.0000000000000000e+00  -7.1090561943672788e-09 -8.0888137154852089e-09 0.0000000000000000e+00  -8.3519068417437881e-09 -6.7020988672053711e-09 0.0000000000000000e+00  -9.3201344956408690e-09 -5.2528674536550091e-09 0.0000000000000000e+00  -1.0031294154476279e-08 -3.8038253992563360e-09 0.0000000000000000e+00  -1.0514031753410687e-08 -2.3892526158745396e-09 0.0000000000000000e+00  -1.0795758074328837e-08 -1.0189636233690439e-09 0.0000000000000000e+00  -1.0895615308682826e-08 3.1425145731404929e-10 0.0000000000000000e+00  -1.0821006636012269e-08 1.6260018658912978e-09 0.0000000000000000e+00  -1.0566617837280395e-08 2.9315435589223004e-09 0.0000000000000000e+00  -1.0115454918449604e-08 4.2372698443970451e-09 0.0000000000000000e+00  -9.4420726046833025e-09 5.5327990915562729e-09 0.0000000000000000e+00  -8.5187513233462300e-09 6.7845962229779098e-09 0.0000000000000000e+00  -7.3260129772075847e-09 7.9330527323089742e-09 0.0000000000000000e+00  -5.8711668785887239e-09 8.8960530859391533e-09 0.0000000000000000e+00  -4.2308335959003033e-09 9.5845522310856003e-09 0.0000000000000000e+00  -2.6890176708792864e-09 9.9637055430942019e-09 0.0000000000000000e+00  -2.2606463337280224e-09 1.0555040009010750e-08 0.0000000000000000e+00  -2.0095324862321240e-09 -8.3246768955448330e-09 0.0000000000000000e+00  -2.5093854718567318e-09 -8.9375098342965125e-09 0.0000000000000000e+00  -4.0933966659242754e-09 -8.4188779674018063e-09 0.0000000000000000e+00  -5.8615653783527672e-09 -7.6337228051315903e-09 0.0000000000000000e+00  -7.4901878216688067e-09 -6.6492894668640299e-09 0.0000000000000000e+00  -8.8803421995902998e-09 -5.5355233745693472e-09 0.0000000000000000e+00  -1.0002278232694638e-08 -4.3559325820709374e-09 0.0000000000000000e+00  -1.0855469770372514e-08 -3.1592457959146895e-09 0.0000000000000000e+00  -1.1451916215401322e-08 -1.9758031717193892e-09 0.0000000000000000e+00  -1.1806436063157362e-08 -8.1890675347341475e-10 0.0000000000000000e+00  -1.1930525565555073e-08 3.1068543907055137e-10 0.0000000000000000e+00  -1.1828938370555525e-08 1.4187009221180361e-09 0.0000000000000000e+00  -1.1498578746340776e-08 2.5107728073804471e-09 0.0000000000000000e+00  -1.0929501307216463e-08 3.5860072109178382e-09 0.0000000000000000e+00  -1.0108036813274295e-08 4.6313241789528602e-09 0.0000000000000000e+00  -9.0222755076008235e-09 5.6174638239455963e-09 0.0000000000000000e+00  -7.6705610417918268e-09 6.4979618103777020e-09 0.0000000000000000e+00  -6.0760062608429544e-09 7.2128240226384948e-09 0.0000000000000000e+00  -4.3221085730567385e-09 7.7007898248116379e-09 0.0000000000000000e+00  -2.6798400067284369e-09 7.9492535250128270e-09 0.0000000000000000e+00  -2.0574427126096408e-09 8.5584387905726247e-09 0.0000000000000000e+00  -1.8894134541148814e-09 -6.2433864207784477e-09 0.0000000000000000e+00  -2.5433005726644095e-09 -6.8725032291652115e-09 0.0000000000000000e+00  -4.2062536623059837e-09 -6.4575570082760504e-09 0.0000000000000000e+00  -6.0452847748621949e-09 -5.8469302487844079e-09 0.0000000000000000e+00  -7.7585271295679432e-09 -5.0913447455187091e-09 0.0000000000000000e+00  -9.2473251553013694e-09 -4.2377730451588544e-09 0.0000000000000000e+00  -1.0473286034816645e-08 -3.3297558748123560e-09 0.0000000000000000e+00  -1.1423813686788505e-08 -2.4025403735006751e-09 0.0000000000000000e+00  -1.2098973835881020e-08 -1.4800564179131320e-09 0.0000000000000000e+00  -1.2503994416148126e-08 -5.7510611311126961e-10 0.0000000000000000e+00  -1.2644251721916706e-08 3.0806489708792490e-10 0.0000000000000000e+00  -1.2522279630153897e-08 1.1697968769253475e-09 0.0000000000000000e+00  -1.2136737525514090e-08 2.0104649070087365e-09 0.0000000000000000e+00  -1.1483287237038964e-08 2.8259968747009194e-09 0.0000000000000000e+00  -1.0557321121122028e-08 3.6040697739456763e-09 0.0000000000000000e+00  -9.3585099534142605e-09 4.3216817849025948e-09 0.0000000000000000e+00  -7.8975190535377592e-09 4.9449238094913560e-09 0.0000000000000000e+00  -6.2077211277789167e-09 5.4319451726211565e-09 0.0000000000000000e+00  -4.3765837890381882e-09 5.7422371917231255e-09 0.0000000000000000e+00  -2.6669156236011821e-09 5.8775532436809808e-09 0.0000000000000000e+00  -1.9120896103771802e-09 6.5000067831616285e-09 0.0000000000000000e+00  -1.8057780504180634e-09 -4.1315897457610982e-09 0.0000000000000000e+00  -2.5708327847564191e-09 -4.7699910725840105e-09 0.0000000000000000e+00  -4.2891107479690120e-09 -4.4484855970338350e-09 0.0000000000000000e+00  -6.1739067575942356e-09 -3.9971759947207026e-09 0.0000000000000000e+00  -7.9402094879786860e-09 -3.4556617622262140e-09 0.0000000000000000e+00  -9.4906585403134271e-09 -2.8532993997267515e-09 0.0000000000000000e+00  -1.0782015569745173e-08 -2.2171231250