<?xml version="1.0"?>
<VTKFile type="UnstructuredGrid"  version="0.1"  >
<UnstructuredGrid>
<Piece  NumberOfPoints="651" NumberOfCells="1200">
<Points>
<DataArray  type="Float64"  NumberOfComponents="3"  format="ascii">0 0 0  50000 0 0  100000 0 0  150000 0 0  200000 0 0  250000 0 0  300000 0 0  350000 0 0  400000 0 0  450000 0 0  500000 0 0  550000 0 0  600000 0 0  650000 0 0  700000 0 0  750000 0 0  800000 0 0  850000 0 0  900000 0 0  950000 0 0  1000000 0 0  0 50000 0  50000 50000 0  100000 50000 0  150000 50000 0  200000 50000 0  250000 50000 0  300000 50000 0  350000 50000 0  400000 50000 0  450000 50000 0  500000 50000 0  550000 50000 0  600000 50000 0  650000 50000 0  700000 50000 0  750000 50000 0  800000 50000 0  850000 50000 0  900000 50000 0  950000 50000 0  1000000 50000 0  0 100000 0  50000 100000 0  100000 100000 0  150000 100000 0  200000 100000 0  250000 100000 0  300000 100000 0  350000 100000 0  400000 100000 0  450000 100000 0  500000 100000 0  550000 100000 0  600000 100000 0  650000 100000 0  700000 100000 0  750000 100000 0  800000 100000 0  850000 100000 0  900000 100000 0  950000 100000 0  1000000 100000 0  0 150000 0  50000 150000 0  100000 150000 0  150000 150000 0  200000 150000 0  250000 150000 0  300000 150000 0  350000 150000 0  400000 150000 0  450000 150000 0  500000 150000 0  550000 150000 0  600000 150000 0  650000 150000 0  700000 150000 0  750000 150000 0  800000 150000 0  850000 150000 0  900000 150000 0  950000 150000 0  1000000 150000 0  0 200000 0  50000 200000 0  100000 200000 0  150000 200000 0  200000 200000 0  250000 200000 0  300000 200000 0  350000 200000 0  400000 200000 0  450000 200000 0  500000 200000 0  550000 200000 0  600000 200000 0  650000 200000 0  700000 200000 0  750000 200000 0  800000 200000 0  850000 200000 0  900000 200000 0  950000 200000 0  1000000 200000 0  0 250000 0  50000 250000 0  100000 250000 0  150000 250000 0  200000 250000 0  250000 250000 0  300000 250000 0  350000 250000 0  400000 250000 0  450000 250000 0  500000 250000 0  550000 250000 0  600000 250000 0  650000 250000 0  700000 250000 0  750000 250000 0  800000 250000 0  850000 250000 0  900000 250000 0  950000 250000 0  1000000 250000 0  0 300000 0  50000 300000 0  100000 300000 0  150000 300000 0  200000 300000 0  250000 300000 0  300000 300000 0  350000 300000 0  400000 300000 0  450000 300000 0  500000 300000 0  550000 300000 0  600000 300000 0  650000 300000 0  700000 300000 0  750000 300000 0  800000 300000 0  850000 300000 0  900000 300000 0  950000 300000 0  1000000 300000 0  0 350000 0  50000 350000 0  100000 350000 0  150000 350000 0  200000 350000 0  250000 350000 0  300000 350000 0  350000 350000 0  400000 350000 0  450000 350000 0  500000 350000 0  550000 350000 0  600000 350000 0  650000 350000 0  700000 350000 0  750000 350000 0  800000 350000 0  850000 350000 0  900000 350000 0  950000 350000 0  1000000 350000 0  0 400000 0  50000 400000 0  100000 400000 0  150000 400000 0  200000 400000 0  250000 400000 0  300000 400000 0  350000 400000 0  400000 400000 0  450000 400000 0  500000 400000 0  550000 400000 0  600000 400000 0  650000 400000 0  700000 400000 0  750000 400000 0  800000 400000 0  850000 400000 0  900000 400000 0  950000 400000 0  1000000 400000 0  0 450000 0  50000 450000 0  100000 450000 0  150000 450000 0  200000 450000 0  250000 450000 0  300000 450000 0  350000 450000 0  400000 450000 0  450000 450000 0  500000 450000 0  550000 450000 0  600000 450000 0  650000 450000 0  700000 450000 0  750000 450000 0  800000 450000 0  850000 450000 0  900000 450000 0  950000 450000 0  1000000 450000 0  0 500000 0  50000 500000 0  100000 500000 0  150000 500000 0  200000 500000 0  250000 500000 0  300000 500000 0  350000 500000 0  400000 500000 0  450000 500000 0  500000 500000 0  550000 500000 0  600000 500000 0  650000 500000 0  700000 500000 0  750000 500000 0  800000 500000 0  850000 500000 0  900000 500000 0  950000 500000 0  1000000 500000 0  0 550000 0  50000 550000 0  100000 550000 0  150000 550000 0  200000 550000 0  250000 550000 0  300000 550000 0  350000 550000 0  400000 550000 0  450000 550000 0  500000 550000 0  550000 550000 0  600000 550000 0  650000 550000 0  700000 550000 0  750000 550000 0  800000 550000 0  850000 550000 0  900000 550000 0  950000 550000 0  1000000 550000 0  0 600000 0  50000 600000 0  100000 600000 0  150000 600000 0  200000 600000 0  250000 600000 0  300000 600000 0  350000 600000 0  400000 600000 0  450000 600000 0  500000 600000 0  550000 600000 0  600000 600000 0  650000 600000 0  700000 600000 0  750000 600000 0  800000 600000 0  850000 600000 0  900000 600000 0  950000 600000 0  1000000 600000 0  0 650000 0  50000 650000 0  100000 650000 0  150000 650000 0  200000 650000 0  250000 650000 0  300000 650000 0  350000 650000 0  400000 650000 0  450000 650000 0  500000 650000 0  550000 650000 0  600000 650000 0  650000 650000 0  700000 650000 0  750000 650000 0  800000 650000 0  850000 650000 0  900000 650000 0  950000 650000 0  1000000 650000 0  0 700000 0  50000 700000 0  100000 700000 0  150000 700000 0  200000 700000 0  250000 700000 0  300000 700000 0  350000 700000 0  400000 700000 0  450000 700000 0  500000 700000 0  550000 700000 0  600000 700000 0  650000 700000 0  700000 700000 0  750000 700000 0  800000 700000 0  850000 700000 0  900000 700000 0  950000 700000 0  1000000 700000 0  0 750000 0  50000 750000 0  100000 750000 0  150000 750000 0  200000 750000 0  250000 750000 0  300000 750000 0  350000 750000 0  400000 750000 0  450000 750000 0  500000 750000 0  550000 750000 0  600000 750000 0  650000 750000 0  700000 750000 0  750000 750000 0  800000 750000 0  850000 750000 0  900000 750000 0  950000 750000 0  1000000 750000 0  0 800000 0  50000 800000 0  100000 800000 0  150000 800000 0  200000 800000 0  250000 800000 0  300000 800000 0  350000 800000 0  400000 800000 0  450000 800000 0  500000 800000 0  550000 800000 0  600000 800000 0  650000 800000 0  700000 800000 0  750000 800000 0  800000 800000 0  850000 800000 0  900000 800000 0  950000 800000 0  1000000 800000 0  0 850000 0  50000 850000 0  100000 850000 0  150000 850000 0  200000 850000 0  250000 850000 0  300000 850000 0  350000 850000 0  400000 850000 0  450000 850000 0  500000 850000 0  550000 850000 0  600000 850000 0  650000 850000 0  700000 850000 0  750000 850000 0  800000 850000 0  850000 850000 0  900000 850000 0  950000 850000 0  1000000 850000 0  0 900000 0  50000 900000 0  100000 900000 0  150000 900000 0  200000 900000 0  250000 900000 0  300000 900000 0  350000 900000 0  400000 900000 0  450000 900000 0  500000 900000 0  550000 900000 0  600000 900000 0  650000 900000 0  700000 900000 0  750000 900000 0  800000 900000 0  850000 900000 0  900000 900000 0  950000 900000 0  1000000 900000 0  0 950000 0  50000 950000 0  100000 950000 0  150000 950000 0  200000 950000 0  250000 950000 0  300000 950000 0  350000 950000 0  400000 950000 0  450000 950000 0  500000 950000 0  550000 950000 0  600000 950000 0  650000 950000 0  700000 950000 0  750000 950000 0  800000 950000 0  850000 950000 0  900000 950000 0  950000 950000 0  1000000 950000 0  0 1000000 0  50000 1000000 0  100000 1000000 0  150000 1000000 0  200000 1000000 0  250000 1000000 0  300000 1000000 0  350000 1000000 0  400000 1000000 0  450000 1000000 0  500000 1000000 0  550000 1000000 0  600000 1000000 0  650000 1000000 0  700000 1000000 0  750000 1000000 0  800000 1000000 0  850000 1000000 0  900000 1000000 0  950000 1000000 0  1000000 1000000 0  0 1050000 0  50000 1050000 0  100000 1050000 0  150000 1050000 0  200000 1050000 0  250000 1050000 0  300000 1050000 0  350000 1050000 0  400000 1050000 0  450000 1050000 0  500000 1050000 0  550000 1050000 0  600000 1050000 0  650000 1050000 0  700000 1050000 0  750000 1050000 0  800000 1050000 0  850000 1050000 0  900000 1050000 0  950000 1050000 0  1000000 1050000 0  0 1100000 0  50000 1100000 0  100000 1100000 0  150000 1100000 0  200000 1100000 0  250000 1100000 0  300000 1100000 0  350000 1100000 0  400000 1100000 0  450000 1100000 0  500000 1100000 0  550000 1100000 0  600000 1100000 0  650000 1100000 0  700000 1100000 0  750000 1100000 0  800000 1100000 0  850000 1100000 0  900000 1100000 0  950000 1100000 0  1000000 1100000 0  0 1150000 0  50000 1150000 0  100000 1150000 0  150000 1150000 0  200000 1150000 0  250000 1150000 0  300000 1150000 0  350000 1150000 0  400000 1150000 0  450000 1150000 0  500000 1150000 0  550000 1150000 0  600000 1150000 0  650000 1150000 0  700000 1150000 0  750000 1150000 0  800000 1150000 0  850000 1150000 0  900000 1150000 0  950000 1150000 0  1000000 1150000 0  0 1200000 0  50000 1200000 0  100000 1200000 0  150000 1200000 0  200000 1200000 0  250000 1200000 0  300000 1200000 0  350000 1200000 0  400000 1200000 0  450000 1200000 0  500000 1200000 0  550000 1200000 0  600000 1200000 0  650000 1200000 0  700000 1200000 0  750000 1200000 0  800000 1200000 0  850000 1200000 0  900000 1200000 0  950000 1200000 0  1000000 1200000 0  0 1250000 0  50000 1250000 0  100000 1250000 0  150000 1250000 0  200000 1250000 0  250000 1250000 0  300000 1250000 0  350000 1250000 0  400000 1250000 0  450000 1250000 0  500000 1250000 0  550000 1250000 0  600000 1250000 0  650000 1250000 0  700000 1250000 0  750000 1250000 0  800000 1250000 0  850000 1250000 0  900000 1250000 0  950000 1250000 0  1000000 1250000 0  0 1300000 0  50000 1300000 0  100000 1300000 0  150000 1300000 0  200000 1300000 0  250000 1300000 0  300000 1300000 0  350000 1300000 0  400000 1300000 0  450000 1300000 0  500000 1300000 0  550000 1300000 0  600000 1300000 0  650000 1300000 0  700000 1300000 0  750000 1300000 0  800000 1300000 0  850000 1300000 0  900000 1300000 0  950000 1300000 0  1000000 1300000 0  0 1350000 0  50000 1350000 0  100000 1350000 0  150000 1350000 0  200000 1350000 0  250000 1350000 0  300000 1350000 0  350000 1350000 0  400000 1350000 0  450000 1350000 0  500000 1350000 0  550000 1350000 0  600000 1350000 0  650000 1350000 0  700000 135
[...]
<PointData  Vectors="f_19"> 
<DataArray  type="Float64"  Name="f_19"  NumberOfComponents="3" format="ascii">-2.4152924464214954e-08 -1.0990890148908942e-08 0.0000000000000000e+00  4.8889530176152107e-08 -7.0584814623874754e-09 0.0000000000000000e+00  4.3147850104445669e-08 -2.7343941581049743e-09 0.0000000000000000e+00  4.0681431206030038e-08 -1.3506110642178948e-09 0.0000000000000000e+00  3.9462184147867407e-08 -8.6203257822706862e-10 0.0000000000000000e+00  3.8657575290762675e-08 -6.4734147451228740e-10 0.0000000000000000e+00  3.8071149245679215e-08 -5.3721483877097091e-10 0.0000000000000000e+00  3.7646705234368684e-08 -4.7291172679693708e-10 0.0000000000000000e+00  3.7367313408971677e-08 -4.2889533268887157e-10 0.0000000000000000e+00  3.7229566877140472e-08 -3.9136804693094896e-10 0.0000000000000000e+00  3.7235782356440848e-08 -3.5100673625115518e-10 0.0000000000000000e+00  3.7392120253160162e-08 -2.9972778874815426e-10 0.0000000000000000e+00  3.7709984917275278e-08 -2.2822857284359056e-10 0.0000000000000000e+00  3.8211810097362180e-08 -1.2243791253484457e-10 0.0000000000000000e+00  3.8946837861668911e-08 4.3908552264255511e-11 0.0000000000000000e+00  4.0033379307047362e-08 3.2761292507728433e-10 0.0000000000000000e+00  4.1771022576312096e-08 8.6498265190124172e-10 0.0000000000000000e+00  4.4904076432731849e-08 1.9987893611492445e-09 0.0000000000000000e+00  5.0759104859623792e-08 4.5453012089631599e-09 0.0000000000000000e+00  5.8004311984886128e-08 9.0713342836283119e-09 0.0000000000000000e+00  -1.6449074942800809e-08 6.9656677694598707e-09 0.0000000000000000e+00  -1.7894059083169083e-08 -1.6537100673009419e-08 0.0000000000000000e+00  7.4059905546956336e-09 -1.1540428309164707e-08 0.0000000000000000e+00  1.8390805592614127e-08 -5.3380254172397164e-09 0.0000000000000000e+00  2.3439755485423426e-08 -2.4679531607927397e-09 0.0000000000000000e+00  2.5992562808932283e-08 -1.2055326973339081e-09 0.0000000000000000e+00  2.7421730608558228e-08 -6.0868462135739441e-10 0.0000000000000000e+00  2.8239010740246543e-08 -3.0772808249693883e-10 0.0000000000000000e+00  2.8703798807274976e-08 -1.5210198874171598e-10 0.0000000000000000e+00  2.8960148940172310e-08 -7.2944974872339437e-11 0.0000000000000000e+00  2.9088986812961794e-08 -3.3185433226375188e-11 0.0000000000000000e+00  2.9133111300326267e-08 -8.5396356079583063e-12 0.0000000000000000e+00  2.9108611976209132e-08 2.1253444645442397e-11 0.0000000000000000e+00  2.9008701926741771e-08 7.8272778371647912e-11 0.0000000000000000e+00  2.8802005801408716e-08 1.9309892462196339e-10 0.0000000000000000e+00  2.8424329754700330e-08 4.1664819401765894e-10 0.0000000000000000e+00  2.7757912230348262e-08 8.4605820913283302e-10 0.0000000000000000e+00  2.6576131708421043e-08 1.6854524945865655e-09 0.0000000000000000e+00  2.4365965130094328e-08 3.3816011287285538e-09 0.0000000000000000e+00  1.9679730968276494e-08 6.8254214159021149e-09 0.0000000000000000e+00  8.2674059958925859e-09 1.2980768785697089e-08 0.0000000000000000e+00  -1.8416721058637678e-08 1.0897695266401502e-08 0.0000000000000000e+00  -1.0887932585586007e-08 -2.0110002952995988e-08 0.0000000000000000e+00  -1.6877706345345514e-10 -1.8706187314567627e-08 0.0000000000000000e+00  6.0239917186913955e-09 -1.1356482519872357e-08 0.0000000000000000e+00  1.0940032102018160e-08 -6.5326763084387385e-09 0.0000000000000000e+00  1.4746678033604933e-08 -3.7543072835688409e-09 0.0000000000000000e+00  1.7368312710639434e-08 -2.1761516267780854e-09 0.0000000000000000e+00  1.9108468217062428e-08 -1.2531824878231658e-09 0.0000000000000000e+00  2.0237364133570437e-08 -6.9302152283695281e-10 0.0000000000000000e+00  2.0936077932227105e-08 -3.3667224252314032e-10 0.0000000000000000e+00  2.1316057882580116e-08 -9.0177299233764864e-11 0.0000000000000000e+00  2.1437974764552063e-08 1.1035634055674106e-10 0.0000000000000000e+00  2.1322855110648396e-08 3.1783122538788019e-10 0.0000000000000000e+00  2.0956094002918726e-08 5.8742378615173788e-10 0.0000000000000000e+00  2.0285055198301799e-08 9.9029648037501517e-10 0.0000000000000000e+00  1.9209701742106945e-08 1.6336673222626403e-09 0.0000000000000000e+00  1.7564356320054617e-08 2.6949184208934233e-09 0.0000000000000000e+00  1.5089201184341906e-08 4.4761685514783287e-09 0.0000000000000000e+00  1.1401674563280964e-08 7.4525435679375504e-09 0.0000000000000000e+00  6.0345139285734708e-09 1.2091255863599902e-08 0.0000000000000000e+00  -1.2714606300291610e-09 1.7546678276335736e-08 0.0000000000000000e+00  -1.3237047809389594e-08 1.4642759440573790e-08 0.0000000000000000e+00  -7.1660554350053510e-09 -2.0700337972922509e-08 0.0000000000000000e+00  -1.4982549988250828e-09 -2.0211002719432207e-08 0.0000000000000000e+00  1.2256079360686186e-09 -1.5370776302071481e-08 0.0000000000000000e+00  4.0447550172458692e-09 -1.0404700091331311e-08 0.0000000000000000e+00  6.9581059683758165e-09 -6.7904113547842203e-09 0.0000000000000000e+00  9.4723517764388919e-09 -4.3633564000072695e-09 0.0000000000000000e+00  1.1399211397581482e-08 -2.7552599939597719e-09 0.0000000000000000e+00  1.2769401396745447e-08 -1.6708106054651698e-09 0.0000000000000000e+00  1.3670745439908661e-08 -9.0806449116931586e-10 0.0000000000000000e+00  1.4179800548616987e-08 -3.2866773338299069e-10 0.0000000000000000e+00  1.4344927300246250e-08 1.7013972475997135e-10 0.0000000000000000e+00  1.4183988565528109e-08 6.7609778917148313e-10 0.0000000000000000e+00  1.3684731279515931e-08 1.2781483398884938e-09 0.0000000000000000e+00  1.2805127846527370e-08 2.0820304652442151e-09 0.0000000000000000e+00  1.1474958685704054e-08 3.2278458395278174e-09 0.0000000000000000e+00  9.6048450530447129e-09 4.9079846615282277e-09 0.0000000000000000e+00  7.1195582596617682e-09 7.3676173195705050e-09 0.0000000000000000e+00  4.0496590569100621e-09 1.0817379788700182e-08 0.0000000000000000e+00  6.8723189956056340e-10 1.5067415074000870e-08 0.0000000000000000e+00  -2.5991457166729584e-09 1.8719808185499415e-08 0.0000000000000000e+00  -8.9138276826765493e-09 1.7486783306707924e-08 0.0000000000000000e+00  -5.2787003203404880e-09 -2.0076142295271592e-08 0.0000000000000000e+00  -1.8508666956636384e-09 -1.9989359851049531e-08 0.0000000000000000e+00  -8.7533231811497513e-10 -1.6836939208009978e-08 0.0000000000000000e+00  2.9720086482983917e-10 -1.2807535728518475e-08 0.0000000000000000e+00  1.9618278244310087e-09 -9.1964143535110515e-09 0.0000000000000000e+00  3.7435167181351699e-09 -6.3814086391534889e-09 0.0000000000000000e+00  5.3237974501118879e-09 -4.2924604411205512e-09 0.0000000000000000e+00  6.5635295704765672e-09 -2.7492643231213763e-09 0.0000000000000000e+00  7.4327998074354613e-09 -1.5776303518467413e-09 0.0000000000000000e+00  7.9434126159586843e-09 -6.3237356370435373e-10 0.0000000000000000e+00  8.1128230802305598e-09 2.0786285594796823e-10 0.0000000000000000e+00  7.9494958105092104e-09 1.0520720072288274e-09 0.0000000000000000e+00  7.4490168642598640e-09 2.0086455883999160e-09 0.0000000000000000e+00  6.5968906745150478e-09 3.1958243086691688e-09 0.0000000000000000e+00  5.3792919948733696e-09 4.7483386796247211e-09 0.0000000000000000e+00  3.8078210215943805e-09 6.8117048315549835e-09 0.0000000000000000e+00  1.9675976803859030e-09 9.5008737277466500e-09 0.0000000000000000e+00  8.5682667583624522e-11 1.2775680750552760e-08 0.0000000000000000e+00  -1.4736844568543203e-09 1.6187847182583050e-08 0.0000000000000000e+00  -2.7084255468458575e-09 1.8676566896156825e-08 0.0000000000000000e+00  -6.5972794047507092e-09 1.8476845598838395e-08 0.0000000000000000e+00  -4.2005454514442480e-09 -1.8912482403636583e-08 0.0000000000000000e+00  -2.0297659813402692e-09 -1.9074786777494614e-08 0.0000000000000000e+00  -1.9838666402672472e-09 -1.6897213715113992e-08 0.0000000000000000e+00  -1.8745051958582174e-09 -1.3803990468926806e-08 0.0000000000000000e+00  -1.2506408356296387e-09 -1.0617782843112276e-08 0.0000000000000000e+00  -2.9517983892080089e-10 -7.8147946238714083e-09 0.0000000000000000e+00  7.2424281502090699e-10 -5.5181243567598442e-09 0.0000000000000000e+00  1.6207247663569327e-09 -3.6787917171813482e-09 0.0000000000000000e+00  2.2970952230605903e-09 -2.1877378022258267e-09 0.0000000000000000e+00  2.7127419819932518e-09 -9.2490608211961307e-10 0.0000000000000000e+00  2.8545449638143148e-09 2.2575093793578505e-10 0.0000000000000000e+00  2.7204907865888134e-09 1.3752109784844476e-09 0.0000000000000000e+00  2.3140841209795726e-09 2.6325119562476996e-09 0.0000000000000000e+00  1.6475679838816402e-09 4.1067294781489601e-09 0.0000000000000000e+00  7.5409252314936009e-10 5.9023904137737848e-09 0.0000000000000000e+00  -2.8998494923000449e-10 8.0993315366991468e-09 0.0000000000000000e+00  -1.3357740927932370e-09 1.0702578309352769e-08 0.0000000000000000e+00  -2.1499838333605738e-09 1.3549534195125986e-08 0.0000000000000000e+00  -2.5129510113839710e-09 1.6200443696540417e-08 0.0000000000000000e+00  -2.6870662752171270e-09 1.7984158480319246e-08 0.0000000000000000e+00  -5.2212047838292924e-09 1.8235686718910569e-08 0.0000000000000000e+00  -3.5078009840436795e-09 -1.7450850950605767e-08 0.0000000000000000e+00  -2.1634645410835184e-09 -1.7782141588422425e-08 0.0000000000000000e+00  -2.6747710535797054e-09 -1.6199927274870568e-08 0.0000000000000000e+00  -3.2410429921630493e-09 -1.3819458306524354e-08 0.0000000000000000e+00  -3.3795042614999085e-09 -1.1144397233887086e-08 0.0000000000000000e+00  -3.1362677584313131e-09 -8.5691964028817933e-09 0.0000000000000000e+00  -2.6892496030142597e-09 -6.2821488308332722e-09 0.0000000000000000e+00  -2.2039865804144092e-09 -4.3200533963316215e-09 0.0000000000000000e+00  -1.7941835545365784e-09 -2.6376545836605943e-09 0.0000000000000000e+00  -1.5256589348138910e-09 -1.1533770074172029e-09 0.0000000000000000e+00  -1.4305045745538039e-09 2.2730284862847575e-10 0.0000000000000000e+00  -1.5182180306117543e-09 1.6015787122919725e-09 0.0000000000000000e+00  -1.7802881032383125e-09 3.0643271989597549e-09 0.0000000000000000e+00  -2.1880193666711290e-09 4.7025906908165774e-09 0.0000000000000000e+00  -2.6843023378563106e-09 6.5841566376908509e-09 0.0000000000000000e+00  -3.1717906743842154e-09 8.7343477119854226e-09 0.0000000000000000e+00  -3.5058751374776556e-09 1.1096440260487965e-08 0.0000000000000000e+00  -3.5162896495934804e-09 1.3481098088629929e-08 0.0000000000000000e+00  -3.1184029379730177e-09 1.5539849618426795e-08 0.0000000000000000e+00  -2.6740699042888624e-09 1.6870168528452876e-08 0.0000000000000000e+00  -4.3125679886325994e-09 1.7331822614750499e-08 0.0000000000000000e+00  -3.0244967395159277e-09 -1.5790819513041263e-08 0.0000000000000000e+00  -2.2722889886527449e-09 -1.6241551175146210e-08 0.0000000000000000e+00  -3.1543548617341119e-09 -1.5048881618412445e-08 0.0000000000000000e+00  -4.1632550967550267e-09 -1.3190994892066774e-08 0.0000000000000000e+00  -4.8393069950159454e-09 -1.0983481497854357e-08 0.0000000000000000e+00  -5.1509690630038336e-09 -8.7172073238891741e-09 0.0000000000000000e+00  -5.1987320404876460e-09 -6.5745731254998910e-09 0.0000000000000000e+00  -5.1047549974321490e-09 -4.6304853796891202e-09 0.0000000000000000e+00  -4.9697429631299776e-09 -2.8841252135130443e-09 0.0000000000000000e+00  -4.8621172461784637e-09 -1.2904107998397444e-09 0.0000000000000000e+00  -4.8201687762896002e-09 2.1779307266571379e-10 0.0000000000000000e+00  -4.8566921552296091e-09 1.7155991639098970e-09 0.0000000000000000e+00  -4.9615206106659491e-09 3.2761706672492644e-09 0.0000000000000000e+00  -5.1007577740296292e-09 4.9608126571757707e-09 0.0000000000000000e+00  -5.2136319277277762e-09 6.8053982045053707e-09 0.0000000000000000e+00  -5.2103683861661603e-09 8.8005592556324662e-09 0.0000000000000000e+00  -4.9788405943404112e-09 1.0866528592378509e-08 0.0000000000000000e+00  -4.4161368622013916e-09 1.2832083178057360e-08 0.0000000000000000e+00  -3.5226895324774731e-09 1.4442618309334925e-08 0.0000000000000000e+00  -2.6757536578256447e-09 1.5462666890488173e-08 0.0000000000000000e+00  -3.6654562892427456e-09 1.6037286989060740e-08 0.0000000000000000e+00  -2.6697699524825882e-09 -1.3985767326268923e-08 0.0000000000000000e+00  -2.3609851833228058e-09 -1.4522915219281952e-08 0.0000000000000000e+00  -3.5064874260971186e-09 -1.3601680937427695e-08 0.0000000000000000e+00  -4.8157287796003607e-09 -1.2133944949098159e-08 0.0000000000000000e+00  -5.8677486092716823e-09 -1.0324926015730994e-08 0.0000000000000000e+00  -6.5918157143382780e-09 -8.3813901265038985e-09 0.0000000000000000e+00  -7.0331776595284684e-09 -6.4552112918919633e-09 0.0000000000000000e+00  -7.2711176257881030e-09 -4.6290352779193906e-09 0.0000000000000000e+00  -7.3820655330319917e-09 -2.9263836259275014e-09 0.0000000000000000e+00  -7.4242441049549807e-09 -1.3297348572845590e-09 0.0000000000000000e+00  -7.4331794662424081e-09 2.0240272811347663e-10 0.0000000000000000e+00  -7.4215910465320508e-09 1.7217132496705671e-09 0.0000000000000000e+00  -7.3801018512898367e-09 3.2785968343778757e-09 0.0000000000000000e+00  -7.2775561239133422e-09 4.9109755767694164e-09 0.0000000000000000e+00  -7.0616810554750074e-09 6.6316105331514412e-09 0.0000000000000000e+00  -6.6628040020762203e-09 8.4135396408386932e-09 0.0000000000000000e+00  -6.0058142764479649e-09 1.0176284357515517e-08 0.0000000000000000e+00  -5.0399810183503125e-09 1.1780618559513073e-08 0.0000000000000000e+00  -3.8123322124535057e-09 1.3046868766065450e-08 0.0000000000000000e+00  -2.6838152950533211e-09 1.3841896514971401e-08 0.0000000000000000e+00  -3.1810403829051427e-09 1.4484946643418808e-08 0.0000000000000000e+00  -2.4024652637376026e-09 -1.2071354909057621e-08 0.0000000000000000e+00  -2.4322999115001667e-09 -1.2671779763889614e-08 0.0000000000000000e+00  -3.7713082397942466e-09 -1.1951133083934665e-08 0.0000000000000000e+00  -5.2893810559628457e-09 -1.0785208255686549e-08 0.0000000000000000e+00  -6.6040705253556021e-09 -9.3132767897203644e-09 0.0000000000000000e+00  -7.6266451107075110e-09 -7.6806824589008819e-09 0.0000000000000000e+00  -8.3659604347315397e-09 -6.0055464811105345e-09 0.0000000000000000e+00  -8.8664874342914022e-09 -4.3634503184688482e-09 0.0000000000000000e+00  -9.1794729127939620e-09 -2.7877595001500921e-09 0.0000000000000000e+00  -9.3481588215880604e-09 -1.2786627508666883e-09 0.0000000000000000e+00  -9.4008243148723959e-09 1.8515665966422353e-10 0.0000000000000000e+00  -9.3481651064017312e-09 1.6350600838642475e-09 0.0000000000000000e+00  -9.1828586241981810e-09 3.1017613870947771e-09 0.0000000000000000e+00  -8.8804685060718428e-09 4.6049540850419441e-09 0.0000000000000000e+00  -8.4021220316676392e-09 6.1428844401562012e-09 0.0000000000000000e+00  -7.7005939523646474e-09 7.6825276361975063e-09 0.0000000000000000e+00  -6.7326845090596817e-09 9.1529577803579155e-09 0.0000000000000000e+00  -5.4836995396774699e-09 1.0447053790924096e-08 0.0000000000000000e+00  -4.0244897515584115e-09 1.1440206863234242e-08 0.0000000000000000e+00  -2.6915646901252978e-09 1.2062375584958035e-08 0.0000000000000000e+00  -2.8074355672956317e-09 1.2749606763291139e-08 0.0000000000000000e+00  -2.1999521694054643e-09 -1.0074525244478805e-08 0.0000000000000000e+00  -2.4889395428395699e-09 -1.0721464359107625e-08 0.0000000000000000e+00  -3.9715917562642194e-09 -1.0157644534245252e-08 0.0000000000000000e+00  -5.6362915643711335e-09 -9.2352717905442638e-09 0.0000000000000000e+00  -7.1338147857749991e-09 -8.0533661932352213e-09 0.0000000000000000e+00  -8.3681784862845446e-09 -6.7136724268263461e-09 0.0000000000000000e+00  -9.3251587228185548e-09 -5.3045486550136941e-09 0.0000000000000000e+00  -1.0023427815386055e-08 -3.8889306308702087e-09 0.0000000000000000e+00  -1.0492640319040443e-08 -2.5012194143785902e-09 0.0000000000000000e+00  -1.0761074268261932e-08 -1.1511681496713406e-09 0.0000000000000000e+00  -1.0848575198557033e-08 1.6870474913727322e-10 0.0000000000000000e+00  -1.0763079846039659e-08 1.4744821992678003e-09 0.0000000000000000e+00  -1.0499657387542443e-08 2.7820707389088682e-09 0.0000000000000000e+00  -1.0041599533622711e-08 4.0986729558072513e-09 0.0000000000000000e+00  -9.3637399183760524e-09 5.4148932170090890e-09 0.0000000000000000e+00  -8.4387666728758581e-09 6.6984514168744032e-09 0.0000000000000000e+00  -7.2479561416017311e-09 7.8914772226936315e-09 0.0000000000000000e+00  -5.8003247902507748e-09 8.9144550247224291e-09 0.0000000000000000e+00  -4.1783815401861798e-09 9.6821781025375891e-09 0.0000000000000000e+00  -2.6953381018308697e-09 1.0163900270707679e-08 0.0000000000000000e+00  -2.5154259112245801e-09 1.0879975178126930e-08 0.0000000000000000e+00  -2.0492006301847177e-09 -8.0167702031258323e-09 0.0000000000000000e+00  -2.5337159425448389e-09 -8.6978424400035833e-09 0.0000000000000000e+00  -4.1222314851180900e-09 -8.2634063371692564e-09 0.0000000000000000e+00  -5.8892335255807265e-09 -7.5463957465976471e-09 0.0000000000000000e+00  -7.5124250811884533e-09 -6.6207363922974105e-09 0.0000000000000000e+00  -8.8937229492506838e-09 -5.5571423909361805e-09 0.0000000000000000e+00  -1.0004597767436407e-08 -4.4195817884416795e-09 0.0000000000000000e+00  -1.0845625930908718e-08 -3.2571751613286974e-09 0.0000000000000000e+00  -1.1429739986965963e-08 -2.1005409765388225e-09 0.0000000000000000e+00  -1.1772525098137707e-08 -9.6308362336632456e-10 0.0000000000000000e+00  -1.1886083969996371e-08 1.5454488641937768e-10 0.0000000000000000e+00  -1.1775628395847212e-08 1.2583937615214069e-09 0.0000000000000000e+00  -1.1438397967140542e-08 2.3546318618192822e-09 0.0000000000000000e+00  -1.0864704441826686e-08 3.4431250801963585e-09 0.0000000000000000e+00  -1.0041123025954284e-08 4.5118236284168074e-09 0.0000000000000000e+00  -8.9560617078400996e-09 5.5328809764753820e-09 0.0000000000000000e+00  -7.6083868634738998e-09 6.4618440997689099e-09 0.0000000000000000e+00  -6.0223792605159746e-09 7.2416791430931427e-09 0.0000000000000000e+00  -4.2860883638721459e-09 7.8154178332459621e-09 0.0000000000000000e+00  -2.6937899089444314e-09 8.1770344315936941e-09 0.0000000000000000e+00  -2.2876896199387836e-09 8.9112865710285962e-09 0.0000000000000000e+00  -1.9426129693794747e-09 -5.9156460264034657e-09 0.0000000000000000e+00  -2.5693627366636263e-09 -6.6216122236245332e-09 0.0000000000000000e+00  -4.2338384819564271e-09 -6.2993525548066115e-09 0.0000000000000000e+00  -6.0702798543906588e-09 -5.7629348899479705e-09 0.0000000000000000e+00  -7.7773149035884288e-09 -5.0702613676601835e-09 0.0000000000000000e+00  -9.2570628900383714e-09 -4.2694548348378227e-09 0.0000000000000000e+00  -1.0472364239055552e-08 -3.4048172494261672e-09 0.0000000000000000e+00  -1.1411688106538295e-08 -2.5122220510024528e-09 0.0000000000000000e+00  -1.2075953286561907e-08 -1.6160715004819264e-09 0.0000000000000000e+00  -1.2471055631044099e-08 -7.2944105418607792e-10 0.0000000000000000e+00  -1.2602880761793944e-08 1.4337634561022210e-10 0.0000000000000000e+00  -1.2474336709735068e-08 1.0029116790554704e-09 0.0000000000000000e+00  -1.2084348243824270e-08 1.8499784046265878e-09 0.0000000000000000e+00  -1.1428767024850762e-08 2.6812139385760436e-09 0.0000000000000000e+00  -1.0503138781660654e-08 3.4853318200790109e-09 0.0000000000000000e+00  -9.3072919742662133e-09 4.2408027840121395e-09 0.0000000000000000e+00  -7.8521135271762973e-09 4.9158110651739328e-09 0.0000000000000000e+00  -6.1715649473146624e-09 5.4715069945634250e-09 0.0000000000000000e+00  -4.3563470947632255e-09 5.8716392134521004e-09 0.0000000000000000e+00  -2.6870071448309113e-09 6.1259651914710203e-09 0.0000000000000000e+00  -2.1135218771846065e-09 6.8705924233172163e-09 0.0000000000000000e+00  -1.8758974935331819e-09 -3.7857819816649345e-09 0.0000000000000000e+00  -2.5983073410115679e-09 -4.5096786541429834e-09 0.0000000000000000e+00  -4.3141219176511887e-09 -4.2890484854764589e-09 0.0000000000000000e+00  -6.1946408939303926e-09 -3.9175647403360887e-09 0.0000000000000000e+00  -7.9539717021739668e-09 -3.4425162429877801e-09 0.0000000000000000e+00  -9.4953273820679917e-09 -2.8948785033801178e-09 0.0000000000000000e+00  -1.0776642584540457e-08 -2.30282383648