<?xml version="1.0"?>
<VTKFile type="UnstructuredGrid"  version="0.1"  >
<UnstructuredGrid>
<Piece  NumberOfPoints="651" NumberOfCells="1200">
<Points>
<DataArray  type="Float64"  NumberOfComponents="3"  format="ascii">0 0 0  50000 0 0  100000 0 0  150000 0 0  200000 0 0  250000 0 0  300000 0 0  350000 0 0  400000 0 0  450000 0 0  500000 0 0  550000 0 0  600000 0 0  650000 0 0  700000 0 0  750000 0 0  800000 0 0  850000 0 0  900000 0 0  950000 0 0  1000000 0 0  0 50000 0  50000 50000 0  100000 50000 0  150000 50000 0  200000 50000 0  250000 50000 0  300000 50000 0  350000 50000 0  400000 50000 0  450000 50000 0  500000 50000 0  550000 50000 0  600000 50000 0  650000 50000 0  700000 50000 0  750000 50000 0  800000 50000 0  850000 50000 0  900000 50000 0  950000 50000 0  1000000 50000 0  0 100000 0  50000 100000 0  100000 100000 0  150000 100000 0  200000 100000 0  250000 100000 0  300000 100000 0  350000 100000 0  400000 100000 0  450000 100000 0  500000 100000 0  550000 100000 0  600000 100000 0  650000 100000 0  700000 100000 0  750000 100000 0  800000 100000 0  850000 100000 0  900000 100000 0  950000 100000 0  1000000 100000 0  0 150000 0  50000 150000 0  100000 150000 0  150000 150000 0  200000 150000 0  250000 150000 0  300000 150000 0  350000 150000 0  400000 150000 0  450000 150000 0  500000 150000 0  550000 150000 0  600000 150000 0  650000 150000 0  700000 150000 0  750000 150000 0  800000 150000 0  850000 150000 0  900000 150000 0  950000 150000 0  1000000 150000 0  0 200000 0  50000 200000 0  100000 200000 0  150000 200000 0  200000 200000 0  250000 200000 0  300000 200000 0  350000 200000 0  400000 200000 0  450000 200000 0  500000 200000 0  550000 200000 0  600000 200000 0  650000 200000 0  700000 200000 0  750000 200000 0  800000 200000 0  850000 200000 0  900000 200000 0  950000 200000 0  1000000 200000 0  0 250000 0  50000 250000 0  100000 250000 0  150000 250000 0  200000 250000 0  250000 250000 0  300000 250000 0  350000 250000 0  400000 250000 0  450000 250000 0  500000 250000 0  550000 250000 0  600000 250000 0  650000 250000 0  700000 250000 0  750000 250000 0  800000 250000 0  850000 250000 0  900000 250000 0  950000 250000 0  1000000 250000 0  0 300000 0  50000 300000 0  100000 300000 0  150000 300000 0  200000 300000 0  250000 300000 0  300000 300000 0  350000 300000 0  400000 300000 0  450000 300000 0  500000 300000 0  550000 300000 0  600000 300000 0  650000 300000 0  700000 300000 0  750000 300000 0  800000 300000 0  850000 300000 0  900000 300000 0  950000 300000 0  1000000 300000 0  0 350000 0  50000 350000 0  100000 350000 0  150000 350000 0  200000 350000 0  250000 350000 0  300000 350000 0  350000 350000 0  400000 350000 0  450000 350000 0  500000 350000 0  550000 350000 0  600000 350000 0  650000 350000 0  700000 350000 0  750000 350000 0  800000 350000 0  850000 350000 0  900000 350000 0  950000 350000 0  1000000 350000 0  0 400000 0  50000 400000 0  100000 400000 0  150000 400000 0  200000 400000 0  250000 400000 0  300000 400000 0  350000 400000 0  400000 400000 0  450000 400000 0  500000 400000 0  550000 400000 0  600000 400000 0  650000 400000 0  700000 400000 0  750000 400000 0  800000 400000 0  850000 400000 0  900000 400000 0  950000 400000 0  1000000 400000 0  0 450000 0  50000 450000 0  100000 450000 0  150000 450000 0  200000 450000 0  250000 450000 0  300000 450000 0  350000 450000 0  400000 450000 0  450000 450000 0  500000 450000 0  550000 450000 0  600000 450000 0  650000 450000 0  700000 450000 0  750000 450000 0  800000 450000 0  850000 450000 0  900000 450000 0  950000 450000 0  1000000 450000 0  0 500000 0  50000 500000 0  100000 500000 0  150000 500000 0  200000 500000 0  250000 500000 0  300000 500000 0  350000 500000 0  400000 500000 0  450000 500000 0  500000 500000 0  550000 500000 0  600000 500000 0  650000 500000 0  700000 500000 0  750000 500000 0  800000 500000 0  850000 500000 0  900000 500000 0  950000 500000 0  1000000 500000 0  0 550000 0  50000 550000 0  100000 550000 0  150000 550000 0  200000 550000 0  250000 550000 0  300000 550000 0  350000 550000 0  400000 550000 0  450000 550000 0  500000 550000 0  550000 550000 0  600000 550000 0  650000 550000 0  700000 550000 0  750000 550000 0  800000 550000 0  850000 550000 0  900000 550000 0  950000 550000 0  1000000 550000 0  0 600000 0  50000 600000 0  100000 600000 0  150000 600000 0  200000 600000 0  250000 600000 0  300000 600000 0  350000 600000 0  400000 600000 0  450000 600000 0  500000 600000 0  550000 600000 0  600000 600000 0  650000 600000 0  700000 600000 0  750000 600000 0  800000 600000 0  850000 600000 0  900000 600000 0  950000 600000 0  1000000 600000 0  0 650000 0  50000 650000 0  100000 650000 0  150000 650000 0  200000 650000 0  250000 650000 0  300000 650000 0  350000 650000 0  400000 650000 0  450000 650000 0  500000 650000 0  550000 650000 0  600000 650000 0  650000 650000 0  700000 650000 0  750000 650000 0  800000 650000 0  850000 650000 0  900000 650000 0  950000 650000 0  1000000 650000 0  0 700000 0  50000 700000 0  100000 700000 0  150000 700000 0  200000 700000 0  250000 700000 0  300000 700000 0  350000 700000 0  400000 700000 0  450000 700000 0  500000 700000 0  550000 700000 0  600000 700000 0  650000 700000 0  700000 700000 0  750000 700000 0  800000 700000 0  850000 700000 0  900000 700000 0  950000 700000 0  1000000 700000 0  0 750000 0  50000 750000 0  100000 750000 0  150000 750000 0  200000 750000 0  250000 750000 0  300000 750000 0  350000 750000 0  400000 750000 0  450000 750000 0  500000 750000 0  550000 750000 0  600000 750000 0  650000 750000 0  700000 750000 0  750000 750000 0  800000 750000 0  850000 750000 0  900000 750000 0  950000 750000 0  1000000 750000 0  0 800000 0  50000 800000 0  100000 800000 0  150000 800000 0  200000 800000 0  250000 800000 0  300000 800000 0  350000 800000 0  400000 800000 0  450000 800000 0  500000 800000 0  550000 800000 0  600000 800000 0  650000 800000 0  700000 800000 0  750000 800000 0  800000 800000 0  850000 800000 0  900000 800000 0  950000 800000 0  1000000 800000 0  0 850000 0  50000 850000 0  100000 850000 0  150000 850000 0  200000 850000 0  250000 850000 0  300000 850000 0  350000 850000 0  400000 850000 0  450000 850000 0  500000 850000 0  550000 850000 0  600000 850000 0  650000 850000 0  700000 850000 0  750000 850000 0  800000 850000 0  850000 850000 0  900000 850000 0  950000 850000 0  1000000 850000 0  0 900000 0  50000 900000 0  100000 900000 0  150000 900000 0  200000 900000 0  250000 900000 0  300000 900000 0  350000 900000 0  400000 900000 0  450000 900000 0  500000 900000 0  550000 900000 0  600000 900000 0  650000 900000 0  700000 900000 0  750000 900000 0  800000 900000 0  850000 900000 0  900000 900000 0  950000 900000 0  1000000 900000 0  0 950000 0  50000 950000 0  100000 950000 0  150000 950000 0  200000 950000 0  250000 950000 0  300000 950000 0  350000 950000 0  400000 950000 0  450000 950000 0  500000 950000 0  550000 950000 0  600000 950000 0  650000 950000 0  700000 950000 0  750000 950000 0  800000 950000 0  850000 950000 0  900000 950000 0  950000 950000 0  1000000 950000 0  0 1000000 0  50000 1000000 0  100000 1000000 0  150000 1000000 0  200000 1000000 0  250000 1000000 0  300000 1000000 0  350000 1000000 0  400000 1000000 0  450000 1000000 0  500000 1000000 0  550000 1000000 0  600000 1000000 0  650000 1000000 0  700000 1000000 0  750000 1000000 0  800000 1000000 0  850000 1000000 0  900000 1000000 0  950000 1000000 0  1000000 1000000 0  0 1050000 0  50000 1050000 0  100000 1050000 0  150000 1050000 0  200000 1050000 0  250000 1050000 0  300000 1050000 0  350000 1050000 0  400000 1050000 0  450000 1050000 0  500000 1050000 0  550000 1050000 0  600000 1050000 0  650000 1050000 0  700000 1050000 0  750000 1050000 0  800000 1050000 0  850000 1050000 0  900000 1050000 0  950000 1050000 0  1000000 1050000 0  0 1100000 0  50000 1100000 0  100000 1100000 0  150000 1100000 0  200000 1100000 0  250000 1100000 0  300000 1100000 0  350000 1100000 0  400000 1100000 0  450000 1100000 0  500000 1100000 0  550000 1100000 0  600000 1100000 0  650000 1100000 0  700000 1100000 0  750000 1100000 0  800000 1100000 0  850000 1100000 0  900000 1100000 0  950000 1100000 0  1000000 1100000 0  0 1150000 0  50000 1150000 0  100000 1150000 0  150000 1150000 0  200000 1150000 0  250000 1150000 0  300000 1150000 0  350000 1150000 0  400000 1150000 0  450000 1150000 0  500000 1150000 0  550000 1150000 0  600000 1150000 0  650000 1150000 0  700000 1150000 0  750000 1150000 0  800000 1150000 0  850000 1150000 0  900000 1150000 0  950000 1150000 0  1000000 1150000 0  0 1200000 0  50000 1200000 0  100000 1200000 0  150000 1200000 0  200000 1200000 0  250000 1200000 0  300000 1200000 0  350000 1200000 0  400000 1200000 0  450000 1200000 0  500000 1200000 0  550000 1200000 0  600000 1200000 0  650000 1200000 0  700000 1200000 0  750000 1200000 0  800000 1200000 0  850000 1200000 0  900000 1200000 0  950000 1200000 0  1000000 1200000 0  0 1250000 0  50000 1250000 0  100000 1250000 0  150000 1250000 0  200000 1250000 0  250000 1250000 0  300000 1250000 0  350000 1250000 0  400000 1250000 0  450000 1250000 0  500000 1250000 0  550000 1250000 0  600000 1250000 0  650000 1250000 0  700000 1250000 0  750000 1250000 0  800000 1250000 0  850000 1250000 0  900000 1250000 0  950000 1250000 0  1000000 1250000 0  0 1300000 0  50000 1300000 0  100000 1300000 0  150000 1300000 0  200000 1300000 0  250000 1300000 0  300000 1300000 0  350000 1300000 0  400000 1300000 0  450000 1300000 0  500000 1300000 0  550000 1300000 0  600000 1300000 0  650000 1300000 0  700000 1300000 0  750000 1300000 0  800000 1300000 0  850000 1300000 0  900000 1300000 0  950000 1300000 0  1000000 1300000 0  0 1350000 0  50000 1350000 0  100000 1350000 0  150000 1350000 0  200000 1350000 0  250000 1350000 0  300000 1350000 0  350000 1350000 0  400000 1350000 0  450000 1350000 0  500000 1350000 0  550000 1350000 0  600000 1350000 0  650000 1350000 0  700000 135
[...]
<PointData  Vectors="f_19"> 
<DataArray  type="Float64"  Name="f_19"  NumberOfComponents="3" format="ascii">-2.3801262738375898e-08 -9.9955600178687632e-09 0.0000000000000000e+00  4.9450176855960548e-08 -6.2677650786966282e-09 0.0000000000000000e+00  4.3855756342473361e-08 -2.1621827253506709e-09 0.0000000000000000e+00  4.1475945625546960e-08 -8.3444660415624478e-10 0.0000000000000000e+00  4.0286295061278339e-08 -3.4749237539663635e-10 0.0000000000000000e+00  3.9488522587186112e-08 -1.1526408915966328e-10 0.0000000000000000e+00  3.8894567826534799e-08 2.0292230354341808e-11 0.0000000000000000e+00  3.8450144208070642e-08 1.1352989354143138e-10 0.0000000000000000e+00  3.8138018358730477e-08 1.8898975535551068e-10 0.0000000000000000e+00  3.7953279970544309e-08 2.6151809675139374e-10 0.0000000000000000e+00  3.7896129922898342e-08 3.4305224710882650e-10 0.0000000000000000e+00  3.7970554985553843e-08 4.4572447030725851e-10 0.0000000000000000e+00  3.8186517853145506e-08 5.8411378558447690e-10 0.0000000000000000e+00  3.8567014153242847e-08 7.7792854381397960e-10 0.0000000000000000e+00  3.9165825417505228e-08 1.0567466794977252e-09 0.0000000000000000e+00  4.0112327823033047e-08 1.4715626312342827e-09 0.0000000000000000e+00  4.1724613371219386e-08 2.1292723228192131e-09 0.0000000000000000e+00  4.4762230010069628e-08 3.2951897963635862e-09 0.0000000000000000e+00  5.0527831720047075e-08 5.6511211916298009e-09 0.0000000000000000e+00  5.7592794953162680e-08 9.8399753834095010e-09 0.0000000000000000e+00  -1.7105289387804777e-08 7.8777353612561748e-09 0.0000000000000000e+00  -1.7808089687051156e-08 -1.5123244629976547e-08 0.0000000000000000e+00  7.0347488232057596e-09 -1.1213868914155082e-08 0.0000000000000000e+00  1.7865265880837834e-08 -5.3567386735763959e-09 0.0000000000000000e+00  2.3178014741805418e-08 -2.4826471770239201e-09 0.0000000000000000e+00  2.5954999175381652e-08 -1.1894819114275433e-09 0.0000000000000000e+00  2.7541845694059177e-08 -5.6262464433369690e-10 0.0000000000000000e+00  2.8472214422765910e-08 -2.3609321411078013e-10 0.0000000000000000e+00  2.9016133390232879e-08 -5.6984460953172533e-11 0.0000000000000000e+00  2.9323682771294996e-08 4.5719100248033269e-11 0.0000000000000000e+00  2.9479620674878680e-08 1.1054090627918742e-10 0.0000000000000000e+00  2.9529387285507179e-08 1.6263685262417086e-10 0.0000000000000000e+00  2.9491538038752322e-08 2.2240137360079419e-10 0.0000000000000000e+00  2.9362651541167806e-08 3.1079097334771026e-10 0.0000000000000000e+00  2.9116735844052387e-08 4.5505567202634422e-10 0.0000000000000000e+00  2.8697836614147360e-08 6.9920679107100190e-10 0.0000000000000000e+00  2.7998641514990962e-08 1.1288615583965134e-09 0.0000000000000000e+00  2.6799907384993880e-08 1.9345361242744181e-09 0.0000000000000000e+00  2.4575466401192579e-08 3.5632158794209433e-09 0.0000000000000000e+00  1.9802133024124332e-08 6.9725977144235721e-09 0.0000000000000000e+00  7.9788434871846591e-09 1.3300059866318980e-08 0.0000000000000000e+00  -1.9004990083530578e-08 1.1508135906610688e-08 0.0000000000000000e+00  -1.1140861097996085e-08 -1.8322954917013340e-08 0.0000000000000000e+00  -5.3460703619794013e-10 -1.8451013060534664e-08 0.0000000000000000e+00  5.3048200264992941e-09 -1.1649961214957064e-08 0.0000000000000000e+00  1.0217758023006836e-08 -6.8566207792790757e-09 0.0000000000000000e+00  1.4172487805888357e-08 -4.0214718178927313e-09 0.0000000000000000e+00  1.6968202400799697e-08 -2.3776139064832059e-09 0.0000000000000000e+00  1.8862363414403333e-08 -1.3963406878052586e-09 0.0000000000000000e+00  2.0117062364128668e-08 -7.8561417329325469e-10 0.0000000000000000e+00  2.0914297743792919e-08 -3.8373982135908436e-10 0.0000000000000000e+00  2.1368387939155027e-08 -9.4555694868095127e-11 0.0000000000000000e+00  2.1543426662064847e-08 1.4677443423642072e-10 0.0000000000000000e+00  2.1464228989533038e-08 3.9249613251476355e-10 0.0000000000000000e+00  2.1120447593556554e-08 6.9508987492254641e-10 0.0000000000000000e+00  2.0464067188057453e-08 1.1205443456448658e-09 0.0000000000000000e+00  1.9399156742841271e-08 1.7686195708533524e-09 0.0000000000000000e+00  1.7761301256168263e-08 2.8094661048435981e-09 0.0000000000000000e+00  1.5285167835246005e-08 4.5462859087549482e-09 0.0000000000000000e+00  1.1573711150323072e-08 7.4790582937000013e-09 0.0000000000000000e+00  6.1489470925981503e-09 1.2123501746478961e-08 0.0000000000000000e+00  -1.3422216450702449e-09 1.7481823075624727e-08 0.0000000000000000e+00  -1.4207520204409367e-08 1.4990667785732850e-08 0.0000000000000000e+00  -7.5978552695294851e-09 -1.8774134034923678e-08 0.0000000000000000e+00  -1.7241412936672810e-09 -1.9599563055171418e-08 0.0000000000000000e+00  7.0777542934949754e-10 -1.5575044941720682e-08 0.0000000000000000e+00  3.3674065041199928e-09 -1.0813018245157053e-08 0.0000000000000000e+00  6.2799194230667046e-09 -7.2046740854927833e-09 0.0000000000000000e+00  8.8807037140707840e-09 -4.7230404578230772e-09 0.0000000000000000e+00  1.0924973680408145e-08 -3.0458797164114575e-09 0.0000000000000000e+00  1.2414222271955796e-08 -1.8924529307119217e-09 0.0000000000000000e+00  1.3424131635659843e-08 -1.0644836471482148e-09 0.0000000000000000e+00  1.4027391832953720e-08 -4.2413674914675089e-10 0.0000000000000000e+00  1.4272247043433513e-08 1.3101295461927381e-10 0.0000000000000000e+00  1.4178211445963241e-08 6.8734804434390638e-10 0.0000000000000000e+00  1.3735396698177204e-08 1.3309063676309910e-09 0.0000000000000000e+00  1.2903913550820625e-08 2.1630212458855360e-09 0.0000000000000000e+00  1.1614242948575052e-08 3.3190007870241282e-09 0.0000000000000000e+00  9.7749529805579880e-09 4.9891497548788136e-09 0.0000000000000000e+00  7.3060814867578861e-09 7.4245420592392533e-09 0.0000000000000000e+00  4.2352277318508808e-09 1.0852033380028256e-08 0.0000000000000000e+00  8.5218047925814060e-10 1.5087282510542295e-08 0.0000000000000000e+00  -2.6531743996828379e-09 1.8607688206251351e-08 0.0000000000000000e+00  -1.0173447295934096e-08 1.7729006540969948e-08 0.0000000000000000e+00  -5.7965598996468982e-09 -1.8114069166918213e-08 0.0000000000000000e+00  -2.0006110307947804e-09 -1.9100376716550268e-08 0.0000000000000000e+00  -1.2153439710095172e-09 -1.6825101821981411e-08 0.0000000000000000e+00  -2.2156957176788715e-10 -1.3147579866714080e-08 0.0000000000000000e+00  1.3591878650631886e-09 -9.6463469146383247e-09 0.0000000000000000e+00  3.1463698922891366e-09 -6.8291776268491667e-09 0.0000000000000000e+00  4.7867524318792610e-09 -4.6908011795161583e-09 0.0000000000000000e+00  6.1125519930410513e-09 -3.0805329148768020e-09 0.0000000000000000e+00  7.0761931253582915e-09 -1.8370838643598881e-09 0.0000000000000000e+00  7.6800267531259033e-09 -8.2097706184216186e-10 0.0000000000000000e+00  7.9370993960821472e-09 8.6051892592942976e-11 0.0000000000000000e+00  7.8542052580753098e-09 9.9037947853553505e-10 0.0000000000000000e+00  7.4264129487165365e-09 1.9973934496180578e-09 0.0000000000000000e+00  6.6386372094577822e-09 3.2219979692171547e-09 0.0000000000000000e+00  5.4754117401106918e-09 4.7962836393782795e-09 0.0000000000000000e+00  3.9452892550094566e-09 6.8658218686375963e-09 0.0000000000000000e+00  2.1300313009432497e-09 9.5502250772696658e-09 0.0000000000000000e+00  2.5443233768811229e-10 1.2816880153593326e-08 0.0000000000000000e+00  -1.3338723655794911e-09 1.6217430419553690e-08 0.0000000000000000e+00  -2.8201337132960886e-09 1.8624821488432882e-08 0.0000000000000000e+00  -7.9160383762302622e-09 1.8693307662102897e-08 0.0000000000000000e+00  -4.7641013921254504e-09 -1.6968350655256710e-08 0.0000000000000000e+00  -2.1296077501543719e-09 -1.8026945466081427e-08 0.0000000000000000e+00  -2.1890644877446377e-09 -1.6679440407954485e-08 0.0000000000000000e+00  -2.2326741754802453e-09 -1.4016227090094473e-08 0.0000000000000000e+00  -1.7192289354976397e-09 -1.1027504773856696e-08 0.0000000000000000e+00  -8.0712128384060797e-10 -8.2866250848304187e-09 0.0000000000000000e+00  2.2437422229099016e-10 -5.9789956264400958e-09 0.0000000000000000e+00  1.1696940279341941e-09 -4.0918552728745149e-09 0.0000000000000000e+00  1.9158003872424919e-09 -2.5360662099051143e-09 0.0000000000000000e+00  2.4110256136916824e-09 -1.2024176230216631e-09 0.0000000000000000e+00  2.6352127405430563e-09 1.8837030720493162e-11 0.0000000000000000e+00  2.5819419629940174e-09 1.2344070514386205e-09 0.0000000000000000e+00  2.2516359413922231e-09 2.5499224999639533e-09 0.0000000000000000e+00  1.6537206770691356e-09 4.0716962876920934e-09 0.0000000000000000e+00  8.1810824632384200e-10 5.9026651721879205e-09 0.0000000000000000e+00  -1.8257387207137833e-10 8.1231738367980528e-09 0.0000000000000000e+00  -1.2031061656803045e-09 1.0741364225466718e-08 0.0000000000000000e+00  -2.0148871922687632e-09 1.3599259028034238e-08 0.0000000000000000e+00  -2.4196737113808858e-09 1.6259245305932471e-08 0.0000000000000000e+00  -2.8408032293959138e-09 1.8007428203876874e-08 0.0000000000000000e+00  -6.4783185726665487e-09 1.8446311560514489e-08 0.0000000000000000e+00  -4.0991824201669961e-09 -1.5558525266377163e-08 0.0000000000000000e+00  -2.2283445157020378e-09 -1.6649743712082895e-08 0.0000000000000000e+00  -2.7786637048117592e-09 -1.5826486714087237e-08 0.0000000000000000e+00  -3.4609220000047107e-09 -1.3900135087473604e-08 0.0000000000000000e+00  -3.7067632715869179e-09 -1.1479008199507274e-08 0.0000000000000000e+00  -3.5282768689864573e-09 -9.0215758771989204e-09 0.0000000000000000e+00  -3.1003677336982163e-09 -6.7661795289416212e-09 0.0000000000000000e+00  -2.5970351850295220e-09 -4.7845640973872900e-09 0.0000000000000000e+00  -2.1429004416443399e-09 -3.0540478488100254e-09 0.0000000000000000e+00  -1.8134969129410689e-09 -1.5071377670624858e-09 0.0000000000000000e+00  -1.6485340201267948e-09 -5.8160768324533030e-11 0.0000000000000000e+00  -1.6633354631280610e-09 1.3842555846482131e-09 0.0000000000000000e+00  -1.8541149363088033e-09 2.9109620644730372e-09 0.0000000000000000e+00  -2.1964726296888989e-09 4.6063034815170851e-09 0.0000000000000000e+00  -2.6375870812845023e-09 6.5367653165514908e-09 0.0000000000000000e+00  -3.0844282478190288e-09 8.7280444251104470e-09 0.0000000000000000e+00  -3.3965981261746340e-09 1.1125524195324828e-08 0.0000000000000000e+00  -3.4093926748287996e-09 1.3543048940964489e-08 0.0000000000000000e+00  -3.0577874583847325e-09 1.5633351979604934e-08 0.0000000000000000e+00  -2.8394358020184685e-09 1.6956431532755482e-08 0.0000000000000000e+00  -5.4712582844803557e-09 1.7544145797568319e-08 0.0000000000000000e+00  -3.6357519058076845e-09 -1.3973908049504153e-08 0.0000000000000000e+00  -2.3123554647295988e-09 -1.5074860562582008e-08 0.0000000000000000e+00  -3.1819446555729132e-09 -1.4568544904605012e-08 0.0000000000000000e+00  -4.2700892441668735e-09 -1.3159499835163813e-08 0.0000000000000000e+00  -5.0375366538020750e-09 -1.1235429152453259e-08 0.0000000000000000e+00  -5.4176941160354919e-09 -9.1272261407216356e-09 0.0000000000000000e+00  -5.5008182097388150e-09 -7.0540117185135597e-09 0.0000000000000000e+00  -5.4101106804093289e-09 -5.1202730789704490e-09 0.0000000000000000e+00  -5.2520865984590493e-09 -3.3468984722610218e-09 0.0000000000000000e+00  -5.1022395297892705e-09 -1.7038660998253121e-09 0.0000000000000000e+00  -5.0056215746832254e-09 -1.3423334197011569e-10 0.0000000000000000e+00  -4.9810450525648062e-09 1.4302420980063974e-09 0.0000000000000000e+00  -5.0237291945240632e-09 3.0581221409489335e-09 0.0000000000000000e+00  -5.1047968157842255e-09 4.8078103164189130e-09 0.0000000000000000e+00  -5.1683031244687629e-09 6.7137566249869971e-09 0.0000000000000000e+00  -5.1290831715039679e-09 8.7665590304018654e-09 0.0000000000000000e+00  -4.8793466959242180e-09 1.0887573968514375e-08 0.0000000000000000e+00  -4.3214659772720984e-09 1.2907015539209331e-08 0.0000000000000000e+00  -3.4730034295543863e-09 1.4568566669970856e-08 0.0000000000000000e+00  -2.8309360212406814e-09 1.5600398377926929e-08 0.0000000000000000e+00  -4.7286700193148555e-09 1.6263875609309960e-08 0.0000000000000000e+00  -3.2976070755124786e-09 -1.2261112527795437e-08 0.0000000000000000e+00  -2.3835948155755515e-09 -1.3358761139079141e-08 0.0000000000000000e+00  -3.4763531460275003e-09 -1.3054780946967396e-08 0.0000000000000000e+00  -4.8322877949064184e-09 -1.2016171887549582e-08 0.0000000000000000e+00  -5.9554237155005942e-09 -1.0501083288919379e-08 0.0000000000000000e+00  -6.7420559309164541e-09 -8.7411073181521441e-09 0.0000000000000000e+00  -7.2244175652115419e-09 -6.9137221572197588e-09 0.0000000000000000e+00  -7.4783295108012665e-09 -5.1247874327204944e-09 0.0000000000000000e+00  -7.5819847281523971e-09 -3.4167200136471179e-09 0.0000000000000000e+00  -7.5978890158078225e-09 -1.7863016319141130e-09 0.0000000000000000e+00  -7.5667866591794034e-09 -2.0238709021906097e-10 0.0000000000000000e+00  -7.5067834351030631e-09 1.3794479366276286e-09 0.0000000000000000e+00  -7.4137858940895462e-09 3.0046721645273144e-09 0.0000000000000000e+00  -7.2617651125809906e-09 4.7080647093854227e-09 0.0000000000000000e+00  -7.0033815556604060e-09 6.5006709115170250e-09 0.0000000000000000e+00  -6.5735848092544105e-09 8.3549285254902767e-09 0.0000000000000000e+00  -5.9014990571311469e-09 1.0190403678985455e-08 0.0000000000000000e+00  -4.9413699167712894e-09 1.1867463864110488e-08 0.0000000000000000e+00  -3.7562793041565176e-09 1.3202083258683718e-08 0.0000000000000000e+00  -2.8177365319133882e-09 1.4026846881767331e-08 0.0000000000000000e+00  -4.1652383486377562e-09 1.4743534230564431e-08 0.0000000000000000e+00  -3.0458691068235180e-09 -1.0450864265235334e-08 0.0000000000000000e+00  -2.4430753002902365e-09 -1.1537644125320435e-08 0.0000000000000000e+00  -3.6975437699253619e-09 -1.1370055457799855e-08 0.0000000000000000e+00  -5.2349657843992223e-09 -1.0606613754788527e-08 0.0000000000000000e+00  -6.6004797941989157e-09 -9.4267758189720262e-09 0.0000000000000000e+00  -7.6752555513266129e-09 -7.9912795439255057e-09 0.0000000000000000e+00  -8.4546423406341313e-09 -6.4355808396428783e-09 0.0000000000000000e+00  -8.9772809037580636e-09 -4.8526206414028988e-09 0.0000000000000000e+00  -9.2933885642046597e-09 -3.2911625711197313e-09 0.0000000000000000e+00  -9.4481123734045989e-09 -1.7639302673335331e-09 0.0000000000000000e+00  -9.4732662405445823e-09 -2.5921725375948404e-10 0.0000000000000000e+00  -9.3838957090099603e-09 1.2473014231330563e-09 0.0000000000000000e+00  -9.1773905987271978e-09 2.7814107953055892e-09 0.0000000000000000e+00  -8.8341401579165179e-09 4.3595401057392037e-09 0.0000000000000000e+00  -8.3200280453044820e-09 5.9779341136209907e-09 0.0000000000000000e+00  -7.5923306698510557e-09 7.6024014411847980e-09 0.0000000000000000e+00  -6.6120330942371532e-09 9.1610814469900027e-09 0.0000000000000000e+00  -5.3695245809312379e-09 1.0545005638885451e-08 0.0000000000000000e+00  -3.9518846478073610e-09 1.1623775157515790e-08 0.0000000000000000e+00  -2.8007026842298410e-09 1.2296952131675497e-08 0.0000000000000000e+00  -3.7304428275805110e-09 1.3059627087425590e-08 0.0000000000000000e+00  -2.8590061185762035e-09 -8.5663874677610027e-09 0.0000000000000000e+00  -2.4923312990387063e-09 -9.6378387758829337e-09 0.0000000000000000e+00  -3.8652015228652937e-09 -9.5679654961834803e-09 0.0000000000000000e+00  -5.5270447480027946e-09 -9.0183754698136638e-09 0.0000000000000000e+00  -7.0570997987473263e-09 -8.1190186982830981e-09 0.0000000000000000e+00  -8.3320285250551160e-09 -6.9810839646214820e-09 0.0000000000000000e+00  -9.3246493830048082e-09 -5.7044006384423476e-09 0.0000000000000000e+00  -1.0046773609396526e-08 -4.3644255363402887e-09 0.0000000000000000e+00  -1.0525277272201605e-08 -3.0075078752263446e-09 0.0000000000000000e+00  -1.0788533930454782e-08 -1.6537387605942643e-09 0.0000000000000000e+00  -1.0858399745968212e-08 -3.0396650177542372e-10 0.0000000000000000e+00  -1.0746025866265762e-08 1.0515485206751450e-09 0.0000000000000000e+00  -1.0450413206427951e-08 2.4241184848312985e-09 0.0000000000000000e+00  -9.9591710774644684e-09 3.8177688524154639e-09 0.0000000000000000e+00  -9.2515840411867823e-09 5.2209601678372977e-09 0.0000000000000000e+00  -8.3047178647468378e-09 6.5998430535728511e-09 0.0000000000000000e+00  -7.1041432653780391e-09 7.8949353911495626e-09 0.0000000000000000e+00  -5.6644298688567873e-09 9.0240622969367883e-09 0.0000000000000000e+00  -4.0850888471874801e-09 9.8959668451011237e-09 0.0000000000000000e+00  -2.7804355611044160e-09 1.0454637913068786e-08 0.0000000000000000e+00  -3.3919803672716613e-09 1.1259752038719299e-08 0.0000000000000000e+00  -2.7244635870093380e-09 -6.6263503611740521e-09 0.0000000000000000e+00  -2.5333276738609198e-09 -7.6798149747163169e-09 0.0000000000000000e+00  -3.9920499335157740e-09 -7.6849214556452657e-09 0.0000000000000000e+00  -5.7387268433776713e-09 -7.3099949908984224e-09 0.0000000000000000e+00  -7.3790215047660853e-09 -6.6526379829794905e-09 0.0000000000000000e+00  -8.7897942811732768e-09 -5.7891710509647181e-09 0.0000000000000000e+00  -9.9304861434320144e-09 -4.7909292710552715e-09 0.0000000000000000e+00  -1.0794538639258472e-08 -3.7157521488448919e-09 0.0000000000000000e+00  -1.1391102363877586e-08 -2.6031306407583942e-09 0.0000000000000000e+00  -1.1734577526613529e-08 -1.4745517451187981e-09 0.0000000000000000e+00  -1.1837829153112035e-08 -3.3745342092557653e-10 0.0000000000000000e+00  -1.1708226871531371e-08 8.0887657533504997e-10 0.0000000000000000e+00  -1.1346131095100710e-08 1.9666336380823848e-09 0.0000000000000000e+00  -1.0745607400805033e-08 3.1328388067492348e-09 0.0000000000000000e+00  -9.8973587165119455e-09 4.2933876501585973e-09 0.0000000000000000e+00  -8.7941047521538794e-09 5.4187356520828752e-09 0.0000000000000000e+00  -7.4392554531935359e-09 6.4625355713156053e-09 0.0000000000000000e+00  -5.8632870198347470e-09 7.3648822836049169e-09 0.0000000000000000e+00  -4.1721303054880673e-09 8.0633005347692787e-09 0.0000000000000000e+00  -2.7575821934393909e-09 8.5321877406131587e-09 0.0000000000000000e+00  -3.1285190350617253e-09 9.3765001524297095e-09 0.0000000000000000e+00  -2.6347872238148931e-09 -4.6461542177400862e-09 0.0000000000000000e+00  -2.5681796072219911e-09 -5.6799602395937254e-09 0.0000000000000000e+00  -4.0871590844956830e-09 -5.7469304098885565e-09 0.0000000000000000e+00  -5.8900795089670951e-09 -5.5219784041731604e-09 0.0000000000000000e+00  -7.6019479666711684e-09 -5.0806029095690438e-09 0.0000000000000000e+00  -9.1016232027853868e-09 -4.4739845607867538e-09 0.0000000000000000e+00  -1.0340899553902531e-08 -3.7509041711840682e-09 0.0000000000000000e+00  -1.1301228298162453e-08 -2.9530268000639802e-09 0.0000000000000000e+00  -1.1979230044381489e-08 -2.1110192200046585e-09 0.0000000000000000e+00  -1.2378754725206358e-08 -1.2439210930527730e-09 0.0000000000000000e+00  -1.2505486287430436e-08 -3.6119256416544665e-10 0.0000000000000000e+00  -1.2363588082993266e-08 5.3355011281299162e-10 0.0000000000000000e+00  -1.1954361200923708e-08 1.4379956531344475e-09 0.0000000000000000e+00  -1.1276878294954000e-08 2.3465161958896604e-09 0.0000000000000000e+00  -1.0330528227310381e-08 3.2461315986468077e-09 0.0000000000000000e+00  -9.1194524630136785e-09 4.1138049960620375e-09 0.0000000000000000e+00  -7.6594110575859630e-09 4.9159351652758099e-09 0.0000000000000000e+00  -5.9912282273873682e-09 5.6110475631762071e-09 0.0000000000000000e+00  -4.2242420694735328e-09 6.1583449545531160e-09 0.0000000000000000e+00  -2.7328890765631825e-09 6.5537621539837066e-09 0.0000000000000000e+00  -2.9258032083688594e-09 7.4337483025275643e-09 0.0000000000000000e+00  -2.5856720930696365e-09 -2.6387408937628971e-09 0.0000000000000000e+00  -2.5988919462563449e-09 -3.6516268121954232e-09 0.0000000000000000e+00  -4.1571622821884945e-09 -3.7733129759862493e-09 0.0000000000000000e+00  -5.9947888279842379e-09 -3.6832943073945506e-09 0.0000000000000000e+00  -7.7498443284049140e-09 -3.4410465491922184e-09 0.0000000000000000e+00  -9.3036167987577339e-09 -3.0788242849798498e-09 0.0000000000000000e+00  -1.0603895225393603e-08 -2.62720646615168