<?xml version="1.0"?>
<VTKFile type="UnstructuredGrid"  version="0.1"  >
<UnstructuredGrid>
<Piece  NumberOfPoints="651" NumberOfCells="1200">
<Points>
<DataArray  type="Float64"  NumberOfComponents="3"  format="ascii">0 0 0  50000 0 0  100000 0 0  150000 0 0  200000 0 0  250000 0 0  300000 0 0  350000 0 0  400000 0 0  450000 0 0  500000 0 0  550000 0 0  600000 0 0  650000 0 0  700000 0 0  750000 0 0  800000 0 0  850000 0 0  900000 0 0  950000 0 0  1000000 0 0  0 50000 0  50000 50000 0  100000 50000 0  150000 50000 0  200000 50000 0  250000 50000 0  300000 50000 0  350000 50000 0  400000 50000 0  450000 50000 0  500000 50000 0  550000 50000 0  600000 50000 0  650000 50000 0  700000 50000 0  750000 50000 0  800000 50000 0  850000 50000 0  900000 50000 0  950000 50000 0  1000000 50000 0  0 100000 0  50000 100000 0  100000 100000 0  150000 100000 0  200000 100000 0  250000 100000 0  300000 100000 0  350000 100000 0  400000 100000 0  450000 100000 0  500000 100000 0  550000 100000 0  600000 100000 0  650000 100000 0  700000 100000 0  750000 100000 0  800000 100000 0  850000 100000 0  900000 100000 0  950000 100000 0  1000000 100000 0  0 150000 0  50000 150000 0  100000 150000 0  150000 150000 0  200000 150000 0  250000 150000 0  300000 150000 0  350000 150000 0  400000 150000 0  450000 150000 0  500000 150000 0  550000 150000 0  600000 150000 0  650000 150000 0  700000 150000 0  750000 150000 0  800000 150000 0  850000 150000 0  900000 150000 0  950000 150000 0  1000000 150000 0  0 200000 0  50000 200000 0  100000 200000 0  150000 200000 0  200000 200000 0  250000 200000 0  300000 200000 0  350000 200000 0  400000 200000 0  450000 200000 0  500000 200000 0  550000 200000 0  600000 200000 0  650000 200000 0  700000 200000 0  750000 200000 0  800000 200000 0  850000 200000 0  900000 200000 0  950000 200000 0  1000000 200000 0  0 250000 0  50000 250000 0  100000 250000 0  150000 250000 0  200000 250000 0  250000 250000 0  300000 250000 0  350000 250000 0  400000 250000 0  450000 250000 0  500000 250000 0  550000 250000 0  600000 250000 0  650000 250000 0  700000 250000 0  750000 250000 0  800000 250000 0  850000 250000 0  900000 250000 0  950000 250000 0  1000000 250000 0  0 300000 0  50000 300000 0  100000 300000 0  150000 300000 0  200000 300000 0  250000 300000 0  300000 300000 0  350000 300000 0  400000 300000 0  450000 300000 0  500000 300000 0  550000 300000 0  600000 300000 0  650000 300000 0  700000 300000 0  750000 300000 0  800000 300000 0  850000 300000 0  900000 300000 0  950000 300000 0  1000000 300000 0  0 350000 0  50000 350000 0  100000 350000 0  150000 350000 0  200000 350000 0  250000 350000 0  300000 350000 0  350000 350000 0  400000 350000 0  450000 350000 0  500000 350000 0  550000 350000 0  600000 350000 0  650000 350000 0  700000 350000 0  750000 350000 0  800000 350000 0  850000 350000 0  900000 350000 0  950000 350000 0  1000000 350000 0  0 400000 0  50000 400000 0  100000 400000 0  150000 400000 0  200000 400000 0  250000 400000 0  300000 400000 0  350000 400000 0  400000 400000 0  450000 400000 0  500000 400000 0  550000 400000 0  600000 400000 0  650000 400000 0  700000 400000 0  750000 400000 0  800000 400000 0  850000 400000 0  900000 400000 0  950000 400000 0  1000000 400000 0  0 450000 0  50000 450000 0  100000 450000 0  150000 450000 0  200000 450000 0  250000 450000 0  300000 450000 0  350000 450000 0  400000 450000 0  450000 450000 0  500000 450000 0  550000 450000 0  600000 450000 0  650000 450000 0  700000 450000 0  750000 450000 0  800000 450000 0  850000 450000 0  900000 450000 0  950000 450000 0  1000000 450000 0  0 500000 0  50000 500000 0  100000 500000 0  150000 500000 0  200000 500000 0  250000 500000 0  300000 500000 0  350000 500000 0  400000 500000 0  450000 500000 0  500000 500000 0  550000 500000 0  600000 500000 0  650000 500000 0  700000 500000 0  750000 500000 0  800000 500000 0  850000 500000 0  900000 500000 0  950000 500000 0  1000000 500000 0  0 550000 0  50000 550000 0  100000 550000 0  150000 550000 0  200000 550000 0  250000 550000 0  300000 550000 0  350000 550000 0  400000 550000 0  450000 550000 0  500000 550000 0  550000 550000 0  600000 550000 0  650000 550000 0  700000 550000 0  750000 550000 0  800000 550000 0  850000 550000 0  900000 550000 0  950000 550000 0  1000000 550000 0  0 600000 0  50000 600000 0  100000 600000 0  150000 600000 0  200000 600000 0  250000 600000 0  300000 600000 0  350000 600000 0  400000 600000 0  450000 600000 0  500000 600000 0  550000 600000 0  600000 600000 0  650000 600000 0  700000 600000 0  750000 600000 0  800000 600000 0  850000 600000 0  900000 600000 0  950000 600000 0  1000000 600000 0  0 650000 0  50000 650000 0  100000 650000 0  150000 650000 0  200000 650000 0  250000 650000 0  300000 650000 0  350000 650000 0  400000 650000 0  450000 650000 0  500000 650000 0  550000 650000 0  600000 650000 0  650000 650000 0  700000 650000 0  750000 650000 0  800000 650000 0  850000 650000 0  900000 650000 0  950000 650000 0  1000000 650000 0  0 700000 0  50000 700000 0  100000 700000 0  150000 700000 0  200000 700000 0  250000 700000 0  300000 700000 0  350000 700000 0  400000 700000 0  450000 700000 0  500000 700000 0  550000 700000 0  600000 700000 0  650000 700000 0  700000 700000 0  750000 700000 0  800000 700000 0  850000 700000 0  900000 700000 0  950000 700000 0  1000000 700000 0  0 750000 0  50000 750000 0  100000 750000 0  150000 750000 0  200000 750000 0  250000 750000 0  300000 750000 0  350000 750000 0  400000 750000 0  450000 750000 0  500000 750000 0  550000 750000 0  600000 750000 0  650000 750000 0  700000 750000 0  750000 750000 0  800000 750000 0  850000 750000 0  900000 750000 0  950000 750000 0  1000000 750000 0  0 800000 0  50000 800000 0  100000 800000 0  150000 800000 0  200000 800000 0  250000 800000 0  300000 800000 0  350000 800000 0  400000 800000 0  450000 800000 0  500000 800000 0  550000 800000 0  600000 800000 0  650000 800000 0  700000 800000 0  750000 800000 0  800000 800000 0  850000 800000 0  900000 800000 0  950000 800000 0  1000000 800000 0  0 850000 0  50000 850000 0  100000 850000 0  150000 850000 0  200000 850000 0  250000 850000 0  300000 850000 0  350000 850000 0  400000 850000 0  450000 850000 0  500000 850000 0  550000 850000 0  600000 850000 0  650000 850000 0  700000 850000 0  750000 850000 0  800000 850000 0  850000 850000 0  900000 850000 0  950000 850000 0  1000000 850000 0  0 900000 0  50000 900000 0  100000 900000 0  150000 900000 0  200000 900000 0  250000 900000 0  300000 900000 0  350000 900000 0  400000 900000 0  450000 900000 0  500000 900000 0  550000 900000 0  600000 900000 0  650000 900000 0  700000 900000 0  750000 900000 0  800000 900000 0  850000 900000 0  900000 900000 0  950000 900000 0  1000000 900000 0  0 950000 0  50000 950000 0  100000 950000 0  150000 950000 0  200000 950000 0  250000 950000 0  300000 950000 0  350000 950000 0  400000 950000 0  450000 950000 0  500000 950000 0  550000 950000 0  600000 950000 0  650000 950000 0  700000 950000 0  750000 950000 0  800000 950000 0  850000 950000 0  900000 950000 0  950000 950000 0  1000000 950000 0  0 1000000 0  50000 1000000 0  100000 1000000 0  150000 1000000 0  200000 1000000 0  250000 1000000 0  300000 1000000 0  350000 1000000 0  400000 1000000 0  450000 1000000 0  500000 1000000 0  550000 1000000 0  600000 1000000 0  650000 1000000 0  700000 1000000 0  750000 1000000 0  800000 1000000 0  850000 1000000 0  900000 1000000 0  950000 1000000 0  1000000 1000000 0  0 1050000 0  50000 1050000 0  100000 1050000 0  150000 1050000 0  200000 1050000 0  250000 1050000 0  300000 1050000 0  350000 1050000 0  400000 1050000 0  450000 1050000 0  500000 1050000 0  550000 1050000 0  600000 1050000 0  650000 1050000 0  700000 1050000 0  750000 1050000 0  800000 1050000 0  850000 1050000 0  900000 1050000 0  950000 1050000 0  1000000 1050000 0  0 1100000 0  50000 1100000 0  100000 1100000 0  150000 1100000 0  200000 1100000 0  250000 1100000 0  300000 1100000 0  350000 1100000 0  400000 1100000 0  450000 1100000 0  500000 1100000 0  550000 1100000 0  600000 1100000 0  650000 1100000 0  700000 1100000 0  750000 1100000 0  800000 1100000 0  850000 1100000 0  900000 1100000 0  950000 1100000 0  1000000 1100000 0  0 1150000 0  50000 1150000 0  100000 1150000 0  150000 1150000 0  200000 1150000 0  250000 1150000 0  300000 1150000 0  350000 1150000 0  400000 1150000 0  450000 1150000 0  500000 1150000 0  550000 1150000 0  600000 1150000 0  650000 1150000 0  700000 1150000 0  750000 1150000 0  800000 1150000 0  850000 1150000 0  900000 1150000 0  950000 1150000 0  1000000 1150000 0  0 1200000 0  50000 1200000 0  100000 1200000 0  150000 1200000 0  200000 1200000 0  250000 1200000 0  300000 1200000 0  350000 1200000 0  400000 1200000 0  450000 1200000 0  500000 1200000 0  550000 1200000 0  600000 1200000 0  650000 1200000 0  700000 1200000 0  750000 1200000 0  800000 1200000 0  850000 1200000 0  900000 1200000 0  950000 1200000 0  1000000 1200000 0  0 1250000 0  50000 1250000 0  100000 1250000 0  150000 1250000 0  200000 1250000 0  250000 1250000 0  300000 1250000 0  350000 1250000 0  400000 1250000 0  450000 1250000 0  500000 1250000 0  550000 1250000 0  600000 1250000 0  650000 1250000 0  700000 1250000 0  750000 1250000 0  800000 1250000 0  850000 1250000 0  900000 1250000 0  950000 1250000 0  1000000 1250000 0  0 1300000 0  50000 1300000 0  100000 1300000 0  150000 1300000 0  200000 1300000 0  250000 1300000 0  300000 1300000 0  350000 1300000 0  400000 1300000 0  450000 1300000 0  500000 1300000 0  550000 1300000 0  600000 1300000 0  650000 1300000 0  700000 1300000 0  750000 1300000 0  800000 1300000 0  850000 1300000 0  900000 1300000 0  950000 1300000 0  1000000 1300000 0  0 1350000 0  50000 1350000 0  100000 1350000 0  150000 1350000 0  200000 1350000 0  250000 1350000 0  300000 1350000 0  350000 1350000 0  400000 1350000 0  450000 1350000 0  500000 1350000 0  550000 1350000 0  600000 1350000 0  650000 1350000 0  700000 135
[...]
<PointData  Vectors="f_19"> 
<DataArray  type="Float64"  Name="f_19"  NumberOfComponents="3" format="ascii">-2.4436668776899922e-08 -1.0264825531933127e-08 0.0000000000000000e+00  4.8631185124018359e-08 -6.3539213726246354e-09 0.0000000000000000e+00  4.2918742328647128e-08 -2.0671657744771730e-09 0.0000000000000000e+00  4.0478118882836657e-08 -7.1536492167162396e-10 0.0000000000000000e+00  3.9285454273469315e-08 -2.5406611244940181e-10 0.0000000000000000e+00  3.8508464409328545e-08 -6.5423974115815043e-11 0.0000000000000000e+00  3.7950666956102944e-08 1.7801444826408998e-11 0.0000000000000000e+00  3.7555467945535072e-08 5.2966645298128657e-11 0.0000000000000000e+00  3.7305215274821886e-08 6.4607840675764339e-11 0.0000000000000000e+00  3.7195503668352248e-08 6.5900118393004628e-11 0.0000000000000000e+00  3.7227438362347613e-08 6.5995563752617372e-11 0.0000000000000000e+00  3.7405870310163291e-08 7.3345936416978455e-11 0.0000000000000000e+00  3.7740982265629911e-08 9.8222504744454133e-11 0.0000000000000000e+00  3.8254326263658365e-08 1.5625729907838075e-10 0.0000000000000000e+00  3.8994888042938942e-08 2.7575270027335221e-10 0.0000000000000000e+00  4.0081601931909926e-08 5.1579058651190599e-10 0.0000000000000000e+00  4.1815695265534454e-08 1.0148765298028198e-09 0.0000000000000000e+00  4.4944065526090965e-08 2.1175799425349891e-09 0.0000000000000000e+00  5.0796392702586963e-08 4.6413596071778917e-09 0.0000000000000000e+00  5.8043044104970669e-08 9.1536377980931410e-09 0.0000000000000000e+00  -1.6410248830362938e-08 7.0479260332933100e-09 0.0000000000000000e+00  -1.8204871432831879e-08 -1.5821833023473282e-08 0.0000000000000000e+00  7.2262605814076996e-09 -1.1281063528540986e-08 0.0000000000000000e+00  1.8110375070544740e-08 -5.2522589307970644e-09 0.0000000000000000e+00  2.3183561555703310e-08 -2.3981627328642794e-09 0.0000000000000000e+00  2.5784724849510281e-08 -1.1434509225796874e-09 0.0000000000000000e+00  2.7257428654201312e-08 -5.5208509091473701e-10 0.0000000000000000e+00  2.8114944283860304e-08 -2.5591180455736550e-10 0.0000000000000000e+00  2.8617493333692913e-08 -1.0474595616667218e-10 0.0000000000000000e+00  2.8908723449369632e-08 -2.9574705692571272e-11 0.0000000000000000e+00  2.9068859062858529e-08 6.9359691519268440e-12 0.0000000000000000e+00  2.9139838742050790e-08 2.9333234567010541e-11 0.0000000000000000e+00  2.9136832838441145e-08 5.8085163032828145e-11 0.0000000000000000e+00  2.9052235273258556e-08 1.1535181871923190e-10 0.0000000000000000e+00  2.8854131426353763e-08 2.3159902466781327e-10 0.0000000000000000e+00  2.8478232471803658e-08 4.5739246428502326e-10 0.0000000000000000e+00  2.7807233254637563e-08 8.8931172809483209e-10 0.0000000000000000e+00  2.6615554811116280e-08 1.7308397936715190e-09 0.0000000000000000e+00  2.4391982267230628e-08 3.4281607678617797e-09 0.0000000000000000e+00  1.9692606505934232e-08 6.8717426263488848e-09 0.0000000000000000e+00  8.2712452110336386e-09 1.3025696116480564e-08 0.0000000000000000e+00  -1.8379210479019703e-08 1.0978101350017148e-08 0.0000000000000000e+00  -1.1235686651286091e-08 -1.9429122726322326e-08 0.0000000000000000e+00  -2.7380809514208373e-10 -1.8449253530384821e-08 0.0000000000000000e+00  5.8273251944007360e-09 -1.1360718471158961e-08 0.0000000000000000e+00  1.0704818898992553e-08 -6.5877049849218965e-09 0.0000000000000000e+00  1.4519740326386474e-08 -3.8236325289631893e-09 0.0000000000000000e+00  1.7169501152803335e-08 -2.2497429611296157e-09 0.0000000000000000e+00  1.8942252670631688e-08 -1.3273765739235900e-09 0.0000000000000000e+00  2.0103283448211894e-08 -7.6599328015449634e-10 0.0000000000000000e+00  2.0831889145663798e-08 -4.0675402406760714e-10 0.0000000000000000e+00  2.1238559572587656e-08 -1.5537667139757811e-10 0.0000000000000000e+00  2.1383350447176797e-08 5.2378640967850335e-11 0.0000000000000000e+00  2.1286893626421499e-08 2.6959187995093495e-10 0.0000000000000000e+00  2.0934386577969793e-08 5.5132617365447733e-10 0.0000000000000000e+00  2.0273203060701542e-08 9.6826036985312593e-10 0.0000000000000000e+00  1.9203530655114280e-08 1.6267452984031478e-09 0.0000000000000000e+00  1.7560124957674842e-08 2.7029988154959958e-09 0.0000000000000000e+00  1.5083824370639719e-08 4.4978758611126596e-09 0.0000000000000000e+00  1.1393064551594402e-08 7.4853998787402396e-09 0.0000000000000000e+00  6.0224438734408602e-09 1.2132238055238078e-08 0.0000000000000000e+00  -1.2879716086376759e-09 1.7585630489869068e-08 0.0000000000000000e+00  -1.3213547681726821e-08 1.4720390069892380e-08 0.0000000000000000e+00  -7.5432724810578263e-09 -2.0056253635081996e-08 0.0000000000000000e+00  -1.5583530674889350e-09 -1.9871750974844456e-08 0.0000000000000000e+00  1.1247218987573824e-09 -1.5321518275044623e-08 0.0000000000000000e+00  3.8900307332403417e-09 -1.0460603000550013e-08 0.0000000000000000e+00  6.7799481338273793e-09 -6.8856202478969753e-09 0.0000000000000000e+00  9.2968241285210690e-09 -4.4730716045678686e-09 0.0000000000000000e+00  1.1239636021770863e-08 -2.8687599881547479e-09 0.0000000000000000e+00  1.2631096078698946e-08 -1.7825862079671429e-09 0.0000000000000000e+00  1.3554789379546011e-08 -1.0144681627018895e-09 0.0000000000000000e+00  1.4085076515286770e-08 -4.2659087154995177e-10 0.0000000000000000e+00  1.4269159304776816e-08 8.3684933341665491e-11 0.0000000000000000e+00  1.4124318262116672e-08 6.0397055868488710e-10 0.0000000000000000e+00  1.3638077722160775e-08 1.2228536689507346e-09 0.0000000000000000e+00  1.2768425859450097e-08 2.0453856678624814e-09 0.0000000000000000e+00  1.1445314815277412e-08 3.2106300733256348e-09 0.0000000000000000e+00  9.5796416338385778e-09 4.9096641688881865e-09 0.0000000000000000e+00  7.0965631269728447e-09 7.3862227392636529e-09 0.0000000000000000e+00  4.0272729119863024e-09 1.0849497975451968e-08 0.0000000000000000e+00  6.6549830602682409e-10 1.5107759637867205e-08 0.0000000000000000e+00  -2.6245834857425412e-09 1.8747887492389805e-08 0.0000000000000000e+00  -8.9133508625404985e-09 1.7556862878339045e-08 0.0000000000000000e+00  -5.6789808808666197e-09 -1.9467696932352497e-08 0.0000000000000000e+00  -1.8931295266423339e-09 -1.9606186853797015e-08 0.0000000000000000e+00  -9.1779900089322351e-10 -1.6724014196458161e-08 0.0000000000000000e+00  2.1258123474086171e-10 -1.2827846416820228e-08 0.0000000000000000e+00  1.8437890127500404e-09 -9.2826738245402697e-09 0.0000000000000000e+00  3.6114874097984746e-09 -6.4985108139231880e-09 0.0000000000000000e+00  5.1924998658213644e-09 -4.4219039787198232e-09 0.0000000000000000e+00  6.4415657685931172e-09 -2.8806350744405800e-09 0.0000000000000000e+00  7.3243175121458695e-09 -1.7043335919550922e-09 0.0000000000000000e+00  7.8497388987392033e-09 -7.4959047910108118e-10 0.0000000000000000e+00  8.0336137173898431e-09 1.0406155237307995e-10 0.0000000000000000e+00  7.8834788449407464e-09 9.6500371934080333e-10 0.0000000000000000e+00  7.3944612524688559e-09 1.9409679397867145e-09 0.0000000000000000e+00  6.5518925164403340e-09 3.1493221730999495e-09 0.0000000000000000e+00  5.3419386662212792e-09 4.7236540549247426e-09 0.0000000000000000e+00  3.7762890557652285e-09 6.8080870075690733e-09 0.0000000000000000e+00  1.9402636342214976e-09 9.5159724609099508e-09 0.0000000000000000e+00  6.1379113625155394e-11 1.2805194427607679e-08 0.0000000000000000e+00  -1.4949748129879563e-09 1.6224082350022115e-08 0.0000000000000000e+00  -2.7374661718557067e-09 1.8690769772988772e-08 0.0000000000000000e+00  -6.6282518529415203e-09 1.8537398873066598e-08 0.0000000000000000e+00  -4.6198619918151273e-09 -1.8338479511436537e-08 0.0000000000000000e+00  -2.0647456695834867e-09 -1.8679046953321371e-08 0.0000000000000000e+00  -1.9911639770582421e-09 -1.6738693150654130e-08 0.0000000000000000e+00  -1.9081660187556897e-09 -1.3785138952799301e-08 0.0000000000000000e+00  -1.3154824280091934e-09 -1.0681629590750243e-08 0.0000000000000000e+00  -3.8051978238075665e-10 -7.9243334362184430e-09 0.0000000000000000e+00  6.3007064567539220e-10 -5.6502386784983318e-09 0.0000000000000000e+00  1.5265193504175194e-09 -3.8189009545585328e-09 0.0000000000000000e+00  2.2084567450713715e-09 -2.3262127683548950e-09 0.0000000000000000e+00  2.6327381282998617e-09 -1.0549235847853035e-09 0.0000000000000000e+00  2.7844881572083703e-09 1.0935479504929686e-10 0.0000000000000000e+00  2.6605703597662268e-09 1.2764574286685238e-09 0.0000000000000000e+00  2.2638157418065552e-09 2.5544187490239686e-09 0.0000000000000000e+00  1.6060850985105491e-09 4.0512360221543570e-09 0.0000000000000000e+00  7.2032157169301322e-10 5.8701750579344316e-09 0.0000000000000000e+00  -3.1721253145182092e-10 8.0895793582943988e-09 0.0000000000000000e+00  -1.3576057338329974e-09 1.0712678123843578e-08 0.0000000000000000e+00  -2.1673853172702367e-09 1.3574432471786944e-08 0.0000000000000000e+00  -2.5267845479394154e-09 1.6230566534577633e-08 0.0000000000000000e+00  -2.7163534097783910e-09 1.7984706393949201e-08 0.0000000000000000e+00  -5.2910335008908975e-09 1.8287998789880273e-08 0.0000000000000000e+00  -3.9430963776993805e-09 -1.6910144968438047e-08 0.0000000000000000e+00  -2.1959020339188194e-09 -1.7390497664884757e-08 0.0000000000000000e+00  -2.6600342617180197e-09 -1.6014640129944111e-08 0.0000000000000000e+00  -3.2388047244342220e-09 -1.3769031618113615e-08 0.0000000000000000e+00  -3.4016749536116056e-09 -1.1183772436920502e-08 0.0000000000000000e+00  -3.1790223373217887e-09 -8.6643555972525344e-09 0.0000000000000000e+00  -2.7450457640840218e-09 -6.4088001413833817e-09 0.0000000000000000e+00  -2.2656104832802290e-09 -4.4612371010623560e-09 0.0000000000000000e+00  -1.8560424500174098e-09 -2.7814397678077434e-09 0.0000000000000000e+00  -1.5839139345341840e-09 -1.2911320391529429e-09 0.0000000000000000e+00  -1.4827810495219418e-09 1.0202008453487088e-10 0.0000000000000000e+00  -1.5632302348564270e-09 1.4936338193086960e-09 0.0000000000000000e+00  -1.8175138180490305e-09 2.9772725614068095e-09 0.0000000000000000e+00  -2.2174632215837173e-09 4.6387005008794120e-09 0.0000000000000000e+00  -2.7063410713911019e-09 6.5443180292864778e-09 0.0000000000000000e+00  -3.1870713813768196e-09 8.7178463423687846e-09 0.0000000000000000e+00  -3.5152375160395825e-09 1.1100596385335656e-08 0.0000000000000000e+00  -3.5208015090496522e-09 1.3500458183592493e-08 0.0000000000000000e+00  -3.1204085272944265e-09 1.5563796306061099e-08 0.0000000000000000e+00  -2.7017416583209534e-09 1.6860191214053625e-08 0.0000000000000000e+00  -4.4269815830981793e-09 1.7379919939068875e-08 0.0000000000000000e+00  -3.4731012764391465e-09 -1.5282466827530375e-08 0.0000000000000000e+00  -2.3043360867767018e-09 -1.5863720889740831e-08 0.0000000000000000e+00  -3.1251406084836487e-09 -1.4850860581698892e-08 0.0000000000000000e+00  -4.1354727536351697e-09 -1.3118731850087626e-08 0.0000000000000000e+00  -4.8282875263968985e-09 -1.1001741760596827e-08 0.0000000000000000e+00  -5.1574104707193370e-09 -8.7965578644073321e-09 0.0000000000000000e+00  -5.2187379227286281e-09 -6.6917838164719670e-09 0.0000000000000000e+00  -5.1332613084266148e-09 -4.7679118454577388e-09 0.0000000000000000e+00  -5.0020186366612627e-09 -3.0285539426072121e-09 0.0000000000000000e+00  -4.8943323583884790e-09 -1.4319134950673882e-09 0.0000000000000000e+00  -4.8494886631386088e-09 8.6742562732883763e-11 0.0000000000000000e+00  -4.8811699581619197e-09 1.6006969731187003e-09 0.0000000000000000e+00  -4.9799384320812943e-09 3.1815855935545837e-09 0.0000000000000000e+00  -5.1124865949005359e-09 4.8892827090514966e-09 0.0000000000000000e+00  -5.2185330474636404e-09 6.7581733091222213e-09 0.0000000000000000e+00  -5.2087366223372259e-09 8.7772102512575790e-09 0.0000000000000000e+00  -4.9714054689514106e-09 1.0864572453055331e-08 0.0000000000000000e+00  -4.4043396239767490e-09 1.2846139553066511e-08 0.0000000000000000e+00  -3.5107475426229847e-09 1.4461950196617918e-08 0.0000000000000000e+00  -2.7010987642705205e-09 1.5447362545641815e-08 0.0000000000000000e+00  -3.8279987470282511e-09 1.6087064670470833e-08 0.0000000000000000e+00  -3.1291681158257374e-09 -1.3509116528138191e-08 0.0000000000000000e+00  -2.3934622509199398e-09 -1.4165172690634953e-08 0.0000000000000000e+00  -3.4671530511676437e-09 -1.3400962541259236e-08 0.0000000000000000e+00  -4.7692968478779350e-09 -1.2048724497493480e-08 0.0000000000000000e+00  -5.8310126631057770e-09 -1.0327337865690031e-08 0.0000000000000000e+00  -6.5682186571111326e-09 -8.4465542295095092e-09 0.0000000000000000e+00  -7.0215704357236223e-09 -6.5620040772150511e-09 0.0000000000000000e+00  -7.2684756633793019e-09 -4.7603011798846510e-09 0.0000000000000000e+00  -7.3848430651143062e-09 -3.0685433057911697e-09 0.0000000000000000e+00  -7.4290885413599694e-09 -1.4721545283500353e-09 0.0000000000000000e+00  -7.4372536656439744e-09 6.8012678950848742e-11 0.0000000000000000e+00  -7.4226746583560505e-09 1.6017501472302517e-09 0.0000000000000000e+00  -7.3765911930066958e-09 3.1778407109542193e-09 0.0000000000000000e+00  -7.2684350991311707e-09 4.8327015674951530e-09 0.0000000000000000e+00  -7.0465013509409999e-09 6.5775609570480413e-09 0.0000000000000000e+00  -6.6416978050158078e-09 8.3837619956293094e-09 0.0000000000000000e+00  -5.9795944841285955e-09 1.0168788560357995e-08 0.0000000000000000e+00  -5.0106605597624587e-09 1.1790593291117467e-08 0.0000000000000000e+00  -3.7861652406849153e-09 1.3064325782568151e-08 0.0000000000000000e+00  -2.7069725700837933e-09 1.3827644345460729e-08 0.0000000000000000e+00  -3.3928532415843357e-09 1.4543183505463426e-08 0.0000000000000000e+00  -2.8701434981504296e-09 -1.1626071114155081e-08 0.0000000000000000e+00  -2.4653476772239512e-09 -1.2338416099560014e-08 0.0000000000000000e+00  -3.7244008004513767e-09 -1.1754990169214816e-08 0.0000000000000000e+00  -5.2289061791268482e-09 -1.0694351025795785e-08 0.0000000000000000e+00  -6.5472940381081017e-09 -9.3052973712797119e-09 0.0000000000000000e+00  -7.5785818383252252e-09 -7.7346612984103647e-09 0.0000000000000000e+00  -8.3273640141787237e-09 -6.1027748312182507e-09 0.0000000000000000e+00  -8.8359985806995884e-09 -4.4879238602714474e-09 0.0000000000000000e+00  -9.1547243894466624e-09 -2.9261995240720629e-09 0.0000000000000000e+00  -9.3264751938571710e-09 -1.4202487004689793e-09 0.0000000000000000e+00  -9.3796459810185557e-09 4.9138837521689046e-11 0.0000000000000000e+00  -9.3252846271960745e-09 1.5115279278097642e-09 0.0000000000000000e+00  -9.1565468903844804e-09 2.9960472667468358e-09 0.0000000000000000e+00  -8.8495497003828707e-09 4.5209023369239056e-09 0.0000000000000000e+00  -8.3660384361944285e-09 6.0828357183927103e-09 0.0000000000000000e+00  -7.6594967675971588e-09 7.6471885662269827e-09 0.0000000000000000e+00  -6.6876329871641468e-09 9.1411175591344438e-09 0.0000000000000000e+00  -5.4373954649209300e-09 1.0454918742307842e-08 0.0000000000000000e+00  -3.9852041261907686e-09 1.1459261775870631e-08 0.0000000000000000e+00  -2.7132196099939847e-09 1.2055943454536290e-08 0.0000000000000000e+00  -3.0673610588301981e-09 1.2823062004495517e-08 0.0000000000000000e+00  -2.6732763301433621e-09 -9.6605827764502133e-09 0.0000000000000000e+00  -2.5223464133650258e-09 -1.0415560389155453e-08 0.0000000000000000e+00  -3.9186562690976439e-09 -9.9714100084151685e-09 0.0000000000000000e+00  -5.5649572981671987e-09 -9.1445623886976155e-09 0.0000000000000000e+00  -7.0613505289996664e-09 -8.0398930866386312e-09 0.0000000000000000e+00  -8.3004470593330120e-09 -6.7598183648961661e-09 0.0000000000000000e+00  -9.2641585345989239e-09 -5.3939718481445738e-09 0.0000000000000000e+00  -9.9690445354508194e-09 -4.0070813141876614e-09 0.0000000000000000e+00  -1.0443516814699098e-08 -2.6355378301396002e-09 0.0000000000000000e+00  -1.0715231102250889e-08 -1.2910342397364035e-09 0.0000000000000000e+00  -1.0803858469852684e-08 3.2138688242623380e-11 0.0000000000000000e+00  -1.0717471796159223e-08 1.3484744549464526e-09 0.0000000000000000e+00  -1.0451491681426563e-08 2.6724289018701682e-09 0.0000000000000000e+00  -9.9897221451043005e-09 4.0098207382585591e-09 0.0000000000000000e+00  -9.3076515869749968e-09 5.3498562609920132e-09 0.0000000000000000e+00  -8.3787868865494907e-09 6.6587575597736467e-09 0.0000000000000000e+00  -7.1855069229878271e-09 7.8769434317945746e-09 0.0000000000000000e+00  -5.7388383039152194e-09 8.9226654201169456e-09 0.0000000000000000e+00  -4.1279902231282371e-09 9.7066236321582077e-09 0.0000000000000000e+00  -2.7164321405774117e-09 1.0171799439233438e-08 0.0000000000000000e+00  -2.8203663486923217e-09 1.0974700363822023e-08 0.0000000000000000e+00  -2.5253089452028358e-09 -7.6344229212779473e-09 0.0000000000000000e+00  -2.5670856240958985e-09 -8.4216893082084353e-09 0.0000000000000000e+00  -4.0642819466695621e-09 -8.0909877918952071e-09 0.0000000000000000e+00  -5.8093907705337063e-09 -7.4602588763172964e-09 0.0000000000000000e+00  -7.4277551022245088e-09 -6.6058205472114828e-09 0.0000000000000000e+00  -8.8105044508672694e-09 -5.5985833869908509e-09 0.0000000000000000e+00  -9.9255986207807623e-09 -4.5032274619585472e-09 0.0000000000000000e+00  -1.0771599392671952e-08 -3.3700235728105441e-09 0.0000000000000000e+00  -1.1360113244865984e-08 -2.2309798389570073e-09 0.0000000000000000e+00  -1.1705930164846068e-08 -1.1009485950428224e-09 0.0000000000000000e+00  -1.1820791299628723e-08 1.8019125975225061e-11 0.0000000000000000e+00  -1.1709891249272749e-08 1.1306595730432366e-09 0.0000000000000000e+00  -1.1370725153590027e-08 2.2419024422012579e-09 0.0000000000000000e+00  -1.0794086135705400e-08 3.3504079527477364e-09 0.0000000000000000e+00  -9.9672370691416338e-09 4.4429020967007776e-09 0.0000000000000000e+00  -8.8794977011685178e-09 5.4902403101230979e-09 0.0000000000000000e+00  -7.5309930893487005e-09 6.4465255807624052e-09 0.0000000000000000e+00  -5.9482964363889514e-09 7.2528996188926314e-09 0.0000000000000000e+00  -4.2270687133622632e-09 7.8490058162780640e-09 0.0000000000000000e+00  -2.7152789531205842e-09 8.2050541796632324e-09 0.0000000000000000e+00  -2.6331125811462396e-09 9.0322067526875164e-09 0.0000000000000000e+00  -2.4183182452472359e-09 -5.5653728151658803e-09 0.0000000000000000e+00  -2.6022118493785190e-09 -6.3769174668442038e-09 0.0000000000000000e+00  -4.1716492958532252e-09 -6.1435432306005428e-09 0.0000000000000000e+00  -5.9838457588387976e-09 -5.6846055081315247e-09 0.0000000000000000e+00  -7.6834136225941303e-09 -5.0570228985585047e-09 0.0000000000000000e+00  -9.1621311765803398e-09 -4.3087951481050789e-09 0.0000000000000000e+00  -1.0379603733164111e-08 -3.4845802559043226e-09 0.0000000000000000e+00  -1.1322408136148848e-08 -2.6209415743485580e-09 0.0000000000000000e+00  -1.1990135477181752e-08 -1.7431852680688921e-09 0.0000000000000000e+00  -1.2387809011471586e-08 -8.6538837401646441e-10 0.0000000000000000e+00  -1.2520848218678206e-08 7.1374089957225879e-12 0.0000000000000000e+00  -1.2392049918721812e-08 8.7392519794646108e-10 0.0000000000000000e+00  -1.2000534761367744e-08 1.7348144265401366e-09 0.0000000000000000e+00  -1.1342622055017081e-08 2.5854725174523092e-09 0.0000000000000000e+00  -1.0414579866904214e-08 3.4136172317576855e-09 0.0000000000000000e+00  -9.2172274946703914e-09 4.1966677217264392e-09 0.0000000000000000e+00  -7.7628302090064751e-09 4.9016636627967952e-09 0.0000000000000000e+00  -6.0878435963763089e-09 5.4883499232523679e-09 0.0000000000000000e+00  -4.2912790459524611e-09 5.9177883593040332e-09 0.0000000000000000e+00  -2.7096924527318342e-09 6.1788930048898030e-09 0.0000000000000000e+00  -2.4940006705577507e-09 7.0213424125825433e-09 0.0000000000000000e+00  -2.3475993283041980e-09 -3.4682016124314222e-09 0.0000000000000000e+00  -2.6301344079503204e-09 -4.2976378279015219e-09 0.0000000000000000e+00  -4.2484259030391140e-09 -4.1517026134794293e-09 0.0000000000000000e+00  -6.1033755321961623e-09 -3.8492192166543517e-09 0.0000000000000000e+00  -7.8535807300974835e-09 -3.4331450285906127e-09 0.0000000000000000e+00  -9.3922431005263470e-09 -2.9340598575485633e-09 0.0000000000000000e+00  -1.0674259797142468e-08 -2.3802351008672903e-09 