<?xml version="1.0"?>
<VTKFile type="UnstructuredGrid"  version="0.1"  >
<UnstructuredGrid>
<Piece  NumberOfPoints="651" NumberOfCells="1200">
<Points>
<DataArray  type="Float64"  NumberOfComponents="3"  format="ascii">0 0 0  50000 0 0  100000 0 0  150000 0 0  200000 0 0  250000 0 0  300000 0 0  350000 0 0  400000 0 0  450000 0 0  500000 0 0  550000 0 0  600000 0 0  650000 0 0  700000 0 0  750000 0 0  800000 0 0  850000 0 0  900000 0 0  950000 0 0  1000000 0 0  0 50000 0  50000 50000 0  100000 50000 0  150000 50000 0  200000 50000 0  250000 50000 0  300000 50000 0  350000 50000 0  400000 50000 0  450000 50000 0  500000 50000 0  550000 50000 0  600000 50000 0  650000 50000 0  700000 50000 0  750000 50000 0  800000 50000 0  850000 50000 0  900000 50000 0  950000 50000 0  1000000 50000 0  0 100000 0  50000 100000 0  100000 100000 0  150000 100000 0  200000 100000 0  250000 100000 0  300000 100000 0  350000 100000 0  400000 100000 0  450000 100000 0  500000 100000 0  550000 100000 0  600000 100000 0  650000 100000 0  700000 100000 0  750000 100000 0  800000 100000 0  850000 100000 0  900000 100000 0  950000 100000 0  1000000 100000 0  0 150000 0  50000 150000 0  100000 150000 0  150000 150000 0  200000 150000 0  250000 150000 0  300000 150000 0  350000 150000 0  400000 150000 0  450000 150000 0  500000 150000 0  550000 150000 0  600000 150000 0  650000 150000 0  700000 150000 0  750000 150000 0  800000 150000 0  850000 150000 0  900000 150000 0  950000 150000 0  1000000 150000 0  0 200000 0  50000 200000 0  100000 200000 0  150000 200000 0  200000 200000 0  250000 200000 0  300000 200000 0  350000 200000 0  400000 200000 0  450000 200000 0  500000 200000 0  550000 200000 0  600000 200000 0  650000 200000 0  700000 200000 0  750000 200000 0  800000 200000 0  850000 200000 0  900000 200000 0  950000 200000 0  1000000 200000 0  0 250000 0  50000 250000 0  100000 250000 0  150000 250000 0  200000 250000 0  250000 250000 0  300000 250000 0  350000 250000 0  400000 250000 0  450000 250000 0  500000 250000 0  550000 250000 0  600000 250000 0  650000 250000 0  700000 250000 0  750000 250000 0  800000 250000 0  850000 250000 0  900000 250000 0  950000 250000 0  1000000 250000 0  0 300000 0  50000 300000 0  100000 300000 0  150000 300000 0  200000 300000 0  250000 300000 0  300000 300000 0  350000 300000 0  400000 300000 0  450000 300000 0  500000 300000 0  550000 300000 0  600000 300000 0  650000 300000 0  700000 300000 0  750000 300000 0  800000 300000 0  850000 300000 0  900000 300000 0  950000 300000 0  1000000 300000 0  0 350000 0  50000 350000 0  100000 350000 0  150000 350000 0  200000 350000 0  250000 350000 0  300000 350000 0  350000 350000 0  400000 350000 0  450000 350000 0  500000 350000 0  550000 350000 0  600000 350000 0  650000 350000 0  700000 350000 0  750000 350000 0  800000 350000 0  850000 350000 0  900000 350000 0  950000 350000 0  1000000 350000 0  0 400000 0  50000 400000 0  100000 400000 0  150000 400000 0  200000 400000 0  250000 400000 0  300000 400000 0  350000 400000 0  400000 400000 0  450000 400000 0  500000 400000 0  550000 400000 0  600000 400000 0  650000 400000 0  700000 400000 0  750000 400000 0  800000 400000 0  850000 400000 0  900000 400000 0  950000 400000 0  1000000 400000 0  0 450000 0  50000 450000 0  100000 450000 0  150000 450000 0  200000 450000 0  250000 450000 0  300000 450000 0  350000 450000 0  400000 450000 0  450000 450000 0  500000 450000 0  550000 450000 0  600000 450000 0  650000 450000 0  700000 450000 0  750000 450000 0  800000 450000 0  850000 450000 0  900000 450000 0  950000 450000 0  1000000 450000 0  0 500000 0  50000 500000 0  100000 500000 0  150000 500000 0  200000 500000 0  250000 500000 0  300000 500000 0  350000 500000 0  400000 500000 0  450000 500000 0  500000 500000 0  550000 500000 0  600000 500000 0  650000 500000 0  700000 500000 0  750000 500000 0  800000 500000 0  850000 500000 0  900000 500000 0  950000 500000 0  1000000 500000 0  0 550000 0  50000 550000 0  100000 550000 0  150000 550000 0  200000 550000 0  250000 550000 0  300000 550000 0  350000 550000 0  400000 550000 0  450000 550000 0  500000 550000 0  550000 550000 0  600000 550000 0  650000 550000 0  700000 550000 0  750000 550000 0  800000 550000 0  850000 550000 0  900000 550000 0  950000 550000 0  1000000 550000 0  0 600000 0  50000 600000 0  100000 600000 0  150000 600000 0  200000 600000 0  250000 600000 0  300000 600000 0  350000 600000 0  400000 600000 0  450000 600000 0  500000 600000 0  550000 600000 0  600000 600000 0  650000 600000 0  700000 600000 0  750000 600000 0  800000 600000 0  850000 600000 0  900000 600000 0  950000 600000 0  1000000 600000 0  0 650000 0  50000 650000 0  100000 650000 0  150000 650000 0  200000 650000 0  250000 650000 0  300000 650000 0  350000 650000 0  400000 650000 0  450000 650000 0  500000 650000 0  550000 650000 0  600000 650000 0  650000 650000 0  700000 650000 0  750000 650000 0  800000 650000 0  850000 650000 0  900000 650000 0  950000 650000 0  1000000 650000 0  0 700000 0  50000 700000 0  100000 700000 0  150000 700000 0  200000 700000 0  250000 700000 0  300000 700000 0  350000 700000 0  400000 700000 0  450000 700000 0  500000 700000 0  550000 700000 0  600000 700000 0  650000 700000 0  700000 700000 0  750000 700000 0  800000 700000 0  850000 700000 0  900000 700000 0  950000 700000 0  1000000 700000 0  0 750000 0  50000 750000 0  100000 750000 0  150000 750000 0  200000 750000 0  250000 750000 0  300000 750000 0  350000 750000 0  400000 750000 0  450000 750000 0  500000 750000 0  550000 750000 0  600000 750000 0  650000 750000 0  700000 750000 0  750000 750000 0  800000 750000 0  850000 750000 0  900000 750000 0  950000 750000 0  1000000 750000 0  0 800000 0  50000 800000 0  100000 800000 0  150000 800000 0  200000 800000 0  250000 800000 0  300000 800000 0  350000 800000 0  400000 800000 0  450000 800000 0  500000 800000 0  550000 800000 0  600000 800000 0  650000 800000 0  700000 800000 0  750000 800000 0  800000 800000 0  850000 800000 0  900000 800000 0  950000 800000 0  1000000 800000 0  0 850000 0  50000 850000 0  100000 850000 0  150000 850000 0  200000 850000 0  250000 850000 0  300000 850000 0  350000 850000 0  400000 850000 0  450000 850000 0  500000 850000 0  550000 850000 0  600000 850000 0  650000 850000 0  700000 850000 0  750000 850000 0  800000 850000 0  850000 850000 0  900000 850000 0  950000 850000 0  1000000 850000 0  0 900000 0  50000 900000 0  100000 900000 0  150000 900000 0  200000 900000 0  250000 900000 0  300000 900000 0  350000 900000 0  400000 900000 0  450000 900000 0  500000 900000 0  550000 900000 0  600000 900000 0  650000 900000 0  700000 900000 0  750000 900000 0  800000 900000 0  850000 900000 0  900000 900000 0  950000 900000 0  1000000 900000 0  0 950000 0  50000 950000 0  100000 950000 0  150000 950000 0  200000 950000 0  250000 950000 0  300000 950000 0  350000 950000 0  400000 950000 0  450000 950000 0  500000 950000 0  550000 950000 0  600000 950000 0  650000 950000 0  700000 950000 0  750000 950000 0  800000 950000 0  850000 950000 0  900000 950000 0  950000 950000 0  1000000 950000 0  0 1000000 0  50000 1000000 0  100000 1000000 0  150000 1000000 0  200000 1000000 0  250000 1000000 0  300000 1000000 0  350000 1000000 0  400000 1000000 0  450000 1000000 0  500000 1000000 0  550000 1000000 0  600000 1000000 0  650000 1000000 0  700000 1000000 0  750000 1000000 0  800000 1000000 0  850000 1000000 0  900000 1000000 0  950000 1000000 0  1000000 1000000 0  0 1050000 0  50000 1050000 0  100000 1050000 0  150000 1050000 0  200000 1050000 0  250000 1050000 0  300000 1050000 0  350000 1050000 0  400000 1050000 0  450000 1050000 0  500000 1050000 0  550000 1050000 0  600000 1050000 0  650000 1050000 0  700000 1050000 0  750000 1050000 0  800000 1050000 0  850000 1050000 0  900000 1050000 0  950000 1050000 0  1000000 1050000 0  0 1100000 0  50000 1100000 0  100000 1100000 0  150000 1100000 0  200000 1100000 0  250000 1100000 0  300000 1100000 0  350000 1100000 0  400000 1100000 0  450000 1100000 0  500000 1100000 0  550000 1100000 0  600000 1100000 0  650000 1100000 0  700000 1100000 0  750000 1100000 0  800000 1100000 0  850000 1100000 0  900000 1100000 0  950000 1100000 0  1000000 1100000 0  0 1150000 0  50000 1150000 0  100000 1150000 0  150000 1150000 0  200000 1150000 0  250000 1150000 0  300000 1150000 0  350000 1150000 0  400000 1150000 0  450000 1150000 0  500000 1150000 0  550000 1150000 0  600000 1150000 0  650000 1150000 0  700000 1150000 0  750000 1150000 0  800000 1150000 0  850000 1150000 0  900000 1150000 0  950000 1150000 0  1000000 1150000 0  0 1200000 0  50000 1200000 0  100000 1200000 0  150000 1200000 0  200000 1200000 0  250000 1200000 0  300000 1200000 0  350000 1200000 0  400000 1200000 0  450000 1200000 0  500000 1200000 0  550000 1200000 0  600000 1200000 0  650000 1200000 0  700000 1200000 0  750000 1200000 0  800000 1200000 0  850000 1200000 0  900000 1200000 0  950000 1200000 0  1000000 1200000 0  0 1250000 0  50000 1250000 0  100000 1250000 0  150000 1250000 0  200000 1250000 0  250000 1250000 0  300000 1250000 0  350000 1250000 0  400000 1250000 0  450000 1250000 0  500000 1250000 0  550000 1250000 0  600000 1250000 0  650000 1250000 0  700000 1250000 0  750000 1250000 0  800000 1250000 0  850000 1250000 0  900000 1250000 0  950000 1250000 0  1000000 1250000 0  0 1300000 0  50000 1300000 0  100000 1300000 0  150000 1300000 0  200000 1300000 0  250000 1300000 0  300000 1300000 0  350000 1300000 0  400000 1300000 0  450000 1300000 0  500000 1300000 0  550000 1300000 0  600000 1300000 0  650000 1300000 0  700000 1300000 0  750000 1300000 0  800000 1300000 0  850000 1300000 0  900000 1300000 0  950000 1300000 0  1000000 1300000 0  0 1350000 0  50000 1350000 0  100000 1350000 0  150000 1350000 0  200000 1350000 0  250000 1350000 0  300000 1350000 0  350000 1350000 0  400000 1350000 0  450000 1350000 0  500000 1350000 0  550000 1350000 0  600000 1350000 0  650000 1350000 0  700000 135
[...]
<PointData  Vectors="f_19"> 
<DataArray  type="Float64"  Name="f_19"  NumberOfComponents="3" format="ascii">-2.4542228697481785e-08 -1.0990557314626123e-08 0.0000000000000000e+00  4.8542089305807016e-08 -6.9946592720535737e-09 0.0000000000000000e+00  4.2916039693409627e-08 -2.5982343599849333e-09 0.0000000000000000e+00  4.0562265714993902e-08 -1.1873861429739051e-09 0.0000000000000000e+00  3.9459090794334625e-08 -6.9978363385395325e-10 0.0000000000000000e+00  3.8768347848617880e-08 -5.0540658569675956e-10 0.0000000000000000e+00  3.8290976523210148e-08 -4.3151901851684542e-10 0.0000000000000000e+00  3.7969578506017476e-08 -4.1782008330295272e-10 0.0000000000000000e+00  3.7785659728514170e-08 -4.3821149788082907e-10 0.0000000000000000e+00  3.7733333382637838e-08 -4.7855198534426091e-10 0.0000000000000000e+00  3.7811237869134333e-08 -5.2859180758561171e-10 0.0000000000000000e+00  3.8020506366794325e-08 -5.7783197815880865e-10 0.0000000000000000e+00  3.8366240365423240e-08 -6.1191732072011929e-10 0.0000000000000000e+00  3.8863845653206276e-08 -6.0765292909210030e-10 0.0000000000000000e+00  3.9556324166060092e-08 -5.2410263623818746e-10 0.0000000000000000e+00  4.0559706741201560e-08 -2.8369018395885488e-10 0.0000000000000000e+00  4.2180568066878314e-08 2.7402164468592897e-10 0.0000000000000000e+00  4.5185689060657626e-08 1.5090979089266805e-09 0.0000000000000000e+00  5.0941318436842732e-08 4.2243102355624938e-09 0.0000000000000000e+00  5.8164362490619416e-08 8.9015105300644720e-09 0.0000000000000000e+00  -1.6254627566445285e-08 6.7777007180568078e-09 0.0000000000000000e+00  -1.8218552534253043e-08 -1.6644104790891263e-08 0.0000000000000000e+00  7.4238355569929697e-09 -1.1570961276509926e-08 0.0000000000000000e+00  1.8502438114451340e-08 -5.3736888589744960e-09 0.0000000000000000e+00  2.3538401050784794e-08 -2.5341095242291346e-09 0.0000000000000000e+00  2.6112045020920424e-08 -1.2862951247724076e-09 0.0000000000000000e+00  2.7586665731146012e-08 -6.9656252965462234e-10 0.0000000000000000e+00  2.8457300922272476e-08 -3.9913364265429301e-10 0.0000000000000000e+00  2.8974960433748050e-08 -2.4552837160897352e-10 0.0000000000000000e+00  2.9278146948327192e-08 -1.6723452756691602e-10 0.0000000000000000e+00  2.9443189637035876e-08 -1.2645608002555490e-10 0.0000000000000000e+00  2.9508578324396930e-08 -9.7523639468131859e-11 0.0000000000000000e+00  2.9486201364007778e-08 -5.8341658116588603e-11 0.0000000000000000e+00  2.9365545605568273e-08 1.5163326035389316e-11 0.0000000000000000e+00  2.9113064851090676e-08 1.5506574049107444e-10 0.0000000000000000e+00  2.8666002647138235e-08 4.1183703231910347e-10 0.0000000000000000e+00  2.7914808721014258e-08 8.7756931257937655e-10 0.0000000000000000e+00  2.6651467843622030e-08 1.7430301243866488e-09 0.0000000000000000e+00  2.4392968647956940e-08 3.4315705182933881e-09 0.0000000000000000e+00  1.9722631722680128e-08 6.8110695002145123e-09 0.0000000000000000e+00  8.4134386926569207e-09 1.2875147918418247e-08 0.0000000000000000e+00  -1.8220270538381120e-08 1.0764297614404512e-08 0.0000000000000000e+00  -1.1107218167056751e-08 -2.0320797398944539e-08 0.0000000000000000e+00  -9.9262892010832438e-11 -1.8698654453077887e-08 0.0000000000000000e+00  6.2345626359708692e-09 -1.1360111449871419e-08 0.0000000000000000e+00  1.1168608964875858e-08 -6.6017981984702043e-09 0.0000000000000000e+00  1.4965632317634789e-08 -3.8638943866913755e-09 0.0000000000000000e+00  1.7580639657312858e-08 -2.3054584996905939e-09 0.0000000000000000e+00  1.9320628749215378e-08 -1.3876793246727145e-09 0.0000000000000000e+00  2.0451062934292497e-08 -8.2247748477301378e-10 0.0000000000000000e+00  2.1148156360249262e-08 -4.5280899181812418e-10 0.0000000000000000e+00  2.1519545957290565e-08 -1.8495052768967496e-10 0.0000000000000000e+00  2.1623151468353563e-08 4.5650930192433229e-11 0.0000000000000000e+00  2.1478454749734012e-08 2.9268144846438336e-10 0.0000000000000000e+00  2.1070957155635204e-08 6.1129711888797275e-10 0.0000000000000000e+00  2.0350517129089601e-08 1.0704756936128129e-09 0.0000000000000000e+00  1.9222794582837273e-08 1.7711121122817674e-09 0.0000000000000000e+00  1.7531244082885071e-08 2.8778105020402234e-09 0.0000000000000000e+00  1.5026905442188169e-08 4.6724790524368303e-09 0.0000000000000000e+00  1.1334488173966453e-08 7.6080582448409975e-09 0.0000000000000000e+00  5.9842934011239474e-09 1.2150034060040000e-08 0.0000000000000000e+00  -1.2355529533716439e-09 1.7551450822517201e-08 0.0000000000000000e+00  -1.2876940402407932e-08 1.4523597576560079e-08 0.0000000000000000e+00  -7.3177947122610869e-09 -2.0966718088233220e-08 0.0000000000000000e+00  -1.4610942678874100e-09 -2.0306878653351874e-08 0.0000000000000000e+00  1.3838769251946425e-09 -1.5403768777965347e-08 0.0000000000000000e+00  4.2559480964923218e-09 -1.0469580729025658e-08 0.0000000000000000e+00  7.1766184587316121e-09 -6.8906187796759014e-09 0.0000000000000000e+00  9.6779166150856342e-09 -4.4838483362451299e-09 0.0000000000000000e+00  1.1583997949041786e-08 -2.8804344009099776e-09 0.0000000000000000e+00  1.2929052148701206e-08 -1.7874473387831315e-09 0.0000000000000000e+00  1.3800656114603905e-08 -1.0048525317211796e-09 0.0000000000000000e+00  1.4274295593078867e-08 -3.9526120514017907e-10 0.0000000000000000e+00  1.4397746804134574e-08 1.4361690700657549e-10 0.0000000000000000e+00  1.4189415988150873e-08 6.9875503031633409e-10 0.0000000000000000e+00  1.3639161346843571e-08 1.3569922890157104e-09 0.0000000000000000e+00  1.2708904551726516e-08 2.2193250345814325e-09 0.0000000000000000e+00  1.1334031260716138e-08 3.4170623513638617e-09 0.0000000000000000e+00  9.4312498349238521e-09 5.1289520296317019e-09 0.0000000000000000e+00  6.9292599945367580e-09 7.5833294846261452e-09 0.0000000000000000e+00  3.8575389039584902e-09 1.0978415986706226e-08 0.0000000000000000e+00  5.0913363902827129e-10 1.5134306169043034e-08 0.0000000000000000e+00  -2.6492285798331315e-09 1.8741575835414871e-08 0.0000000000000000e+00  -8.3571292100873450e-09 1.7291746411540025e-08 0.0000000000000000e+00  -5.3944405698823514e-09 -2.0384173467754164e-08 0.0000000000000000e+00  -1.8268384441128389e-09 -2.0176471830451506e-08 0.0000000000000000e+00  -7.6090780068316768e-10 -1.6929328055384110e-08 0.0000000000000000e+00  4.6232082820254008e-10 -1.2889126332578008e-08 0.0000000000000000e+00  2.1432505755416534e-09 -9.2879488498363303e-09 0.0000000000000000e+00  3.9151138309385837e-09 -6.4803418179773029e-09 0.0000000000000000e+00  5.4692273670387044e-09 -4.3886791667771840e-09 0.0000000000000000e+00  6.6725876193507651e-09 -2.8312302602283050e-09 0.0000000000000000e+00  7.4983651959412540e-09 -1.6342911635749391e-09 0.0000000000000000e+00  7.9600455905808905e-09 -6.5358141543135218e-10 0.0000000000000000e+00  8.0765950550579705e-09 2.3106890396758462e-10 0.0000000000000000e+00  7.8585703982848524e-09 1.1266970730939171e-09 0.0000000000000000e+00  7.3045944107650357e-09 2.1381749857026416e-09 0.0000000000000000e+00  6.4041200750475542e-09 3.3777565754686734e-09 0.0000000000000000e+00  5.1476081479711675e-09 4.9710441150054710e-09 0.0000000000000000e+00  3.5500355278722322e-09 7.0515228209312124e-09 0.0000000000000000e+00  1.6974705383790971e-09 9.7214697909572424e-09 0.0000000000000000e+00  -1.8374295410813349e-10 1.2932784481128928e-08 0.0000000000000000e+00  -1.7177571021797539e-09 1.6242489070962433e-08 0.0000000000000000e+00  -2.7825300042563599e-09 1.8640136984420825e-08 0.0000000000000000e+00  -5.9023759557081190e-09 1.8149525490968011e-08 0.0000000000000000e+00  -4.2965163066719280e-09 -1.9255224967377176e-08 0.0000000000000000e+00  -2.0129127741054959e-09 -1.9320891317029761e-08 0.0000000000000000e+00  -1.8996792292896850e-09 -1.7045201777583842e-08 0.0000000000000000e+00  -1.7506631355284471e-09 -1.3910781448315397e-08 0.0000000000000000e+00  -1.1113818390112694e-09 -1.0706938106915567e-08 0.0000000000000000e+00  -1.6407888033244331e-10 -7.8919676074916789e-09 0.0000000000000000e+00  8.2890056784333186e-10 -5.5797527175226747e-09 0.0000000000000000e+00  1.6860780189438458e-09 -3.7175062471635646e-09 0.0000000000000000e+00  2.3145230329342148e-09 -2.1951493721753044e-09 0.0000000000000000e+00  2.6769006401788390e-09 -8.9302658510262835e-10 0.0000000000000000e+00  2.7630088768000670e-09 3.0351154384231123e-10 0.0000000000000000e+00  2.5738783297846402e-09 1.5028845802557272e-09 0.0000000000000000e+00  2.1163869607925069e-09 2.8099593681124789e-09 0.0000000000000000e+00  1.4063331333354167e-09 4.3275484928341492e-09 0.0000000000000000e+00  4.8008065231468944e-10 6.1516409607411826e-09 0.0000000000000000e+00  -5.8389295406018372e-10 8.3517881411015901e-09 0.0000000000000000e+00  -1.6359468932354350e-09 1.0922544607803362e-08 0.0000000000000000e+00  -2.4408655354380766e-09 1.3692947372367233e-08 0.0000000000000000e+00  -2.7614545441641817e-09 1.6218887260645724e-08 0.0000000000000000e+00  -2.7447629103667325e-09 1.7845428327043440e-08 0.0000000000000000e+00  -4.4691747699909723e-09 1.7762174319308127e-08 0.0000000000000000e+00  -3.5925883818649694e-09 -1.7825202904395154e-08 0.0000000000000000e+00  -2.1503357555156297e-09 -1.8070231268417922e-08 0.0000000000000000e+00  -2.6100827991453469e-09 -1.6389490832225944e-08 0.0000000000000000e+00  -3.1476936355382374e-09 -1.3948660972226522e-08 0.0000000000000000e+00  -3.2755150508010015e-09 -1.1233134368910428e-08 0.0000000000000000e+00  -3.0409515766996213e-09 -8.6264084057294732e-09 0.0000000000000000e+00  -2.6194898783146773e-09 -6.3092334937142334e-09 0.0000000000000000e+00  -2.1726343233698060e-09 -4.3141634664473927e-09 0.0000000000000000e+00  -1.8099398695720901e-09 -2.5941628140634825e-09 0.0000000000000000e+00  -1.5933981817081845e-09 -1.0676017183063956e-09 0.0000000000000000e+00  -1.5515332605280547e-09 3.5872464934853071e-10 0.0000000000000000e+00  -1.6903747650865720e-09 1.7793169450419603e-09 0.0000000000000000e+00  -1.9980022356307530e-09 3.2847886542436907e-09 0.0000000000000000e+00  -2.4425299896587607e-09 4.9561554409047271e-09 0.0000000000000000e+00  -2.9642084051414382e-09 6.8534314208908711e-09 0.0000000000000000e+00  -3.4638869245864035e-09 8.9927973993262546e-09 0.0000000000000000e+00  -3.7956409443482490e-09 1.1307647218047254e-08 0.0000000000000000e+00  -3.7857693920198802e-09 1.3598221927541865e-08 0.0000000000000000e+00  -3.3320869923288111e-09 1.5504146132291218e-08 0.0000000000000000e+00  -2.6993704156773834e-09 1.6616950649564950e-08 0.0000000000000000e+00  -3.5730206067188609e-09 1.6728318588875236e-08 0.0000000000000000e+00  -3.1025618702982184e-09 -1.6195675439358918e-08 0.0000000000000000e+00  -2.2602192950685503e-09 -1.6562565868262277e-08 0.0000000000000000e+00  -3.1008381948498987e-09 -1.5268138238654940e-08 0.0000000000000000e+00  -4.0898661963195112e-09 -1.3336280464868317e-08 0.0000000000000000e+00  -4.7605295337507112e-09 -1.1070436836936823e-08 0.0000000000000000e+00  -5.0823937784757640e-09 -8.7556076154549265e-09 0.0000000000000000e+00  -5.1547112836017096e-09 -6.5690691089305898e-09 0.0000000000000000e+00  -5.0966805075292262e-09 -4.5821878718129658e-09 0.0000000000000000e+00  -5.0053515013681530e-09 -2.7923262455463153e-09 0.0000000000000000e+00  -4.9453728023634853e-09 -1.1541446428569932e-09 0.0000000000000000e+00  -4.9513602733133004e-09 3.9832772097596862e-10 0.0000000000000000e+00  -5.0325977199010592e-09 1.9376313792037394e-09 0.0000000000000000e+00  -5.1756450529205271e-09 3.5328768766226299e-09 0.0000000000000000e+00  -5.3437144520551423e-09 5.2397737730721774e-09 0.0000000000000000e+00  -5.4737038844493683e-09 7.0870943119214994e-09 0.0000000000000000e+00  -5.4741235309698617e-09 9.0569972624740933e-09 0.0000000000000000e+00  -5.2313271339908224e-09 1.1059867500315861e-08 0.0000000000000000e+00  -4.6391673660150139e-09 1.2912577674343546e-08 0.0000000000000000e+00  -3.6839731605405378e-09 1.4345053595999038e-08 0.0000000000000000e+00  -2.6680800785409213e-09 1.5104144255491729e-08 0.0000000000000000e+00  -2.9861381683481150e-09 1.5334110958195251e-08 0.0000000000000000e+00  -2.7428726951482868e-09 -1.4421227549964439e-08 0.0000000000000000e+00  -2.3479696482533490e-09 -1.4871796860576847e-08 0.0000000000000000e+00  -3.4580471672323931e-09 -1.3842484713801690e-08 0.0000000000000000e+00  -4.7536512698718367e-09 -1.2289276522554445e-08 0.0000000000000000e+00  -5.8046297980343765e-09 -1.0407647180096266e-08 0.0000000000000000e+00  -6.5404653930575927e-09 -8.4014560288991694e-09 0.0000000000000000e+00  -7.0053804909718036e-09 -6.4195271855974749e-09 0.0000000000000000e+00  -7.2762737593326385e-09 -4.5420053427499649e-09 0.0000000000000000e+00  -7.4264043470029026e-09 -2.7909464917716944e-09 0.0000000000000000e+00  -7.5105227016240553e-09 -1.1485848957244489e-09 0.0000000000000000e+00  -7.5606752901139324e-09 4.2553807618984918e-10 0.0000000000000000e+00  -7.5862679855171762e-09 1.9807561145033263e-09 0.0000000000000000e+00  -7.5749102614831880e-09 3.5637544482650734e-09 0.0000000000000000e+00  -7.4928665727990161e-09 5.2073443970660579e-09 0.0000000000000000e+00  -7.2858325163396000e-09 6.9177776375564984e-09 0.0000000000000000e+00  -6.8826701589663386e-09 8.6601507179616376e-09 0.0000000000000000e+00  -6.2071352051584015e-09 1.0344357600266615e-08 0.0000000000000000e+00  -5.2065559570955129e-09 1.1819077096868353e-08 0.0000000000000000e+00  -3.9184024689070567e-09 1.2888908498734100e-08 0.0000000000000000e+00  -2.6496376285842195e-09 1.3398106488265051e-08 0.0000000000000000e+00  -2.5887216376232702e-09 1.3715281559714878e-08 0.0000000000000000e+00  -2.4703665927985612e-09 -1.2538310337002180e-08 0.0000000000000000e+00  -2.4167754116713528e-09 -1.3046074145893905e-08 0.0000000000000000e+00  -3.7236782787474326e-09 -1.2208322731168823e-08 0.0000000000000000e+00  -5.2321775501132159e-09 -1.0946037153992207e-08 0.0000000000000000e+00  -6.5489414327653693e-09 -9.3894773488334682e-09 0.0000000000000000e+00  -7.5844413409574480e-09 -7.6826521733968706e-09 0.0000000000000000e+00  -8.3462566528265000e-09 -5.9420824928432393e-09 0.0000000000000000e+00  -8.8766693829209781e-09 -4.2417825501632972e-09 0.0000000000000000e+00  -9.2240999115271465e-09 -2.6141009754743345e-09 0.0000000000000000e+00  -9.4286672412663031e-09 -1.0590916280857073e-09 0.0000000000000000e+00  -9.5155010148156241e-09 4.4363381340810237e-10 0.0000000000000000e+00  -9.4923181284799496e-09 1.9233408504157835e-09 0.0000000000000000e+00  -9.3491424801907389e-09 3.4074145207204191e-09 0.0000000000000000e+00  -9.0593426738744685e-09 4.9109457710349889e-09 0.0000000000000000e+00  -8.5824208664692170e-09 6.4262688080705593e-09 0.0000000000000000e+00  -7.8701701940340177e-09 7.9130493909355070e-09 0.0000000000000000e+00  -6.8790378602606506e-09 9.2914061175431747e-09 0.0000000000000000e+00  -5.5940361582453887e-09 1.0443075106843505e-08 0.0000000000000000e+00  -4.0806941150543351e-09 1.1229447443806464e-08 0.0000000000000000e+00  -2.6392583441049805e-09 1.1556760125811863e-08 0.0000000000000000e+00  -2.3128277811059428e-09 1.1943532753869979e-08 0.0000000000000000e+00  -2.2607906306616383e-09 -1.0574380859915279e-08 0.0000000000000000e+00  -2.4696247348514079e-09 -1.1120416572085128e-08 0.0000000000000000e+00  -3.9219446033706196e-09 -1.0428183201705752e-08 0.0000000000000000e+00  -5.5796081535077853e-09 -9.3985338530976274e-09 0.0000000000000000e+00  -7.0812749899072755e-09 -8.1213461061509033e-09 0.0000000000000000e+00  -8.3292667574095013e-09 -6.6978079137233737e-09 0.0000000000000000e+00  -9.3076546419140792e-09 -5.2155568453439794e-09 0.0000000000000000e+00  -1.0032892764144867e-08 -3.7366243288968193e-09 0.0000000000000000e+00  -1.0532016670568558e-08 -2.2947556831543092e-09 0.0000000000000000e+00  -1.0830502418274024e-08 -8.9966140344685510e-10 0.0000000000000000e+00  -1.0945420169874176e-08 4.5532785310895591e-10 0.0000000000000000e+00  -1.0882135174024287e-08 1.7844777042465957e-09 0.0000000000000000e+00  -1.0633499313814340e-08 3.1007823166764029e-09 0.0000000000000000e+00  -1.0181076185340897e-08 4.4073840176811140e-09 0.0000000000000000e+00  -9.4985910320307493e-09 5.6896390814086227e-09 0.0000000000000000e+00  -8.5583831128471250e-09 6.9087692276984415e-09 0.0000000000000000e+00  -7.3422776459880777e-09 7.9990286356124169e-09 0.0000000000000000e+00  -5.8605034433343752e-09 8.8714106867272509e-09 0.0000000000000000e+00  -4.1936061097508203e-09 9.4292846739817743e-09 0.0000000000000000e+00  -2.6326838304812276e-09 9.6189417648684710e-09 0.0000000000000000e+00  -2.1184486612545535e-09 1.0062115086236391e-08 0.0000000000000000e+00  -2.0996840060795872e-09 -8.5512220437459409e-09 0.0000000000000000e+00  -2.5095334051191524e-09 -9.1216728808305547e-09 0.0000000000000000e+00  -4.0689147839017485e-09 -8.5456012699596419e-09 0.0000000000000000e+00  -5.8305727343809140e-09 -7.7100947729588120e-09 0.0000000000000000e+00  -7.4593272967448798e-09 -6.6793254339923455e-09 0.0000000000000000e+00  -8.8546771874613583e-09 -5.5237622470217303e-09 0.0000000000000000e+00  -9.9859242718964311e-09 -4.3070907120686223e-09 0.0000000000000000e+00  -1.0851290454731011e-08 -3.0778859951107207e-09 0.0000000000000000e+00  -1.1461205813329400e-08 -1.8662969928179852e-09 0.0000000000000000e+00  -1.1828734338872515e-08 -6.8568396658395237e-10 0.0000000000000000e+00  -1.1963583919954475e-08 4.6265964493007486e-10 0.0000000000000000e+00  -1.1868837104301632e-08 1.5832837241103675e-09 0.0000000000000000e+00  -1.1540000911678974e-08 2.6798968044540376e-09 0.0000000000000000e+00  -1.0966181678238746e-08 3.7488908931530019e-09 0.0000000000000000e+00  -1.0133420421814413e-08 4.7737096910031183e-09 0.0000000000000000e+00  -9.0304404519806321e-09 5.7209680145151331e-09 0.0000000000000000e+00  -7.6574799442273186e-09 6.5396565153447644e-09 0.0000000000000000e+00  -6.0411740792961203e-09 7.1651707921048148e-09 0.0000000000000000e+00  -4.2700094213329806e-09 7.5318053482843836e-09 0.0000000000000000e+00  -2.6270502592019509e-09 7.6121282475376447e-09 0.0000000000000000e+00  -1.9817400571177529e-09 8.1004358769011995e-09 0.0000000000000000e+00  -1.9780974355444071e-09 -6.4864618346597917e-09 0.0000000000000000e+00  -2.5394163248145295e-09 -7.0709151479163754e-09 0.0000000000000000e+00  -4.1762280565170065e-09 -6.5921606304828864e-09 0.0000000000000000e+00  -6.0088046197853405e-09 -5.9256241481717916e-09 0.0000000000000000e+00  -7.7226172714667682e-09 -5.1185506213483223e-09 0.0000000000000000e+00  -9.2168196018331244e-09 -4.2188231934951339e-09 0.0000000000000000e+00  -1.0451646941088403e-08 -3.2705563497588491e-09 0.0000000000000000e+00  -1.1413046303476034e-08 -2.3091481311462475e-09 0.0000000000000000e+00  -1.2099509444532886e-08 -1.3585110366071888e-09 0.0000000000000000e+00  -1.2514667400634164e-08 -4.3154010988487271e-10 0.0000000000000000e+00  -1.2662389634361319e-08 4.6708645894425774e-10 0.0000000000000000e+00  -1.2543911963535347e-08 1.3367738284044718e-09 0.0000000000000000e+00  -1.2156933277057005e-08 2.1763677726072330e-09 0.0000000000000000e+00  -1.1496640850280240e-08 2.9796573259349184e-09 0.0000000000000000e+00  -1.0558617839721932e-08 3.7316423375842846e-09 0.0000000000000000e+00  -9.3436134289396665e-09 4.4062834347725323e-09 0.0000000000000000e+00  -7.8645290773717448e-09 4.9665883588107476e-09 0.0000000000000000e+00  -6.1584189621178643e-09 5.3680181952154844e-09 0.0000000000000000e+00  -4.3179988059932319e-09 5.5679919251628877e-09 0.0000000000000000e+00  -2.6207865852913173e-09 5.5566734172582349e-09 0.0000000000000000e+00  -1.8885355952250859e-09 6.0802659500278637e-09 0.0000000000000000e+00  -1.8904030780292861e-09 -4.3945531778730548e-09 0.0000000000000000e+00  -2.5618990227365775e-09 -4.9848888999126156e-09 0.0000000000000000e+00  -4.2525647037831919e-09 -4.5914681381466531e-09 0.0000000000000000e+00  -6.1310423897084404e-09 -4.0778427524561223e-09 0.0000000000000000e+00  -7.8985705224849997e-09 -3.4795358453631275e-09 0.0000000000000000e+00  -9.4550100554265662e-09 -2.8270443638752408e-09 0.0000000000000000e+00  -1.0755308533048656e-08 -2.1481583