<?xml version="1.0"?>
<VTKFile type="UnstructuredGrid"  version="0.1"  >
<UnstructuredGrid>
<Piece  NumberOfPoints="651" NumberOfCells="1200">
<Points>
<DataArray  type="Float64"  NumberOfComponents="3"  format="ascii">0 0 0  50000 0 0  100000 0 0  150000 0 0  200000 0 0  250000 0 0  300000 0 0  350000 0 0  400000 0 0  450000 0 0  500000 0 0  550000 0 0  600000 0 0  650000 0 0  700000 0 0  750000 0 0  800000 0 0  850000 0 0  900000 0 0  950000 0 0  1000000 0 0  0 50000 0  50000 50000 0  100000 50000 0  150000 50000 0  200000 50000 0  250000 50000 0  300000 50000 0  350000 50000 0  400000 50000 0  450000 50000 0  500000 50000 0  550000 50000 0  600000 50000 0  650000 50000 0  700000 50000 0  750000 50000 0  800000 50000 0  850000 50000 0  900000 50000 0  950000 50000 0  1000000 50000 0  0 100000 0  50000 100000 0  100000 100000 0  150000 100000 0  200000 100000 0  250000 100000 0  300000 100000 0  350000 100000 0  400000 100000 0  450000 100000 0  500000 100000 0  550000 100000 0  600000 100000 0  650000 100000 0  700000 100000 0  750000 100000 0  800000 100000 0  850000 100000 0  900000 100000 0  950000 100000 0  1000000 100000 0  0 150000 0  50000 150000 0  100000 150000 0  150000 150000 0  200000 150000 0  250000 150000 0  300000 150000 0  350000 150000 0  400000 150000 0  450000 150000 0  500000 150000 0  550000 150000 0  600000 150000 0  650000 150000 0  700000 150000 0  750000 150000 0  800000 150000 0  850000 150000 0  900000 150000 0  950000 150000 0  1000000 150000 0  0 200000 0  50000 200000 0  100000 200000 0  150000 200000 0  200000 200000 0  250000 200000 0  300000 200000 0  350000 200000 0  400000 200000 0  450000 200000 0  500000 200000 0  550000 200000 0  600000 200000 0  650000 200000 0  700000 200000 0  750000 200000 0  800000 200000 0  850000 200000 0  900000 200000 0  950000 200000 0  1000000 200000 0  0 250000 0  50000 250000 0  100000 250000 0  150000 250000 0  200000 250000 0  250000 250000 0  300000 250000 0  350000 250000 0  400000 250000 0  450000 250000 0  500000 250000 0  550000 250000 0  600000 250000 0  650000 250000 0  700000 250000 0  750000 250000 0  800000 250000 0  850000 250000 0  900000 250000 0  950000 250000 0  1000000 250000 0  0 300000 0  50000 300000 0  100000 300000 0  150000 300000 0  200000 300000 0  250000 300000 0  300000 300000 0  350000 300000 0  400000 300000 0  450000 300000 0  500000 300000 0  550000 300000 0  600000 300000 0  650000 300000 0  700000 300000 0  750000 300000 0  800000 300000 0  850000 300000 0  900000 300000 0  950000 300000 0  1000000 300000 0  0 350000 0  50000 350000 0  100000 350000 0  150000 350000 0  200000 350000 0  250000 350000 0  300000 350000 0  350000 350000 0  400000 350000 0  450000 350000 0  500000 350000 0  550000 350000 0  600000 350000 0  650000 350000 0  700000 350000 0  750000 350000 0  800000 350000 0  850000 350000 0  900000 350000 0  950000 350000 0  1000000 350000 0  0 400000 0  50000 400000 0  100000 400000 0  150000 400000 0  200000 400000 0  250000 400000 0  300000 400000 0  350000 400000 0  400000 400000 0  450000 400000 0  500000 400000 0  550000 400000 0  600000 400000 0  650000 400000 0  700000 400000 0  750000 400000 0  800000 400000 0  850000 400000 0  900000 400000 0  950000 400000 0  1000000 400000 0  0 450000 0  50000 450000 0  100000 450000 0  150000 450000 0  200000 450000 0  250000 450000 0  300000 450000 0  350000 450000 0  400000 450000 0  450000 450000 0  500000 450000 0  550000 450000 0  600000 450000 0  650000 450000 0  700000 450000 0  750000 450000 0  800000 450000 0  850000 450000 0  900000 450000 0  950000 450000 0  1000000 450000 0  0 500000 0  50000 500000 0  100000 500000 0  150000 500000 0  200000 500000 0  250000 500000 0  300000 500000 0  350000 500000 0  400000 500000 0  450000 500000 0  500000 500000 0  550000 500000 0  600000 500000 0  650000 500000 0  700000 500000 0  750000 500000 0  800000 500000 0  850000 500000 0  900000 500000 0  950000 500000 0  1000000 500000 0  0 550000 0  50000 550000 0  100000 550000 0  150000 550000 0  200000 550000 0  250000 550000 0  300000 550000 0  350000 550000 0  400000 550000 0  450000 550000 0  500000 550000 0  550000 550000 0  600000 550000 0  650000 550000 0  700000 550000 0  750000 550000 0  800000 550000 0  850000 550000 0  900000 550000 0  950000 550000 0  1000000 550000 0  0 600000 0  50000 600000 0  100000 600000 0  150000 600000 0  200000 600000 0  250000 600000 0  300000 600000 0  350000 600000 0  400000 600000 0  450000 600000 0  500000 600000 0  550000 600000 0  600000 600000 0  650000 600000 0  700000 600000 0  750000 600000 0  800000 600000 0  850000 600000 0  900000 600000 0  950000 600000 0  1000000 600000 0  0 650000 0  50000 650000 0  100000 650000 0  150000 650000 0  200000 650000 0  250000 650000 0  300000 650000 0  350000 650000 0  400000 650000 0  450000 650000 0  500000 650000 0  550000 650000 0  600000 650000 0  650000 650000 0  700000 650000 0  750000 650000 0  800000 650000 0  850000 650000 0  900000 650000 0  950000 650000 0  1000000 650000 0  0 700000 0  50000 700000 0  100000 700000 0  150000 700000 0  200000 700000 0  250000 700000 0  300000 700000 0  350000 700000 0  400000 700000 0  450000 700000 0  500000 700000 0  550000 700000 0  600000 700000 0  650000 700000 0  700000 700000 0  750000 700000 0  800000 700000 0  850000 700000 0  900000 700000 0  950000 700000 0  1000000 700000 0  0 750000 0  50000 750000 0  100000 750000 0  150000 750000 0  200000 750000 0  250000 750000 0  300000 750000 0  350000 750000 0  400000 750000 0  450000 750000 0  500000 750000 0  550000 750000 0  600000 750000 0  650000 750000 0  700000 750000 0  750000 750000 0  800000 750000 0  850000 750000 0  900000 750000 0  950000 750000 0  1000000 750000 0  0 800000 0  50000 800000 0  100000 800000 0  150000 800000 0  200000 800000 0  250000 800000 0  300000 800000 0  350000 800000 0  400000 800000 0  450000 800000 0  500000 800000 0  550000 800000 0  600000 800000 0  650000 800000 0  700000 800000 0  750000 800000 0  800000 800000 0  850000 800000 0  900000 800000 0  950000 800000 0  1000000 800000 0  0 850000 0  50000 850000 0  100000 850000 0  150000 850000 0  200000 850000 0  250000 850000 0  300000 850000 0  350000 850000 0  400000 850000 0  450000 850000 0  500000 850000 0  550000 850000 0  600000 850000 0  650000 850000 0  700000 850000 0  750000 850000 0  800000 850000 0  850000 850000 0  900000 850000 0  950000 850000 0  1000000 850000 0  0 900000 0  50000 900000 0  100000 900000 0  150000 900000 0  200000 900000 0  250000 900000 0  300000 900000 0  350000 900000 0  400000 900000 0  450000 900000 0  500000 900000 0  550000 900000 0  600000 900000 0  650000 900000 0  700000 900000 0  750000 900000 0  800000 900000 0  850000 900000 0  900000 900000 0  950000 900000 0  1000000 900000 0  0 950000 0  50000 950000 0  100000 950000 0  150000 950000 0  200000 950000 0  250000 950000 0  300000 950000 0  350000 950000 0  400000 950000 0  450000 950000 0  500000 950000 0  550000 950000 0  600000 950000 0  650000 950000 0  700000 950000 0  750000 950000 0  800000 950000 0  850000 950000 0  900000 950000 0  950000 950000 0  1000000 950000 0  0 1000000 0  50000 1000000 0  100000 1000000 0  150000 1000000 0  200000 1000000 0  250000 1000000 0  300000 1000000 0  350000 1000000 0  400000 1000000 0  450000 1000000 0  500000 1000000 0  550000 1000000 0  600000 1000000 0  650000 1000000 0  700000 1000000 0  750000 1000000 0  800000 1000000 0  850000 1000000 0  900000 1000000 0  950000 1000000 0  1000000 1000000 0  0 1050000 0  50000 1050000 0  100000 1050000 0  150000 1050000 0  200000 1050000 0  250000 1050000 0  300000 1050000 0  350000 1050000 0  400000 1050000 0  450000 1050000 0  500000 1050000 0  550000 1050000 0  600000 1050000 0  650000 1050000 0  700000 1050000 0  750000 1050000 0  800000 1050000 0  850000 1050000 0  900000 1050000 0  950000 1050000 0  1000000 1050000 0  0 1100000 0  50000 1100000 0  100000 1100000 0  150000 1100000 0  200000 1100000 0  250000 1100000 0  300000 1100000 0  350000 1100000 0  400000 1100000 0  450000 1100000 0  500000 1100000 0  550000 1100000 0  600000 1100000 0  650000 1100000 0  700000 1100000 0  750000 1100000 0  800000 1100000 0  850000 1100000 0  900000 1100000 0  950000 1100000 0  1000000 1100000 0  0 1150000 0  50000 1150000 0  100000 1150000 0  150000 1150000 0  200000 1150000 0  250000 1150000 0  300000 1150000 0  350000 1150000 0  400000 1150000 0  450000 1150000 0  500000 1150000 0  550000 1150000 0  600000 1150000 0  650000 1150000 0  700000 1150000 0  750000 1150000 0  800000 1150000 0  850000 1150000 0  900000 1150000 0  950000 1150000 0  1000000 1150000 0  0 1200000 0  50000 1200000 0  100000 1200000 0  150000 1200000 0  200000 1200000 0  250000 1200000 0  300000 1200000 0  350000 1200000 0  400000 1200000 0  450000 1200000 0  500000 1200000 0  550000 1200000 0  600000 1200000 0  650000 1200000 0  700000 1200000 0  750000 1200000 0  800000 1200000 0  850000 1200000 0  900000 1200000 0  950000 1200000 0  1000000 1200000 0  0 1250000 0  50000 1250000 0  100000 1250000 0  150000 1250000 0  200000 1250000 0  250000 1250000 0  300000 1250000 0  350000 1250000 0  400000 1250000 0  450000 1250000 0  500000 1250000 0  550000 1250000 0  600000 1250000 0  650000 1250000 0  700000 1250000 0  750000 1250000 0  800000 1250000 0  850000 1250000 0  900000 1250000 0  950000 1250000 0  1000000 1250000 0  0 1300000 0  50000 1300000 0  100000 1300000 0  150000 1300000 0  200000 1300000 0  250000 1300000 0  300000 1300000 0  350000 1300000 0  400000 1300000 0  450000 1300000 0  500000 1300000 0  550000 1300000 0  600000 1300000 0  650000 1300000 0  700000 1300000 0  750000 1300000 0  800000 1300000 0  850000 1300000 0  900000 1300000 0  950000 1300000 0  1000000 1300000 0  0 1350000 0  50000 1350000 0  100000 1350000 0  150000 1350000 0  200000 1350000 0  250000 1350000 0  300000 1350000 0  350000 1350000 0  400000 1350000 0  450000 1350000 0  500000 1350000 0  550000 1350000 0  600000 1350000 0  650000 1350000 0  700000 135
[...]
<PointData  Vectors="f_19"> 
<DataArray  type="Float64"  Name="f_19"  NumberOfComponents="3" format="ascii">-2.4509002631829264e-08 -1.0076378606336255e-08 0.0000000000000000e+00  4.8567916372916408e-08 -6.1701440036682114e-09 0.0000000000000000e+00  4.2868765793006896e-08 -1.8929469888175319e-09 0.0000000000000000e+00  4.0440211299430899e-08 -5.5142017577384369e-10 0.0000000000000000e+00  3.9258729392915434e-08 -1.0061665816207847e-10 0.0000000000000000e+00  3.8491895014412836e-08 7.7082470342141002e-11 0.0000000000000000e+00  3.7943061768578103e-08 1.4886177487182522e-10 0.0000000000000000e+00  3.7555476913094364e-08 1.7216173942833067e-10 0.0000000000000000e+00  3.7311369518930074e-08 1.7168981714704016e-10 0.0000000000000000e+00  3.7206281681763031e-08 1.6084894491572880e-10 0.0000000000000000e+00  3.7241346990465993e-08 1.4904817084536761e-10 0.0000000000000000e+00  3.7421530090665902e-08 1.4499851283350519e-10 0.0000000000000000e+00  3.7757206844994640e-08 1.5920903399083979e-10 0.0000000000000000e+00  3.8270186922826810e-08 2.0751064528134340e-10 0.0000000000000000e+00  3.9009757696093630e-08 3.1835722697253265e-10 0.0000000000000000e+00  4.0095178101863666e-08 5.5093631420263262e-10 0.0000000000000000e+00  4.1828007613931401e-08 1.0438237883359251e-09 0.0000000000000000e+00  4.4955476861153781e-08 2.1416411506327270e-09 0.0000000000000000e+00  5.0807575636787625e-08 4.6618989541259759e-09 0.0000000000000000e+00  5.8054762578089388e-08 9.1720744570635623e-09 0.0000000000000000e+00  -1.6398353940208020e-08 7.0665305277564331e-09 0.0000000000000000e+00  -1.8283680200391479e-08 -1.5638222451517896e-08 0.0000000000000000e+00  7.1839940839859113e-09 -1.1217555470696229e-08 0.0000000000000000e+00  1.8045805605588230e-08 -5.2358486045104805e-09 0.0000000000000000e+00  2.3128023930053956e-08 -2.3861705010441919e-09 0.0000000000000000e+00  2.5744443314621939e-08 -1.1328376099269398e-09 0.0000000000000000e+00  2.7230512339698246e-08 -5.4199815212845692e-10 0.0000000000000000e+00  2.8099414212695395e-08 -2.4601065154307024e-10 0.0000000000000000e+00  2.8611491963441216e-08 -9.4865092306578805e-11 0.0000000000000000e+00  2.8910384380818885e-08 -1.9606237149456492e-11 0.0000000000000000e+00  2.9076349205923398e-08 1.7056973563691225e-11 0.0000000000000000e+00  2.9151410730208515e-08 3.9623819087348995e-11 0.0000000000000000e+00  2.9150870616362843e-08 6.8512826949188157e-11 0.0000000000000000e+00  2.9067294997082391e-08 1.2584027213363349e-10 0.0000000000000000e+00  2.8868974344359558e-08 2.4204184810954674e-10 0.0000000000000000e+00  2.8491845788089163e-08 4.6767389663277541e-10 0.0000000000000000e+00  2.7818835988449998e-08 8.9933422728501938e-10 0.0000000000000000e+00  2.6624591423806917e-08 1.7405598899357655e-09 0.0000000000000000e+00  2.4398159945702676e-08 3.4376206422051600e-09 0.0000000000000000e+00  1.9696232401323569e-08 6.8810763898955240e-09 0.0000000000000000e+00  8.2733133475969862e-09 1.3035342830109530e-08 0.0000000000000000e+00  -1.8367627194609234e-08 1.0996143091803223e-08 0.0000000000000000e+00  -1.1323146554118896e-08 -1.9256202516016722e-08 0.0000000000000000e+00  -2.9894352770239181e-10 -1.8387647332474420e-08 0.0000000000000000e+00  5.7806526700894029e-09 -1.1369947701944923e-08 0.0000000000000000e+00  1.0649931342243585e-08 -6.6107403600303875e-09 0.0000000000000000e+00  1.4468368735597082e-08 -3.8491016613978337e-09 0.0000000000000000e+00  1.7126417613705974e-08 -2.2741463489078041e-09 0.0000000000000000e+00  1.8908116999990948e-08 -1.3493416649710269e-09 0.0000000000000000e+00  2.0077409337162765e-08 -7.8492558299025466e-10 0.0000000000000000e+00  2.0813174167505492e-08 -4.2236709547919932e-10 0.0000000000000000e+00  2.1225772543455248e-08 -1.6755176296142277e-10 0.0000000000000000e+00  2.1375255354740763e-08 4.3625018576003984e-11 0.0000000000000000e+00  2.1282313616120684e-08 2.6411793455986259e-10 0.0000000000000000e+00  2.0932240047067684e-08 5.4887816942614809e-10 0.0000000000000000e+00  2.0272527020439557e-08 9.6849630733691085e-10 0.0000000000000000e+00  1.9203498397784966e-08 1.6292699266198668e-09 0.0000000000000000e+00  1.7560061946097338e-08 2.7074097346851048e-09 0.0000000000000000e+00  1.5083230154588708e-08 4.5038207633716179e-09 0.0000000000000000e+00  1.1391664257135521e-08 7.4926404574638443e-09 0.0000000000000000e+00  6.0203773150181074e-09 1.2140734072722410e-08 0.0000000000000000e+00  -1.2903133637376854e-09 1.7594061491477042e-08 0.0000000000000000e+00  -1.3204153211236022e-08 1.4737365439719874e-08 0.0000000000000000e+00  -7.6388334339765525e-09 -1.9894154355124911e-08 0.0000000000000000e+00  -1.5726841845985725e-09 -1.9791119153117623e-08 0.0000000000000000e+00  1.1008889261873971e-09 -1.5318371960784202e-08 0.0000000000000000e+00  3.8534483440115296e-09 -1.0484959904990629e-08 0.0000000000000000e+00  6.7380264254844262e-09 -6.9186391666177985e-09 0.0000000000000000e+00  9.2559555543331329e-09 -4.5072542118179851e-09 0.0000000000000000e+00  1.1202968093861995e-08 -2.9008222097230819e-09 0.0000000000000000e+00  1.2599736227053518e-08 -1.8110017753245826e-09 0.0000000000000000e+00  1.3528801763139642e-08 -1.0385240742782288e-09 0.0000000000000000e+00  1.4064029549208816e-08 -4.4599868250956834e-10 0.0000000000000000e+00  1.4252396564311357e-08 6.8947906803404855e-11 0.0000000000000000e+00  1.4111095164229842e-08 5.9373113103743963e-10 0.0000000000000000e+00  1.3627635098579907e-08 1.2167837758876392e-09 0.0000000000000000e+00  1.2760034463869314e-08 2.0430382068072579e-09 0.0000000000000000e+00  1.1438308872259264e-08 3.2114782872100019e-09 0.0000000000000000e+00  9.5734526565985772e-09 4.9131472838900526e-09 0.0000000000000000e+00  7.0907645574283985e-09 7.3917967834987202e-09 0.0000000000000000e+00  4.0216594134113756e-09 1.0856672417492075e-08 0.0000000000000000e+00  6.6035780581198006e-10 1.5115999533441029e-08 0.0000000000000000e+00  -2.6291588651721051e-09 1.8753915114573448e-08 0.0000000000000000e+00  -8.9075491909208653e-09 1.7571780246471714e-08 0.0000000000000000e+00  -5.7818946952124552e-09 -1.9316598384342819e-08 0.0000000000000000e+00  -1.9027483304624317e-09 -1.9515976290629501e-08 0.0000000000000000e+00  -9.2675600076017876e-10 -1.6705544751213484e-08 0.0000000000000000e+00  1.9329503251977431e-10 -1.2843592984377478e-08 0.0000000000000000e+00  1.8160438717741394e-09 -9.3136500333387230e-09 0.0000000000000000e+00  3.5800037648855051e-09 -6.5346343391976089e-09 0.0000000000000000e+00  5.1608865997447396e-09 -4.4579115499407350e-09 0.0000000000000000e+00  6.4119293012690146e-09 -2.9137759647450894e-09 0.0000000000000000e+00  7.2976760556117955e-09 -1.7331883921745068e-09 0.0000000000000000e+00  7.8264316779232695e-09 -7.7348207499283087e-10 0.0000000000000000e+00  8.0135806544446459e-09 8.5359499503027095e-11 0.0000000000000000e+00  7.8664325442104724e-09 9.5141515763557986e-10 0.0000000000000000e+00  7.3799913915379443e-09 1.9321972740980960e-09 0.0000000000000000e+00  6.5395341088493830e-09 3.1449090461427126e-09 0.0000000000000000e+00  5.3312253764767608e-09 4.7230170466599150e-09 0.0000000000000000e+00  3.7668064160066068e-09 6.8105624159665107e-09 0.0000000000000000e+00  1.9317158148192839e-09 9.5208443400374554e-09 0.0000000000000000e+00  5.3693693271743872e-11 1.2811676607236451e-08 0.0000000000000000e+00  -1.5013991531632567e-09 1.6231071210699824e-08 0.0000000000000000e+00  -2.7434290576704119e-09 1.8693453424266944e-08 0.0000000000000000e+00  -6.6273529567043654e-09 1.8549607026989432e-08 0.0000000000000000e+00  -4.7293436166194002e-09 -1.8198632243156248e-08 0.0000000000000000e+00  -2.0721493736603565e-09 -1.8587141532774434e-08 0.0000000000000000e+00  -1.9904923692673291e-09 -1.6709248594233675e-08 0.0000000000000000e+00  -1.9140581866617839e-09 -1.3790970079902087e-08 0.0000000000000000e+00  -1.3296646807168869e-09 -1.0706642056137618e-08 0.0000000000000000e+00  -4.0053159799160243e-10 -7.9581178314554010e-09 0.0000000000000000e+00  6.0709090468748581e-10 -5.6864429418104290e-09 0.0000000000000000e+00  1.5027994936858103e-09 -3.8537700851352869e-09 0.0000000000000000e+00  2.1854695886166326e-09 -2.3575935502480903e-09 0.0000000000000000e+00  2.6113427703455488e-09 -1.0816489303420866e-09 0.0000000000000000e+00  2.7651029793291378e-09 8.7825353685073033e-11 0.0000000000000000e+00  2.6433134596626143e-09 1.2602438603173342e-09 0.0000000000000000e+00  2.2486077258175550e-09 2.5433409377685848e-09 0.0000000000000000e+00  1.5927258856078695e-09 4.0448876652316200e-09 0.0000000000000000e+00  7.0855528975400712e-10 5.8679715525036921e-09 0.0000000000000000e+00  -3.2763175350805837e-10 8.0907878131962601e-09 0.0000000000000000e+00  -1.3668351164820385e-09 1.0716424218920998e-08 0.0000000000000000e+00  -2.1753903924097299e-09 1.3579637504803873e-08 0.0000000000000000e+00  -2.5331934419733345e-09 1.6235619401297861e-08 0.0000000000000000e+00  -2.7231771683112182e-09 1.7983555086369370e-08 0.0000000000000000e+00  -5.2962978081352838e-09 1.8297185937578173e-08 0.0000000000000000e+00  -4.0582398879451398e-09 -1.6781838465408542e-08 0.0000000000000000e+00  -2.2022135725514084e-09 -1.7301433855593700e-08 0.0000000000000000e+00  -2.6528132258583987e-09 -1.5978919514932816e-08 0.0000000000000000e+00  -3.2346793558067922e-09 -1.3766624904264718e-08 0.0000000000000000e+00  -3.4043648576467553e-09 -1.1201942726044293e-08 0.0000000000000000e+00  -3.1878872822981647e-09 -8.6936778785379800e-09 0.0000000000000000e+00  -2.7582912748615432e-09 -6.4427654819162286e-09 0.0000000000000000e+00  -2.2813950541819159e-09 -4.4955706933561381e-09 0.0000000000000000e+00  -1.8728621149706038e-09 -2.8134476692495844e-09 0.0000000000000000e+00  -1.6006784139519987e-09 -1.3191995849378068e-09 0.0000000000000000e+00  -1.4987725523000131e-09 7.8771794883766117e-11 0.0000000000000000e+00  -1.5780304083448252e-09 1.4755693943292930e-09 0.0000000000000000e+00  -1.8309308004039698e-09 2.9643808233951016e-09 0.0000000000000000e+00  -2.2294654371039581e-09 4.6306792286468352e-09 0.0000000000000000e+00  -2.7169940946809919e-09 6.5406228713995837e-09 0.0000000000000000e+00  -3.1964709308721218e-09 8.7177117367581724e-09 0.0000000000000000e+00  -3.5234322702116123e-09 1.1103023270718247e-08 0.0000000000000000e+00  -3.5277117604154076e-09 1.3504121689405648e-08 0.0000000000000000e+00  -3.1258120922114731e-09 1.5566672453279558e-08 0.0000000000000000e+00  -2.7090662936867997e-09 1.6855222805040894e-08 0.0000000000000000e+00  -4.4396076261783376e-09 1.7386097787923490e-08 0.0000000000000000e+00  -3.5928459290988789e-09 -1.5165997120079150e-08 0.0000000000000000e+00  -2.3100703251841380e-09 -1.5780349659108254e-08 0.0000000000000000e+00  -3.1132517067894496e-09 -1.4812472466525083e-08 0.0000000000000000e+00  -4.1238441948832669e-09 -1.3110424239747121e-08 0.0000000000000000e+00  -4.8216760433838937e-09 -1.1013674550019996e-08 0.0000000000000000e+00  -5.1564105242382888e-09 -8.8207502278740442e-09 0.0000000000000000e+00  -5.2225208943665859e-09 -6.7221798080183332e-09 0.0000000000000000e+00  -5.1405429144804214e-09 -4.8001729338046296e-09 0.0000000000000000e+00  -5.0115089351583758e-09 -3.0597156642628835e-09 0.0000000000000000e+00  -4.9049315759417270e-09 -1.4600457271011461e-09 0.0000000000000000e+00  -4.8603485703358867e-09 6.2809682499134661e-11 0.0000000000000000e+00  -4.8916905829528621e-09 1.5815713063572970e-09 0.0000000000000000e+00  -4.9897371395763953e-09 3.1674463698134712e-09 0.0000000000000000e+00  -5.1213556140833306e-09 4.8799637072411479e-09 0.0000000000000000e+00  -5.2263898785465920e-09 6.7532072746099509e-09 0.0000000000000000e+00  -5.2155665541566671e-09 8.7758400349153091e-09 0.0000000000000000e+00  -4.9771964000950689e-09 1.0865723633430078e-08 0.0000000000000000e+00  -4.4090327803988309e-09 1.2848308505622675e-08 0.0000000000000000e+00  -3.5143695550256074e-09 1.4462799037056954e-08 0.0000000000000000e+00  -2.7086461912944995e-09 1.5439030325164933e-08 0.0000000000000000e+00  -3.8490980997244331e-09 1.6090567345100945e-08 0.0000000000000000e+00  -3.2522907295562253e-09 -1.3404743501997224e-08 0.0000000000000000e+00  -2.3988476309191555e-09 -1.4089409352547965e-08 0.0000000000000000e+00  -3.4518281491846111e-09 -1.3362537298612696e-08 0.0000000000000000e+00  -4.7520319454261102e-09 -1.2036699693711579e-08 0.0000000000000000e+00  -5.8170547324442174e-09 -1.0334203464758128e-08 0.0000000000000000e+00  -6.5589273929304746e-09 -8.4658048746849945e-09 0.0000000000000000e+00  -7.0168531972167949e-09 -6.5883313741105039e-09 0.0000000000000000e+00  -7.2675849833490050e-09 -4.7896203880281521e-09 0.0000000000000000e+00  -7.3867965950819149e-09 -3.0978635227052337e-09 0.0000000000000000e+00  -7.4329068637906844e-09 -1.4993862086231515e-09 0.0000000000000000e+00  -7.4420823122196938e-09 4.4245531518586023e-11 0.0000000000000000e+00  -7.4278349254031731e-09 1.5822629810167645e-09 0.0000000000000000e+00  -7.3815898935037283e-09 3.1629989943553634e-09 0.0000000000000000e+00  -7.2729507226800640e-09 4.8224909772222098e-09 0.0000000000000000e+00  -7.0503550261677827e-09 6.5716213466534052e-09 0.0000000000000000e+00  -6.6448126362390340e-09 8.3813871708605844e-09 0.0000000000000000e+00  -5.9819489727994838e-09 1.0168885639204342e-08 0.0000000000000000e+00  -5.0122768827481907e-09 1.1791555051708328e-08 0.0000000000000000e+00  -3.7874003736824958e-09 1.3063597759516948e-08 0.0000000000000000e+00  -2.7145120625202304e-09 1.3816756601202232e-08 0.0000000000000000e+00  -3.4234102385057538e-09 1.4544666533092462e-08 0.0000000000000000e+00  -2.9952647428002664e-09 -1.1533970820294357e-08 0.0000000000000000e+00  -2.4704862418607991e-09 -1.2271547669600595e-08 0.0000000000000000e+00  -3.7065390045820500e-09 -1.1718427234890389e-08 0.0000000000000000e+00  -5.2074592229205708e-09 -1.0680423457304406e-08 0.0000000000000000e+00  -6.5276825935580815e-09 -9.3083738592874621e-09 0.0000000000000000e+00  -7.5626000966298159e-09 -7.7495849996244831e-09 0.0000000000000000e+00  -8.3154251331645727e-09 -6.1250798961263182e-09 0.0000000000000000e+00  -8.8277917336328588e-09 -4.5139593890890586e-09 0.0000000000000000e+00  -9.1495737174465467e-09 -2.9531256651565474e-09 0.0000000000000000e+00  -9.3235751266953582e-09 -1.4459543048532199e-09 0.0000000000000000e+00  -9.3782095307880829e-09 2.6144645731645755e-11 0.0000000000000000e+00  -9.3246285826041269e-09 1.4922174141182633e-09 0.0000000000000000e+00  -9.1561339581071326e-09 2.9809528488552468e-09 0.0000000000000000e+00  -8.8490020011034186e-09 4.5101662822918593e-09 0.0000000000000000e+00  -8.3651312735354230e-09 6.0762290114845991e-09 0.0000000000000000e+00  -7.6581383472138060e-09 7.6440974440053453e-09 0.0000000000000000e+00  -6.6858399515050788e-09 9.1404897359189550e-09 0.0000000000000000e+00  -5.4353224038420336e-09 1.0455121103690602e-08 0.0000000000000000e+00  -3.9836072834019452e-09 1.1457622244931514e-08 0.0000000000000000e+00  -2.7205617884345606e-09 1.2043595269855580e-08 0.0000000000000000e+00  -3.1081806710486539e-09 1.2823488337765148e-08 0.0000000000000000e+00  -2.7988798887716760e-09 -9.5807995021310841e-09 0.0000000000000000e+00  -2.5272928792861691e-09 -1.0358397434021236e-08 0.0000000000000000e+00  -3.8990006783012816e-09 -9.9380506022871749e-09 0.0000000000000000e+00  -5.5405424940918025e-09 -9.1301584735973864e-09 0.0000000000000000e+00  -7.0375769905867077e-09 -8.0403629897735258e-09 0.0000000000000000e+00  -8.2793190333494854e-09 -6.7711928564419909e-09 0.0000000000000000e+00  -9.2464048281940249e-09 -5.4126192196442016e-09 0.0000000000000000e+00  -9.9546722473723493e-09 -4.0298647782702667e-09 0.0000000000000000e+00  -1.0432108539992740e-08 -2.6598783954106059e-09 0.0000000000000000e+00  -1.0706158086167590e-08 -1.3149017757565022e-09 0.0000000000000000e+00  -1.0796433221361213e-08 1.0271102378574651e-11 0.0000000000000000e+00  -1.0711051082223866e-08 1.3296850364516094e-09 0.0000000000000000e+00  -1.0445541224622367e-08 2.6573926214906528e-09 0.0000000000000000e+00  -9.9838530304482219e-09 3.9988355285164515e-09 0.0000000000000000e+00  -9.3016358727784696e-09 5.3428443123767588e-09 0.0000000000000000e+00  -8.3725585170287403e-09 6.6552373133251636e-09 0.0000000000000000e+00  -7.1791609109106812e-09 7.8759624031348740e-09 0.0000000000000000e+00  -5.7327042860462299e-09 8.9226441169043496e-09 0.0000000000000000e+00  -4.1232809684339476e-09 9.7048776645463712e-09 0.0000000000000000e+00  -2.7234341013428748e-09 1.0159307601257373e-08 0.0000000000000000e+00  -2.8720175544107833e-09 1.0975305801095624e-08 0.0000000000000000e+00  -2.6497736649383719e-09 -7.5668244108766470e-09 0.0000000000000000e+00  -2.5718867799578519e-09 -8.3746432123384437e-09 0.0000000000000000e+00  -4.0435132643548924e-09 -8.0617281865932095e-09 0.0000000000000000e+00  -5.7830911931735924e-09 -7.4464507973231690e-09 0.0000000000000000e+00  -7.4011737463342668e-09 -6.6046925586953547e-09 0.0000000000000000e+00  -8.7857030956759031e-09 -5.6072023515104576e-09 0.0000000000000000e+00  -9.9034759028037623e-09 -4.5187413417865449e-09 0.0000000000000000e+00  -1.0752370406503039e-08 -3.3898277758249201e-09 0.0000000000000000e+00  -1.1343554406254203e-08 -2.2528125603098503e-09 0.0000000000000000e+00  -1.1691564575486570e-08 -1.1229271260662702e-09 0.0000000000000000e+00  -1.1808034029220400e-08 -2.6010292429158058e-12 0.0000000000000000e+00  -1.1698158704571871e-08 1.1125397054659306e-09 0.0000000000000000e+00  -1.1359513860537320e-08 2.2270780340824687e-09 0.0000000000000000e+00  -1.0783026935043831e-08 3.3393308449693569e-09 0.0000000000000000e+00  -9.9561301179527145e-09 4.4356643277306896e-09 0.0000000000000000e+00  -8.8683338662485190e-09 5.4865313972991512e-09 0.0000000000000000e+00  -7.5199771599696943e-09 6.4455522689688213e-09 0.0000000000000000e+00  -5.9379666057549173e-09 7.2532180638521755e-09 0.0000000000000000e+00  -4.2191380606336158e-09 7.8480332824040412e-09 0.0000000000000000e+00  -2.7218507180125244e-09 8.1938888570719366e-09 0.0000000000000000e+00  -2.6958765417902603e-09 9.0344431433733782e-09 0.0000000000000000e+00  -2.5399628895688514e-09 -5.5096120894107595e-09 0.0000000000000000e+00  -2.6069258014571267e-09 -6.3400398243643860e-09 0.0000000000000000e+00  -4.1504309383186497e-09 -6.1189106912922645e-09 0.0000000000000000e+00  -5.9566736392968530e-09 -5.6721540562393677e-09 0.0000000000000000e+00  -7.6552863365984937e-09 -5.0551104355718601e-09 0.0000000000000000e+00  -9.1350622640771544e-09 -4.3153918861940761e-09 0.0000000000000000e+00  -1.0354553446134998e-08 -3.4975422522070273e-09 0.0000000000000000e+00  -1.1299707785690262e-08 -2.6381792858830547e-09 0.0000000000000000e+00  -1.1969690449974627e-08 -1.7627732959604330e-09 0.0000000000000000e+00  -1.2369257141503502e-08 -8.8562781139501305e-10 0.0000000000000000e+00  -1.2503692732553844e-08 -1.2310376984995126e-11 0.0000000000000000e+00  -1.2375768355874492e-08 8.5644430993801518e-10 0.0000000000000000e+00  -1.1984665697546106e-08 1.7201993613633541e-09 0.0000000000000000e+00  -1.1326832652762935e-08 2.5743296684737626e-09 0.0000000000000000e+00  -1.0398717614925272e-08 3.4062279281229537e-09 0.0000000000000000e+00  -9.2013608419609402e-09 4.1929318940571156e-09 0.0000000000000000e+00  -7.7472955829286595e-09 4.9010077913297355e-09 0.0000000000000000e+00  -6.0734114692034964e-09 5.4895508642697405e-09 0.0000000000000000e+00  -4.2801904965466033e-09 5.9184869778848831e-09 0.0000000000000000e+00  -2.7157995559952801e-09 6.1706045962811539e-09 0.0000000000000000e+00  -2.5678326868403822e-09 7.0268024049133649e-09 0.0000000000000000e+00  -2.4647386340363856e-09 -3.4236892592573707e-09 0.0000000000000000e+00  -2.6348379855790115e-09 -4.2706440089994882e-09 0.0000000000000000e+00  -4.2274191122245127e-09 -4.1319091379667673e-09 0.0000000000000000e+00  -6.0762977848805420e-09 -3.8386141713236399e-09 0.0000000000000000e+00  -7.8250987083630183e-09 -3.4310691050170944e-09 0.0000000000000000e+00  -9.3642471097190907e-09 -2.9392704665091565e-09 0.0000000000000000e+00  -1.0647692932263189e-08 -2.3912205803166679e-09