<?xml version="1.0"?>
<VTKFile type="UnstructuredGrid"  version="0.1"  >
<UnstructuredGrid>
<Piece  NumberOfPoints="651" NumberOfCells="1200">
<Points>
<DataArray  type="Float64"  NumberOfComponents="3"  format="ascii">0 0 0  50000 0 0  100000 0 0  150000 0 0  200000 0 0  250000 0 0  300000 0 0  350000 0 0  400000 0 0  450000 0 0  500000 0 0  550000 0 0  600000 0 0  650000 0 0  700000 0 0  750000 0 0  800000 0 0  850000 0 0  900000 0 0  950000 0 0  1000000 0 0  0 50000 0  50000 50000 0  100000 50000 0  150000 50000 0  200000 50000 0  250000 50000 0  300000 50000 0  350000 50000 0  400000 50000 0  450000 50000 0  500000 50000 0  550000 50000 0  600000 50000 0  650000 50000 0  700000 50000 0  750000 50000 0  800000 50000 0  850000 50000 0  900000 50000 0  950000 50000 0  1000000 50000 0  0 100000 0  50000 100000 0  100000 100000 0  150000 100000 0  200000 100000 0  250000 100000 0  300000 100000 0  350000 100000 0  400000 100000 0  450000 100000 0  500000 100000 0  550000 100000 0  600000 100000 0  650000 100000 0  700000 100000 0  750000 100000 0  800000 100000 0  850000 100000 0  900000 100000 0  950000 100000 0  1000000 100000 0  0 150000 0  50000 150000 0  100000 150000 0  150000 150000 0  200000 150000 0  250000 150000 0  300000 150000 0  350000 150000 0  400000 150000 0  450000 150000 0  500000 150000 0  550000 150000 0  600000 150000 0  650000 150000 0  700000 150000 0  750000 150000 0  800000 150000 0  850000 150000 0  900000 150000 0  950000 150000 0  1000000 150000 0  0 200000 0  50000 200000 0  100000 200000 0  150000 200000 0  200000 200000 0  250000 200000 0  300000 200000 0  350000 200000 0  400000 200000 0  450000 200000 0  500000 200000 0  550000 200000 0  600000 200000 0  650000 200000 0  700000 200000 0  750000 200000 0  800000 200000 0  850000 200000 0  900000 200000 0  950000 200000 0  1000000 200000 0  0 250000 0  50000 250000 0  100000 250000 0  150000 250000 0  200000 250000 0  250000 250000 0  300000 250000 0  350000 250000 0  400000 250000 0  450000 250000 0  500000 250000 0  550000 250000 0  600000 250000 0  650000 250000 0  700000 250000 0  750000 250000 0  800000 250000 0  850000 250000 0  900000 250000 0  950000 250000 0  1000000 250000 0  0 300000 0  50000 300000 0  100000 300000 0  150000 300000 0  200000 300000 0  250000 300000 0  300000 300000 0  350000 300000 0  400000 300000 0  450000 300000 0  500000 300000 0  550000 300000 0  600000 300000 0  650000 300000 0  700000 300000 0  750000 300000 0  800000 300000 0  850000 300000 0  900000 300000 0  950000 300000 0  1000000 300000 0  0 350000 0  50000 350000 0  100000 350000 0  150000 350000 0  200000 350000 0  250000 350000 0  300000 350000 0  350000 350000 0  400000 350000 0  450000 350000 0  500000 350000 0  550000 350000 0  600000 350000 0  650000 350000 0  700000 350000 0  750000 350000 0  800000 350000 0  850000 350000 0  900000 350000 0  950000 350000 0  1000000 350000 0  0 400000 0  50000 400000 0  100000 400000 0  150000 400000 0  200000 400000 0  250000 400000 0  300000 400000 0  350000 400000 0  400000 400000 0  450000 400000 0  500000 400000 0  550000 400000 0  600000 400000 0  650000 400000 0  700000 400000 0  750000 400000 0  800000 400000 0  850000 400000 0  900000 400000 0  950000 400000 0  1000000 400000 0  0 450000 0  50000 450000 0  100000 450000 0  150000 450000 0  200000 450000 0  250000 450000 0  300000 450000 0  350000 450000 0  400000 450000 0  450000 450000 0  500000 450000 0  550000 450000 0  600000 450000 0  650000 450000 0  700000 450000 0  750000 450000 0  800000 450000 0  850000 450000 0  900000 450000 0  950000 450000 0  1000000 450000 0  0 500000 0  50000 500000 0  100000 500000 0  150000 500000 0  200000 500000 0  250000 500000 0  300000 500000 0  350000 500000 0  400000 500000 0  450000 500000 0  500000 500000 0  550000 500000 0  600000 500000 0  650000 500000 0  700000 500000 0  750000 500000 0  800000 500000 0  850000 500000 0  900000 500000 0  950000 500000 0  1000000 500000 0  0 550000 0  50000 550000 0  100000 550000 0  150000 550000 0  200000 550000 0  250000 550000 0  300000 550000 0  350000 550000 0  400000 550000 0  450000 550000 0  500000 550000 0  550000 550000 0  600000 550000 0  650000 550000 0  700000 550000 0  750000 550000 0  800000 550000 0  850000 550000 0  900000 550000 0  950000 550000 0  1000000 550000 0  0 600000 0  50000 600000 0  100000 600000 0  150000 600000 0  200000 600000 0  250000 600000 0  300000 600000 0  350000 600000 0  400000 600000 0  450000 600000 0  500000 600000 0  550000 600000 0  600000 600000 0  650000 600000 0  700000 600000 0  750000 600000 0  800000 600000 0  850000 600000 0  900000 600000 0  950000 600000 0  1000000 600000 0  0 650000 0  50000 650000 0  100000 650000 0  150000 650000 0  200000 650000 0  250000 650000 0  300000 650000 0  350000 650000 0  400000 650000 0  450000 650000 0  500000 650000 0  550000 650000 0  600000 650000 0  650000 650000 0  700000 650000 0  750000 650000 0  800000 650000 0  850000 650000 0  900000 650000 0  950000 650000 0  1000000 650000 0  0 700000 0  50000 700000 0  100000 700000 0  150000 700000 0  200000 700000 0  250000 700000 0  300000 700000 0  350000 700000 0  400000 700000 0  450000 700000 0  500000 700000 0  550000 700000 0  600000 700000 0  650000 700000 0  700000 700000 0  750000 700000 0  800000 700000 0  850000 700000 0  900000 700000 0  950000 700000 0  1000000 700000 0  0 750000 0  50000 750000 0  100000 750000 0  150000 750000 0  200000 750000 0  250000 750000 0  300000 750000 0  350000 750000 0  400000 750000 0  450000 750000 0  500000 750000 0  550000 750000 0  600000 750000 0  650000 750000 0  700000 750000 0  750000 750000 0  800000 750000 0  850000 750000 0  900000 750000 0  950000 750000 0  1000000 750000 0  0 800000 0  50000 800000 0  100000 800000 0  150000 800000 0  200000 800000 0  250000 800000 0  300000 800000 0  350000 800000 0  400000 800000 0  450000 800000 0  500000 800000 0  550000 800000 0  600000 800000 0  650000 800000 0  700000 800000 0  750000 800000 0  800000 800000 0  850000 800000 0  900000 800000 0  950000 800000 0  1000000 800000 0  0 850000 0  50000 850000 0  100000 850000 0  150000 850000 0  200000 850000 0  250000 850000 0  300000 850000 0  350000 850000 0  400000 850000 0  450000 850000 0  500000 850000 0  550000 850000 0  600000 850000 0  650000 850000 0  700000 850000 0  750000 850000 0  800000 850000 0  850000 850000 0  900000 850000 0  950000 850000 0  1000000 850000 0  0 900000 0  50000 900000 0  100000 900000 0  150000 900000 0  200000 900000 0  250000 900000 0  300000 900000 0  350000 900000 0  400000 900000 0  450000 900000 0  500000 900000 0  550000 900000 0  600000 900000 0  650000 900000 0  700000 900000 0  750000 900000 0  800000 900000 0  850000 900000 0  900000 900000 0  950000 900000 0  1000000 900000 0  0 950000 0  50000 950000 0  100000 950000 0  150000 950000 0  200000 950000 0  250000 950000 0  300000 950000 0  350000 950000 0  400000 950000 0  450000 950000 0  500000 950000 0  550000 950000 0  600000 950000 0  650000 950000 0  700000 950000 0  750000 950000 0  800000 950000 0  850000 950000 0  900000 950000 0  950000 950000 0  1000000 950000 0  0 1000000 0  50000 1000000 0  100000 1000000 0  150000 1000000 0  200000 1000000 0  250000 1000000 0  300000 1000000 0  350000 1000000 0  400000 1000000 0  450000 1000000 0  500000 1000000 0  550000 1000000 0  600000 1000000 0  650000 1000000 0  700000 1000000 0  750000 1000000 0  800000 1000000 0  850000 1000000 0  900000 1000000 0  950000 1000000 0  1000000 1000000 0  0 1050000 0  50000 1050000 0  100000 1050000 0  150000 1050000 0  200000 1050000 0  250000 1050000 0  300000 1050000 0  350000 1050000 0  400000 1050000 0  450000 1050000 0  500000 1050000 0  550000 1050000 0  600000 1050000 0  650000 1050000 0  700000 1050000 0  750000 1050000 0  800000 1050000 0  850000 1050000 0  900000 1050000 0  950000 1050000 0  1000000 1050000 0  0 1100000 0  50000 1100000 0  100000 1100000 0  150000 1100000 0  200000 1100000 0  250000 1100000 0  300000 1100000 0  350000 1100000 0  400000 1100000 0  450000 1100000 0  500000 1100000 0  550000 1100000 0  600000 1100000 0  650000 1100000 0  700000 1100000 0  750000 1100000 0  800000 1100000 0  850000 1100000 0  900000 1100000 0  950000 1100000 0  1000000 1100000 0  0 1150000 0  50000 1150000 0  100000 1150000 0  150000 1150000 0  200000 1150000 0  250000 1150000 0  300000 1150000 0  350000 1150000 0  400000 1150000 0  450000 1150000 0  500000 1150000 0  550000 1150000 0  600000 1150000 0  650000 1150000 0  700000 1150000 0  750000 1150000 0  800000 1150000 0  850000 1150000 0  900000 1150000 0  950000 1150000 0  1000000 1150000 0  0 1200000 0  50000 1200000 0  100000 1200000 0  150000 1200000 0  200000 1200000 0  250000 1200000 0  300000 1200000 0  350000 1200000 0  400000 1200000 0  450000 1200000 0  500000 1200000 0  550000 1200000 0  600000 1200000 0  650000 1200000 0  700000 1200000 0  750000 1200000 0  800000 1200000 0  850000 1200000 0  900000 1200000 0  950000 1200000 0  1000000 1200000 0  0 1250000 0  50000 1250000 0  100000 1250000 0  150000 1250000 0  200000 1250000 0  250000 1250000 0  300000 1250000 0  350000 1250000 0  400000 1250000 0  450000 1250000 0  500000 1250000 0  550000 1250000 0  600000 1250000 0  650000 1250000 0  700000 1250000 0  750000 1250000 0  800000 1250000 0  850000 1250000 0  900000 1250000 0  950000 1250000 0  1000000 1250000 0  0 1300000 0  50000 1300000 0  100000 1300000 0  150000 1300000 0  200000 1300000 0  250000 1300000 0  300000 1300000 0  350000 1300000 0  400000 1300000 0  450000 1300000 0  500000 1300000 0  550000 1300000 0  600000 1300000 0  650000 1300000 0  700000 1300000 0  750000 1300000 0  800000 1300000 0  850000 1300000 0  900000 1300000 0  950000 1300000 0  1000000 1300000 0  0 1350000 0  50000 1350000 0  100000 1350000 0  150000 1350000 0  200000 1350000 0  250000 1350000 0  300000 1350000 0  350000 1350000 0  400000 1350000 0  450000 1350000 0  500000 1350000 0  550000 1350000 0  600000 1350000 0  650000 1350000 0  700000 135
[...]
<PointData  Vectors="f_19"> 
<DataArray  type="Float64"  Name="f_19"  NumberOfComponents="3" format="ascii">-2.4348220467603557e-08 -1.0464225675534354e-08 0.0000000000000000e+00  4.8702165118526172e-08 -6.5420390236893129e-09 0.0000000000000000e+00  4.2969163742961035e-08 -2.2340975277225579e-09 0.0000000000000000e+00  4.0513920900158432e-08 -8.6307503151741710e-10 0.0000000000000000e+00  3.9309422498808564e-08 -3.8538928128052118e-10 0.0000000000000000e+00  3.8522868752324451e-08 -1.8210036237896087e-10 0.0000000000000000e+00  3.7957407155024117e-08 -8.5488499188552835e-11 0.0000000000000000e+00  3.7556161364044402e-08 -3.8030083149691928e-11 0.0000000000000000e+00  3.7301245238063612e-08 -1.5124772103741128e-11 0.0000000000000000e+00  3.7188036414794628e-08 -3.5753786497518516e-12 0.0000000000000000e+00  3.7217429138388093e-08 5.7737324902336814e-12 0.0000000000000000e+00  3.7394066828816185e-08 2.1371372024344798e-11 0.0000000000000000e+00  3.7727927838828922e-08 5.3485167793951678e-11 0.0000000000000000e+00  3.8240362834729357e-08 1.1774496339533676e-10 0.0000000000000000e+00  3.8980158439360337e-08 2.4245250635546811e-10 0.0000000000000000e+00  4.0066050133146815e-08 4.8668946480916405e-10 0.0000000000000000e+00  4.1799062500515887e-08 9.8895875215162693e-10 0.0000000000000000e+00  4.4925882626107793e-08 2.0938160001640999e-09 0.0000000000000000e+00  5.0776043008314338e-08 4.6186928019479239e-09 0.0000000000000000e+00  5.8020266791532356e-08 9.1312018707612307e-09 0.0000000000000000e+00  -1.6434343709855267e-08 7.0242688122319170e-09 0.0000000000000000e+00  -1.8103121023430829e-08 -1.6010673150825554e-08 0.0000000000000000e+00  7.2680223657379415e-09 -1.1333995583588061e-08 0.0000000000000000e+00  1.8173660233793609e-08 -5.2597696736541368e-09 0.0000000000000000e+00  2.3233683325713103e-08 -2.4047844127292837e-09 0.0000000000000000e+00  2.5817608242425492e-08 -1.1503444140446654e-09 0.0000000000000000e+00  2.7277534514866980e-08 -5.5949210763575919e-10 0.0000000000000000e+00  2.8125527687407290e-08 -2.6377534458698411e-10 0.0000000000000000e+00  2.8620948412644275e-08 -1.1289546686852911e-10 0.0000000000000000e+00  2.8907016869207331e-08 -3.7857204287944318e-11 0.0000000000000000e+00  2.9063612612839872e-08 -1.3566862374417074e-12 0.0000000000000000e+00  2.9132372737291930e-08 2.1131234149434262e-11 0.0000000000000000e+00  2.9128205013134815e-08 5.0057056297605367e-11 0.0000000000000000e+00  2.9043271035863244e-08 1.0756413439124902e-10 0.0000000000000000e+00  2.8845448672933747e-08 2.2409926402736768e-10 0.0000000000000000e+00  2.8470266712162540e-08 4.5020128921277595e-10 0.0000000000000000e+00  2.7800270931665747e-08 8.8240271081838277e-10 0.0000000000000000e+00  2.6609779174181824e-08 1.7240929345636216e-09 0.0000000000000000e+00  2.4387460881710406e-08 3.4212946680093400e-09 0.0000000000000000e+00  1.9688861155341760e-08 6.8642798439426756e-09 0.0000000000000000e+00  8.2668845518646364e-09 1.3016249842077645e-08 0.0000000000000000e+00  -1.8402338898526707e-08 1.0956256376255972e-08 0.0000000000000000e+00  -1.1117783411118761e-08 -1.9592666645779830e-08 0.0000000000000000e+00  -2.5505432692525806e-10 -1.8492829213007254e-08 0.0000000000000000e+00  5.8628332153069076e-09 -1.1337924544899188e-08 0.0000000000000000e+00  1.0747165620910178e-08 -6.5585865344794149e-09 0.0000000000000000e+00  1.4557528410237830e-08 -3.7971988543467379e-09 0.0000000000000000e+00  1.7199024970874973e-08 -2.2277493412197012e-09 0.0000000000000000e+00  1.8963962955275871e-08 -1.3099110161836797e-09 0.0000000000000000e+00  2.0118583497692908e-08 -7.5261237708117524e-10 0.0000000000000000e+00  2.0842231893189854e-08 -3.9691843312323691e-10 0.0000000000000000e+00  2.1245257689857982e-08 -1.4857322223978787e-10 0.0000000000000000e+00  2.1387526479869814e-08 5.6619833325793667e-11 0.0000000000000000e+00  2.1289471657021458e-08 2.7170050637889021e-10 0.0000000000000000e+00  2.0936100381375329e-08 5.5169446264706564e-10 0.0000000000000000e+00  2.0274610085629078e-08 9.6724002387229688e-10 0.0000000000000000e+00  1.9205029107186638e-08 1.6246336653840911e-09 0.0000000000000000e+00  1.7561973050284951e-08 2.7000060538820401e-09 0.0000000000000000e+00  1.5086150405327657e-08 4.4940635227518343e-09 0.0000000000000000e+00  1.1395820465305890e-08 7.4805927963717114e-09 0.0000000000000000e+00  6.0250992954464299e-09 1.2125899947896500e-08 0.0000000000000000e+00  -1.2874446520004392e-09 1.7578291246962899e-08 0.0000000000000000e+00  -1.3235931779202300e-08 1.4702659717275899e-08 0.0000000000000000e+00  -7.4147501406556214e-09 -2.0194571930168419e-08 0.0000000000000000e+00  -1.5522816659735788e-09 -1.9929796599581111e-08 0.0000000000000000e+00  1.1314481806509601e-09 -1.5309279553403710e-08 0.0000000000000000e+00  3.9083823626807992e-09 -1.0428759749045338e-08 0.0000000000000000e+00  6.8036395403581141e-09 -6.8516660849183370e-09 0.0000000000000000e+00  9.3200864943343517e-09 -4.4425920223361119e-09 0.0000000000000000e+00  1.1260006099874333e-08 -2.8433653995608126e-09 0.0000000000000000e+00  1.2648035198607097e-08 -1.7624194443207217e-09 0.0000000000000000e+00  1.3568610308462462e-08 -9.9912993894316281e-10 0.0000000000000000e+00  1.4096397078158051e-08 -4.1550835297129370e-10 0.0000000000000000e+00  1.4278658797450747e-08 9.1120701076932852e-11 0.0000000000000000e+00  1.4132629522856838e-08 6.0835606719016251e-10 0.0000000000000000e+00  1.3645738158106150e-08 1.2247542606095048e-09 0.0000000000000000e+00  1.2775854822494667e-08 2.0453231322127022e-09 0.0000000000000000e+00  1.1452801621165960e-08 3.2090649371995988e-09 0.0000000000000000e+00  9.5873330658373948e-09 4.9069653252581579e-09 0.0000000000000000e+00  7.1044334159245655e-09 7.3826233531550610e-09 0.0000000000000000e+00  4.0350261487926318e-09 1.0845062047483400e-08 0.0000000000000000e+00  6.7211245821874127e-10 1.5102493573108848e-08 0.0000000000000000e+00  -2.6217388486547646e-09 1.8744116521532945e-08 0.0000000000000000e+00  -8.9339268996404534e-09 1.7544193992693279e-08 0.0000000000000000e+00  -5.5445683917350478e-09 -1.9581917465836430e-08 0.0000000000000000e+00  -1.8915529231221725e-09 -1.9666954061032928e-08 0.0000000000000000e+00  -9.2757037879281196e-10 -1.6725237863018691e-08 0.0000000000000000e+00  2.1116703844584408e-10 -1.2803990815811611e-08 0.0000000000000000e+00  1.8509194811040438e-09 -9.2510050957763790e-09 0.0000000000000000e+00  3.6232803541312825e-09 -6.4671625743921449e-09 0.0000000000000000e+00  5.2059378843245747e-09 -4.3943116809962720e-09 0.0000000000000000e+00  6.4550186353492184e-09 -2.8579734862340959e-09 0.0000000000000000e+00  7.3371166451005701e-09 -1.6867250917398643e-09 0.0000000000000000e+00  7.8617606464091181e-09 -7.3668577818472318e-10 0.0000000000000000e+00  8.0450027100337764e-09 1.1281207984654423e-10 0.0000000000000000e+00  7.8944835240734056e-09 9.7022527970329810e-10 0.0000000000000000e+00  7.4053378370379509e-09 1.9433029373932060e-09 0.0000000000000000e+00  6.5628452666105958e-09 3.1493993620307027e-09 0.0000000000000000e+00  5.3530757501364941e-09 4.7220663203753714e-09 0.0000000000000000e+00  3.7875784255784422e-09 6.8053699872962818e-09 0.0000000000000000e+00  1.9514702773173169e-09 9.5125888376027292e-09 0.0000000000000000e+00  7.1935809003796207e-11 1.2801564881787259e-08 0.0000000000000000e+00  -1.4864098878555018e-09 1.6220824293278511e-08 0.0000000000000000e+00  -2.7332151136820449e-09 1.8691406230606022e-08 0.0000000000000000e+00  -6.6461224314828280e-09 1.8530228870145897e-08 0.0000000000000000e+00  -4.4830431011186617e-09 -1.8430036464014388e-08 0.0000000000000000e+00  -2.0646048043346104e-09 -1.8733896693862256e-08 0.0000000000000000e+00  -2.0098358269685534e-09 -1.6748234614050259e-08 0.0000000000000000e+00  -1.9227648331878303e-09 -1.3770567385440112e-08 0.0000000000000000e+00  -1.3219842948185577e-09 -1.0656363474154559e-08 0.0000000000000000e+00  -3.8030997569506994e-10 -7.8965175716353759e-09 0.0000000000000000e+00  6.3478975100846661e-10 -5.6242236335467231e-09 0.0000000000000000e+00  1.5339917437885816e-09 -3.7967218023323009e-09 0.0000000000000000e+00  2.2175533756756348e-09 -2.3085901031293610e-09 0.0000000000000000e+00  2.6428287458602093e-09 -1.0418681518020726e-09 0.0000000000000000e+00  2.7952697941458591e-09 1.1820332638808472e-10 0.0000000000000000e+00  2.6719255939681867e-09 1.2816489252174113e-09 0.0000000000000000e+00  2.2757080213423057e-09 2.5565972452961357e-09 0.0000000000000000e+00  1.6184804941364385e-09 4.0510893888199920e-09 0.0000000000000000e+00  7.3312361638545682e-10 5.8684077192273279e-09 0.0000000000000000e+00  -3.0422763158458015e-10 8.0868991048913994e-09 0.0000000000000000e+00  -1.3448680849927766e-09 1.0709802218995744e-08 0.0000000000000000e+00  -2.1556584100560499e-09 1.3572153497383196e-08 0.0000000000000000e+00  -2.5175250669709480e-09 1.6230029852665501e-08 0.0000000000000000e+00  -2.7112186355096296e-09 1.7990404644604921e-08 0.0000000000000000e+00  -5.3052813748748758e-09 1.8286578305939279e-08 0.0000000000000000e+00  -3.8066655596934772e-09 -1.6980694325366786e-08 0.0000000000000000e+00  -2.1958491474933745e-09 -1.7435595471339327e-08 0.0000000000000000e+00  -2.6831655062513875e-09 -1.6027421458410701e-08 0.0000000000000000e+00  -3.2613724447937222e-09 -1.3761817061452923e-08 0.0000000000000000e+00  -3.4178737929398128e-09 -1.1165715355333356e-08 0.0000000000000000e+00  -3.1883579920228672e-09 -8.6421737370693709e-09 0.0000000000000000e+00  -2.7485950365980696e-09 -6.3867693465108782e-09 0.0000000000000000e+00  -2.2647163971441475e-09 -4.4417617841582293e-09 0.0000000000000000e+00  -1.8518508355962575e-09 -2.7656601398296760e-09 0.0000000000000000e+00  -1.5772694193887652e-09 -1.2793936397698303e-09 0.0000000000000000e+00  -1.4742624196928063e-09 1.0985209593658524e-10 0.0000000000000000e+00  -1.5532270269399525e-09 1.4979812240751986e-09 0.0000000000000000e+00  -1.8063064291460187e-09 2.9787317213258567e-09 0.0000000000000000e+00  -2.2052970055760060e-09 4.6379807072625982e-09 0.0000000000000000e+00  -2.6934962935583702e-09 6.5422113837163221e-09 0.0000000000000000e+00  -3.1739347337886628e-09 8.7152200903016957e-09 0.0000000000000000e+00  -3.5023829436558959e-09 1.1098410611334118e-08 0.0000000000000000e+00  -3.5090998767134858e-09 1.3499844085073023e-08 0.0000000000000000e+00  -3.1112951519986842e-09 1.5566343441598657e-08 0.0000000000000000e+00  -2.6960147347087681e-09 1.6871213905241615e-08 0.0000000000000000e+00  -4.4366890696769737e-09 1.7384344468222918e-08 0.0000000000000000e+00  -3.3393945449992628e-09 -1.5333807090448595e-08 0.0000000000000000e+00  -2.3037605388642891e-09 -1.5897534493938179e-08 0.0000000000000000e+00  -3.1500271373729432e-09 -1.4863453747748345e-08 0.0000000000000000e+00  -4.1623039270930912e-09 -1.3116408212246731e-08 0.0000000000000000e+00  -4.8506610107249097e-09 -1.0990126626591489e-08 0.0000000000000000e+00  -5.1736999013258191e-09 -8.7805271737345299e-09 0.0000000000000000e+00  -5.2290631513737149e-09 -6.6749230230164425e-09 0.0000000000000000e+00  -5.1383967529830773e-09 -4.7525356468794715e-09 0.0000000000000000e+00  -5.0028803177925128e-09 -3.0159568552248671e-09 0.0000000000000000e+00  -4.8917548050713555e-09 -1.4226519901288663e-09 0.0000000000000000e+00  -4.8441570984769800e-09 9.2618177925807671e-11 0.0000000000000000e+00  -4.8736283806176265e-09 1.6034784955778454e-09 0.0000000000000000e+00  -4.9706307898796082e-09 3.1818021114057012e-09 0.0000000000000000e+00  -5.1018114536954801e-09 4.8876404918457578e-09 0.0000000000000000e+00  -5.2069048900973910e-09 6.7555280276726585e-09 0.0000000000000000e+00  -5.1966527735490771e-09 8.7745641635226941e-09 0.0000000000000000e+00  -4.9595201370452154e-09 1.0863097727710445e-08 0.0000000000000000e+00  -4.3935524531353561e-09 1.2847259426154611e-08 0.0000000000000000e+00  -3.5023786371330067e-09 1.4467629847983825e-08 0.0000000000000000e+00  -2.6949518455408921e-09 1.5463632915000834e-08 0.0000000000000000e+00  -3.8322649833930093e-09 1.6097259246770871e-08 0.0000000000000000e+00  -3.0001523465513489e-09 -1.3543147195078699e-08 0.0000000000000000e+00  -2.3921161914395896e-09 -1.4187374257355675e-08 0.0000000000000000e+00  -3.4921021297687138e-09 -1.3411282860986944e-08 0.0000000000000000e+00  -4.7978190673205305e-09 -1.2049171726516523e-08 0.0000000000000000e+00  -5.8567599932292657e-09 -1.0320861803578070e-08 0.0000000000000000e+00  -6.5890057938595931e-09 -8.4362822752626237e-09 0.0000000000000000e+00  -7.0368578365047557e-09 -6.5505848987925382e-09 0.0000000000000000e+00  -7.2785223787387345e-09 -4.7496625681227152e-09 0.0000000000000000e+00  -7.3902541273164704e-09 -3.0599016374475477e-09 0.0000000000000000e+00  -7.4305617551274881e-09 -1.4661299478879436e-09 0.0000000000000000e+00  -7.4354560953494482e-09 7.1262918480426641e-11 0.0000000000000000e+00  -7.4181996213274117e-09 1.6024197422034350e-09 0.0000000000000000e+00  -7.3699617644536190e-09 3.1763955350132750e-09 0.0000000000000000e+00  -7.2601337703737139e-09 4.8298331987595184e-09 0.0000000000000000e+00  -7.0370152161279270e-09 6.5741676439248981e-09 0.0000000000000000e+00  -6.6315741705571713e-09 8.3809526829595902e-09 0.0000000000000000e+00  -5.9695040636416482e-09 1.0167911020577867e-08 0.0000000000000000e+00  -5.0014648215329172e-09 1.1793317294950655e-08 0.0000000000000000e+00  -3.7789959708330845e-09 1.3072940851927768e-08 0.0000000000000000e+00  -2.7005232788778710e-09 1.3848822938258047e-08 0.0000000000000000e+00  -3.3908052324160153e-09 1.4558891655100071e-08 0.0000000000000000e+00  -2.7474625016379184e-09 -1.1644767130227699e-08 0.0000000000000000e+00  -2.4631575758296271e-09 -1.2349407928497088e-08 0.0000000000000000e+00  -3.7483181559355283e-09 -1.1761878644189038e-08 0.0000000000000000e+00  -5.2573349396364274e-09 -1.0695971708071317e-08 0.0000000000000000e+00  -6.5742882132601898e-09 -9.3026154503669601e-09 0.0000000000000000e+00  -7.6017812284847508e-09 -7.7293264585657612e-09 0.0000000000000000e+00  -8.3458479206039079e-09 -6.0964814431269977e-09 0.0000000000000000e+00  -8.8496428217464808e-09 -4.4820738074321222e-09 0.0000000000000000e+00  -9.1638416006889316e-09 -2.9217765475124929e-09 0.0000000000000000e+00  -9.3315808065217293e-09 -1.4178130226783677e-09 0.0000000000000000e+00  -9.3813171980999363e-09 4.9404842125296597e-11 0.0000000000000000e+00  -9.3240881136936967e-09 1.5097647149745445e-09 0.0000000000000000e+00  -9.1530136699400716e-09 2.9926743720503020e-09 0.0000000000000000e+00  -8.8441812891754909e-09 4.5165936244120581e-09 0.0000000000000000e+00  -8.3593339074207956e-09 6.0785147768161187e-09 0.0000000000000000e+00  -7.6519943881445012e-09 7.6440430924226891e-09 0.0000000000000000e+00  -6.6799611873561119e-09 9.1406349120438506e-09 0.0000000000000000e+00  -5.4303190969392031e-09 1.0458974845167206e-08 0.0000000000000000e+00  -3.9796013060484036e-09 1.1470432043483981e-08 0.0000000000000000e+00  -2.7065617600680482e-09 1.2081478372591548e-08 0.0000000000000000e+00  -3.0581644562801036e-09 1.2843837941843830e-08 0.0000000000000000e+00  -2.5582781205445201e-09 -9.6659705295156679e-09 0.0000000000000000e+00  -2.5193230396498059e-09 -1.0416204224914112e-08 0.0000000000000000e+00  -3.9408146631534613e-09 -9.9743436554684762e-09 0.0000000000000000e+00  -5.5920478465147589e-09 -9.1462379277347052e-09 0.0000000000000000e+00  -7.0880086904673901e-09 -8.0398152929006151e-09 0.0000000000000000e+00  -8.3243792680422566e-09 -6.7584554978994878e-09 0.0000000000000000e+00  -9.2842793966952351e-09 -5.3921584674088229e-09 0.0000000000000000e+00  -9.9849887752759151e-09 -4.0056656581346593e-09 0.0000000000000000e+00  -1.0455369197587578e-08 -2.6351933190566115e-09 0.0000000000000000e+00  -1.0723331458621919e-08 -1.2921789522512962e-09 0.0000000000000000e+00  -1.0808666488340078e-08 2.9362518528426940e-11 0.0000000000000000e+00  -1.0719483190447062e-08 1.3441958700728934e-09 0.0000000000000000e+00  -1.0451195031646709e-08 2.6670403373080600e-09 0.0000000000000000e+00  -9.9875863272719979e-09 4.0039784257144963e-09 0.0000000000000000e+00  -9.3041360682361591e-09 5.3444938653157056e-09 0.0000000000000000e+00  -8.3743693122577741e-09 6.6551145938273218e-09 0.0000000000000000e+00  -7.1807217137847661e-09 7.8766123144856817e-09 0.0000000000000000e+00  -5.7343011373275470e-09 8.9276914667561868e-09 0.0000000000000000e+00  -4.1242618603478865e-09 9.7198351075117569e-09 0.0000000000000000e+00  -2.7096507277271598e-09 1.0200958339361047e-08 0.0000000000000000e+00  -2.8032378883331246e-09 1.0999903436209517e-08 0.0000000000000000e+00  -2.4190638922225961e-09 -7.6285539749220859e-09 0.0000000000000000e+00  -2.5632820677792448e-09 -8.4131364512690823e-09 0.0000000000000000e+00  -4.0841939134218915e-09 -8.0898832269722380e-09 0.0000000000000000e+00  -5.8342745109208836e-09 -7.4612600164350464e-09 0.0000000000000000e+00  -7.4529143229924709e-09 -6.6073693764974127e-09 0.0000000000000000e+00  -8.8338574377309113e-09 -5.6002353550649322e-09 0.0000000000000000e+00  -9.9460497486485113e-09 -4.5050939679988916e-09 0.0000000000000000e+00  -1.0788665848663706e-08 -3.3724364997417580e-09 0.0000000000000000e+00  -1.1373729368570194e-08 -2.2342828369277239e-09 0.0000000000000000e+00  -1.1716294802689237e-08 -1.1053761729638852e-09 0.0000000000000000e+00  -1.1828249515553102e-08 1.2406195034413870e-11 0.0000000000000000e+00  -1.1714850498955353e-08 1.1240088091330076e-09 0.0000000000000000e+00  -1.1373602755512492e-08 2.2345933794954405e-09 0.0000000000000000e+00  -1.0795283281287662e-08 3.3430773499000145e-09 0.0000000000000000e+00  -9.9671349603011052e-09 4.4364774835903190e-09 0.0000000000000000e+00  -8.8784720813701126e-09 5.4859853442826117e-09 0.0000000000000000e+00  -7.5294405711513406e-09 6.4461027275374439e-09 0.0000000000000000e+00  -5.9466356270953679e-09 7.2584864786542113e-09 0.0000000000000000e+00  -4.2254793305437123e-09 7.8636485313710305e-09 0.0000000000000000e+00  -2.7084578336715317e-09 8.2369464300114285e-09 0.0000000000000000e+00  -2.6073349502309007e-09 9.0609985124929720e-09 0.0000000000000000e+00  -2.3216337102997315e-09 -5.5502950634274457e-09 0.0000000000000000e+00  -2.5977033312693533e-09 -6.3604968756002704e-09 0.0000000000000000e+00  -4.1889954863630704e-09 -6.1386209725300188e-09 0.0000000000000000e+00  -6.0059251389335429e-09 -5.6845069063942262e-09 0.0000000000000000e+00  -7.7062325168985515e-09 -5.0594333217386961e-09 0.0000000000000000e+00  -9.1839024490635497e-09 -4.3125858811009221e-09 0.0000000000000000e+00  -1.0399325874434444e-08 -3.4892828671473989e-09 0.0000000000000000e+00  -1.1339578004518084e-08 -2.6264409050339203e-09 0.0000000000000000e+00  -1.2004610588580579e-08 -1.7495134743946810e-09 0.0000000000000000e+00  -1.2399693020605350e-08 -8.7258725047567201e-10 0.0000000000000000e+00  -1.2530392836744660e-08 -8.9332670848420717e-13 0.0000000000000000e+00  -1.2399577130220643e-08 8.6524365433383842e-10 0.0000000000000000e+00  -1.2006380684015354e-08 1.7258540149952826e-09 0.0000000000000000e+00  -1.1347101700190058e-08 2.5768432461135984e-09 0.0000000000000000e+00  -1.0417971505310038e-08 3.4062204243042431e-09 0.0000000000000000e+00  -9.2197750500406322e-09 4.1917600639525352e-09 0.0000000000000000e+00  -7.7647570296048990e-09 4.9009388945911974e-09 0.0000000000000000e+00  -6.0893278737724233e-09 5.4940758513768699e-09 0.0000000000000000e+00  -4.2920563517078006e-09 5.9331858297974302e-09 0.0000000000000000e+00  -2.7029181071111694e-09 6.2124869009763562e-09 0.0000000000000000e+00  -2.4589400866854769e-09 7.0526870795905400e-09 0.0000000000000000e+00  -2.2610340154979451e-09 -3.4459286277626098e-09 0.0000000000000000e+00  -2.6250081590703097e-09 -4.2747776653108704e-09 0.0000000000000000e+00  -4.2630126832998246e-09 -4.1433919296021102e-09 0.0000000000000000e+00  -6.1222557016103029e-09 -3.8478292595597298e-09 0.0000000000000000e+00  -7.8734660848451960e-09 -3.4358444754331852e-09 0.0000000000000000e+00  -9.4116834595065049e-09 -2.9392257860032780e-09 0.0000000000000000e+00  -1.0692414683795114e-08 -2.386953319971618