<?xml version="1.0"?>
<VTKFile type="UnstructuredGrid"  version="0.1"  >
<UnstructuredGrid>
<Piece  NumberOfPoints="651" NumberOfCells="1200">
<Points>
<DataArray  type="Float64"  NumberOfComponents="3"  format="ascii">0 0 0  50000 0 0  100000 0 0  150000 0 0  200000 0 0  250000 0 0  300000 0 0  350000 0 0  400000 0 0  450000 0 0  500000 0 0  550000 0 0  600000 0 0  650000 0 0  700000 0 0  750000 0 0  800000 0 0  850000 0 0  900000 0 0  950000 0 0  1000000 0 0  0 50000 0  50000 50000 0  100000 50000 0  150000 50000 0  200000 50000 0  250000 50000 0  300000 50000 0  350000 50000 0  400000 50000 0  450000 50000 0  500000 50000 0  550000 50000 0  600000 50000 0  650000 50000 0  700000 50000 0  750000 50000 0  800000 50000 0  850000 50000 0  900000 50000 0  950000 50000 0  1000000 50000 0  0 100000 0  50000 100000 0  100000 100000 0  150000 100000 0  200000 100000 0  250000 100000 0  300000 100000 0  350000 100000 0  400000 100000 0  450000 100000 0  500000 100000 0  550000 100000 0  600000 100000 0  650000 100000 0  700000 100000 0  750000 100000 0  800000 100000 0  850000 100000 0  900000 100000 0  950000 100000 0  1000000 100000 0  0 150000 0  50000 150000 0  100000 150000 0  150000 150000 0  200000 150000 0  250000 150000 0  300000 150000 0  350000 150000 0  400000 150000 0  450000 150000 0  500000 150000 0  550000 150000 0  600000 150000 0  650000 150000 0  700000 150000 0  750000 150000 0  800000 150000 0  850000 150000 0  900000 150000 0  950000 150000 0  1000000 150000 0  0 200000 0  50000 200000 0  100000 200000 0  150000 200000 0  200000 200000 0  250000 200000 0  300000 200000 0  350000 200000 0  400000 200000 0  450000 200000 0  500000 200000 0  550000 200000 0  600000 200000 0  650000 200000 0  700000 200000 0  750000 200000 0  800000 200000 0  850000 200000 0  900000 200000 0  950000 200000 0  1000000 200000 0  0 250000 0  50000 250000 0  100000 250000 0  150000 250000 0  200000 250000 0  250000 250000 0  300000 250000 0  350000 250000 0  400000 250000 0  450000 250000 0  500000 250000 0  550000 250000 0  600000 250000 0  650000 250000 0  700000 250000 0  750000 250000 0  800000 250000 0  850000 250000 0  900000 250000 0  950000 250000 0  1000000 250000 0  0 300000 0  50000 300000 0  100000 300000 0  150000 300000 0  200000 300000 0  250000 300000 0  300000 300000 0  350000 300000 0  400000 300000 0  450000 300000 0  500000 300000 0  550000 300000 0  600000 300000 0  650000 300000 0  700000 300000 0  750000 300000 0  800000 300000 0  850000 300000 0  900000 300000 0  950000 300000 0  1000000 300000 0  0 350000 0  50000 350000 0  100000 350000 0  150000 350000 0  200000 350000 0  250000 350000 0  300000 350000 0  350000 350000 0  400000 350000 0  450000 350000 0  500000 350000 0  550000 350000 0  600000 350000 0  650000 350000 0  700000 350000 0  750000 350000 0  800000 350000 0  850000 350000 0  900000 350000 0  950000 350000 0  1000000 350000 0  0 400000 0  50000 400000 0  100000 400000 0  150000 400000 0  200000 400000 0  250000 400000 0  300000 400000 0  350000 400000 0  400000 400000 0  450000 400000 0  500000 400000 0  550000 400000 0  600000 400000 0  650000 400000 0  700000 400000 0  750000 400000 0  800000 400000 0  850000 400000 0  900000 400000 0  950000 400000 0  1000000 400000 0  0 450000 0  50000 450000 0  100000 450000 0  150000 450000 0  200000 450000 0  250000 450000 0  300000 450000 0  350000 450000 0  400000 450000 0  450000 450000 0  500000 450000 0  550000 450000 0  600000 450000 0  650000 450000 0  700000 450000 0  750000 450000 0  800000 450000 0  850000 450000 0  900000 450000 0  950000 450000 0  1000000 450000 0  0 500000 0  50000 500000 0  100000 500000 0  150000 500000 0  200000 500000 0  250000 500000 0  300000 500000 0  350000 500000 0  400000 500000 0  450000 500000 0  500000 500000 0  550000 500000 0  600000 500000 0  650000 500000 0  700000 500000 0  750000 500000 0  800000 500000 0  850000 500000 0  900000 500000 0  950000 500000 0  1000000 500000 0  0 550000 0  50000 550000 0  100000 550000 0  150000 550000 0  200000 550000 0  250000 550000 0  300000 550000 0  350000 550000 0  400000 550000 0  450000 550000 0  500000 550000 0  550000 550000 0  600000 550000 0  650000 550000 0  700000 550000 0  750000 550000 0  800000 550000 0  850000 550000 0  900000 550000 0  950000 550000 0  1000000 550000 0  0 600000 0  50000 600000 0  100000 600000 0  150000 600000 0  200000 600000 0  250000 600000 0  300000 600000 0  350000 600000 0  400000 600000 0  450000 600000 0  500000 600000 0  550000 600000 0  600000 600000 0  650000 600000 0  700000 600000 0  750000 600000 0  800000 600000 0  850000 600000 0  900000 600000 0  950000 600000 0  1000000 600000 0  0 650000 0  50000 650000 0  100000 650000 0  150000 650000 0  200000 650000 0  250000 650000 0  300000 650000 0  350000 650000 0  400000 650000 0  450000 650000 0  500000 650000 0  550000 650000 0  600000 650000 0  650000 650000 0  700000 650000 0  750000 650000 0  800000 650000 0  850000 650000 0  900000 650000 0  950000 650000 0  1000000 650000 0  0 700000 0  50000 700000 0  100000 700000 0  150000 700000 0  200000 700000 0  250000 700000 0  300000 700000 0  350000 700000 0  400000 700000 0  450000 700000 0  500000 700000 0  550000 700000 0  600000 700000 0  650000 700000 0  700000 700000 0  750000 700000 0  800000 700000 0  850000 700000 0  900000 700000 0  950000 700000 0  1000000 700000 0  0 750000 0  50000 750000 0  100000 750000 0  150000 750000 0  200000 750000 0  250000 750000 0  300000 750000 0  350000 750000 0  400000 750000 0  450000 750000 0  500000 750000 0  550000 750000 0  600000 750000 0  650000 750000 0  700000 750000 0  750000 750000 0  800000 750000 0  850000 750000 0  900000 750000 0  950000 750000 0  1000000 750000 0  0 800000 0  50000 800000 0  100000 800000 0  150000 800000 0  200000 800000 0  250000 800000 0  300000 800000 0  350000 800000 0  400000 800000 0  450000 800000 0  500000 800000 0  550000 800000 0  600000 800000 0  650000 800000 0  700000 800000 0  750000 800000 0  800000 800000 0  850000 800000 0  900000 800000 0  950000 800000 0  1000000 800000 0  0 850000 0  50000 850000 0  100000 850000 0  150000 850000 0  200000 850000 0  250000 850000 0  300000 850000 0  350000 850000 0  400000 850000 0  450000 850000 0  500000 850000 0  550000 850000 0  600000 850000 0  650000 850000 0  700000 850000 0  750000 850000 0  800000 850000 0  850000 850000 0  900000 850000 0  950000 850000 0  1000000 850000 0  0 900000 0  50000 900000 0  100000 900000 0  150000 900000 0  200000 900000 0  250000 900000 0  300000 900000 0  350000 900000 0  400000 900000 0  450000 900000 0  500000 900000 0  550000 900000 0  600000 900000 0  650000 900000 0  700000 900000 0  750000 900000 0  800000 900000 0  850000 900000 0  900000 900000 0  950000 900000 0  1000000 900000 0  0 950000 0  50000 950000 0  100000 950000 0  150000 950000 0  200000 950000 0  250000 950000 0  300000 950000 0  350000 950000 0  400000 950000 0  450000 950000 0  500000 950000 0  550000 950000 0  600000 950000 0  650000 950000 0  700000 950000 0  750000 950000 0  800000 950000 0  850000 950000 0  900000 950000 0  950000 950000 0  1000000 950000 0  0 1000000 0  50000 1000000 0  100000 1000000 0  150000 1000000 0  200000 1000000 0  250000 1000000 0  300000 1000000 0  350000 1000000 0  400000 1000000 0  450000 1000000 0  500000 1000000 0  550000 1000000 0  600000 1000000 0  650000 1000000 0  700000 1000000 0  750000 1000000 0  800000 1000000 0  850000 1000000 0  900000 1000000 0  950000 1000000 0  1000000 1000000 0  0 1050000 0  50000 1050000 0  100000 1050000 0  150000 1050000 0  200000 1050000 0  250000 1050000 0  300000 1050000 0  350000 1050000 0  400000 1050000 0  450000 1050000 0  500000 1050000 0  550000 1050000 0  600000 1050000 0  650000 1050000 0  700000 1050000 0  750000 1050000 0  800000 1050000 0  850000 1050000 0  900000 1050000 0  950000 1050000 0  1000000 1050000 0  0 1100000 0  50000 1100000 0  100000 1100000 0  150000 1100000 0  200000 1100000 0  250000 1100000 0  300000 1100000 0  350000 1100000 0  400000 1100000 0  450000 1100000 0  500000 1100000 0  550000 1100000 0  600000 1100000 0  650000 1100000 0  700000 1100000 0  750000 1100000 0  800000 1100000 0  850000 1100000 0  900000 1100000 0  950000 1100000 0  1000000 1100000 0  0 1150000 0  50000 1150000 0  100000 1150000 0  150000 1150000 0  200000 1150000 0  250000 1150000 0  300000 1150000 0  350000 1150000 0  400000 1150000 0  450000 1150000 0  500000 1150000 0  550000 1150000 0  600000 1150000 0  650000 1150000 0  700000 1150000 0  750000 1150000 0  800000 1150000 0  850000 1150000 0  900000 1150000 0  950000 1150000 0  1000000 1150000 0  0 1200000 0  50000 1200000 0  100000 1200000 0  150000 1200000 0  200000 1200000 0  250000 1200000 0  300000 1200000 0  350000 1200000 0  400000 1200000 0  450000 1200000 0  500000 1200000 0  550000 1200000 0  600000 1200000 0  650000 1200000 0  700000 1200000 0  750000 1200000 0  800000 1200000 0  850000 1200000 0  900000 1200000 0  950000 1200000 0  1000000 1200000 0  0 1250000 0  50000 1250000 0  100000 1250000 0  150000 1250000 0  200000 1250000 0  250000 1250000 0  300000 1250000 0  350000 1250000 0  400000 1250000 0  450000 1250000 0  500000 1250000 0  550000 1250000 0  600000 1250000 0  650000 1250000 0  700000 1250000 0  750000 1250000 0  800000 1250000 0  850000 1250000 0  900000 1250000 0  950000 1250000 0  1000000 1250000 0  0 1300000 0  50000 1300000 0  100000 1300000 0  150000 1300000 0  200000 1300000 0  250000 1300000 0  300000 1300000 0  350000 1300000 0  400000 1300000 0  450000 1300000 0  500000 1300000 0  550000 1300000 0  600000 1300000 0  650000 1300000 0  700000 1300000 0  750000 1300000 0  800000 1300000 0  850000 1300000 0  900000 1300000 0  950000 1300000 0  1000000 1300000 0  0 1350000 0  50000 1350000 0  100000 1350000 0  150000 1350000 0  200000 1350000 0  250000 1350000 0  300000 1350000 0  350000 1350000 0  400000 1350000 0  450000 1350000 0  500000 1350000 0  550000 1350000 0  600000 1350000 0  650000 1350000 0  700000 135
[...]
<PointData  Vectors="f_19"> 
<DataArray  type="Float64"  Name="f_19"  NumberOfComponents="3" format="ascii">-2.4548891222937992e-08 -9.9758696265324858e-09 0.0000000000000000e+00  4.8529504275613548e-08 -6.0702001219494196e-09 0.0000000000000000e+00  4.2833257721806964e-08 -1.7941828713150758e-09 0.0000000000000000e+00  4.0408702941033208e-08 -4.5404498964725365e-10 0.0000000000000000e+00  3.9232053445558505e-08 -5.1299903125719047e-12 0.0000000000000000e+00  3.8470635860651821e-08 1.6990117990201638e-10 0.0000000000000000e+00  3.7927537878857380e-08 2.3804959525775509e-10 0.0000000000000000e+00  3.7545701573042086e-08 2.5665692890898547e-10 0.0000000000000000e+00  3.7307028571192929e-08 2.5042656406145878e-10 0.0000000000000000e+00  3.7206740993897131e-08 2.3286090858119358e-10 0.0000000000000000e+00  3.7245696043040494e-08 2.1356938182464623e-10 0.0000000000000000e+00  3.7428663452426594e-08 2.0154764880404807e-10 0.0000000000000000e+00  3.7765937912195892e-08 2.0764326811730519e-10 0.0000000000000000e+00  3.8279380067429524e-08 2.4803911922345531e-10 0.0000000000000000e+00  3.9018458597304460e-08 3.5151202078779349e-10 0.0000000000000000e+00  4.0102720566506860e-08 5.7750907148643715e-10 0.0000000000000000e+00  4.1834080990302318e-08 1.0647856535376714e-09 0.0000000000000000e+00  4.4960150527861756e-08 2.1580680229267458e-09 0.0000000000000000e+00  5.0811287418536323e-08 4.6749218509033453e-09 0.0000000000000000e+00  5.8058228760232455e-08 9.1829233845749632e-09 0.0000000000000000e+00  -1.6395140573851842e-08 7.0771280385593515e-09 0.0000000000000000e+00  -1.8324965986218648e-08 -1.5538244021450039e-08 0.0000000000000000e+00  7.1578192998947766e-09 -1.1177337379595891e-08 0.0000000000000000e+00  1.8005831754861345e-08 -5.2210190420124226e-09 0.0000000000000000e+00  2.3090258859221850e-08 -2.3751332699047031e-09 0.0000000000000000e+00  2.5713247696601599e-08 -1.1236811981726941e-09 0.0000000000000000e+00  2.7206207784015647e-08 -5.3409550030580098e-10 0.0000000000000000e+00  2.8081974523817276e-08 -2.3903049979587582e-10 0.0000000000000000e+00  2.8600652010026333e-08 -8.8546156155756040e-11 0.0000000000000000e+00  2.8905591936364707e-08 -1.3689621445962497e-11 0.0000000000000000e+00  2.9076797855272911e-08 2.2827656229715327e-11 0.0000000000000000e+00  2.9156090520390714e-08 4.5481334787442929e-11 0.0000000000000000e+00  2.9158633659865161e-08 7.4639008132307910e-11 0.0000000000000000e+00  2.9076935199347949e-08 1.3234076306157373e-10 0.0000000000000000e+00  2.8879313075787873e-08 2.4893098561110980e-10 0.0000000000000000e+00  2.8501812364767462e-08 4.7487640540091886e-10 0.0000000000000000e+00  2.7827532886759387e-08 9.0670655424410863e-10 0.0000000000000000e+00  2.6631341456698594e-08 1.7479275144366794e-09 0.0000000000000000e+00  2.4402565244623218e-08 3.4448125080657651e-09 0.0000000000000000e+00  1.9698379020968132e-08 6.8879428881195616e-09 0.0000000000000000e+00  8.2736941534837599e-09 1.3041728531274699e-08 0.0000000000000000e+00  -1.8364427233034697e-08 1.1006789686680187e-08 0.0000000000000000e+00  -1.1366653730347370e-08 -1.9157643476120526e-08 0.0000000000000000e+00  -3.1521926107087343e-10 -1.8345316663004013e-08 0.0000000000000000e+00  5.7511674681864452e-09 -1.1366202480268833e-08 0.0000000000000000e+00  1.0614611462493872e-08 -6.6172630600927823e-09 0.0000000000000000e+00  1.4433751865384927e-08 -3.8597902596889142e-09 0.0000000000000000e+00  1.7095672545039759e-08 -2.2867834831864259e-09 0.0000000000000000e+00  1.8882257899257788e-08 -1.3627632850979028e-09 0.0000000000000000e+00  2.0056589278021505e-08 -7.9831949035305919e-10 0.0000000000000000e+00  2.0797149306761659e-08 -4.3503753967338565e-10 0.0000000000000000e+00  2.1214069929876356e-08 -1.7887089756069305e-10 0.0000000000000000e+00  2.1367263567384589e-08 3.4195632283700675e-11 0.0000000000000000e+00  2.1277343971414051e-08 2.5698527835254002e-10 0.0000000000000000e+00  2.0929572410739927e-08 5.4427796359565984e-10 0.0000000000000000e+00  2.0271446419348496e-08 9.6646995228772169e-10 0.0000000000000000e+00  1.9203326206451229e-08 1.6296673984332428e-09 0.0000000000000000e+00  1.7560185998507928e-08 2.7099211621028551e-09 0.0000000000000000e+00  1.5083140885326643e-08 4.5080319033717238e-09 0.0000000000000000e+00  1.1391006850425754e-08 7.4981000645481730e-09 0.0000000000000000e+00  6.0190529412657457e-09 1.2147037182066577e-08 0.0000000000000000e+00  -1.2927158828334887e-09 1.7599890336369701e-08 0.0000000000000000e+00  -1.3203053649442711e-08 1.4748355897042421e-08 0.0000000000000000e+00  -7.6850218070769679e-09 -1.9797097358005688e-08 0.0000000000000000e+00  -1.5833731990029523e-09 -1.9736481740935672e-08 0.0000000000000000e+00  1.0829358324705850e-09 -1.5306646310255776e-08 0.0000000000000000e+00  3.8278524621216037e-09 -1.0491049636573144e-08 0.0000000000000000e+00  6.7090303783459241e-09 -6.9328269713079982e-09 0.0000000000000000e+00  9.2272713837527179e-09 -4.5252339270030258e-09 0.0000000000000000e+00  1.1176631037097071e-08 -2.9203052179927640e-09 0.0000000000000000e+00  1.2576655843733918e-08 -1.8305345822810655e-09 0.0000000000000000e+00  1.3509250984363369e-08 -1.0570383649532802e-09 0.0000000000000000e+00  1.4047932037551961e-08 -4.6264557641077891e-10 0.0000000000000000e+00  1.4239482163810032e-08 5.4838545254864236e-11 0.0000000000000000e+00  1.4100985714537184e-08 5.8264094132518741e-10 0.0000000000000000e+00  1.3619892506498504e-08 1.2089836668533889e-09 0.0000000000000000e+00  1.2754187987799043e-08 2.0385743795793257e-09 0.0000000000000000e+00  1.1433873555314457e-08 3.2101774959473657e-09 0.0000000000000000e+00  9.5699494013287774e-09 4.9146446519255562e-09 0.0000000000000000e+00  7.0877517119791740e-09 7.3955825564615600e-09 0.0000000000000000e+00  4.0187866114661031e-09 1.0862140460624376e-08 0.0000000000000000e+00  6.5749752655776120e-10 1.5122418861205240e-08 0.0000000000000000e+00  -2.6329793302035136e-09 1.8758534931277755e-08 0.0000000000000000e+00  -8.9097199445101107e-09 1.7582415408239928e-08 0.0000000000000000e+00  -5.8311826443628358e-09 -1.9221042907240831e-08 0.0000000000000000e+00  -1.9110588707574964e-09 -1.9453739385539797e-08 0.0000000000000000e+00  -9.3739168154400421e-10 -1.6684622707389996e-08 0.0000000000000000e+00  1.7645793628188816e-10 -1.2844463034581857e-08 0.0000000000000000e+00  1.7945241068062170e-09 -9.3264314533220463e-09 0.0000000000000000e+00  3.5565750194321276e-09 -6.5536664551961003e-09 0.0000000000000000e+00  5.1376841210018523e-09 -4.4798216837648158e-09 0.0000000000000000e+00  6.3902615671142563e-09 -2.9363968250171310e-09 0.0000000000000000e+00  7.2782352792544157e-09 -1.7550084656398571e-09 0.0000000000000000e+00  7.8095091082755706e-09 -7.9338526714712832e-10 0.0000000000000000e+00  7.9992185606649012e-09 6.8203333976854523e-11 0.0000000000000000e+00  7.8545181585424043e-09 9.3758616517440260e-10 0.0000000000000000e+00  7.3703101638444868e-09 1.9220315314804215e-09 0.0000000000000000e+00  6.5317984875092341e-09 3.1384990338396313e-09 0.0000000000000000e+00  5.3250930140512852e-09 4.7202193927362755e-09 0.0000000000000000e+00  3.7619004126541806e-09 6.8110168082951245e-09 0.0000000000000000e+00  1.9276592199525833e-09 9.5239982619243694e-09 0.0000000000000000e+00  5.0170723065600615e-11 1.2816784310414742e-08 0.0000000000000000e+00  -1.5045388399217957e-09 1.6237034035179438e-08 0.0000000000000000e+00  -2.7480400636546674e-09 1.8696292824813256e-08 0.0000000000000000e+00  -6.6339404897640875e-09 1.8559412001598351e-08 0.0000000000000000e+00  -4.7821171681977836e-09 -1.8104744909198241e-08 0.0000000000000000e+00  -2.0793588926068303e-09 -1.8521258708029157e-08 0.0000000000000000e+00  -1.9963425759108290e-09 -1.6681456835069317e-08 0.0000000000000000e+00  -1.9240794178163790e-09 -1.3786224275484031e-08 0.0000000000000000e+00  -1.3440863446271500e-09 -1.0716258186908627e-08 0.0000000000000000e+00  -4.1772929729164984e-10 -7.9761531602118025e-09 0.0000000000000000e+00  5.8881961407390656e-10 -5.7088952328362378e-09 0.0000000000000000e+00  1.4847635676446145e-09 -3.8778993080551942e-09 0.0000000000000000e+00  2.1685459516729834e-09 -2.3814645470616865e-09 0.0000000000000000e+00  2.5960610776318932e-09 -1.1038566561994657e-09 0.0000000000000000e+00  2.7517409254476480e-09 6.8304019746927148e-11 0.0000000000000000e+00  2.6319693514673131e-09 1.2441221463578182e-09 0.0000000000000000e+00  2.2392470921417093e-09 2.5310541966467859e-09 0.0000000000000000e+00  1.5852091321820876e-09 4.0366082228970236e-09 0.0000000000000000e+00  7.0265667669366513e-10 5.8636186825190081e-09 0.0000000000000000e+00  -3.3220259614597957e-10 8.0900360906503245e-09 0.0000000000000000e+00  -1.3703981092703355e-09 1.0718702188722113e-08 0.0000000000000000e+00  -2.1782433449057097e-09 1.3584076005986935e-08 0.0000000000000000e+00  -2.5355995102982688e-09 1.6240796144938571e-08 0.0000000000000000e+00  -2.7281272832502189e-09 1.7984497264329158e-08 0.0000000000000000e+00  -5.3083945934530850e-09 1.8306061677472127e-08 0.0000000000000000e+00  -4.1147863473891918e-09 -1.6689926433302360e-08 0.0000000000000000e+00  -2.2088722391135851e-09 -1.7234297454701821e-08 0.0000000000000000e+00  -2.6552132011807145e-09 -1.5946727306735902e-08 0.0000000000000000e+00  -3.2393621971914052e-09 -1.3757291309557216e-08 0.0000000000000000e+00  -3.4125537646001697e-09 -1.1208152973378880e-08 0.0000000000000000e+00  -3.1988721098380490e-09 -8.7098134299285873e-09 0.0000000000000000e+00  -2.7709286081469991e-09 -6.4646473365299928e-09 0.0000000000000000e+00  -2.2946018654458072e-09 -4.5201361419429255e-09 0.0000000000000000e+00  -1.8857739763220342e-09 -2.8384494215190930e-09 0.0000000000000000e+00  -1.6126687511081157e-09 -1.3429794901347898e-09 0.0000000000000000e+00  -1.5094235625556838e-09 5.7430685865040537e-11 0.0000000000000000e+00  -1.5870966464424426e-09 1.4575303802847582e-09 0.0000000000000000e+00  -1.8383103406041333e-09 2.9502015794794069e-09 0.0000000000000000e+00  -2.2351801487655220e-09 4.6206365030304337e-09 0.0000000000000000e+00  -2.7211742255686173e-09 6.5347231835508044e-09 0.0000000000000000e+00  -3.1993365837618767e-09 8.7156896294204209e-09 0.0000000000000000e+00  -3.5252653445628607e-09 1.1104317170495166e-08 0.0000000000000000e+00  -3.5288307155922304e-09 1.3507783251351987e-08 0.0000000000000000e+00  -3.1266867862042461e-09 1.5571045848594580e-08 0.0000000000000000e+00  -2.7140060303297515e-09 1.6854580315250730e-08 0.0000000000000000e+00  -4.4582070836868899e-09 1.7394335404697325e-08 0.0000000000000000e+00  -3.6533240950635966e-09 -1.5076497440657153e-08 0.0000000000000000e+00  -2.3163977804379673e-09 -1.5713636036117548e-08 0.0000000000000000e+00  -3.1128947249125975e-09 -1.4777846382629282e-08 0.0000000000000000e+00  -4.1241544017412282e-09 -1.3097834142828240e-08 0.0000000000000000e+00  -4.8244492236305698e-09 -1.1016944500489397e-08 0.0000000000000000e+00  -5.1615734714987515e-09 -8.8347964855856638e-09 0.0000000000000000e+00  -5.2294320997006910e-09 -6.7429411765407499e-09 0.0000000000000000e+00  -5.1484183805671147e-09 -4.8244926000885403e-09 0.0000000000000000e+00  -5.0196094164928308e-09 -3.0851755009826981e-09 0.0000000000000000e+00  -4.9126393066726425e-09 -1.4848078708257754e-09 0.0000000000000000e+00  -4.8671892191942544e-09 4.0126101782350990e-11 0.0000000000000000e+00  -4.8973326183770706e-09 1.5619745756080554e-09 0.0000000000000000e+00  -4.9939851783758156e-09 3.1516244672836085e-09 0.0000000000000000e+00  -5.1241437851132591e-09 4.8683125885781732e-09 0.0000000000000000e+00  -5.2277749532679118e-09 6.7458402461284126e-09 0.0000000000000000e+00  -5.2157177748887078e-09 8.7725776119565049e-09 0.0000000000000000e+00  -4.9763814787748906e-09 1.0866052894894641e-08 0.0000000000000000e+00  -4.4076294624722382e-09 1.2851266784753947e-08 0.0000000000000000e+00  -3.5131278587279908e-09 1.4466610148391879e-08 0.0000000000000000e+00  -2.7133086949625706e-09 1.5437471660604303e-08 0.0000000000000000e+00  -3.8750231570427662e-09 1.6098827157040069e-08 0.0000000000000000e+00  -3.3167107950471838e-09 -1.3318212258872317e-08 0.0000000000000000e+00  -2.4048974055856482e-09 -1.4024453896855790e-08 0.0000000000000000e+00  -3.4490663392836994e-09 -1.3327018273682450e-08 0.0000000000000000e+00  -4.7485889210482159e-09 -1.2022111435770968e-08 0.0000000000000000e+00  -5.8150790969947476e-09 -1.0335253712310875e-08 0.0000000000000000e+00  -6.5587732888725405e-09 -8.4779669314359413e-09 0.0000000000000000e+00  -7.0182734817302048e-09 -6.6078106777660919e-09 0.0000000000000000e+00  -7.2700825824443842e-09 -4.8133275432253188e-09 0.0000000000000000e+00  -7.3897993517741445e-09 -3.1233358715473064e-09 0.0000000000000000e+00  -7.4358660868852787e-09 -1.5246887539881910e-09 0.0000000000000000e+00  -7.4445256991436696e-09 2.0611168234567467e-11 0.0000000000000000e+00  -7.4293936200307340e-09 1.5614290111936607e-09 0.0000000000000000e+00  -7.3820127236484893e-09 3.1457790884780048e-09 0.0000000000000000e+00  -7.2721125513459999e-09 4.8094067001933543e-09 0.0000000000000000e+00  -7.0482616858615133e-09 6.5629085001287362e-09 0.0000000000000000e+00  -6.6416030133789855e-09 8.3769794631470635e-09 0.0000000000000000e+00  -5.9778994179918542e-09 1.0168364207402104e-08 0.0000000000000000e+00  -5.0078546150857247e-09 1.1794018766287270e-08 0.0000000000000000e+00  -3.7836847979967255e-09 1.3067276353733996e-08 0.0000000000000000e+00  -2.7187216572572749e-09 1.3815223885585852e-08 0.0000000000000000e+00  -3.4572285816883496e-09 1.4553921430126006e-08 0.0000000000000000e+00  -3.0634671761712748e-09 -1.1451063166374830e-08 0.0000000000000000e+00  -2.4762312347453918e-09 -1.2209490115742171e-08 0.0000000000000000e+00  -3.7015603548600735e-09 -1.1683250620654635e-08 0.0000000000000000e+00  -5.2006873377942545e-09 -1.0664921065130366e-08 0.0000000000000000e+00  -6.5215078598182326e-09 -9.3079553150838605e-09 0.0000000000000000e+00  -7.5576640992248948e-09 -7.7602417663130421e-09 0.0000000000000000e+00  -8.3117720613637506e-09 -6.1433453741718736e-09 0.0000000000000000e+00  -8.8251646707682089e-09 -4.5369103192288894e-09 0.0000000000000000e+00  -9.1475657147998998e-09 -2.9783497512363237e-09 0.0000000000000000e+00  -9.3217300839906561e-09 -1.4714929332094389e-09 0.0000000000000000e+00  -9.3760902744617231e-09 1.8581674775829661e-12 0.0000000000000000e+00  -9.3218622132722996e-09 1.4704109184603744e-09 0.0000000000000000e+00  -9.1524428640302070e-09 2.9625536012560305e-09 0.0000000000000000e+00  -8.8442264612880854e-09 4.4958222176447482e-09 0.0000000000000000e+00  -8.3592472592613400e-09 6.0663112320194719e-09 0.0000000000000000e+00  -7.6512736171177200e-09 7.6386800710590385e-09 0.0000000000000000e+00  -6.6782985178909699e-09 9.1392957611423172e-09 0.0000000000000000e+00  -5.4276809857263508e-09 1.0457390560081942e-08 0.0000000000000000e+00  -3.9772996822559148e-09 1.1461723016051703e-08 0.0000000000000000e+00  -2.7242442675061748e-09 1.2043214288265913e-08 0.0000000000000000e+00  -3.1501298270776243e-09 1.2834928254646861e-08 0.0000000000000000e+00  -2.8705153186728966e-09 -9.5022404620931003e-09 0.0000000000000000e+00  -2.5326715424880918e-09 -1.0300242363935479e-08 0.0000000000000000e+00  -3.8919352749615029e-09 -9.9042184417320501e-09 0.0000000000000000e+00  -5.5307827959818207e-09 -9.1146356099615100e-09 0.0000000000000000e+00  -7.0276973728828246e-09 -8.0391526729766007e-09 0.0000000000000000e+00  -8.2701579362727248e-09 -6.7807614544244730e-09 0.0000000000000000e+00  -9.2382143250583020e-09 -5.4298476540204658e-09 0.0000000000000000e+00  -9.9473809782415619e-09 -4.0520509231543340e-09 0.0000000000000000e+00  -1.0425451220492047e-08 -2.6847245016642477e-09 0.0000000000000000e+00  -1.0699770879646539e-08 -1.3404828181096082e-09 0.0000000000000000e+00  -1.0789927257831761e-08 -1.4453240509848573e-11 0.0000000000000000e+00  -1.0704068472179098e-08 1.3071124654575535e-09 0.0000000000000000e+00  -1.0437798223698050e-08 2.6379981216509372e-09 0.0000000000000000e+00  -9.9751747496403157e-09 3.9833914768124258e-09 0.0000000000000000e+00  -9.2919863223209133e-09 5.3318680013701985e-09 0.0000000000000000e+00  -8.3620706071604741e-09 6.6489694014962223e-09 0.0000000000000000e+00  -7.1681804347072400e-09 7.8743145238051737e-09 0.0000000000000000e+00  -5.7219274674440678e-09 8.9250751108236315e-09 0.0000000000000000e+00  -4.1144970073249127e-09 9.7100231446942937e-09 0.0000000000000000e+00  -2.7266153942030182e-09 1.0161289433303534e-08 0.0000000000000000e+00  -2.9219593285884963e-09 1.0990214604340601e-08 0.0000000000000000e+00  -2.7242872210561334e-09 -7.4933700673139699e-09 0.0000000000000000e+00  -2.5768311063281021e-09 -8.3212750954999709e-09 0.0000000000000000e+00  -4.0344991924439527e-09 -8.0300462361776950e-09 0.0000000000000000e+00  -5.7706786695278559e-09 -7.4316152896738831e-09 0.0000000000000000e+00  -7.3880846399410017e-09 -6.6032484752616817e-09 0.0000000000000000e+00  -8.7729121416299574e-09 -5.6160617147129907e-09 0.0000000000000000e+00  -9.8913787769361240e-09 -4.5351362944477431e-09 0.0000000000000000e+00  -1.0741030301627719e-08 -3.4113060661607081e-09 0.0000000000000000e+00  -1.1332816345752503e-08 -2.2772312411380170e-09 0.0000000000000000e+00  -1.1681143758799886e-08 -1.1484352377043744e-09 0.0000000000000000e+00  -1.1797589873912084e-08 -2.7615853024766373e-11 0.0000000000000000e+00  -1.1687356373912802e-08 1.0893563514286750e-09 0.0000000000000000e+00  -1.1348075620998275e-08 2.2068380879736099e-09 0.0000000000000000e+00  -1.0770776421533817e-08 3.3229288847023024e-09 0.0000000000000000e+00  -9.9430330311622485e-09 4.4237737059836817e-09 0.0000000000000000e+00  -8.8545404960341964e-09 5.4795835987766674e-09 0.0000000000000000e+00  -7.5058837197385201e-09 6.4436907496745213e-09 0.0000000000000000e+00  -5.9243891521808333e-09 7.2561910492799412e-09 0.0000000000000000e+00  -4.2081991926376659e-09 7.8548611792979062e-09 0.0000000000000000e+00  -2.7246409861965668e-09 8.1994288760048856e-09 0.0000000000000000e+00  -2.7532918297402552e-09 9.0540676176520421e-09 0.0000000000000000e+00  -2.6165866780156835e-09 -5.4420010303054206e-09 0.0000000000000000e+00  -2.6113813065095265e-09 -6.2922103978198930e-09 0.0000000000000000e+00  -4.1396573077177317e-09 -6.0900036817839648e-09 0.0000000000000000e+00  -5.9419888668910340e-09 -5.6585356299891829e-09 0.0000000000000000e+00  -7.6395269498938957e-09 -5.0538548967737882e-09 0.0000000000000000e+00  -9.1192949782955204e-09 -4.3238436909687273e-09 0.0000000000000000e+00  -1.0339267919870435e-08 -3.5132844104610412e-09 0.0000000000000000e+00  -1.1285057982811989e-08 -2.6590234930415322e-09 0.0000000000000000e+00  -1.1955599976235678e-08 -1.7867548408037957e-09 0.0000000000000000e+00  -1.2355501633301360e-08 -9.1099610794754239e-10 0.0000000000000000e+00  -1.2489972394977458e-08 -3.7515541659801276e-11 0.0000000000000000e+00  -1.2361771891322604e-08 8.3276546493550315e-10 0.0000000000000000e+00  -1.1970126889043825e-08 1.6992341344835043e-09 0.0000000000000000e+00  -1.1311581797265480e-08 2.5570937216484696e-09 0.0000000000000000e+00  -1.0382730913710151e-08 3.3935600786084597e-09 0.0000000000000000e+00  -9.1848133489650813e-09 4.1854763353527824e-09 0.0000000000000000e+00  -7.7306366463080967e-09 4.8991773444941998e-09 0.0000000000000000e+00  -6.0575681274198098e-09 5.4934422978181518e-09 0.0000000000000000e+00  -4.2675765158158873e-09 5.9276010058325105e-09 0.0000000000000000e+00  -2.7183662166073780e-09 6.1807882597623496e-09 0.0000000000000000e+00  -2.6318576252641900e-09 7.0522337612073751e-09 0.0000000000000000e+00  -2.5424963654223916e-09 -3.3625854542479512e-09 0.0000000000000000e+00  -2.6387794363668303e-09 -4.2289436272976174e-09 0.0000000000000000e+00  -4.2151540860743593e-09 -4.1062237697998566e-09 0.0000000000000000e+00  -6.0597989889393650e-09 -3.8265724205572633e-09 0.0000000000000000e+00  -7.8072788746297151e-09 -3.4302867556024256e-09 0.0000000000000000e+00  -9.3462282779856284e-09 -2.9475231503437067e-09 0.0000000000000000e+00  -1.0630019438020766e-08 -2.4064415325567233e-0