<?xml version="1.0"?>
<VTKFile type="UnstructuredGrid"  version="0.1"  >
<UnstructuredGrid>
<Piece  NumberOfPoints="651" NumberOfCells="1200">
<Points>
<DataArray  type="Float64"  NumberOfComponents="3"  format="ascii">0 0 0  50000 0 0  100000 0 0  150000 0 0  200000 0 0  250000 0 0  300000 0 0  350000 0 0  400000 0 0  450000 0 0  500000 0 0  550000 0 0  600000 0 0  650000 0 0  700000 0 0  750000 0 0  800000 0 0  850000 0 0  900000 0 0  950000 0 0  1000000 0 0  0 50000 0  50000 50000 0  100000 50000 0  150000 50000 0  200000 50000 0  250000 50000 0  300000 50000 0  350000 50000 0  400000 50000 0  450000 50000 0  500000 50000 0  550000 50000 0  600000 50000 0  650000 50000 0  700000 50000 0  750000 50000 0  800000 50000 0  850000 50000 0  900000 50000 0  950000 50000 0  1000000 50000 0  0 100000 0  50000 100000 0  100000 100000 0  150000 100000 0  200000 100000 0  250000 100000 0  300000 100000 0  350000 100000 0  400000 100000 0  450000 100000 0  500000 100000 0  550000 100000 0  600000 100000 0  650000 100000 0  700000 100000 0  750000 100000 0  800000 100000 0  850000 100000 0  900000 100000 0  950000 100000 0  1000000 100000 0  0 150000 0  50000 150000 0  100000 150000 0  150000 150000 0  200000 150000 0  250000 150000 0  300000 150000 0  350000 150000 0  400000 150000 0  450000 150000 0  500000 150000 0  550000 150000 0  600000 150000 0  650000 150000 0  700000 150000 0  750000 150000 0  800000 150000 0  850000 150000 0  900000 150000 0  950000 150000 0  1000000 150000 0  0 200000 0  50000 200000 0  100000 200000 0  150000 200000 0  200000 200000 0  250000 200000 0  300000 200000 0  350000 200000 0  400000 200000 0  450000 200000 0  500000 200000 0  550000 200000 0  600000 200000 0  650000 200000 0  700000 200000 0  750000 200000 0  800000 200000 0  850000 200000 0  900000 200000 0  950000 200000 0  1000000 200000 0  0 250000 0  50000 250000 0  100000 250000 0  150000 250000 0  200000 250000 0  250000 250000 0  300000 250000 0  350000 250000 0  400000 250000 0  450000 250000 0  500000 250000 0  550000 250000 0  600000 250000 0  650000 250000 0  700000 250000 0  750000 250000 0  800000 250000 0  850000 250000 0  900000 250000 0  950000 250000 0  1000000 250000 0  0 300000 0  50000 300000 0  100000 300000 0  150000 300000 0  200000 300000 0  250000 300000 0  300000 300000 0  350000 300000 0  400000 300000 0  450000 300000 0  500000 300000 0  550000 300000 0  600000 300000 0  650000 300000 0  700000 300000 0  750000 300000 0  800000 300000 0  850000 300000 0  900000 300000 0  950000 300000 0  1000000 300000 0  0 350000 0  50000 350000 0  100000 350000 0  150000 350000 0  200000 350000 0  250000 350000 0  300000 350000 0  350000 350000 0  400000 350000 0  450000 350000 0  500000 350000 0  550000 350000 0  600000 350000 0  650000 350000 0  700000 350000 0  750000 350000 0  800000 350000 0  850000 350000 0  900000 350000 0  950000 350000 0  1000000 350000 0  0 400000 0  50000 400000 0  100000 400000 0  150000 400000 0  200000 400000 0  250000 400000 0  300000 400000 0  350000 400000 0  400000 400000 0  450000 400000 0  500000 400000 0  550000 400000 0  600000 400000 0  650000 400000 0  700000 400000 0  750000 400000 0  800000 400000 0  850000 400000 0  900000 400000 0  950000 400000 0  1000000 400000 0  0 450000 0  50000 450000 0  100000 450000 0  150000 450000 0  200000 450000 0  250000 450000 0  300000 450000 0  350000 450000 0  400000 450000 0  450000 450000 0  500000 450000 0  550000 450000 0  600000 450000 0  650000 450000 0  700000 450000 0  750000 450000 0  800000 450000 0  850000 450000 0  900000 450000 0  950000 450000 0  1000000 450000 0  0 500000 0  50000 500000 0  100000 500000 0  150000 500000 0  200000 500000 0  250000 500000 0  300000 500000 0  350000 500000 0  400000 500000 0  450000 500000 0  500000 500000 0  550000 500000 0  600000 500000 0  650000 500000 0  700000 500000 0  750000 500000 0  800000 500000 0  850000 500000 0  900000 500000 0  950000 500000 0  1000000 500000 0  0 550000 0  50000 550000 0  100000 550000 0  150000 550000 0  200000 550000 0  250000 550000 0  300000 550000 0  350000 550000 0  400000 550000 0  450000 550000 0  500000 550000 0  550000 550000 0  600000 550000 0  650000 550000 0  700000 550000 0  750000 550000 0  800000 550000 0  850000 550000 0  900000 550000 0  950000 550000 0  1000000 550000 0  0 600000 0  50000 600000 0  100000 600000 0  150000 600000 0  200000 600000 0  250000 600000 0  300000 600000 0  350000 600000 0  400000 600000 0  450000 600000 0  500000 600000 0  550000 600000 0  600000 600000 0  650000 600000 0  700000 600000 0  750000 600000 0  800000 600000 0  850000 600000 0  900000 600000 0  950000 600000 0  1000000 600000 0  0 650000 0  50000 650000 0  100000 650000 0  150000 650000 0  200000 650000 0  250000 650000 0  300000 650000 0  350000 650000 0  400000 650000 0  450000 650000 0  500000 650000 0  550000 650000 0  600000 650000 0  650000 650000 0  700000 650000 0  750000 650000 0  800000 650000 0  850000 650000 0  900000 650000 0  950000 650000 0  1000000 650000 0  0 700000 0  50000 700000 0  100000 700000 0  150000 700000 0  200000 700000 0  250000 700000 0  300000 700000 0  350000 700000 0  400000 700000 0  450000 700000 0  500000 700000 0  550000 700000 0  600000 700000 0  650000 700000 0  700000 700000 0  750000 700000 0  800000 700000 0  850000 700000 0  900000 700000 0  950000 700000 0  1000000 700000 0  0 750000 0  50000 750000 0  100000 750000 0  150000 750000 0  200000 750000 0  250000 750000 0  300000 750000 0  350000 750000 0  400000 750000 0  450000 750000 0  500000 750000 0  550000 750000 0  600000 750000 0  650000 750000 0  700000 750000 0  750000 750000 0  800000 750000 0  850000 750000 0  900000 750000 0  950000 750000 0  1000000 750000 0  0 800000 0  50000 800000 0  100000 800000 0  150000 800000 0  200000 800000 0  250000 800000 0  300000 800000 0  350000 800000 0  400000 800000 0  450000 800000 0  500000 800000 0  550000 800000 0  600000 800000 0  650000 800000 0  700000 800000 0  750000 800000 0  800000 800000 0  850000 800000 0  900000 800000 0  950000 800000 0  1000000 800000 0  0 850000 0  50000 850000 0  100000 850000 0  150000 850000 0  200000 850000 0  250000 850000 0  300000 850000 0  350000 850000 0  400000 850000 0  450000 850000 0  500000 850000 0  550000 850000 0  600000 850000 0  650000 850000 0  700000 850000 0  750000 850000 0  800000 850000 0  850000 850000 0  900000 850000 0  950000 850000 0  1000000 850000 0  0 900000 0  50000 900000 0  100000 900000 0  150000 900000 0  200000 900000 0  250000 900000 0  300000 900000 0  350000 900000 0  400000 900000 0  450000 900000 0  500000 900000 0  550000 900000 0  600000 900000 0  650000 900000 0  700000 900000 0  750000 900000 0  800000 900000 0  850000 900000 0  900000 900000 0  950000 900000 0  1000000 900000 0  0 950000 0  50000 950000 0  100000 950000 0  150000 950000 0  200000 950000 0  250000 950000 0  300000 950000 0  350000 950000 0  400000 950000 0  450000 950000 0  500000 950000 0  550000 950000 0  600000 950000 0  650000 950000 0  700000 950000 0  750000 950000 0  800000 950000 0  850000 950000 0  900000 950000 0  950000 950000 0  1000000 950000 0  0 1000000 0  50000 1000000 0  100000 1000000 0  150000 1000000 0  200000 1000000 0  250000 1000000 0  300000 1000000 0  350000 1000000 0  400000 1000000 0  450000 1000000 0  500000 1000000 0  550000 1000000 0  600000 1000000 0  650000 1000000 0  700000 1000000 0  750000 1000000 0  800000 1000000 0  850000 1000000 0  900000 1000000 0  950000 1000000 0  1000000 1000000 0  0 1050000 0  50000 1050000 0  100000 1050000 0  150000 1050000 0  200000 1050000 0  250000 1050000 0  300000 1050000 0  350000 1050000 0  400000 1050000 0  450000 1050000 0  500000 1050000 0  550000 1050000 0  600000 1050000 0  650000 1050000 0  700000 1050000 0  750000 1050000 0  800000 1050000 0  850000 1050000 0  900000 1050000 0  950000 1050000 0  1000000 1050000 0  0 1100000 0  50000 1100000 0  100000 1100000 0  150000 1100000 0  200000 1100000 0  250000 1100000 0  300000 1100000 0  350000 1100000 0  400000 1100000 0  450000 1100000 0  500000 1100000 0  550000 1100000 0  600000 1100000 0  650000 1100000 0  700000 1100000 0  750000 1100000 0  800000 1100000 0  850000 1100000 0  900000 1100000 0  950000 1100000 0  1000000 1100000 0  0 1150000 0  50000 1150000 0  100000 1150000 0  150000 1150000 0  200000 1150000 0  250000 1150000 0  300000 1150000 0  350000 1150000 0  400000 1150000 0  450000 1150000 0  500000 1150000 0  550000 1150000 0  600000 1150000 0  650000 1150000 0  700000 1150000 0  750000 1150000 0  800000 1150000 0  850000 1150000 0  900000 1150000 0  950000 1150000 0  1000000 1150000 0  0 1200000 0  50000 1200000 0  100000 1200000 0  150000 1200000 0  200000 1200000 0  250000 1200000 0  300000 1200000 0  350000 1200000 0  400000 1200000 0  450000 1200000 0  500000 1200000 0  550000 1200000 0  600000 1200000 0  650000 1200000 0  700000 1200000 0  750000 1200000 0  800000 1200000 0  850000 1200000 0  900000 1200000 0  950000 1200000 0  1000000 1200000 0  0 1250000 0  50000 1250000 0  100000 1250000 0  150000 1250000 0  200000 1250000 0  250000 1250000 0  300000 1250000 0  350000 1250000 0  400000 1250000 0  450000 1250000 0  500000 1250000 0  550000 1250000 0  600000 1250000 0  650000 1250000 0  700000 1250000 0  750000 1250000 0  800000 1250000 0  850000 1250000 0  900000 1250000 0  950000 1250000 0  1000000 1250000 0  0 1300000 0  50000 1300000 0  100000 1300000 0  150000 1300000 0  200000 1300000 0  250000 1300000 0  300000 1300000 0  350000 1300000 0  400000 1300000 0  450000 1300000 0  500000 1300000 0  550000 1300000 0  600000 1300000 0  650000 1300000 0  700000 1300000 0  750000 1300000 0  800000 1300000 0  850000 1300000 0  900000 1300000 0  950000 1300000 0  1000000 1300000 0  0 1350000 0  50000 1350000 0  100000 1350000 0  150000 1350000 0  200000 1350000 0  250000 1350000 0  300000 1350000 0  350000 1350000 0  400000 1350000 0  450000 1350000 0  500000 1350000 0  550000 1350000 0  600000 1350000 0  650000 1350000 0  700000 135
[...]
<PointData  Vectors="f_19"> 
<DataArray  type="Float64"  Name="f_19"  NumberOfComponents="3" format="ascii">-2.4107134001189163e-08 -9.8467559126321584e-09 0.0000000000000000e+00  4.8938783866995316e-08 -6.0250030676608358e-09 0.0000000000000000e+00  4.3126297382913152e-08 -1.8402261042906247e-09 0.0000000000000000e+00  4.0590498593596978e-08 -5.2610902896331530e-10 0.0000000000000000e+00  3.9295793760808745e-08 -6.8856158656364870e-11 0.0000000000000000e+00  3.8418954226793058e-08 1.3545034167677947e-10 0.0000000000000000e+00  3.7766566591048934e-08 2.4833030853549244e-10 0.0000000000000000e+00  3.7282500630024254e-08 3.2420429743391255e-10 0.0000000000000000e+00  3.6949296339174621e-08 3.8640613690554678e-10 0.0000000000000000e+00  3.6763163063848952e-08 4.4788855744481452e-10 0.0000000000000000e+00  3.6726705748168728e-08 5.1789759319837703e-10 0.0000000000000000e+00  3.6847630518512967e-08 6.0455851162893081e-10 0.0000000000000000e+00  3.7140828853531013e-08 7.1629660625371440e-10 0.0000000000000000e+00  3.7634785207996140e-08 8.6359211422244942e-10 0.0000000000000000e+00  3.8387383465292309e-08 1.0635808958607062e-09 0.0000000000000000e+00  3.9526438084453447e-08 1.3549016721234079e-09 0.0000000000000000e+00  4.1356464142736260e-08 1.8448051689546219e-09 0.0000000000000000e+00  4.4610921022410466e-08 2.8421614982809165e-09 0.0000000000000000e+00  5.0574911034080605e-08 5.1543401779014029e-09 0.0000000000000000e+00  5.7837050495204882e-08 9.4562323797615805e-09 0.0000000000000000e+00  -1.6679684018545776e-08 7.3858682754252094e-09 0.0000000000000000e+00  -1.7975839401645242e-08 -1.5246405161786542e-08 0.0000000000000000e+00  7.0850890598834804e-09 -1.1084689876707228e-08 0.0000000000000000e+00  1.7811268238525046e-08 -5.1698075364289622e-09 0.0000000000000000e+00  2.2934753639172737e-08 -2.2965092026238042e-09 0.0000000000000000e+00  2.5560065806587954e-08 -1.0295689066898754e-09 0.0000000000000000e+00  2.7025421652893020e-08 -4.3206071987333544e-10 0.0000000000000000e+00  2.7862718264128784e-08 -1.3319097379538376e-10 0.0000000000000000e+00  2.8341079795427916e-08 1.9652166605996770e-11 0.0000000000000000e+00  2.8609331077947513e-08 9.6403105313401726e-11 0.0000000000000000e+00  2.8751554039569715e-08 1.3421337551567704e-10 0.0000000000000000e+00  2.8813160027966781e-08 1.5666663270119235e-10 0.0000000000000000e+00  2.8812966057365985e-08 1.8251410759919904e-10 0.0000000000000000e+00  2.8747327104755613e-08 2.3140250250458121e-10 0.0000000000000000e+00  2.8588085414500673e-08 3.3067983622636715e-10 0.0000000000000000e+00  2.8272803912028817e-08 5.2819795840494743e-10 0.0000000000000000e+00  2.7680460361594019e-08 9.2111330086171701e-10 0.0000000000000000e+00  2.6570131034101203e-08 1.7227760283858493e-09 0.0000000000000000e+00  2.4397211211791097e-08 3.4066072378182985e-09 0.0000000000000000e+00  1.9670102795214578e-08 6.9075962715721326e-09 0.0000000000000000e+00  8.0809603083429820e-09 1.3191684221601574e-08 0.0000000000000000e+00  -1.8645101108248318e-08 1.1221403679857439e-08 0.0000000000000000e+00  -1.1162015764092572e-08 -1.8707109141915538e-08 0.0000000000000000e+00  -4.3672772069283038e-10 -1.8296983101378332e-08 0.0000000000000000e+00  5.4367362222939878e-09 -1.1377289672950840e-08 0.0000000000000000e+00  1.0278004618502683e-08 -6.5724363914864811e-09 0.0000000000000000e+00  1.4122349216807846e-08 -3.7737063928990493e-09 0.0000000000000000e+00  1.6810963637329231e-08 -2.1789074230168790e-09 0.0000000000000000e+00  1.8616517053032940e-08 -1.2480522626860546e-09 0.0000000000000000e+00  1.9805497596582378e-08 -6.8692677850816234e-10 0.0000000000000000e+00  2.0560953682195984e-08 -3.3424919366044913e-10 0.0000000000000000e+00  2.0996840527284910e-08 -9.4964417164648567e-11 0.0000000000000000e+00  2.1176083403633888e-08 9.4671477207801471e-11 0.0000000000000000e+00  2.1121449075029181e-08 2.8642649336841981e-10 0.0000000000000000e+00  2.0819136114977589e-08 5.3383390882520227e-10 0.0000000000000000e+00  2.0215534993780794e-08 9.0695913181350818e-10 0.0000000000000000e+00  1.9206552230371035e-08 1.5146703547756992e-09 0.0000000000000000e+00  1.7618088245633706e-08 2.5425482494562209e-09 0.0000000000000000e+00  1.5177988772838183e-08 4.3119825468683912e-09 0.0000000000000000e+00  1.1492984911414652e-08 7.3279100879967364e-09 0.0000000000000000e+00  6.0979536650308374e-09 1.2074759379105069e-08 0.0000000000000000e+00  -1.3282441289540400e-09 1.7580028623309508e-08 0.0000000000000000e+00  -1.3708923262030133e-08 1.4924859659019619e-08 0.0000000000000000e+00  -7.5699387980776418e-09 -1.9265453158330336e-08 0.0000000000000000e+00  -1.6534876670784095e-09 -1.9535102164262173e-08 0.0000000000000000e+00  8.4808483929786044e-10 -1.5274161348346611e-08 0.0000000000000000e+00  3.5173623776685706e-09 -1.0458431367058050e-08 0.0000000000000000e+00  6.3894752710981286e-09 -6.8730143657920121e-09 0.0000000000000000e+00  8.9305449580728977e-09 -4.4456452292773398e-09 0.0000000000000000e+00  1.0914993994611163e-08 -2.8339673154454934e-09 0.0000000000000000e+00  1.2355093811750212e-08 -1.7493205323172822e-09 0.0000000000000000e+00  1.3331352571120199e-08 -9.9085447831694062e-10 0.0000000000000000e+00  1.3917869200536422e-08 -4.2014962528031980e-10 0.0000000000000000e+00  1.4162182741053047e-08 6.5451420305031158e-11 0.0000000000000000e+00  1.4081432649991465e-08 5.5331359341817984e-10 0.0000000000000000e+00  1.3661766331929579e-08 1.1322966017688898e-09 0.0000000000000000e+00  1.2857881628448254e-08 1.9095779789762875e-09 0.0000000000000000e+00  1.1594136311491527e-08 3.0301897092590968e-09 0.0000000000000000e+00  9.7741405555437542e-09 4.6972528013177129e-09 0.0000000000000000e+00  7.3168098193227092e-09 7.1731395034610707e-09 0.0000000000000000e+00  4.2527126359695265e-09 1.0685897137432264e-08 0.0000000000000000e+00  8.7489764944291012e-10 1.5040610608155571e-08 0.0000000000000000e+00  -2.5785442680092913e-09 1.8717996571410992e-08 0.0000000000000000e+00  -9.6621453967375756e-09 1.7842601126592388e-08 0.0000000000000000e+00  -5.7634908591930580e-09 -1.8635127873971853e-08 0.0000000000000000e+00  -1.9583283690682594e-09 -1.9120849316898353e-08 0.0000000000000000e+00  -1.1056322925571572e-09 -1.6563225590273200e-08 0.0000000000000000e+00  -6.6774965781893918e-11 -1.2785018830741768e-08 0.0000000000000000e+00  1.5237459156137340e-09 -9.2787818141585509e-09 0.0000000000000000e+00  3.2961104232878141e-09 -6.5062153529619175e-09 0.0000000000000000e+00  4.9110333091180317e-09 -4.4358805160571919e-09 0.0000000000000000e+00  6.2111004270696873e-09 -2.9038429915929076e-09 0.0000000000000000e+00  7.1549491427520678e-09 -1.7424403548839030e-09 0.0000000000000000e+00  7.7477524664335218e-09 -8.0901927384679374e-10 0.0000000000000000e+00  8.0028482101871960e-09 1.6827049524904261e-11 0.0000000000000000e+00  7.9254327473883406e-09 8.4401559803419193e-10 0.0000000000000000e+00  7.5075882074739916e-09 1.7819690600796703e-09 0.0000000000000000e+00  6.7304868385268926e-09 2.9519174819403083e-09 0.0000000000000000e+00  5.5751929025595125e-09 4.4947047863607000e-09 0.0000000000000000e+00  4.0484567687590080e-09 6.5658510248891164e-09 0.0000000000000000e+00  2.2328302607031907e-09 9.2930271475378974e-09 0.0000000000000000e+00  3.5549922668034713e-10 1.2646050433852834e-08 0.0000000000000000e+00  -1.2315493565512462e-09 1.6172216674004157e-08 0.0000000000000000e+00  -2.6869476124767252e-09 1.8730374773930162e-08 0.0000000000000000e+00  -7.5335445526479104e-09 1.8962514624903417e-08 0.0000000000000000e+00  -4.7415352884920138e-09 -1.7478538546206614e-08 0.0000000000000000e+00  -2.1134111160013312e-09 -1.8104349066700129e-08 0.0000000000000000e+00  -2.1174038023416475e-09 -1.6476493025592058e-08 0.0000000000000000e+00  -2.1053478501854586e-09 -1.3684737182684615e-08 0.0000000000000000e+00  -1.5546878001804623e-09 -1.0665777625221292e-08 0.0000000000000000e+00  -6.2511391507109069e-10 -7.9536617435886721e-09 0.0000000000000000e+00  4.1014201555640973e-10 -5.7077876185123781e-09 0.0000000000000000e+00  1.3524130950309187e-09 -3.8994532610194052e-09 0.0000000000000000e+00  2.0939453101967488e-09 -2.4301839717152538e-09 0.0000000000000000e+00  2.5861133977195054e-09 -1.1851258334639136e-09 0.0000000000000000e+00  2.8097635977636907e-09 -5.0481836767555065e-11 0.0000000000000000e+00  2.7578853657893514e-09 1.0843791560476195e-09 0.0000000000000000e+00  2.4292748013763832e-09 2.3298906439070450e-09 0.0000000000000000e+00  1.8314026247561096e-09 3.7986082523512318e-09 0.0000000000000000e+00  9.9276131062063303e-10 5.6010707316497279e-09 0.0000000000000000e+00  -1.4111575097911753e-11 7.8256423613013744e-09 0.0000000000000000e+00  -1.0426197687116034e-09 1.0487218001644997e-08 0.0000000000000000e+00  -1.8623268331265910e-09 1.3431712857257809e-08 0.0000000000000000e+00  -2.2733985159968103e-09 1.6222234045497756e-08 0.0000000000000000e+00  -2.6981967050943372e-09 1.8137700779726959e-08 0.0000000000000000e+00  -6.2511893612472815e-09 1.8855927349348049e-08 0.0000000000000000e+00  -4.0916251833543161e-09 -1.6031078744946040e-08 0.0000000000000000e+00  -2.2351526687484325e-09 -1.6759953335522404e-08 0.0000000000000000e+00  -2.7439754470514635e-09 -1.5678799027625119e-08 0.0000000000000000e+00  -3.3722965220139758e-09 -1.3616599848805723e-08 0.0000000000000000e+00  -3.5691695119750696e-09 -1.1149159996893342e-08 0.0000000000000000e+00  -3.3538678192962342e-09 -8.7057019798927940e-09 0.0000000000000000e+00  -2.9014187697683020e-09 -6.5020269519406985e-09 0.0000000000000000e+00  -2.3829390542846543e-09 -4.5939325615173598e-09 0.0000000000000000e+00  -1.9198274337812067e-09 -2.9480252429731209e-09 0.0000000000000000e+00  -1.5852579267892267e-09 -1.4895152863161530e-09 0.0000000000000000e+00  -1.4177662469336731e-09 -1.2723411930285320e-10 0.0000000000000000e+00  -1.4325397697293408e-09 1.2351344220703893e-09 0.0000000000000000e+00  -1.6262946719106744e-09 2.6936970155625878e-09 0.0000000000000000e+00  -1.9752290486780563e-09 4.3388127670155840e-09 0.0000000000000000e+00  -2.4266442424072412e-09 6.2437080944082962e-09 0.0000000000000000e+00  -2.8867975242799703e-09 8.4410526192931915e-09 0.0000000000000000e+00  -3.2139488326634153e-09 1.0882756602420745e-08 0.0000000000000000e+00  -3.2424747643035473e-09 1.3388549937176318e-08 0.0000000000000000e+00  -2.9085990988767758e-09 1.5617689031146822e-08 0.0000000000000000e+00  -2.7217074815684532e-09 1.7133055826888684e-08 0.0000000000000000e+00  -5.3704992515617184e-09 1.8067138538502437e-08 0.0000000000000000e+00  -3.6433639600442033e-09 -1.4389479973647983e-08 0.0000000000000000e+00  -2.3388525897118295e-09 -1.5197572257115995e-08 0.0000000000000000e+00  -3.1805175166664491e-09 -1.4465263300684441e-08 0.0000000000000000e+00  -4.2221295371333789e-09 -1.2927107540471779e-08 0.0000000000000000e+00  -4.9384463278320080e-09 -1.0950372239976468e-08 0.0000000000000000e+00  -5.2724445100679786e-09 -8.8456103506436385e-09 0.0000000000000000e+00  -5.3183645681822608e-09 -6.8139430784686052e-09 0.0000000000000000e+00  -5.1998694597592927e-09 -4.9455874684207077e-09 0.0000000000000000e+00  -5.0224608732829165e-09 -3.2507436031674510e-09 0.0000000000000000e+00  -4.8603978725268706e-09 -1.6914239579894002e-09 0.0000000000000000e+00  -4.7578397200037093e-09 -2.0440190505624093e-10 0.0000000000000000e+00  -4.7331439663237390e-09 1.2840945958735930e-09 0.0000000000000000e+00  -4.7813315733349402e-09 2.8480909908988028e-09 0.0000000000000000e+00  -4.8732672456264852e-09 4.5517816466708254e-09 0.0000000000000000e+00  -4.9523850629168030e-09 6.4358299475990943e-09 0.0000000000000000e+00  -4.9324329559589701e-09 8.4973681064417582e-09 0.0000000000000000e+00  -4.7043658274909658e-09 1.0664604065816587e-08 0.0000000000000000e+00  -4.1699833262300295e-09 1.2775540322137144e-08 0.0000000000000000e+00  -3.3485404321136604e-09 1.4584387640311877e-08 0.0000000000000000e+00  -2.7514551120961884e-09 1.5827210908023764e-08 0.0000000000000000e+00  -4.7144130987411711e-09 1.6863607409728834e-08 0.0000000000000000e+00  -3.3190489399103091e-09 -1.2605616110268511e-08 0.0000000000000000e+00  -2.4263832323224859e-09 -1.3476899063023364e-08 0.0000000000000000e+00  -3.5035315910077414e-09 -1.2983377296345285e-08 0.0000000000000000e+00  -4.8225957443037363e-09 -1.1831012376886880e-08 0.0000000000000000e+00  -5.8978642994617377e-09 -1.0264822160652731e-08 0.0000000000000000e+00  -6.6357933378252672e-09 -8.5026599810734997e-09 0.0000000000000000e+00  -7.0747408569143032e-09 -6.7084021097582410e-09 0.0000000000000000e+00  -7.2933520531923159e-09 -4.9760110010254438e-09 0.0000000000000000e+00  -7.3706902014983797e-09 -3.3381703405713611e-09 0.0000000000000000e+00  -7.3692176208981478e-09 -1.7838554423147064e-09 0.0000000000000000e+00  -7.3293179029987566e-09 -2.7548100205209874e-10 0.0000000000000000e+00  -7.2686550387840973e-09 1.2370637443612128e-09 0.0000000000000000e+00  -7.1826078717310749e-09 2.8046958386432122e-09 0.0000000000000000e+00  -7.0444102653288406e-09 4.4677586684900988e-09 0.0000000000000000e+00  -6.8056579642561717e-09 6.2431811699252473e-09 0.0000000000000000e+00  -6.3999177893942282e-09 8.1097633294791670e-09 0.0000000000000000e+00  -5.7548353274648097e-09 9.9942570276769100e-09 0.0000000000000000e+00  -4.8235498275471669e-09 1.1765878435108742e-08 0.0000000000000000e+00  -3.6694463498355330e-09 1.3252474971229117e-08 0.0000000000000000e+00  -2.7769378586187545e-09 1.4294820685777379e-08 0.0000000000000000e+00  -4.2042269704831926e-09 1.5382276085986639e-08 0.0000000000000000e+00  -3.0794328649068299e-09 -1.0714307875825775e-08 0.0000000000000000e+00  -2.4988760847779638e-09 -1.1637134408615223e-08 0.0000000000000000e+00  -3.7483716714623426e-09 -1.1318277795975783e-08 0.0000000000000000e+00  -5.2589759466077860e-09 -1.0461566695562206e-08 0.0000000000000000e+00  -6.5826030722495746e-09 -9.2379109661916935e-09 0.0000000000000000e+00  -7.6103234713034309e-09 -7.7990056138659883e-09 0.0000000000000000e+00  -8.3446498319904331e-09 -6.2704338662694120e-09 0.0000000000000000e+00  -8.8285536213952375e-09 -4.7357266998416486e-09 0.0000000000000000e+00  -9.1145388579556778e-09 -3.2353566557461620e-09 0.0000000000000000e+00  -9.2487550630579090e-09 -1.7749726209108667e-09 0.0000000000000000e+00  -9.2632563333882824e-09 -3.3677872887960870e-10 0.0000000000000000e+00  -9.1728479918165053e-09 1.1090175411254046e-09 0.0000000000000000e+00  -8.9743003166845055e-09 2.5934134347014616e-09 0.0000000000000000e+00  -8.6470043429940765e-09 4.1381036606641534e-09 0.0000000000000000e+00  -8.1554496440255154e-09 5.7449077575268165e-09 0.0000000000000000e+00  -7.4551508077300521e-09 7.3857956553254344e-09 0.0000000000000000e+00  -6.5050478373490299e-09 8.9960845092909824e-09 0.0000000000000000e+00  -5.2933278005470014e-09 1.0475680496399420e-08 0.0000000000000000e+00  -3.9053972394974608e-09 1.1705366772241614e-08 0.0000000000000000e+00  -2.7933921040820890e-09 1.2590782318566818e-08 0.0000000000000000e+00  -3.7994332818279435e-09 1.3703968109488046e-08 0.0000000000000000e+00  -2.9030534020844216e-09 -8.7420562460183020e-09 0.0000000000000000e+00  -2.5581087126185451e-09 -9.7074486714984262e-09 0.0000000000000000e+00  -3.9347212526258334e-09 -9.5247682352036238e-09 0.0000000000000000e+00  -5.5790946444197174e-09 -8.9052852170569251e-09 0.0000000000000000e+00  -7.0741946833532435e-09 -7.9732760629328919e-09 0.0000000000000000e+00  -8.3059625654213057e-09 -6.8342148384620795e-09 0.0000000000000000e+00  -9.2547648568616794e-09 -5.5810496114792715e-09 0.0000000000000000e+00  -9.9376195248106212e-09 -4.2821483782791537e-09 0.0000000000000000e+00  -1.0384662197884469e-08 -2.9771952238308006e-09 0.0000000000000000e+00  -1.0626086378976495e-08 -1.6802795447202254e-09 0.0000000000000000e+00  -1.0684536041548414e-08 -3.8687263961089952e-10 0.0000000000000000e+00  -1.0571184595806353e-08 9.1770849879803571e-10 0.0000000000000000e+00  -1.0284432589761233e-08 2.2495341154193450e-09 0.0000000000000000e+00  -9.8107269063831277e-09 3.6174567826780383e-09 0.0000000000000000e+00  -9.1276497565764589e-09 5.0150874864721802e-09 0.0000000000000000e+00  -8.2100311136031626e-09 6.4143369742400508e-09 0.0000000000000000e+00  -7.0406426383685372e-09 7.7624547235574401e-09 0.0000000000000000e+00  -5.6306280993028735e-09 8.9853619124884224e-09 0.0000000000000000e+00  -4.0760729463403756e-09 1.0001236688659876e-08 0.0000000000000000e+00  -2.7999514972169257e-09 1.0757441113445870e-08 0.0000000000000000e+00  -3.4761163154018439e-09 1.1882485752338893e-08 0.0000000000000000e+00  -2.7775858217850584e-09 -6.7101664088800042e-09 0.0000000000000000e+00  -2.6063245201683888e-09 -7.7109916297019342e-09 0.0000000000000000e+00  -4.0754330627031930e-09 -7.6409842398794695e-09 0.0000000000000000e+00  -5.8126067610980499e-09 -7.2209664593781708e-09 0.0000000000000000e+00  -7.4246627265612785e-09 -6.5445998789824713e-09 0.0000000000000000e+00  -8.7970156648577637e-09 -5.6848553399000944e-09 0.0000000000000000e+00  -9.8966772048361914e-09 -4.7085499615625959e-09 0.0000000000000000e+00  -1.0722744303436749e-08 -3.6684938479440819e-09 0.0000000000000000e+00  -1.1288239104358904e-08 -2.5991532892862689e-09 0.0000000000000000e+00  -1.1609961298682436e-08 -1.5172617999435043e-09 0.0000000000000000e+00  -1.1701996155822067e-08 -4.2583050936411314e-10 0.0000000000000000e+00  -1.1571974955483146e-08 6.8003633920372895e-10 0.0000000000000000e+00  -1.1219702327844665e-08 1.8066340518695277e-09 0.0000000000000000e+00  -1.0637946062441894e-08 2.9551962345597002e-09 0.0000000000000000e+00  -9.8153962756755343e-09 4.1161607996902542e-09 0.0000000000000000e+00  -8.7420256897947565e-09 5.2650923057730275e-09 0.0000000000000000e+00  -7.4176759056350686e-09 6.3615613247994018e-09 0.0000000000000000e+00  -5.8683268222762816e-09 7.3525254896316275e-09 0.0000000000000000e+00  -4.1952365969148643e-09 8.1829080578326105e-09 0.0000000000000000e+00  -2.7976376059503572e-09 8.8281321394221132e-09 0.0000000000000000e+00  -3.2187907480209659e-09 9.9565165958773178e-09 0.0000000000000000e+00  -2.6958436377034540e-09 -4.6361731827847782e-09 0.0000000000000000e+00  -2.6458927790139794e-09 -5.6666729520900740e-09 0.0000000000000000e+00  -4.1797362592239468e-09 -5.6949637076720802e-09 0.0000000000000000e+00  -5.9793115751315794e-09 -5.4501930966520546e-09 0.0000000000000000e+00  -7.6686690812719786e-09 -5.0048776097189411e-09 0.0000000000000000e+00  -9.1345300871713282e-09 -4.4085473260271722e-09 0.0000000000000000e+00  -1.0336099946902758e-08 -3.7073484441371137e-09 0.0000000000000000e+00  -1.1260657764351524e-08 -2.9397178961882177e-09 0.0000000000000000e+00  -1.1909034585591661e-08 -2.1328749105527945e-09 0.0000000000000000e+00  -1.2287846848954921e-08 -1.3024252079916514e-09 0.0000000000000000e+00  -1.2404297523374915e-08 -4.5449750834606106e-10 0.0000000000000000e+00  -1.2262987123468766e-08 4.1054219277308428e-10 0.0000000000000000e+00  -1.1864688114106704e-08 1.2936470364708279e-09 0.0000000000000000e+00  -1.1207043537491873e-08 2.1926085857665782e-09 0.0000000000000000e+00  -1.0287128573231187e-08 3.0981875179316760e-09 0.0000000000000000e+00  -9.1058528699760570e-09 3.9915811746345867e-09 0.0000000000000000e+00  -7.6747330292706861e-09 4.8440510516331994e-09 0.0000000000000000e+00  -6.0292795111200036e-09 5.6195868141798087e-09 0.0000000000000000e+00  -4.2733846239193830e-09 6.2828965785679919e-09 0.0000000000000000e+00  -2.7881666588708314e-09 6.8292730591093857e-09 0.0000000000000000e+00  -3.0169297221503092e-09 7.9551223081230212e-09 0.0000000000000000e+00  -2.6537654951147845e-09 -2.5347818971385837e-09 0.0000000000000000e+00  -2.6790061701754540e-09 -3.5902348830682724e-09 0.0000000000000000e+00  -4.2543856819004131e-09 -3.7082418353488572e-09 0.0000000000000000e+00  -6.0927515105778729e-09 -3.6235315784408764e-09 0.0000000000000000e+00  -7.8295385916827848e-09 -3.3930478824414460e-09 0.0000000000000000e+00  -9.3533086984001056e-09 -3.0486606199496855e-09 0.0000000000000000e+00  -1.0619024588308897e-08 -2.619861464598447