<?xml version="1.0"?>
<VTKFile type="UnstructuredGrid"  version="0.1"  >
<UnstructuredGrid>
<Piece  NumberOfPoints="651" NumberOfCells="1200">
<Points>
<DataArray  type="Float64"  NumberOfComponents="3"  format="ascii">0 0 0  50000 0 0  100000 0 0  150000 0 0  200000 0 0  250000 0 0  300000 0 0  350000 0 0  400000 0 0  450000 0 0  500000 0 0  550000 0 0  600000 0 0  650000 0 0  700000 0 0  750000 0 0  800000 0 0  850000 0 0  900000 0 0  950000 0 0  1000000 0 0  0 50000 0  50000 50000 0  100000 50000 0  150000 50000 0  200000 50000 0  250000 50000 0  300000 50000 0  350000 50000 0  400000 50000 0  450000 50000 0  500000 50000 0  550000 50000 0  600000 50000 0  650000 50000 0  700000 50000 0  750000 50000 0  800000 50000 0  850000 50000 0  900000 50000 0  950000 50000 0  1000000 50000 0  0 100000 0  50000 100000 0  100000 100000 0  150000 100000 0  200000 100000 0  250000 100000 0  300000 100000 0  350000 100000 0  400000 100000 0  450000 100000 0  500000 100000 0  550000 100000 0  600000 100000 0  650000 100000 0  700000 100000 0  750000 100000 0  800000 100000 0  850000 100000 0  900000 100000 0  950000 100000 0  1000000 100000 0  0 150000 0  50000 150000 0  100000 150000 0  150000 150000 0  200000 150000 0  250000 150000 0  300000 150000 0  350000 150000 0  400000 150000 0  450000 150000 0  500000 150000 0  550000 150000 0  600000 150000 0  650000 150000 0  700000 150000 0  750000 150000 0  800000 150000 0  850000 150000 0  900000 150000 0  950000 150000 0  1000000 150000 0  0 200000 0  50000 200000 0  100000 200000 0  150000 200000 0  200000 200000 0  250000 200000 0  300000 200000 0  350000 200000 0  400000 200000 0  450000 200000 0  500000 200000 0  550000 200000 0  600000 200000 0  650000 200000 0  700000 200000 0  750000 200000 0  800000 200000 0  850000 200000 0  900000 200000 0  950000 200000 0  1000000 200000 0  0 250000 0  50000 250000 0  100000 250000 0  150000 250000 0  200000 250000 0  250000 250000 0  300000 250000 0  350000 250000 0  400000 250000 0  450000 250000 0  500000 250000 0  550000 250000 0  600000 250000 0  650000 250000 0  700000 250000 0  750000 250000 0  800000 250000 0  850000 250000 0  900000 250000 0  950000 250000 0  1000000 250000 0  0 300000 0  50000 300000 0  100000 300000 0  150000 300000 0  200000 300000 0  250000 300000 0  300000 300000 0  350000 300000 0  400000 300000 0  450000 300000 0  500000 300000 0  550000 300000 0  600000 300000 0  650000 300000 0  700000 300000 0  750000 300000 0  800000 300000 0  850000 300000 0  900000 300000 0  950000 300000 0  1000000 300000 0  0 350000 0  50000 350000 0  100000 350000 0  150000 350000 0  200000 350000 0  250000 350000 0  300000 350000 0  350000 350000 0  400000 350000 0  450000 350000 0  500000 350000 0  550000 350000 0  600000 350000 0  650000 350000 0  700000 350000 0  750000 350000 0  800000 350000 0  850000 350000 0  900000 350000 0  950000 350000 0  1000000 350000 0  0 400000 0  50000 400000 0  100000 400000 0  150000 400000 0  200000 400000 0  250000 400000 0  300000 400000 0  350000 400000 0  400000 400000 0  450000 400000 0  500000 400000 0  550000 400000 0  600000 400000 0  650000 400000 0  700000 400000 0  750000 400000 0  800000 400000 0  850000 400000 0  900000 400000 0  950000 400000 0  1000000 400000 0  0 450000 0  50000 450000 0  100000 450000 0  150000 450000 0  200000 450000 0  250000 450000 0  300000 450000 0  350000 450000 0  400000 450000 0  450000 450000 0  500000 450000 0  550000 450000 0  600000 450000 0  650000 450000 0  700000 450000 0  750000 450000 0  800000 450000 0  850000 450000 0  900000 450000 0  950000 450000 0  1000000 450000 0  0 500000 0  50000 500000 0  100000 500000 0  150000 500000 0  200000 500000 0  250000 500000 0  300000 500000 0  350000 500000 0  400000 500000 0  450000 500000 0  500000 500000 0  550000 500000 0  600000 500000 0  650000 500000 0  700000 500000 0  750000 500000 0  800000 500000 0  850000 500000 0  900000 500000 0  950000 500000 0  1000000 500000 0  0 550000 0  50000 550000 0  100000 550000 0  150000 550000 0  200000 550000 0  250000 550000 0  300000 550000 0  350000 550000 0  400000 550000 0  450000 550000 0  500000 550000 0  550000 550000 0  600000 550000 0  650000 550000 0  700000 550000 0  750000 550000 0  800000 550000 0  850000 550000 0  900000 550000 0  950000 550000 0  1000000 550000 0  0 600000 0  50000 600000 0  100000 600000 0  150000 600000 0  200000 600000 0  250000 600000 0  300000 600000 0  350000 600000 0  400000 600000 0  450000 600000 0  500000 600000 0  550000 600000 0  600000 600000 0  650000 600000 0  700000 600000 0  750000 600000 0  800000 600000 0  850000 600000 0  900000 600000 0  950000 600000 0  1000000 600000 0  0 650000 0  50000 650000 0  100000 650000 0  150000 650000 0  200000 650000 0  250000 650000 0  300000 650000 0  350000 650000 0  400000 650000 0  450000 650000 0  500000 650000 0  550000 650000 0  600000 650000 0  650000 650000 0  700000 650000 0  750000 650000 0  800000 650000 0  850000 650000 0  900000 650000 0  950000 650000 0  1000000 650000 0  0 700000 0  50000 700000 0  100000 700000 0  150000 700000 0  200000 700000 0  250000 700000 0  300000 700000 0  350000 700000 0  400000 700000 0  450000 700000 0  500000 700000 0  550000 700000 0  600000 700000 0  650000 700000 0  700000 700000 0  750000 700000 0  800000 700000 0  850000 700000 0  900000 700000 0  950000 700000 0  1000000 700000 0  0 750000 0  50000 750000 0  100000 750000 0  150000 750000 0  200000 750000 0  250000 750000 0  300000 750000 0  350000 750000 0  400000 750000 0  450000 750000 0  500000 750000 0  550000 750000 0  600000 750000 0  650000 750000 0  700000 750000 0  750000 750000 0  800000 750000 0  850000 750000 0  900000 750000 0  950000 750000 0  1000000 750000 0  0 800000 0  50000 800000 0  100000 800000 0  150000 800000 0  200000 800000 0  250000 800000 0  300000 800000 0  350000 800000 0  400000 800000 0  450000 800000 0  500000 800000 0  550000 800000 0  600000 800000 0  650000 800000 0  700000 800000 0  750000 800000 0  800000 800000 0  850000 800000 0  900000 800000 0  950000 800000 0  1000000 800000 0  0 850000 0  50000 850000 0  100000 850000 0  150000 850000 0  200000 850000 0  250000 850000 0  300000 850000 0  350000 850000 0  400000 850000 0  450000 850000 0  500000 850000 0  550000 850000 0  600000 850000 0  650000 850000 0  700000 850000 0  750000 850000 0  800000 850000 0  850000 850000 0  900000 850000 0  950000 850000 0  1000000 850000 0  0 900000 0  50000 900000 0  100000 900000 0  150000 900000 0  200000 900000 0  250000 900000 0  300000 900000 0  350000 900000 0  400000 900000 0  450000 900000 0  500000 900000 0  550000 900000 0  600000 900000 0  650000 900000 0  700000 900000 0  750000 900000 0  800000 900000 0  850000 900000 0  900000 900000 0  950000 900000 0  1000000 900000 0  0 950000 0  50000 950000 0  100000 950000 0  150000 950000 0  200000 950000 0  250000 950000 0  300000 950000 0  350000 950000 0  400000 950000 0  450000 950000 0  500000 950000 0  550000 950000 0  600000 950000 0  650000 950000 0  700000 950000 0  750000 950000 0  800000 950000 0  850000 950000 0  900000 950000 0  950000 950000 0  1000000 950000 0  0 1000000 0  50000 1000000 0  100000 1000000 0  150000 1000000 0  200000 1000000 0  250000 1000000 0  300000 1000000 0  350000 1000000 0  400000 1000000 0  450000 1000000 0  500000 1000000 0  550000 1000000 0  600000 1000000 0  650000 1000000 0  700000 1000000 0  750000 1000000 0  800000 1000000 0  850000 1000000 0  900000 1000000 0  950000 1000000 0  1000000 1000000 0  0 1050000 0  50000 1050000 0  100000 1050000 0  150000 1050000 0  200000 1050000 0  250000 1050000 0  300000 1050000 0  350000 1050000 0  400000 1050000 0  450000 1050000 0  500000 1050000 0  550000 1050000 0  600000 1050000 0  650000 1050000 0  700000 1050000 0  750000 1050000 0  800000 1050000 0  850000 1050000 0  900000 1050000 0  950000 1050000 0  1000000 1050000 0  0 1100000 0  50000 1100000 0  100000 1100000 0  150000 1100000 0  200000 1100000 0  250000 1100000 0  300000 1100000 0  350000 1100000 0  400000 1100000 0  450000 1100000 0  500000 1100000 0  550000 1100000 0  600000 1100000 0  650000 1100000 0  700000 1100000 0  750000 1100000 0  800000 1100000 0  850000 1100000 0  900000 1100000 0  950000 1100000 0  1000000 1100000 0  0 1150000 0  50000 1150000 0  100000 1150000 0  150000 1150000 0  200000 1150000 0  250000 1150000 0  300000 1150000 0  350000 1150000 0  400000 1150000 0  450000 1150000 0  500000 1150000 0  550000 1150000 0  600000 1150000 0  650000 1150000 0  700000 1150000 0  750000 1150000 0  800000 1150000 0  850000 1150000 0  900000 1150000 0  950000 1150000 0  1000000 1150000 0  0 1200000 0  50000 1200000 0  100000 1200000 0  150000 1200000 0  200000 1200000 0  250000 1200000 0  300000 1200000 0  350000 1200000 0  400000 1200000 0  450000 1200000 0  500000 1200000 0  550000 1200000 0  600000 1200000 0  650000 1200000 0  700000 1200000 0  750000 1200000 0  800000 1200000 0  850000 1200000 0  900000 1200000 0  950000 1200000 0  1000000 1200000 0  0 1250000 0  50000 1250000 0  100000 1250000 0  150000 1250000 0  200000 1250000 0  250000 1250000 0  300000 1250000 0  350000 1250000 0  400000 1250000 0  450000 1250000 0  500000 1250000 0  550000 1250000 0  600000 1250000 0  650000 1250000 0  700000 1250000 0  750000 1250000 0  800000 1250000 0  850000 1250000 0  900000 1250000 0  950000 1250000 0  1000000 1250000 0  0 1300000 0  50000 1300000 0  100000 1300000 0  150000 1300000 0  200000 1300000 0  250000 1300000 0  300000 1300000 0  350000 1300000 0  400000 1300000 0  450000 1300000 0  500000 1300000 0  550000 1300000 0  600000 1300000 0  650000 1300000 0  700000 1300000 0  750000 1300000 0  800000 1300000 0  850000 1300000 0  900000 1300000 0  950000 1300000 0  1000000 1300000 0  0 1350000 0  50000 1350000 0  100000 1350000 0  150000 1350000 0  200000 1350000 0  250000 1350000 0  300000 1350000 0  350000 1350000 0  400000 1350000 0  450000 1350000 0  500000 1350000 0  550000 1350000 0  600000 1350000 0  650000 1350000 0  700000 135
[...]
<PointData  Vectors="f_19"> 
<DataArray  type="Float64"  Name="f_19"  NumberOfComponents="3" format="ascii">-2.4436004667964590e-08 -9.7526980969596640e-09 0.0000000000000000e+00  4.8597650945027146e-08 -5.8809892041798137e-09 0.0000000000000000e+00  4.2800647195276151e-08 -1.6388021987068279e-09 0.0000000000000000e+00  4.0280898575196691e-08 -3.0415646021225161e-10 0.0000000000000000e+00  3.9016739865786069e-08 1.5947538897060073e-10 0.0000000000000000e+00  3.8177649525214045e-08 3.6298992151683548e-10 0.0000000000000000e+00  3.7568408737983530e-08 4.6987611087263023e-10 0.0000000000000000e+00  3.7133288531836455e-08 5.3483411200293566e-10 0.0000000000000000e+00  3.6855727273068134e-08 5.8000786325618762e-10 0.0000000000000000e+00  3.6732743728725198e-08 6.1590957563417235e-10 0.0000000000000000e+00  3.6767068790849109e-08 6.4830722019727620e-10 0.0000000000000000e+00  3.6965045176457429e-08 6.8118547702134074e-10 0.0000000000000000e+00  3.7337603195412495e-08 7.1907961648002981e-10 0.0000000000000000e+00  3.7905359074507585e-08 7.7082147844459440e-10 0.0000000000000000e+00  3.8713484546516940e-08 8.5779839206686466e-10 0.0000000000000000e+00  3.9873168916855676e-08 1.0341726398859150e-09 0.0000000000000000e+00  4.1674059153166349e-08 1.4389962618006762e-09 0.0000000000000000e+00  4.4850648275022972e-08 2.4271216441214651e-09 0.0000000000000000e+00  5.0726580458912624e-08 4.8389665612070859e-09 0.0000000000000000e+00  5.7977743120788115e-08 9.2731446300091443e-09 0.0000000000000000e+00  -1.6485167868961828e-08 7.1661655074306405e-09 0.0000000000000000e+00  -1.8241641503631563e-08 -1.5256748478424588e-08 0.0000000000000000e+00  7.0708187105385434e-09 -1.1041815318985570e-08 0.0000000000000000e+00  1.7808201734389868e-08 -5.1224155150940440e-09 0.0000000000000000e+00  2.2873716424862534e-08 -2.2659273467546646e-09 0.0000000000000000e+00  2.5472399356709095e-08 -1.0140940907849086e-09 0.0000000000000000e+00  2.6934132682766955e-08 -4.2826652122051938e-10 0.0000000000000000e+00  2.7782547572504271e-08 -1.3918857299564767e-10 0.0000000000000000e+00  2.8282961196337873e-08 3.7421385109453338e-12 0.0000000000000000e+00  2.8581520454564625e-08 6.9436939437868140e-11 0.0000000000000000e+00  2.8759980454462916e-08 9.4798437117356528e-11 0.0000000000000000e+00  2.8861033063455655e-08 1.0391261014118625e-10 0.0000000000000000e+00  2.8899620554012568e-08 1.1707294137556505e-10 0.0000000000000000e+00  2.8866467022569880e-08 1.5695198441245169e-10 0.0000000000000000e+00  2.8725915314198462e-08 2.5571834496595039e-10 0.0000000000000000e+00  2.8407282028510671e-08 4.6731635645804727e-10 0.0000000000000000e+00  2.7784139692971253e-08 8.9347391205382862e-10 0.0000000000000000e+00  2.6620258125535721e-08 1.7435102716053717e-09 0.0000000000000000e+00  2.4395963947586426e-08 3.4664817494213280e-09 0.0000000000000000e+00  1.9669371481599069e-08 6.9450370631506263e-09 0.0000000000000000e+00  8.2061294640089471e-09 1.3111020322455734e-08 0.0000000000000000e+00  -1.8456669684915481e-08 1.1086849939593649e-08 0.0000000000000000e+00  -1.1337035334021411e-08 -1.8814165496466043e-08 0.0000000000000000e+00  -4.0396222027690877e-10 -1.8206931052578908e-08 0.0000000000000000e+00  5.5399222896509096e-09 -1.1287560735087955e-08 0.0000000000000000e+00  1.0364363578981906e-08 -6.5229649377678908e-09 0.0000000000000000e+00  1.4175190802089611e-08 -3.7614420132347335e-09 0.0000000000000000e+00  1.6837720680594509e-08 -2.1960148440550460e-09 0.0000000000000000e+00  1.8628878390679536e-08 -1.2878546552705257e-09 0.0000000000000000e+00  1.9813075856119018e-08 -7.4525817306664575e-10 0.0000000000000000e+00  2.0570301709845435e-08 -4.0837907670627814e-10 0.0000000000000000e+00  2.1011264337335368e-08 -1.8217748737949241e-10 0.0000000000000000e+00  2.1195441209074536e-08 -1.5246663131517281e-12 0.0000000000000000e+00  2.1141924947977557e-08 1.8817744851705862e-10 0.0000000000000000e+00  2.0833288906621038e-08 4.4464537571446452e-10 0.0000000000000000e+00  2.0213221028146625e-08 8.4275539868467444e-10 0.0000000000000000e+00  1.9177516399564386e-08 1.4946457805959067e-09 0.0000000000000000e+00  1.7556732067179848e-08 2.5830847907973841e-09 0.0000000000000000e+00  1.5089247515913673e-08 4.4137645534284602e-09 0.0000000000000000e+00  1.1394523513130280e-08 7.4588030134459458e-09 0.0000000000000000e+00  6.0112768509028906e-09 1.2168850137835800e-08 0.0000000000000000e+00  -1.3458931257048608e-09 1.7637148592710079e-08 0.0000000000000000e+00  -1.3371523654319924e-08 1.4834746444797416e-08 0.0000000000000000e+00  -7.6918160488184126e-09 -1.9411462005169339e-08 0.0000000000000000e+00  -1.6411121966430749e-09 -1.9500146883604918e-08 0.0000000000000000e+00  9.3163147077845776e-10 -1.5180958985771586e-08 0.0000000000000000e+00  3.6226305782914419e-09 -1.0386690479369907e-08 0.0000000000000000e+00  6.4860870189320083e-09 -6.8384991032512227e-09 0.0000000000000000e+00  9.0084314388247731e-09 -4.4465232847770216e-09 0.0000000000000000e+00  1.0973880662604676e-08 -2.8644626361748799e-09 0.0000000000000000e+00  1.2397739185932373e-08 -1.8036271196793497e-09 0.0000000000000000e+00  1.3360083192083369e-08 -1.0635747364329975e-09 0.0000000000000000e+00  1.3933109663391694e-08 -5.0549068280423803e-10 0.0000000000000000e+00  1.4161976214644558e-08 -2.5191951758014375e-11 0.0000000000000000e+00  1.4061573709520189e-08 4.6727418082847379e-10 0.0000000000000000e+00  1.3616615601139759e-08 1.0639302555592137e-09 0.0000000000000000e+00  1.2782086176760525e-08 1.8744646591997336e-09 0.0000000000000000e+00  1.1485288490771759e-08 3.0434105718605639e-09 0.0000000000000000e+00  9.6356421395912111e-09 4.7669062474792693e-09 0.0000000000000000e+00  7.1587593637489553e-09 7.2908000031193606e-09 0.0000000000000000e+00  4.0878816061742914e-09 1.0819302030594105e-08 0.0000000000000000e+00  7.1578247271651627e-10 1.5142629183816648e-08 0.0000000000000000e+00  -2.6477274251758999e-09 1.8782053671719560e-08 0.0000000000000000e+00  -9.1899344679774485e-09 1.7698488450942306e-08 0.0000000000000000e+00  -5.8594485980728227e-09 -1.8795693933172244e-08 0.0000000000000000e+00  -1.9571060955410052e-09 -1.9138015582495188e-08 0.0000000000000000e+00  -1.0481798913815541e-09 -1.6498534489623635e-08 0.0000000000000000e+00  2.0861487021142111e-11 -1.2714818578859987e-08 0.0000000000000000e+00  1.6193372409377300e-09 -9.2314676344941630e-09 0.0000000000000000e+00  3.3845078407843846e-09 -6.4893749821947444e-09 0.0000000000000000e+00  4.9844341129046656e-09 -4.4481592030575803e-09 0.0000000000000000e+00  6.2659704273350206e-09 -2.9405013957750435e-09 0.0000000000000000e+00  7.1892905517850316e-09 -1.7973355004619176e-09 0.0000000000000000e+00  7.7594871841675050e-09 -8.7484118314236292e-10 0.0000000000000000e+00  7.9891872653071350e-09 -5.1049591651296240e-11 0.0000000000000000e+00  7.8830559613767665e-09 7.8489622878663658e-10 0.0000000000000000e+00  7.4335454006791993e-09 1.7441714077066139e-09 0.0000000000000000e+00  6.6237121608525504e-09 2.9483848115531902e-09 0.0000000000000000e+00  5.4382503976529925e-09 4.5355809235701497e-09 0.0000000000000000e+00  3.8885921044042421e-09 6.6533307384947983e-09 0.0000000000000000e+00  2.0609938232286129e-09 9.4154093322913494e-09 0.0000000000000000e+00  1.8355443965718102e-10 1.2774201274137153e-08 0.0000000000000000e+00  -1.3852668535000813e-09 1.6262033887139733e-08 0.0000000000000000e+00  -2.7322905684562470e-09 1.8734171432376441e-08 0.0000000000000000e+00  -7.0311481314933958e-09 1.8736689433545199e-08 0.0000000000000000e+00  -4.8252930594835994e-09 -1.7640622839950161e-08 0.0000000000000000e+00  -2.1203267190696283e-09 -1.8152317385562622e-08 0.0000000000000000e+00  -2.0820214499390644e-09 -1.6444941787344041e-08 0.0000000000000000e+00  -2.0418733939457257e-09 -1.3629983665900480e-08 0.0000000000000000e+00  -1.4769138189588713e-09 -1.0618051254417780e-08 0.0000000000000000e+00  -5.4654684762876897e-10 -7.9260558723614611e-09 0.0000000000000000e+00  4.7934325953314791e-10 -5.7033343830692008e-09 0.0000000000000000e+00  1.4053286428893918e-09 -3.9157883875584704e-09 0.0000000000000000e+00  2.1257723437704405e-09 -2.4619947125616458e-09 0.0000000000000000e+00  2.5931747656279683e-09 -1.2251616064168280e-09 0.0000000000000000e+00  2.7890692597175250e-09 -8.9889343704152387e-11 0.0000000000000000e+00  2.7073083359750395e-09 1.0557778829613425e-09 0.0000000000000000e+00  2.3482597011108260e-09 2.3228642948155774e-09 0.0000000000000000e+00  1.7219903258354777e-09 3.8228839521417484e-09 0.0000000000000000e+00  8.6049947730708181e-10 5.6625306270080757e-09 0.0000000000000000e+00  -1.6001324885869292e-10 7.9224973774015757e-09 0.0000000000000000e+00  -1.1903399854954612e-09 1.0605934963638242e-08 0.0000000000000000e+00  -1.9984959641840792e-09 1.3543596134042467e-08 0.0000000000000000e+00  -2.3767423449554814e-09 1.6279915683138541e-08 0.0000000000000000e+00  -2.6986280567331737e-09 1.8066467090848162e-08 0.0000000000000000e+00  -5.8039564834184826e-09 1.8571664963528268e-08 0.0000000000000000e+00  -4.1704424570720790e-09 -1.6187013424303684e-08 0.0000000000000000e+00  -2.2482766559758850e-09 -1.6825514501081638e-08 0.0000000000000000e+00  -2.7256320859382204e-09 -1.5673730087743089e-08 0.0000000000000000e+00  -3.3310010003218292e-09 -1.3580504680960007e-08 0.0000000000000000e+00  -3.5128251981785370e-09 -1.1108051837286027e-08 0.0000000000000000e+00  -3.2925983983799298e-09 -8.6739032886120931e-09 0.0000000000000000e+00  -2.8448088667808206e-09 -6.4851987007020029e-09 0.0000000000000000e+00  -2.3387764594120715e-09 -4.5919927838761224e-09 0.0000000000000000e+00  -1.8940161792286797e-09 -2.9572463864100065e-09 0.0000000000000000e+00  -1.5820694199841047e-09 -1.5037958987003231e-09 0.0000000000000000e+00  -1.4399495242632135e-09 -1.3889124917013786e-10 0.0000000000000000e+00  -1.4811170709303591e-09 1.2346363524379228e-09 0.0000000000000000e+00  -1.7000711488737209e-09 2.7127038491142839e-09 0.0000000000000000e+00  -2.0702042928599824e-09 4.3838399121886527e-09 0.0000000000000000e+00  -2.5356491147607032e-09 6.3170879501723566e-09 0.0000000000000000e+00  -2.9997199364663144e-09 8.5380093482364648e-09 0.0000000000000000e+00  -3.3186602109349578e-09 1.0988219166672634e-08 0.0000000000000000e+00  -3.3256603751343953e-09 1.3473657470667021e-08 0.0000000000000000e+00  -2.9525299606494151e-09 1.5634888152540424e-08 0.0000000000000000e+00  -2.6857735600715814e-09 1.7002352802962685e-08 0.0000000000000000e+00  -5.0210928879815254e-09 1.7762806706873065e-08 0.0000000000000000e+00  -3.7212920408122538e-09 -1.4534495579152730e-08 0.0000000000000000e+00  -2.3564738045204517e-09 -1.5272254195743416e-08 0.0000000000000000e+00  -3.1744395041491134e-09 -1.4479093487071156e-08 0.0000000000000000e+00  -4.1984936098929543e-09 -1.2907902510080110e-08 0.0000000000000000e+00  -4.9013976649800189e-09 -1.0918417796955628e-08 0.0000000000000000e+00  -5.2289120071888572e-09 -8.8139827673005477e-09 0.0000000000000000e+00  -5.2761751066973058e-09 -6.7892061263881426e-09 0.0000000000000000e+00  -5.1661845944466980e-09 -4.9292739081638411e-09 0.0000000000000000e+00  -5.0030468611749076e-09 -3.2408154033096937e-09 0.0000000000000000e+00  -4.8593447490692768e-09 -1.6834470881215773e-09 0.0000000000000000e+00  -4.7773836514059178e-09 -1.9250020397227737e-10 0.0000000000000000e+00  -4.7734204003505508e-09 1.3062988908490378e-09 0.0000000000000000e+00  -4.8400521247751445e-09 2.8863250581705819e-09 0.0000000000000000e+00  -4.9454454124694213e-09 4.6095955044402630e-09 0.0000000000000000e+00  -5.0303236363128417e-09 6.5126511160768249e-09 0.0000000000000000e+00  -5.0061936120980318e-09 8.5862255458203224e-09 0.0000000000000000e+00  -4.7628217009527661e-09 1.0749646356057777e-08 0.0000000000000000e+00  -4.2022276866295965e-09 1.2829255526272974e-08 0.0000000000000000e+00  -3.3438727856408998e-09 1.4564102845643851e-08 0.0000000000000000e+00  -2.6960550606074076e-09 1.5662168707075733e-08 0.0000000000000000e+00  -4.4715636408881350e-09 1.6571524964263698e-08 0.0000000000000000e+00  -3.3983942430114802e-09 -1.2737009410454334e-08 0.0000000000000000e+00  -2.4469613140830729e-09 -1.3554990758159683e-08 0.0000000000000000e+00  -3.5055536660600583e-09 -1.3009945363989479e-08 0.0000000000000000e+00  -4.8116238331606280e-09 -1.1825452308202336e-08 0.0000000000000000e+00  -5.8758066794277183e-09 -1.0242128934988628e-08 0.0000000000000000e+00  -6.6070758395609031e-09 -8.4736455463856879e-09 0.0000000000000000e+00  -7.0452335584957417e-09 -6.6794288917126098e-09 0.0000000000000000e+00  -7.2689428688174188e-09 -4.9495404646635792e-09 0.0000000000000000e+00  -7.3563323773981243e-09 -3.3136360799436198e-09 0.0000000000000000e+00  -7.3683723697704544e-09 -1.7585866193530172e-09 0.0000000000000000e+00  -7.3436012227180313e-09 -2.4561227661827433e-10 0.0000000000000000e+00  -7.2975682694779543e-09 1.2756307069400477e-09 0.0000000000000000e+00  -7.2233357727038421e-09 2.8551771720307967e-09 0.0000000000000000e+00  -7.0917644410259590e-09 4.5311483038867375e-09 0.0000000000000000e+00  -6.8523068369193605e-09 6.3166883243770626e-09 0.0000000000000000e+00  -6.4370656000836298e-09 8.1851118973103886e-09 0.0000000000000000e+00  -5.7734981485630613e-09 1.0055979224858069e-08 0.0000000000000000e+00  -4.8165063085412412e-09 1.1789715664485565e-08 0.0000000000000000e+00  -3.6331517287289837e-09 1.3203950819796592e-08 0.0000000000000000e+00  -2.7169038330645333e-09 1.4118404470658110e-08 0.0000000000000000e+00  -4.0573158272692829e-09 1.5122217972630385e-08 0.0000000000000000e+00  -3.1614631576403606e-09 -1.0831007410995365e-08 0.0000000000000000e+00  -2.5210122844110974e-09 -1.1715052331004681e-08 0.0000000000000000e+00  -3.7549457398708728e-09 -1.1353055177533062e-08 0.0000000000000000e+00  -5.2559736629219656e-09 -1.0466494078497585e-08 0.0000000000000000e+00  -6.5707366845050776e-09 -9.2235683219721870e-09 0.0000000000000000e+00  -7.5922500499221744e-09 -7.7737749560502861e-09 0.0000000000000000e+00  -8.3245279713673848e-09 -6.2399387474243782e-09 0.0000000000000000e+00  -8.8108831585070764e-09 -4.7028601269829212e-09 0.0000000000000000e+00  -9.1032234392005332e-09 -3.2007166246099825e-09 0.0000000000000000e+00  -9.2464639869251262e-09 -1.7375073086002724e-09 0.0000000000000000e+00  -9.2710097096567188e-09 -2.9454615753304041e-10 0.0000000000000000e+00  -9.1897603571852486e-09 1.1579883775100233e-09 0.0000000000000000e+00  -8.9974736374884076e-09 2.6501409053538794e-09 0.0000000000000000e+00  -8.6716221665510943e-09 4.2015474464800849e-09 0.0000000000000000e+00  -8.1751713463113663e-09 5.8107836524533577e-09 0.0000000000000000e+00  -7.4629340944035070e-09 7.4454237779581373e-09 0.0000000000000000e+00  -6.4945476672818587e-09 9.0354598608576320e-09 0.0000000000000000e+00  -5.2610151350065215e-09 1.0475023526337565e-08 0.0000000000000000e+00  -3.8531807606973507e-09 1.1639331256925912e-08 0.0000000000000000e+00  -2.7384610595560781e-09 1.2419356870707240e-08 0.0000000000000000e+00  -3.7300876860160601e-09 1.3484198580129073e-08 0.0000000000000000e+00  -2.9883543930782669e-09 -8.8443348233842012e-09 0.0000000000000000e+00  -2.5805160099896659e-09 -9.7833540753018305e-09 0.0000000000000000e+00  -3.9428322899497055e-09 -9.5647286892084027e-09 0.0000000000000000e+00  -5.5799262992706193e-09 -8.9181632223695379e-09 0.0000000000000000e+00  -7.0679816593506415e-09 -7.9661035568790200e-09 0.0000000000000000e+00  -8.2942383813525411e-09 -6.8131710170495079e-09 0.0000000000000000e+00  -9.2403760841997149e-09 -5.5508616479621133e-09 0.0000000000000000e+00  -9.9238387719890456e-09 -4.2458533011693521e-09 0.0000000000000000e+00  -1.0374375340122559e-08 -2.9362740309582335e-09 0.0000000000000000e+00  -1.0621195463959918e-08 -1.6350532014458720e-09 0.0000000000000000e+00  -1.0685567843259961e-08 -3.3707399830931338e-10 0.0000000000000000e+00  -1.0577080281134924e-08 9.7223473331970187e-10 0.0000000000000000e+00  -1.0292519917850835e-08 2.3080343163600986e-09 0.0000000000000000e+00  -9.8169127173743429e-09 3.6774169573327979e-09 0.0000000000000000e+00  -9.1269025136189596e-09 5.0714078644966071e-09 0.0000000000000000e+00  -8.1972455394572194e-09 6.4586724083218066e-09 0.0000000000000000e+00  -7.0119910174597311e-09 7.7829399711787792e-09 0.0000000000000000e+00  -5.5855006300710303e-09 8.9670034176386071e-09 0.0000000000000000e+00  -4.0196694352462265e-09 9.9270359802002062e-09 0.0000000000000000e+00  -2.7551608857808605e-09 1.0600466946608283e-08 0.0000000000000000e+00  -3.4651123629437323e-09 1.1703188445413491e-08 0.0000000000000000e+00  -2.8662322905067507e-09 -6.7994392124137563e-09 0.0000000000000000e+00  -2.6277937385886001e-09 -7.7844860058061212e-09 0.0000000000000000e+00  -4.0825058263210249e-09 -7.6843889476005280e-09 0.0000000000000000e+00  -5.8137443813683618e-09 -7.2399726812581166e-09 0.0000000000000000e+00  -7.4201408158887191e-09 -6.5434596003445616e-09 0.0000000000000000e+00  -8.7877755910440231e-09 -5.6679243616661283e-09 0.0000000000000000e+00  -9.8846671141210983e-09 -4.6797263762975374e-09 0.0000000000000000e+00  -1.0710274627719445e-08 -3.6308386254234030e-09 0.0000000000000000e+00  -1.1277335495324320e-08 -2.5548168877019480e-09 0.0000000000000000e+00  -1.1601874105058790e-08 -1.4676737293445541e-09 0.0000000000000000e+00  -1.1696885003628506e-08 -3.7208544930044984e-10 0.0000000000000000e+00  -1.1568765763537520e-08 7.3665616838504030e-10 0.0000000000000000e+00  -1.1216124571054791e-08 1.8640588533225309e-09 0.0000000000000000e+00  -1.0630777980364390e-08 3.0099626335430538e-09 0.0000000000000000e+00  -9.8009635305425584e-09 4.1629020250568625e-09 0.0000000000000000e+00  -8.7170076059520595e-09 5.2962741609630329e-09 0.0000000000000000e+00  -7.3802685253868829e-09 6.3676729206333945e-09 0.0000000000000000e+00  -5.8198112087131868e-09 7.3229500396304376e-09 0.0000000000000000e+00  -4.1422303226233912e-09 8.1073653143988190e-09 0.0000000000000000e+00  -2.7647301144620257e-09 8.6895605744840152e-09 0.0000000000000000e+00  -3.2492842299965761e-09 9.8131537172120612e-09 0.0000000000000000e+00  -2.7874501068819359e-09 -4.7148556143844862e-09 0.0000000000000000e+00  -2.6652520035773232e-09 -5.7385500324503531e-09 0.0000000000000000e+00  -4.1835515157150864e-09 -5.7411172869667488e-09 0.0000000000000000e+00  -5.9778086381812674e-09 -5.4741274940955840e-09 0.0000000000000000e+00  -7.6625601358859447e-09 -5.0087397705503711e-09 0.0000000000000000e+00  -9.1245878834646761e-09 -4.3953059569424315e-09 0.0000000000000000e+00  -1.0323735687586023e-08 -3.6802687486263729e-09 0.0000000000000000e+00  -1.1247486340619939e-08 -2.9018859730233206e-09 0.0000000000000000e+00  -1.1896404797317062e-08 -2.0869715616613420e-09 0.0000000000000000e+00  -1.2276488956792881e-08 -1.2507493446731236e-09 0.0000000000000000e+00  -1.2394111613856709e-08 -3.9918907503406543e-10 0.0000000000000000e+00  -1.2252976524516356e-08 4.6714392337401801e-10 0.0000000000000000e+00  -1.1853046316147062e-08 1.3485828258643932e-09 0.0000000000000000e+00  -1.1191412979303862e-08 2.2419033250452150e-09 0.0000000000000000e+00  -1.0265056380927683e-08 3.1365891911242999e-09 0.0000000000000000e+00  -9.0754653380779472e-09 4.0125765154031187e-09 0.0000000000000000e+00  -7.6356345408653715e-09 4.8403306052108046e-09 0.0000000000000000e+00  -5.9836957848713040e-09 5.5841008478568814e-09 0.0000000000000000e+00  -4.2280196528496558e-09 6.2102506807073774e-09 0.0000000000000000e+00  -2.7669392412979947e-09 6.7092822612902822e-09 0.0000000000000000e+00  -3.0754732834231646e-09 7.8409148920423785e-09 0.0000000000000000e+00  -2.7474431441791577e-09 -2.6061971882360308e-09 0.0000000000000000e+00  -2.6950723973278847e-09 -3.6622746368828741e-09 0.0000000000000000e+00  -4.2530129465508025e-09 -3.7572421195426081e-09 0.0000000000000000e+00  -6.0862038273835341e-09 -3.6516386303769457e-09 0.0000000000000000e+00  -7.8192793087395769e-09 -3.4009258326563210e-09 0.0000000000000000e+00  -9.3402652561394393e-09 -3.0383614861133460e-09 0.0000000000000000e+00  -1.0604347191221576e-08 -2.59429582055867