<?xml version="1.0"?>
<VTKFile type="UnstructuredGrid"  version="0.1"  >
<UnstructuredGrid>
<Piece  NumberOfPoints="651" NumberOfCells="1200">
<Points>
<DataArray  type="Float64"  NumberOfComponents="3"  format="ascii">0 0 0  50000 0 0  100000 0 0  150000 0 0  200000 0 0  250000 0 0  300000 0 0  350000 0 0  400000 0 0  450000 0 0  500000 0 0  550000 0 0  600000 0 0  650000 0 0  700000 0 0  750000 0 0  800000 0 0  850000 0 0  900000 0 0  950000 0 0  1000000 0 0  0 50000 0  50000 50000 0  100000 50000 0  150000 50000 0  200000 50000 0  250000 50000 0  300000 50000 0  350000 50000 0  400000 50000 0  450000 50000 0  500000 50000 0  550000 50000 0  600000 50000 0  650000 50000 0  700000 50000 0  750000 50000 0  800000 50000 0  850000 50000 0  900000 50000 0  950000 50000 0  1000000 50000 0  0 100000 0  50000 100000 0  100000 100000 0  150000 100000 0  200000 100000 0  250000 100000 0  300000 100000 0  350000 100000 0  400000 100000 0  450000 100000 0  500000 100000 0  550000 100000 0  600000 100000 0  650000 100000 0  700000 100000 0  750000 100000 0  800000 100000 0  850000 100000 0  900000 100000 0  950000 100000 0  1000000 100000 0  0 150000 0  50000 150000 0  100000 150000 0  150000 150000 0  200000 150000 0  250000 150000 0  300000 150000 0  350000 150000 0  400000 150000 0  450000 150000 0  500000 150000 0  550000 150000 0  600000 150000 0  650000 150000 0  700000 150000 0  750000 150000 0  800000 150000 0  850000 150000 0  900000 150000 0  950000 150000 0  1000000 150000 0  0 200000 0  50000 200000 0  100000 200000 0  150000 200000 0  200000 200000 0  250000 200000 0  300000 200000 0  350000 200000 0  400000 200000 0  450000 200000 0  500000 200000 0  550000 200000 0  600000 200000 0  650000 200000 0  700000 200000 0  750000 200000 0  800000 200000 0  850000 200000 0  900000 200000 0  950000 200000 0  1000000 200000 0  0 250000 0  50000 250000 0  100000 250000 0  150000 250000 0  200000 250000 0  250000 250000 0  300000 250000 0  350000 250000 0  400000 250000 0  450000 250000 0  500000 250000 0  550000 250000 0  600000 250000 0  650000 250000 0  700000 250000 0  750000 250000 0  800000 250000 0  850000 250000 0  900000 250000 0  950000 250000 0  1000000 250000 0  0 300000 0  50000 300000 0  100000 300000 0  150000 300000 0  200000 300000 0  250000 300000 0  300000 300000 0  350000 300000 0  400000 300000 0  450000 300000 0  500000 300000 0  550000 300000 0  600000 300000 0  650000 300000 0  700000 300000 0  750000 300000 0  800000 300000 0  850000 300000 0  900000 300000 0  950000 300000 0  1000000 300000 0  0 350000 0  50000 350000 0  100000 350000 0  150000 350000 0  200000 350000 0  250000 350000 0  300000 350000 0  350000 350000 0  400000 350000 0  450000 350000 0  500000 350000 0  550000 350000 0  600000 350000 0  650000 350000 0  700000 350000 0  750000 350000 0  800000 350000 0  850000 350000 0  900000 350000 0  950000 350000 0  1000000 350000 0  0 400000 0  50000 400000 0  100000 400000 0  150000 400000 0  200000 400000 0  250000 400000 0  300000 400000 0  350000 400000 0  400000 400000 0  450000 400000 0  500000 400000 0  550000 400000 0  600000 400000 0  650000 400000 0  700000 400000 0  750000 400000 0  800000 400000 0  850000 400000 0  900000 400000 0  950000 400000 0  1000000 400000 0  0 450000 0  50000 450000 0  100000 450000 0  150000 450000 0  200000 450000 0  250000 450000 0  300000 450000 0  350000 450000 0  400000 450000 0  450000 450000 0  500000 450000 0  550000 450000 0  600000 450000 0  650000 450000 0  700000 450000 0  750000 450000 0  800000 450000 0  850000 450000 0  900000 450000 0  950000 450000 0  1000000 450000 0  0 500000 0  50000 500000 0  100000 500000 0  150000 500000 0  200000 500000 0  250000 500000 0  300000 500000 0  350000 500000 0  400000 500000 0  450000 500000 0  500000 500000 0  550000 500000 0  600000 500000 0  650000 500000 0  700000 500000 0  750000 500000 0  800000 500000 0  850000 500000 0  900000 500000 0  950000 500000 0  1000000 500000 0  0 550000 0  50000 550000 0  100000 550000 0  150000 550000 0  200000 550000 0  250000 550000 0  300000 550000 0  350000 550000 0  400000 550000 0  450000 550000 0  500000 550000 0  550000 550000 0  600000 550000 0  650000 550000 0  700000 550000 0  750000 550000 0  800000 550000 0  850000 550000 0  900000 550000 0  950000 550000 0  1000000 550000 0  0 600000 0  50000 600000 0  100000 600000 0  150000 600000 0  200000 600000 0  250000 600000 0  300000 600000 0  350000 600000 0  400000 600000 0  450000 600000 0  500000 600000 0  550000 600000 0  600000 600000 0  650000 600000 0  700000 600000 0  750000 600000 0  800000 600000 0  850000 600000 0  900000 600000 0  950000 600000 0  1000000 600000 0  0 650000 0  50000 650000 0  100000 650000 0  150000 650000 0  200000 650000 0  250000 650000 0  300000 650000 0  350000 650000 0  400000 650000 0  450000 650000 0  500000 650000 0  550000 650000 0  600000 650000 0  650000 650000 0  700000 650000 0  750000 650000 0  800000 650000 0  850000 650000 0  900000 650000 0  950000 650000 0  1000000 650000 0  0 700000 0  50000 700000 0  100000 700000 0  150000 700000 0  200000 700000 0  250000 700000 0  300000 700000 0  350000 700000 0  400000 700000 0  450000 700000 0  500000 700000 0  550000 700000 0  600000 700000 0  650000 700000 0  700000 700000 0  750000 700000 0  800000 700000 0  850000 700000 0  900000 700000 0  950000 700000 0  1000000 700000 0  0 750000 0  50000 750000 0  100000 750000 0  150000 750000 0  200000 750000 0  250000 750000 0  300000 750000 0  350000 750000 0  400000 750000 0  450000 750000 0  500000 750000 0  550000 750000 0  600000 750000 0  650000 750000 0  700000 750000 0  750000 750000 0  800000 750000 0  850000 750000 0  900000 750000 0  950000 750000 0  1000000 750000 0  0 800000 0  50000 800000 0  100000 800000 0  150000 800000 0  200000 800000 0  250000 800000 0  300000 800000 0  350000 800000 0  400000 800000 0  450000 800000 0  500000 800000 0  550000 800000 0  600000 800000 0  650000 800000 0  700000 800000 0  750000 800000 0  800000 800000 0  850000 800000 0  900000 800000 0  950000 800000 0  1000000 800000 0  0 850000 0  50000 850000 0  100000 850000 0  150000 850000 0  200000 850000 0  250000 850000 0  300000 850000 0  350000 850000 0  400000 850000 0  450000 850000 0  500000 850000 0  550000 850000 0  600000 850000 0  650000 850000 0  700000 850000 0  750000 850000 0  800000 850000 0  850000 850000 0  900000 850000 0  950000 850000 0  1000000 850000 0  0 900000 0  50000 900000 0  100000 900000 0  150000 900000 0  200000 900000 0  250000 900000 0  300000 900000 0  350000 900000 0  400000 900000 0  450000 900000 0  500000 900000 0  550000 900000 0  600000 900000 0  650000 900000 0  700000 900000 0  750000 900000 0  800000 900000 0  850000 900000 0  900000 900000 0  950000 900000 0  1000000 900000 0  0 950000 0  50000 950000 0  100000 950000 0  150000 950000 0  200000 950000 0  250000 950000 0  300000 950000 0  350000 950000 0  400000 950000 0  450000 950000 0  500000 950000 0  550000 950000 0  600000 950000 0  650000 950000 0  700000 950000 0  750000 950000 0  800000 950000 0  850000 950000 0  900000 950000 0  950000 950000 0  1000000 950000 0  0 1000000 0  50000 1000000 0  100000 1000000 0  150000 1000000 0  200000 1000000 0  250000 1000000 0  300000 1000000 0  350000 1000000 0  400000 1000000 0  450000 1000000 0  500000 1000000 0  550000 1000000 0  600000 1000000 0  650000 1000000 0  700000 1000000 0  750000 1000000 0  800000 1000000 0  850000 1000000 0  900000 1000000 0  950000 1000000 0  1000000 1000000 0  0 1050000 0  50000 1050000 0  100000 1050000 0  150000 1050000 0  200000 1050000 0  250000 1050000 0  300000 1050000 0  350000 1050000 0  400000 1050000 0  450000 1050000 0  500000 1050000 0  550000 1050000 0  600000 1050000 0  650000 1050000 0  700000 1050000 0  750000 1050000 0  800000 1050000 0  850000 1050000 0  900000 1050000 0  950000 1050000 0  1000000 1050000 0  0 1100000 0  50000 1100000 0  100000 1100000 0  150000 1100000 0  200000 1100000 0  250000 1100000 0  300000 1100000 0  350000 1100000 0  400000 1100000 0  450000 1100000 0  500000 1100000 0  550000 1100000 0  600000 1100000 0  650000 1100000 0  700000 1100000 0  750000 1100000 0  800000 1100000 0  850000 1100000 0  900000 1100000 0  950000 1100000 0  1000000 1100000 0  0 1150000 0  50000 1150000 0  100000 1150000 0  150000 1150000 0  200000 1150000 0  250000 1150000 0  300000 1150000 0  350000 1150000 0  400000 1150000 0  450000 1150000 0  500000 1150000 0  550000 1150000 0  600000 1150000 0  650000 1150000 0  700000 1150000 0  750000 1150000 0  800000 1150000 0  850000 1150000 0  900000 1150000 0  950000 1150000 0  1000000 1150000 0  0 1200000 0  50000 1200000 0  100000 1200000 0  150000 1200000 0  200000 1200000 0  250000 1200000 0  300000 1200000 0  350000 1200000 0  400000 1200000 0  450000 1200000 0  500000 1200000 0  550000 1200000 0  600000 1200000 0  650000 1200000 0  700000 1200000 0  750000 1200000 0  800000 1200000 0  850000 1200000 0  900000 1200000 0  950000 1200000 0  1000000 1200000 0  0 1250000 0  50000 1250000 0  100000 1250000 0  150000 1250000 0  200000 1250000 0  250000 1250000 0  300000 1250000 0  350000 1250000 0  400000 1250000 0  450000 1250000 0  500000 1250000 0  550000 1250000 0  600000 1250000 0  650000 1250000 0  700000 1250000 0  750000 1250000 0  800000 1250000 0  850000 1250000 0  900000 1250000 0  950000 1250000 0  1000000 1250000 0  0 1300000 0  50000 1300000 0  100000 1300000 0  150000 1300000 0  200000 1300000 0  250000 1300000 0  300000 1300000 0  350000 1300000 0  400000 1300000 0  450000 1300000 0  500000 1300000 0  550000 1300000 0  600000 1300000 0  650000 1300000 0  700000 1300000 0  750000 1300000 0  800000 1300000 0  850000 1300000 0  900000 1300000 0  950000 1300000 0  1000000 1300000 0  0 1350000 0  50000 1350000 0  100000 1350000 0  150000 1350000 0  200000 1350000 0  250000 1350000 0  300000 1350000 0  350000 1350000 0  400000 1350000 0  450000 1350000 0  500000 1350000 0  550000 1350000 0  600000 1350000 0  650000 1350000 0  700000 135
[...]
<PointData  Vectors="f_19"> 
<DataArray  type="Float64"  Name="f_19"  NumberOfComponents="3" format="ascii">-2.4169040175052328e-08 -1.1048140793460346e-08 0.0000000000000000e+00  4.8886283882994035e-08 -7.1086440946710089e-09 0.0000000000000000e+00  4.3172348620099211e-08 -2.7790419557189309e-09 0.0000000000000000e+00  4.0732190583783172e-08 -1.3972822962190541e-09 0.0000000000000000e+00  3.9536324334407636e-08 -9.1633991241023005e-10 0.0000000000000000e+00  3.8751539959820344e-08 -7.1318245738391518e-10 0.0000000000000000e+00  3.8180653926313711e-08 -6.1739162233679883e-10 0.0000000000000000e+00  3.7766751918174636e-08 -5.6917193879118552e-10 0.0000000000000000e+00  3.7492225541948162e-08 -5.4172658954409885e-10 0.0000000000000000e+00  3.7353156436308134e-08 -5.1969864141631986e-10 0.0000000000000000e+00  3.7351723348675783e-08 -4.9191654824438797e-10 0.0000000000000000e+00  3.7494562198784344e-08 -4.4829699262044684e-10 0.0000000000000000e+00  3.7794381022192144e-08 -3.7767717295535864e-10 0.0000000000000000e+00  3.8275834942116119e-08 -2.6470529986896824e-10 0.0000000000000000e+00  3.8991135735941262e-08 -8.2936323208078631e-11 0.0000000000000000e+00  4.0061759501420573e-08 2.2307448522319024e-10 0.0000000000000000e+00  4.1789689830068084e-08 7.8662749663859031e-10 0.0000000000000000e+00  4.4919674592486381e-08 1.9462801941584221e-09 0.0000000000000000e+00  5.0775913720378519e-08 4.5139506985762715e-09 0.0000000000000000e+00  5.8022335933133561e-08 9.0533711309924087e-09 0.0000000000000000e+00  -1.6429436802913500e-08 6.9490561438269757e-09 0.0000000000000000e+00  -1.7904850330631482e-08 -1.6608824635902140e-08 0.0000000000000000e+00  7.4326448779544799e-09 -1.1579297781351977e-08 0.0000000000000000e+00  1.8446814473043390e-08 -5.3687843904739878e-09 0.0000000000000000e+00  2.3504430418469111e-08 -2.5006458135598121e-09 0.0000000000000000e+00  2.6065835416271345e-08 -1.2374857583334542e-09 0.0000000000000000e+00  2.7503662456816519e-08 -6.3880212099702875e-10 0.0000000000000000e+00  2.8326971241690145e-08 -3.3520895349416125e-10 0.0000000000000000e+00  2.8793866591086421e-08 -1.7618187190115313e-10 0.0000000000000000e+00  2.9047819205157178e-08 -9.2861242628871424e-11 0.0000000000000000e+00  2.9169617452438016e-08 -4.8249872378493626e-11 0.0000000000000000e+00  2.9202411849844059e-08 -1.8320098997777666e-11 0.0000000000000000e+00  2.9163215486225006e-08 1.6675960022618241e-11 0.0000000000000000e+00  2.9046775182830433e-08 7.8034865682446880e-11 0.0000000000000000e+00  2.8823781007554528e-08 1.9537968105350599e-10 0.0000000000000000e+00  2.8432374884920284e-08 4.1873681987933730e-10 0.0000000000000000e+00  2.7756932274504922e-08 8.4481787657276134e-10 0.0000000000000000e+00  2.6572143621379364e-08 1.6782609882726513e-09 0.0000000000000000e+00  2.4364798683141381e-08 3.3676998427876073e-09 0.0000000000000000e+00  1.9684855595443781e-08 6.8073372787239991e-09 0.0000000000000000e+00  8.2792235369305151e-09 1.2965996607680335e-08 0.0000000000000000e+00  -1.8396917147994254e-08 1.0880818047185127e-08 0.0000000000000000e+00  -1.0888153233674536e-08 -2.0198409933358569e-08 0.0000000000000000e+00  -1.4444204775622580e-10 -1.8749867888413934e-08 0.0000000000000000e+00  6.0781630010819098e-09 -1.1386006814278471e-08 0.0000000000000000e+00  1.1005623650200409e-08 -6.5640005505444398e-09 0.0000000000000000e+00  1.4816044364343567e-08 -3.7839355929176659e-09 0.0000000000000000e+00  1.7438364133528117e-08 -2.2009555045580311e-09 0.0000000000000000e+00  1.9177171288730763e-08 -1.2708646648487075e-09 0.0000000000000000e+00  2.0302506796654691e-08 -7.0185289847916589e-10 0.0000000000000000e+00  2.0995377035490361e-08 -3.3545979550736438e-10 0.0000000000000000e+00  2.1367489896894265e-08 -7.8378451876796685e-11 0.0000000000000000e+00  2.1480086155547935e-08 1.3239616831105888e-10 0.0000000000000000e+00  2.1355016634732308e-08 3.4859166496145230e-10 0.0000000000000000e+00  2.0978654612195979e-08 6.2399224661798452e-10 0.0000000000000000e+00  2.0299340889641915e-08 1.0283754584548208e-09 0.0000000000000000e+00  1.9217822093983269e-08 1.6679731551341940e-09 0.0000000000000000e+00  1.7568831371549453e-08 2.7200929415613974e-09 0.0000000000000000e+00  1.5092492162403094e-08 4.4881981206488043e-09 0.0000000000000000e+00  1.1405780561393210e-08 7.4504858575825958e-09 0.0000000000000000e+00  6.0409371422414983e-09 1.2078749594782437e-08 0.0000000000000000e+00  -1.2564569874931378e-09 1.7535278880412587e-08 0.0000000000000000e+00  -1.3203939809956556e-08 1.4623078555506739e-08 0.0000000000000000e+00  -7.1595285845339563e-09 -2.0801195735065159e-08 0.0000000000000000e+00  -1.4816456279400975e-09 -2.0279627770275050e-08 0.0000000000000000e+00  1.2645876857163519e-09 -1.5413299242431176e-08 0.0000000000000000e+00  4.0972118546842311e-09 -1.0439861932585454e-08 0.0000000000000000e+00  7.0154194095497985e-09 -6.8197652857574426e-09 0.0000000000000000e+00  9.5289269859768174e-09 -4.3850566626065071e-09 0.0000000000000000e+00  1.1451693883140675e-08 -2.7673304797237170e-09 0.0000000000000000e+00  1.2815572363304595e-08 -1.6717555320215831e-09 0.0000000000000000e+00  1.3709092171974547e-08 -8.9706016400909130e-10 0.0000000000000000e+00  1.4209453784117382e-08 -3.0574376501214052e-10 0.0000000000000000e+00  1.4365708011765445e-08 2.0388304728286949e-10 0.0000000000000000e+00  1.4196425628566228e-08 7.1828539924289936e-10 0.0000000000000000e+00  1.3689985465461653e-08 1.3250426758342692e-09 0.0000000000000000e+00  1.2804802269407484e-08 2.1286888422178981e-09 0.0000000000000000e+00  1.1470823664627222e-08 3.2686413434178782e-09 0.0000000000000000e+00  9.5985623500570117e-09 4.9375486626661470e-09 0.0000000000000000e+00  7.1125407157016695e-09 7.3821513884311792e-09 0.0000000000000000e+00  4.0432452729193002e-09 1.0816180518687561e-08 0.0000000000000000e+00  6.8351774281447769e-10 1.5054507392424696e-08 0.0000000000000000e+00  -2.5881263645245098e-09 1.8711218131031452e-08 0.0000000000000000e+00  -8.8592976436699192e-09 1.7463807868693762e-08 0.0000000000000000e+00  -5.2685904956195973e-09 -2.0189148079562755e-08 0.0000000000000000e+00  -1.8371725710781967e-09 -2.0078137878716569e-08 0.0000000000000000e+00  -8.4600135841731039e-10 -1.6894561002178598e-08 0.0000000000000000e+00  3.3726371754941277e-10 -1.2849259374702024e-08 0.0000000000000000e+00  2.0064889710688587e-09 -9.2261655506245098e-09 0.0000000000000000e+00  3.7872147260853764e-09 -6.3995549353846432e-09 0.0000000000000000e+00  5.3626614635314128e-09 -4.2983705507943842e-09 0.0000000000000000e+00  6.5951363383457102e-09 -2.7423544963493132e-09 0.0000000000000000e+00  7.4558215619411471e-09 -1.5578396652493459e-09 0.0000000000000000e+00  7.9574033907409150e-09 -6.0045081251011154e-10 0.0000000000000000e+00  8.1180806204473368e-09 2.5014249093527735e-10 0.0000000000000000e+00  7.9469201930613387e-09 1.1017657456130756e-09 0.0000000000000000e+00  7.4399212952375726e-09 2.0616416242354531e-09 0.0000000000000000e+00  6.5827649781912604e-09 3.2470639797028727e-09 0.0000000000000000e+00  5.3615674086244023e-09 4.7923299891698013e-09 0.0000000000000000e+00  3.7877282286906569e-09 6.8433447520439413e-09 0.0000000000000000e+00  1.9462380779108261e-09 9.5165331007800513e-09 0.0000000000000000e+00  6.4482720255335778e-11 1.2774522666063495e-08 0.0000000000000000e+00  -1.4914832120350828e-09 1.6173699780228090e-08 0.0000000000000000e+00  -2.7041878733007912e-09 1.8667594938264072e-08 0.0000000000000000e+00  -6.5158181509753843e-09 1.8446185106128276e-08 0.0000000000000000e+00  -4.1880409365074218e-09 -1.9037645790030178e-08 0.0000000000000000e+00  -2.0172580054805446e-09 -1.9177718043690238e-08 0.0000000000000000e+00  -1.9601519471683299e-09 -1.6967210172119225e-08 0.0000000000000000e+00  -1.8432212707524195e-09 -1.3852037066945643e-08 0.0000000000000000e+00  -1.2161655191266870e-09 -1.0648099888636010e-08 0.0000000000000000e+00  -2.6216814768158523e-10 -7.8292410916188978e-09 0.0000000000000000e+00  7.5215871102023677e-10 -5.5175015280569184e-09 0.0000000000000000e+00  1.6411568379642476e-09 -3.6636892271328893e-09 0.0000000000000000e+00  2.3087727758157537e-09 -2.1590503305025705e-09 0.0000000000000000e+00  2.7153170365698112e-09 -8.8416911414245301e-10 0.0000000000000000e+00  2.8483939900395348e-09 2.7614104802430688e-10 0.0000000000000000e+00  2.7065068493615016e-09 1.4318871584730997e-09 0.0000000000000000e+00  2.2934525046369695e-09 2.6911698151543184e-09 0.0000000000000000e+00  1.6215439898570429e-09 4.1623491584545724e-09 0.0000000000000000e+00  7.2383263510167458e-10 5.9496778116350607e-09 0.0000000000000000e+00  -3.2345981331432703e-10 8.1333768045407187e-09 0.0000000000000000e+00  -1.3713819233059259e-09 1.0719705724814900e-08 0.0000000000000000e+00  -2.1859384949079208e-09 1.3548394423911680e-08 0.0000000000000000e+00  -2.5445511329340912e-09 1.6183818394652078e-08 0.0000000000000000e+00  -2.6893022452104258e-09 1.7969104448784552e-08 0.0000000000000000e+00  -5.1114124388977590e-09 1.8190135389991597e-08 0.0000000000000000e+00  -3.4930968959124383e-09 -1.7588392689454813e-08 0.0000000000000000e+00  -2.1511844140336693e-09 -1.7896293813495668e-08 0.0000000000000000e+00  -2.6541808771824998e-09 -1.6279000467838071e-08 0.0000000000000000e+00  -3.2154463088577004e-09 -1.3872176536592869e-08 0.0000000000000000e+00  -3.3523648337844952e-09 -1.1174685367112831e-08 0.0000000000000000e+00  -3.1113763636842963e-09 -8.5797331025261358e-09 0.0000000000000000e+00  -2.6697376413551300e-09 -6.2748838774595700e-09 0.0000000000000000e+00  -2.1920088834846465e-09 -4.2966859796879906e-09 0.0000000000000000e+00  -1.7909189023682885e-09 -2.6000336616253180e-09 0.0000000000000000e+00  -1.5314451288236166e-09 -1.1038044948682768e-09 0.0000000000000000e+00  -1.4450265432554039e-09 2.8586856979084868e-10 0.0000000000000000e+00  -1.5407179148920119e-09 1.6654277093639527e-09 0.0000000000000000e+00  -1.8097770434887874e-09 3.1290312069213662e-09 0.0000000000000000e+00  -2.2234603613566102e-09 4.7631856954990496e-09 0.0000000000000000e+00  -2.7247154659370985e-09 6.6354830076582239e-09 0.0000000000000000e+00  -3.2162143332560886e-09 8.7715351986854295e-09 0.0000000000000000e+00  -3.5530872545209843e-09 1.1115518308441488e-08 0.0000000000000000e+00  -3.5640131108428503e-09 1.3479787749834213e-08 0.0000000000000000e+00  -3.1604687334914155e-09 1.5518972612980601e-08 0.0000000000000000e+00  -2.6805524062772418e-09 1.6842847195216039e-08 0.0000000000000000e+00  -4.1772924713678120e-09 1.7264027597688911e-08 0.0000000000000000e+00  -3.0072110573318261e-09 -1.5941010986141456e-08 0.0000000000000000e+00  -2.2596226947618884e-09 -1.6365426590675787e-08 0.0000000000000000e+00  -3.1353533593846889e-09 -1.5134592873238990e-08 0.0000000000000000e+00  -4.1411884369088686e-09 -1.3246571255514379e-08 0.0000000000000000e+00  -4.8171856573695339e-09 -1.1012760095392508e-08 0.0000000000000000e+00  -5.1319585503411244e-09 -8.7234291706835371e-09 0.0000000000000000e+00  -5.1854572643509996e-09 -6.5605704496630790e-09 0.0000000000000000e+00  -5.0990558105266958e-09 -4.5988963570272099e-09 0.0000000000000000e+00  -4.9726471470301339e-09 -2.8376477663544052e-09 0.0000000000000000e+00  -4.8739348744846307e-09 -1.2320349000642939e-09 0.0000000000000000e+00  -4.8406492965753035e-09 2.8461413016796952e-10 0.0000000000000000e+00  -4.8852065413526391e-09 1.7868622942071978e-09 0.0000000000000000e+00  -4.9972378798817331e-09 3.3473378570517266e-09 0.0000000000000000e+00  -5.1427809630638195e-09 5.0269356559003143e-09 0.0000000000000000e+00  -5.2610488873994078e-09 6.8613478894826717e-09 0.0000000000000000e+00  -5.2621596311441961e-09 8.8413377576561394e-09 0.0000000000000000e+00  -5.0335489389672750e-09 1.0887634792310511e-08 0.0000000000000000e+00  -4.4709805208099207e-09 1.2829950178208683e-08 0.0000000000000000e+00  -3.5703384764169139e-09 1.4415453074798734e-08 0.0000000000000000e+00  -2.6835503571317494e-09 1.5417859466203133e-08 0.0000000000000000e+00  -3.5108650302703672e-09 1.5941877013956577e-08 0.0000000000000000e+00  -2.6490838080705987e-09 -1.4148791588664591e-08 0.0000000000000000e+00  -2.3475739982941485e-09 -1.4655609389773628e-08 0.0000000000000000e+00  -3.4882474678418994e-09 -1.3692355634402222e-08 0.0000000000000000e+00  -4.7958860044498177e-09 -1.2190837282103751e-08 0.0000000000000000e+00  -5.8490734879112469e-09 -1.0352175541610979e-08 0.0000000000000000e+00  -6.5770413834059271e-09 -8.3827930576009865e-09 0.0000000000000000e+00  -7.0244943378715951e-09 -6.4343371014193847e-09 0.0000000000000000e+00  -7.2700367874882795e-09 -4.5893055753995696e-09 0.0000000000000000e+00  -7.3894182854615838e-09 -2.8712168775571749e-09 0.0000000000000000e+00  -7.4402615518501513e-09 -1.2627112941383152e-09 0.0000000000000000e+00  -7.4576213641057610e-09 2.7740272753037174e-10 0.0000000000000000e+00  -7.4538927826877606e-09 1.8004265246345988e-09 0.0000000000000000e+00  -7.4195100782974333e-09 3.3563655645635481e-09 0.0000000000000000e+00  -7.3232201055466616e-09 4.9828079684182838e-09 0.0000000000000000e+00  -7.1126606937834051e-09 6.6923005812595171e-09 0.0000000000000000e+00  -6.7179447279660508e-09 8.4578150381548664e-09 0.0000000000000000e+00  -6.0633990627663706e-09 1.0198936937605168e-08 0.0000000000000000e+00  -5.0968321278168038e-09 1.1776589865203721e-08 0.0000000000000000e+00  -3.8604828126063140e-09 1.3011509055191269e-08 0.0000000000000000e+00  -2.6902251995771885e-09 1.3776239611267254e-08 0.0000000000000000e+00  -3.0151296549390351e-09 1.4359575508476748e-08 0.0000000000000000e+00  -2.3771985701228794e-09 -1.2247209811580899e-08 0.0000000000000000e+00  -2.4179576019464696e-09 -1.2812632704107727e-08 0.0000000000000000e+00  -3.7535257319089622e-09 -1.2045559889591090e-08 0.0000000000000000e+00  -5.2711547963878100e-09 -1.0842195485540608e-08 0.0000000000000000e+00  -6.5879848808052823e-09 -9.3375999001996389e-09 0.0000000000000000e+00  -7.6151050677027308e-09 -7.6767847878186264e-09 0.0000000000000000e+00  -8.3607852140727747e-09 -5.9776816241005582e-09 0.0000000000000000e+00  -8.8688681399095331e-09 -4.3157153717514692e-09 0.0000000000000000e+00  -9.1900130329923609e-09 -2.7241817956671090e-09 0.0000000000000000e+00  -9.3669574462899338e-09 -1.2033206880790406e-09 0.0000000000000000e+00  -9.4275851642994922e-09 2.6801716982344753e-10 0.0000000000000000e+00  -9.3823120472975135e-09 1.7209401713213304e-09 0.0000000000000000e+00  -9.2236344164179218e-09 3.1858667799556011e-09 0.0000000000000000e+00  -8.9269896362349258e-09 4.6821929032091113e-09 0.0000000000000000e+00  -8.4533579876824200e-09 6.2078861929679748e-09 0.0000000000000000e+00  -7.7552308222477569e-09 7.7296454513775195e-09 0.0000000000000000e+00  -6.7887960125210618e-09 9.1761951472381605e-09 0.0000000000000000e+00  -5.5379175347369923e-09 1.0439854307793124e-08 0.0000000000000000e+00  -4.0688181359543159e-09 1.1395234676716774e-08 0.0000000000000000e+00  -2.6946570054193988e-09 1.1974681143227500e-08 0.0000000000000000e+00  -2.6385084426007811e-09 1.2595008379896590e-08 0.0000000000000000e+00  -2.1686196117325435e-09 -1.0262940136490103e-08 0.0000000000000000e+00  -2.4736066257850637e-09 -1.0869827073599591e-08 0.0000000000000000e+00  -3.9543573646501726e-09 -1.0254840745766787e-08 0.0000000000000000e+00  -5.6196308767466881e-09 -9.2913751693041984e-09 0.0000000000000000e+00  -7.1200766429003558e-09 -8.0740317020363700e-09 0.0000000000000000e+00  -8.3594650864730079e-09 -6.7040955744110419e-09 0.0000000000000000e+00  -9.3229468300577613e-09 -5.2696588601334239e-09 0.0000000000000000e+00  -1.0028592835299836e-08 -3.8334316150971287e-09 0.0000000000000000e+00  -1.0505536143272128e-08 -2.4296605590068800e-09 0.0000000000000000e+00  -1.0781625464517229e-08 -1.0680483462206858e-09 0.0000000000000000e+00  -1.0876373663853768e-08 2.5882727504129429e-10 0.0000000000000000e+00  -1.0797475855470161e-08 1.5668940777375925e-09 0.0000000000000000e+00  -1.0539829608896449e-08 2.8718291496921777e-09 0.0000000000000000e+00  -1.0086584381099262e-08 4.1805462554094813e-09 0.0000000000000000e+00  -9.4123972995918933e-09 5.4832940904105924e-09 0.0000000000000000e+00  -8.4896535427736524e-09 6.7473212410245144e-09 0.0000000000000000e+00  -7.2990488127336849e-09 7.9140577835392390e-09 0.0000000000000000e+00  -5.8483183305657648e-09 8.9028702712645119e-09 0.0000000000000000e+00  -4.2158181405218050e-09 9.6268893664365795e-09 0.0000000000000000e+00  -2.6941136768691406e-09 1.0055004529935299e-08 0.0000000000000000e+00  -2.3509060563560071e-09 1.0699375862371816e-08 0.0000000000000000e+00  -2.0100651133084414e-09 -8.2171209753005877e-09 0.0000000000000000e+00  -2.5174470966072763e-09 -8.8528967851220401e-09 0.0000000000000000e+00  -4.1059565355269588e-09 -8.3624441641119635e-09 0.0000000000000000e+00  -5.8745349431396968e-09 -7.6007816159957039e-09 0.0000000000000000e+00  -7.5013006641492084e-09 -6.6371702788795542e-09 0.0000000000000000e+00  -8.8879394268825647e-09 -5.5416518966543232e-09 0.0000000000000000e+00  -1.0005283550333752e-08 -4.3777724202046100e-09 0.0000000000000000e+00  -1.0853335221266301e-08 -3.1943074890430927e-09 0.0000000000000000e+00  -1.1444561180734978e-08 -2.0216172839816535e-09 0.0000000000000000e+00  -1.1794180696651006e-08 -8.7295788258276178e-10 0.0000000000000000e+00  -1.1914018564444954e-08 2.5104954379387489e-10 0.0000000000000000e+00  -1.1809081762469354e-08 1.3563725084368691e-09 0.0000000000000000e+00  -1.1476455207966548e-08 2.4489930135683205e-09 0.0000000000000000e+00  -1.0906311253446739e-08 3.5284826115422353e-09 0.0000000000000000e+00  -1.0085052147928667e-08 4.5823636911971235e-09 0.0000000000000000e+00  -9.0008139073800071e-09 5.5821619837096939e-09 0.0000000000000000e+00  -7.6519862676143457e-09 6.4824697063385797e-09 0.0000000000000000e+00  -6.0618333094503199e-09 7.2247668553506222e-09 0.0000000000000000e+00  -4.3149207794738089e-09 7.7498826798112648e-09 0.0000000000000000e+00  -2.6880810462469993e-09 8.0493515160378353e-09 0.0000000000000000e+00  -2.1334128183803801e-09 8.7095443912871414e-09 0.0000000000000000e+00  -1.8937518483587092e-09 -6.1268622265177494e-09 0.0000000000000000e+00  -2.5523334464869067e-09 -6.7822287158023733e-09 0.0000000000000000e+00  -4.2192138455254797e-09 -6.3992331292734295e-09 0.0000000000000000e+00  -6.0583062923975191e-09 -5.8148358473970141e-09 0.0000000000000000e+00  -7.7694804655996404e-09 -5.0820245566254231e-09 0.0000000000000000e+00  -9.2547286346253870e-09 -4.2479784942110021e-09 0.0000000000000000e+00  -1.0476280841052890e-08 -3.3563680248118419e-09 0.0000000000000000e+00  -1.1422076247541176e-08 -2.4425679020015686e-09 0.0000000000000000e+00  -1.2092627052297136e-08 -1.5306046180890775e-09 0.0000000000000000e+00  -1.2493524611918581e-08 -6.3331071362696532e-10 0.0000000000000000e+00  -1.2630429817818883e-08 2.4512829224502525e-10 0.0000000000000000e+00  -1.2506085758624449e-08 1.1052179796413783e-09 0.0000000000000000e+00  -1.2119290173098707e-08 1.9476138724039752e-09 0.0000000000000000e+00  -1.1465778685315558e-08 2.7686512472607756e-09 0.0000000000000000e+00  -1.0540959267919749e-08 3.5565626125983300e-09 0.0000000000000000e+00  -9.3444621856397021e-09 4.2890880765536585e-09 0.0000000000000000e+00  -7.8868533227807684e-09 4.9333094761759705e-09 0.0000000000000000e+00  -6.2013980194925152e-09 5.4487132917708533e-09 0.0000000000000000e+00  -4.3760599551934484e-09 5.7966200172384136e-09 0.0000000000000000e+00  -2.6772491980273531e-09 5.9829249096211426e-09 0.0000000000000000e+00  -1.9734759273165760e-09 6.6533408504158125e-09 0.0000000000000000e+00  -1.8152963853792682e-09 -4.0062454378915839e-09 0.0000000000000000e+00  -2.5808301829635313e-09 -4.6743025128087312e-09 0.0000000000000000e+00  -4.3020894425288532e-09 -4.3886185328268500e-09 0.0000000000000000e+00  -6.1864518923224008e-09 -3.9662308929537758e-09 0.0000000000000000e+00  -7.9504179709261923e-09 -3.4492903922078998e-09 0.0000000000000000e+00  -9.4972745257233107e-09 -2.8675167549386234e-09 0.0000000000000000e+00  -1.0784424372422245e-08 -2.2482087397