<?xml version="1.0"?>
<VTKFile type="UnstructuredGrid"  version="0.1"  >
<UnstructuredGrid>
<Piece  NumberOfPoints="651" NumberOfCells="1200">
<Points>
<DataArray  type="Float64"  NumberOfComponents="3"  format="ascii">0 0 0  50000 0 0  100000 0 0  150000 0 0  200000 0 0  250000 0 0  300000 0 0  350000 0 0  400000 0 0  450000 0 0  500000 0 0  550000 0 0  600000 0 0  650000 0 0  700000 0 0  750000 0 0  800000 0 0  850000 0 0  900000 0 0  950000 0 0  1000000 0 0  0 50000 0  50000 50000 0  100000 50000 0  150000 50000 0  200000 50000 0  250000 50000 0  300000 50000 0  350000 50000 0  400000 50000 0  450000 50000 0  500000 50000 0  550000 50000 0  600000 50000 0  650000 50000 0  700000 50000 0  750000 50000 0  800000 50000 0  850000 50000 0  900000 50000 0  950000 50000 0  1000000 50000 0  0 100000 0  50000 100000 0  100000 100000 0  150000 100000 0  200000 100000 0  250000 100000 0  300000 100000 0  350000 100000 0  400000 100000 0  450000 100000 0  500000 100000 0  550000 100000 0  600000 100000 0  650000 100000 0  700000 100000 0  750000 100000 0  800000 100000 0  850000 100000 0  900000 100000 0  950000 100000 0  1000000 100000 0  0 150000 0  50000 150000 0  100000 150000 0  150000 150000 0  200000 150000 0  250000 150000 0  300000 150000 0  350000 150000 0  400000 150000 0  450000 150000 0  500000 150000 0  550000 150000 0  600000 150000 0  650000 150000 0  700000 150000 0  750000 150000 0  800000 150000 0  850000 150000 0  900000 150000 0  950000 150000 0  1000000 150000 0  0 200000 0  50000 200000 0  100000 200000 0  150000 200000 0  200000 200000 0  250000 200000 0  300000 200000 0  350000 200000 0  400000 200000 0  450000 200000 0  500000 200000 0  550000 200000 0  600000 200000 0  650000 200000 0  700000 200000 0  750000 200000 0  800000 200000 0  850000 200000 0  900000 200000 0  950000 200000 0  1000000 200000 0  0 250000 0  50000 250000 0  100000 250000 0  150000 250000 0  200000 250000 0  250000 250000 0  300000 250000 0  350000 250000 0  400000 250000 0  450000 250000 0  500000 250000 0  550000 250000 0  600000 250000 0  650000 250000 0  700000 250000 0  750000 250000 0  800000 250000 0  850000 250000 0  900000 250000 0  950000 250000 0  1000000 250000 0  0 300000 0  50000 300000 0  100000 300000 0  150000 300000 0  200000 300000 0  250000 300000 0  300000 300000 0  350000 300000 0  400000 300000 0  450000 300000 0  500000 300000 0  550000 300000 0  600000 300000 0  650000 300000 0  700000 300000 0  750000 300000 0  800000 300000 0  850000 300000 0  900000 300000 0  950000 300000 0  1000000 300000 0  0 350000 0  50000 350000 0  100000 350000 0  150000 350000 0  200000 350000 0  250000 350000 0  300000 350000 0  350000 350000 0  400000 350000 0  450000 350000 0  500000 350000 0  550000 350000 0  600000 350000 0  650000 350000 0  700000 350000 0  750000 350000 0  800000 350000 0  850000 350000 0  900000 350000 0  950000 350000 0  1000000 350000 0  0 400000 0  50000 400000 0  100000 400000 0  150000 400000 0  200000 400000 0  250000 400000 0  300000 400000 0  350000 400000 0  400000 400000 0  450000 400000 0  500000 400000 0  550000 400000 0  600000 400000 0  650000 400000 0  700000 400000 0  750000 400000 0  800000 400000 0  850000 400000 0  900000 400000 0  950000 400000 0  1000000 400000 0  0 450000 0  50000 450000 0  100000 450000 0  150000 450000 0  200000 450000 0  250000 450000 0  300000 450000 0  350000 450000 0  400000 450000 0  450000 450000 0  500000 450000 0  550000 450000 0  600000 450000 0  650000 450000 0  700000 450000 0  750000 450000 0  800000 450000 0  850000 450000 0  900000 450000 0  950000 450000 0  1000000 450000 0  0 500000 0  50000 500000 0  100000 500000 0  150000 500000 0  200000 500000 0  250000 500000 0  300000 500000 0  350000 500000 0  400000 500000 0  450000 500000 0  500000 500000 0  550000 500000 0  600000 500000 0  650000 500000 0  700000 500000 0  750000 500000 0  800000 500000 0  850000 500000 0  900000 500000 0  950000 500000 0  1000000 500000 0  0 550000 0  50000 550000 0  100000 550000 0  150000 550000 0  200000 550000 0  250000 550000 0  300000 550000 0  350000 550000 0  400000 550000 0  450000 550000 0  500000 550000 0  550000 550000 0  600000 550000 0  650000 550000 0  700000 550000 0  750000 550000 0  800000 550000 0  850000 550000 0  900000 550000 0  950000 550000 0  1000000 550000 0  0 600000 0  50000 600000 0  100000 600000 0  150000 600000 0  200000 600000 0  250000 600000 0  300000 600000 0  350000 600000 0  400000 600000 0  450000 600000 0  500000 600000 0  550000 600000 0  600000 600000 0  650000 600000 0  700000 600000 0  750000 600000 0  800000 600000 0  850000 600000 0  900000 600000 0  950000 600000 0  1000000 600000 0  0 650000 0  50000 650000 0  100000 650000 0  150000 650000 0  200000 650000 0  250000 650000 0  300000 650000 0  350000 650000 0  400000 650000 0  450000 650000 0  500000 650000 0  550000 650000 0  600000 650000 0  650000 650000 0  700000 650000 0  750000 650000 0  800000 650000 0  850000 650000 0  900000 650000 0  950000 650000 0  1000000 650000 0  0 700000 0  50000 700000 0  100000 700000 0  150000 700000 0  200000 700000 0  250000 700000 0  300000 700000 0  350000 700000 0  400000 700000 0  450000 700000 0  500000 700000 0  550000 700000 0  600000 700000 0  650000 700000 0  700000 700000 0  750000 700000 0  800000 700000 0  850000 700000 0  900000 700000 0  950000 700000 0  1000000 700000 0  0 750000 0  50000 750000 0  100000 750000 0  150000 750000 0  200000 750000 0  250000 750000 0  300000 750000 0  350000 750000 0  400000 750000 0  450000 750000 0  500000 750000 0  550000 750000 0  600000 750000 0  650000 750000 0  700000 750000 0  750000 750000 0  800000 750000 0  850000 750000 0  900000 750000 0  950000 750000 0  1000000 750000 0  0 800000 0  50000 800000 0  100000 800000 0  150000 800000 0  200000 800000 0  250000 800000 0  300000 800000 0  350000 800000 0  400000 800000 0  450000 800000 0  500000 800000 0  550000 800000 0  600000 800000 0  650000 800000 0  700000 800000 0  750000 800000 0  800000 800000 0  850000 800000 0  900000 800000 0  950000 800000 0  1000000 800000 0  0 850000 0  50000 850000 0  100000 850000 0  150000 850000 0  200000 850000 0  250000 850000 0  300000 850000 0  350000 850000 0  400000 850000 0  450000 850000 0  500000 850000 0  550000 850000 0  600000 850000 0  650000 850000 0  700000 850000 0  750000 850000 0  800000 850000 0  850000 850000 0  900000 850000 0  950000 850000 0  1000000 850000 0  0 900000 0  50000 900000 0  100000 900000 0  150000 900000 0  200000 900000 0  250000 900000 0  300000 900000 0  350000 900000 0  400000 900000 0  450000 900000 0  500000 900000 0  550000 900000 0  600000 900000 0  650000 900000 0  700000 900000 0  750000 900000 0  800000 900000 0  850000 900000 0  900000 900000 0  950000 900000 0  1000000 900000 0  0 950000 0  50000 950000 0  100000 950000 0  150000 950000 0  200000 950000 0  250000 950000 0  300000 950000 0  350000 950000 0  400000 950000 0  450000 950000 0  500000 950000 0  550000 950000 0  600000 950000 0  650000 950000 0  700000 950000 0  750000 950000 0  800000 950000 0  850000 950000 0  900000 950000 0  950000 950000 0  1000000 950000 0  0 1000000 0  50000 1000000 0  100000 1000000 0  150000 1000000 0  200000 1000000 0  250000 1000000 0  300000 1000000 0  350000 1000000 0  400000 1000000 0  450000 1000000 0  500000 1000000 0  550000 1000000 0  600000 1000000 0  650000 1000000 0  700000 1000000 0  750000 1000000 0  800000 1000000 0  850000 1000000 0  900000 1000000 0  950000 1000000 0  1000000 1000000 0  0 1050000 0  50000 1050000 0  100000 1050000 0  150000 1050000 0  200000 1050000 0  250000 1050000 0  300000 1050000 0  350000 1050000 0  400000 1050000 0  450000 1050000 0  500000 1050000 0  550000 1050000 0  600000 1050000 0  650000 1050000 0  700000 1050000 0  750000 1050000 0  800000 1050000 0  850000 1050000 0  900000 1050000 0  950000 1050000 0  1000000 1050000 0  0 1100000 0  50000 1100000 0  100000 1100000 0  150000 1100000 0  200000 1100000 0  250000 1100000 0  300000 1100000 0  350000 1100000 0  400000 1100000 0  450000 1100000 0  500000 1100000 0  550000 1100000 0  600000 1100000 0  650000 1100000 0  700000 1100000 0  750000 1100000 0  800000 1100000 0  850000 1100000 0  900000 1100000 0  950000 1100000 0  1000000 1100000 0  0 1150000 0  50000 1150000 0  100000 1150000 0  150000 1150000 0  200000 1150000 0  250000 1150000 0  300000 1150000 0  350000 1150000 0  400000 1150000 0  450000 1150000 0  500000 1150000 0  550000 1150000 0  600000 1150000 0  650000 1150000 0  700000 1150000 0  750000 1150000 0  800000 1150000 0  850000 1150000 0  900000 1150000 0  950000 1150000 0  1000000 1150000 0  0 1200000 0  50000 1200000 0  100000 1200000 0  150000 1200000 0  200000 1200000 0  250000 1200000 0  300000 1200000 0  350000 1200000 0  400000 1200000 0  450000 1200000 0  500000 1200000 0  550000 1200000 0  600000 1200000 0  650000 1200000 0  700000 1200000 0  750000 1200000 0  800000 1200000 0  850000 1200000 0  900000 1200000 0  950000 1200000 0  1000000 1200000 0  0 1250000 0  50000 1250000 0  100000 1250000 0  150000 1250000 0  200000 1250000 0  250000 1250000 0  300000 1250000 0  350000 1250000 0  400000 1250000 0  450000 1250000 0  500000 1250000 0  550000 1250000 0  600000 1250000 0  650000 1250000 0  700000 1250000 0  750000 1250000 0  800000 1250000 0  850000 1250000 0  900000 1250000 0  950000 1250000 0  1000000 1250000 0  0 1300000 0  50000 1300000 0  100000 1300000 0  150000 1300000 0  200000 1300000 0  250000 1300000 0  300000 1300000 0  350000 1300000 0  400000 1300000 0  450000 1300000 0  500000 1300000 0  550000 1300000 0  600000 1300000 0  650000 1300000 0  700000 1300000 0  750000 1300000 0  800000 1300000 0  850000 1300000 0  900000 1300000 0  950000 1300000 0  1000000 1300000 0  0 1350000 0  50000 1350000 0  100000 1350000 0  150000 1350000 0  200000 1350000 0  250000 1350000 0  300000 1350000 0  350000 1350000 0  400000 1350000 0  450000 1350000 0  500000 1350000 0  550000 1350000 0  600000 1350000 0  650000 1350000 0  700000 135
[...]
<PointData  Vectors="f_19"> 
<DataArray  type="Float64"  Name="f_19"  NumberOfComponents="3" format="ascii">-2.4353529619138239e-08 -1.0450996351483509e-08 0.0000000000000000e+00  4.8697948351869305e-08 -6.5295497576706584e-09 0.0000000000000000e+00  4.2966233264716332e-08 -2.2229870892728214e-09 0.0000000000000000e+00  4.0511906607201261e-08 -8.5322885792702071e-10 0.0000000000000000e+00  3.9308143933579213e-08 -3.7663164315459015e-10 0.0000000000000000e+00  3.8522179500755668e-08 -1.7432020089532120e-10 0.0000000000000000e+00  3.7957184679923114e-08 -7.8603859010230935e-11 0.0000000000000000e+00  3.7556301307763958e-08 -3.1969366035556542e-11 0.0000000000000000e+00  3.7301658402476581e-08 -9.8204898495454738e-12 0.0000000000000000e+00  3.7188647607273813e-08 1.0383775112656452e-12 0.0000000000000000e+00  3.7218176665332892e-08 9.7624261494768650e-12 0.0000000000000000e+00  3.7394902175518429e-08 2.4800473294465815e-11 0.0000000000000000e+00  3.7728815417140027e-08 5.6420288601294560e-11 0.0000000000000000e+00  3.8241279794736542e-08 1.2025187695671355e-10 0.0000000000000000e+00  3.8981094583642990e-08 2.4459715502799299e-10 0.0000000000000000e+00  4.0067007994782614e-08 4.8853801796178481e-10 0.0000000000000000e+00  4.1800057700144939e-08 9.9057781101708791e-10 0.0000000000000000e+00  4.4926944479153222e-08 2.0952732758780544e-09 0.0000000000000000e+00  5.0777211239803474e-08 4.6200579585290920e-09 0.0000000000000000e+00  5.8021563364855807e-08 9.1325353116581700e-09 0.0000000000000000e+00  -1.6432977854825755e-08 7.0256678773109399e-09 0.0000000000000000e+00  -1.8109301678485220e-08 -1.5998066305089624e-08 0.0000000000000000e+00  7.2653395842703599e-09 -1.1330426285062597e-08 0.0000000000000000e+00  1.8169497273132548e-08 -5.2592532088115437e-09 0.0000000000000000e+00  2.3230424039985550e-08 -2.4043183689251555e-09 0.0000000000000000e+00  2.5815516937217424e-08 -1.1498524378449627e-09 0.0000000000000000e+00  2.7276304941738205e-08 -5.5896358577609750e-10 0.0000000000000000e+00  2.8124935913007746e-08 -2.6321714542827519e-10 0.0000000000000000e+00  2.8620830231794961e-08 -1.1232036102421432e-10 0.0000000000000000e+00  2.8907238259294525e-08 -3.7276060497971013e-11 0.0000000000000000e+00  2.9064063433095237e-08 -7.7792950456768792e-13 0.0000000000000000e+00  2.9132963336217081e-08 2.1700951551017970e-11 0.0000000000000000e+00  2.9128863336546861e-08 5.0612449433911037e-11 0.0000000000000000e+00  2.9043940438587654e-08 1.0810111902398780e-10 0.0000000000000000e+00  2.8846086210711754e-08 2.2461499023618717e-10 0.0000000000000000e+00  2.8470841546494470e-08 4.5069450316950812e-10 0.0000000000000000e+00  2.7800762373616686e-08 8.8287483570774339e-10 0.0000000000000000e+00  2.6610174126955860e-08 1.7245506311237014e-09 0.0000000000000000e+00  2.4387754874182296e-08 3.4217534986331382e-09 0.0000000000000000e+00  1.9689084203265883e-08 6.8647659075665970e-09 0.0000000000000000e+00  8.2671228555012548e-09 1.3016837970442904e-08 0.0000000000000000e+00  -1.8401025559018014e-08 1.0957555038791846e-08 0.0000000000000000e+00  -1.1125049666280053e-08 -1.9581591462114939e-08 0.0000000000000000e+00  -2.5636149814194792e-10 -1.8489891101619929e-08 0.0000000000000000e+00  5.8602664838587389e-09 -1.1339483655611857e-08 0.0000000000000000e+00  1.0744157009463800e-08 -6.5605602050602952e-09 0.0000000000000000e+00  1.4554863323366891e-08 -3.7989774136707925e-09 0.0000000000000000e+00  1.7196950490490911e-08 -2.2292199112709768e-09 0.0000000000000000e+00  1.8962443409090963e-08 -1.3110723172314165e-09 0.0000000000000000e+00  2.0117519183982816e-08 -7.5349701493885054e-10 0.0000000000000000e+00  2.0841520427911203e-08 -3.9756420654626432e-10 0.0000000000000000e+00  2.1244806777549369e-08 -1.4901530793570149e-10 0.0000000000000000e+00  2.1387257092556068e-08 5.6349808875443412e-11 0.0000000000000000e+00  2.1289318430618009e-08 2.7157406160981141e-10 0.0000000000000000e+00  2.0936010958491680e-08 5.5168586269732798e-10 0.0000000000000000e+00  2.0274544135813569e-08 9.6732623124437780e-10 0.0000000000000000e+00  1.9204957226393310e-08 1.6247949290671894e-09 0.0000000000000000e+00  1.7561875609677866e-08 2.7002276032629801e-09 0.0000000000000000e+00  1.5086017009323939e-08 4.4943388899987570e-09 0.0000000000000000e+00  1.1395652738948041e-08 7.4809285819489004e-09 0.0000000000000000e+00  6.0249287439142037e-09 1.2126322452937247e-08 0.0000000000000000e+00  -1.2875050509853813e-09 1.7578756669120274e-08 0.0000000000000000e+00  -1.3234677505188799e-08 1.4703731323517335e-08 0.0000000000000000e+00  -7.4227724575479048e-09 -2.0185049295897170e-08 0.0000000000000000e+00  -1.5527396393404159e-09 -1.9925809632276983e-08 0.0000000000000000e+00  1.1307688240247034e-09 -1.5310128347447976e-08 0.0000000000000000e+00  3.9068980529023630e-09 -1.0430942970646757e-08 0.0000000000000000e+00  6.8018173672254655e-09 -6.8539853295835132e-09 0.0000000000000000e+00  9.3183285656066474e-09 -4.4446679473626102e-09 0.0000000000000000e+00  1.1258481027753622e-08 -2.8450911784904041e-09 0.0000000000000000e+00  1.2646777698338192e-08 -1.7637875420758897e-09 0.0000000000000000e+00  1.3567596160573217e-08 -1.0001687559293457e-09 0.0000000000000000e+00  1.4095580973338792e-08 -4.1625727062104985e-10 0.0000000000000000e+00  1.4277991148522293e-08 9.0620503295794080e-11 0.0000000000000000e+00  1.4132063889398661e-08 6.0806472716036283e-10 0.0000000000000000e+00  1.3645234597842391e-08 1.2246342698768654e-09 0.0000000000000000e+00  1.2775381429449174e-08 2.0453398783142247e-09 0.0000000000000000e+00  1.1452335330648011e-08 3.2091875067610714e-09 0.0000000000000000e+00  9.5868604509841475e-09 4.9071680244526768e-09 0.0000000000000000e+00  7.1039524849329052e-09 7.3828880071836208e-09 0.0000000000000000e+00  4.0345520018565842e-09 1.0845379572937685e-08 0.0000000000000000e+00  6.7170350607216366e-10 1.5102856529485871e-08 0.0000000000000000e+00  -2.6219425137531992e-09 1.8744367614483681e-08 0.0000000000000000e+00  -8.9328019137301636e-09 1.7544978589130677e-08 0.0000000000000000e+00  -5.5530528825608370e-09 -1.9573899670790171e-08 0.0000000000000000e+00  -1.8916937901031650e-09 -1.9662683352482127e-08 0.0000000000000000e+00  -9.2712593575403631e-10 -1.6725145030546704e-08 0.0000000000000000e+00  2.1100392317129273e-10 -1.2805641471123218e-08 0.0000000000000000e+00  1.8501817850513899e-09 -9.2531970869957945e-09 0.0000000000000000e+00  3.6222521680895212e-09 -6.4693328632237668e-09 0.0000000000000000e+00  5.2048331220870093e-09 -4.3962237897935197e-09 0.0000000000000000e+00  6.4539510469689517e-09 -2.8595470096347218e-09 0.0000000000000000e+00  7.3361315066402536e-09 -1.6879516817626497e-09 0.0000000000000000e+00  7.8608645368920567e-09 -7.3758900123621287e-10 0.0000000000000000e+00  8.0441830605775692e-09 1.1219538474388122e-10 0.0000000000000000e+00  7.8937201744942741e-09 9.6985346579339105e-10 0.0000000000000000e+00  7.4046097422310209e-09 1.9431333762065669e-09 0.0000000000000000e+00  6.5621346106965821e-09 3.1493903000764738e-09 0.0000000000000000e+00  5.3523708940097123e-09 4.7221780606574154e-09 0.0000000000000000e+00  3.7868767143626776e-09 6.8055659417850035e-09 0.0000000000000000e+00  1.9507818443085759e-09 9.5128361963679223e-09 0.0000000000000000e+00  7.1291112456572655e-11 1.2801832359434728e-08 0.0000000000000000e+00  -1.4869349480658508e-09 1.6221066699379260e-08 0.0000000000000000e+00  -2.7335064799963911e-09 1.8691388338112494e-08 0.0000000000000000e+00  -6.6451872273388803e-09 1.8530696303745129e-08 0.0000000000000000e+00  -4.4917664508603007e-09 -1.8423452271201329e-08 0.0000000000000000e+00  -2.0646339827329726e-09 -1.8729934622642344e-08 0.0000000000000000e+00  -2.0087605023683130e-09 -1.6747530504858151e-08 0.0000000000000000e+00  -1.9220151742593363e-09 -1.3771578203443644e-08 0.0000000000000000e+00  -1.3217930575764347e-09 -1.0658135702481084e-08 0.0000000000000000e+00  -3.8056004818439402e-10 -7.8984770575553069e-09 0.0000000000000000e+00  6.3426144593761829e-10 -5.6260646750513073e-09 0.0000000000000000e+00  1.5333116551547223e-09 -3.7983011707920189e-09 0.0000000000000000e+00  2.2168012240324808e-09 -2.3098561881979630e-09 0.0000000000000000e+00  2.6420477160364956e-09 -1.0428184862695294e-09 0.0000000000000000e+00  2.7944791316794799e-09 1.1754573733270986e-10 0.0000000000000000e+00  2.6711307958178413e-09 1.2812482024488626e-09 0.0000000000000000e+00  2.2749082480196988e-09 2.5564111568720703e-09 0.0000000000000000e+00  1.6176739965027258e-09 4.0510726725595746e-09 0.0000000000000000e+00  7.3231211007857752e-10 5.8685137532698598e-09 0.0000000000000000e+00  -3.0503479428395114e-10 8.0870805901580917e-09 0.0000000000000000e+00  -1.3456490417598396e-09 1.0710010615298124e-08 0.0000000000000000e+00  -2.1563713421053772e-09 1.3572334657163550e-08 0.0000000000000000e+00  -2.5180884254311801e-09 1.6230105933648254e-08 0.0000000000000000e+00  -2.7115657571826887e-09 1.7990077525561592e-08 0.0000000000000000e+00  -5.3045966524075959e-09 1.8286711400694551e-08 0.0000000000000000e+00  -3.8154438612086941e-09 -1.6975455119849780e-08 0.0000000000000000e+00  -2.1958595301053209e-09 -1.7432218264177275e-08 0.0000000000000000e+00  -2.6817537935943941e-09 -1.6026447700268016e-08 0.0000000000000000e+00  -3.2600478798041784e-09 -1.3762307697095211e-08 0.0000000000000000e+00  -3.4169980450321508e-09 -1.1167001131454549e-08 0.0000000000000000e+00  -3.1879433189294951e-09 -8.6437703546519595e-09 0.0000000000000000e+00  -2.7485535204072822e-09 -6.3883699400803388e-09 0.0000000000000000e+00  -2.2649472963718370e-09 -4.4431933382411247e-09 0.0000000000000000e+00  -1.8522708957136027e-09 -2.7668392492972341e-09 0.0000000000000000e+00  -1.5778188667776846e-09 -1.2802928403833153e-09 0.0000000000000000e+00  -1.4749017276815368e-09 1.0922668371912359e-10 0.0000000000000000e+00  -1.5539311440450581e-09 1.4976035746433972e-09 0.0000000000000000e+00  -1.8070589995555650e-09 2.9785637907428138e-09 0.0000000000000000e+00  -2.2060851937365349e-09 4.6379767017681043e-09 0.0000000000000000e+00  -2.6943060643778251e-09 6.5423197900973570e-09 0.0000000000000000e+00  -3.1747461997344904e-09 8.7153841548745586e-09 0.0000000000000000e+00  -3.5031653036033735e-09 1.1098567153043412e-08 0.0000000000000000e+00  -3.5098050073411253e-09 1.3499918379615516e-08 0.0000000000000000e+00  -3.1118438965114972e-09 1.5566230369170922e-08 0.0000000000000000e+00  -2.6963995006874493e-09 1.6870562647938573e-08 0.0000000000000000e+00  -4.4363146308965212e-09 1.7384136999716488e-08 0.0000000000000000e+00  -3.3480703788542395e-09 -1.5329811824472981e-08 0.0000000000000000e+00  -2.3037960939282977e-09 -1.5894863129461664e-08 0.0000000000000000e+00  -3.1484620758942459e-09 -1.4862447693176104e-08 0.0000000000000000e+00  -4.1606505849867524e-09 -1.3116542173650979e-08 0.0000000000000000e+00  -4.8493294655799908e-09 -1.0990970241594945e-08 0.0000000000000000e+00  -5.1727827708163232e-09 -8.7817174700858451e-09 0.0000000000000000e+00  -5.2285383368000240e-09 -6.6761955383786269e-09 0.0000000000000000e+00  -5.1382014711340833e-09 -4.7537193891342074e-09 0.0000000000000000e+00  -5.0029456139860982e-09 -3.0169546547431176e-09 0.0000000000000000e+00  -4.8920201480060512e-09 -1.4234195330489094e-09 0.0000000000000000e+00  -4.8445744219539853e-09 9.2089276401756348e-11 0.0000000000000000e+00  -4.8741610851481652e-09 1.6031725702131680e-09 0.0000000000000000e+00  -4.9712506514985005e-09 3.1816870055310576e-09 0.0000000000000000e+00  -5.1024947750697579e-09 4.8876718893041106e-09 0.0000000000000000e+00  -5.2076283527403882e-09 6.7556514790398314e-09 0.0000000000000000e+00  -5.1973890547319381e-09 8.7747153748384688e-09 0.0000000000000000e+00  -4.9602332287481288e-09 1.0863201098647873e-08 0.0000000000000000e+00  -4.3941925628115815e-09 1.2847222782529035e-08 0.0000000000000000e+00  -3.5028746347250290e-09 1.4467325300763682e-08 0.0000000000000000e+00  -2.6953632929571550e-09 1.5462664404145601e-08 0.0000000000000000e+00  -3.8322587530852321e-09 1.6096716482579595e-08 0.0000000000000000e+00  -3.0085902503264000e-09 -1.3540285025054913e-08 0.0000000000000000e+00  -2.3921965484504225e-09 -1.4185446975197326e-08 0.0000000000000000e+00  -3.4905010365070214e-09 -1.3410393698772375e-08 0.0000000000000000e+00  -4.7960116167809642e-09 -1.2049093625149503e-08 0.0000000000000000e+00  -5.8551595489106508e-09 -1.0321347793956655e-08 0.0000000000000000e+00  -6.5877468429338183e-09 -8.4370867995476820e-09 0.0000000000000000e+00  -7.0359649913901100e-09 -6.5515043882341529e-09 0.0000000000000000e+00  -7.2779683824420159e-09 -4.7505492529377080e-09 0.0000000000000000e+00  -7.3899908080335912e-09 -3.0606608196559309e-09 0.0000000000000000e+00  -7.4305370961206505e-09 -1.4667105608068520e-09 0.0000000000000000e+00  -7.4356223509630871e-09 7.0878552734484151e-11 0.0000000000000000e+00  -7.4185159638243558e-09 1.6022243482366470e-09 0.0000000000000000e+00  -7.3703938459152364e-09 3.1763628015547369e-09 0.0000000000000000e+00  -7.2606516137004571e-09 4.8299213170051722e-09 0.0000000000000000e+00  -7.0375901645588113e-09 6.5743208646969741e-09 0.0000000000000000e+00  -6.6321752428172308e-09 8.3811012477944974e-09 0.0000000000000000e+00  -5.9700939480958311e-09 1.0167969449939884e-08 0.0000000000000000e+00  -5.0019961318803187e-09 1.1793179024656710e-08 0.0000000000000000e+00  -3.7794100792772963e-09 1.3072458662037156e-08 0.0000000000000000e+00  -2.7009537647779926e-09 1.3847561054370069e-08 0.0000000000000000e+00  -3.3912226029343353e-09 1.4558030765316531e-08 0.0000000000000000e+00  -2.7555469952619958e-09 -1.1642919286162990e-08 0.0000000000000000e+00  -2.4632903472206179e-09 -1.2348211773027750e-08 0.0000000000000000e+00  -3.7467589197182087e-09 -1.1761193657285170e-08 0.0000000000000000e+00  -5.2554972539596518e-09 -1.0695793206579056e-08 0.0000000000000000e+00  -6.5725640558232667e-09 -9.3028340175777889e-09 0.0000000000000000e+00  -7.6003207151821407e-09 -7.7297971014774474e-09 0.0000000000000000e+00  -8.3447039188965899e-09 -6.0970640878334939e-09 0.0000000000000000e+00  -8.8488153277822483e-09 -4.4826543839751725e-09 0.0000000000000000e+00  -9.1633026716650022e-09 -2.9222739649847309e-09 0.0000000000000000e+00  -9.3312906234279463e-09 -1.4181781851770686e-09 0.0000000000000000e+00  -9.3812336164246866e-09 4.9193233170131625e-11 0.0000000000000000e+00  -9.3241714772925304e-09 1.5097047443474478e-09 0.0000000000000000e+00  -9.1532284301342287e-09 2.9927445169621416e-09 0.0000000000000000e+00  -8.8444955574233054e-09 4.5167549063579985e-09 0.0000000000000000e+00  -8.3597176600406725e-09 6.0787114290519753e-09 0.0000000000000000e+00  -7.6524167628199621e-09 7.6442018662155139e-09 0.0000000000000000e+00  -6.6803872745765430e-09 9.1406629198680121e-09 0.0000000000000000e+00  -5.4307075731273142e-09 1.0458753857454561e-08 0.0000000000000000e+00  -3.9799101229577314e-09 1.1469798126746574e-08 0.0000000000000000e+00  -2.7070051205298525e-09 1.2079960759494142e-08 0.0000000000000000e+00  -3.0590576522412856e-09 1.2842688298406142e-08 0.0000000000000000e+00  -2.5659127257508491e-09 -9.6650122551079584e-09 0.0000000000000000e+00  -2.5195097101221161e-09 -1.0415693197252318e-08 0.0000000000000000e+00  -3.9393505376716603e-09 -9.9739068874229659e-09 0.0000000000000000e+00  -5.5902683181546899e-09 -9.1460393933402239e-09 0.0000000000000000e+00  -7.0862711890072008e-09 -8.0398479106293840e-09 0.0000000000000000e+00  -8.3228327497395737e-09 -6.7586556192746497e-09 0.0000000000000000e+00  -9.2829903488398897e-09 -5.3924441227253949e-09 0.0000000000000000e+00  -9.9839751353319931e-09 -4.0059592606483364e-09 0.0000000000000000e+00  -1.0454619315990615e-08 -2.6354333341319554e-09 0.0000000000000000e+00  -1.0722817683829363e-08 -1.2923242836856761e-09 0.0000000000000000e+00  -1.0808354499976644e-08 2.9332099414076230e-11 0.0000000000000000e+00  -1.0719337745188844e-08 1.3442808437186505e-09 0.0000000000000000e+00  -1.0451182919592391e-08 2.6672226259204761e-09 0.0000000000000000e+00  -9.9876772685595593e-09 4.0042218861790249e-09 0.0000000000000000e+00  -9.3043020977915126e-09 5.3447437767013209e-09 0.0000000000000000e+00  -8.3745830448238520e-09 6.6552960655481409e-09 0.0000000000000000e+00  -7.1809539678751804e-09 7.8766273942856431e-09 0.0000000000000000e+00  -5.7345200089485472e-09 8.9274127388308924e-09 0.0000000000000000e+00  -4.1244459113890033e-09 9.7190841751120937e-09 0.0000000000000000e+00  -2.7101013402422934e-09 1.0199234262853611e-08 0.0000000000000000e+00  -2.8046552455487937e-09 1.0998506839700355e-08 0.0000000000000000e+00  -2.4261705164280736e-09 -7.6283567188558072e-09 0.0000000000000000e+00  -2.5635207558797049e-09 -8.4132430887938223e-09 0.0000000000000000e+00  -4.0828616666929496e-09 -8.0897083064476988e-09 0.0000000000000000e+00  -5.8326162958075899e-09 -7.4610957710567970e-09 0.0000000000000000e+00  -7.4512463054673619e-09 -6.6072840756581016e-09 0.0000000000000000e+00  -8.8323171144931335e-09 -5.6002289412961532e-09 0.0000000000000000e+00  -9.9447066104863041e-09 -4.5051340027627528e-09 0.0000000000000000e+00  -1.0787547488514314e-08 -3.3724800687997150e-09 0.0000000000000000e+00  -1.1372835406268701e-08 -2.2342899033950699e-09 0.0000000000000000e+00  -1.1715607678424479e-08 -1.1053169309383754e-09 0.0000000000000000e+00  -1.1827742786994945e-08 1.2547761379159191e-11 0.0000000000000000e+00  -1.1714494698623827e-08 1.1242333255254915e-09 0.0000000000000000e+00  -1.1373369078628813e-08 2.2348851150436298e-09 0.0000000000000000e+00  -1.0795145466539179e-08 3.3434030459528414e-09 0.0000000000000000e+00  -9.9670696867899900e-09 4.4367845235129657e-09 0.0000000000000000e+00  -8.8784581512112867e-09 5.4861990469509619e-09 0.0000000000000000e+00  -7.5294573776789226e-09 6.4461224278361327e-09 0.0000000000000000e+00  -5.9466637828926673e-09 7.2581780655486902e-09 0.0000000000000000e+00  -4.2255220775924514e-09 7.8628214976236474e-09 0.0000000000000000e+00  -2.7089101021076160e-09 8.2350752480913426e-09 0.0000000000000000e+00  -2.6093200520950883e-09 9.0594093203207820e-09 0.0000000000000000e+00  -2.3281520447263988e-09 -5.5507288832912436e-09 0.0000000000000000e+00  -2.5979901452494410e-09 -6.3611400378236258e-09 0.0000000000000000e+00  -4.1878200195207682e-09 -6.1387000747653755e-09 0.0000000000000000e+00  -6.0044328218288631e-09 -5.6844105087713305e-09 0.0000000000000000e+00  -7.7046952632814582e-09 -5.0592841001341807e-09 0.0000000000000000e+00  -9.1824402646201490e-09 -4.3124320843931735e-09 0.0000000000000000e+00  -1.0398003956064010e-08 -3.4891323298555533e-09 0.0000000000000000e+00  -1.1338426962645828e-08 -2.6262812362911706e-09 0.0000000000000000e+00  -1.2003636399251159e-08 -1.7493254312388201e-09 0.0000000000000000e+00  -1.2398885252542306e-08 -8.7235340035977677e-10 0.0000000000000000e+00  -1.2529731637202326e-08 -6.0346589223274710e-13 0.0000000000000000e+00  -1.2399038747178372e-08 8.6558899623856749e-10 0.0000000000000000e+00  -1.2005941473150901e-08 1.7262408916923829e-09 0.0000000000000000e+00  -1.1346740698804290e-08 2.5772416356322303e-09 0.0000000000000000e+00  -1.0417671682327686e-08 3.4065810795426100e-09 0.0000000000000000e+00  -9.2195233543550748e-09 4.1920105591022959e-09 0.0000000000000000e+00  -7.7645437354119632e-09 4.9009784355130302e-09 0.0000000000000000e+00  -6.0891489250203568e-09 5.4937664445422320e-09 0.0000000000000000e+00  -4.2919437277763270e-09 5.9323277347870046e-09 0.0000000000000000e+00  -2.7033661870795120e-09 6.2105368604112688e-09 0.0000000000000000e+00  -2.4615307202700573e-09 7.0509721834107472e-09 0.0000000000000000e+00  -2.2669207616572828e-09 -3.4468646960259862e-09 0.0000000000000000e+00  -2.6253379225912274e-09 -4.2758680971726833e-09 0.0000000000000000e+00  -4.2620098239247973e-09 -4.1437021309842310e-09 0.0000000000000000e+00  -6.1209597105829945e-09 -3.8478179480930416e-09 0.0000000000000000e+00  -7.8721039249886955e-09 -3.4356722372785349e-09 0.0000000000000000e+00  -9.4103544078136639e-09 -2.9389763861544782e-09 0.0000000000000000e+00  -1.0691174862564498e-08 -2.3866660813128513