<?xml version="1.0"?>
<VTKFile type="UnstructuredGrid"  version="0.1"  >
<UnstructuredGrid>
<Piece  NumberOfPoints="651" NumberOfCells="1200">
<Points>
<DataArray  type="Float64"  NumberOfComponents="3"  format="ascii">0 0 0  50000 0 0  100000 0 0  150000 0 0  200000 0 0  250000 0 0  300000 0 0  350000 0 0  400000 0 0  450000 0 0  500000 0 0  550000 0 0  600000 0 0  650000 0 0  700000 0 0  750000 0 0  800000 0 0  850000 0 0  900000 0 0  950000 0 0  1000000 0 0  0 50000 0  50000 50000 0  100000 50000 0  150000 50000 0  200000 50000 0  250000 50000 0  300000 50000 0  350000 50000 0  400000 50000 0  450000 50000 0  500000 50000 0  550000 50000 0  600000 50000 0  650000 50000 0  700000 50000 0  750000 50000 0  800000 50000 0  850000 50000 0  900000 50000 0  950000 50000 0  1000000 50000 0  0 100000 0  50000 100000 0  100000 100000 0  150000 100000 0  200000 100000 0  250000 100000 0  300000 100000 0  350000 100000 0  400000 100000 0  450000 100000 0  500000 100000 0  550000 100000 0  600000 100000 0  650000 100000 0  700000 100000 0  750000 100000 0  800000 100000 0  850000 100000 0  900000 100000 0  950000 100000 0  1000000 100000 0  0 150000 0  50000 150000 0  100000 150000 0  150000 150000 0  200000 150000 0  250000 150000 0  300000 150000 0  350000 150000 0  400000 150000 0  450000 150000 0  500000 150000 0  550000 150000 0  600000 150000 0  650000 150000 0  700000 150000 0  750000 150000 0  800000 150000 0  850000 150000 0  900000 150000 0  950000 150000 0  1000000 150000 0  0 200000 0  50000 200000 0  100000 200000 0  150000 200000 0  200000 200000 0  250000 200000 0  300000 200000 0  350000 200000 0  400000 200000 0  450000 200000 0  500000 200000 0  550000 200000 0  600000 200000 0  650000 200000 0  700000 200000 0  750000 200000 0  800000 200000 0  850000 200000 0  900000 200000 0  950000 200000 0  1000000 200000 0  0 250000 0  50000 250000 0  100000 250000 0  150000 250000 0  200000 250000 0  250000 250000 0  300000 250000 0  350000 250000 0  400000 250000 0  450000 250000 0  500000 250000 0  550000 250000 0  600000 250000 0  650000 250000 0  700000 250000 0  750000 250000 0  800000 250000 0  850000 250000 0  900000 250000 0  950000 250000 0  1000000 250000 0  0 300000 0  50000 300000 0  100000 300000 0  150000 300000 0  200000 300000 0  250000 300000 0  300000 300000 0  350000 300000 0  400000 300000 0  450000 300000 0  500000 300000 0  550000 300000 0  600000 300000 0  650000 300000 0  700000 300000 0  750000 300000 0  800000 300000 0  850000 300000 0  900000 300000 0  950000 300000 0  1000000 300000 0  0 350000 0  50000 350000 0  100000 350000 0  150000 350000 0  200000 350000 0  250000 350000 0  300000 350000 0  350000 350000 0  400000 350000 0  450000 350000 0  500000 350000 0  550000 350000 0  600000 350000 0  650000 350000 0  700000 350000 0  750000 350000 0  800000 350000 0  850000 350000 0  900000 350000 0  950000 350000 0  1000000 350000 0  0 400000 0  50000 400000 0  100000 400000 0  150000 400000 0  200000 400000 0  250000 400000 0  300000 400000 0  350000 400000 0  400000 400000 0  450000 400000 0  500000 400000 0  550000 400000 0  600000 400000 0  650000 400000 0  700000 400000 0  750000 400000 0  800000 400000 0  850000 400000 0  900000 400000 0  950000 400000 0  1000000 400000 0  0 450000 0  50000 450000 0  100000 450000 0  150000 450000 0  200000 450000 0  250000 450000 0  300000 450000 0  350000 450000 0  400000 450000 0  450000 450000 0  500000 450000 0  550000 450000 0  600000 450000 0  650000 450000 0  700000 450000 0  750000 450000 0  800000 450000 0  850000 450000 0  900000 450000 0  950000 450000 0  1000000 450000 0  0 500000 0  50000 500000 0  100000 500000 0  150000 500000 0  200000 500000 0  250000 500000 0  300000 500000 0  350000 500000 0  400000 500000 0  450000 500000 0  500000 500000 0  550000 500000 0  600000 500000 0  650000 500000 0  700000 500000 0  750000 500000 0  800000 500000 0  850000 500000 0  900000 500000 0  950000 500000 0  1000000 500000 0  0 550000 0  50000 550000 0  100000 550000 0  150000 550000 0  200000 550000 0  250000 550000 0  300000 550000 0  350000 550000 0  400000 550000 0  450000 550000 0  500000 550000 0  550000 550000 0  600000 550000 0  650000 550000 0  700000 550000 0  750000 550000 0  800000 550000 0  850000 550000 0  900000 550000 0  950000 550000 0  1000000 550000 0  0 600000 0  50000 600000 0  100000 600000 0  150000 600000 0  200000 600000 0  250000 600000 0  300000 600000 0  350000 600000 0  400000 600000 0  450000 600000 0  500000 600000 0  550000 600000 0  600000 600000 0  650000 600000 0  700000 600000 0  750000 600000 0  800000 600000 0  850000 600000 0  900000 600000 0  950000 600000 0  1000000 600000 0  0 650000 0  50000 650000 0  100000 650000 0  150000 650000 0  200000 650000 0  250000 650000 0  300000 650000 0  350000 650000 0  400000 650000 0  450000 650000 0  500000 650000 0  550000 650000 0  600000 650000 0  650000 650000 0  700000 650000 0  750000 650000 0  800000 650000 0  850000 650000 0  900000 650000 0  950000 650000 0  1000000 650000 0  0 700000 0  50000 700000 0  100000 700000 0  150000 700000 0  200000 700000 0  250000 700000 0  300000 700000 0  350000 700000 0  400000 700000 0  450000 700000 0  500000 700000 0  550000 700000 0  600000 700000 0  650000 700000 0  700000 700000 0  750000 700000 0  800000 700000 0  850000 700000 0  900000 700000 0  950000 700000 0  1000000 700000 0  0 750000 0  50000 750000 0  100000 750000 0  150000 750000 0  200000 750000 0  250000 750000 0  300000 750000 0  350000 750000 0  400000 750000 0  450000 750000 0  500000 750000 0  550000 750000 0  600000 750000 0  650000 750000 0  700000 750000 0  750000 750000 0  800000 750000 0  850000 750000 0  900000 750000 0  950000 750000 0  1000000 750000 0  0 800000 0  50000 800000 0  100000 800000 0  150000 800000 0  200000 800000 0  250000 800000 0  300000 800000 0  350000 800000 0  400000 800000 0  450000 800000 0  500000 800000 0  550000 800000 0  600000 800000 0  650000 800000 0  700000 800000 0  750000 800000 0  800000 800000 0  850000 800000 0  900000 800000 0  950000 800000 0  1000000 800000 0  0 850000 0  50000 850000 0  100000 850000 0  150000 850000 0  200000 850000 0  250000 850000 0  300000 850000 0  350000 850000 0  400000 850000 0  450000 850000 0  500000 850000 0  550000 850000 0  600000 850000 0  650000 850000 0  700000 850000 0  750000 850000 0  800000 850000 0  850000 850000 0  900000 850000 0  950000 850000 0  1000000 850000 0  0 900000 0  50000 900000 0  100000 900000 0  150000 900000 0  200000 900000 0  250000 900000 0  300000 900000 0  350000 900000 0  400000 900000 0  450000 900000 0  500000 900000 0  550000 900000 0  600000 900000 0  650000 900000 0  700000 900000 0  750000 900000 0  800000 900000 0  850000 900000 0  900000 900000 0  950000 900000 0  1000000 900000 0  0 950000 0  50000 950000 0  100000 950000 0  150000 950000 0  200000 950000 0  250000 950000 0  300000 950000 0  350000 950000 0  400000 950000 0  450000 950000 0  500000 950000 0  550000 950000 0  600000 950000 0  650000 950000 0  700000 950000 0  750000 950000 0  800000 950000 0  850000 950000 0  900000 950000 0  950000 950000 0  1000000 950000 0  0 1000000 0  50000 1000000 0  100000 1000000 0  150000 1000000 0  200000 1000000 0  250000 1000000 0  300000 1000000 0  350000 1000000 0  400000 1000000 0  450000 1000000 0  500000 1000000 0  550000 1000000 0  600000 1000000 0  650000 1000000 0  700000 1000000 0  750000 1000000 0  800000 1000000 0  850000 1000000 0  900000 1000000 0  950000 1000000 0  1000000 1000000 0  0 1050000 0  50000 1050000 0  100000 1050000 0  150000 1050000 0  200000 1050000 0  250000 1050000 0  300000 1050000 0  350000 1050000 0  400000 1050000 0  450000 1050000 0  500000 1050000 0  550000 1050000 0  600000 1050000 0  650000 1050000 0  700000 1050000 0  750000 1050000 0  800000 1050000 0  850000 1050000 0  900000 1050000 0  950000 1050000 0  1000000 1050000 0  0 1100000 0  50000 1100000 0  100000 1100000 0  150000 1100000 0  200000 1100000 0  250000 1100000 0  300000 1100000 0  350000 1100000 0  400000 1100000 0  450000 1100000 0  500000 1100000 0  550000 1100000 0  600000 1100000 0  650000 1100000 0  700000 1100000 0  750000 1100000 0  800000 1100000 0  850000 1100000 0  900000 1100000 0  950000 1100000 0  1000000 1100000 0  0 1150000 0  50000 1150000 0  100000 1150000 0  150000 1150000 0  200000 1150000 0  250000 1150000 0  300000 1150000 0  350000 1150000 0  400000 1150000 0  450000 1150000 0  500000 1150000 0  550000 1150000 0  600000 1150000 0  650000 1150000 0  700000 1150000 0  750000 1150000 0  800000 1150000 0  850000 1150000 0  900000 1150000 0  950000 1150000 0  1000000 1150000 0  0 1200000 0  50000 1200000 0  100000 1200000 0  150000 1200000 0  200000 1200000 0  250000 1200000 0  300000 1200000 0  350000 1200000 0  400000 1200000 0  450000 1200000 0  500000 1200000 0  550000 1200000 0  600000 1200000 0  650000 1200000 0  700000 1200000 0  750000 1200000 0  800000 1200000 0  850000 1200000 0  900000 1200000 0  950000 1200000 0  1000000 1200000 0  0 1250000 0  50000 1250000 0  100000 1250000 0  150000 1250000 0  200000 1250000 0  250000 1250000 0  300000 1250000 0  350000 1250000 0  400000 1250000 0  450000 1250000 0  500000 1250000 0  550000 1250000 0  600000 1250000 0  650000 1250000 0  700000 1250000 0  750000 1250000 0  800000 1250000 0  850000 1250000 0  900000 1250000 0  950000 1250000 0  1000000 1250000 0  0 1300000 0  50000 1300000 0  100000 1300000 0  150000 1300000 0  200000 1300000 0  250000 1300000 0  300000 1300000 0  350000 1300000 0  400000 1300000 0  450000 1300000 0  500000 1300000 0  550000 1300000 0  600000 1300000 0  650000 1300000 0  700000 1300000 0  750000 1300000 0  800000 1300000 0  850000 1300000 0  900000 1300000 0  950000 1300000 0  1000000 1300000 0  0 1350000 0  50000 1350000 0  100000 1350000 0  150000 1350000 0  200000 1350000 0  250000 1350000 0  300000 1350000 0  350000 1350000 0  400000 1350000 0  450000 1350000 0  500000 1350000 0  550000 1350000 0  600000 1350000 0  650000 1350000 0  700000 135
[...]
<PointData  Vectors="f_19"> 
<DataArray  type="Float64"  Name="f_19"  NumberOfComponents="3" format="ascii">-2.4304074110745896e-08 -9.7835364173703540e-09 0.0000000000000000e+00  4.8721973617096674e-08 -5.9300620043257947e-09 0.0000000000000000e+00  4.2900444723227041e-08 -1.7103709355203856e-09 0.0000000000000000e+00  4.0357347137789182e-08 -3.8672950875419151e-10 0.0000000000000000e+00  3.9067017477027374e-08 7.2159930976873676e-11 0.0000000000000000e+00  3.8200522399541331e-08 2.7507644441227802e-10 0.0000000000000000e+00  3.7563040074498834e-08 3.8485793463284416e-10 0.0000000000000000e+00  3.7098596296288621e-08 4.5619590669781524e-10 0.0000000000000000e+00  3.6790417808126333e-08 5.1180848309226672e-10 0.0000000000000000e+00  3.6635646883281700e-08 5.6322211793378077e-10 0.0000000000000000e+00  3.6637772688044658e-08 6.1743988959302395e-10 0.0000000000000000e+00  3.6804885610291451e-08 6.7952972206452465e-10 0.0000000000000000e+00  3.7151010033204376e-08 7.5429308540249066e-10 0.0000000000000000e+00  3.7701367243123267e-08 8.4894350116009759e-10 0.0000000000000000e+00  3.8506796261579778e-08 9.7997129034818600e-10 0.0000000000000000e+00  3.9683501614241939e-08 1.1922259870984777e-09 0.0000000000000000e+00  4.1521958986415474e-08 1.6116711198608301e-09 0.0000000000000000e+00  4.4748591553786301e-08 2.5812182499322144e-09 0.0000000000000000e+00  5.0667781176430981e-08 4.9426490869440275e-09 0.0000000000000000e+00  5.7930209080983226e-08 9.3270454279648285e-09 0.0000000000000000e+00  -1.6544717590731428e-08 7.2280613870770764e-09 0.0000000000000000e+00  -1.8130144004250528e-08 -1.5257751981702649e-08 0.0000000000000000e+00  7.0803926612544852e-09 -1.1052785994027906e-08 0.0000000000000000e+00  1.7802083811721950e-08 -5.1287258697138848e-09 0.0000000000000000e+00  2.2879008073272044e-08 -2.2629503732855065e-09 0.0000000000000000e+00  2.5476896676722045e-08 -1.0056262428737565e-09 0.0000000000000000e+00  2.6928924766168281e-08 -4.1634733945836607e-10 0.0000000000000000e+00  2.7762946930091222e-08 -1.2458128297088363e-10 0.0000000000000000e+00  2.8246324679169216e-08 2.1140633309832794e-11 0.0000000000000000e+00  2.8526638064387929e-08 8.9996967847701968e-11 0.0000000000000000e+00  2.8686999908853505e-08 1.1871014563181975e-10 0.0000000000000000e+00  2.8771730671705460e-08 1.3076986921349092e-10 0.0000000000000000e+00  2.8797910187429633e-08 1.4539414205415890e-10 0.0000000000000000e+00  2.8758933830806663e-08 1.8368267276386647e-10 0.0000000000000000e+00  2.8621981336621151e-08 2.7596540929708327e-10 0.0000000000000000e+00  2.8318344200575162e-08 4.7488274439441884e-10 0.0000000000000000e+00  2.7720813478987553e-08 8.8311603509086306e-10 0.0000000000000000e+00  2.6587145624021224e-08 1.7157662039574874e-09 0.0000000000000000e+00  2.4385008460013594e-08 3.4341776371647405e-09 0.0000000000000000e+00  1.9657232364320372e-08 6.9350086985307271e-09 0.0000000000000000e+00  8.1578765677473789e-09 1.3141891289270421e-08 0.0000000000000000e+00  -1.8517132495686376e-08 1.1127225193456614e-08 0.0000000000000000e+00  -1.1257623838623422e-08 -1.8788404102299447e-08 0.0000000000000000e+00  -4.1397419212746653e-10 -1.8236040782013962e-08 0.0000000000000000e+00  5.4968216533586599e-09 -1.1306402304457785e-08 0.0000000000000000e+00  1.0322262620177735e-08 -6.5200620092002433e-09 0.0000000000000000e+00  1.4139632099811651e-08 -3.7431025293188655e-09 0.0000000000000000e+00  1.6805659155826341e-08 -2.1675637442425271e-09 0.0000000000000000e+00  1.8596466712628555e-08 -1.2528964989630468e-09 0.0000000000000000e+00  1.9777970227492384e-08 -7.0605909017841244e-10 0.0000000000000000e+00  2.0531836268932407e-08 -3.6669453455658894e-10 0.0000000000000000e+00  2.0970356132567717e-08 -1.4001821241242946e-10 0.0000000000000000e+00  2.1154507621637197e-08 3.8220462982222913e-11 0.0000000000000000e+00  2.1104731990124248e-08 2.2127519726335755e-10 0.0000000000000000e+00  2.0804545804216812e-08 4.6537106735812251e-10 0.0000000000000000e+00  2.0197691691393946e-08 8.4444194287021156e-10 0.0000000000000000e+00  1.9178500873663463e-08 1.4715003485031768e-09 0.0000000000000000e+00  1.7574129042823730e-08 2.5337794141048738e-09 0.0000000000000000e+00  1.5118181325700455e-08 4.3464164856450871e-09 0.0000000000000000e+00  1.1426454221332038e-08 7.3942760976473373e-09 0.0000000000000000e+00  6.0383553850999146e-09 1.2134121540726734e-08 0.0000000000000000e+00  -1.3463484794008671e-09 1.7626486896295773e-08 0.0000000000000000e+00  -1.3486816434984661e-08 1.4868615872762222e-08 0.0000000000000000e+00  -7.6332988417018661e-09 -1.9374158633618631e-08 0.0000000000000000e+00  -1.6437637204915452e-09 -1.9507293891868910e-08 0.0000000000000000e+00  8.9868717037932335e-10 -1.5197530612012973e-08 0.0000000000000000e+00  3.5787910399534635e-09 -1.0388212579853713e-08 0.0000000000000000e+00  6.4426871918209115e-09 -6.8239178735453287e-09 0.0000000000000000e+00  8.9693482351758863e-09 -4.4197043452497450e-09 0.0000000000000000e+00  1.0939724322877641e-08 -2.8294730753214452e-09 0.0000000000000000e+00  1.2368500517747365e-08 -1.7639258253224566e-09 0.0000000000000000e+00  1.3336313276218473e-08 -1.0222966522871546e-09 0.0000000000000000e+00  1.3916274886826352e-08 -4.6598275819342944e-10 0.0000000000000000e+00  1.4154394778479891e-08 8.5183079015586335e-12 0.0000000000000000e+00  1.4066065902660265e-08 4.9025281549391561e-10 0.0000000000000000e+00  1.3635855244105982e-08 1.0705665738242946e-09 0.0000000000000000e+00  1.2817656776696033e-08 1.8594546362672038e-09 0.0000000000000000e+00  1.1536626616169839e-08 3.0037781986186704e-09 0.0000000000000000e+00  9.6993957319831006e-09 4.7050104306799773e-09 0.0000000000000000e+00  7.2294337249971928e-09 7.2173060143073643e-09 0.0000000000000000e+00  4.1601982257940897e-09 1.0753331843726495e-08 0.0000000000000000e+00  7.8497890562855355e-10 1.5104408337052566e-08 0.0000000000000000e+00  -2.6171496881934163e-09 1.8767022467858604e-08 0.0000000000000000e+00  -9.3665350317854352e-09 1.7762514375234413e-08 0.0000000000000000e+00  -5.8122938460912908e-09 -1.8751763172835043e-08 0.0000000000000000e+00  -1.9567489957442236e-09 -1.9124711795609764e-08 0.0000000000000000e+00  -1.0709128632184515e-09 -1.6502861110830037e-08 0.0000000000000000e+00  -1.3770351004887901e-11 -1.2714308629094837e-08 0.0000000000000000e+00  1.5814051012554713e-09 -9.2202373486306302e-09 0.0000000000000000e+00  3.3492604106518990e-09 -6.4680340213822008e-09 0.0000000000000000e+00  4.9553163660633192e-09 -4.4195590950395014e-09 0.0000000000000000e+00  6.2450954614167663e-09 -2.9080781065056051e-09 0.0000000000000000e+00  7.1783979573703895e-09 -1.7647093263285102e-09 0.0000000000000000e+00  7.7603878896146689e-09 -8.4591171162418660e-10 0.0000000000000000e+00  8.0037824146905128e-09 -3.0148201093846654e-11 0.0000000000000000e+00  7.9130298704780256e-09 7.9305801590142421e-10 0.0000000000000000e+00  7.4798199920197754e-09 1.7349694110452901e-09 0.0000000000000000e+00  6.6858004675318412e-09 2.9183463747581907e-09 0.0000000000000000e+00  5.5137793877033156e-09 4.4840980694043796e-09 0.0000000000000000e+00  3.9734114023003519e-09 6.5847311430580598e-09 0.0000000000000000e+00  2.1501960751988471e-09 9.3405035749353782e-09 0.0000000000000000e+00  2.7271591864732807e-10 1.2709886641684120e-08 0.0000000000000000e+00  -1.3034418648779583e-09 1.6227845869013070e-08 0.0000000000000000e+00  -2.6996993523513526e-09 1.8742532793539360e-08 0.0000000000000000e+00  -7.2402202135000373e-09 1.8848862576809685e-08 0.0000000000000000e+00  -4.7843312236429955e-09 -1.7592607663075233e-08 0.0000000000000000e+00  -2.1181540187125900e-09 -1.8126746972403524e-08 0.0000000000000000e+00  -2.0971179305442310e-09 -1.6436678215515361e-08 0.0000000000000000e+00  -2.0668033004151394e-09 -1.3624011535390867e-08 0.0000000000000000e+00  -1.5058054306758034e-09 -1.0607719759093657e-08 0.0000000000000000e+00  -5.7383199916683193e-10 -7.9099262210617826e-09 0.0000000000000000e+00  4.5798635633727941e-10 -5.6827751442071249e-09 0.0000000000000000e+00  1.3930699453122790e-09 -3.8935028596803900e-09 0.0000000000000000e+00  2.1250148837685188e-09 -2.4413370167087316e-09 0.0000000000000000e+00  2.6058159295537574e-09 -1.2098804964551900e-09 0.0000000000000000e+00  2.8165148757529897e-09 -8.3983250577505611e-11 0.0000000000000000e+00  2.7502596229123747e-09 1.0483350140746340e-09 0.0000000000000000e+00  2.4063612523447778e-09 2.2986990616287884e-09 0.0000000000000000e+00  1.7934902743620947e-09 3.7801952150773576e-09 0.0000000000000000e+00  9.4213735925870291e-10 5.6024110323850803e-09 0.0000000000000000e+00  -7.2680036748421731e-11 7.8503385143170781e-09 0.0000000000000000e+00  -1.1022091722843565e-09 1.0532448214294477e-08 0.0000000000000000e+00  -1.9147006736936438e-09 1.3485131606731039e-08 0.0000000000000000e+00  -2.3067257700449882e-09 1.6258608314849767e-08 0.0000000000000000e+00  -2.6801422057708021e-09 1.8110673188067143e-08 0.0000000000000000e+00  -6.0112381257873058e-09 1.8729184121542449e-08 0.0000000000000000e+00  -4.1326864836538422e-09 -1.6136183633149374e-08 0.0000000000000000e+00  -2.2449552034695526e-09 -1.6792147743899403e-08 0.0000000000000000e+00  -2.7354675455515847e-09 -1.5655997084129626e-08 0.0000000000000000e+00  -3.3481989596914848e-09 -1.3569028884117429e-08 0.0000000000000000e+00  -3.5332746983422651e-09 -1.1097441534673294e-08 0.0000000000000000e+00  -3.3117852095325960e-09 -8.6620960769500639e-09 0.0000000000000000e+00  -2.8586127469392770e-09 -6.4725267168586903e-09 0.0000000000000000e+00  -2.3438642000791830e-09 -4.5802756846857449e-09 0.0000000000000000e+00  -1.8878763411376919e-09 -2.9491575359226948e-09 0.0000000000000000e+00  -1.5629746156807767e-09 -1.5024591322587958e-09 0.0000000000000000e+00  -1.4069959433039379e-09 -1.4755535502173256e-10 0.0000000000000000e+00  -1.4343677052531707e-09 1.2130026711717429e-09 0.0000000000000000e+00  -1.6407479435247277e-09 2.6760114351976627e-09 0.0000000000000000e+00  -2.0008202220438726e-09 4.3317172010389830e-09 0.0000000000000000e+00  -2.4599510026115997e-09 6.2519029102563679e-09 0.0000000000000000e+00  -2.9223685765403775e-09 8.4659227027041573e-09 0.0000000000000000e+00  -3.2447800696597212e-09 1.0920125608188648e-08 0.0000000000000000e+00  -3.2608958199556918e-09 1.3426185076181784e-08 0.0000000000000000e+00  -2.9059926224536835e-09 1.5632237162110575e-08 0.0000000000000000e+00  -2.6847340144321201e-09 1.7081193295317783e-08 0.0000000000000000e+00  -5.2018201230003680e-09 1.7950962271922740e-08 0.0000000000000000e+00  -3.6849026630304306e-09 -1.4481446739174754e-08 0.0000000000000000e+00  -2.3525660537920472e-09 -1.5233543885680866e-08 0.0000000000000000e+00  -3.1810550981076269e-09 -1.4454786826072388e-08 0.0000000000000000e+00  -4.2103948552430374e-09 -1.2892140085502623e-08 0.0000000000000000e+00  -4.9155198217546375e-09 -1.0907412762281390e-08 0.0000000000000000e+00  -5.2417369235877016e-09 -8.8058052112389993e-09 0.0000000000000000e+00  -5.2842038477674362e-09 -6.7836301235713405e-09 0.0000000000000000e+00  -5.1664251895993011e-09 -4.9273402505269084e-09 0.0000000000000000e+00  -4.9932570130810281e-09 -3.2443770956109936e-09 0.0000000000000000e+00  -4.8381463003289535e-09 -1.6947684574056521e-09 0.0000000000000000e+00  -4.7443530642342483e-09 -2.1386955948860152e-10 0.0000000000000000e+00  -4.7291907748097093e-09 1.2730188858746102e-09 0.0000000000000000e+00  -4.7864014677515958e-09 2.8402708873466207e-09 0.0000000000000000e+00  -4.8853081741136584e-09 4.5516182234697757e-09 0.0000000000000000e+00  -4.9676585466732687e-09 6.4461384331008570e-09 0.0000000000000000e+00  -4.9456858130127596e-09 8.5179680682227751e-09 0.0000000000000000e+00  -4.7095024894010849e-09 1.0690750047706783e-08 0.0000000000000000e+00  -4.1613114613007769e-09 1.2796332540480559e-08 0.0000000000000000e+00  -3.3221389360632317e-09 1.4581250435756098e-08 0.0000000000000000e+00  -2.7088389488348830e-09 1.5766948779928547e-08 0.0000000000000000e+00  -4.6135133593020988e-09 1.6773036762314226e-08 0.0000000000000000e+00  -3.3622337883304679e-09 -1.2681867496554376e-08 0.0000000000000000e+00  -2.4429376586031274e-09 -1.3512311323608513e-08 0.0000000000000000e+00  -3.5106029497316754e-09 -1.2981081586246456e-08 0.0000000000000000e+00  -4.8205060191869302e-09 -1.1806709858134888e-08 0.0000000000000000e+00  -5.8860267849668882e-09 -1.0231025482952665e-08 0.0000000000000000e+00  -6.6158836536681784e-09 -8.4686255389346248e-09 0.0000000000000000e+00  -7.0498134807037147e-09 -6.6799900679747028e-09 0.0000000000000000e+00  -7.2668410440761523e-09 -4.9560892499781336e-09 0.0000000000000000e+00  -7.3457570661666921e-09 -3.3272106036140662e-09 0.0000000000000000e+00  -7.3483750692296880e-09 -1.7805269830202457e-09 0.0000000000000000e+00  -7.3141910075101066e-09 -2.7719030641265803e-10 0.0000000000000000e+00  -7.2597851116581135e-09 1.2336447209551792e-09 0.0000000000000000e+00  -7.1792733551619714e-09 2.8030337853119813e-09 0.0000000000000000e+00  -7.0445092930768543e-09 4.4707267606038389e-09 0.0000000000000000e+00  -6.8057573839146833e-09 6.2521715780163290e-09 0.0000000000000000e+00  -6.3956126374019388e-09 8.1237045324786849e-09 0.0000000000000000e+00  -5.7415769531272549e-09 1.0008688823352222e-08 0.0000000000000000e+00  -4.7980952112939981e-09 1.1772323044261098e-08 0.0000000000000000e+00  -3.6319089854689399e-09 1.3238376964283635e-08 0.0000000000000000e+00  -2.7378243389576696e-09 1.4238322657844969e-08 0.0000000000000000e+00  -4.1582557901051211e-09 1.5322668805213866e-08 0.0000000000000000e+00  -3.1248728837285056e-09 -1.0773520428265702e-08 0.0000000000000000e+00  -2.5172843045542413e-09 -1.1668997711878636e-08 0.0000000000000000e+00  -3.7597418371737852e-09 -1.1320853653890826e-08 0.0000000000000000e+00  -5.2637559169169106e-09 -1.0445740293383996e-08 0.0000000000000000e+00  -6.5792700759954972e-09 -9.2126886843955433e-09 0.0000000000000000e+00  -7.5993139958569765e-09 -7.7715531291381665e-09 0.0000000000000000e+00  -8.3278975924544442e-09 -6.2456980394677126e-09 0.0000000000000000e+00  -8.8086556642046845e-09 -4.7164733468956542e-09 0.0000000000000000e+00  -9.0940951891534428e-09 -3.2224640355260194e-09 0.0000000000000000e+00  -9.2299147709206177e-09 -1.7678354753721661e-09 0.0000000000000000e+00  -9.2474104552408602e-09 -3.3375376935209843e-10 0.0000000000000000e+00  -9.1604169607533401e-09 1.1101325569910077e-09 0.0000000000000000e+00  -8.9646023922441513e-09 2.5948469381771607e-09 0.0000000000000000e+00  -8.6382376367731055e-09 4.1415105575833423e-09 0.0000000000000000e+00  -8.1448611937095064e-09 5.7507275838747671e-09 0.0000000000000000e+00  -7.4394938295635318e-09 7.3926579789864929e-09 0.0000000000000000e+00  -6.4814412152066215e-09 9.0004376574628641e-09 0.0000000000000000e+00  -5.2606361433375082e-09 1.0471909092106977e-08 0.0000000000000000e+00  -3.8662578299626159e-09 1.1686612910869866e-08 0.0000000000000000e+00  -2.7624205370411981e-09 1.2544716599182727e-08 0.0000000000000000e+00  -3.7937998611797685e-09 1.3673847564205436e-08 0.0000000000000000e+00  -2.9510375362853746e-09 -8.7839213907388487e-09 0.0000000000000000e+00  -2.5774674816322558e-09 -9.7339180853810998e-09 0.0000000000000000e+00  -3.9484185255809337e-09 -9.5297710367488054e-09 0.0000000000000000e+00  -5.5881361330974994e-09 -8.8959665895685295e-09 0.0000000000000000e+00  -7.0766342996772353e-09 -7.9556525893946234e-09 0.0000000000000000e+00  -8.3014377640630340e-09 -6.8134408558715425e-09 0.0000000000000000e+00  -9.2443478908937291e-09 -5.5609881384315024e-09 0.0000000000000000e+00  -9.9231572607311483e-09 -4.2652198442920793e-09 0.0000000000000000e+00  -1.0368181730855546e-08 -2.9644648378912225e-09 0.0000000000000000e+00  -1.0609346996858159e-08 -1.6716952095485274e-09 0.0000000000000000e+00  -1.0668715019351129e-08 -3.8159151864924738e-10 0.0000000000000000e+00  -1.0556675299564930e-08 9.2093569282026646e-10 0.0000000000000000e+00  -1.0270751702010975e-08 2.2519369629649095e-09 0.0000000000000000e+00  -9.7965545350365635e-09 3.6198001964816624e-09 0.0000000000000000e+00  -9.1110504140430362e-09 5.0172607931320790e-09 0.0000000000000000e+00  -8.1889171390666251e-09 6.4150803309773347e-09 0.0000000000000000e+00  -7.0135401061427845e-09 7.7593927404844423e-09 0.0000000000000000e+00  -5.5978011871083217e-09 8.9755638378227644e-09 0.0000000000000000e+00  -4.0412145700064634e-09 9.9823618357407794e-09 0.0000000000000000e+00  -2.7785672711889277e-09 1.0723993615318090e-08 0.0000000000000000e+00  -3.4980446448848572e-09 1.1876698931995671e-08 0.0000000000000000e+00  -2.8282006367312777e-09 -6.7352134684191630e-09 0.0000000000000000e+00  -2.6258030895879388e-09 -7.7312042690397468e-09 0.0000000000000000e+00  -4.0897138908931810e-09 -7.6467838703314480e-09 0.0000000000000000e+00  -5.8235417905436912e-09 -7.2165806534581995e-09 0.0000000000000000e+00  -7.4302545831390625e-09 -6.5335287041981801e-09 0.0000000000000000e+00  -8.7964702064485007e-09 -5.6704381172664799e-09 0.0000000000000000e+00  -9.8904820707096348e-09 -4.6935565313799409e-09 0.0000000000000000e+00  -1.0712162779531934e-08 -3.6548783399340540e-09 0.0000000000000000e+00  -1.1274809846488001e-08 -2.5880036049759758e-09 0.0000000000000000e+00  -1.1595101392462232e-08 -1.5089022215088546e-09 0.0000000000000000e+00  -1.1686717433018941e-08 -4.2002984153016994e-10 0.0000000000000000e+00  -1.1556709075870634e-08 6.8378980279902690e-10 0.0000000000000000e+00  -1.1204236912609156e-08 1.8088258397274594e-09 0.0000000000000000e+00  -1.0621487703938056e-08 2.9559908953173832e-09 0.0000000000000000e+00  -9.7967873463684778e-09 4.1151850043278828e-09 0.0000000000000000e+00  -8.7201429826770254e-09 5.2613965645551683e-09 0.0000000000000000e+00  -7.3920258879137771e-09 6.3539002461223988e-09 0.0000000000000000e+00  -5.8398506000343264e-09 7.3400991043804020e-09 0.0000000000000000e+00  -4.1676172929848865e-09 8.1664767185656452e-09 0.0000000000000000e+00  -2.7854850603600556e-09 8.8065430435333268e-09 0.0000000000000000e+00  -3.2583848858764287e-09 9.9685192771722590e-09 0.0000000000000000e+00  -2.7490174379603697e-09 -4.6456400307088678e-09 0.0000000000000000e+00  -2.6647093016409387e-09 -5.6806151215068178e-09 0.0000000000000000e+00  -4.1930410913436175e-09 -5.7006610894382490e-09 0.0000000000000000e+00  -5.9900192063720358e-09 -5.4495954948783070e-09 0.0000000000000000e+00  -7.6750147230599780e-09 -4.9993839255198005e-09 0.0000000000000000e+00  -9.1355879060309582e-09 -4.3999232898204077e-09 0.0000000000000000e+00  -1.0332025434820678e-08 -3.6973557661826828e-09 0.0000000000000000e+00  -1.1252311070077842e-08 -2.9298136414496583e-09 0.0000000000000000e+00  -1.1897581141383982e-08 -2.1240642198552363e-09 0.0000000000000000e+00  -1.2274433174033936e-08 -1.2952565007881016e-09 0.0000000000000000e+00  -1.2389818155164412e-08 -4.4916599741057802e-10 0.0000000000000000e+00  -1.2247944201825821e-08 4.1402238679912601e-10 0.0000000000000000e+00  -1.1849146536406147e-08 1.2952461318217226e-09 0.0000000000000000e+00  -1.1190690057515552e-08 2.1921125807735426e-09 0.0000000000000000e+00  -1.0269445675778273e-08 3.0951258733348728e-09 0.0000000000000000e+00  -9.0864117743023720e-09 3.9853381688231814e-09 0.0000000000000000e+00  -7.6535933718459298e-09 4.8342622669844115e-09 0.0000000000000000e+00  -6.0074956340634073e-09 5.6068904923146649e-09 0.0000000000000000e+00  -4.2540005922080643e-09 6.2698591266169812e-09 0.0000000000000000e+00  -2.7840801506289598e-09 6.8171650525372843e-09 0.0000000000000000e+00  -3.0670559602391662e-09 7.9783091665491929e-09 0.0000000000000000e+00  -2.7092586229562784e-09 -2.5305310263828258e-09 0.0000000000000000e+00  -2.6963923156228076e-09 -3.5986364934262981e-09 0.0000000000000000e+00  -4.2652912613257874e-09 -3.7135722425268201e-09 0.0000000000000000e+00  -6.1013389932584871e-09 -3.6259746203576526e-09 0.0000000000000000e+00  -7.8345047381475247e-09 -3.3922695222178679e-09 0.0000000000000000e+00  -9.3538366112389557e-09 -3.0451157787446456e-09 0.0000000000000000e+00  -1.0615145302978897e-08 -2.614448694397991