<?xml version="1.0"?>
<VTKFile type="UnstructuredGrid"  version="0.1"  >
<UnstructuredGrid>
<Piece  NumberOfPoints="651" NumberOfCells="1200">
<Points>
<DataArray  type="Float64"  NumberOfComponents="3"  format="ascii">0 0 0  50000 0 0  100000 0 0  150000 0 0  200000 0 0  250000 0 0  300000 0 0  350000 0 0  400000 0 0  450000 0 0  500000 0 0  550000 0 0  600000 0 0  650000 0 0  700000 0 0  750000 0 0  800000 0 0  850000 0 0  900000 0 0  950000 0 0  1000000 0 0  0 50000 0  50000 50000 0  100000 50000 0  150000 50000 0  200000 50000 0  250000 50000 0  300000 50000 0  350000 50000 0  400000 50000 0  450000 50000 0  500000 50000 0  550000 50000 0  600000 50000 0  650000 50000 0  700000 50000 0  750000 50000 0  800000 50000 0  850000 50000 0  900000 50000 0  950000 50000 0  1000000 50000 0  0 100000 0  50000 100000 0  100000 100000 0  150000 100000 0  200000 100000 0  250000 100000 0  300000 100000 0  350000 100000 0  400000 100000 0  450000 100000 0  500000 100000 0  550000 100000 0  600000 100000 0  650000 100000 0  700000 100000 0  750000 100000 0  800000 100000 0  850000 100000 0  900000 100000 0  950000 100000 0  1000000 100000 0  0 150000 0  50000 150000 0  100000 150000 0  150000 150000 0  200000 150000 0  250000 150000 0  300000 150000 0  350000 150000 0  400000 150000 0  450000 150000 0  500000 150000 0  550000 150000 0  600000 150000 0  650000 150000 0  700000 150000 0  750000 150000 0  800000 150000 0  850000 150000 0  900000 150000 0  950000 150000 0  1000000 150000 0  0 200000 0  50000 200000 0  100000 200000 0  150000 200000 0  200000 200000 0  250000 200000 0  300000 200000 0  350000 200000 0  400000 200000 0  450000 200000 0  500000 200000 0  550000 200000 0  600000 200000 0  650000 200000 0  700000 200000 0  750000 200000 0  800000 200000 0  850000 200000 0  900000 200000 0  950000 200000 0  1000000 200000 0  0 250000 0  50000 250000 0  100000 250000 0  150000 250000 0  200000 250000 0  250000 250000 0  300000 250000 0  350000 250000 0  400000 250000 0  450000 250000 0  500000 250000 0  550000 250000 0  600000 250000 0  650000 250000 0  700000 250000 0  750000 250000 0  800000 250000 0  850000 250000 0  900000 250000 0  950000 250000 0  1000000 250000 0  0 300000 0  50000 300000 0  100000 300000 0  150000 300000 0  200000 300000 0  250000 300000 0  300000 300000 0  350000 300000 0  400000 300000 0  450000 300000 0  500000 300000 0  550000 300000 0  600000 300000 0  650000 300000 0  700000 300000 0  750000 300000 0  800000 300000 0  850000 300000 0  900000 300000 0  950000 300000 0  1000000 300000 0  0 350000 0  50000 350000 0  100000 350000 0  150000 350000 0  200000 350000 0  250000 350000 0  300000 350000 0  350000 350000 0  400000 350000 0  450000 350000 0  500000 350000 0  550000 350000 0  600000 350000 0  650000 350000 0  700000 350000 0  750000 350000 0  800000 350000 0  850000 350000 0  900000 350000 0  950000 350000 0  1000000 350000 0  0 400000 0  50000 400000 0  100000 400000 0  150000 400000 0  200000 400000 0  250000 400000 0  300000 400000 0  350000 400000 0  400000 400000 0  450000 400000 0  500000 400000 0  550000 400000 0  600000 400000 0  650000 400000 0  700000 400000 0  750000 400000 0  800000 400000 0  850000 400000 0  900000 400000 0  950000 400000 0  1000000 400000 0  0 450000 0  50000 450000 0  100000 450000 0  150000 450000 0  200000 450000 0  250000 450000 0  300000 450000 0  350000 450000 0  400000 450000 0  450000 450000 0  500000 450000 0  550000 450000 0  600000 450000 0  650000 450000 0  700000 450000 0  750000 450000 0  800000 450000 0  850000 450000 0  900000 450000 0  950000 450000 0  1000000 450000 0  0 500000 0  50000 500000 0  100000 500000 0  150000 500000 0  200000 500000 0  250000 500000 0  300000 500000 0  350000 500000 0  400000 500000 0  450000 500000 0  500000 500000 0  550000 500000 0  600000 500000 0  650000 500000 0  700000 500000 0  750000 500000 0  800000 500000 0  850000 500000 0  900000 500000 0  950000 500000 0  1000000 500000 0  0 550000 0  50000 550000 0  100000 550000 0  150000 550000 0  200000 550000 0  250000 550000 0  300000 550000 0  350000 550000 0  400000 550000 0  450000 550000 0  500000 550000 0  550000 550000 0  600000 550000 0  650000 550000 0  700000 550000 0  750000 550000 0  800000 550000 0  850000 550000 0  900000 550000 0  950000 550000 0  1000000 550000 0  0 600000 0  50000 600000 0  100000 600000 0  150000 600000 0  200000 600000 0  250000 600000 0  300000 600000 0  350000 600000 0  400000 600000 0  450000 600000 0  500000 600000 0  550000 600000 0  600000 600000 0  650000 600000 0  700000 600000 0  750000 600000 0  800000 600000 0  850000 600000 0  900000 600000 0  950000 600000 0  1000000 600000 0  0 650000 0  50000 650000 0  100000 650000 0  150000 650000 0  200000 650000 0  250000 650000 0  300000 650000 0  350000 650000 0  400000 650000 0  450000 650000 0  500000 650000 0  550000 650000 0  600000 650000 0  650000 650000 0  700000 650000 0  750000 650000 0  800000 650000 0  850000 650000 0  900000 650000 0  950000 650000 0  1000000 650000 0  0 700000 0  50000 700000 0  100000 700000 0  150000 700000 0  200000 700000 0  250000 700000 0  300000 700000 0  350000 700000 0  400000 700000 0  450000 700000 0  500000 700000 0  550000 700000 0  600000 700000 0  650000 700000 0  700000 700000 0  750000 700000 0  800000 700000 0  850000 700000 0  900000 700000 0  950000 700000 0  1000000 700000 0  0 750000 0  50000 750000 0  100000 750000 0  150000 750000 0  200000 750000 0  250000 750000 0  300000 750000 0  350000 750000 0  400000 750000 0  450000 750000 0  500000 750000 0  550000 750000 0  600000 750000 0  650000 750000 0  700000 750000 0  750000 750000 0  800000 750000 0  850000 750000 0  900000 750000 0  950000 750000 0  1000000 750000 0  0 800000 0  50000 800000 0  100000 800000 0  150000 800000 0  200000 800000 0  250000 800000 0  300000 800000 0  350000 800000 0  400000 800000 0  450000 800000 0  500000 800000 0  550000 800000 0  600000 800000 0  650000 800000 0  700000 800000 0  750000 800000 0  800000 800000 0  850000 800000 0  900000 800000 0  950000 800000 0  1000000 800000 0  0 850000 0  50000 850000 0  100000 850000 0  150000 850000 0  200000 850000 0  250000 850000 0  300000 850000 0  350000 850000 0  400000 850000 0  450000 850000 0  500000 850000 0  550000 850000 0  600000 850000 0  650000 850000 0  700000 850000 0  750000 850000 0  800000 850000 0  850000 850000 0  900000 850000 0  950000 850000 0  1000000 850000 0  0 900000 0  50000 900000 0  100000 900000 0  150000 900000 0  200000 900000 0  250000 900000 0  300000 900000 0  350000 900000 0  400000 900000 0  450000 900000 0  500000 900000 0  550000 900000 0  600000 900000 0  650000 900000 0  700000 900000 0  750000 900000 0  800000 900000 0  850000 900000 0  900000 900000 0  950000 900000 0  1000000 900000 0  0 950000 0  50000 950000 0  100000 950000 0  150000 950000 0  200000 950000 0  250000 950000 0  300000 950000 0  350000 950000 0  400000 950000 0  450000 950000 0  500000 950000 0  550000 950000 0  600000 950000 0  650000 950000 0  700000 950000 0  750000 950000 0  800000 950000 0  850000 950000 0  900000 950000 0  950000 950000 0  1000000 950000 0  0 1000000 0  50000 1000000 0  100000 1000000 0  150000 1000000 0  200000 1000000 0  250000 1000000 0  300000 1000000 0  350000 1000000 0  400000 1000000 0  450000 1000000 0  500000 1000000 0  550000 1000000 0  600000 1000000 0  650000 1000000 0  700000 1000000 0  750000 1000000 0  800000 1000000 0  850000 1000000 0  900000 1000000 0  950000 1000000 0  1000000 1000000 0  0 1050000 0  50000 1050000 0  100000 1050000 0  150000 1050000 0  200000 1050000 0  250000 1050000 0  300000 1050000 0  350000 1050000 0  400000 1050000 0  450000 1050000 0  500000 1050000 0  550000 1050000 0  600000 1050000 0  650000 1050000 0  700000 1050000 0  750000 1050000 0  800000 1050000 0  850000 1050000 0  900000 1050000 0  950000 1050000 0  1000000 1050000 0  0 1100000 0  50000 1100000 0  100000 1100000 0  150000 1100000 0  200000 1100000 0  250000 1100000 0  300000 1100000 0  350000 1100000 0  400000 1100000 0  450000 1100000 0  500000 1100000 0  550000 1100000 0  600000 1100000 0  650000 1100000 0  700000 1100000 0  750000 1100000 0  800000 1100000 0  850000 1100000 0  900000 1100000 0  950000 1100000 0  1000000 1100000 0  0 1150000 0  50000 1150000 0  100000 1150000 0  150000 1150000 0  200000 1150000 0  250000 1150000 0  300000 1150000 0  350000 1150000 0  400000 1150000 0  450000 1150000 0  500000 1150000 0  550000 1150000 0  600000 1150000 0  650000 1150000 0  700000 1150000 0  750000 1150000 0  800000 1150000 0  850000 1150000 0  900000 1150000 0  950000 1150000 0  1000000 1150000 0  0 1200000 0  50000 1200000 0  100000 1200000 0  150000 1200000 0  200000 1200000 0  250000 1200000 0  300000 1200000 0  350000 1200000 0  400000 1200000 0  450000 1200000 0  500000 1200000 0  550000 1200000 0  600000 1200000 0  650000 1200000 0  700000 1200000 0  750000 1200000 0  800000 1200000 0  850000 1200000 0  900000 1200000 0  950000 1200000 0  1000000 1200000 0  0 1250000 0  50000 1250000 0  100000 1250000 0  150000 1250000 0  200000 1250000 0  250000 1250000 0  300000 1250000 0  350000 1250000 0  400000 1250000 0  450000 1250000 0  500000 1250000 0  550000 1250000 0  600000 1250000 0  650000 1250000 0  700000 1250000 0  750000 1250000 0  800000 1250000 0  850000 1250000 0  900000 1250000 0  950000 1250000 0  1000000 1250000 0  0 1300000 0  50000 1300000 0  100000 1300000 0  150000 1300000 0  200000 1300000 0  250000 1300000 0  300000 1300000 0  350000 1300000 0  400000 1300000 0  450000 1300000 0  500000 1300000 0  550000 1300000 0  600000 1300000 0  650000 1300000 0  700000 1300000 0  750000 1300000 0  800000 1300000 0  850000 1300000 0  900000 1300000 0  950000 1300000 0  1000000 1300000 0  0 1350000 0  50000 1350000 0  100000 1350000 0  150000 1350000 0  200000 1350000 0  250000 1350000 0  300000 1350000 0  350000 1350000 0  400000 1350000 0  450000 1350000 0  500000 1350000 0  550000 1350000 0  600000 1350000 0  650000 1350000 0  700000 135
[...]
<PointData  Vectors="f_19"> 
<DataArray  type="Float64"  Name="f_19"  NumberOfComponents="3" format="ascii">-2.4257776340747345e-08 -1.0700175468613475e-08 0.0000000000000000e+00  4.8779081305932576e-08 -6.7702461904440079e-09 0.0000000000000000e+00  4.3027546032384175e-08 -2.4470079579843857e-09 0.0000000000000000e+00  4.0556657775620238e-08 -1.0603708004959245e-09 0.0000000000000000e+00  3.9338304230311999e-08 -5.6758526643460663e-10 0.0000000000000000e+00  3.8539651660099014e-08 -3.4928993098017091e-10 0.0000000000000000e+00  3.7963874745084910e-08 -2.3762917202940415e-10 0.0000000000000000e+00  3.7554134878726541e-08 -1.7514070143674665e-10 0.0000000000000000e+00  3.7292552100634037e-08 -1.3738152123912239e-10 0.0000000000000000e+00  3.7174451091337767e-08 -1.1136213905537098e-10 0.0000000000000000e+00  3.7200602895125905e-08 -8.8153925877157106e-11 0.0000000000000000e+00  3.7375457659707818e-08 -5.9529133421495707e-11 0.0000000000000000e+00  3.7708739185286435e-08 -1.5416028474383617e-11 0.0000000000000000e+00  3.8221497121445034e-08 5.9656286986062924e-11 0.0000000000000000e+00  3.8962187852642885e-08 1.9387100625132761e-10 0.0000000000000000e+00  4.0049202652655980e-08 4.4622707460943247e-10 0.0000000000000000e+00  4.1783216497778943e-08 9.5516938702994090e-10 0.0000000000000000e+00  4.4910562407917068e-08 2.0652035541330904e-09 0.0000000000000000e+00  5.0760451816361852e-08 4.5937040791073612e-09 0.0000000000000000e+00  5.8003609564585780e-08 9.1082718432767515e-09 0.0000000000000000e+00  -1.6451473304323193e-08 7.0008880532494864e-09 0.0000000000000000e+00  -1.8002641996609533e-08 -1.6239306799417115e-08 0.0000000000000000e+00  7.3192118329187714e-09 -1.1409199693454898e-08 0.0000000000000000e+00  1.8252234582724213e-08 -5.2769452895421307e-09 0.0000000000000000e+00  2.3299491031720110e-08 -2.4176858811128185e-09 0.0000000000000000e+00  2.5863694612813561e-08 -1.1622083808249827e-09 0.0000000000000000e+00  2.7307159317030336e-08 -5.7115153064122424e-10 0.0000000000000000e+00  2.8141666513023932e-08 -2.7549748413181547e-10 0.0000000000000000e+00  2.8626168756199395e-08 -1.2475176475885228e-10 0.0000000000000000e+00  2.8903725711450544e-08 -4.9868952851757894e-11 0.0000000000000000e+00  2.9054045844739084e-08 -1.3514648597920237e-11 0.0000000000000000e+00  2.9118565131319480e-08 8.8701953963219015e-12 0.0000000000000000e+00  2.9111966906734267e-08 3.7769413594878272e-11 0.0000000000000000e+00  2.9026167834726043e-08 9.5352306401437161e-11 0.0000000000000000e+00  2.8828785922526245e-08 2.1207786659509036e-10 0.0000000000000000e+00  2.8455084854434655e-08 4.3847745604046728e-10 0.0000000000000000e+00  2.7787353850283647e-08 8.7104866712766534e-10 0.0000000000000000e+00  2.6599674912784391e-08 1.7131049879167794e-09 0.0000000000000000e+00  2.4380444698576215e-08 3.4105505493310699e-09 0.0000000000000000e+00  1.9684510041197641e-08 6.8535269824111949e-09 0.0000000000000000e+00  8.2638942717181057e-09 1.3004736297011100e-08 0.0000000000000000e+00  -1.8418948908877788e-08 1.0933845428159973e-08 0.0000000000000000e+00  -1.1004196114657070e-08 -1.9804510416980884e-08 0.0000000000000000e+00  -2.2562373254773072e-10 -1.8563267188870574e-08 0.0000000000000000e+00  5.9182171772467050e-09 -1.1321457869232965e-08 0.0000000000000000e+00  1.0812078817299558e-08 -6.5274496769394194e-09 0.0000000000000000e+00  1.4617427586074942e-08 -3.7649306433473548e-09 0.0000000000000000e+00  1.7248365615732036e-08 -2.1981481906766655e-09 0.0000000000000000e+00  1.9002343895062869e-08 -1.2842345901364449e-09 0.0000000000000000e+00  2.0147151136151590e-08 -7.3121554991462246e-10 0.0000000000000000e+00  2.0862523459574911e-08 -3.7983225775027714e-10 0.0000000000000000e+00  2.1258872169102026e-08 -1.3568018404636388e-10 0.0000000000000000e+00  2.1395994957640223e-08 6.5542818979637598e-11 0.0000000000000000e+00  2.1294197356332406e-08 2.7696732337972368e-10 0.0000000000000000e+00  2.0938329758088192e-08 5.5369413040406715e-10 0.0000000000000000e+00  2.0275417230563770e-08 9.6641292747826876e-10 0.0000000000000000e+00  1.9205306028111194e-08 1.6214376661216097e-09 0.0000000000000000e+00  1.7562422147885597e-08 2.6948699757147021e-09 0.0000000000000000e+00  1.5087269264008534e-08 4.4873243078567309e-09 0.0000000000000000e+00  1.1397844980918631e-08 7.4724199050921922e-09 0.0000000000000000e+00  6.0277518120269048e-09 1.2116192418967004e-08 0.0000000000000000e+00  -1.2850447141708382e-09 1.7568442442685962e-08 0.0000000000000000e+00  -1.3250282564862701e-08 1.4682254842180225e-08 0.0000000000000000e+00  -7.2899076970856043e-09 -2.0389349526086509e-08 0.0000000000000000e+00  -1.5367935620101030e-09 -2.0022751780504141e-08 0.0000000000000000e+00  1.1570350782269865e-09 -1.5307505004139643e-08 0.0000000000000000e+00  3.9495040321540759e-09 -1.0395300323104353e-08 0.0000000000000000e+00  6.8511897886977215e-09 -6.8097552427425382e-09 0.0000000000000000e+00  9.3662544317639632e-09 -4.4010089910094512e-09 0.0000000000000000e+00  1.1301097325623275e-08 -2.8056432366520400e-09 0.0000000000000000e+00  1.2682879960463528e-08 -1.7299625961569126e-09 0.0000000000000000e+00  1.3597283587862556e-08 -9.7240254239086218e-10 0.0000000000000000e+00  1.4119531433106752e-08 -3.9452285351980791e-10 0.0000000000000000e+00  1.4297113291914895e-08 1.0660369752017654e-10 0.0000000000000000e+00  1.4147327324968583e-08 6.1874060560424684e-10 0.0000000000000000e+00  1.3657581613358650e-08 1.2305608597584466e-09 0.0000000000000000e+00  1.2785675942377100e-08 2.0471507024657341e-09 0.0000000000000000e+00  1.1461326578014769e-08 3.2075512382793244e-09 0.0000000000000000e+00  9.5951474949155953e-09 4.9027407209246885e-09 0.0000000000000000e+00  7.1119346115603339e-09 7.3762574816338743e-09 0.0000000000000000e+00  4.0423273279754262e-09 1.0837027019273323e-08 0.0000000000000000e+00  6.7867768476398852e-10 1.5093291465846722e-08 0.0000000000000000e+00  -2.6166427513947037e-09 1.8737439687579894e-08 0.0000000000000000e+00  -8.9444261787961356e-09 1.7526972729624198e-08 0.0000000000000000e+00  -5.4104377991210138e-09 -1.9759544348748584e-08 0.0000000000000000e+00  -1.8819944455692275e-09 -1.9770161984365522e-08 0.0000000000000000e+00  -9.2111032129624704e-10 -1.6742044655154308e-08 0.0000000000000000e+00  2.3007549867965739e-10 -1.2780938638105057e-08 0.0000000000000000e+00  1.8803265176299680e-09 -9.2114956144870855e-09 0.0000000000000000e+00  3.6574536204873405e-09 -6.4232464517845659e-09 0.0000000000000000e+00  5.2405199084862754e-09 -4.3519758430736970e-09 0.0000000000000000e+00  6.4875238446764032e-09 -2.8201051803960935e-09 0.0000000000000000e+00  7.3663957987677913e-09 -1.6546184685104663e-09 0.0000000000000000e+00  7.8874798402775537e-09 -7.1078880082997970e-10 0.0000000000000000e+00  8.0672907726386938e-09 1.3253010983475132e-10 0.0000000000000000e+00  7.9137165686181303e-09 9.8408887212452758e-10 0.0000000000000000e+00  7.4220089359201433e-09 1.9518304842538263e-09 0.0000000000000000e+00  6.5774797607298567e-09 3.1532410443581465e-09 0.0000000000000000e+00  5.3661664079590706e-09 4.7219578824862859e-09 0.0000000000000000e+00  3.7995225282850846e-09 6.8020934942164784e-09 0.0000000000000000e+00  1.9624913162452403e-09 9.5069441301344254e-09 0.0000000000000000e+00  8.1955138184544400e-11 1.2794398421153759e-08 0.0000000000000000e+00  -1.4781110339748243e-09 1.6213327724343632e-08 0.0000000000000000e+00  -2.7264420812884386e-09 1.8689019042571190e-08 0.0000000000000000e+00  -6.6513103759862321e-09 1.8516925687248538e-08 0.0000000000000000e+00  -4.3413860334129653e-09 -1.8590483241571386e-08 0.0000000000000000e+00  -2.0577151775552001e-09 -1.8837252914770496e-08 0.0000000000000000e+00  -2.0154208726551311e-09 -1.6778094576243694e-08 0.0000000000000000e+00  -1.9206797343648578e-09 -1.3759695561716276e-08 0.0000000000000000e+00  -1.3095760200092619e-09 -1.0624314769981198e-08 0.0000000000000000e+00  -3.6043660460557461e-10 -7.8557047899884887e-09 0.0000000000000000e+00  6.5869022586706778e-10 -5.5819765509502576e-09 0.0000000000000000e+00  1.5592486449634593e-09 -3.7571612435536089e-09 0.0000000000000000e+00  2.2424228540946097e-09 -2.2738999064422825e-09 0.0000000000000000e+00  2.6663140869205578e-09 -1.0130776026755912e-09 0.0000000000000000e+00  2.8169004732528699e-09 1.4076568699081170e-10 0.0000000000000000e+00  2.6915772679195721e-09 1.2980979625834018e-09 0.0000000000000000e+00  2.2934700404276628e-09 2.5673440487920119e-09 0.0000000000000000e+00  1.6345567559432962e-09 4.0567543226087931e-09 0.0000000000000000e+00  7.4774984776935029e-10 5.8697671369373706e-09 0.0000000000000000e+00  -2.9086541854518846e-10 8.0848544246793133e-09 0.0000000000000000e+00  -1.3327286640951130e-09 1.0705376431468617e-08 0.0000000000000000e+00  -2.1449727659395089e-09 1.3566568566171004e-08 0.0000000000000000e+00  -2.5090181296143868e-09 1.6225088397467120e-08 0.0000000000000000e+00  -2.7033851031125055e-09 1.7992954799993191e-08 0.0000000000000000e+00  -5.3037452877187367e-09 1.8277566359803109e-08 0.0000000000000000e+00  -3.6592218703976120e-09 -1.7123992394330014e-08 0.0000000000000000e+00  -2.1901475838380241e-09 -1.7533532696882884e-08 0.0000000000000000e+00  -2.6965756391511462e-09 -1.6064389445897528e-08 0.0000000000000000e+00  -3.2714399959427441e-09 -1.3761052296676054e-08 0.0000000000000000e+00  -3.4194615405191137e-09 -1.1142306064016670e-08 0.0000000000000000e+00  -3.1820210729704856e-09 -8.6071938550623937e-09 0.0000000000000000e+00  -2.7364315215602636e-09 -6.3477027560178477e-09 0.0000000000000000e+00  -2.2489248024708853e-09 -4.4033573679853289e-09 0.0000000000000000e+00  -1.8342284142076638e-09 -2.7307593249508030e-09 0.0000000000000000e+00  -1.5591127158500375e-09 -1.2495644364561241e-09 0.0000000000000000e+00  -1.4564213575523245e-09 1.3388321112170503e-10 0.0000000000000000e+00  -1.5362014061086653e-09 1.5160533450100077e-09 0.0000000000000000e+00  -1.7903429723781788e-09 2.9910794878699317e-09 0.0000000000000000e+00  -2.1904775233548355e-09 4.6451327307788609e-09 0.0000000000000000e+00  -2.6798206043380525e-09 6.5449336338985658e-09 0.0000000000000000e+00  -3.1614060999651998e-09 8.7144930812069424e-09 0.0000000000000000e+00  -3.4911036173788723e-09 1.1095444696970586e-08 0.0000000000000000e+00  -3.4993753622834006e-09 1.3496184951990826e-08 0.0000000000000000e+00  -3.1037105016779623e-09 1.5564295499212553e-08 0.0000000000000000e+00  -2.6875202820404542e-09 1.6878774924303855e-08 0.0000000000000000e+00  -4.4270769900026325e-09 1.7379663522117934e-08 0.0000000000000000e+00  -3.1879558207552161e-09 -1.5460064223112308e-08 0.0000000000000000e+00  -2.2985495841112145e-09 -1.5986778329088650e-08 0.0000000000000000e+00  -3.1686380093829766e-09 -1.4903063578083309e-08 0.0000000000000000e+00  -4.1810285180892178e-09 -1.3122841553635026e-08 0.0000000000000000e+00  -4.8631460490612845e-09 -1.0974628133990709e-08 0.0000000000000000e+00  -5.1789666400442739e-09 -8.7522469779701691e-09 0.0000000000000000e+00  -5.2280020004141441e-09 -6.6407228157285340e-09 0.0000000000000000e+00  -5.1325131777463590e-09 -4.7172170992569725e-09 0.0000000000000000e+00  -4.9937102883463241e-09 -2.9826827924160057e-09 0.0000000000000000e+00  -4.8806124733005832e-09 -1.3933685189171767e-09 0.0000000000000000e+00  -4.8320586979089837e-09 1.1684109106512364e-10 0.0000000000000000e+00  -4.8613010655444679e-09 1.6222019781939909e-09 0.0000000000000000e+00  -4.9585577428217006e-09 3.1950551736391419e-09 0.0000000000000000e+00  -5.0902916561370100e-09 4.8958196648332625e-09 0.0000000000000000e+00  -5.1961208925106781e-09 6.7593445426087121e-09 0.0000000000000000e+00  -5.1867465148761318e-09 8.7750302453288777e-09 0.0000000000000000e+00  -4.9506766591863406e-09 1.0861555837829324e-08 0.0000000000000000e+00  -4.3860705467958734e-09 1.2845504695973646e-08 0.0000000000000000e+00  -3.4965890485618811e-09 1.4468361085875598e-08 0.0000000000000000e+00  -2.6860897719025586e-09 1.5475786587725927e-08 0.0000000000000000e+00  -3.8133079324451749e-09 1.6096616203889025e-08 0.0000000000000000e+00  -2.8465785830077757e-09 -1.3652582159755818e-08 0.0000000000000000e+00  -2.3870708471807071e-09 -1.4265925256655009e-08 0.0000000000000000e+00  -3.5141782116165306e-09 -1.3450384506445790e-08 0.0000000000000000e+00  -4.8226097154265884e-09 -1.2060112553343825e-08 0.0000000000000000e+00  -5.8774233521410300e-09 -1.0311819287660689e-08 0.0000000000000000e+00  -6.6036464128932366e-09 -8.4144645276397779e-09 0.0000000000000000e+00  -7.0454593060148285e-09 -6.5218661584594073e-09 0.0000000000000000e+00  -7.2819244066867239e-09 -4.7185000580595642e-09 0.0000000000000000e+00  -7.3896112100204689e-09 -3.0294752714831522e-09 0.0000000000000000e+00  -7.4270392213440335e-09 -1.4385711367251130e-09 0.0000000000000000e+00  -7.4300778311147951e-09 9.4643835122032786e-11 0.0000000000000000e+00  -7.4117890195367763e-09 1.6209477353665589e-09 0.0000000000000000e+00  -7.3631362189816211e-09 3.1898972036254150e-09 0.0000000000000000e+00  -7.2533294678949421e-09 4.8385524634541025e-09 0.0000000000000000e+00  -7.0305307025395987e-09 6.5787247495442207e-09 0.0000000000000000e+00  -6.6256275332506518e-09 8.3823423389374910e-09 0.0000000000000000e+00  -5.9642973275716513e-09 1.0167544460220245e-08 0.0000000000000000e+00  -4.9972158752713514e-09 1.1793158708432782e-08 0.0000000000000000e+00  -3.7756865731912091e-09 1.3075984322772470e-08 0.0000000000000000e+00  -2.6915330231281174e-09 1.3864752925584730e-08 0.0000000000000000e+00  -3.3613503923303221e-09 1.4561657811390107e-08 0.0000000000000000e+00  -2.5936742944890447e-09 -1.1737749467316298e-08 0.0000000000000000e+00  -2.4581219446056777e-09 -1.2416114247661763e-08 0.0000000000000000e+00  -3.7726053686830843e-09 -1.1798294186027538e-08 0.0000000000000000e+00  -5.2862049876180064e-09 -1.0709219174764614e-08 0.0000000000000000e+00  -6.6008301027280453e-09 -9.2984359804104754e-09 0.0000000000000000e+00  -7.6236162030335602e-09 -7.7131793778394991e-09 0.0000000000000000e+00  -8.3623529811753436e-09 -6.0731499716002697e-09 0.0000000000000000e+00  -8.8611221346394818e-09 -4.4554520181303922e-09 0.0000000000000000e+00  -9.1710696809626191e-09 -2.8948428212908324e-09 0.0000000000000000e+00  -9.3355051046231400e-09 -1.3927142821508239e-09 0.0000000000000000e+00  -9.3828741897437876e-09 7.1229561885796952e-11 0.0000000000000000e+00  -9.3241016894479702e-09 1.5274654549546908e-09 0.0000000000000000e+00  -9.1521495019899711e-09 3.0058977199945302e-09 0.0000000000000000e+00  -8.8429381726183716e-09 4.5254243991692051e-09 0.0000000000000000e+00  -8.3580602189085138e-09 6.0834534627169866e-09 0.0000000000000000e+00  -7.6509222729843128e-09 7.6460193135390894e-09 0.0000000000000000e+00  -6.6792477035434773e-09 9.1410638483219949e-09 0.0000000000000000e+00  -5.4300358766476701e-09 1.0459908963061513e-08 0.0000000000000000e+00  -3.9792978601249499e-09 1.1475065101247573e-08 0.0000000000000000e+00  -2.6976457532329754e-09 1.2100043902159360e-08 0.0000000000000000e+00  -3.0172193515169626e-09 1.2849054187661779e-08 0.0000000000000000e+00  -2.4062321334922466e-09 -9.7430571317952114e-09 0.0000000000000000e+00  -2.5142119399145453e-09 -1.0470537131958812e-08 0.0000000000000000e+00  -3.9663148460698143e-09 -1.0006622514090835e-08 0.0000000000000000e+00  -5.6233937649826214e-09 -9.1600935093557476e-09 0.0000000000000000e+00  -7.1184717830328633e-09 -8.0390254676487891e-09 0.0000000000000000e+00  -8.3513886343303442e-09 -6.7469703763119308e-09 0.0000000000000000e+00  -9.3068516921780520e-09 -5.3737023365614270e-09 0.0000000000000000e+00  -1.0003045930360920e-08 -3.9834805310226050e-09 0.0000000000000000e+00  -1.0469367425760580e-08 -2.6119249417887565e-09 0.0000000000000000e+00  -1.0733996090137645e-08 -1.2698652435985996e-09 0.0000000000000000e+00  -1.0816804869180202e-08 4.9249606254470538e-11 0.0000000000000000e+00  -1.0725861853969861e-08 1.3606927717223723e-09 0.0000000000000000e+00  -1.0456466502796575e-08 2.6796424378887730e-09 0.0000000000000000e+00  -9.9922526011251134e-09 4.0126119406015396e-09 0.0000000000000000e+00  -9.3085391352641367e-09 5.3495156309236503e-09 0.0000000000000000e+00  -8.3787013285915467e-09 6.6573438189070625e-09 0.0000000000000000e+00  -7.1850410868699795e-09 7.8774036933380657e-09 0.0000000000000000e+00  -5.7384767004652589e-09 8.9291043039263536e-09 0.0000000000000000e+00  -4.1273364911717421e-09 9.7251632279745801e-09 0.0000000000000000e+00  -2.7009754376880991e-09 1.0220758495010427e-08 0.0000000000000000e+00  -2.7500214303042374e-09 1.1006300981958222e-08 0.0000000000000000e+00  -2.2707150099371981e-09 -7.6905182189524725e-09 0.0000000000000000e+00  -2.5580340936081010e-09 -8.4550625434237317e-09 0.0000000000000000e+00  -4.1100465740135818e-09 -8.1171370755377859e-09 0.0000000000000000e+00  -5.8667353599673871e-09 -7.4744728206874329e-09 0.0000000000000000e+00  -7.4855991312142920e-09 -6.6087114186263675e-09 0.0000000000000000e+00  -8.8641969243274702e-09 -5.5923746315747041e-09 0.0000000000000000e+00  -9.9728868250303279e-09 -4.4907875848152052e-09 0.0000000000000000e+00  -1.0811681140053955e-08 -3.3542658936979580e-09 0.0000000000000000e+00  -1.1393143596271625e-08 -2.2144989741667179e-09 0.0000000000000000e+00  -1.1732643001712512e-08 -1.0858300383050345e-09 0.0000000000000000e+00  -1.1842205687655989e-08 3.0279745137743129e-11 0.0000000000000000e+00  -1.1727098193911886e-08 1.1391828162308636e-09 0.0000000000000000e+00  -1.1384745101705726e-08 2.2464380545018760e-09 0.0000000000000000e+00  -1.0805785049370829e-08 3.3513616060713692e-09 0.0000000000000000e+00  -9.9772901408291392e-09 4.4413921071373676e-09 0.0000000000000000e+00  -8.8883907585913389e-09 5.4881945590117904e-09 0.0000000000000000e+00  -7.5390392113662340e-09 6.4468357054871186e-09 0.0000000000000000e+00  -5.9555328707041402e-09 7.2597247739339070e-09 0.0000000000000000e+00  -4.2321473449161398e-09 7.8686766358816494e-09 0.0000000000000000e+00  -2.7001496194783199e-09 8.2563836538102953e-09 0.0000000000000000e+00  -2.5413287287226490e-09 9.0670386779381403e-09 0.0000000000000000e+00  -2.1788867446788252e-09 -5.5981453105460746e-09 0.0000000000000000e+00  -2.5922593359334881e-09 -6.3904003381261349e-09 0.0000000000000000e+00  -4.2144204824859376e-09 -6.1604097631145327e-09 0.0000000000000000e+00  -6.0383025494711997e-09 -5.6962095595085156e-09 0.0000000000000000e+00  -7.7396351084647820e-09 -5.0618890764403802e-09 0.0000000000000000e+00  -9.2158921362347790e-09 -4.3073810719323027e-09 0.0000000000000000e+00  -1.0428707870588872e-08 -3.4783197977617071e-09 0.0000000000000000e+00  -1.1365908286755228e-08 -2.6116765125128347e-09 0.0000000000000000e+00  -1.2027957353466000e-08 -1.7327891255913887e-09 0.0000000000000000e+00  -1.2420448807932484e-08 -8.5552744749996587e-10 0.0000000000000000e+00  -1.2549117101483121e-08 1.5148064817997807e-11 0.0000000000000000e+00  -1.2416868814680106e-08 8.7921117145782151e-10 0.0000000000000000e+00  -1.2022779194497661e-08 1.7370109529021221e-09 0.0000000000000000e+00  -1.1363013046278945e-08 2.5847990610283360e-09 0.0000000000000000e+00  -1.0433616057080155e-08 3.4109758056795317e-09 0.0000000000000000e+00  -9.2351522971957206e-09 4.1937781482108098e-09 0.0000000000000000e+00  -7.7796097023675899e-09 4.9012555644425651e-09 0.0000000000000000e+00  -6.1029871037401684e-09 5.4945045957293987e-09 0.0000000000000000e+00  -4.3023729234487671e-09 5.9368798436650177e-09 0.0000000000000000e+00  -2.6950595633608047e-09 6.2298335930370170e-09 0.0000000000000000e+00  -2.3799325218860844e-09 7.0566194705900146e-09 0.0000000000000000e+00  -2.1256880735327910e-09 -3.4809132455153509e-09 0.0000000000000000e+00  -2.6193036353582714e-09 -4.2934053911489492e-09 0.0000000000000000e+00  -4.2872884491098129e-09 -4.1596418619304265e-09 0.0000000000000000e+00  -6.1534752168086557e-09 -3.8574797704422709e-09 0.0000000000000000e+00  -7.9062419488805136e-09 -3.4386298904744392e-09 0.0000000000000000e+00  -9.4437956274180870e-09 -2.9358256433080464e-09 0.0000000000000000e+00  -1.0722727286515095e-08 -2.3785302053146