<?xml version="1.0"?>
<VTKFile type="UnstructuredGrid"  version="0.1"  >
<UnstructuredGrid>
<Piece  NumberOfPoints="651" NumberOfCells="1200">
<Points>
<DataArray  type="Float64"  NumberOfComponents="3"  format="ascii">0 0 0  50000 0 0  100000 0 0  150000 0 0  200000 0 0  250000 0 0  300000 0 0  350000 0 0  400000 0 0  450000 0 0  500000 0 0  550000 0 0  600000 0 0  650000 0 0  700000 0 0  750000 0 0  800000 0 0  850000 0 0  900000 0 0  950000 0 0  1000000 0 0  0 50000 0  50000 50000 0  100000 50000 0  150000 50000 0  200000 50000 0  250000 50000 0  300000 50000 0  350000 50000 0  400000 50000 0  450000 50000 0  500000 50000 0  550000 50000 0  600000 50000 0  650000 50000 0  700000 50000 0  750000 50000 0  800000 50000 0  850000 50000 0  900000 50000 0  950000 50000 0  1000000 50000 0  0 100000 0  50000 100000 0  100000 100000 0  150000 100000 0  200000 100000 0  250000 100000 0  300000 100000 0  350000 100000 0  400000 100000 0  450000 100000 0  500000 100000 0  550000 100000 0  600000 100000 0  650000 100000 0  700000 100000 0  750000 100000 0  800000 100000 0  850000 100000 0  900000 100000 0  950000 100000 0  1000000 100000 0  0 150000 0  50000 150000 0  100000 150000 0  150000 150000 0  200000 150000 0  250000 150000 0  300000 150000 0  350000 150000 0  400000 150000 0  450000 150000 0  500000 150000 0  550000 150000 0  600000 150000 0  650000 150000 0  700000 150000 0  750000 150000 0  800000 150000 0  850000 150000 0  900000 150000 0  950000 150000 0  1000000 150000 0  0 200000 0  50000 200000 0  100000 200000 0  150000 200000 0  200000 200000 0  250000 200000 0  300000 200000 0  350000 200000 0  400000 200000 0  450000 200000 0  500000 200000 0  550000 200000 0  600000 200000 0  650000 200000 0  700000 200000 0  750000 200000 0  800000 200000 0  850000 200000 0  900000 200000 0  950000 200000 0  1000000 200000 0  0 250000 0  50000 250000 0  100000 250000 0  150000 250000 0  200000 250000 0  250000 250000 0  300000 250000 0  350000 250000 0  400000 250000 0  450000 250000 0  500000 250000 0  550000 250000 0  600000 250000 0  650000 250000 0  700000 250000 0  750000 250000 0  800000 250000 0  850000 250000 0  900000 250000 0  950000 250000 0  1000000 250000 0  0 300000 0  50000 300000 0  100000 300000 0  150000 300000 0  200000 300000 0  250000 300000 0  300000 300000 0  350000 300000 0  400000 300000 0  450000 300000 0  500000 300000 0  550000 300000 0  600000 300000 0  650000 300000 0  700000 300000 0  750000 300000 0  800000 300000 0  850000 300000 0  900000 300000 0  950000 300000 0  1000000 300000 0  0 350000 0  50000 350000 0  100000 350000 0  150000 350000 0  200000 350000 0  250000 350000 0  300000 350000 0  350000 350000 0  400000 350000 0  450000 350000 0  500000 350000 0  550000 350000 0  600000 350000 0  650000 350000 0  700000 350000 0  750000 350000 0  800000 350000 0  850000 350000 0  900000 350000 0  950000 350000 0  1000000 350000 0  0 400000 0  50000 400000 0  100000 400000 0  150000 400000 0  200000 400000 0  250000 400000 0  300000 400000 0  350000 400000 0  400000 400000 0  450000 400000 0  500000 400000 0  550000 400000 0  600000 400000 0  650000 400000 0  700000 400000 0  750000 400000 0  800000 400000 0  850000 400000 0  900000 400000 0  950000 400000 0  1000000 400000 0  0 450000 0  50000 450000 0  100000 450000 0  150000 450000 0  200000 450000 0  250000 450000 0  300000 450000 0  350000 450000 0  400000 450000 0  450000 450000 0  500000 450000 0  550000 450000 0  600000 450000 0  650000 450000 0  700000 450000 0  750000 450000 0  800000 450000 0  850000 450000 0  900000 450000 0  950000 450000 0  1000000 450000 0  0 500000 0  50000 500000 0  100000 500000 0  150000 500000 0  200000 500000 0  250000 500000 0  300000 500000 0  350000 500000 0  400000 500000 0  450000 500000 0  500000 500000 0  550000 500000 0  600000 500000 0  650000 500000 0  700000 500000 0  750000 500000 0  800000 500000 0  850000 500000 0  900000 500000 0  950000 500000 0  1000000 500000 0  0 550000 0  50000 550000 0  100000 550000 0  150000 550000 0  200000 550000 0  250000 550000 0  300000 550000 0  350000 550000 0  400000 550000 0  450000 550000 0  500000 550000 0  550000 550000 0  600000 550000 0  650000 550000 0  700000 550000 0  750000 550000 0  800000 550000 0  850000 550000 0  900000 550000 0  950000 550000 0  1000000 550000 0  0 600000 0  50000 600000 0  100000 600000 0  150000 600000 0  200000 600000 0  250000 600000 0  300000 600000 0  350000 600000 0  400000 600000 0  450000 600000 0  500000 600000 0  550000 600000 0  600000 600000 0  650000 600000 0  700000 600000 0  750000 600000 0  800000 600000 0  850000 600000 0  900000 600000 0  950000 600000 0  1000000 600000 0  0 650000 0  50000 650000 0  100000 650000 0  150000 650000 0  200000 650000 0  250000 650000 0  300000 650000 0  350000 650000 0  400000 650000 0  450000 650000 0  500000 650000 0  550000 650000 0  600000 650000 0  650000 650000 0  700000 650000 0  750000 650000 0  800000 650000 0  850000 650000 0  900000 650000 0  950000 650000 0  1000000 650000 0  0 700000 0  50000 700000 0  100000 700000 0  150000 700000 0  200000 700000 0  250000 700000 0  300000 700000 0  350000 700000 0  400000 700000 0  450000 700000 0  500000 700000 0  550000 700000 0  600000 700000 0  650000 700000 0  700000 700000 0  750000 700000 0  800000 700000 0  850000 700000 0  900000 700000 0  950000 700000 0  1000000 700000 0  0 750000 0  50000 750000 0  100000 750000 0  150000 750000 0  200000 750000 0  250000 750000 0  300000 750000 0  350000 750000 0  400000 750000 0  450000 750000 0  500000 750000 0  550000 750000 0  600000 750000 0  650000 750000 0  700000 750000 0  750000 750000 0  800000 750000 0  850000 750000 0  900000 750000 0  950000 750000 0  1000000 750000 0  0 800000 0  50000 800000 0  100000 800000 0  150000 800000 0  200000 800000 0  250000 800000 0  300000 800000 0  350000 800000 0  400000 800000 0  450000 800000 0  500000 800000 0  550000 800000 0  600000 800000 0  650000 800000 0  700000 800000 0  750000 800000 0  800000 800000 0  850000 800000 0  900000 800000 0  950000 800000 0  1000000 800000 0  0 850000 0  50000 850000 0  100000 850000 0  150000 850000 0  200000 850000 0  250000 850000 0  300000 850000 0  350000 850000 0  400000 850000 0  450000 850000 0  500000 850000 0  550000 850000 0  600000 850000 0  650000 850000 0  700000 850000 0  750000 850000 0  800000 850000 0  850000 850000 0  900000 850000 0  950000 850000 0  1000000 850000 0  0 900000 0  50000 900000 0  100000 900000 0  150000 900000 0  200000 900000 0  250000 900000 0  300000 900000 0  350000 900000 0  400000 900000 0  450000 900000 0  500000 900000 0  550000 900000 0  600000 900000 0  650000 900000 0  700000 900000 0  750000 900000 0  800000 900000 0  850000 900000 0  900000 900000 0  950000 900000 0  1000000 900000 0  0 950000 0  50000 950000 0  100000 950000 0  150000 950000 0  200000 950000 0  250000 950000 0  300000 950000 0  350000 950000 0  400000 950000 0  450000 950000 0  500000 950000 0  550000 950000 0  600000 950000 0  650000 950000 0  700000 950000 0  750000 950000 0  800000 950000 0  850000 950000 0  900000 950000 0  950000 950000 0  1000000 950000 0  0 1000000 0  50000 1000000 0  100000 1000000 0  150000 1000000 0  200000 1000000 0  250000 1000000 0  300000 1000000 0  350000 1000000 0  400000 1000000 0  450000 1000000 0  500000 1000000 0  550000 1000000 0  600000 1000000 0  650000 1000000 0  700000 1000000 0  750000 1000000 0  800000 1000000 0  850000 1000000 0  900000 1000000 0  950000 1000000 0  1000000 1000000 0  0 1050000 0  50000 1050000 0  100000 1050000 0  150000 1050000 0  200000 1050000 0  250000 1050000 0  300000 1050000 0  350000 1050000 0  400000 1050000 0  450000 1050000 0  500000 1050000 0  550000 1050000 0  600000 1050000 0  650000 1050000 0  700000 1050000 0  750000 1050000 0  800000 1050000 0  850000 1050000 0  900000 1050000 0  950000 1050000 0  1000000 1050000 0  0 1100000 0  50000 1100000 0  100000 1100000 0  150000 1100000 0  200000 1100000 0  250000 1100000 0  300000 1100000 0  350000 1100000 0  400000 1100000 0  450000 1100000 0  500000 1100000 0  550000 1100000 0  600000 1100000 0  650000 1100000 0  700000 1100000 0  750000 1100000 0  800000 1100000 0  850000 1100000 0  900000 1100000 0  950000 1100000 0  1000000 1100000 0  0 1150000 0  50000 1150000 0  100000 1150000 0  150000 1150000 0  200000 1150000 0  250000 1150000 0  300000 1150000 0  350000 1150000 0  400000 1150000 0  450000 1150000 0  500000 1150000 0  550000 1150000 0  600000 1150000 0  650000 1150000 0  700000 1150000 0  750000 1150000 0  800000 1150000 0  850000 1150000 0  900000 1150000 0  950000 1150000 0  1000000 1150000 0  0 1200000 0  50000 1200000 0  100000 1200000 0  150000 1200000 0  200000 1200000 0  250000 1200000 0  300000 1200000 0  350000 1200000 0  400000 1200000 0  450000 1200000 0  500000 1200000 0  550000 1200000 0  600000 1200000 0  650000 1200000 0  700000 1200000 0  750000 1200000 0  800000 1200000 0  850000 1200000 0  900000 1200000 0  950000 1200000 0  1000000 1200000 0  0 1250000 0  50000 1250000 0  100000 1250000 0  150000 1250000 0  200000 1250000 0  250000 1250000 0  300000 1250000 0  350000 1250000 0  400000 1250000 0  450000 1250000 0  500000 1250000 0  550000 1250000 0  600000 1250000 0  650000 1250000 0  700000 1250000 0  750000 1250000 0  800000 1250000 0  850000 1250000 0  900000 1250000 0  950000 1250000 0  1000000 1250000 0  0 1300000 0  50000 1300000 0  100000 1300000 0  150000 1300000 0  200000 1300000 0  250000 1300000 0  300000 1300000 0  350000 1300000 0  400000 1300000 0  450000 1300000 0  500000 1300000 0  550000 1300000 0  600000 1300000 0  650000 1300000 0  700000 1300000 0  750000 1300000 0  800000 1300000 0  850000 1300000 0  900000 1300000 0  950000 1300000 0  1000000 1300000 0  0 1350000 0  50000 1350000 0  100000 1350000 0  150000 1350000 0  200000 1350000 0  250000 1350000 0  300000 1350000 0  350000 1350000 0  400000 1350000 0  450000 1350000 0  500000 1350000 0  550000 1350000 0  600000 1350000 0  650000 1350000 0  700000 135
[...]
<PointData  Vectors="f_19"> 
<DataArray  type="Float64"  Name="f_19"  NumberOfComponents="3" format="ascii">-2.4412344570438455e-08 -1.0328207281907664e-08 0.0000000000000000e+00  4.8650924648519307e-08 -6.4143497436845002e-09 0.0000000000000000e+00  4.2932739778089108e-08 -2.1219779196514716e-09 0.0000000000000000e+00  4.0487756453297437e-08 -7.6478193060630543e-10 0.0000000000000000e+00  3.9291493249876711e-08 -2.9861265262011184e-10 0.0000000000000000e+00  3.8511558503417944e-08 -1.0543081243306867e-10 0.0000000000000000e+00  3.7951396132438750e-08 -1.7917116410667971e-11 0.0000000000000000e+00  3.7554352610207094e-08 2.1298300932264165e-11 0.0000000000000000e+00  3.7302719520540312e-08 3.6742710709821114e-11 0.0000000000000000e+00  3.7192032545114006e-08 4.1574804977527047e-11 0.0000000000000000e+00  3.7223334104355686e-08 4.4929134957070643e-11 0.0000000000000000e+00  3.7401409462911791e-08 5.5241912089942831e-11 0.0000000000000000e+00  3.7736374175120377e-08 8.2772034215383640e-11 0.0000000000000000e+00  3.8249712684417990e-08 1.4314229065142283e-10 0.0000000000000000e+00  3.8990343250284353e-08 2.6464819418617524e-10 0.0000000000000000e+00  4.0077132542925393e-08 5.0636603551187952e-10 0.0000000000000000e+00  4.1811238787327732e-08 1.0067957014853181e-09 0.0000000000000000e+00  4.4939487352395070e-08 2.1104984052567005e-09 0.0000000000000000e+00  5.0791497404177730e-08 4.6349208556037460e-09 0.0000000000000000e+00  5.8037685879846271e-08 9.1475080252796939e-09 0.0000000000000000e+00  -1.6415845789872940e-08 7.0415685415123486e-09 0.0000000000000000e+00  -1.8176967222804924e-08 -1.5882700374852721e-08 0.0000000000000000e+00  7.2393069426214445e-09 -1.1299370190587882e-08 0.0000000000000000e+00  1.8130591857437103e-08 -5.2554492023365708e-09 0.0000000000000000e+00  2.3199730281710426e-08 -2.4007748594509625e-09 0.0000000000000000e+00  2.5795353723471877e-08 -1.1460767108748252e-09 0.0000000000000000e+00  2.7263782729410470e-08 -5.5483742792125029e-10 0.0000000000000000e+00  2.8118025903880679e-08 -2.5878964797687616e-10 0.0000000000000000e+00  2.8618080351077416e-08 -1.0770920368280642e-10 0.0000000000000000e+00  2.8907477869231300e-08 -3.2582547347699744e-11 0.0000000000000000e+00  2.9066344925813276e-08 3.9199338498208775e-12 0.0000000000000000e+00  2.9136530600737899e-08 2.6341799622300316e-11 0.0000000000000000e+00  2.9133124133956127e-08 5.5147572192252955e-11 0.0000000000000000e+00  2.9048445210070301e-08 1.1249305752135689e-10 0.0000000000000000e+00  2.8850510814549959e-08 2.2883859766803524e-10 0.0000000000000000e+00  2.8474969686300827e-08 4.5474223722777400e-10 0.0000000000000000e+00  2.7804461953243315e-08 8.8677125595568760e-10 0.0000000000000000e+00  2.6613363985727953e-08 1.7283860266965533e-09 0.0000000000000000e+00  2.4390409788842945e-08 3.4257341391003482e-09 0.0000000000000000e+00  1.9691522257336016e-08 6.8692415405241839e-09 0.0000000000000000e+00  8.2702700247769071e-09 1.3022832617183087e-08 0.0000000000000000e+00  -1.8384609171852936e-08 1.0972123101868887e-08 0.0000000000000000e+00  -1.1203217685752308e-08 -1.9483938629188707e-08 0.0000000000000000e+00  -2.6681343048594267e-10 -1.8465211395670303e-08 0.0000000000000000e+00  5.8408495797819588e-09 -1.1354212657306028e-08 0.0000000000000000e+00  1.0720586712004415e-08 -6.5784508093204660e-09 0.0000000000000000e+00  1.4533906850387066e-08 -3.8149078574726712e-09 0.0000000000000000e+00  1.7180766994015622e-08 -2.2422876518752989e-09 0.0000000000000000e+00  1.8950695009050654e-08 -1.3213160356188667e-09 0.0000000000000000e+00  2.0109331686085148e-08 -7.6125075053048754e-10 0.0000000000000000e+00  2.0836019710565171e-08 -4.0319984439351960e-10 0.0000000000000000e+00  2.1241222436974682e-08 -1.5287315733574710e-10 0.0000000000000000e+00  2.1384946056647828e-08 5.3966916634299948e-11 0.0000000000000000e+00  2.1287765752242238e-08 2.7039559543272929e-10 0.0000000000000000e+00  2.0934821643430362e-08 5.5146979915746185e-10 0.0000000000000000e+00  2.0273431854429756e-08 9.6786003951366369e-10 0.0000000000000000e+00  1.9203731073337408e-08 1.6259047875550619e-09 0.0000000000000000e+00  1.7560425239360899e-08 2.7018016376046241e-09 0.0000000000000000e+00  1.5084303972310125e-08 4.4963711393380938e-09 0.0000000000000000e+00  1.1393741435345474e-08 7.4835825484833870e-09 0.0000000000000000e+00  6.0231990836823596e-09 1.2130020793976598e-08 0.0000000000000000e+00  -1.2875453811013753e-09 1.7583282328352779e-08 0.0000000000000000e+00  -1.3218541926114819e-08 1.4715249712813291e-08 0.0000000000000000e+00  -7.5072986425109440e-09 -2.0104887317745005e-08 0.0000000000000000e+00  -1.5553064408637622e-09 -1.9893190678514587e-08 0.0000000000000000e+00  1.1296599673573448e-09 -1.5318614322979545e-08 0.0000000000000000e+00  3.8989618735427986e-09 -1.0450439823066536e-08 0.0000000000000000e+00  6.7905028141139972e-09 -6.8742361418561588e-09 0.0000000000000000e+00  9.3069896815515317e-09 -4.4625281352702535e-09 0.0000000000000000e+00  1.1248529531325893e-08 -2.8597382583341124e-09 0.0000000000000000e+00  1.2638498905332444e-08 -1.7752384126940585e-09 0.0000000000000000e+00  1.3560789252029595e-08 -1.0087362673238158e-09 0.0000000000000000e+00  1.4089882409470922e-08 -4.2233613241614586e-10 0.0000000000000000e+00  1.4273016236986491e-08 8.6630440947584296e-11 0.0000000000000000e+00  1.4127467683369281e-08 6.0578324518938489e-10 0.0000000000000000e+00  1.3640738174383699e-08 1.2237091630072427e-09 0.0000000000000000e+00  1.2770782864580130e-08 2.0454532429602509e-09 0.0000000000000000e+00  1.1447514697338530e-08 3.2100671343440479e-09 0.0000000000000000e+00  9.5817859047110870e-09 4.9086085569476352e-09 0.0000000000000000e+00  7.0986991658219745e-09 7.3847822193532740e-09 0.0000000000000000e+00  4.0293692299676405e-09 1.0847743359187774e-08 0.0000000000000000e+00  6.6733443179306535e-10 1.5105760430320679e-08 0.0000000000000000e+00  -2.6234726266288219e-09 1.8746470970333411e-08 0.0000000000000000e+00  -8.9175784337820501e-09 1.7552852067343723e-08 0.0000000000000000e+00  -5.6405189571092529e-09 -1.9510205783132454e-08 0.0000000000000000e+00  -1.8916813603866826e-09 -1.9629607361304241e-08 0.0000000000000000e+00  -9.1821973769015639e-10 -1.6725839923758534e-08 0.0000000000000000e+00  2.1528802595111823e-10 -1.2820318503656362e-08 0.0000000000000000e+00  1.8492769891611527e-09 -9.2718724217972407e-09 0.0000000000000000e+00  3.6182972016330036e-09 -6.4873927763581697e-09 0.0000000000000000e+00  5.1995343361193773e-09 -4.4117978811170409e-09 0.0000000000000000e+00  6.4482264094189669e-09 -2.8720680738399584e-09 0.0000000000000000e+00  7.3303525129816600e-09 -1.6974455019105934e-09 0.0000000000000000e+00  7.8550990432269136e-09 -7.4433594987690693e-10 0.0000000000000000e+00  8.0383564703554897e-09 1.0781572322102828e-10 0.0000000000000000e+00  7.8877105519013793e-09 9.6743173750891119e-10 0.0000000000000000e+00  7.3983026928273871e-09 1.9422619192261901e-09 0.0000000000000000e+00  6.5554571097563909e-09 3.1496798596488528e-09 0.0000000000000000e+00  5.3453165844855328e-09 4.7232710235009273e-09 0.0000000000000000e+00  3.7795325097311170e-09 6.8071504586589045e-09 0.0000000000000000e+00  1.9433683575901063e-09 9.5146573487607415e-09 0.0000000000000000e+00  6.4250765444091073e-11 1.2803673742283615e-08 0.0000000000000000e+00  -1.4926246807170028e-09 1.6222602787598708e-08 0.0000000000000000e+00  -2.7359313942344954e-09 1.8690558540211326e-08 0.0000000000000000e+00  -6.6313922959944690e-09 1.8534680441217617e-08 0.0000000000000000e+00  -4.5797439159816081e-09 -1.8375002859525176e-08 0.0000000000000000e+00  -2.0639539439389640e-09 -1.8701629450948554e-08 0.0000000000000000e+00  -1.9947914560770118e-09 -1.6743720355888236e-08 0.0000000000000000e+00  -1.9099827770543114e-09 -1.3780778245802216e-08 0.0000000000000000e+00  -1.3145567815867125e-09 -1.0672829470080726e-08 0.0000000000000000e+00  -3.7751919718760490e-10 -7.9141286539928449e-09 0.0000000000000000e+00  6.3428950089293551e-10 -5.6403098716070618e-09 0.0000000000000000e+00  1.5312946287206659e-09 -3.8100956199585155e-09 0.0000000000000000e+00  2.2133669498332946e-09 -2.3188958290239527e-09 0.0000000000000000e+00  2.6375520322017343e-09 -1.0491903194792089e-09 0.0000000000000000e+00  2.7891032582776374e-09 1.1355747913333096e-10 0.0000000000000000e+00  2.6649627296004005e-09 1.2792642821143512e-09 0.0000000000000000e+00  2.2680031280088515e-09 2.5560100201929108e-09 0.0000000000000000e+00  1.6100995807303707e-09 4.0518179348645721e-09 0.0000000000000000e+00  7.2418740581967041e-10 5.8699693350627178e-09 0.0000000000000000e+00  -3.1349981991268212e-10 8.0888183273909615e-09 0.0000000000000000e+00  -1.3541030307299519e-09 1.0711606305952111e-08 0.0000000000000000e+00  -2.1642355038462031e-09 1.3573327232217390e-08 0.0000000000000000e+00  -2.5242935428686552e-09 1.6229829264827748e-08 0.0000000000000000e+00  -2.7145459761319585e-09 1.7985885451710590e-08 0.0000000000000000e+00  -5.2927721915110408e-09 1.8286662756719404e-08 0.0000000000000000e+00  -3.9020601854554634e-09 -1.6940888327961582e-08 0.0000000000000000e+00  -2.1953333570613000e-09 -1.7410808290007026e-08 0.0000000000000000e+00  -2.6655638472756720e-09 -1.6021242948087541e-08 0.0000000000000000e+00  -3.2436798200854090e-09 -1.3767288194805934e-08 0.0000000000000000e+00  -3.4043068992672160e-09 -1.1177318378013571e-08 0.0000000000000000e+00  -3.1794510634169011e-09 -8.6558214790168044e-09 0.0000000000000000e+00  -2.7437667348646261e-09 -6.3998905393190040e-09 0.0000000000000000e+00  -2.2631635739926563e-09 -4.4529582659420552e-09 0.0000000000000000e+00  -1.8528692628459259e-09 -2.7743239583014341e-09 0.0000000000000000e+00  -1.5803300014380854e-09 -1.2854084574291472e-09 0.0000000000000000e+00  -1.4789918588990337e-09 1.0631040053077262e-10 0.0000000000000000e+00  -1.5593594178668244e-09 1.4965661976409050e-09 0.0000000000000000e+00  -1.8136314580074160e-09 2.9789960219513122e-09 0.0000000000000000e+00  -2.2136113316772585e-09 4.6394136560751227e-09 0.0000000000000000e+00  -2.7025569058565393e-09 6.5442567821845311e-09 0.0000000000000000e+00  -3.1834103946573244e-09 8.7172798803414947e-09 0.0000000000000000e+00  -3.5117980130878555e-09 1.1099831880620973e-08 0.0000000000000000e+00  -3.5177533392079458e-09 1.3499865763395156e-08 0.0000000000000000e+00  -3.1180383881194075e-09 1.5563905812322807e-08 0.0000000000000000e+00  -2.6997505530200075e-09 1.6862816028767172e-08 0.0000000000000000e+00  -4.4270137282430554e-09 1.7379993569421782e-08 0.0000000000000000e+00  -3.4318275967103840e-09 -1.5307692675065554e-08 0.0000000000000000e+00  -2.3037792985865699e-09 -1.5881025507420268e-08 0.0000000000000000e+00  -3.1317464132687233e-09 -1.4857864641624659e-08 0.0000000000000000e+00  -4.1423091740912144e-09 -1.3118828729263585e-08 0.0000000000000000e+00  -4.8334812431682588e-09 -1.0997444849100105e-08 0.0000000000000000e+00  -5.1605970339932259e-09 -8.7899337208263498e-09 0.0000000000000000e+00  -5.2200900979165433e-09 -6.6843476683197275e-09 0.0000000000000000e+00  -5.1331351050829963e-09 -4.7606728884001985e-09 0.0000000000000000e+00  -5.0007882427049543e-09 -3.0221227898558817e-09 0.0000000000000000e+00  -4.8923200849304149e-09 -1.4266124860229934e-09 0.0000000000000000e+00  -4.8469453257834846e-09 9.0790548916783063e-11 0.0000000000000000e+00  -4.8782794724012889e-09 1.6035054909673058e-09 0.0000000000000000e+00  -4.9768325687761984e-09 3.1832636596831727e-09 0.0000000000000000e+00  -5.1092635061275853e-09 4.8900104960983176e-09 0.0000000000000000e+00  -5.2152773648564018e-09 6.7581899634111481e-09 0.0000000000000000e+00  -5.2055408268672346e-09 8.7768109897617299e-09 0.0000000000000000e+00  -4.9683925898270975e-09 1.0864115006798942e-08 0.0000000000000000e+00  -4.4016852754996556e-09 1.2846070666459028e-08 0.0000000000000000e+00  -3.5086922583983785e-09 1.4462905083439156e-08 0.0000000000000000e+00  -2.6989815325809620e-09 1.5451377662953459e-08 0.0000000000000000e+00  -3.8260331756206676e-09 1.6088512268058643e-08 0.0000000000000000e+00  -3.0882893459153690e-09 -1.3529143075902919e-08 0.0000000000000000e+00  -2.3928142225869399e-09 -1.4179123945604628e-08 0.0000000000000000e+00  -3.4742867274766240e-09 -1.3407588753105372e-08 0.0000000000000000e+00  -4.7772892633301561e-09 -1.2049956512191183e-08 0.0000000000000000e+00  -5.8379192435410394e-09 -1.0324807423852429e-08 0.0000000000000000e+00  -6.5734492522760632e-09 -8.4417695969256192e-09 0.0000000000000000e+00  -7.0250618253721853e-09 -6.5561954047703576e-09 0.0000000000000000e+00  -7.2704083225432419e-09 -4.7543745829273861e-09 0.0000000000000000e+00  -7.3854903977594329e-09 -3.0631069620853044e-09 0.0000000000000000e+00  -7.4287334889773164e-09 -1.4675735343200187e-09 0.0000000000000000e+00  -7.4361486036192706e-09 7.1559761064045384e-11 0.0000000000000000e+00  -7.4210277733287032e-09 1.6042249980594591e-09 0.0000000000000000e+00  -7.3745678743260404e-09 3.1793123572557171e-09 0.0000000000000000e+00  -7.2661675481228435e-09 4.8333260747820696e-09 0.0000000000000000e+00  -7.0441029196624982e-09 6.5775717240382311e-09 0.0000000000000000e+00  -6.6392804149817472e-09 8.3834689098791077e-09 0.0000000000000000e+00  -5.9772877135815093e-09 1.0168586195474141e-08 0.0000000000000000e+00  -5.0086264265651316e-09 1.1790988681337352e-08 0.0000000000000000e+00  -3.7845759858878051e-09 1.3066041008819650e-08 0.0000000000000000e+00  -2.7047724960766860e-09 1.3832906396670723e-08 0.0000000000000000e+00  -3.3886157282083326e-09 1.4545905300717165e-08 0.0000000000000000e+00  -2.8302432906812733e-09 -1.1641272281662920e-08 0.0000000000000000e+00  -2.4645571142612480e-09 -1.2348917691875385e-08 0.0000000000000000e+00  -3.7316761430231915e-09 -1.1760745201470803e-08 0.0000000000000000e+00  -5.2374555558127723e-09 -1.0696157512994287e-08 0.0000000000000000e+00  -6.5552229469730803e-09 -9.3041055707180717e-09 0.0000000000000000e+00  -7.5851987801207557e-09 -7.7314892445324614e-09 0.0000000000000000e+00  -8.3324555796654912e-09 -6.0985471918207969e-09 0.0000000000000000e+00  -8.8396068433570660e-09 -4.4833883210029661e-09 0.0000000000000000e+00  -9.1570225614210120e-09 -2.9219050117813175e-09 0.0000000000000000e+00  -9.3276875701658541e-09 -1.4165589253804470e-09 0.0000000000000000e+00  -9.3799999507119422e-09 5.2018317183600527e-11 0.0000000000000000e+00  -9.3249858977237077e-09 1.5135222438918521e-09 0.0000000000000000e+00  -9.1557703703304797e-09 2.9971907077976417e-09 0.0000000000000000e+00  -8.8484405543897398e-09 4.5213249410611105e-09 0.0000000000000000e+00  -8.3647198498419738e-09 6.0827581185336521e-09 0.0000000000000000e+00  -7.6580823083039814e-09 7.6469245389993074e-09 0.0000000000000000e+00  -6.6862412671322839e-09 9.1410849474181480e-09 0.0000000000000000e+00  -5.4361572508859587e-09 1.0455669674908085e-08 0.0000000000000000e+00  -3.9842029115752053e-09 1.1461590015251935e-08 0.0000000000000000e+00  -2.7109738114302635e-09 1.2062237221033527e-08 0.0000000000000000e+00  -3.0605983836756959e-09 1.2826892818092139e-08 0.0000000000000000e+00  -2.6348846519812392e-09 -9.6713860826446357e-09 0.0000000000000000e+00  -2.5213874655513137e-09 -1.0422690218271962e-08 0.0000000000000000e+00  -3.9257856638939817e-09 -9.9760069930895016e-09 0.0000000000000000e+00  -5.5736075496059070e-09 -9.1465253161386114e-09 0.0000000000000000e+00  -7.0697467552084107e-09 -8.0396455389820037e-09 0.0000000000000000e+00  -8.3078782675419621e-09 -6.7579698228819279e-09 0.0000000000000000e+00  -9.2703305394963944e-09 -5.3911599592743645e-09 0.0000000000000000e+00  -9.9739041778008064e-09 -4.0038768208529869e-09 0.0000000000000000e+00  -1.0447154429554012e-08 -2.6323982321926535e-09 0.0000000000000000e+00  -1.0717811104447796e-08 -1.2882903653932102e-09 0.0000000000000000e+00  -1.0805571499118632e-08 3.4278561930532061e-11 0.0000000000000000e+00  -1.0718504752074442e-08 1.3499142453148087e-09 0.0000000000000000e+00  -1.0452011566653518e-08 2.6731751165117147e-09 0.0000000000000000e+00  -9.9898700791325381e-09 4.0099772968782107e-09 0.0000000000000000e+00  -9.3075443029954626e-09 5.3496252806002584e-09 0.0000000000000000e+00  -8.3785237857620401e-09 6.6584465839902890e-09 0.0000000000000000e+00  -7.1851799474563259e-09 7.8769804315178316e-09 0.0000000000000000e+00  -5.7385307918574006e-09 8.9236331292652198e-09 0.0000000000000000e+00  -4.1276768119120454e-09 9.7093732732952839e-09 0.0000000000000000e+00  -2.7141752855867782e-09 1.0178849276507058e-08 0.0000000000000000e+00  -2.8108515858447599e-09 1.0979408615977710e-08 0.0000000000000000e+00  -2.4888952277286464e-09 -7.6413043142819150e-09 0.0000000000000000e+00  -2.5659460198325487e-09 -8.4256506976047529e-09 0.0000000000000000e+00  -4.0710430149649945e-09 -8.0942913485990677e-09 0.0000000000000000e+00  -5.8177876633691657e-09 -7.4620825392994013e-09 0.0000000000000000e+00  -7.4361729912721114e-09 -6.6061813206764544e-09 0.0000000000000000e+00  -8.8182652342907443e-09 -5.5977596186553706e-09 0.0000000000000000e+00  -9.9323788502081369e-09 -4.5016047981303006e-09 0.0000000000000000e+00  -1.0777289870378529e-08 -3.3679998116155190e-09 0.0000000000000000e+00  -1.1364744534051458e-08 -2.2289081725186353e-09 0.0000000000000000e+00  -1.1709615700419870e-08 -1.0991084841473206e-09 0.0000000000000000e+00  -1.1823683792459518e-08 1.9433764499501924e-11 0.0000000000000000e+00  -1.1712151573266778e-08 1.1315436317924134e-09 0.0000000000000000e+00  -1.1372502108615153e-08 2.2422407322111506e-09 0.0000000000000000e+00  -1.0795505159339807e-08 3.3502782620284787e-09 0.0000000000000000e+00  -9.9683962393728848e-09 4.4424825207587999e-09 0.0000000000000000e+00  -8.8804696400346234e-09 5.4898221101174423e-09 0.0000000000000000e+00  -7.5318298269327340e-09 6.4465335436941581e-09 0.0000000000000000e+00  -5.9490192176001423e-09 7.2539320844067288e-09 0.0000000000000000e+00  -4.2275234690308783e-09 7.8519558022000528e-09 0.0000000000000000e+00  -2.7130447044457267e-09 8.2125331029290421e-09 0.0000000000000000e+00  -2.6206517775020011e-09 9.0374945831213587e-09 0.0000000000000000e+00  -2.3842843486752000e-09 -5.5688483026274728e-09 0.0000000000000000e+00  -2.6008877766372132e-09 -6.3780056666012604e-09 0.0000000000000000e+00  -4.1778678266902153e-09 -6.1455305719727578e-09 0.0000000000000000e+00  -5.9917118433984063e-09 -5.6860947460191181e-09 0.0000000000000000e+00  -7.6914957709705266e-09 -5.0577197527209648e-09 0.0000000000000000e+00  -9.1698169034324173e-09 -4.3087151316469683e-09 0.0000000000000000e+00  -1.0386576765865561e-08 -3.4838968864677820e-09 0.0000000000000000e+00  -1.1328535236084127e-08 -2.6198957081780935e-09 0.0000000000000000e+00  -1.1995410519834576e-08 -1.7420259073671153e-09 0.0000000000000000e+00  -1.2392307943164521e-08 -8.6433574642758263e-10 0.0000000000000000e+00  -1.2524691287585727e-08 7.9135534794597074e-12 0.0000000000000000e+00  -1.2395371707890102e-08 8.7431858990489187e-10 0.0000000000000000e+00  -1.2003461940089419e-08 1.7347919747686973e-09 0.0000000000000000e+00  -1.1345258230677860e-08 2.5850847013409249e-09 0.0000000000000000e+00  -1.0416996860227435e-08 3.4130118809311449e-09 0.0000000000000000e+00  -9.2194622922293527e-09 4.1961089841604847e-09 0.0000000000000000e+00  -7.7648845418239938e-09 4.9015586762523541e-09 0.0000000000000000e+00  -6.0896637264962128e-09 5.4892957097594585e-09 0.0000000000000000e+00  -4.2925631750213157e-09 5.9207005704843778e-09 0.0000000000000000e+00  -2.7075135632858162e-09 6.1864309134400248e-09 0.0000000000000000e+00  -2.4784407757598909e-09 7.0268476858828593e-09 0.0000000000000000e+00  -2.3162735890034868e-09 -3.4688159980580587e-09 0.0000000000000000e+00  -2.6286285352733696e-09 -4.2962146972322502e-09 0.0000000000000000e+00  -4.2539672707373624e-09 -4.1524353655585315e-09 0.0000000000000000e+00  -6.1104951702968405e-09 -3.8502605958530583e-09 0.0000000000000000e+00  -7.8610427430793401e-09 -3.4339670596136161e-09 0.0000000000000000e+00  -9.3995201918214344e-09 -2.9344740069538685e-09 0.0000000000000000e+00  -1.0681067673857023e-08 -2.3802419224715205e-09