<?xml version="1.0"?>
<VTKFile type="UnstructuredGrid"  version="0.1"  >
<UnstructuredGrid>
<Piece  NumberOfPoints="651" NumberOfCells="1200">
<Points>
<DataArray  type="Float64"  NumberOfComponents="3"  format="ascii">0 0 0  50000 0 0  100000 0 0  150000 0 0  200000 0 0  250000 0 0  300000 0 0  350000 0 0  400000 0 0  450000 0 0  500000 0 0  550000 0 0  600000 0 0  650000 0 0  700000 0 0  750000 0 0  800000 0 0  850000 0 0  900000 0 0  950000 0 0  1000000 0 0  0 50000 0  50000 50000 0  100000 50000 0  150000 50000 0  200000 50000 0  250000 50000 0  300000 50000 0  350000 50000 0  400000 50000 0  450000 50000 0  500000 50000 0  550000 50000 0  600000 50000 0  650000 50000 0  700000 50000 0  750000 50000 0  800000 50000 0  850000 50000 0  900000 50000 0  950000 50000 0  1000000 50000 0  0 100000 0  50000 100000 0  100000 100000 0  150000 100000 0  200000 100000 0  250000 100000 0  300000 100000 0  350000 100000 0  400000 100000 0  450000 100000 0  500000 100000 0  550000 100000 0  600000 100000 0  650000 100000 0  700000 100000 0  750000 100000 0  800000 100000 0  850000 100000 0  900000 100000 0  950000 100000 0  1000000 100000 0  0 150000 0  50000 150000 0  100000 150000 0  150000 150000 0  200000 150000 0  250000 150000 0  300000 150000 0  350000 150000 0  400000 150000 0  450000 150000 0  500000 150000 0  550000 150000 0  600000 150000 0  650000 150000 0  700000 150000 0  750000 150000 0  800000 150000 0  850000 150000 0  900000 150000 0  950000 150000 0  1000000 150000 0  0 200000 0  50000 200000 0  100000 200000 0  150000 200000 0  200000 200000 0  250000 200000 0  300000 200000 0  350000 200000 0  400000 200000 0  450000 200000 0  500000 200000 0  550000 200000 0  600000 200000 0  650000 200000 0  700000 200000 0  750000 200000 0  800000 200000 0  850000 200000 0  900000 200000 0  950000 200000 0  1000000 200000 0  0 250000 0  50000 250000 0  100000 250000 0  150000 250000 0  200000 250000 0  250000 250000 0  300000 250000 0  350000 250000 0  400000 250000 0  450000 250000 0  500000 250000 0  550000 250000 0  600000 250000 0  650000 250000 0  700000 250000 0  750000 250000 0  800000 250000 0  850000 250000 0  900000 250000 0  950000 250000 0  1000000 250000 0  0 300000 0  50000 300000 0  100000 300000 0  150000 300000 0  200000 300000 0  250000 300000 0  300000 300000 0  350000 300000 0  400000 300000 0  450000 300000 0  500000 300000 0  550000 300000 0  600000 300000 0  650000 300000 0  700000 300000 0  750000 300000 0  800000 300000 0  850000 300000 0  900000 300000 0  950000 300000 0  1000000 300000 0  0 350000 0  50000 350000 0  100000 350000 0  150000 350000 0  200000 350000 0  250000 350000 0  300000 350000 0  350000 350000 0  400000 350000 0  450000 350000 0  500000 350000 0  550000 350000 0  600000 350000 0  650000 350000 0  700000 350000 0  750000 350000 0  800000 350000 0  850000 350000 0  900000 350000 0  950000 350000 0  1000000 350000 0  0 400000 0  50000 400000 0  100000 400000 0  150000 400000 0  200000 400000 0  250000 400000 0  300000 400000 0  350000 400000 0  400000 400000 0  450000 400000 0  500000 400000 0  550000 400000 0  600000 400000 0  650000 400000 0  700000 400000 0  750000 400000 0  800000 400000 0  850000 400000 0  900000 400000 0  950000 400000 0  1000000 400000 0  0 450000 0  50000 450000 0  100000 450000 0  150000 450000 0  200000 450000 0  250000 450000 0  300000 450000 0  350000 450000 0  400000 450000 0  450000 450000 0  500000 450000 0  550000 450000 0  600000 450000 0  650000 450000 0  700000 450000 0  750000 450000 0  800000 450000 0  850000 450000 0  900000 450000 0  950000 450000 0  1000000 450000 0  0 500000 0  50000 500000 0  100000 500000 0  150000 500000 0  200000 500000 0  250000 500000 0  300000 500000 0  350000 500000 0  400000 500000 0  450000 500000 0  500000 500000 0  550000 500000 0  600000 500000 0  650000 500000 0  700000 500000 0  750000 500000 0  800000 500000 0  850000 500000 0  900000 500000 0  950000 500000 0  1000000 500000 0  0 550000 0  50000 550000 0  100000 550000 0  150000 550000 0  200000 550000 0  250000 550000 0  300000 550000 0  350000 550000 0  400000 550000 0  450000 550000 0  500000 550000 0  550000 550000 0  600000 550000 0  650000 550000 0  700000 550000 0  750000 550000 0  800000 550000 0  850000 550000 0  900000 550000 0  950000 550000 0  1000000 550000 0  0 600000 0  50000 600000 0  100000 600000 0  150000 600000 0  200000 600000 0  250000 600000 0  300000 600000 0  350000 600000 0  400000 600000 0  450000 600000 0  500000 600000 0  550000 600000 0  600000 600000 0  650000 600000 0  700000 600000 0  750000 600000 0  800000 600000 0  850000 600000 0  900000 600000 0  950000 600000 0  1000000 600000 0  0 650000 0  50000 650000 0  100000 650000 0  150000 650000 0  200000 650000 0  250000 650000 0  300000 650000 0  350000 650000 0  400000 650000 0  450000 650000 0  500000 650000 0  550000 650000 0  600000 650000 0  650000 650000 0  700000 650000 0  750000 650000 0  800000 650000 0  850000 650000 0  900000 650000 0  950000 650000 0  1000000 650000 0  0 700000 0  50000 700000 0  100000 700000 0  150000 700000 0  200000 700000 0  250000 700000 0  300000 700000 0  350000 700000 0  400000 700000 0  450000 700000 0  500000 700000 0  550000 700000 0  600000 700000 0  650000 700000 0  700000 700000 0  750000 700000 0  800000 700000 0  850000 700000 0  900000 700000 0  950000 700000 0  1000000 700000 0  0 750000 0  50000 750000 0  100000 750000 0  150000 750000 0  200000 750000 0  250000 750000 0  300000 750000 0  350000 750000 0  400000 750000 0  450000 750000 0  500000 750000 0  550000 750000 0  600000 750000 0  650000 750000 0  700000 750000 0  750000 750000 0  800000 750000 0  850000 750000 0  900000 750000 0  950000 750000 0  1000000 750000 0  0 800000 0  50000 800000 0  100000 800000 0  150000 800000 0  200000 800000 0  250000 800000 0  300000 800000 0  350000 800000 0  400000 800000 0  450000 800000 0  500000 800000 0  550000 800000 0  600000 800000 0  650000 800000 0  700000 800000 0  750000 800000 0  800000 800000 0  850000 800000 0  900000 800000 0  950000 800000 0  1000000 800000 0  0 850000 0  50000 850000 0  100000 850000 0  150000 850000 0  200000 850000 0  250000 850000 0  300000 850000 0  350000 850000 0  400000 850000 0  450000 850000 0  500000 850000 0  550000 850000 0  600000 850000 0  650000 850000 0  700000 850000 0  750000 850000 0  800000 850000 0  850000 850000 0  900000 850000 0  950000 850000 0  1000000 850000 0  0 900000 0  50000 900000 0  100000 900000 0  150000 900000 0  200000 900000 0  250000 900000 0  300000 900000 0  350000 900000 0  400000 900000 0  450000 900000 0  500000 900000 0  550000 900000 0  600000 900000 0  650000 900000 0  700000 900000 0  750000 900000 0  800000 900000 0  850000 900000 0  900000 900000 0  950000 900000 0  1000000 900000 0  0 950000 0  50000 950000 0  100000 950000 0  150000 950000 0  200000 950000 0  250000 950000 0  300000 950000 0  350000 950000 0  400000 950000 0  450000 950000 0  500000 950000 0  550000 950000 0  600000 950000 0  650000 950000 0  700000 950000 0  750000 950000 0  800000 950000 0  850000 950000 0  900000 950000 0  950000 950000 0  1000000 950000 0  0 1000000 0  50000 1000000 0  100000 1000000 0  150000 1000000 0  200000 1000000 0  250000 1000000 0  300000 1000000 0  350000 1000000 0  400000 1000000 0  450000 1000000 0  500000 1000000 0  550000 1000000 0  600000 1000000 0  650000 1000000 0  700000 1000000 0  750000 1000000 0  800000 1000000 0  850000 1000000 0  900000 1000000 0  950000 1000000 0  1000000 1000000 0  0 1050000 0  50000 1050000 0  100000 1050000 0  150000 1050000 0  200000 1050000 0  250000 1050000 0  300000 1050000 0  350000 1050000 0  400000 1050000 0  450000 1050000 0  500000 1050000 0  550000 1050000 0  600000 1050000 0  650000 1050000 0  700000 1050000 0  750000 1050000 0  800000 1050000 0  850000 1050000 0  900000 1050000 0  950000 1050000 0  1000000 1050000 0  0 1100000 0  50000 1100000 0  100000 1100000 0  150000 1100000 0  200000 1100000 0  250000 1100000 0  300000 1100000 0  350000 1100000 0  400000 1100000 0  450000 1100000 0  500000 1100000 0  550000 1100000 0  600000 1100000 0  650000 1100000 0  700000 1100000 0  750000 1100000 0  800000 1100000 0  850000 1100000 0  900000 1100000 0  950000 1100000 0  1000000 1100000 0  0 1150000 0  50000 1150000 0  100000 1150000 0  150000 1150000 0  200000 1150000 0  250000 1150000 0  300000 1150000 0  350000 1150000 0  400000 1150000 0  450000 1150000 0  500000 1150000 0  550000 1150000 0  600000 1150000 0  650000 1150000 0  700000 1150000 0  750000 1150000 0  800000 1150000 0  850000 1150000 0  900000 1150000 0  950000 1150000 0  1000000 1150000 0  0 1200000 0  50000 1200000 0  100000 1200000 0  150000 1200000 0  200000 1200000 0  250000 1200000 0  300000 1200000 0  350000 1200000 0  400000 1200000 0  450000 1200000 0  500000 1200000 0  550000 1200000 0  600000 1200000 0  650000 1200000 0  700000 1200000 0  750000 1200000 0  800000 1200000 0  850000 1200000 0  900000 1200000 0  950000 1200000 0  1000000 1200000 0  0 1250000 0  50000 1250000 0  100000 1250000 0  150000 1250000 0  200000 1250000 0  250000 1250000 0  300000 1250000 0  350000 1250000 0  400000 1250000 0  450000 1250000 0  500000 1250000 0  550000 1250000 0  600000 1250000 0  650000 1250000 0  700000 1250000 0  750000 1250000 0  800000 1250000 0  850000 1250000 0  900000 1250000 0  950000 1250000 0  1000000 1250000 0  0 1300000 0  50000 1300000 0  100000 1300000 0  150000 1300000 0  200000 1300000 0  250000 1300000 0  300000 1300000 0  350000 1300000 0  400000 1300000 0  450000 1300000 0  500000 1300000 0  550000 1300000 0  600000 1300000 0  650000 1300000 0  700000 1300000 0  750000 1300000 0  800000 1300000 0  850000 1300000 0  900000 1300000 0  950000 1300000 0  1000000 1300000 0  0 1350000 0  50000 1350000 0  100000 1350000 0  150000 1350000 0  200000 1350000 0  250000 1350000 0  300000 1350000 0  350000 1350000 0  400000 1350000 0  450000 1350000 0  500000 1350000 0  550000 1350000 0  600000 1350000 0  650000 1350000 0  700000 135
[...]
<PointData  Vectors="f_19"> 
<DataArray  type="Float64"  Name="f_19"  NumberOfComponents="3" format="ascii">-2.4606043761276628e-08 -9.7910192975446080e-09 0.0000000000000000e+00  4.8461934667524424e-08 -5.8880116470693470e-09 0.0000000000000000e+00  4.2746380596883359e-08 -1.6115058188673372e-09 0.0000000000000000e+00  4.0307274152562154e-08 -2.6539788564386097e-10 0.0000000000000000e+00  3.9121367757925384e-08 1.9246565984371517e-10 0.0000000000000000e+00  3.8356105655310289e-08 3.7739928452160653e-10 0.0000000000000000e+00  3.7814649574305122e-08 4.5485940258093357e-10 0.0000000000000000e+00  3.7439765261076198e-08 4.8072726490644067e-10 0.0000000000000000e+00  3.7212842342469992e-08 4.7828291413552552e-10 0.0000000000000000e+00  3.7128182384690580e-08 4.5973771185885634e-10 0.0000000000000000e+00  3.7185277074641778e-08 4.3370109802242793e-10 0.0000000000000000e+00  3.7387127702585084e-08 4.0865433329414684e-10 0.0000000000000000e+00  3.7742010913666162e-08 3.9560616143062738e-10 0.0000000000000000e+00  3.8269800808181399e-08 4.1170276561194765e-10 0.0000000000000000e+00  3.9018402196822003e-08 4.8748092735924529e-10 0.0000000000000000e+00  4.0106652121462425e-08 6.8475223507413479e-10 0.0000000000000000e+00  4.1836954282695742e-08 1.1448585156597239e-09 0.0000000000000000e+00  4.4958710350094195e-08 2.2148444934950574e-09 0.0000000000000000e+00  5.0805109158121916e-08 4.7138947935506155e-09 0.0000000000000000e+00  5.8049867682929228e-08 9.2105989251019323e-09 0.0000000000000000e+00  -1.6405256999019463e-08 7.1030310888127635e-09 0.0000000000000000e+00  -1.8384707853825815e-08 -1.5342649701002146e-08 0.0000000000000000e+00  7.0952843292267764e-09 -1.1083963726660218e-08 0.0000000000000000e+00  1.7901655183751330e-08 -5.1698112190043186e-09 0.0000000000000000e+00  2.2979488018205931e-08 -2.3303389972816158e-09 0.0000000000000000e+00  2.5604258312565929e-08 -1.0841140350429420e-09 0.0000000000000000e+00  2.7101940757685256e-08 -4.9952673617464586e-10 0.0000000000000000e+00  2.7986240984601613e-08 -2.0950732758212921e-10 0.0000000000000000e+00  2.8517257623505743e-08 -6.4080736420866612e-11 0.0000000000000000e+00  2.8837692658353884e-08 5.9256508269915051e-12 0.0000000000000000e+00  2.9026534563063381e-08 3.8124743582983866e-11 0.0000000000000000e+00  2.9124278691591211e-08 5.7389690790113981e-11 0.0000000000000000e+00  2.9144540182976629e-08 8.4499628854546860e-11 0.0000000000000000e+00  2.9078211435565139e-08 1.4182047019267077e-10 0.0000000000000000e+00  2.8892145255438645e-08 2.5980953996029086e-10 0.0000000000000000e+00  2.8521322612093501e-08 4.8871091300841803e-10 0.0000000000000000e+00  2.7848413825224011e-08 9.2442638463316702e-10 0.0000000000000000e+00  2.6648654995200296e-08 1.7694594514878432e-09 0.0000000000000000e+00  2.4412652963223163e-08 3.4688261220289669e-09 0.0000000000000000e+00  1.9700040734095319e-08 6.9118258669697774e-09 0.0000000000000000e+00  8.2677811015725081e-09 1.3061081497347764e-08 0.0000000000000000e+00  -1.8374327090868214e-08 1.1033772619941073e-08 0.0000000000000000e+00  -1.1432816999290850e-08 -1.8948822420598712e-08 0.0000000000000000e+00  -3.5831514407839552e-10 -1.8240974941272314e-08 0.0000000000000000e+00  5.6688249895529270e-09 -1.1327667500548267e-08 0.0000000000000000e+00  1.0514403072941644e-08 -6.5970430381015941e-09 0.0000000000000000e+00  1.4330433576436902e-08 -3.8517380379600640e-09 0.0000000000000000e+00  1.6996923046853844e-08 -2.2895460283416535e-09 0.0000000000000000e+00  1.8791992624673055e-08 -1.3757355978030107e-09 0.0000000000000000e+00  1.9977273317771612e-08 -8.2074418745282071e-10 0.0000000000000000e+00  2.0730311180461776e-08 -4.6560181887591135e-10 0.0000000000000000e+00  2.1160351273926827e-08 -2.1555028482199520e-10 0.0000000000000000e+00  2.1326432053836339e-08 -5.8424405445900597e-12 0.0000000000000000e+00  2.1248348178882626e-08 2.1696474925514736e-10 0.0000000000000000e+00  2.0910663800799725e-08 5.0799774362591589e-10 0.0000000000000000e+00  2.0260370123806587e-08 9.3755661029632092e-10 0.0000000000000000e+00  1.9197559634072022e-08 1.6110770009688107e-09 0.0000000000000000e+00  1.7557191662128941e-08 2.7033276579310363e-09 0.0000000000000000e+00  1.5080609069211888e-08 4.5133149083437352e-09 0.0000000000000000e+00  1.1387081596102951e-08 7.5130693178177249e-09 0.0000000000000000e+00  6.0125231642217518e-09 1.2167579666312845e-08 0.0000000000000000e+00  -1.3063886977409237e-09 1.7617264074091778e-08 0.0000000000000000e+00  -1.3223810514954612e-08 1.4779047358236827e-08 0.0000000000000000e+00  -7.7563875780076791e-09 -1.9577937599717668e-08 0.0000000000000000e+00  -1.6132033170353529e-09 -1.9596136063993530e-08 0.0000000000000000e+00  1.0271982020919817e-09 -1.5246432439927709e-08 0.0000000000000000e+00  3.7517159085458145e-09 -1.0466178445781092e-08 0.0000000000000000e+00  6.6241673640795800e-09 -6.9293636998052508e-09 0.0000000000000000e+00  9.1429358743616666e-09 -4.5380769487748293e-09 0.0000000000000000e+00  1.1098312255729300e-08 -2.9468010073915500e-09 0.0000000000000000e+00  1.2507366545474451e-08 -1.8685238243074787e-09 0.0000000000000000e+00  1.3450435878547780e-08 -1.1041087666026205e-09 0.0000000000000000e+00  1.3999957878333869e-08 -5.1583041088915912e-10 0.0000000000000000e+00  1.4201926607914732e-08 -8.8460731811423867e-13 0.0000000000000000e+00  1.4072860071686904e-08 5.2843325693517108e-10 0.0000000000000000e+00  1.3599843002385166e-08 1.1605186909229412e-09 0.0000000000000000e+00  1.2740672517396443e-08 1.9997954378066442e-09 0.0000000000000000e+00  1.1425290818880224e-08 3.1841848353712198e-09 0.0000000000000000e+00  9.5646988762209197e-09 4.9031234063131506e-09 0.0000000000000000e+00  7.0842253461250805e-09 7.3983267326433513e-09 0.0000000000000000e+00  4.0153171886896270e-09 1.0876738041081466e-08 0.0000000000000000e+00  6.5228549711506476e-10 1.5143940319936941e-08 0.0000000000000000e+00  -2.6486505880027686e-09 1.8772734056526429e-08 0.0000000000000000e+00  -8.9477394574648954e-09 1.7614802745591331e-08 0.0000000000000000e+00  -5.9071259420731472e-09 -1.8991441489855045e-08 0.0000000000000000e+00  -1.9357293286578411e-09 -1.9287161732807511e-08 0.0000000000000000e+00  -9.7720787898521632e-10 -1.6600540065231675e-08 0.0000000000000000e+00  1.2046888315176428e-10 -1.2807132743203469e-08 0.0000000000000000e+00  1.7287467231338599e-09 -9.3201861454631169e-09 0.0000000000000000e+00  3.4886363435379225e-09 -6.5700981405963322e-09 0.0000000000000000e+00  5.0731694423254824e-09 -4.5137760644347001e-09 0.0000000000000000e+00  6.3325793429826342e-09 -2.9839605646916168e-09 0.0000000000000000e+00  7.2291388303414764e-09 -1.8125250337597399e-09 0.0000000000000000e+00  7.7695877542270066e-09 -8.5700385899989539e-10 0.0000000000000000e+00  7.9682789183169520e-09 2.6648787765431316e-12 0.0000000000000000e+00  7.8318776811146321e-09 8.7455851893337526e-10 0.0000000000000000e+00  7.3550196114525869e-09 1.8659362045574263e-09 0.0000000000000000e+00  6.5227896681643675e-09 3.0933548377250609e-09 0.0000000000000000e+00  5.3212382928368533e-09 4.6891662206291200e-09 0.0000000000000000e+00  3.7619789602756941e-09 6.7958244356811400e-09 0.0000000000000000e+00  1.9302500564539841e-09 9.5246157133361111e-09 0.0000000000000000e+00  5.3498962990994102e-11 1.2830869082649656e-08 0.0000000000000000e+00  -1.5030168303592334e-09 1.6258970298450561e-08 0.0000000000000000e+00  -2.7623779375034664e-09 1.8707284426037443e-08 0.0000000000000000e+00  -6.6951300125464131e-09 1.8593698895033362e-08 0.0000000000000000e+00  -4.8633500419682228e-09 -1.7864677739413323e-08 0.0000000000000000e+00  -2.1019534629655549e-09 -1.8337477471973902e-08 0.0000000000000000e+00  -2.0266218305649386e-09 -1.6578719197340954e-08 0.0000000000000000e+00  -1.9655848209810516e-09 -1.3736528891164114e-08 0.0000000000000000e+00  -1.3937846823060959e-09 -1.0705038626014846e-08 0.0000000000000000e+00  -4.7019206450204999e-10 -7.9935056236895510e-09 0.0000000000000000e+00  5.3829697995220538e-10 -5.7477627659809095e-09 0.0000000000000000e+00  1.4394465779679321e-09 -3.9327341850058203e-09 0.0000000000000000e+00  2.1303468678043108e-09 -2.4473749079556944e-09 0.0000000000000000e+00  2.5658439184160885e-09 -1.1761253997097718e-09 0.0000000000000000e+00  2.7296418510895845e-09 -5.5823078861340953e-12 0.0000000000000000e+00  2.6176683374885061e-09 1.1733663510270137e-09 0.0000000000000000e+00  2.2321678898550937e-09 2.4680023164084415e-09 0.0000000000000000e+00  1.5846327845664219e-09 3.9853547869939327e-09 0.0000000000000000e+00  7.0773886908353942e-10 5.8273993662007671e-09 0.0000000000000000e+00  -3.2250752395559100e-10 8.0708141926371333e-09 0.0000000000000000e+00  -1.3574883722714278e-09 1.0716726664885716e-08 0.0000000000000000e+00  -2.1641334287436808e-09 1.3597261269454938e-08 0.0000000000000000e+00  -2.5239367505159465e-09 1.6263278220469938e-08 0.0000000000000000e+00  -2.7392067151883950e-09 1.7994819627912993e-08 0.0000000000000000e+00  -5.3972056057569195e-09 1.8345385946267301e-08 0.0000000000000000e+00  -4.2025860382226356e-09 -1.6439515149449919e-08 0.0000000000000000e+00  -2.2308467864073010e-09 -1.7038272503561650e-08 0.0000000000000000e+00  -2.6793017928890982e-09 -1.5830848964838775e-08 0.0000000000000000e+00  -3.2703853633042804e-09 -1.3697957657019667e-08 0.0000000000000000e+00  -3.4492832367051968e-09 -1.1192332221748106e-08 0.0000000000000000e+00  -3.2376298850536248e-09 -8.7272449281220692e-09 0.0000000000000000e+00  -2.8081058009064452e-09 -6.5071483386641797e-09 0.0000000000000000e+00  -2.3274148460583874e-09 -4.5809387349069103e-09 0.0000000000000000e+00  -1.9123912042083656e-09 -2.9116263431731823e-09 0.0000000000000000e+00  -1.6320808854307898e-09 -1.4230441606535784e-09 0.0000000000000000e+00  -1.5212338872440107e-09 -2.4268249945280922e-11 0.0000000000000000e+00  -1.5913184462187702e-09 1.3792518063424501e-09 0.0000000000000000e+00  -1.8352159107554979e-09 2.8800911599592547e-09 0.0000000000000000e+00  -2.2252261258097546e-09 4.5629198902798380e-09 0.0000000000000000e+00  -2.7050152539022539e-09 6.4928153434305933e-09 0.0000000000000000e+00  -3.1779278582680571e-09 8.6918544194871734e-09 0.0000000000000000e+00  -3.5000570745314050e-09 1.1099250415653916e-08 0.0000000000000000e+00  -3.5021871192083247e-09 1.3519938425363935e-08 0.0000000000000000e+00  -3.1036299387476615e-09 1.5595019489670843e-08 0.0000000000000000e+00  -2.7211985455252317e-09 1.6868453089184799e-08 0.0000000000000000e+00  -4.5769060657379971e-09 1.7443942282976097e-08 0.0000000000000000e+00  -3.7492110765365625e-09 -1.4816145961507160e-08 0.0000000000000000e+00  -2.3384514054035242e-09 -1.5508582362554648e-08 0.0000000000000000e+00  -3.1324393350622040e-09 -1.4653108344556526e-08 0.0000000000000000e+00  -4.1470516249707668e-09 -1.3032024278306366e-08 0.0000000000000000e+00  -4.8504792584028267e-09 -1.0998061512083574e-08 0.0000000000000000e+00  -5.1882726921394515e-09 -8.8526081747008902e-09 0.0000000000000000e+00  -5.2541711205484686e-09 -6.7886816718974634e-09 0.0000000000000000e+00  -5.1690049154785251e-09 -4.8905973178482502e-09 0.0000000000000000e+00  -5.0344591846978822e-09 -3.1649556801317070e-09 0.0000000000000000e+00  -4.9207489893070917e-09 -1.5721649923330561e-09 0.0000000000000000e+00  -4.8680242673617456e-09 -4.9117832303809477e-11 0.0000000000000000e+00  -4.8907014497041486e-09 1.4761871370379700e-09 0.0000000000000000e+00  -4.9799454888739275e-09 3.0742411732612770e-09 0.0000000000000000e+00  -5.1029693150934997e-09 4.8037473887196372e-09 0.0000000000000000e+00  -5.1999988592330006e-09 6.6977679750254713e-09 0.0000000000000000e+00  -5.1822625413402543e-09 8.7436700320698315e-09 0.0000000000000000e+00  -4.9388061436445702e-09 1.0857623691671953e-08 0.0000000000000000e+00  -4.3687195792079427e-09 1.2862655459168654e-08 0.0000000000000000e+00  -3.4793506439533252e-09 1.4493648457577823e-08 0.0000000000000000e+00  -2.7170571835636847e-09 1.5459930211607999e-08 0.0000000000000000e+00  -4.0233130397306234e-09 1.6164809306973083e-08 0.0000000000000000e+00  -3.4223172276718010e-09 -1.3048737096774348e-08 0.0000000000000000e+00  -2.4272706224153301e-09 -1.3812948671154663e-08 0.0000000000000000e+00  -3.4646656437888303e-09 -1.3196743808795663e-08 0.0000000000000000e+00  -4.7645156755524539e-09 -1.1952730007404343e-08 0.0000000000000000e+00  -5.8317773482927355e-09 -1.0315198282603232e-08 0.0000000000000000e+00  -6.5746234343865235e-09 -8.4970491692818231e-09 0.0000000000000000e+00  -7.0314396773543109e-09 -6.6569644470645328e-09 0.0000000000000000e+00  -7.2789494586902716e-09 -4.8845092809032728e-09 0.0000000000000000e+00  -7.3931100594009390e-09 -3.2093511941077090e-09 0.0000000000000000e+00  -7.4327370885176346e-09 -1.6189992512119617e-09 0.0000000000000000e+00  -7.4344007111480075e-09 -7.5963415901442008e-11 0.0000000000000000e+00  -7.4119825439994605e-09 1.4681880030797579e-09 0.0000000000000000e+00  -7.3572515498750371e-09 3.0610309913493485e-09 0.0000000000000000e+00  -7.2401706288268601e-09 4.7377987946647590e-09 0.0000000000000000e+00  -7.0096154456001687e-09 6.5084467496943762e-09 0.0000000000000000e+00  -6.5971955986429355e-09 8.3428485204707899e-09 0.0000000000000000e+00  -5.9294409345917680e-09 1.0156671509703245e-08 0.0000000000000000e+00  -4.9585619834338414e-09 1.1805326551120985e-08 0.0000000000000000e+00  -3.7413351213622631e-09 1.3099329468798457e-08 0.0000000000000000e+00  -2.7202020753373764e-09 1.3851298010825845e-08 0.0000000000000000e+00  -3.6323215608205686e-09 1.4641985177935927e-08 0.0000000000000000e+00  -3.1804290739601108e-09 -1.1173781226786010e-08 0.0000000000000000e+00  -2.4988817964457638e-09 -1.1993929980357363e-08 0.0000000000000000e+00  -3.7131664239645051e-09 -1.1550195397179862e-08 0.0000000000000000e+00  -5.2099899054646861e-09 -1.0594481410873494e-08 0.0000000000000000e+00  -6.5295287244181457e-09 -9.2885673955611510e-09 0.0000000000000000e+00  -7.5634268793672122e-09 -7.7816645043217560e-09 0.0000000000000000e+00  -8.3140826001314695e-09 -6.1963389632850039e-09 0.0000000000000000e+00  -8.8229283429216436e-09 -4.6131620136537501e-09 0.0000000000000000e+00  -9.1398752789863346e-09 -3.0703625221813644e-09 0.0000000000000000e+00  -9.3078896391496387e-09 -1.5724439809991605e-09 0.0000000000000000e+00  -9.3556087764557652e-09 -1.0175673655393054e-10 0.0000000000000000e+00  -9.2944405468096911e-09 1.3699399468065079e-09 0.0000000000000000e+00  -9.1179783228729591e-09 2.8705965914321800e-09 0.0000000000000000e+00  -8.8028561858000137e-09 4.4172917266649325e-09 0.0000000000000000e+00  -8.3114503713196848e-09 6.0056037875678290e-09 0.0000000000000000e+00  -7.5980576622856560e-09 7.5995858747552076e-09 0.0000000000000000e+00  -6.6215402466455166e-09 9.1248665425044023e-09 0.0000000000000000e+00  -5.3709694880314774e-09 1.0469672163336938e-08 0.0000000000000000e+00  -3.9294196408141797e-09 1.1500845589527915e-08 0.0000000000000000e+00  -2.7249718079101778e-09 1.2097233259178836e-08 0.0000000000000000e+00  -3.3472223005114510e-09 1.2949444982556712e-08 0.0000000000000000e+00  -3.0003582186126052e-09 -9.2190310693577904e-09 0.0000000000000000e+00  -2.5553677471386720e-09 -1.0083095500062380e-08 0.0000000000000000e+00  -3.8991079134858228e-09 -9.7708176128915387e-09 0.0000000000000000e+00  -5.5332974767674756e-09 -9.0452836378104443e-09 0.0000000000000000e+00  -7.0272089726543373e-09 -8.0220396417451817e-09 0.0000000000000000e+00  -8.2662539158627806e-09 -6.8055101960356989e-09 0.0000000000000000e+00  -9.2302459491575368e-09 -5.4871072000210253e-09 0.0000000000000000e+00  -9.9347162458558903e-09 -4.1333773378971838e-09 0.0000000000000000e+00  -1.0407523874551211e-08 -2.7824697535372126e-09 0.0000000000000000e+00  -1.0676103297917590e-08 -1.4476673784627154e-09 0.0000000000000000e+00  -1.0760147819899185e-08 -1.2464690493355457e-10 0.0000000000000000e+00  -1.0667933010856167e-08 1.1998822049512633e-09 0.0000000000000000e+00  -1.0395229174057417e-08 2.5393034005317828e-09 0.0000000000000000e+00  -9.9263340339381895e-09 3.8984308463564990e-09 0.0000000000000000e+00  -9.2374002153699063e-09 5.2654730616184082e-09 0.0000000000000000e+00  -8.3028339798757264e-09 6.6056041093046785e-09 0.0000000000000000e+00  -7.1063164041636418e-09 7.8580738753911207e-09 0.0000000000000000e+00  -5.6612757125571150e-09 8.9396317320275559e-09 0.0000000000000000e+00  -4.0644398909145050e-09 9.7581076826283022e-09 0.0000000000000000e+00  -2.7280901580752952e-09 1.0236396361210322e-08 0.0000000000000000e+00  -3.1349482241376080e-09 1.1133676987123546e-08 0.0000000000000000e+00  -2.8682968167357319e-09 -7.2067149719613720e-09 0.0000000000000000e+00  -2.5992002619937590e-09 -8.1052196703303096e-09 0.0000000000000000e+00  -4.0365719990654663e-09 -7.8985521034501303e-09 0.0000000000000000e+00  -5.7659547154917625e-09 -7.3651695946162077e-09 0.0000000000000000e+00  -7.3789749936987570e-09 -6.5897023050331475e-09 0.0000000000000000e+00  -8.7595613802109375e-09 -5.6448794660796995e-09 0.0000000000000000e+00  -9.8736315462963538e-09 -4.5969109385008696e-09 0.0000000000000000e+00  -1.0718668531559592e-08 -3.4975652765730983e-09 0.0000000000000000e+00  -1.1305590833694098e-08 -2.3802910480704823e-09 0.0000000000000000e+00  -1.1648798751606401e-08 -1.2612603677765729e-09 0.0000000000000000e+00  -1.1759897822945505e-08 -1.4369320587942576e-10 0.0000000000000000e+00  -1.1644164569725060e-08 9.7612298179478214e-10 0.0000000000000000e+00  -1.1299371183612735e-08 2.1022108703871775e-09 0.0000000000000000e+00  -1.0716780702579279e-08 3.2324029595846533e-09 0.0000000000000000e+00  -9.8843406607376758e-09 4.3526417553705339e-09 0.0000000000000000e+00  -8.7923284398983594e-09 5.4330172666661089e-09 0.0000000000000000e+00  -7.4422646342505462e-09 6.4268601005620538e-09 0.0000000000000000e+00  -5.8632876545316891e-09 7.2744060559468668e-09 0.0000000000000000e+00  -4.1591444115900121e-09 7.9134137899896495e-09 0.0000000000000000e+00  -2.7280958837463518e-09 8.2973383818820018e-09 0.0000000000000000e+00  -2.9755506597475633e-09 9.2269452823647389e-09 0.0000000000000000e+00  -2.7756594343470881e-09 -5.1549963560362812e-09 0.0000000000000000e+00  -2.6329422165043014e-09 -6.0801887953621417e-09 0.0000000000000000e+00  -4.1358630718943756e-09 -5.9625456611411808e-09 0.0000000000000000e+00  -5.9294645377470626e-09 -5.5965069304874839e-09 0.0000000000000000e+00  -7.6215832903347700e-09 -5.0448102962472980e-09 0.0000000000000000e+00  -9.0966603809759175e-09 -4.3571412368148627e-09 0.0000000000000000e+00  -1.0312252717324603e-08 -3.5795375293082774e-09 0.0000000000000000e+00  -1.1253816139689374e-08 -2.7498244329495639e-09 0.0000000000000000e+00  -1.1920166016098875e-08 -1.8944773813597647e-09 0.0000000000000000e+00  -1.2315825375160744e-08 -1.0286295908424980e-09 0.0000000000000000e+00  -1.2445970275270193e-08 -1.5852263724009889e-10 0.0000000000000000e+00  -1.2313393266064482e-08 7.1456985533184999e-10 0.0000000000000000e+00  -1.1917437537861566e-08 1.5897883474417773e-09 0.0000000000000000e+00  -1.1254871693481527e-08 2.4621898834662119e-09 0.0000000000000000e+00  -1.0322657698809456e-08 3.3189567312630055e-09 0.0000000000000000e+00  -9.1226022643611159e-09 4.1370476159192501e-09 0.0000000000000000e+00  -7.6684042427540618e-09 4.8831299119700833e-09 0.0000000000000000e+00  -5.9991390659283389e-09 5.5166106702213158e-09 0.0000000000000000e+00  -4.2221959853898349e-09 5.9975879566823715e-09 0.0000000000000000e+00  -2.7246349918329677e-09 6.3017688483197752e-09 0.0000000000000000e+00  -2.8569283602504228e-09 7.2531423547174304e-09 0.0000000000000000e+00  -2.7169702874652215e-09 -3.0789146585868622e-09 0.0000000000000000e+00  -2.6589751137389467e-09 -4.0241479611984424e-09 0.0000000000000000e+00  -4.2047394121817763e-09 -3.9848094844217980e-09 0.0000000000000000e+00  -6.0389562675558882e-09 -3.7701583917599477e-09 0.0000000000000000e+00  -7.7803486190105422e-09 -3.4262959471160861e-09 0.0000000000000000e+00  -9.3145532387708016e-09 -2.9853338112720444e-09 0.0000000000000000e+00  -1.0594353422548090e-08 -2.47679655305570