<?xml version="1.0"?>
<VTKFile type="UnstructuredGrid"  version="0.1"  >
<UnstructuredGrid>
<Piece  NumberOfPoints="651" NumberOfCells="1200">
<Points>
<DataArray  type="Float64"  NumberOfComponents="3"  format="ascii">0 0 0  50000 0 0  100000 0 0  150000 0 0  200000 0 0  250000 0 0  300000 0 0  350000 0 0  400000 0 0  450000 0 0  500000 0 0  550000 0 0  600000 0 0  650000 0 0  700000 0 0  750000 0 0  800000 0 0  850000 0 0  900000 0 0  950000 0 0  1000000 0 0  0 50000 0  50000 50000 0  100000 50000 0  150000 50000 0  200000 50000 0  250000 50000 0  300000 50000 0  350000 50000 0  400000 50000 0  450000 50000 0  500000 50000 0  550000 50000 0  600000 50000 0  650000 50000 0  700000 50000 0  750000 50000 0  800000 50000 0  850000 50000 0  900000 50000 0  950000 50000 0  1000000 50000 0  0 100000 0  50000 100000 0  100000 100000 0  150000 100000 0  200000 100000 0  250000 100000 0  300000 100000 0  350000 100000 0  400000 100000 0  450000 100000 0  500000 100000 0  550000 100000 0  600000 100000 0  650000 100000 0  700000 100000 0  750000 100000 0  800000 100000 0  850000 100000 0  900000 100000 0  950000 100000 0  1000000 100000 0  0 150000 0  50000 150000 0  100000 150000 0  150000 150000 0  200000 150000 0  250000 150000 0  300000 150000 0  350000 150000 0  400000 150000 0  450000 150000 0  500000 150000 0  550000 150000 0  600000 150000 0  650000 150000 0  700000 150000 0  750000 150000 0  800000 150000 0  850000 150000 0  900000 150000 0  950000 150000 0  1000000 150000 0  0 200000 0  50000 200000 0  100000 200000 0  150000 200000 0  200000 200000 0  250000 200000 0  300000 200000 0  350000 200000 0  400000 200000 0  450000 200000 0  500000 200000 0  550000 200000 0  600000 200000 0  650000 200000 0  700000 200000 0  750000 200000 0  800000 200000 0  850000 200000 0  900000 200000 0  950000 200000 0  1000000 200000 0  0 250000 0  50000 250000 0  100000 250000 0  150000 250000 0  200000 250000 0  250000 250000 0  300000 250000 0  350000 250000 0  400000 250000 0  450000 250000 0  500000 250000 0  550000 250000 0  600000 250000 0  650000 250000 0  700000 250000 0  750000 250000 0  800000 250000 0  850000 250000 0  900000 250000 0  950000 250000 0  1000000 250000 0  0 300000 0  50000 300000 0  100000 300000 0  150000 300000 0  200000 300000 0  250000 300000 0  300000 300000 0  350000 300000 0  400000 300000 0  450000 300000 0  500000 300000 0  550000 300000 0  600000 300000 0  650000 300000 0  700000 300000 0  750000 300000 0  800000 300000 0  850000 300000 0  900000 300000 0  950000 300000 0  1000000 300000 0  0 350000 0  50000 350000 0  100000 350000 0  150000 350000 0  200000 350000 0  250000 350000 0  300000 350000 0  350000 350000 0  400000 350000 0  450000 350000 0  500000 350000 0  550000 350000 0  600000 350000 0  650000 350000 0  700000 350000 0  750000 350000 0  800000 350000 0  850000 350000 0  900000 350000 0  950000 350000 0  1000000 350000 0  0 400000 0  50000 400000 0  100000 400000 0  150000 400000 0  200000 400000 0  250000 400000 0  300000 400000 0  350000 400000 0  400000 400000 0  450000 400000 0  500000 400000 0  550000 400000 0  600000 400000 0  650000 400000 0  700000 400000 0  750000 400000 0  800000 400000 0  850000 400000 0  900000 400000 0  950000 400000 0  1000000 400000 0  0 450000 0  50000 450000 0  100000 450000 0  150000 450000 0  200000 450000 0  250000 450000 0  300000 450000 0  350000 450000 0  400000 450000 0  450000 450000 0  500000 450000 0  550000 450000 0  600000 450000 0  650000 450000 0  700000 450000 0  750000 450000 0  800000 450000 0  850000 450000 0  900000 450000 0  950000 450000 0  1000000 450000 0  0 500000 0  50000 500000 0  100000 500000 0  150000 500000 0  200000 500000 0  250000 500000 0  300000 500000 0  350000 500000 0  400000 500000 0  450000 500000 0  500000 500000 0  550000 500000 0  600000 500000 0  650000 500000 0  700000 500000 0  750000 500000 0  800000 500000 0  850000 500000 0  900000 500000 0  950000 500000 0  1000000 500000 0  0 550000 0  50000 550000 0  100000 550000 0  150000 550000 0  200000 550000 0  250000 550000 0  300000 550000 0  350000 550000 0  400000 550000 0  450000 550000 0  500000 550000 0  550000 550000 0  600000 550000 0  650000 550000 0  700000 550000 0  750000 550000 0  800000 550000 0  850000 550000 0  900000 550000 0  950000 550000 0  1000000 550000 0  0 600000 0  50000 600000 0  100000 600000 0  150000 600000 0  200000 600000 0  250000 600000 0  300000 600000 0  350000 600000 0  400000 600000 0  450000 600000 0  500000 600000 0  550000 600000 0  600000 600000 0  650000 600000 0  700000 600000 0  750000 600000 0  800000 600000 0  850000 600000 0  900000 600000 0  950000 600000 0  1000000 600000 0  0 650000 0  50000 650000 0  100000 650000 0  150000 650000 0  200000 650000 0  250000 650000 0  300000 650000 0  350000 650000 0  400000 650000 0  450000 650000 0  500000 650000 0  550000 650000 0  600000 650000 0  650000 650000 0  700000 650000 0  750000 650000 0  800000 650000 0  850000 650000 0  900000 650000 0  950000 650000 0  1000000 650000 0  0 700000 0  50000 700000 0  100000 700000 0  150000 700000 0  200000 700000 0  250000 700000 0  300000 700000 0  350000 700000 0  400000 700000 0  450000 700000 0  500000 700000 0  550000 700000 0  600000 700000 0  650000 700000 0  700000 700000 0  750000 700000 0  800000 700000 0  850000 700000 0  900000 700000 0  950000 700000 0  1000000 700000 0  0 750000 0  50000 750000 0  100000 750000 0  150000 750000 0  200000 750000 0  250000 750000 0  300000 750000 0  350000 750000 0  400000 750000 0  450000 750000 0  500000 750000 0  550000 750000 0  600000 750000 0  650000 750000 0  700000 750000 0  750000 750000 0  800000 750000 0  850000 750000 0  900000 750000 0  950000 750000 0  1000000 750000 0  0 800000 0  50000 800000 0  100000 800000 0  150000 800000 0  200000 800000 0  250000 800000 0  300000 800000 0  350000 800000 0  400000 800000 0  450000 800000 0  500000 800000 0  550000 800000 0  600000 800000 0  650000 800000 0  700000 800000 0  750000 800000 0  800000 800000 0  850000 800000 0  900000 800000 0  950000 800000 0  1000000 800000 0  0 850000 0  50000 850000 0  100000 850000 0  150000 850000 0  200000 850000 0  250000 850000 0  300000 850000 0  350000 850000 0  400000 850000 0  450000 850000 0  500000 850000 0  550000 850000 0  600000 850000 0  650000 850000 0  700000 850000 0  750000 850000 0  800000 850000 0  850000 850000 0  900000 850000 0  950000 850000 0  1000000 850000 0  0 900000 0  50000 900000 0  100000 900000 0  150000 900000 0  200000 900000 0  250000 900000 0  300000 900000 0  350000 900000 0  400000 900000 0  450000 900000 0  500000 900000 0  550000 900000 0  600000 900000 0  650000 900000 0  700000 900000 0  750000 900000 0  800000 900000 0  850000 900000 0  900000 900000 0  950000 900000 0  1000000 900000 0  0 950000 0  50000 950000 0  100000 950000 0  150000 950000 0  200000 950000 0  250000 950000 0  300000 950000 0  350000 950000 0  400000 950000 0  450000 950000 0  500000 950000 0  550000 950000 0  600000 950000 0  650000 950000 0  700000 950000 0  750000 950000 0  800000 950000 0  850000 950000 0  900000 950000 0  950000 950000 0  1000000 950000 0  0 1000000 0  50000 1000000 0  100000 1000000 0  150000 1000000 0  200000 1000000 0  250000 1000000 0  300000 1000000 0  350000 1000000 0  400000 1000000 0  450000 1000000 0  500000 1000000 0  550000 1000000 0  600000 1000000 0  650000 1000000 0  700000 1000000 0  750000 1000000 0  800000 1000000 0  850000 1000000 0  900000 1000000 0  950000 1000000 0  1000000 1000000 0  0 1050000 0  50000 1050000 0  100000 1050000 0  150000 1050000 0  200000 1050000 0  250000 1050000 0  300000 1050000 0  350000 1050000 0  400000 1050000 0  450000 1050000 0  500000 1050000 0  550000 1050000 0  600000 1050000 0  650000 1050000 0  700000 1050000 0  750000 1050000 0  800000 1050000 0  850000 1050000 0  900000 1050000 0  950000 1050000 0  1000000 1050000 0  0 1100000 0  50000 1100000 0  100000 1100000 0  150000 1100000 0  200000 1100000 0  250000 1100000 0  300000 1100000 0  350000 1100000 0  400000 1100000 0  450000 1100000 0  500000 1100000 0  550000 1100000 0  600000 1100000 0  650000 1100000 0  700000 1100000 0  750000 1100000 0  800000 1100000 0  850000 1100000 0  900000 1100000 0  950000 1100000 0  1000000 1100000 0  0 1150000 0  50000 1150000 0  100000 1150000 0  150000 1150000 0  200000 1150000 0  250000 1150000 0  300000 1150000 0  350000 1150000 0  400000 1150000 0  450000 1150000 0  500000 1150000 0  550000 1150000 0  600000 1150000 0  650000 1150000 0  700000 1150000 0  750000 1150000 0  800000 1150000 0  850000 1150000 0  900000 1150000 0  950000 1150000 0  1000000 1150000 0  0 1200000 0  50000 1200000 0  100000 1200000 0  150000 1200000 0  200000 1200000 0  250000 1200000 0  300000 1200000 0  350000 1200000 0  400000 1200000 0  450000 1200000 0  500000 1200000 0  550000 1200000 0  600000 1200000 0  650000 1200000 0  700000 1200000 0  750000 1200000 0  800000 1200000 0  850000 1200000 0  900000 1200000 0  950000 1200000 0  1000000 1200000 0  0 1250000 0  50000 1250000 0  100000 1250000 0  150000 1250000 0  200000 1250000 0  250000 1250000 0  300000 1250000 0  350000 1250000 0  400000 1250000 0  450000 1250000 0  500000 1250000 0  550000 1250000 0  600000 1250000 0  650000 1250000 0  700000 1250000 0  750000 1250000 0  800000 1250000 0  850000 1250000 0  900000 1250000 0  950000 1250000 0  1000000 1250000 0  0 1300000 0  50000 1300000 0  100000 1300000 0  150000 1300000 0  200000 1300000 0  250000 1300000 0  300000 1300000 0  350000 1300000 0  400000 1300000 0  450000 1300000 0  500000 1300000 0  550000 1300000 0  600000 1300000 0  650000 1300000 0  700000 1300000 0  750000 1300000 0  800000 1300000 0  850000 1300000 0  900000 1300000 0  950000 1300000 0  1000000 1300000 0  0 1350000 0  50000 1350000 0  100000 1350000 0  150000 1350000 0  200000 1350000 0  250000 1350000 0  300000 1350000 0  350000 1350000 0  400000 1350000 0  450000 1350000 0  500000 1350000 0  550000 1350000 0  600000 1350000 0  650000 1350000 0  700000 135
[...]
<PointData  Vectors="f_19"> 
<DataArray  type="Float64"  Name="f_19"  NumberOfComponents="3" format="ascii">-2.2385641979695999e-08 -1.1235675896227394e-08 0.0000000000000000e+00  5.2899786094198754e-08 -7.7898311532584552e-09 0.0000000000000000e+00  4.9312988171663763e-08 -3.7432592828065099e-09 0.0000000000000000e+00  4.7786964097960444e-08 -2.0758299568226591e-09 0.0000000000000000e+00  4.7110407140100266e-08 -1.2855340696535893e-09 0.0000000000000000e+00  4.6703837276738260e-08 -8.3065159168775468e-10 0.0000000000000000e+00  4.6421837198369049e-08 -5.3501267605091500e-10 0.0000000000000000e+00  4.6221919971764451e-08 -3.2347977605974522e-10 0.0000000000000000e+00  4.6090445145647644e-08 -1.5707914237215243e-10 0.0000000000000000e+00  4.6023365295169749e-08 -1.1808145292237587e-11 0.0000000000000000e+00  4.6020061998478005e-08 1.3035046058555446e-10 0.0000000000000000e+00  4.6081590193777233e-08 2.8634356654370847e-10 0.0000000000000000e+00  4.6211248059180024e-08 4.7610855215327839e-10 0.0000000000000000e+00  4.6417908664696065e-08 7.2795095724956117e-10 0.0000000000000000e+00  4.6725305490681975e-08 1.0882986751619105e-09 0.0000000000000000e+00  4.7196944742033629e-08 1.6423425834545979e-09 0.0000000000000000e+00  4.8003844563321704e-08 2.5604244053004107e-09 0.0000000000000000e+00  4.9595294161757110e-08 4.1989886091184616e-09 0.0000000000000000e+00  5.2833016714704735e-08 7.2320949466342620e-09 0.0000000000000000e+00  5.7256510932253075e-08 1.1472306269514560e-08 0.0000000000000000e+00  -1.8895641719892207e-08 9.8502398381289756e-09 0.0000000000000000e+00  -1.7415262808064384e-08 -1.5712364033293582e-08 0.0000000000000000e+00  7.5207717060068582e-09 -1.2794259810460607e-08 0.0000000000000000e+00  1.9314852608671173e-08 -6.7499942702092018e-09 0.0000000000000000e+00  2.5807513874914968e-08 -3.5927136758994084e-09 0.0000000000000000e+00  2.9483214008239856e-08 -2.0383634633553180e-09 0.0000000000000000e+00  3.1757392335827127e-08 -1.2110948238275264e-09 0.0000000000000000e+00  3.3208750378401880e-08 -7.2771438660517113e-10 0.0000000000000000e+00  3.4137623025334934e-08 -4.1836003118011782e-10 0.0000000000000000e+00  3.4713466479079622e-08 -2.0079023489853761e-10 0.0000000000000000e+00  3.5031893194961502e-08 -2.8777231068656131e-11 0.0000000000000000e+00  3.5142788738718938e-08 1.2895263513767171e-10 0.0000000000000000e+00  3.5063651719733603e-08 2.9891873403128676e-10 0.0000000000000000e+00  3.4784461637345872e-08 5.0975874314571739e-10 0.0000000000000000e+00  3.4266512945657938e-08 7.9968360623619331e-10 0.0000000000000000e+00  3.3434942315174524e-08 1.2284702333244749e-09 0.0000000000000000e+00  3.2160921598357141e-08 1.9010596679808385e-09 0.0000000000000000e+00  3.0216758796334029e-08 3.0180674394621046e-09 0.0000000000000000e+00  2.7121035733430357e-08 4.9827485362246121e-09 0.0000000000000000e+00  2.1478419961792002e-08 8.5594221028545801e-09 0.0000000000000000e+00  8.6553828190761184e-09 1.4493089896480136e-08 0.0000000000000000e+00  -2.0136332373272232e-08 1.3082153151955233e-08 0.0000000000000000e+00  -1.1481332790059396e-08 -1.8503759622918846e-08 0.0000000000000000e+00  -4.7606984707666187e-10 -2.0256863296558864e-08 0.0000000000000000e+00  5.5777431507262261e-09 -1.3610678724137736e-08 0.0000000000000000e+00  1.1040370317008382e-08 -8.5761729014733285e-09 0.0000000000000000e+00  1.5691675144641184e-08 -5.4090753171957199e-09 0.0000000000000000e+00  1.9117164453527765e-08 -3.4605672877034756e-09 0.0000000000000000e+00  2.1520474848898811e-08 -2.2164849641593627e-09 0.0000000000000000e+00  2.3159074828496908e-08 -1.3757001215548258e-09 0.0000000000000000e+00  2.4220049649526884e-08 -7.6473302303934179e-10 0.0000000000000000e+00  2.4823195383676308e-08 -2.7699923235634025e-10 0.0000000000000000e+00  2.5035663679600717e-08 1.6162699251533687e-10 0.0000000000000000e+00  2.4882296621536470e-08 6.1257778045337511e-10 0.0000000000000000e+00  2.4350209722854033e-08 1.1383368259046281e-09 0.0000000000000000e+00  2.3388032648358068e-08 1.8158498770070330e-09 0.0000000000000000e+00  2.1899926486727277e-08 2.7545349244042285e-09 0.0000000000000000e+00  1.9733894411747807e-08 4.1244795802091059e-09 0.0000000000000000e+00  1.6663880253331062e-08 6.1981678775488169e-09 0.0000000000000000e+00  1.2371449606533721e-08 9.3779489298429013e-09 0.0000000000000000e+00  6.4801270531262918e-09 1.3983461940110202e-08 0.0000000000000000e+00  -1.3768150612366287e-09 1.8674088629675003e-08 0.0000000000000000e+00  -1.5365590152499344e-08 1.6030447940789124e-08 0.0000000000000000e+00  -8.1153823115526986e-09 -1.8748780430751406e-08 0.0000000000000000e+00  -1.8260484053676166e-09 -2.1319275209610011e-08 0.0000000000000000e+00  5.7134402056729756e-10 -1.7879441594551341e-08 0.0000000000000000e+00  3.3757901169621185e-09 -1.3036138585946307e-08 0.0000000000000000e+00  6.6325590087486251e-09 -9.1250202231903795e-09 0.0000000000000000e+00  9.6383621870978168e-09 -6.2836419522069926e-09 0.0000000000000000e+00  1.2059360306360494e-08 -4.2527283025992185e-09 0.0000000000000000e+00  1.3852427045668974e-08 -2.7668804116101925e-09 0.0000000000000000e+00  1.5075270575734324e-08 -1.6256143666751156e-09 0.0000000000000000e+00  1.5794095113747085e-08 -6.8340654360014915e-10 0.0000000000000000e+00  1.6055182621989782e-08 1.7133788744756440e-10 0.0000000000000000e+00  1.5878068575696435e-08 1.0344301384265347e-09 0.0000000000000000e+00  1.5254882242097457e-08 2.0008089979289303e-09 0.0000000000000000e+00  1.4151909521480058e-08 3.1782931488021589e-09 0.0000000000000000e+00  1.2514426671498341e-08 4.7014083456184347e-09 0.0000000000000000e+00  1.0280884296459461e-08 6.7420480464787472e-09 0.0000000000000000e+00  7.4220542443942550e-09 9.4975636686686847e-09 0.0000000000000000e+00  4.0349745002522888e-09 1.3084555129444690e-08 0.0000000000000000e+00  4.7432040513299060e-10 1.7141074817200726e-08 0.0000000000000000e+00  -3.1169328153308840e-09 1.9927104557299455e-08 0.0000000000000000e+00  -1.0982890282459127e-08 1.7849714595310137e-08 0.0000000000000000e+00  -6.2787355199864848e-09 -1.8007786594692951e-08 0.0000000000000000e+00  -2.1492511448037272e-09 -2.0635209998562118e-08 0.0000000000000000e+00  -1.5013348992369031e-09 -1.9117436283072116e-08 0.0000000000000000e+00  -5.8647040578013284e-10 -1.5563042589155803e-08 0.0000000000000000e+00  1.0749855152768787e-09 -1.1865385422388467e-08 0.0000000000000000e+00  3.0403310154232597e-09 -8.7094685627419481e-09 0.0000000000000000e+00  4.8859866309043525e-09 -6.1832543734701000e-09 0.0000000000000000e+00  6.3961343204000106e-09 -4.1764699993040513e-09 0.0000000000000000e+00  7.4940258176552081e-09 -2.5411978396919589e-09 0.0000000000000000e+00  8.1665013765825064e-09 -1.1387836274047497e-09 0.0000000000000000e+00  8.4198960294290830e-09 1.5341489590210741e-10 0.0000000000000000e+00  8.2603575965308432e-09 1.4475355719678280e-09 0.0000000000000000e+00  7.6878922812230228e-09 2.8533052648286581e-09 0.0000000000000000e+00  6.6993076695603761e-09 4.4849628345954947e-09 0.0000000000000000e+00  5.3006274277612485e-09 6.4630224397831633e-09 0.0000000000000000e+00  3.5340850571815471e-09 8.9011382033981547e-09 0.0000000000000000e+00  1.5271861175594072e-09 1.1854040218541974e-08 0.0000000000000000e+00  -4.4387873810068045e-10 1.5179258589892647e-08 0.0000000000000000e+00  -1.9920838379174212e-09 1.8269643061319027e-08 0.0000000000000000e+00  -3.3238726191310924e-09 1.9802460323646910e-08 0.0000000000000000e+00  -8.3039768813560955e-09 1.8165911811193154e-08 0.0000000000000000e+00  -5.1508889251189865e-09 -1.6821978109261919e-08 0.0000000000000000e+00  -2.2778168581807610e-09 -1.9355899769314143e-08 0.0000000000000000e+00  -2.5211362145836498e-09 -1.8801702906754169e-08 0.0000000000000000e+00  -2.7581909678196131e-09 -1.6397495988666667e-08 0.0000000000000000e+00  -2.3334202739204127e-09 -1.3322424966535493e-08 0.0000000000000000e+00  -1.4202343917852236e-09 -1.0302569272533191e-08 0.0000000000000000e+00  -3.3760742599405876e-10 -7.6187075957786373e-09 0.0000000000000000e+00  6.7211250531411611e-10 -5.3124936825668651e-09 0.0000000000000000e+00  1.4685662454466043e-09 -3.3216128699457897e-09 0.0000000000000000e+00  1.9827448199051614e-09 -1.5477780399568904e-09 0.0000000000000000e+00  2.1859015905613363e-09 1.1572190955129281e-10 0.0000000000000000e+00  2.0705368552858793e-09 1.7751248559404863e-09 0.0000000000000000e+00  1.6430699864078099e-09 3.5339143889140903e-09 0.0000000000000000e+00  9.2644769824282853e-10 5.4900341713037207e-09 0.0000000000000000e+00  -2.7646155807457037e-11 7.7259367185168703e-09 0.0000000000000000e+00  -1.1167965221304323e-09 1.0281730707125379e-08 0.0000000000000000e+00  -2.1608538787490477e-09 1.3097008846193725e-08 0.0000000000000000e+00  -2.8978939158741206e-09 1.5909853153070647e-08 0.0000000000000000e+00  -3.1102437289565006e-09 1.8140500441098683e-08 0.0000000000000000e+00  -3.2451445838107726e-09 1.8903653199803710e-08 0.0000000000000000e+00  -6.6063961858516971e-09 1.7549178762859426e-08 0.0000000000000000e+00  -4.3852707822595876e-09 -1.5394875550573295e-08 0.0000000000000000e+00  -2.3542585497871950e-09 -1.7779520593465952e-08 0.0000000000000000e+00  -3.1067678089480066e-09 -1.7721273907742500e-08 0.0000000000000000e+00  -4.0364820117193728e-09 -1.6118034064469977e-08 0.0000000000000000e+00  -4.4711506118710989e-09 -1.3694010672664417e-08 0.0000000000000000e+00  -4.4134229533715538e-09 -1.1022244181901205e-08 0.0000000000000000e+00  -4.0532474931625179e-09 -8.4261505402913163e-09 0.0000000000000000e+00  -3.5858713601347610e-09 -6.0341520275083008e-09 0.0000000000000000e+00  -3.1553115366531004e-09 -3.8578124100161682e-09 0.0000000000000000e+00  -2.8511770181673322e-09 -1.8486967312399058e-09 0.0000000000000000e+00  -2.7207179919101623e-09 6.8417519417990730e-11 0.0000000000000000e+00  -2.7800993082192187e-09 1.9776329235168482e-09 0.0000000000000000e+00  -3.0197650476613899e-09 3.9609853233129467e-09 0.0000000000000000e+00  -3.4030797041724939e-09 6.0877130851681619e-09 0.0000000000000000e+00  -3.8591006312045199e-09 8.3976194748943120e-09 0.0000000000000000e+00  -4.2726266503513447e-09 1.0872330962927748e-08 0.0000000000000000e+00  -4.4809952400804773e-09 1.3390233666130734e-08 0.0000000000000000e+00  -4.3034907542130358e-09 1.5671573594543635e-08 0.0000000000000000e+00  -3.6749399435083868e-09 1.7249219998061041e-08 0.0000000000000000e+00  -3.1288852802223350e-09 1.7553706075854985e-08 0.0000000000000000e+00  -5.4617422071841762e-09 1.6441604151471248e-08 0.0000000000000000e+00  -3.8319170956627017e-09 -1.3814860500253519e-08 0.0000000000000000e+00  -2.4059054232930150e-09 -1.6024729881582190e-08 0.0000000000000000e+00  -3.4796343469286433e-09 -1.6220974126030805e-08 0.0000000000000000e+00  -4.8350389078680005e-09 -1.5149655527396795e-08 0.0000000000000000e+00  -5.8451248563883966e-09 -1.3273544407453555e-08 0.0000000000000000e+00  -6.4224866902490965e-09 -1.1005881332407563e-08 0.0000000000000000e+00  -6.6559127161278585e-09 -8.6355694345139477e-09 0.0000000000000000e+00  -6.6758906387813940e-09 -6.3194791206957337e-09 0.0000000000000000e+00  -6.5988853629199432e-09 -4.1147289678111884e-09 0.0000000000000000e+00  -6.5089128359953923e-09 -2.0151485319133522e-09 0.0000000000000000e+00  -6.4558314358192739e-09 2.0077828503701895e-11 0.0000000000000000e+00  -6.4585333811572313e-09 2.0461676631561445e-09 0.0000000000000000e+00  -6.5073879710674493e-09 4.1173483941596044e-09 0.0000000000000000e+00  -6.5641691099093295e-09 6.2720332203018326e-09 0.0000000000000000e+00  -6.5603452890627803e-09 8.5146541230926653e-09 0.0000000000000000e+00  -6.3974575174751164e-09 1.0791612150354005e-08 0.0000000000000000e+00  -5.9578498503168180e-09 1.2962716053346905e-08 0.0000000000000000e+00  -5.1429474903903226e-09 1.4778428002958464e-08 0.0000000000000000e+00  -3.9851829935102174e-09 1.5888272706135757e-08 0.0000000000000000e+00  -3.0232881822092406e-09 1.5933116853156802e-08 0.0000000000000000e+00  -4.6484541692338663e-09 1.5054706143829848e-08 0.0000000000000000e+00  -3.4173879212592234e-09 -1.2130353424510108e-08 0.0000000000000000e+00  -2.4411801308851387e-09 -1.4154212674443364e-08 0.0000000000000000e+00  -3.7300365771110541e-09 -1.4470350747358046e-08 0.0000000000000000e+00  -5.3532939325440715e-09 -1.3751822974095340e-08 0.0000000000000000e+00  -6.7430673374220185e-09 -1.2307924098540624e-08 0.0000000000000000e+00  -7.7701018512553538e-09 -1.0429229284948710e-08 0.0000000000000000e+00  -8.4549145374763188e-09 -8.3478886519132768e-09 0.0000000000000000e+00  -8.8700046991973528e-09 -6.2149552870559175e-09 0.0000000000000000e+00  -9.0949515798793155e-09 -4.1074186934482683e-09 0.0000000000000000e+00  -9.1949373588460445e-09 -2.0475746328007193e-09 0.0000000000000000e+00  -9.2122606932182890e-09 -2.3701209335228275e-11 0.0000000000000000e+00  -9.1641594444355070e-09 1.9917623155760008e-09 0.0000000000000000e+00  -9.0429069500638761e-09 4.0263204840943942e-09 0.0000000000000000e+00  -8.8166041599285902e-09 6.0920898646851969e-09 0.0000000000000000e+00  -8.4312892817476269e-09 8.1694046551663014e-09 0.0000000000000000e+00  -7.8171472194785520e-09 1.0189223485355983e-08 0.0000000000000000e+00  -6.9040996578061130e-09 1.2017492452933545e-08 0.0000000000000000e+00  -5.6568844515178113e-09 1.3449947813889917e-08 0.0000000000000000e+00  -4.1625766869975749e-09 1.4232572762387777e-08 0.0000000000000000e+00  -2.9332570231753808e-09 1.4143729359450027e-08 0.0000000000000000e+00  -4.0473834047555329e-09 1.3493594905091318e-08 0.0000000000000000e+00  -3.1018231712951483e-09 -1.0372927918602312e-08 0.0000000000000000e+00  -2.4648157393346678e-09 -1.2206830155117607e-08 0.0000000000000000e+00  -3.9017320082252571e-09 -1.2564686794591635e-08 0.0000000000000000e+00  -5.6954900981269262e-09 -1.2082536395740504e-08 0.0000000000000000e+00  -7.3331824244065617e-09 -1.0976306973444120e-08 0.0000000000000000e+00  -8.6688774246890272e-09 -9.4491753511476002e-09 0.0000000000000000e+00  -9.6800819056995880e-09 -7.6784488410558724e-09 0.0000000000000000e+00  -1.0394696395582193e-08 -5.7943160404421897e-09 0.0000000000000000e+00  -1.0857550985460605e-08 -3.8763764119301756e-09 0.0000000000000000e+00  -1.1111380002906949e-08 -1.9621041106136021e-09 0.0000000000000000e+00  -1.1186535836859782e-08 -6.0197392200325247e-11 0.0000000000000000e+00  -1.1096329548058138e-08 1.8351122823467886e-09 0.0000000000000000e+00  -1.0835793919067477e-08 3.7301170766772707e-09 0.0000000000000000e+00  -1.0382861786038629e-08 5.6180778276543397e-09 0.0000000000000000e+00  -9.7022805469774778e-09 7.4660211160417061e-09 0.0000000000000000e+00  -8.7538165837013172e-09 9.2029072044187789e-09 0.0000000000000000e+00  -7.5074850658733269e-09 1.0712234893938661e-08 0.0000000000000000e+00  -5.9718142851688650e-09 1.1834751758968801e-08 0.0000000000000000e+00  -4.2621269883509944e-09 1.2390009679722855e-08 0.0000000000000000e+00  -2.8556353239683412e-09 1.2246442046041198e-08 0.0000000000000000e+00  -3.5912060601831178e-09 1.1817381171811222e-08 0.0000000000000000e+00  -2.8620272696312350e-09 -8.5650400477378178e-09 0.0000000000000000e+00  -2.4806906003245884e-09 -1.0208993237081845e-08 0.0000000000000000e+00  -4.0200418516904138e-09 -1.0562347266213719e-08 0.0000000000000000e+00  -5.9219008982829690e-09 -1.0241298830104830e-08 0.0000000000000000e+00  -7.7190857555626204e-09 -9.4029389798774373e-09 0.0000000000000000e+00  -9.2610652120255570e-09 -8.1890432954955999e-09 0.0000000000000000e+00  -1.0499238055466164e-08 -6.7309292687812415e-09 0.0000000000000000e+00  -1.1429735383959384e-08 -5.1336625250094251e-09 0.0000000000000000e+00  -1.2069116579215940e-08 -3.4696474668184396e-09 0.0000000000000000e+00  -1.2439388334961445e-08 -1.7812532194410851e-09 0.0000000000000000e+00  -1.2558519766582664e-08 -8.8770642968518201e-11 0.0000000000000000e+00  -1.2435280334331966e-08 1.5992706298043924e-09 0.0000000000000000e+00  -1.2067513333859614e-08 3.2751116745414764e-09 0.0000000000000000e+00  -1.1443358681483197e-08 4.9209696054450389e-09 0.0000000000000000e+00  -1.0545519105590847e-08 6.4992102908054905e-09 0.0000000000000000e+00  -9.3591832562952243e-09 7.9448413256386484e-09 0.0000000000000000e+00  -7.8847631746969253e-09 9.1627065026716542e-09 0.0000000000000000e+00  -6.1595179999110760e-09 1.0032833609502081e-08 0.0000000000000000e+00  -4.3123649854647836e-09 1.0429225816365533e-08 0.0000000000000000e+00  -2.7873157591339365e-09 1.0280000174549861e-08 0.0000000000000000e+00  -3.2400898654938118e-09 1.0063258160567086e-08 0.0000000000000000e+00  -2.6839212126731543e-09 -6.7231257924629846e-09 0.0000000000000000e+00  -2.4924060135795284e-09 -8.1792552107326522e-09 0.0000000000000000e+00  -4.1018699539683196e-09 -8.5007578373196612e-09 0.0000000000000000e+00  -6.0709110379679541e-09 -8.2923955686456406e-09 0.0000000000000000e+00  -7.9682570445748638e-09 -7.6728048572520067e-09 0.0000000000000000e+00  -9.6440742136743021e-09 -6.7401889892362471e-09 0.0000000000000000e+00  -1.1034333397681911e-08 -5.5890087443213248e-09 0.0000000000000000e+00  -1.2113620832115082e-08 -4.2997194110039212e-09 0.0000000000000000e+00  -1.2877393627657268e-08 -2.9326382327367160e-09 0.0000000000000000e+00  -1.3330860182293300e-08 -1.5279183355699621e-09 0.0000000000000000e+00  -1.3481246499330789e-08 -1.0998013037854334e-10 0.0000000000000000e+00  -1.3333146358555283e-08 1.3055374098138913e-09 0.0000000000000000e+00  -1.2886814967464232e-08 2.7037936548453231e-09 0.0000000000000000e+00  -1.2139263264580387e-08 4.0628164426114209e-09 0.0000000000000000e+00  -1.1088112886363783e-08 5.3466310462705690e-09 0.0000000000000000e+00  -9.7382690035560898e-09 6.5007067494202653e-09 0.0000000000000000e+00  -8.1117792833005379e-09 7.4513892669790492e-09 0.0000000000000000e+00  -6.2641991936398377e-09 8.1113577385337445e-09 0.0000000000000000e+00  -4.3304352110598915e-09 8.3947766289487456e-09 0.0000000000000000e+00  -2.7266315867221843e-09 8.2700286145359272e-09 0.0000000000000000e+00  -2.9696028566344958e-09 8.2564701192063999e-09 0.0000000000000000e+00  -2.5588110861707513e-09 -4.8591897815054111e-09 0.0000000000000000e+00  -2.5032941435654526e-09 -6.1305201178751403e-09 0.0000000000000000e+00  -4.1594844368064799e-09 -6.4042461356626667e-09 0.0000000000000000e+00  -6.1686776689820252e-09 -6.2778181689698322e-09 0.0000000000000000e+00  -8.1264565422628241e-09 -5.8436458780216107e-09 0.0000000000000000e+00  -9.8856175671204298e-09 -5.1681670568688903e-09 0.0000000000000000e+00  -1.1373317827866660e-08 -4.3163818399497900e-09 0.0000000000000000e+00  -1.2550176339705410e-08 -3.3462015109374299e-09 0.0000000000000000e+00  -1.3396933766253110e-08 -2.3037311976102420e-09 0.0000000000000000e+00  -1.3906383325275081e-08 -1.2223278828498793e-09 0.0000000000000000e+00  -1.4077433615712827e-08 -1.2488865666202389e-10 0.0000000000000000e+00  -1.3911306586252405e-08 9.7177283757152747e-10 0.0000000000000000e+00  -1.3410077730872454e-08 2.0515638267194329e-09 0.0000000000000000e+00  -1.2577598813854803e-08 3.0937185560303095e-09 0.0000000000000000e+00  -1.1422697804212601e-08 4.0682808367736829e-09 0.0000000000000000e+00  -9.9644444820122133e-09 4.9334492509610792e-09 0.0000000000000000e+00  -8.2395371480369285e-09 5.6358826255171436e-09 0.0000000000000000e+00  -6.3149259617971624e-09 6.1151982195505411e-09 0.0000000000000000e+00  -4.3278784035277740e-09 6.3156790990613820e-09 0.0000000000000000e+00  -2.6731056741972774e-09 6.2336061589605340e-09 0.0000000000000000e+00  -2.7643853225256736e-09 6.4147831158157887e-09 0.0000000000000000e+00  -2.4814084945360965e-09 -2.9819008652099027e-09 0.0000000000000000e+00  -2.5162799989088742e-09 -4.0714293742303759e-09 0.0000000000000000e+00  -4.2019669903307926e-09 -4.2884649817813382e-09 0.0000000000000000e+00  -6.2334285471440005e-09 -4.2250189902629742e-09 0.0000000000000000e+00  -8.2249952784461624e-09 -3.9545557949345134e-09 0.0000000000000000e+00  -1.0032401439811031e-08 -3.5192824705599888e-09 0.0000000000000000e+00  -1.1578113833046340e-08 -2.9600552