<?xml version="1.0"?>
<VTKFile type="UnstructuredGrid"  version="0.1"  >
<UnstructuredGrid>
<Piece  NumberOfPoints="651" NumberOfCells="1200">
<Points>
<DataArray  type="Float64"  NumberOfComponents="3"  format="ascii">0 0 0  50000 0 0  100000 0 0  150000 0 0  200000 0 0  250000 0 0  300000 0 0  350000 0 0  400000 0 0  450000 0 0  500000 0 0  550000 0 0  600000 0 0  650000 0 0  700000 0 0  750000 0 0  800000 0 0  850000 0 0  900000 0 0  950000 0 0  1000000 0 0  0 50000 0  50000 50000 0  100000 50000 0  150000 50000 0  200000 50000 0  250000 50000 0  300000 50000 0  350000 50000 0  400000 50000 0  450000 50000 0  500000 50000 0  550000 50000 0  600000 50000 0  650000 50000 0  700000 50000 0  750000 50000 0  800000 50000 0  850000 50000 0  900000 50000 0  950000 50000 0  1000000 50000 0  0 100000 0  50000 100000 0  100000 100000 0  150000 100000 0  200000 100000 0  250000 100000 0  300000 100000 0  350000 100000 0  400000 100000 0  450000 100000 0  500000 100000 0  550000 100000 0  600000 100000 0  650000 100000 0  700000 100000 0  750000 100000 0  800000 100000 0  850000 100000 0  900000 100000 0  950000 100000 0  1000000 100000 0  0 150000 0  50000 150000 0  100000 150000 0  150000 150000 0  200000 150000 0  250000 150000 0  300000 150000 0  350000 150000 0  400000 150000 0  450000 150000 0  500000 150000 0  550000 150000 0  600000 150000 0  650000 150000 0  700000 150000 0  750000 150000 0  800000 150000 0  850000 150000 0  900000 150000 0  950000 150000 0  1000000 150000 0  0 200000 0  50000 200000 0  100000 200000 0  150000 200000 0  200000 200000 0  250000 200000 0  300000 200000 0  350000 200000 0  400000 200000 0  450000 200000 0  500000 200000 0  550000 200000 0  600000 200000 0  650000 200000 0  700000 200000 0  750000 200000 0  800000 200000 0  850000 200000 0  900000 200000 0  950000 200000 0  1000000 200000 0  0 250000 0  50000 250000 0  100000 250000 0  150000 250000 0  200000 250000 0  250000 250000 0  300000 250000 0  350000 250000 0  400000 250000 0  450000 250000 0  500000 250000 0  550000 250000 0  600000 250000 0  650000 250000 0  700000 250000 0  750000 250000 0  800000 250000 0  850000 250000 0  900000 250000 0  950000 250000 0  1000000 250000 0  0 300000 0  50000 300000 0  100000 300000 0  150000 300000 0  200000 300000 0  250000 300000 0  300000 300000 0  350000 300000 0  400000 300000 0  450000 300000 0  500000 300000 0  550000 300000 0  600000 300000 0  650000 300000 0  700000 300000 0  750000 300000 0  800000 300000 0  850000 300000 0  900000 300000 0  950000 300000 0  1000000 300000 0  0 350000 0  50000 350000 0  100000 350000 0  150000 350000 0  200000 350000 0  250000 350000 0  300000 350000 0  350000 350000 0  400000 350000 0  450000 350000 0  500000 350000 0  550000 350000 0  600000 350000 0  650000 350000 0  700000 350000 0  750000 350000 0  800000 350000 0  850000 350000 0  900000 350000 0  950000 350000 0  1000000 350000 0  0 400000 0  50000 400000 0  100000 400000 0  150000 400000 0  200000 400000 0  250000 400000 0  300000 400000 0  350000 400000 0  400000 400000 0  450000 400000 0  500000 400000 0  550000 400000 0  600000 400000 0  650000 400000 0  700000 400000 0  750000 400000 0  800000 400000 0  850000 400000 0  900000 400000 0  950000 400000 0  1000000 400000 0  0 450000 0  50000 450000 0  100000 450000 0  150000 450000 0  200000 450000 0  250000 450000 0  300000 450000 0  350000 450000 0  400000 450000 0  450000 450000 0  500000 450000 0  550000 450000 0  600000 450000 0  650000 450000 0  700000 450000 0  750000 450000 0  800000 450000 0  850000 450000 0  900000 450000 0  950000 450000 0  1000000 450000 0  0 500000 0  50000 500000 0  100000 500000 0  150000 500000 0  200000 500000 0  250000 500000 0  300000 500000 0  350000 500000 0  400000 500000 0  450000 500000 0  500000 500000 0  550000 500000 0  600000 500000 0  650000 500000 0  700000 500000 0  750000 500000 0  800000 500000 0  850000 500000 0  900000 500000 0  950000 500000 0  1000000 500000 0  0 550000 0  50000 550000 0  100000 550000 0  150000 550000 0  200000 550000 0  250000 550000 0  300000 550000 0  350000 550000 0  400000 550000 0  450000 550000 0  500000 550000 0  550000 550000 0  600000 550000 0  650000 550000 0  700000 550000 0  750000 550000 0  800000 550000 0  850000 550000 0  900000 550000 0  950000 550000 0  1000000 550000 0  0 600000 0  50000 600000 0  100000 600000 0  150000 600000 0  200000 600000 0  250000 600000 0  300000 600000 0  350000 600000 0  400000 600000 0  450000 600000 0  500000 600000 0  550000 600000 0  600000 600000 0  650000 600000 0  700000 600000 0  750000 600000 0  800000 600000 0  850000 600000 0  900000 600000 0  950000 600000 0  1000000 600000 0  0 650000 0  50000 650000 0  100000 650000 0  150000 650000 0  200000 650000 0  250000 650000 0  300000 650000 0  350000 650000 0  400000 650000 0  450000 650000 0  500000 650000 0  550000 650000 0  600000 650000 0  650000 650000 0  700000 650000 0  750000 650000 0  800000 650000 0  850000 650000 0  900000 650000 0  950000 650000 0  1000000 650000 0  0 700000 0  50000 700000 0  100000 700000 0  150000 700000 0  200000 700000 0  250000 700000 0  300000 700000 0  350000 700000 0  400000 700000 0  450000 700000 0  500000 700000 0  550000 700000 0  600000 700000 0  650000 700000 0  700000 700000 0  750000 700000 0  800000 700000 0  850000 700000 0  900000 700000 0  950000 700000 0  1000000 700000 0  0 750000 0  50000 750000 0  100000 750000 0  150000 750000 0  200000 750000 0  250000 750000 0  300000 750000 0  350000 750000 0  400000 750000 0  450000 750000 0  500000 750000 0  550000 750000 0  600000 750000 0  650000 750000 0  700000 750000 0  750000 750000 0  800000 750000 0  850000 750000 0  900000 750000 0  950000 750000 0  1000000 750000 0  0 800000 0  50000 800000 0  100000 800000 0  150000 800000 0  200000 800000 0  250000 800000 0  300000 800000 0  350000 800000 0  400000 800000 0  450000 800000 0  500000 800000 0  550000 800000 0  600000 800000 0  650000 800000 0  700000 800000 0  750000 800000 0  800000 800000 0  850000 800000 0  900000 800000 0  950000 800000 0  1000000 800000 0  0 850000 0  50000 850000 0  100000 850000 0  150000 850000 0  200000 850000 0  250000 850000 0  300000 850000 0  350000 850000 0  400000 850000 0  450000 850000 0  500000 850000 0  550000 850000 0  600000 850000 0  650000 850000 0  700000 850000 0  750000 850000 0  800000 850000 0  850000 850000 0  900000 850000 0  950000 850000 0  1000000 850000 0  0 900000 0  50000 900000 0  100000 900000 0  150000 900000 0  200000 900000 0  250000 900000 0  300000 900000 0  350000 900000 0  400000 900000 0  450000 900000 0  500000 900000 0  550000 900000 0  600000 900000 0  650000 900000 0  700000 900000 0  750000 900000 0  800000 900000 0  850000 900000 0  900000 900000 0  950000 900000 0  1000000 900000 0  0 950000 0  50000 950000 0  100000 950000 0  150000 950000 0  200000 950000 0  250000 950000 0  300000 950000 0  350000 950000 0  400000 950000 0  450000 950000 0  500000 950000 0  550000 950000 0  600000 950000 0  650000 950000 0  700000 950000 0  750000 950000 0  800000 950000 0  850000 950000 0  900000 950000 0  950000 950000 0  1000000 950000 0  0 1000000 0  50000 1000000 0  100000 1000000 0  150000 1000000 0  200000 1000000 0  250000 1000000 0  300000 1000000 0  350000 1000000 0  400000 1000000 0  450000 1000000 0  500000 1000000 0  550000 1000000 0  600000 1000000 0  650000 1000000 0  700000 1000000 0  750000 1000000 0  800000 1000000 0  850000 1000000 0  900000 1000000 0  950000 1000000 0  1000000 1000000 0  0 1050000 0  50000 1050000 0  100000 1050000 0  150000 1050000 0  200000 1050000 0  250000 1050000 0  300000 1050000 0  350000 1050000 0  400000 1050000 0  450000 1050000 0  500000 1050000 0  550000 1050000 0  600000 1050000 0  650000 1050000 0  700000 1050000 0  750000 1050000 0  800000 1050000 0  850000 1050000 0  900000 1050000 0  950000 1050000 0  1000000 1050000 0  0 1100000 0  50000 1100000 0  100000 1100000 0  150000 1100000 0  200000 1100000 0  250000 1100000 0  300000 1100000 0  350000 1100000 0  400000 1100000 0  450000 1100000 0  500000 1100000 0  550000 1100000 0  600000 1100000 0  650000 1100000 0  700000 1100000 0  750000 1100000 0  800000 1100000 0  850000 1100000 0  900000 1100000 0  950000 1100000 0  1000000 1100000 0  0 1150000 0  50000 1150000 0  100000 1150000 0  150000 1150000 0  200000 1150000 0  250000 1150000 0  300000 1150000 0  350000 1150000 0  400000 1150000 0  450000 1150000 0  500000 1150000 0  550000 1150000 0  600000 1150000 0  650000 1150000 0  700000 1150000 0  750000 1150000 0  800000 1150000 0  850000 1150000 0  900000 1150000 0  950000 1150000 0  1000000 1150000 0  0 1200000 0  50000 1200000 0  100000 1200000 0  150000 1200000 0  200000 1200000 0  250000 1200000 0  300000 1200000 0  350000 1200000 0  400000 1200000 0  450000 1200000 0  500000 1200000 0  550000 1200000 0  600000 1200000 0  650000 1200000 0  700000 1200000 0  750000 1200000 0  800000 1200000 0  850000 1200000 0  900000 1200000 0  950000 1200000 0  1000000 1200000 0  0 1250000 0  50000 1250000 0  100000 1250000 0  150000 1250000 0  200000 1250000 0  250000 1250000 0  300000 1250000 0  350000 1250000 0  400000 1250000 0  450000 1250000 0  500000 1250000 0  550000 1250000 0  600000 1250000 0  650000 1250000 0  700000 1250000 0  750000 1250000 0  800000 1250000 0  850000 1250000 0  900000 1250000 0  950000 1250000 0  1000000 1250000 0  0 1300000 0  50000 1300000 0  100000 1300000 0  150000 1300000 0  200000 1300000 0  250000 1300000 0  300000 1300000 0  350000 1300000 0  400000 1300000 0  450000 1300000 0  500000 1300000 0  550000 1300000 0  600000 1300000 0  650000 1300000 0  700000 1300000 0  750000 1300000 0  800000 1300000 0  850000 1300000 0  900000 1300000 0  950000 1300000 0  1000000 1300000 0  0 1350000 0  50000 1350000 0  100000 1350000 0  150000 1350000 0  200000 1350000 0  250000 1350000 0  300000 1350000 0  350000 1350000 0  400000 1350000 0  450000 1350000 0  500000 1350000 0  550000 1350000 0  600000 1350000 0  650000 1350000 0  700000 135
[...]
<PointData  Vectors="f_19"> 
<DataArray  type="Float64"  Name="f_19"  NumberOfComponents="3" format="ascii">-2.4325773299670376e-08 -1.0522346430185857e-08 0.0000000000000000e+00  4.8720285545444587e-08 -6.5973344334738042e-09 0.0000000000000000e+00  4.2981939289112433e-08 -2.2840474973277263e-09 0.0000000000000000e+00  4.0522695625465589e-08 -9.0794227385252468e-10 0.0000000000000000e+00  3.9314917736334134e-08 -4.2571552944553840e-10 0.0000000000000000e+00  3.8525695352891564e-08 -2.1822929601823588e-10 0.0000000000000000e+00  3.7958099561539774e-08 -1.1768018486207657e-10 0.0000000000000000e+00  3.7555193178205204e-08 -6.6525444754919118e-11 0.0000000000000000e+00  3.7299034450461888e-08 -4.0167172625116058e-11 0.0000000000000000e+00  3.7184944707362714e-08 -2.5418124899802916e-11 0.0000000000000000e+00  3.7213759895232527e-08 -1.3134367625908715e-11 0.0000000000000000e+00  3.7390063627896309e-08 5.1222299196997146e-12 0.0000000000000000e+00  3.7723773818299728e-08 3.9610702818389231e-11 0.0000000000000000e+00  3.8236180729170645e-08 1.0595441114071278e-10 0.0000000000000000e+00  3.8976010797982250e-08 2.3245018322187348e-10 0.0000000000000000e+00  4.0061939104056425e-08 4.7817552083486512e-10 0.0000000000000000e+00  4.1794928395851433e-08 9.8162883340676797e-10 0.0000000000000000e+00  4.4921601123639757e-08 2.0873587714213744e-09 0.0000000000000000e+00  5.0771436241136025e-08 4.6127863558796687e-09 0.0000000000000000e+00  5.8015208847109836e-08 9.1255490100282599e-09 0.0000000000000000e+00  -1.6439637099165728e-08 7.0183916300957923e-09 0.0000000000000000e+00  -1.8077273212217648e-08 -1.6066406080066342e-08 0.0000000000000000e+00  7.2799340366505880e-09 -1.1350547080827462e-08 0.0000000000000000e+00  1.8192134396911498e-08 -5.2625474577791913e-09 0.0000000000000000e+00  2.3248383727457902e-08 -2.4071013809232775e-09 0.0000000000000000e+00  2.5827212881054993e-08 -1.1526996048041381e-09 0.0000000000000000e+00  2.7283246090682152e-08 -5.6197553169007888e-10 0.0000000000000000e+00  2.8128281879617798e-08 -2.6637863463165211e-10 0.0000000000000000e+00  2.8621462002855299e-08 -1.1557677114867644e-10 0.0000000000000000e+00  2.8905893872833716e-08 -4.0576118648327593e-11 0.0000000000000000e+00  2.9061363321807740e-08 -4.0784965471977448e-12 0.0000000000000000e+00  2.9129423241270090e-08 1.8436731274359659e-11 0.0000000000000000e+00  2.9124906154155302e-08 4.7415987053589387e-11 0.0000000000000000e+00  2.9039905583674853e-08 1.0499824433250215e-10 0.0000000000000000e+00  2.8842237256355164e-08 2.2162508055014226e-10 0.0000000000000000e+00  2.8467373676234765e-08 4.4782831001853703e-10 0.0000000000000000e+00  2.7797811751378768e-08 8.8012910116901989e-10 0.0000000000000000e+00  2.6607830071333900e-08 1.7218957830984149e-09 0.0000000000000000e+00  2.4386053196373853e-08 3.4191166009607155e-09 0.0000000000000000e+00  1.9687873135934607e-08 6.8620235629002263e-09 0.0000000000000000e+00  8.2659628153340218e-09 1.3013639048852667e-08 0.0000000000000000e+00  -1.8407441190848119e-08 1.0950744933957144e-08 0.0000000000000000e+00  -1.1087618960721043e-08 -1.9642616664721612e-08 0.0000000000000000e+00  -2.4877441768392086e-10 -1.8507091580955607e-08 0.0000000000000000e+00  5.8750207813477080e-09 -1.1331750973400211e-08 0.0000000000000000e+00  1.0761381603763211e-08 -6.5500458441683987e-09 0.0000000000000000e+00  1.4570259808875533e-08 -3.7892308649148845e-09 0.0000000000000000e+00  1.7209103422047237e-08 -2.2209926225791598e-09 0.0000000000000000e+00  1.8971479251288492e-08 -1.3044553082198369e-09 0.0000000000000000e+00  2.0123942573578019e-08 -7.4836978935614781e-10 0.0000000000000000e+00  2.0845874819017074e-08 -3.9375826751687565e-10 0.0000000000000000e+00  2.1247596635592205e-08 -1.4636181073840324e-10 0.0000000000000000e+00  2.1388925127210409e-08 5.8010763076283077e-11 0.0000000000000000e+00  2.1290239726369313e-08 2.7239241211357510e-10 0.0000000000000000e+00  2.0936493818057010e-08 5.5180137397547728e-10 0.0000000000000000e+00  2.0274833268678872e-08 9.6686716561857608e-10 0.0000000000000000e+00  1.9205237910170150e-08 1.6238741379846376e-09 0.0000000000000000e+00  1.7562278299799931e-08 2.6989336829551492e-09 0.0000000000000000e+00  1.5086619066572676e-08 4.4927196902090834e-09 0.0000000000000000e+00  1.1396463945110729e-08 7.4789678316145221e-09 0.0000000000000000e+00  6.0258025993282876e-09 1.2123906838404068e-08 0.0000000000000000e+00  -1.2870791166014121e-09 1.7576165369804537e-08 0.0000000000000000e+00  -1.3240686641931890e-08 1.4697961034277969e-08 0.0000000000000000e+00  -7.3813360180317305e-09 -2.0238619510365099e-08 0.0000000000000000e+00  -1.5496483505069771e-09 -1.9949004499888988e-08 0.0000000000000000e+00  1.1356738773043015e-09 -1.5306369203565350e-08 0.0000000000000000e+00  3.9162456816789568e-09 -1.0419361201599893e-08 0.0000000000000000e+00  6.8129871690938113e-09 -6.8412658748343941e-09 0.0000000000000000e+00  9.3290874024761603e-09 -4.4330339755466485e-09 0.0000000000000000e+00  1.1267865107276323e-08 -2.8352397168561179e-09 0.0000000000000000e+00  1.2654562727641594e-08 -1.7558410478058626e-09 0.0000000000000000e+00  1.3573893337096394e-08 -9.9402840919245901e-10 0.0000000000000000e+00  1.4100629846522062e-08 -4.1174505173181875e-10 0.0000000000000000e+00  1.4282065454665330e-08 9.3706716172065248e-11 0.0000000000000000e+00  1.4135428536035705e-08 6.0993016380363802e-10 0.0000000000000000e+00  1.3648125193533619e-08 1.2254786235196341e-09 0.0000000000000000e+00  1.2777994014808594e-08 2.0453523349051935e-09 0.0000000000000000e+00  1.1454820391604998e-08 3.2085413389345007e-09 0.0000000000000000e+00  9.5893173787240934e-09 4.9060122281462662e-09 0.0000000000000000e+00  7.1064194532123946e-09 7.3813353895909513e-09 0.0000000000000000e+00  4.0369773160937354e-09 1.0843498848310071e-08 0.0000000000000000e+00  6.7381586868137284e-10 1.5100712466865295e-08 0.0000000000000000e+00  -2.6207468022544914e-09 1.8742860823959048e-08 0.0000000000000000e+00  -8.9380077749590719e-09 1.7540574101090660e-08 0.0000000000000000e+00  -5.5089113675651917e-09 -1.9620142070848336e-08 0.0000000000000000e+00  -1.8903749431439361e-09 -1.9687866042718870e-08 0.0000000000000000e+00  -9.2827168899831511e-10 -1.6726626407892052e-08 0.0000000000000000e+00  2.1329711346526145e-10 -1.2796991539194958e-08 0.0000000000000000e+00  1.8555949399751524e-09 -9.2411402713109526e-09 0.0000000000000000e+00  3.6291788751149931e-09 -6.4570960572443737e-09 0.0000000000000000e+00  5.2120658962877823e-09 -4.3852235288350622e-09 0.0000000000000000e+00  6.4608373090127608e-09 -2.8503180468400207e-09 0.0000000000000000e+00  7.3424021134791046e-09 -1.6806093755006826e-09 0.0000000000000000e+00  7.8664718073619842e-09 -7.3205339490193805e-10 0.0000000000000000e+00  8.0491934993043149e-09 1.1609302623627971e-10 0.0000000000000000e+00  7.8982502525232915e-09 9.7232037783229860e-10 0.0000000000000000e+00  7.4087879757079105e-09 1.9443912302252285e-09 0.0000000000000000e+00  6.5660778336387809e-09 3.1496628157368532e-09 0.0000000000000000e+00  5.3561670921191513e-09 4.7216831822907910e-09 0.0000000000000000e+00  3.7905690170717602e-09 6.8045094246150259e-09 0.0000000000000000e+00  1.9543478896071135e-09 9.5114076038412142e-09 0.0000000000000000e+00  7.4604385996495796e-11 1.2800216891369312e-08 0.0000000000000000e+00  -1.4842283048042975e-09 1.6219529595596790e-08 0.0000000000000000e+00  -2.7318359858005799e-09 1.8691268985170910e-08 0.0000000000000000e+00  -6.6492419120875331e-09 1.8527833384681967e-08 0.0000000000000000e+00  -4.4459534979644721e-09 -1.8462600034318026e-08 0.0000000000000000e+00  -2.0640092945219331e-09 -1.8753920590966048e-08 0.0000000000000000e+00  -2.0134508312387419e-09 -1.6752511543580450e-08 0.0000000000000000e+00  -1.9247621203422375e-09 -1.3766455166118080e-08 0.0000000000000000e+00  -1.3214768168446076e-09 -1.0648334984032153e-08 0.0000000000000000e+00  -3.7789197570731091e-10 -7.8873044012590756e-09 0.0000000000000000e+00  6.3834530707362211e-10 -5.6153258301520781e-09 0.0000000000000000e+00  1.5380876850967137e-09 -3.7888845095256527e-09 0.0000000000000000e+00  2.2218104507242036e-09 -2.3021237874636459e-09 0.0000000000000000e+00  2.6470397047808325e-09 -1.0368425520180116e-09 0.0000000000000000e+00  2.7993429808831245e-09 1.2184923846813391e-10 0.0000000000000000e+00  2.6758390605579280e-09 1.2840468727835947e-09 0.0000000000000000e+00  2.2794758562225150e-09 2.5579174099581439e-09 0.0000000000000000e+00  1.6221279489110738e-09 4.0515232341539796e-09 0.0000000000000000e+00  7.3666700606446998e-10 5.8681589186558024e-09 0.0000000000000000e+00  -3.0079989260752368e-10 8.0861794282545720e-09 0.0000000000000000e+00  -1.3416170556381072e-09 1.0708833248506319e-08 0.0000000000000000e+00  -2.1527256666544897e-09 1.3571185616097352e-08 0.0000000000000000e+00  -2.5152063412103603e-09 1.6229424872248306e-08 0.0000000000000000e+00  -2.7095910123618084e-09 1.7991556681639710e-08 0.0000000000000000e+00  -5.3071562109205643e-09 1.8285488230477286e-08 0.0000000000000000e+00  -3.7688505141870301e-09 -1.7007824054553858e-08 0.0000000000000000e+00  -2.1954353264655595e-09 -1.7453434204163174e-08 0.0000000000000000e+00  -2.6884758452403839e-09 -1.6033093032944627e-08 0.0000000000000000e+00  -3.2661234222327580e-09 -1.3760084615860066e-08 0.0000000000000000e+00  -3.4205817663439328e-09 -1.1159836931438253e-08 0.0000000000000000e+00  -3.1890424497858768e-09 -8.6345052933643426e-09 0.0000000000000000e+00  -2.7476978458443890e-09 -6.3788299635458559e-09 0.0000000000000000e+00  -2.2627229463421692e-09 -4.4344397573327979e-09 0.0000000000000000e+00  -1.8491586317644972e-09 -2.7594170201974107e-09 0.0000000000000000e+00  -1.5741625113043125e-09 -1.2744196012824254e-09 0.0000000000000000e+00  -1.4709261299154856e-09 1.1353411343196096e-10 0.0000000000000000e+00  -1.5497738286533531e-09 1.5004507280613164e-09 0.0000000000000000e+00  -1.8028018923183750e-09 2.9801324112879458e-09 0.0000000000000000e+00  -2.2017830989840679e-09 4.6384990683098738e-09 0.0000000000000000e+00  -2.6900126581170277e-09 6.5420659178268509e-09 0.0000000000000000e+00  -3.1705395982875988e-09 8.7146579914086217e-09 0.0000000000000000e+00  -3.4991755966155717e-09 1.1097712267173058e-08 0.0000000000000000e+00  -3.5062472407774274e-09 1.3499345843630522e-08 0.0000000000000000e+00  -3.1090768983678126e-09 1.5566524946707268e-08 0.0000000000000000e+00  -2.6942194454765269e-09 1.6873709168300149e-08 0.0000000000000000e+00  -4.4370440702098011e-09 1.7384585394609651e-08 0.0000000000000000e+00  -3.3014957046719125e-09 -1.5355784264263764e-08 0.0000000000000000e+00  -2.3033337228193067e-09 -1.5912542236698190e-08 0.0000000000000000e+00  -3.1562634516720371e-09 -1.4869449031682670e-08 0.0000000000000000e+00  -4.1687848835125170e-09 -1.3116342115415986e-08 0.0000000000000000e+00  -4.8556509329242693e-09 -1.0986221873788370e-08 0.0000000000000000e+00  -5.1768504225358568e-09 -8.7746186339957203e-09 0.0000000000000000e+00  -5.2305212968711788e-09 -6.6683536486022004e-09 0.0000000000000000e+00  -5.1384796799143352e-09 -4.7461944307671763e-09 0.0000000000000000e+00  -5.0019236819296766e-09 -3.0103752648264980e-09 0.0000000000000000e+00  -4.8900485201790281e-09 -1.4181035892394516e-09 0.0000000000000000e+00  -4.8419274587377897e-09 9.6037518411969912e-11 0.0000000000000000e+00  -4.8710424036451332e-09 1.6057938206444731e-09 0.0000000000000000e+00  -4.9678098475973679e-09 3.1831226395351041e-09 0.0000000000000000e+00  -5.0988483139760745e-09 4.8881379688173330e-09 0.0000000000000000e+00  -5.2038821455709850e-09 6.7554260130736236e-09 0.0000000000000000e+00  -5.1936623763530106e-09 8.7741356434643756e-09 0.0000000000000000e+00  -4.9566841333825813e-09 1.0862671093922929e-08 0.0000000000000000e+00  -4.3910435644763391e-09 1.2847242447279619e-08 0.0000000000000000e+00  -3.5004358854657185e-09 1.4468599171167475e-08 0.0000000000000000e+00  -2.6930403828126036e-09 1.5467425196237644e-08 0.0000000000000000e+00  -3.8308366273356753e-09 1.6098800804581277e-08 0.0000000000000000e+00  -2.9627562371339350e-09 -1.3560303892775690e-08 0.0000000000000000e+00  -2.3915824285396714e-09 -1.4199262874435055e-08 0.0000000000000000e+00  -3.4987565936918212e-09 -1.3416898764921774e-08 0.0000000000000000e+00  -4.8052830470347320e-09 -1.2050127436182946e-08 0.0000000000000000e+00  -5.8632425398290969e-09 -1.0318570201864468e-08 0.0000000000000000e+00  -6.5939558217863840e-09 -8.4320646212390233e-09 0.0000000000000000e+00  -7.0402079219807124e-09 -6.5455212999223517e-09 0.0000000000000000e+00  -7.2804295595421803e-09 -4.7445461234134355e-09 0.0000000000000000e+00  -7.3909618652066626e-09 -3.0552600997796479e-09 0.0000000000000000e+00  -7.4303236829927894e-09 -1.4622744132815954e-09 0.0000000000000000e+00  -7.4344994815650502e-09 7.4187400527357215e-11 0.0000000000000000e+00  -7.4167131104945387e-09 1.6043927096346785e-09 0.0000000000000000e+00  -7.3680968554410672e-09 3.1774917288621738e-09 0.0000000000000000e+00  -7.2580137846440543e-09 4.8302045277147384e-09 0.0000000000000000e+00  -7.0347485459438056e-09 6.5740346733615377e-09 0.0000000000000000e+00  -6.6292702859722984e-09 8.3806040408666450e-09 0.0000000000000000e+00  -5.9672910344501691e-09 1.0167710845609891e-08 0.0000000000000000e+00  -4.9995034355993776e-09 1.1793730178981850e-08 0.0000000000000000e+00  -3.7774645365400498e-09 1.3074623941399613e-08 0.0000000000000000e+00  -2.6985337431344366e-09 1.3853786932628190e-08 0.0000000000000000e+00  -3.3873446096090013e-09 1.4561646411108097e-08 0.0000000000000000e+00  -2.7111015713349525e-09 -1.1657484366232183e-08 0.0000000000000000e+00  -2.4624716558315553e-09 -1.2358119411362415e-08 0.0000000000000000e+00  -3.7550369217633450e-09 -1.1766676515891580e-08 0.0000000000000000e+00  -5.2652313222209321e-09 -1.0697439517432859e-08 0.0000000000000000e+00  -6.5816270832100807e-09 -9.3015437851029583e-09 0.0000000000000000e+00  -7.6079232836105045e-09 -7.7265877850862955e-09 0.0000000000000000e+00  -8.3505905089091140e-09 -6.0928756886948221e-09 0.0000000000000000e+00  -8.8530173260491951e-09 -4.4782482516641387e-09 0.0000000000000000e+00  -9.1660001117664052e-09 -2.9182036742107953e-09 0.0000000000000000e+00  -9.3327231906567843e-09 -1.4148013612976735e-09 0.0000000000000000e+00  -9.3816474889825029e-09 5.1687107377414520e-11 0.0000000000000000e+00  -9.3237921411005412e-09 1.5112655109931783e-09 0.0000000000000000e+00  -9.1522510032374199e-09 2.9934387245277638e-09 0.0000000000000000e+00  -8.8430864631760678e-09 4.5167518947618907e-09 0.0000000000000000e+00  -8.3580237495912102e-09 6.0782782559535564e-09 0.0000000000000000e+00  -7.6505795045230485e-09 7.6437064242448552e-09 0.0000000000000000e+00  -6.6785595688600571e-09 9.1405859042456345e-09 0.0000000000000000e+00  -5.4290634551709456e-09 1.0459721463117263e-08 0.0000000000000000e+00  -3.9785907180751436e-09 1.1472698628427777e-08 0.0000000000000000e+00  -2.7045264477373389e-09 1.2087424261834832e-08 0.0000000000000000e+00  -3.0524406793837306e-09 1.2847660199718062e-08 0.0000000000000000e+00  -2.5234277330149690e-09 -9.6746747049050118e-09 0.0000000000000000e+00  -2.5184640261605849e-09 -1.0421838066100716e-08 0.0000000000000000e+00  -3.9473383946045706e-09 -9.9780746091111404e-09 0.0000000000000000e+00  -5.5999626400809549e-09 -9.1478402393292822e-09 0.0000000000000000e+00  -7.0956980868607439e-09 -8.0396022739031318e-09 0.0000000000000000e+00  -8.3311907172126656e-09 -6.7569278405915243e-09 0.0000000000000000e+00  -9.2899388782788802e-09 -5.3898542344721751e-09 0.0000000000000000e+00  -9.9894418712327390e-09 -4.0030702382878070e-09 0.0000000000000000e+00  -1.0458692742721410e-08 -2.6326950335635708e-09 0.0000000000000000e+00  -1.0725670607113463e-08 -1.2900553117766607e-09 0.0000000000000000e+00  -1.0810191387224722e-08 3.0942154604800997e-11 0.0000000000000000e+00  -1.0720361966912042e-08 1.3451616811103855e-09 0.0000000000000000e+00  -1.0451579383335786e-08 2.6674139159144591e-09 0.0000000000000000e+00  -9.9876063943219693e-09 4.0038685108290979e-09 0.0000000000000000e+00  -9.3039021272370346e-09 5.3440973257567790e-09 0.0000000000000000e+00  -8.3739785319090042e-09 6.6547230656995126e-09 0.0000000000000000e+00  -7.1802675457356123e-09 7.8766256358852636e-09 0.0000000000000000e+00  -5.7338733936831629e-09 8.9286482807080591e-09 0.0000000000000000e+00  -4.1238621261044852e-09 9.7225147247847726e-09 0.0000000000000000e+00  -2.7075997477310526e-09 1.0207641993280935e-08 0.0000000000000000e+00  -2.7950424400181128e-09 1.1004588284467741e-08 0.0000000000000000e+00  -2.3861377052068996e-09 -7.6337107844640835e-09 0.0000000000000000e+00  -2.5622422227856006e-09 -8.4159033707330625e-09 0.0000000000000000e+00  -4.0903262604912024e-09 -8.0924364224099233e-09 0.0000000000000000e+00  -5.8418913316339480e-09 -7.4627318663642052e-09 0.0000000000000000e+00  -7.4605535261939460e-09 -6.6077082577433543e-09 0.0000000000000000e+00  -8.8409008143560001e-09 -5.5996428494189437e-09 0.0000000000000000e+00  -9.9521990987357067e-09 -4.5038795970578938e-09 0.0000000000000000e+00  -1.0793817013710019e-08 -3.3709282939979865e-09 0.0000000000000000e+00  -1.1377905283060804e-08 -2.2327737688159273e-09 0.0000000000000000e+00  -1.1719594231159531e-08 -1.1040962440474526e-09 0.0000000000000000e+00  -1.1830807765882282e-08 1.3301770803383508e-11 0.0000000000000000e+00  -1.1716811463055870e-08 1.1244434006949001e-09 0.0000000000000000e+00  -1.1375100854099799e-08 2.2345705822377065e-09 0.0000000000000000e+00  -1.0796433574866869e-08 3.3426842315545473e-09 0.0000000000000000e+00  -9.9680299232147758e-09 4.4358915321179940e-09 0.0000000000000000e+00  -8.8791837834041400e-09 5.4854862177969392e-09 0.0000000000000000e+00  -7.5300256800271221e-09 6.4460905267433028e-09 0.0000000000000000e+00  -5.9471275475395045e-09 7.2595174568573531e-09 0.0000000000000000e+00  -4.2257640028815351e-09 7.8665436358190781e-09 0.0000000000000000e+00  -2.7064206953382463e-09 8.2440773182237425e-09 0.0000000000000000e+00  -2.5964871650970817e-09 9.0662816793422134e-09 0.0000000000000000e+00  -2.2909790323107943e-09 -5.5524008294031922e-09 0.0000000000000000e+00  -2.5964832007878762e-09 -6.3606870865593964e-09 0.0000000000000000e+00  -4.1945865523987008e-09 -6.1399870901709791e-09 0.0000000000000000e+00  -6.0130010087710387e-09 -5.6856753540729980e-09 0.0000000000000000e+00  -7.7135051952243735e-09 -5.0600763525706621e-09 0.0000000000000000e+00  -9.1908174309915714e-09 -4.3126697765428876e-09 0.0000000000000000e+00  -1.0405593978869164e-08 -3.4889261214391093e-09 0.0000000000000000e+00  -1.1345074675721738e-08 -2.6258296145183322e-09 0.0000000000000000e+00  -1.2009326128155732e-08 -1.7488459603973784e-09 0.0000000000000000e+00  -1.2403692302924943e-08 -8.7203925911176574e-10 0.0000000000000000e+00  -1.2533781460686875e-08 -5.9730204830450730e-13 0.0000000000000000e+00  -1.2402474594569275e-08 8.6521120023448949e-10 0.0000000000000000e+00  -1.2008900570444046e-08 1.7254819688645594e-09 0.0000000000000000e+00  -1.1349338337792638e-08 2.5761958386450508e-09 0.0000000000000000e+00  -1.0419992525435424e-08 3.4054500805412441e-09 0.0000000000000000e+00  -9.2216191821866812e-09 4.1911247468631956e-09 0.0000000000000000e+00  -7.7664344793131321e-09 4.9008261452139573e-09 0.0000000000000000e+00  -6.0908036636836353e-09 5.4950447714117653e-09 0.0000000000000000e+00  -4.2930831909711144e-09 5.9360826614955449e-09 0.0000000000000000e+00  -2.7009240912819679e-09 6.2197350436235570e-09 0.0000000000000000e+00  -2.4452937423403368e-09 7.0582462060734456e-09 0.0000000000000000e+00  -2.2329282397315903e-09 -3.4454994306941612e-09 0.0000000000000000e+00  -2.6236144814358473e-09 -4.2727371221313118e-09 0.0000000000000000e+00  -4.2679502491621393e-09 -4.1436368143497272e-09 0.0000000000000000e+00  -6.1286061493633861e-09 -3.8485956889108535e-09 0.0000000000000000e+00  -7.8801250441862548e-09 -3.4366004223345764e-09 0.0000000000000000e+00  -9.4181773450503330e-09 -2.9397568458237868e-09 0.0000000000000000e+00  -1.0698485769307819e-08 -2.38722353821038