<?xml version="1.0"?>
<VTKFile type="UnstructuredGrid"  version="0.1"  >
<UnstructuredGrid>
<Piece  NumberOfPoints="651" NumberOfCells="1200">
<Points>
<DataArray  type="Float64"  NumberOfComponents="3"  format="ascii">0 0 0  50000 0 0  100000 0 0  150000 0 0  200000 0 0  250000 0 0  300000 0 0  350000 0 0  400000 0 0  450000 0 0  500000 0 0  550000 0 0  600000 0 0  650000 0 0  700000 0 0  750000 0 0  800000 0 0  850000 0 0  900000 0 0  950000 0 0  1000000 0 0  0 50000 0  50000 50000 0  100000 50000 0  150000 50000 0  200000 50000 0  250000 50000 0  300000 50000 0  350000 50000 0  400000 50000 0  450000 50000 0  500000 50000 0  550000 50000 0  600000 50000 0  650000 50000 0  700000 50000 0  750000 50000 0  800000 50000 0  850000 50000 0  900000 50000 0  950000 50000 0  1000000 50000 0  0 100000 0  50000 100000 0  100000 100000 0  150000 100000 0  200000 100000 0  250000 100000 0  300000 100000 0  350000 100000 0  400000 100000 0  450000 100000 0  500000 100000 0  550000 100000 0  600000 100000 0  650000 100000 0  700000 100000 0  750000 100000 0  800000 100000 0  850000 100000 0  900000 100000 0  950000 100000 0  1000000 100000 0  0 150000 0  50000 150000 0  100000 150000 0  150000 150000 0  200000 150000 0  250000 150000 0  300000 150000 0  350000 150000 0  400000 150000 0  450000 150000 0  500000 150000 0  550000 150000 0  600000 150000 0  650000 150000 0  700000 150000 0  750000 150000 0  800000 150000 0  850000 150000 0  900000 150000 0  950000 150000 0  1000000 150000 0  0 200000 0  50000 200000 0  100000 200000 0  150000 200000 0  200000 200000 0  250000 200000 0  300000 200000 0  350000 200000 0  400000 200000 0  450000 200000 0  500000 200000 0  550000 200000 0  600000 200000 0  650000 200000 0  700000 200000 0  750000 200000 0  800000 200000 0  850000 200000 0  900000 200000 0  950000 200000 0  1000000 200000 0  0 250000 0  50000 250000 0  100000 250000 0  150000 250000 0  200000 250000 0  250000 250000 0  300000 250000 0  350000 250000 0  400000 250000 0  450000 250000 0  500000 250000 0  550000 250000 0  600000 250000 0  650000 250000 0  700000 250000 0  750000 250000 0  800000 250000 0  850000 250000 0  900000 250000 0  950000 250000 0  1000000 250000 0  0 300000 0  50000 300000 0  100000 300000 0  150000 300000 0  200000 300000 0  250000 300000 0  300000 300000 0  350000 300000 0  400000 300000 0  450000 300000 0  500000 300000 0  550000 300000 0  600000 300000 0  650000 300000 0  700000 300000 0  750000 300000 0  800000 300000 0  850000 300000 0  900000 300000 0  950000 300000 0  1000000 300000 0  0 350000 0  50000 350000 0  100000 350000 0  150000 350000 0  200000 350000 0  250000 350000 0  300000 350000 0  350000 350000 0  400000 350000 0  450000 350000 0  500000 350000 0  550000 350000 0  600000 350000 0  650000 350000 0  700000 350000 0  750000 350000 0  800000 350000 0  850000 350000 0  900000 350000 0  950000 350000 0  1000000 350000 0  0 400000 0  50000 400000 0  100000 400000 0  150000 400000 0  200000 400000 0  250000 400000 0  300000 400000 0  350000 400000 0  400000 400000 0  450000 400000 0  500000 400000 0  550000 400000 0  600000 400000 0  650000 400000 0  700000 400000 0  750000 400000 0  800000 400000 0  850000 400000 0  900000 400000 0  950000 400000 0  1000000 400000 0  0 450000 0  50000 450000 0  100000 450000 0  150000 450000 0  200000 450000 0  250000 450000 0  300000 450000 0  350000 450000 0  400000 450000 0  450000 450000 0  500000 450000 0  550000 450000 0  600000 450000 0  650000 450000 0  700000 450000 0  750000 450000 0  800000 450000 0  850000 450000 0  900000 450000 0  950000 450000 0  1000000 450000 0  0 500000 0  50000 500000 0  100000 500000 0  150000 500000 0  200000 500000 0  250000 500000 0  300000 500000 0  350000 500000 0  400000 500000 0  450000 500000 0  500000 500000 0  550000 500000 0  600000 500000 0  650000 500000 0  700000 500000 0  750000 500000 0  800000 500000 0  850000 500000 0  900000 500000 0  950000 500000 0  1000000 500000 0  0 550000 0  50000 550000 0  100000 550000 0  150000 550000 0  200000 550000 0  250000 550000 0  300000 550000 0  350000 550000 0  400000 550000 0  450000 550000 0  500000 550000 0  550000 550000 0  600000 550000 0  650000 550000 0  700000 550000 0  750000 550000 0  800000 550000 0  850000 550000 0  900000 550000 0  950000 550000 0  1000000 550000 0  0 600000 0  50000 600000 0  100000 600000 0  150000 600000 0  200000 600000 0  250000 600000 0  300000 600000 0  350000 600000 0  400000 600000 0  450000 600000 0  500000 600000 0  550000 600000 0  600000 600000 0  650000 600000 0  700000 600000 0  750000 600000 0  800000 600000 0  850000 600000 0  900000 600000 0  950000 600000 0  1000000 600000 0  0 650000 0  50000 650000 0  100000 650000 0  150000 650000 0  200000 650000 0  250000 650000 0  300000 650000 0  350000 650000 0  400000 650000 0  450000 650000 0  500000 650000 0  550000 650000 0  600000 650000 0  650000 650000 0  700000 650000 0  750000 650000 0  800000 650000 0  850000 650000 0  900000 650000 0  950000 650000 0  1000000 650000 0  0 700000 0  50000 700000 0  100000 700000 0  150000 700000 0  200000 700000 0  250000 700000 0  300000 700000 0  350000 700000 0  400000 700000 0  450000 700000 0  500000 700000 0  550000 700000 0  600000 700000 0  650000 700000 0  700000 700000 0  750000 700000 0  800000 700000 0  850000 700000 0  900000 700000 0  950000 700000 0  1000000 700000 0  0 750000 0  50000 750000 0  100000 750000 0  150000 750000 0  200000 750000 0  250000 750000 0  300000 750000 0  350000 750000 0  400000 750000 0  450000 750000 0  500000 750000 0  550000 750000 0  600000 750000 0  650000 750000 0  700000 750000 0  750000 750000 0  800000 750000 0  850000 750000 0  900000 750000 0  950000 750000 0  1000000 750000 0  0 800000 0  50000 800000 0  100000 800000 0  150000 800000 0  200000 800000 0  250000 800000 0  300000 800000 0  350000 800000 0  400000 800000 0  450000 800000 0  500000 800000 0  550000 800000 0  600000 800000 0  650000 800000 0  700000 800000 0  750000 800000 0  800000 800000 0  850000 800000 0  900000 800000 0  950000 800000 0  1000000 800000 0  0 850000 0  50000 850000 0  100000 850000 0  150000 850000 0  200000 850000 0  250000 850000 0  300000 850000 0  350000 850000 0  400000 850000 0  450000 850000 0  500000 850000 0  550000 850000 0  600000 850000 0  650000 850000 0  700000 850000 0  750000 850000 0  800000 850000 0  850000 850000 0  900000 850000 0  950000 850000 0  1000000 850000 0  0 900000 0  50000 900000 0  100000 900000 0  150000 900000 0  200000 900000 0  250000 900000 0  300000 900000 0  350000 900000 0  400000 900000 0  450000 900000 0  500000 900000 0  550000 900000 0  600000 900000 0  650000 900000 0  700000 900000 0  750000 900000 0  800000 900000 0  850000 900000 0  900000 900000 0  950000 900000 0  1000000 900000 0  0 950000 0  50000 950000 0  100000 950000 0  150000 950000 0  200000 950000 0  250000 950000 0  300000 950000 0  350000 950000 0  400000 950000 0  450000 950000 0  500000 950000 0  550000 950000 0  600000 950000 0  650000 950000 0  700000 950000 0  750000 950000 0  800000 950000 0  850000 950000 0  900000 950000 0  950000 950000 0  1000000 950000 0  0 1000000 0  50000 1000000 0  100000 1000000 0  150000 1000000 0  200000 1000000 0  250000 1000000 0  300000 1000000 0  350000 1000000 0  400000 1000000 0  450000 1000000 0  500000 1000000 0  550000 1000000 0  600000 1000000 0  650000 1000000 0  700000 1000000 0  750000 1000000 0  800000 1000000 0  850000 1000000 0  900000 1000000 0  950000 1000000 0  1000000 1000000 0  0 1050000 0  50000 1050000 0  100000 1050000 0  150000 1050000 0  200000 1050000 0  250000 1050000 0  300000 1050000 0  350000 1050000 0  400000 1050000 0  450000 1050000 0  500000 1050000 0  550000 1050000 0  600000 1050000 0  650000 1050000 0  700000 1050000 0  750000 1050000 0  800000 1050000 0  850000 1050000 0  900000 1050000 0  950000 1050000 0  1000000 1050000 0  0 1100000 0  50000 1100000 0  100000 1100000 0  150000 1100000 0  200000 1100000 0  250000 1100000 0  300000 1100000 0  350000 1100000 0  400000 1100000 0  450000 1100000 0  500000 1100000 0  550000 1100000 0  600000 1100000 0  650000 1100000 0  700000 1100000 0  750000 1100000 0  800000 1100000 0  850000 1100000 0  900000 1100000 0  950000 1100000 0  1000000 1100000 0  0 1150000 0  50000 1150000 0  100000 1150000 0  150000 1150000 0  200000 1150000 0  250000 1150000 0  300000 1150000 0  350000 1150000 0  400000 1150000 0  450000 1150000 0  500000 1150000 0  550000 1150000 0  600000 1150000 0  650000 1150000 0  700000 1150000 0  750000 1150000 0  800000 1150000 0  850000 1150000 0  900000 1150000 0  950000 1150000 0  1000000 1150000 0  0 1200000 0  50000 1200000 0  100000 1200000 0  150000 1200000 0  200000 1200000 0  250000 1200000 0  300000 1200000 0  350000 1200000 0  400000 1200000 0  450000 1200000 0  500000 1200000 0  550000 1200000 0  600000 1200000 0  650000 1200000 0  700000 1200000 0  750000 1200000 0  800000 1200000 0  850000 1200000 0  900000 1200000 0  950000 1200000 0  1000000 1200000 0  0 1250000 0  50000 1250000 0  100000 1250000 0  150000 1250000 0  200000 1250000 0  250000 1250000 0  300000 1250000 0  350000 1250000 0  400000 1250000 0  450000 1250000 0  500000 1250000 0  550000 1250000 0  600000 1250000 0  650000 1250000 0  700000 1250000 0  750000 1250000 0  800000 1250000 0  850000 1250000 0  900000 1250000 0  950000 1250000 0  1000000 1250000 0  0 1300000 0  50000 1300000 0  100000 1300000 0  150000 1300000 0  200000 1300000 0  250000 1300000 0  300000 1300000 0  350000 1300000 0  400000 1300000 0  450000 1300000 0  500000 1300000 0  550000 1300000 0  600000 1300000 0  650000 1300000 0  700000 1300000 0  750000 1300000 0  800000 1300000 0  850000 1300000 0  900000 1300000 0  950000 1300000 0  1000000 1300000 0  0 1350000 0  50000 1350000 0  100000 1350000 0  150000 1350000 0  200000 1350000 0  250000 1350000 0  300000 1350000 0  350000 1350000 0  400000 1350000 0  450000 1350000 0  500000 1350000 0  550000 1350000 0  600000 1350000 0  650000 1350000 0  700000 135
[...]
<PointData  Vectors="f_19"> 
<DataArray  type="Float64"  Name="f_19"  NumberOfComponents="3" format="ascii">-2.5256089207399961e-08 -1.0583414022723278e-08 0.0000000000000000e+00  4.7164952910834292e-08 -6.3513959306566541e-09 0.0000000000000000e+00  4.0857457293740038e-08 -1.7780719490016400e-09 0.0000000000000000e+00  3.8081363188787843e-08 -4.3259454708882469e-10 0.0000000000000000e+00  3.6692160900753696e-08 -4.1624572074606324e-11 0.0000000000000000e+00  3.5780909705467625e-08 6.7926677834957215e-11 0.0000000000000000e+00  3.5134998085772908e-08 7.4632534495318408e-11 0.0000000000000000e+00  3.4692466447824658e-08 3.6708042377750414e-11 0.0000000000000000e+00  3.4433941868353859e-08 -2.3897131575060567e-11 0.0000000000000000e+00  3.4355280640176896e-08 -9.7885484059555467e-11 0.0000000000000000e+00  3.4459212049031223e-08 -1.8082458858290925e-10 0.0000000000000000e+00  3.4753401459453235e-08 -2.7002485534778523e-10 0.0000000000000000e+00  3.5252035432861012e-08 -3.6249822649290957e-10 0.0000000000000000e+00  3.5981863537329164e-08 -4.5189078470286257e-10 0.0000000000000000e+00  3.6998102401261779e-08 -5.2084477951651792e-10 0.0000000000000000e+00  3.8426648024564052e-08 -5.1905634795848179e-10 0.0000000000000000e+00  4.0577804844493673e-08 -2.9940338348075790e-10 0.0000000000000000e+00  4.4221953508361334e-08 5.5336787918407058e-10 0.0000000000000000e+00  5.0740178199022461e-08 3.0758846471044168e-09 0.0000000000000000e+00  5.8705674769696879e-08 7.9465192507923809e-09 0.0000000000000000e+00  -1.5176736049244688e-08 5.5565244242115669e-09 0.0000000000000000e+00  -1.8538171435664787e-08 -1.6900556781589343e-08 0.0000000000000000e+00  7.5096925527758291e-09 -1.1144112757341386e-08 0.0000000000000000e+00  1.8265197788665507e-08 -4.8416007084601590e-09 0.0000000000000000e+00  2.2784450546417320e-08 -2.0269083212104626e-09 0.0000000000000000e+00  2.4943498396166409e-08 -8.5735016965190728e-10 0.0000000000000000e+00  2.6084879291137922e-08 -3.4848798603032554e-10 0.0000000000000000e+00  2.6697253537258564e-08 -1.2543788685435276e-10 0.0000000000000000e+00  2.7027616779922870e-08 -4.1170846950152819e-11 0.0000000000000000e+00  2.7210393150128774e-08 -2.9969673940312838e-11 0.0000000000000000e+00  2.7319520259682125e-08 -5.7188200150558995e-11 0.0000000000000000e+00  2.7392848837643720e-08 -1.0056005607619817e-10 0.0000000000000000e+00  2.7442775699327492e-08 -1.4156459838724880e-10 0.0000000000000000e+00  2.7459244391230515e-08 -1.5943724046865107e-10 0.0000000000000000e+00  2.7406864849815816e-08 -1.2374603296999479e-10 0.0000000000000000e+00  2.7214798187100516e-08 1.9447381307304834e-11 0.0000000000000000e+00  2.6753211112852078e-08 3.7781942648864564e-10 0.0000000000000000e+00  2.5775730819956959e-08 1.1803430733881431e-09 0.0000000000000000e+00  2.3751842517330374e-08 2.9124156829129802e-09 0.0000000000000000e+00  1.9288666935300799e-08 6.4547471034450660e-09 0.0000000000000000e+00  8.5390459746576719e-09 1.2539174935723072e-08 0.0000000000000000e+00  -1.7358637956419778e-08 1.0014639434692456e-08 0.0000000000000000e+00  -1.1057647419635721e-08 -2.1187606794780588e-08 0.0000000000000000e+00  1.1704216967960042e-10 -1.8221104394356876e-08 0.0000000000000000e+00  6.4953617995436791e-09 -1.0595525062520873e-08 0.0000000000000000e+00  1.1226080080472828e-08 -5.8246031823774854e-09 0.0000000000000000e+00  1.4721150991813412e-08 -3.1893047173665374e-09 0.0000000000000000e+00  1.7044865950581178e-08 -1.7606703571981623e-09 0.0000000000000000e+00  1.8542364447115650e-08 -9.7383317043470615e-10 0.0000000000000000e+00  1.9489724412363209e-08 -5.3593833874734452e-10 0.0000000000000000e+00  2.0065625136293827e-08 -2.9109479488756959e-10 0.0000000000000000e+00  2.0377042846076668e-08 -1.4828223962531870e-10 0.0000000000000000e+00  2.0479820018070655e-08 -4.5742045569686312e-11 0.0000000000000000e+00  2.0390075206338937e-08 6.8323812452273168e-11 0.0000000000000000e+00  2.0087774165914139e-08 2.4952945121359007e-10 0.0000000000000000e+00  1.9513496588555722e-08 5.7214919142657476e-10 0.0000000000000000e+00  1.8558157642424876e-08 1.1511171162202073e-09 0.0000000000000000e+00  1.7044629393971652e-08 2.1782115206002662e-09 0.0000000000000000e+00  1.4701989809352857e-08 3.9752057911234192e-09 0.0000000000000000e+00  1.1144552856393887e-08 7.0283844057882181e-09 0.0000000000000000e+00  5.9101299581175797e-09 1.1790157539818555e-08 0.0000000000000000e+00  -1.1475000203216962e-09 1.7613061640597747e-08 0.0000000000000000e+00  -1.1764742808465137e-08 1.4339266207057110e-08 0.0000000000000000e+00  -7.1642123215114492e-09 -2.2081698455091696e-08 0.0000000000000000e+00  -1.2882401419003961e-09 -2.0035640638627180e-08 0.0000000000000000e+00  1.7035088870937475e-09 -1.4551400928929139e-08 0.0000000000000000e+00  4.5824173117039521e-09 -9.4949145507045263e-09 0.0000000000000000e+00  7.3850978571584229e-09 -5.9834848315906691e-09 0.0000000000000000e+00  9.7203213286101973e-09 -3.7207437499384032e-09 0.0000000000000000e+00  1.1461080077678442e-08 -2.2876858571233534e-09 0.0000000000000000e+00  1.2669281380636780e-08 -1.3719950417276232e-09 0.0000000000000000e+00  1.3445221903651060e-08 -7.6752331474806698e-10 0.0000000000000000e+00  1.3868843667824935e-08 -3.3580111594033982e-10 0.0000000000000000e+00  1.3987604252530426e-08 2.5271855637503395e-11 0.0000000000000000e+00  1.3816087866608369e-08 4.0347696509696610e-10 0.0000000000000000e+00  1.3336989339863849e-08 8.8956432761388795e-10 0.0000000000000000e+00  1.2501524039572434e-08 1.5940114097713353e-09 0.0000000000000000e+00  1.1231129668423139e-08 2.6657849810299707e-09 0.0000000000000000e+00  9.4272548384942932e-09 4.3106203963248095e-09 0.0000000000000000e+00  7.0060613861434291e-09 6.7893316059746944e-09 0.0000000000000000e+00  3.9898355504432962e-09 1.0327074133504275e-08 0.0000000000000000e+00  6.6885303975019747e-10 1.4761949863429835e-08 0.0000000000000000e+00  -2.3948825394288078e-09 1.8833355665006428e-08 0.0000000000000000e+00  -7.2949467823584103e-09 1.7661776729317927e-08 0.0000000000000000e+00  -5.2452422588579838e-09 -2.1569781019153748e-08 0.0000000000000000e+00  -1.7115537387549882e-09 -2.0106812130517264e-08 0.0000000000000000e+00  -4.9095857253245891e-10 -1.6165762441031763e-08 0.0000000000000000e+00  8.3664012377926563e-10 -1.1882028729979033e-08 0.0000000000000000e+00  2.5318134157593772e-09 -8.2766023453284016e-09 0.0000000000000000e+00  4.2559486487544889e-09 -5.5886424858326434e-09 0.0000000000000000e+00  5.7362307657473748e-09 -3.6747945205197421e-09 0.0000000000000000e+00  6.8663720819991846e-09 -2.3203016007405252e-09 0.0000000000000000e+00  7.6360966824532616e-09 -1.3358713275490564e-09 0.0000000000000000e+00  8.0671363423786672e-09 -5.6994235622508028e-10 0.0000000000000000e+00  8.1806045443127820e-09 1.0183557885924233e-10 0.0000000000000000e+00  7.9846684543942905e-09 7.9086785307087237e-10 0.0000000000000000e+00  7.4719495044302167e-09 1.6090977563899165e-09 0.0000000000000000e+00  6.6230842274714229e-09 2.6807284850042967e-09 0.0000000000000000e+00  5.4181611548511366e-09 4.1497596698537296e-09 0.0000000000000000e+00  3.8622927925171662e-09 6.1745110544665349e-09 0.0000000000000000e+00  2.0343780690678717e-09 8.8858374915295436e-09 0.0000000000000000e+00  1.5668853299303406e-10 1.2263509192656564e-08 0.0000000000000000e+00  -1.3920910609034786e-09 1.5889987844654394e-08 0.0000000000000000e+00  -2.4380739963616139e-09 1.8772804144451787e-08 0.0000000000000000e+00  -5.1462426891011855e-09 1.8952895346186016e-08 0.0000000000000000e+00  -4.1862095973038230e-09 -2.0423530732695140e-08 0.0000000000000000e+00  -1.9542890187976285e-09 -1.9395841538948558e-08 0.0000000000000000e+00  -1.7056625464180555e-09 -1.6426727886825851e-08 0.0000000000000000e+00  -1.4182865606167025e-09 -1.2976038487883967e-08 0.0000000000000000e+00  -6.8985899532204520e-10 -9.7028477798273466e-09 0.0000000000000000e+00  2.9596762944254991e-10 -6.9669870535373052e-09 0.0000000000000000e+00  1.2931195399474337e-09 -4.8172395727533064e-09 0.0000000000000000e+00  2.1382881765583424e-09 -3.1609278761583038e-09 0.0000000000000000e+00  2.7527294577963159e-09 -1.8649390613387694e-09 0.0000000000000000e+00  3.1077646462065103e-09 -7.9622577446874630e-10 0.0000000000000000e+00  3.1967332086345043e-09 1.6877737678619836e-10 0.0000000000000000e+00  3.0200112828692316e-09 1.1465177536544440e-09 0.0000000000000000e+00  2.5806252680408821e-09 2.2516266816256027e-09 0.0000000000000000e+00  1.8884425405755906e-09 3.6003540324611000e-09 0.0000000000000000e+00  9.7321378695576868e-10 5.3069333843262263e-09 0.0000000000000000e+00  -9.2276210152773176e-11 7.4639573269384067e-09 0.0000000000000000e+00  -1.1619791438056775e-09 1.0092599340900509e-08 0.0000000000000000e+00  -2.0022167106022629e-09 1.3050570620885440e-08 0.0000000000000000e+00  -2.3745025503952252e-09 1.5924558189191856e-08 0.0000000000000000e+00  -2.4180753633499599e-09 1.8084211513217828e-08 0.0000000000000000e+00  -4.0326031008090179e-09 1.8892568450062080e-08 0.0000000000000000e+00  -3.5283438955319991e-09 -1.8918604500659541e-08 0.0000000000000000e+00  -2.1437247979322565e-09 -1.8237949592775942e-08 0.0000000000000000e+00  -2.4951160142305199e-09 -1.5913390748591956e-08 0.0000000000000000e+00  -2.8926932723837986e-09 -1.3134326896901163e-08 0.0000000000000000e+00  -2.8966690505645121e-09 -1.0306815019914062e-08 0.0000000000000000e+00  -2.5704789053313065e-09 -7.7410042352486600e-09 0.0000000000000000e+00  -2.0887031411470360e-09 -5.5610657643950019e-09 0.0000000000000000e+00  -1.6047705894127071e-09 -3.7596256622777550e-09 0.0000000000000000e+00  -1.2193713993439324e-09 -2.2631017307780653e-09 0.0000000000000000e+00  -9.8785349331959790e-10 -9.7222405510041306e-10 0.0000000000000000e+00  -9.3525750676801200e-10 2.1897386690361574e-10 0.0000000000000000e+00  -1.0671384127544842e-09 1.4160842801260166e-09 0.0000000000000000e+00  -1.3734425728879529e-09 2.7215809668821524e-09 0.0000000000000000e+00  -1.8255300509285020e-09 4.2308568870471298e-09 0.0000000000000000e+00  -2.3671233422884510e-09 6.0218615105520153e-09 0.0000000000000000e+00  -2.9016431355704539e-09 8.1325927895452824e-09 0.0000000000000000e+00  -3.2841759830054950e-09 1.0522027749259795e-08 0.0000000000000000e+00  -3.3408522334012020e-09 1.3020038764575369e-08 0.0000000000000000e+00  -2.9695897327824409e-09 1.5302069491999020e-08 0.0000000000000000e+00  -2.4473087999033782e-09 1.6991266241011825e-08 0.0000000000000000e+00  -3.3826262040404762e-09 1.8088152857018164e-08 0.0000000000000000e+00  -3.0819645705052170e-09 -1.7171290656792575e-08 0.0000000000000000e+00  -2.2996545008690188e-09 -1.6777783683245869e-08 0.0000000000000000e+00  -3.0602884326430114e-09 -1.4912465152547657e-08 0.0000000000000000e+00  -3.9232321889338365e-09 -1.2655025749389654e-08 0.0000000000000000e+00  -4.4603940233798867e-09 -1.0258594798163374e-08 0.0000000000000000e+00  -4.6634182166339737e-09 -7.9567540486551961e-09 0.0000000000000000e+00  -4.6403972303383459e-09 -5.8813735813756164e-09 0.0000000000000000e+00  -4.5109737810101613e-09 -4.0679679506727387e-09 0.0000000000000000e+00  -4.3690907852279540e-09 -2.4872748763108639e-09 0.0000000000000000e+00  -4.2758903784633208e-09 -1.0744278492632223e-09 0.0000000000000000e+00  -4.2636137801937859e-09 2.5163522372907359e-10 0.0000000000000000e+00  -4.3407210371464531e-09 1.5765940864611950e-09 0.0000000000000000e+00  -4.4942497265894037e-09 2.9827978017103537e-09 0.0000000000000000e+00  -4.6885565769937207e-09 4.5408408159574196e-09 0.0000000000000000e+00  -4.8615349560108012e-09 6.2970656015952206e-09 0.0000000000000000e+00  -4.9217639976892894e-09 8.2545187634909069e-09 0.0000000000000000e+00  -4.7542846040358023e-09 1.0348348878695551e-08 0.0000000000000000e+00  -4.2505205149158892e-09 1.2425185514381810e-08 0.0000000000000000e+00  -3.3949276047617202e-09 1.4251924531763201e-08 0.0000000000000000e+00  -2.5063609595993408e-09 1.5605581941562168e-08 0.0000000000000000e+00  -2.9615639680191874e-09 1.6830264568257266e-08 0.0000000000000000e+00  -2.7607620002050251e-09 -1.5246191142088891e-08 0.0000000000000000e+00  -2.4268188029037263e-09 -1.5095191534494878e-08 0.0000000000000000e+00  -3.4840476609205541e-09 -1.3579647503426465e-08 0.0000000000000000e+00  -4.6744347314450433e-09 -1.1735021910889683e-08 0.0000000000000000e+00  -5.5968052255534839e-09 -9.7238313533512775e-09 0.0000000000000000e+00  -6.2044139076489740e-09 -7.7146446962041633e-09 0.0000000000000000e+00  -6.5558546259152312e-09 -5.8216739913980498e-09 0.0000000000000000e+00  -6.7345784683644213e-09 -4.0949768374604429e-09 0.0000000000000000e+00  -6.8156887051797707e-09 -2.5321907904819503e-09 0.0000000000000000e+00  -6.8536784464159387e-09 -1.0961666970966642e-09 0.0000000000000000e+00  -6.8798209633185064e-09 2.6940357310143311e-10 0.0000000000000000e+00  -6.9029345660474045e-09 1.6278901712567810e-09 0.0000000000000000e+00  -6.9102996374845066e-09 3.0397941261322101e-09 0.0000000000000000e+00  -6.8677862044942314e-09 4.5528314755324197e-09 0.0000000000000000e+00  -6.7201011263250618e-09 6.1902448246343806e-09 0.0000000000000000e+00  -6.3939564127383980e-09 7.9369836590777902e-09 0.0000000000000000e+00  -5.8093422320284275e-09 9.7264472430278369e-09 0.0000000000000000e+00  -4.9081218910728807e-09 1.1435565149684057e-08 0.0000000000000000e+00  -3.7219890480861444e-09 1.2902982663238051e-08 0.0000000000000000e+00  -2.5730751185956129e-09 1.3996211922107042e-08 0.0000000000000000e+00  -2.6671528807580397e-09 1.5264488531893029e-08 0.0000000000000000e+00  -2.5212799043397251e-09 -1.3187649178559533e-08 0.0000000000000000e+00  -2.5283008888843133e-09 -1.3244121842263081e-08 0.0000000000000000e+00  -3.8068422517423418e-09 -1.2010158572293682e-08 0.0000000000000000e+00  -5.2330636272171530e-09 -1.0503730237930108e-08 0.0000000000000000e+00  -6.4337666189690265e-09 -8.8329287750512542e-09 0.0000000000000000e+00  -7.3428408071495781e-09 -7.1179078287274756e-09 0.0000000000000000e+00  -7.9850619770181118e-09 -5.4496937864559266e-09 0.0000000000000000e+00  -8.4132396409020490e-09 -3.8782608184501002e-09 0.0000000000000000e+00  -8.6813909113151184e-09 -2.4149550106936679e-09 0.0000000000000000e+00  -8.8321889536352346e-09 -1.0420366890737765e-09 0.0000000000000000e+00  -8.8916355519027006e-09 2.7616114021267963e-10 0.0000000000000000e+00  -8.8673907888246077e-09 1.5827532615075491e-09 0.0000000000000000e+00  -8.7487431587801710e-09 2.9186998179711115e-09 0.0000000000000000e+00  -8.5075392946016716e-09 4.3134419318766206e-09 0.0000000000000000e+00  -8.1006415105175377e-09 5.7753201526818535e-09 0.0000000000000000e+00  -7.4756335830145650e-09 7.2824066574299712e-09 0.0000000000000000e+00  -6.5826801361101683e-09 8.7763247753422187e-09 0.0000000000000000e+00  -5.3981063714269067e-09 1.0164047147797132e-08 0.0000000000000000e+00  -3.9777476560430630e-09 1.1335681693172624e-08 0.0000000000000000e+00  -2.6348590440915525e-09 1.2212318252752538e-08 0.0000000000000000e+00  -2.4510813312032745e-09 1.3475894735998390e-08 0.0000000000000000e+00  -2.3397713188380199e-09 -1.1029691199193439e-08 0.0000000000000000e+00  -2.6073055188206932e-09 -1.1265349913472740e-08 0.0000000000000000e+00  -4.0521671689472237e-09 -1.0268490680628650e-08 0.0000000000000000e+00  -5.6496392289902520e-09 -9.0496971526596225e-09 0.0000000000000000e+00  -7.0508943886322587e-09 -7.6834344755240859e-09 0.0000000000000000e+00  -8.1804541898073849e-09 -6.2551466266060568e-09 0.0000000000000000e+00  -9.0407997534053996e-09 -4.8342835110556062e-09 0.0000000000000000e+00  -9.6613047141220269e-09 -3.4644879216276273e-09 0.0000000000000000e+00  -1.0077206929819824e-08 -2.1624048545666530e-09 0.0000000000000000e+00  -1.0318709980987502e-08 -9.2244564718648402e-10 0.0000000000000000e+00  -1.0405177272320224e-08 2.7576821994171132e-10 0.0000000000000000e+00  -1.0342502301056699e-08 1.4592458106282177e-09 0.0000000000000000e+00  -1.0122605621966872e-08 2.6535481099664312e-09 0.0000000000000000e+00  -9.7246688969149420e-09 3.8749996997689030e-09 0.0000000000000000e+00  -9.1183739171929468e-09 5.1234650936479502e-09 0.0000000000000000e+00  -8.2699788930556886e-09 6.3765991545014534e-09 0.0000000000000000e+00  -7.1526882087718487e-09 7.5874735232556692e-09 0.0000000000000000e+00  -5.7652172579508671e-09 8.6884032695983143e-09 0.0000000000000000e+00  -4.1754559264572312e-09 9.6054348436092037e-09 0.0000000000000000e+00  -2.6860720355934145e-09 1.0292172678465148e-08 0.0000000000000000e+00  -2.2886376386526302e-09 1.1521480501305932e-08 0.0000000000000000e+00  -2.2024987883154252e-09 -8.7996839652423434e-09 0.0000000000000000e+00  -2.6671769770007859e-09 -9.1914171547337437e-09 0.0000000000000000e+00  -4.2357644681247738e-09 -8.4016393352180374e-09 0.0000000000000000e+00  -5.9565906628624098e-09 -7.4362012677607912e-09 0.0000000000000000e+00  -7.5006303352904019e-09 -6.3479956989623179e-09 0.0000000000000000e+00  -8.7881077658275214e-09 -5.1975500304294817e-09 0.0000000000000000e+00  -9.8070461414218198e-09 -4.0361528498921882e-09 0.0000000000000000e+00  -1.0569898737317145e-08 -2.8990261083768081e-09 0.0000000000000000e+00  -1.1096970221087407e-08 -1.8032038043507367e-09 0.0000000000000000e+00  -1.1407584804049875e-08 -7.4974719649393424e-10 0.0000000000000000e+00  -1.1514826763782920e-08 2.7149660478306254e-10 0.0000000000000000e+00  -1.1422799965086453e-08 1.2759927558116857e-09 0.0000000000000000e+00  -1.1125960907306206e-08 2.2783416935330316e-09 0.0000000000000000e+00  -1.0610347050022343e-08 3.2863656600299396e-09 0.0000000000000000e+00  -9.8567708050868282e-09 4.2960016845187405e-09 0.0000000000000000e+00  -8.8462604411396381e-09 5.2878396337099204e-09 0.0000000000000000e+00  -7.5684660940533390e-09 6.2265437469784658e-09 0.0000000000000000e+00  -6.0363478391739167e-09 7.0646316789016690e-09 0.0000000000000000e+00  -4.3238837707952583e-09 7.7534065743392615e-09 0.0000000000000000e+00  -2.7250386818870751e-09 8.2669915795684101e-09 0.0000000000000000e+00  -2.1664298164718798e-09 9.4430173392165976e-09 0.0000000000000000e+00  -2.1012268094641717e-09 -6.5200766095090882e-09 0.0000000000000000e+00  -2.7111449406968706e-09 -7.0489998130667007e-09 0.0000000000000000e+00  -4.3691139515480057e-09 -6.4456055053824794e-09 0.0000000000000000e+00  -6.1762537748013398e-09 -5.7102741660183658e-09 0.0000000000000000e+00  -7.8190327886724755e-09 -4.8813639423513076e-09 0.0000000000000000e+00  -9.2159195605117595e-09 -4.0010414289627404e-09 0.0000000000000000e+00  -1.0345718692613977e-08 -3.1056721357954907e-09 0.0000000000000000e+00  -1.1209219582731404e-08 -2.2217396857903479e-09 0.0000000000000000e+00  -1.1815759180851476e-08 -1.3639249268729182e-09 0.0000000000000000e+00  -1.2176206318698355e-08 -5.3607364303301878e-10 0.0000000000000000e+00  -1.2298538050358823e-08 2.6586823684055454e-10 0.0000000000000000e+00  -1.2185350298579884e-08 1.0498597595293246e-09 0.0000000000000000e+00  -1.1833179201382083e-08 1.8234261138783008e-09 0.0000000000000000e+00  -1.1233581321142462e-08 2.5895334053249104e-09 0.0000000000000000e+00  -1.0375939099295277e-08 3.3432138467958179e-09 0.0000000000000000e+00  -9.2519949699888228e-09 4.0695768828799208e-09 0.0000000000000000e+00  -7.8625345780105345e-09 4.7439431453544646e-09 0.0000000000000000e+00  -6.2294348401571533e-09 5.3348254840305066e-09 0.0000000000000000e+00  -4.4299118418546134e-09 5.8118357953045183e-09 0.0000000000000000e+00  -2.7520893869290421e-09 6.1627903319454419e-09 0.0000000000000000e+00  -2.0769712517544915e-09 7.2726539474077968e-09 0.0000000000000000e+00  -2.0309310093942741e-09 -4.2095896235316250e-09 0.0000000000000000e+00  -2.7420560768986326e-09 -4.8603710452685684e-09 0.0000000000000000e+00  -4.4607645492504127e-09 -4.4290453941273269e-09 0.0000000000000000e+00  -6.3244221406106512e-09 -3.9081966507554045e-09 0.0000000000000000e+00  -8.0312184930727572e-09 -3.3257284997678027e-09 0.0000000000000000e+00  -9.4991481714352354e-09 -2.7096234978426785e-09 0.0000000000000000e+00  -1.0701372145427056e-08 -2.083779840