<?xml version="1.0"?>
<VTKFile type="UnstructuredGrid"  version="0.1"  >
<UnstructuredGrid>
<Piece  NumberOfPoints="651" NumberOfCells="1200">
<Points>
<DataArray  type="Float64"  NumberOfComponents="3"  format="ascii">0 0 0  50000 0 0  100000 0 0  150000 0 0  200000 0 0  250000 0 0  300000 0 0  350000 0 0  400000 0 0  450000 0 0  500000 0 0  550000 0 0  600000 0 0  650000 0 0  700000 0 0  750000 0 0  800000 0 0  850000 0 0  900000 0 0  950000 0 0  1000000 0 0  0 50000 0  50000 50000 0  100000 50000 0  150000 50000 0  200000 50000 0  250000 50000 0  300000 50000 0  350000 50000 0  400000 50000 0  450000 50000 0  500000 50000 0  550000 50000 0  600000 50000 0  650000 50000 0  700000 50000 0  750000 50000 0  800000 50000 0  850000 50000 0  900000 50000 0  950000 50000 0  1000000 50000 0  0 100000 0  50000 100000 0  100000 100000 0  150000 100000 0  200000 100000 0  250000 100000 0  300000 100000 0  350000 100000 0  400000 100000 0  450000 100000 0  500000 100000 0  550000 100000 0  600000 100000 0  650000 100000 0  700000 100000 0  750000 100000 0  800000 100000 0  850000 100000 0  900000 100000 0  950000 100000 0  1000000 100000 0  0 150000 0  50000 150000 0  100000 150000 0  150000 150000 0  200000 150000 0  250000 150000 0  300000 150000 0  350000 150000 0  400000 150000 0  450000 150000 0  500000 150000 0  550000 150000 0  600000 150000 0  650000 150000 0  700000 150000 0  750000 150000 0  800000 150000 0  850000 150000 0  900000 150000 0  950000 150000 0  1000000 150000 0  0 200000 0  50000 200000 0  100000 200000 0  150000 200000 0  200000 200000 0  250000 200000 0  300000 200000 0  350000 200000 0  400000 200000 0  450000 200000 0  500000 200000 0  550000 200000 0  600000 200000 0  650000 200000 0  700000 200000 0  750000 200000 0  800000 200000 0  850000 200000 0  900000 200000 0  950000 200000 0  1000000 200000 0  0 250000 0  50000 250000 0  100000 250000 0  150000 250000 0  200000 250000 0  250000 250000 0  300000 250000 0  350000 250000 0  400000 250000 0  450000 250000 0  500000 250000 0  550000 250000 0  600000 250000 0  650000 250000 0  700000 250000 0  750000 250000 0  800000 250000 0  850000 250000 0  900000 250000 0  950000 250000 0  1000000 250000 0  0 300000 0  50000 300000 0  100000 300000 0  150000 300000 0  200000 300000 0  250000 300000 0  300000 300000 0  350000 300000 0  400000 300000 0  450000 300000 0  500000 300000 0  550000 300000 0  600000 300000 0  650000 300000 0  700000 300000 0  750000 300000 0  800000 300000 0  850000 300000 0  900000 300000 0  950000 300000 0  1000000 300000 0  0 350000 0  50000 350000 0  100000 350000 0  150000 350000 0  200000 350000 0  250000 350000 0  300000 350000 0  350000 350000 0  400000 350000 0  450000 350000 0  500000 350000 0  550000 350000 0  600000 350000 0  650000 350000 0  700000 350000 0  750000 350000 0  800000 350000 0  850000 350000 0  900000 350000 0  950000 350000 0  1000000 350000 0  0 400000 0  50000 400000 0  100000 400000 0  150000 400000 0  200000 400000 0  250000 400000 0  300000 400000 0  350000 400000 0  400000 400000 0  450000 400000 0  500000 400000 0  550000 400000 0  600000 400000 0  650000 400000 0  700000 400000 0  750000 400000 0  800000 400000 0  850000 400000 0  900000 400000 0  950000 400000 0  1000000 400000 0  0 450000 0  50000 450000 0  100000 450000 0  150000 450000 0  200000 450000 0  250000 450000 0  300000 450000 0  350000 450000 0  400000 450000 0  450000 450000 0  500000 450000 0  550000 450000 0  600000 450000 0  650000 450000 0  700000 450000 0  750000 450000 0  800000 450000 0  850000 450000 0  900000 450000 0  950000 450000 0  1000000 450000 0  0 500000 0  50000 500000 0  100000 500000 0  150000 500000 0  200000 500000 0  250000 500000 0  300000 500000 0  350000 500000 0  400000 500000 0  450000 500000 0  500000 500000 0  550000 500000 0  600000 500000 0  650000 500000 0  700000 500000 0  750000 500000 0  800000 500000 0  850000 500000 0  900000 500000 0  950000 500000 0  1000000 500000 0  0 550000 0  50000 550000 0  100000 550000 0  150000 550000 0  200000 550000 0  250000 550000 0  300000 550000 0  350000 550000 0  400000 550000 0  450000 550000 0  500000 550000 0  550000 550000 0  600000 550000 0  650000 550000 0  700000 550000 0  750000 550000 0  800000 550000 0  850000 550000 0  900000 550000 0  950000 550000 0  1000000 550000 0  0 600000 0  50000 600000 0  100000 600000 0  150000 600000 0  200000 600000 0  250000 600000 0  300000 600000 0  350000 600000 0  400000 600000 0  450000 600000 0  500000 600000 0  550000 600000 0  600000 600000 0  650000 600000 0  700000 600000 0  750000 600000 0  800000 600000 0  850000 600000 0  900000 600000 0  950000 600000 0  1000000 600000 0  0 650000 0  50000 650000 0  100000 650000 0  150000 650000 0  200000 650000 0  250000 650000 0  300000 650000 0  350000 650000 0  400000 650000 0  450000 650000 0  500000 650000 0  550000 650000 0  600000 650000 0  650000 650000 0  700000 650000 0  750000 650000 0  800000 650000 0  850000 650000 0  900000 650000 0  950000 650000 0  1000000 650000 0  0 700000 0  50000 700000 0  100000 700000 0  150000 700000 0  200000 700000 0  250000 700000 0  300000 700000 0  350000 700000 0  400000 700000 0  450000 700000 0  500000 700000 0  550000 700000 0  600000 700000 0  650000 700000 0  700000 700000 0  750000 700000 0  800000 700000 0  850000 700000 0  900000 700000 0  950000 700000 0  1000000 700000 0  0 750000 0  50000 750000 0  100000 750000 0  150000 750000 0  200000 750000 0  250000 750000 0  300000 750000 0  350000 750000 0  400000 750000 0  450000 750000 0  500000 750000 0  550000 750000 0  600000 750000 0  650000 750000 0  700000 750000 0  750000 750000 0  800000 750000 0  850000 750000 0  900000 750000 0  950000 750000 0  1000000 750000 0  0 800000 0  50000 800000 0  100000 800000 0  150000 800000 0  200000 800000 0  250000 800000 0  300000 800000 0  350000 800000 0  400000 800000 0  450000 800000 0  500000 800000 0  550000 800000 0  600000 800000 0  650000 800000 0  700000 800000 0  750000 800000 0  800000 800000 0  850000 800000 0  900000 800000 0  950000 800000 0  1000000 800000 0  0 850000 0  50000 850000 0  100000 850000 0  150000 850000 0  200000 850000 0  250000 850000 0  300000 850000 0  350000 850000 0  400000 850000 0  450000 850000 0  500000 850000 0  550000 850000 0  600000 850000 0  650000 850000 0  700000 850000 0  750000 850000 0  800000 850000 0  850000 850000 0  900000 850000 0  950000 850000 0  1000000 850000 0  0 900000 0  50000 900000 0  100000 900000 0  150000 900000 0  200000 900000 0  250000 900000 0  300000 900000 0  350000 900000 0  400000 900000 0  450000 900000 0  500000 900000 0  550000 900000 0  600000 900000 0  650000 900000 0  700000 900000 0  750000 900000 0  800000 900000 0  850000 900000 0  900000 900000 0  950000 900000 0  1000000 900000 0  0 950000 0  50000 950000 0  100000 950000 0  150000 950000 0  200000 950000 0  250000 950000 0  300000 950000 0  350000 950000 0  400000 950000 0  450000 950000 0  500000 950000 0  550000 950000 0  600000 950000 0  650000 950000 0  700000 950000 0  750000 950000 0  800000 950000 0  850000 950000 0  900000 950000 0  950000 950000 0  1000000 950000 0  0 1000000 0  50000 1000000 0  100000 1000000 0  150000 1000000 0  200000 1000000 0  250000 1000000 0  300000 1000000 0  350000 1000000 0  400000 1000000 0  450000 1000000 0  500000 1000000 0  550000 1000000 0  600000 1000000 0  650000 1000000 0  700000 1000000 0  750000 1000000 0  800000 1000000 0  850000 1000000 0  900000 1000000 0  950000 1000000 0  1000000 1000000 0  0 1050000 0  50000 1050000 0  100000 1050000 0  150000 1050000 0  200000 1050000 0  250000 1050000 0  300000 1050000 0  350000 1050000 0  400000 1050000 0  450000 1050000 0  500000 1050000 0  550000 1050000 0  600000 1050000 0  650000 1050000 0  700000 1050000 0  750000 1050000 0  800000 1050000 0  850000 1050000 0  900000 1050000 0  950000 1050000 0  1000000 1050000 0  0 1100000 0  50000 1100000 0  100000 1100000 0  150000 1100000 0  200000 1100000 0  250000 1100000 0  300000 1100000 0  350000 1100000 0  400000 1100000 0  450000 1100000 0  500000 1100000 0  550000 1100000 0  600000 1100000 0  650000 1100000 0  700000 1100000 0  750000 1100000 0  800000 1100000 0  850000 1100000 0  900000 1100000 0  950000 1100000 0  1000000 1100000 0  0 1150000 0  50000 1150000 0  100000 1150000 0  150000 1150000 0  200000 1150000 0  250000 1150000 0  300000 1150000 0  350000 1150000 0  400000 1150000 0  450000 1150000 0  500000 1150000 0  550000 1150000 0  600000 1150000 0  650000 1150000 0  700000 1150000 0  750000 1150000 0  800000 1150000 0  850000 1150000 0  900000 1150000 0  950000 1150000 0  1000000 1150000 0  0 1200000 0  50000 1200000 0  100000 1200000 0  150000 1200000 0  200000 1200000 0  250000 1200000 0  300000 1200000 0  350000 1200000 0  400000 1200000 0  450000 1200000 0  500000 1200000 0  550000 1200000 0  600000 1200000 0  650000 1200000 0  700000 1200000 0  750000 1200000 0  800000 1200000 0  850000 1200000 0  900000 1200000 0  950000 1200000 0  1000000 1200000 0  0 1250000 0  50000 1250000 0  100000 1250000 0  150000 1250000 0  200000 1250000 0  250000 1250000 0  300000 1250000 0  350000 1250000 0  400000 1250000 0  450000 1250000 0  500000 1250000 0  550000 1250000 0  600000 1250000 0  650000 1250000 0  700000 1250000 0  750000 1250000 0  800000 1250000 0  850000 1250000 0  900000 1250000 0  950000 1250000 0  1000000 1250000 0  0 1300000 0  50000 1300000 0  100000 1300000 0  150000 1300000 0  200000 1300000 0  250000 1300000 0  300000 1300000 0  350000 1300000 0  400000 1300000 0  450000 1300000 0  500000 1300000 0  550000 1300000 0  600000 1300000 0  650000 1300000 0  700000 1300000 0  750000 1300000 0  800000 1300000 0  850000 1300000 0  900000 1300000 0  950000 1300000 0  1000000 1300000 0  0 1350000 0  50000 1350000 0  100000 1350000 0  150000 1350000 0  200000 1350000 0  250000 1350000 0  300000 1350000 0  350000 1350000 0  400000 1350000 0  450000 1350000 0  500000 1350000 0  550000 1350000 0  600000 1350000 0  650000 1350000 0  700000 135
[...]
<PointData  Vectors="f_19"> 
<DataArray  type="Float64"  Name="f_19"  NumberOfComponents="3" format="ascii">-2.4198474321944139e-08 -1.0850036791275593e-08 0.0000000000000000e+00  4.8836324739323846e-08 -6.9192202857533001e-09 0.0000000000000000e+00  4.3080758351294464e-08 -2.5942188671111212e-09 0.0000000000000000e+00  4.0604187953477971e-08 -1.2055959434295373e-09 0.0000000000000000e+00  3.9378866850093544e-08 -7.1014596075865197e-10 0.0000000000000000e+00  3.8572318057495357e-08 -4.8806653711450187e-10 0.0000000000000000e+00  3.7988100602824324e-08 -3.7120825946595690e-10 0.0000000000000000e+00  3.7569823037777416e-08 -3.0193970728228356e-10 0.0000000000000000e+00  3.7300092445224048e-08 -2.5578799263987320e-10 0.0000000000000000e+00  3.7174718165716480e-08 -2.1988841271376140e-10 0.0000000000000000e+00  3.7194900550882321e-08 -1.8559152135694298e-10 0.0000000000000000e+00  3.7365406032936613e-08 -1.4508241279065126e-10 0.0000000000000000e+00  3.7696109859536914e-08 -8.8793749318752961e-11 0.0000000000000000e+00  3.8208014912649326e-08 -1.7915221688237944e-12 0.0000000000000000e+00  3.8949328459802702e-08 1.4360339464246064e-10 0.0000000000000000e+00  4.0038019785584790e-08 4.0597492432791613e-10 0.0000000000000000e+00  4.1774225772542881e-08 9.2347356803052401e-10 0.0000000000000000e+00  4.4903692099255927e-08 2.0404291297692818e-09 0.0000000000000000e+00  5.0755054108411275e-08 4.5741240957559025e-09 0.0000000000000000e+00  5.7998597280943970e-08 9.0920081525980169e-09 0.0000000000000000e+00  -1.6456095244914265e-08 6.9850135767291962e-09 0.0000000000000000e+00  -1.7941231860449962e-08 -1.6388512036782907e-08 0.0000000000000000e+00  7.3584186413061042e-09 -1.1469369326433071e-08 0.0000000000000000e+00  1.8312220178164718e-08 -5.2993350457397189e-09 0.0000000000000000e+00  2.3356307331072187e-08 -2.4344441637358914e-09 0.0000000000000000e+00  2.5910841620537739e-08 -1.1761449672824967e-09 0.0000000000000000e+00  2.7344132486947587e-08 -5.8318346024215728e-10 0.0000000000000000e+00  2.8168454801454078e-08 -2.8610556765394417e-10 0.0000000000000000e+00  2.8643109281840054e-08 -1.3431628051116642e-10 0.0000000000000000e+00  2.8911585393426351e-08 -5.8772148857206474e-11 0.0000000000000000e+00  2.9053979744904123e-08 -2.2142398706134164e-11 0.0000000000000000e+00  2.9112047256234549e-08 1.5877739198707477e-13 0.0000000000000000e+00  2.9100696735920663e-08 2.8683291317472063e-11 0.0000000000000000e+00  2.9011952709019569e-08 8.5709071828102616e-11 0.0000000000000000e+00  2.8813410853697329e-08 2.0183134442869187e-10 0.0000000000000000e+00  2.8440186601247000e-08 4.2772129367712802e-10 0.0000000000000000e+00  2.7774315512320042e-08 8.5998978286302027e-10 0.0000000000000000e+00  2.6589546967479629e-08 1.7020103835543141e-09 0.0000000000000000e+00  2.4373849432381450e-08 3.3996948531115666e-09 0.0000000000000000e+00  1.9681330152169706e-08 6.8431615807860286e-09 0.0000000000000000e+00  8.2633935441678934e-09 1.2995132921173719e-08 0.0000000000000000e+00  -1.8423553508352319e-08 1.0917886224131283e-08 0.0000000000000000e+00  -1.0939415057357868e-08 -1.9951756854754374e-08 0.0000000000000000e+00  -2.0121158400114319e-10 -1.8626651497108837e-08 0.0000000000000000e+00  5.9624957554112873e-09 -1.1327405628758360e-08 0.0000000000000000e+00  1.0865137869495183e-08 -6.5181254636905078e-09 0.0000000000000000e+00  1.4669485970874739e-08 -3.7493530044424407e-09 0.0000000000000000e+00  1.7294678727392866e-08 -2.1795764033080079e-09 0.0000000000000000e+00  1.9041377341467505e-08 -1.2643759441633636e-09 0.0000000000000000e+00  2.0178652084001299e-08 -7.1126666968776601e-10 0.0000000000000000e+00  2.0886833298358313e-08 -3.6083051357325546e-10 0.0000000000000000e+00  2.1276679824769271e-08 -1.1857703452413085e-10 0.0000000000000000e+00  2.1408203391207428e-08 7.9914197070271899e-11 0.0000000000000000e+00  2.1301832345319769e-08 2.8795754344733146e-10 0.0000000000000000e+00  2.0942470397641484e-08 5.6090278286895040e-10 0.0000000000000000e+00  2.0277139483224589e-08 9.6973127346415836e-10 0.0000000000000000e+00  1.9205634369668861e-08 1.6210534286964840e-09 0.0000000000000000e+00  1.7562283287669849e-08 2.6912277735149777e-09 0.0000000000000000e+00  1.5087437252826029e-08 4.4810467014561519e-09 0.0000000000000000e+00  1.1398862269653611e-08 7.4642060616865303e-09 0.0000000000000000e+00  6.0297771735536529e-09 1.2106688508730328e-08 0.0000000000000000e+00  -1.2813598587297264e-09 1.7559678600828888e-08 0.0000000000000000e+00  -1.3251684068633226e-08 1.4665749470349666e-08 0.0000000000000000e+00  -7.2211140787137822e-09 -2.0534474012442814e-08 0.0000000000000000e+00  -1.5207597858039207e-09 -2.0104635198733322e-08 0.0000000000000000e+00  1.1840261938131129e-09 -1.5325428935122313e-08 0.0000000000000000e+00  3.9879620767537559e-09 -1.0386660918264502e-08 0.0000000000000000e+00  6.8947436048206027e-09 -6.7889793913360264e-09 0.0000000000000000e+00  9.4093417739544762e-09 -4.3744689282505917e-09 0.0000000000000000e+00  1.1340665792331766e-08 -2.7767220238372034e-09 0.0000000000000000e+00  1.2717561116785797e-08 -1.7008154461690848e-09 0.0000000000000000e+00  1.3626663116871183e-08 -9.4462715831916924e-10 0.0000000000000000e+00  1.4143720534350258e-08 -3.6940624299307857e-10 0.0000000000000000e+00  1.4316516112872020e-08 1.2802610007199777e-10 0.0000000000000000e+00  1.4162511525216082e-08 6.3570320726362275e-10 0.0000000000000000e+00  1.3669205034710517e-08 1.2426072316613085e-09 0.0000000000000000e+00  1.2794444819823145e-08 2.0541624066822531e-09 0.0000000000000000e+00  1.1467968060838732e-08 3.2097483394344430e-09 0.0000000000000000e+00  9.6003809139547294e-09 4.9006471979294656e-09 0.0000000000000000e+00  7.1164261874369546e-09 7.3706354339612615e-09 0.0000000000000000e+00  4.0466113412655377e-09 1.0828804932416758e-08 0.0000000000000000e+00  6.8296153976370099e-10 1.5083605221177595e-08 0.0000000000000000e+00  -2.6108391998639149e-09 1.8730490209948363e-08 0.0000000000000000e+00  -8.9408363093641688e-09 1.7510977056515074e-08 0.0000000000000000e+00  -5.3370415072836289e-09 -1.9902549814537906e-08 0.0000000000000000e+00  -1.8695191727424079e-09 -1.9863504105095986e-08 0.0000000000000000e+00  -9.0506911936597027e-10 -1.6773757269367128e-08 0.0000000000000000e+00  2.5541318864594881e-10 -1.2780111012017275e-08 0.0000000000000000e+00  1.9126577243431892e-09 -9.1928161267705517e-09 0.0000000000000000e+00  3.6926148815067086e-09 -6.3951180528105181e-09 0.0000000000000000e+00  5.2753108936485879e-09 -4.3194046819562374e-09 0.0000000000000000e+00  6.5199856032527796e-09 -2.7863162052497803e-09 0.0000000000000000e+00  7.3954946092267083e-09 -1.6218748996409749e-09 0.0000000000000000e+00  7.9127842267947856e-09 -6.8077955139578856e-10 0.0000000000000000e+00  8.0887428582491815e-09 1.5852925507540031e-10 0.0000000000000000e+00  7.9314899957236738e-09 1.0051654379263931e-09 0.0000000000000000e+00  7.4364279308340832e-09 1.9674320297622677e-09 0.0000000000000000e+00  6.5889757166929498e-09 3.1631812466135551e-09 0.0000000000000000e+00  5.3752516168889958e-09 4.7264119437156229e-09 0.0000000000000000e+00  3.8067621502902420e-09 6.8015758653772809e-09 0.0000000000000000e+00  1.9684547068661119e-09 9.5022757672135862e-09 0.0000000000000000e+00  8.7127140098220503e-11 1.2786711213063952e-08 0.0000000000000000e+00  -1.4734815225612929e-09 1.6204307558481942e-08 0.0000000000000000e+00  -2.7194813305536483e-09 1.8684728992114998e-08 0.0000000000000000e+00  -6.6409757388934925e-09 1.8502144890433793e-08 0.0000000000000000e+00  -4.2628235915621356e-09 -1.8731130002586348e-08 0.0000000000000000e+00  -2.0468805977260702e-09 -1.8936134523602507e-08 0.0000000000000000e+00  -2.0065216745063993e-09 -1.6820113844574369e-08 0.0000000000000000e+00  -1.9055267816622958e-09 -1.3767261740008406e-08 0.0000000000000000e+00  -1.2878630876537808e-09 -1.0610343383213809e-08 0.0000000000000000e+00  -3.3461180227988048e-10 -7.8290316053105544e-09 0.0000000000000000e+00  6.8607290070330389e-10 -5.5485560272771439e-09 0.0000000000000000e+00  1.5862308904692094e-09 -3.7210794954939787e-09 0.0000000000000000e+00  2.2676972002822178e-09 -2.2380567993880446e-09 0.0000000000000000e+00  2.6890950153522449e-09 -9.7959561561337388e-10 0.0000000000000000e+00  2.8367798967398034e-09 1.7032250617704578e-10 0.0000000000000000e+00  2.7084142734438428e-09 1.3226199587898109e-09 0.0000000000000000e+00  2.3073201010416138e-09 2.5861328517410102e-09 0.0000000000000000e+00  1.6456303525224014e-09 4.0695061575036117e-09 0.0000000000000000e+00  7.5638537444881211e-10 5.8765635130795396e-09 0.0000000000000000e+00  -2.8423133764120787e-10 8.0861546881044696e-09 0.0000000000000000e+00  -1.3276103797449159e-09 1.0702024081581126e-08 0.0000000000000000e+00  -2.1409089865051338e-09 1.3559873264676540e-08 0.0000000000000000e+00  -2.5055816119730680e-09 1.6217216980429335e-08 0.0000000000000000e+00  -2.6959601155635702e-09 1.7991471641938368e-08 0.0000000000000000e+00  -5.2850010471082256e-09 1.8264118610785944e-08 0.0000000000000000e+00  -3.5750645125190213e-09 -1.7261835373622967e-08 0.0000000000000000e+00  -2.1801253834425504e-09 -1.7634383374759964e-08 0.0000000000000000e+00  -2.6928090324550943e-09 -1.6113021793764256e-08 0.0000000000000000e+00  -3.2642438168704978e-09 -1.3775469774286652e-08 0.0000000000000000e+00  -3.4070490459774722e-09 -1.1133392480395876e-08 0.0000000000000000e+00  -3.1654764744242875e-09 -8.5833129427644654e-09 0.0000000000000000e+00  -2.7174747486847613e-09 -6.3150825367359203e-09 0.0000000000000000e+00  -2.2291770094816163e-09 -4.3665727206868547e-09 0.0000000000000000e+00  -1.8149783714370185e-09 -2.6931805741161230e-09 0.0000000000000000e+00  -1.5412906290040620e-09 -1.2136939693855064e-09 0.0000000000000000e+00  -1.4406446081049637e-09 1.6619207456845187e-10 0.0000000000000000e+00  -1.5228307388801068e-09 1.5434685387406785e-09 0.0000000000000000e+00  -1.7795265644380437e-09 3.0127222141500268e-09 0.0000000000000000e+00  -2.1821803626207542e-09 4.6605448205139766e-09 0.0000000000000000e+00  -2.6738462197371215e-09 6.5540658981308975e-09 0.0000000000000000e+00  -3.1574217911353748e-09 8.7177120413466741e-09 0.0000000000000000e+00  -3.4886789547517598e-09 1.1093572778944631e-08 0.0000000000000000e+00  -3.4980147552471498e-09 1.3490641578444796e-08 0.0000000000000000e+00  -3.1026666377721445e-09 1.5557587981008172e-08 0.0000000000000000e+00  -2.6801616346754246e-09 1.6879592981380944e-08 0.0000000000000000e+00  -4.3984234743960767e-09 1.7367062037043652e-08 0.0000000000000000e+00  -3.0979574832821574e-09 -1.5594466181627763e-08 0.0000000000000000e+00  -2.2890067982303455e-09 -1.6087103678495827e-08 0.0000000000000000e+00  -3.1689607033700132e-09 -1.4955370662648191e-08 0.0000000000000000e+00  -4.1803360000243419e-09 -1.3142117176019909e-08 0.0000000000000000e+00  -4.8588004796457776e-09 -1.0970069840898785e-08 0.0000000000000000e+00  -5.1711027979683221e-09 -8.7314325308625945e-09 0.0000000000000000e+00  -5.2175912963724842e-09 -6.6097144515380515e-09 0.0000000000000000e+00  -5.1207309399508072e-09 -4.6807375421861142e-09 0.0000000000000000e+00  -4.9816589815067140e-09 -2.9443620325038907e-09 0.0000000000000000e+00  -4.8692097524492995e-09 -1.3559793411692376e-09 0.0000000000000000e+00  -4.8220068910893199e-09 1.5120062880508189e-10 0.0000000000000000e+00  -4.8530898102509947e-09 1.6519847266694419e-09 0.0000000000000000e+00  -4.9524747995795286e-09 3.2191896096678006e-09 0.0000000000000000e+00  -5.0864326996216474e-09 4.9136707601340307e-09 0.0000000000000000e+00  -5.1943985443354313e-09 6.7707029480532456e-09 0.0000000000000000e+00  -5.1869031793667424e-09 8.7801305825165304e-09 0.0000000000000000e+00  -4.9523017936392107e-09 1.0861140857876617e-08 0.0000000000000000e+00  -4.3885768308175703e-09 1.2841004195039279e-08 0.0000000000000000e+00  -3.4987996825243176e-09 1.4462446569811176e-08 0.0000000000000000e+00  -2.6791921052974098e-09 1.5477863198581866e-08 0.0000000000000000e+00  -3.7735250936611193e-09 1.6083811840378762e-08 0.0000000000000000e+00  -2.7507068876040196e-09 -1.3782727380065325e-08 0.0000000000000000e+00  -2.3779245974621286e-09 -1.4363740881143993e-08 0.0000000000000000e+00  -3.5180627732431364e-09 -1.3504065797665317e-08 0.0000000000000000e+00  -4.8274937771630399e-09 -1.2082363501091371e-08 0.0000000000000000e+00  -5.8801454358470874e-09 -1.0310534405085602e-08 0.0000000000000000e+00  -6.6037045170373316e-09 -8.3964032059598023e-09 0.0000000000000000e+00  -7.0432366405421128e-09 -6.4927029461659097e-09 0.0000000000000000e+00  -7.2781683862047200e-09 -4.6828644767509187e-09 0.0000000000000000e+00  -7.3851753474650265e-09 -2.9910684455057702e-09 0.0000000000000000e+00  -7.4227385899071185e-09 -1.4003130479240040e-09 0.0000000000000000e+00  -7.4266122002778671e-09 1.3047947539740565e-10 0.0000000000000000e+00  -7.4097040067498283e-09 1.6526298029030442e-09 0.0000000000000000e+00  -7.3628028190127351e-09 3.2161679291693793e-09 0.0000000000000000e+00  -7.2549314652658671e-09 4.8585900442431818e-09 0.0000000000000000e+00  -7.0340561718045711e-09 6.5921359831221463e-09 0.0000000000000000e+00  -6.6308634565501639e-09 8.3891890662454349e-09 0.0000000000000000e+00  -5.9708191709302342e-09 1.0168421208469797e-08 0.0000000000000000e+00  -5.0043001008343409e-09 1.1789389870964352e-08 0.0000000000000000e+00  -3.7816556018216980e-09 1.3070210220945103e-08 0.0000000000000000e+00  -2.6853433821538231e-09 1.3866638941790371e-08 0.0000000000000000e+00  -3.3096271282465708e-09 1.4547138685510066e-08 0.0000000000000000e+00  -2.4921426690326720e-09 -1.1862671184685758e-08 0.0000000000000000e+00  -2.4494118076827856e-09 -1.2509725616281799e-08 0.0000000000000000e+00  -3.7797752402208070e-09 -1.1851505033858590e-08 0.0000000000000000e+00  -5.2960372923524557e-09 -1.0732823282922841e-08 0.0000000000000000e+00  -6.6098038698396934e-09 -9.2992983376082598e-09 0.0000000000000000e+00  -7.6308006008905624e-09 -7.6972999176224268e-09 0.0000000000000000e+00  -8.3676961659923385e-09 -6.0457242024923636e-09 0.0000000000000000e+00  -8.8650128873779876e-09 -4.4208688362893894e-09 0.0000000000000000e+00  -9.1741149318230049e-09 -2.8567327505651831e-09 0.0000000000000000e+00  -9.3383818634715205e-09 -1.3540347768569851e-09 0.0000000000000000e+00  -9.3862299180219157e-09 1.0810240264699777e-10 0.0000000000000000e+00  -9.3284880012974122e-09 1.5606584821782634e-09 0.0000000000000000e+00  -9.1579765589421103e-09 3.0339846264861736e-09 0.0000000000000000e+00  -8.8504408228969762e-09 4.5473951714796384e-09 0.0000000000000000e+00  -8.3672703771456183e-09 6.0987117300603362e-09 0.0000000000000000e+00  -7.6616427216077092e-09 7.6544133056739987e-09 0.0000000000000000e+00  -6.6910116681512226e-09 9.1429679452223339e-09 0.0000000000000000e+00  -5.4419546581610636e-09 1.0456421494776857e-08 0.0000000000000000e+00  -3.9891596880843001e-09 1.1468593082719066e-08 0.0000000000000000e+00  -2.6922525466158189e-09 1.2100025805127918e-08 0.0000000000000000e+00  -2.9532616684954176e-09 1.2831002452619311e-08 0.0000000000000000e+00  -2.2995306846597441e-09 -9.8616786212260891e-09 0.0000000000000000e+00  -2.5060311573599067e-09 -1.0558446623785462e-08 0.0000000000000000e+00  -3.9765852768237409e-09 -1.0057864379664808e-08 0.0000000000000000e+00  -5.6376768880152193e-09 -9.1837123823449356e-09 0.0000000000000000e+00  -7.1329709836515734e-09 -8.0410200491472641e-09 0.0000000000000000e+00  -8.3648780717152720e-09 -6.7326463063621542e-09 0.0000000000000000e+00  -9.3189680735965706e-09 -5.3477468841692707e-09 0.0000000000000000e+00  -1.0013900193769693e-08 -3.9499596486567135e-09 0.0000000000000000e+00  -1.0479354500600243e-08 -2.5743025373555944e-09 0.0000000000000000e+00  -1.0743654942485101e-08 -1.2310507863214563e-09 0.0000000000000000e+00  -1.0826710580168995e-08 8.6842265918894408e-11 0.0000000000000000e+00  -1.0736543237167019e-08 1.3950905867544215e-09 0.0000000000000000e+00  -1.0468342263413816e-08 2.7092720076155073e-09 0.0000000000000000e+00  -1.0005579400819321e-08 4.0362776697432500e-09 0.0000000000000000e+00  -9.3233657920441282e-09 5.3664015821942314e-09 0.0000000000000000e+00  -8.3948220239100638e-09 6.6670455591375539e-09 0.0000000000000000e+00  -7.2019259909127569e-09 7.8800055001251195e-09 0.0000000000000000e+00  -5.7550584053830421e-09 8.9253620658123409e-09 0.0000000000000000e+00  -4.1408726606737265e-09 9.7170558146895298e-09 0.0000000000000000e+00  -2.6963161930813816e-09 1.0217011436466717e-08 0.0000000000000000e+00  -2.6741113758366824e-09 1.0982786049356402e-08 0.0000000000000000e+00  -2.1596353522009923e-09 -7.8017080813836557e-09 0.0000000000000000e+00  -2.5504880903016599e-09 -8.5359447140885154e-09 0.0000000000000000e+00  -4.1232258874874432e-09 -8.1652010890084044e-09 0.0000000000000000e+00  -5.8849864801740276e-09 -7.4970446637132527e-09 0.0000000000000000e+00  -7.5049012349418561e-09 -6.6110018542790849e-09 0.0000000000000000e+00  -8.8831178667421649e-09 -5.5790387317841741e-09 0.0000000000000000e+00  -9.9908467405380264e-09 -4.4659984943254893e-09 0.0000000000000000e+00  -1.0828588531170799e-08 -3.3217232630107493e-09 0.0000000000000000e+00  -1.1409227673360013e-08 -2.1774396517118203e-09 0.0000000000000000e+00  -1.1748324021808213e-08 -1.0470549234644545e-09 0.0000000000000000e+00  -1.1857986033047867e-08 6.8369559968331077e-11 0.0000000000000000e+00  -1.1743471576023427e-08 1.1745502251483537e-09 0.0000000000000000e+00  -1.1402120386938723e-08 2.2773823194963333e-09 0.0000000000000000e+00  -1.0824420064044067e-08 3.3765047043618672e-09 0.0000000000000000e+00  -9.9972300948370205e-09 4.4596837606152493e-09 0.0000000000000000e+00  -8.9094030289430480e-09 5.4989416156674548e-09 0.0000000000000000e+00  -7.5605185418886225e-09 6.4497684421290089e-09 0.0000000000000000e+00  -5.9762344377133168e-09 7.2551524476143235e-09 0.0000000000000000e+00  -4.2488366298028192e-09 7.8579774903932445e-09 0.0000000000000000e+00  -2.6960399726823401e-09 8.2471253938355734e-09 0.0000000000000000e+00  -2.4543203628913277e-09 9.0362156946483730e-09 0.0000000000000000e+00  -2.0645355770772497e-09 -5.7007873324460413e-09 0.0000000000000000e+00  -2.5854361239076420e-09 -6.4631189692154027e-09 0.0000000000000000e+00  -4.2302452778917189e-09 -6.2043534040877684e-09 0.0000000000000000e+00  -6.0599751726330162e-09 -5.7169377146894944e-09 0.0000000000000000e+00  -7.7629561296763443e-09 -5.0638429267309257e-09 0.0000000000000000e+00  -9.2392875005473850e-09 -4.2945841682906710e-09 0.0000000000000000e+00  -1.0451454206224259e-08 -3.4544308421172288e-09 0.0000000000000000e+00  -1.1387776426910838e-08 -2.5800070965352191e-09 0.0000000000000000e+00  -1.2049057783184119e-08 -1.6963135350826068e-09 0.0000000000000000e+00  -1.2441110590543214e-08 -8.1689848083190112e-10 0.0000000000000000e+00  -1.2569780927949914e-08 5.3577804322805518e-11 0.0000000000000000e+00  -1.2437992419529504e-08 9.1536741215837484e-10 0.0000000000000000e+00  -1.2044753278438522e-08 1.7690807791255134e-09 0.0000000000000000e+00  -1.1386084405600728e-08 2.6112235805980547e-09 0.0000000000000000e+00  -1.0457813212234233e-08 3.4304564789663268e-09 0.0000000000000000e+00  -9.2602051096090998e-09 4.2053009895730214e-09 0.0000000000000000e+00  -7.8048342678951331e-09 4.9041421335227982e-09 0.0000000000000000e+00  -6.1269763846985078e-09 5.4885319754105584e-09 0.0000000000000000e+00  -4.3214683735568133e-09 5.9226885490392275e-09 0.0000000000000000e+00  -2.6912369367519086e-09 6.2134647799751601e-09 0.0000000000000000e+00  -2.2831865514174323e-09 7.0169029304379624e-09 0.0000000000000000e+00  -2.0094836689398580e-09 -3.5739894618353997e-09 0.0000000000000000e+00  -2.6132502905111613e-09 -4.3570551800558639e-09 0.0000000000000000e+00  -4.3053806572803972e-09 -4.1987845967958928e-09 0.0000000000000000e+00  -6.1779096491831171e-09 -3.8758213388141660e-09 0.0000000000000000e+00  -7.9326945038966568e-09 -3.4398221607200027e-09 0.0000000000000000e+00  -9.4706034784400058e-09 -2.9232609125142976e-09 0.0000000000000000e+00  -1.0749081479028775e-08 -2.355352284071