<?xml version="1.0"?>
<VTKFile type="UnstructuredGrid"  version="0.1"  >
<UnstructuredGrid>
<Piece  NumberOfPoints="651" NumberOfCells="1200">
<Points>
<DataArray  type="Float64"  NumberOfComponents="3"  format="ascii">0 0 0  50000 0 0  100000 0 0  150000 0 0  200000 0 0  250000 0 0  300000 0 0  350000 0 0  400000 0 0  450000 0 0  500000 0 0  550000 0 0  600000 0 0  650000 0 0  700000 0 0  750000 0 0  800000 0 0  850000 0 0  900000 0 0  950000 0 0  1000000 0 0  0 50000 0  50000 50000 0  100000 50000 0  150000 50000 0  200000 50000 0  250000 50000 0  300000 50000 0  350000 50000 0  400000 50000 0  450000 50000 0  500000 50000 0  550000 50000 0  600000 50000 0  650000 50000 0  700000 50000 0  750000 50000 0  800000 50000 0  850000 50000 0  900000 50000 0  950000 50000 0  1000000 50000 0  0 100000 0  50000 100000 0  100000 100000 0  150000 100000 0  200000 100000 0  250000 100000 0  300000 100000 0  350000 100000 0  400000 100000 0  450000 100000 0  500000 100000 0  550000 100000 0  600000 100000 0  650000 100000 0  700000 100000 0  750000 100000 0  800000 100000 0  850000 100000 0  900000 100000 0  950000 100000 0  1000000 100000 0  0 150000 0  50000 150000 0  100000 150000 0  150000 150000 0  200000 150000 0  250000 150000 0  300000 150000 0  350000 150000 0  400000 150000 0  450000 150000 0  500000 150000 0  550000 150000 0  600000 150000 0  650000 150000 0  700000 150000 0  750000 150000 0  800000 150000 0  850000 150000 0  900000 150000 0  950000 150000 0  1000000 150000 0  0 200000 0  50000 200000 0  100000 200000 0  150000 200000 0  200000 200000 0  250000 200000 0  300000 200000 0  350000 200000 0  400000 200000 0  450000 200000 0  500000 200000 0  550000 200000 0  600000 200000 0  650000 200000 0  700000 200000 0  750000 200000 0  800000 200000 0  850000 200000 0  900000 200000 0  950000 200000 0  1000000 200000 0  0 250000 0  50000 250000 0  100000 250000 0  150000 250000 0  200000 250000 0  250000 250000 0  300000 250000 0  350000 250000 0  400000 250000 0  450000 250000 0  500000 250000 0  550000 250000 0  600000 250000 0  650000 250000 0  700000 250000 0  750000 250000 0  800000 250000 0  850000 250000 0  900000 250000 0  950000 250000 0  1000000 250000 0  0 300000 0  50000 300000 0  100000 300000 0  150000 300000 0  200000 300000 0  250000 300000 0  300000 300000 0  350000 300000 0  400000 300000 0  450000 300000 0  500000 300000 0  550000 300000 0  600000 300000 0  650000 300000 0  700000 300000 0  750000 300000 0  800000 300000 0  850000 300000 0  900000 300000 0  950000 300000 0  1000000 300000 0  0 350000 0  50000 350000 0  100000 350000 0  150000 350000 0  200000 350000 0  250000 350000 0  300000 350000 0  350000 350000 0  400000 350000 0  450000 350000 0  500000 350000 0  550000 350000 0  600000 350000 0  650000 350000 0  700000 350000 0  750000 350000 0  800000 350000 0  850000 350000 0  900000 350000 0  950000 350000 0  1000000 350000 0  0 400000 0  50000 400000 0  100000 400000 0  150000 400000 0  200000 400000 0  250000 400000 0  300000 400000 0  350000 400000 0  400000 400000 0  450000 400000 0  500000 400000 0  550000 400000 0  600000 400000 0  650000 400000 0  700000 400000 0  750000 400000 0  800000 400000 0  850000 400000 0  900000 400000 0  950000 400000 0  1000000 400000 0  0 450000 0  50000 450000 0  100000 450000 0  150000 450000 0  200000 450000 0  250000 450000 0  300000 450000 0  350000 450000 0  400000 450000 0  450000 450000 0  500000 450000 0  550000 450000 0  600000 450000 0  650000 450000 0  700000 450000 0  750000 450000 0  800000 450000 0  850000 450000 0  900000 450000 0  950000 450000 0  1000000 450000 0  0 500000 0  50000 500000 0  100000 500000 0  150000 500000 0  200000 500000 0  250000 500000 0  300000 500000 0  350000 500000 0  400000 500000 0  450000 500000 0  500000 500000 0  550000 500000 0  600000 500000 0  650000 500000 0  700000 500000 0  750000 500000 0  800000 500000 0  850000 500000 0  900000 500000 0  950000 500000 0  1000000 500000 0  0 550000 0  50000 550000 0  100000 550000 0  150000 550000 0  200000 550000 0  250000 550000 0  300000 550000 0  350000 550000 0  400000 550000 0  450000 550000 0  500000 550000 0  550000 550000 0  600000 550000 0  650000 550000 0  700000 550000 0  750000 550000 0  800000 550000 0  850000 550000 0  900000 550000 0  950000 550000 0  1000000 550000 0  0 600000 0  50000 600000 0  100000 600000 0  150000 600000 0  200000 600000 0  250000 600000 0  300000 600000 0  350000 600000 0  400000 600000 0  450000 600000 0  500000 600000 0  550000 600000 0  600000 600000 0  650000 600000 0  700000 600000 0  750000 600000 0  800000 600000 0  850000 600000 0  900000 600000 0  950000 600000 0  1000000 600000 0  0 650000 0  50000 650000 0  100000 650000 0  150000 650000 0  200000 650000 0  250000 650000 0  300000 650000 0  350000 650000 0  400000 650000 0  450000 650000 0  500000 650000 0  550000 650000 0  600000 650000 0  650000 650000 0  700000 650000 0  750000 650000 0  800000 650000 0  850000 650000 0  900000 650000 0  950000 650000 0  1000000 650000 0  0 700000 0  50000 700000 0  100000 700000 0  150000 700000 0  200000 700000 0  250000 700000 0  300000 700000 0  350000 700000 0  400000 700000 0  450000 700000 0  500000 700000 0  550000 700000 0  600000 700000 0  650000 700000 0  700000 700000 0  750000 700000 0  800000 700000 0  850000 700000 0  900000 700000 0  950000 700000 0  1000000 700000 0  0 750000 0  50000 750000 0  100000 750000 0  150000 750000 0  200000 750000 0  250000 750000 0  300000 750000 0  350000 750000 0  400000 750000 0  450000 750000 0  500000 750000 0  550000 750000 0  600000 750000 0  650000 750000 0  700000 750000 0  750000 750000 0  800000 750000 0  850000 750000 0  900000 750000 0  950000 750000 0  1000000 750000 0  0 800000 0  50000 800000 0  100000 800000 0  150000 800000 0  200000 800000 0  250000 800000 0  300000 800000 0  350000 800000 0  400000 800000 0  450000 800000 0  500000 800000 0  550000 800000 0  600000 800000 0  650000 800000 0  700000 800000 0  750000 800000 0  800000 800000 0  850000 800000 0  900000 800000 0  950000 800000 0  1000000 800000 0  0 850000 0  50000 850000 0  100000 850000 0  150000 850000 0  200000 850000 0  250000 850000 0  300000 850000 0  350000 850000 0  400000 850000 0  450000 850000 0  500000 850000 0  550000 850000 0  600000 850000 0  650000 850000 0  700000 850000 0  750000 850000 0  800000 850000 0  850000 850000 0  900000 850000 0  950000 850000 0  1000000 850000 0  0 900000 0  50000 900000 0  100000 900000 0  150000 900000 0  200000 900000 0  250000 900000 0  300000 900000 0  350000 900000 0  400000 900000 0  450000 900000 0  500000 900000 0  550000 900000 0  600000 900000 0  650000 900000 0  700000 900000 0  750000 900000 0  800000 900000 0  850000 900000 0  900000 900000 0  950000 900000 0  1000000 900000 0  0 950000 0  50000 950000 0  100000 950000 0  150000 950000 0  200000 950000 0  250000 950000 0  300000 950000 0  350000 950000 0  400000 950000 0  450000 950000 0  500000 950000 0  550000 950000 0  600000 950000 0  650000 950000 0  700000 950000 0  750000 950000 0  800000 950000 0  850000 950000 0  900000 950000 0  950000 950000 0  1000000 950000 0  0 1000000 0  50000 1000000 0  100000 1000000 0  150000 1000000 0  200000 1000000 0  250000 1000000 0  300000 1000000 0  350000 1000000 0  400000 1000000 0  450000 1000000 0  500000 1000000 0  550000 1000000 0  600000 1000000 0  650000 1000000 0  700000 1000000 0  750000 1000000 0  800000 1000000 0  850000 1000000 0  900000 1000000 0  950000 1000000 0  1000000 1000000 0  0 1050000 0  50000 1050000 0  100000 1050000 0  150000 1050000 0  200000 1050000 0  250000 1050000 0  300000 1050000 0  350000 1050000 0  400000 1050000 0  450000 1050000 0  500000 1050000 0  550000 1050000 0  600000 1050000 0  650000 1050000 0  700000 1050000 0  750000 1050000 0  800000 1050000 0  850000 1050000 0  900000 1050000 0  950000 1050000 0  1000000 1050000 0  0 1100000 0  50000 1100000 0  100000 1100000 0  150000 1100000 0  200000 1100000 0  250000 1100000 0  300000 1100000 0  350000 1100000 0  400000 1100000 0  450000 1100000 0  500000 1100000 0  550000 1100000 0  600000 1100000 0  650000 1100000 0  700000 1100000 0  750000 1100000 0  800000 1100000 0  850000 1100000 0  900000 1100000 0  950000 1100000 0  1000000 1100000 0  0 1150000 0  50000 1150000 0  100000 1150000 0  150000 1150000 0  200000 1150000 0  250000 1150000 0  300000 1150000 0  350000 1150000 0  400000 1150000 0  450000 1150000 0  500000 1150000 0  550000 1150000 0  600000 1150000 0  650000 1150000 0  700000 1150000 0  750000 1150000 0  800000 1150000 0  850000 1150000 0  900000 1150000 0  950000 1150000 0  1000000 1150000 0  0 1200000 0  50000 1200000 0  100000 1200000 0  150000 1200000 0  200000 1200000 0  250000 1200000 0  300000 1200000 0  350000 1200000 0  400000 1200000 0  450000 1200000 0  500000 1200000 0  550000 1200000 0  600000 1200000 0  650000 1200000 0  700000 1200000 0  750000 1200000 0  800000 1200000 0  850000 1200000 0  900000 1200000 0  950000 1200000 0  1000000 1200000 0  0 1250000 0  50000 1250000 0  100000 1250000 0  150000 1250000 0  200000 1250000 0  250000 1250000 0  300000 1250000 0  350000 1250000 0  400000 1250000 0  450000 1250000 0  500000 1250000 0  550000 1250000 0  600000 1250000 0  650000 1250000 0  700000 1250000 0  750000 1250000 0  800000 1250000 0  850000 1250000 0  900000 1250000 0  950000 1250000 0  1000000 1250000 0  0 1300000 0  50000 1300000 0  100000 1300000 0  150000 1300000 0  200000 1300000 0  250000 1300000 0  300000 1300000 0  350000 1300000 0  400000 1300000 0  450000 1300000 0  500000 1300000 0  550000 1300000 0  600000 1300000 0  650000 1300000 0  700000 1300000 0  750000 1300000 0  800000 1300000 0  850000 1300000 0  900000 1300000 0  950000 1300000 0  1000000 1300000 0  0 1350000 0  50000 1350000 0  100000 1350000 0  150000 1350000 0  200000 1350000 0  250000 1350000 0  300000 1350000 0  350000 1350000 0  400000 1350000 0  450000 1350000 0  500000 1350000 0  550000 1350000 0  600000 1350000 0  650000 1350000 0  700000 135
[...]
<PointData  Vectors="f_19"> 
<DataArray  type="Float64"  Name="f_19"  NumberOfComponents="3" format="ascii">-2.4406558884321723e-08 -1.0342786106682888e-08 0.0000000000000000e+00  4.8655532488786972e-08 -6.4281348117821461e-09 0.0000000000000000e+00  4.2935947443465007e-08 -2.1342801961542010e-09 0.0000000000000000e+00  4.0489957022898242e-08 -7.7571438362438478e-10 0.0000000000000000e+00  3.9292882387552039e-08 -3.0835671688540451e-10 0.0000000000000000e+00  3.8512296161994207e-08 -1.1410160641019032e-10 0.0000000000000000e+00  3.7951617265856360e-08 -2.5600133733339095e-11 0.0000000000000000e+00  3.7554172976321014e-08 1.4527601994535915e-11 0.0000000000000000e+00  3.7302238614302633e-08 3.0812390986536833e-11 0.0000000000000000e+00  3.7191334614280343e-08 3.6413879637233788e-11 0.0000000000000000e+00  3.7222488539446979e-08 4.0466504344907757e-11 0.0000000000000000e+00  3.7400471044843829e-08 5.1406013166013235e-11 0.0000000000000000e+00  3.7735383296847249e-08 7.9490810185235444e-11 0.0000000000000000e+00  3.8248695535733165e-08 1.4034325717413172e-10 0.0000000000000000e+00  3.8989311907633412e-08 2.6225848875997497e-10 0.0000000000000000e+00  4.0076084883140302e-08 5.0431238701826234e-10 0.0000000000000000e+00  4.1810158089689135e-08 1.0050042225458120e-09 0.0000000000000000e+00  4.4938341611196285e-08 2.1088938683732606e-09 0.0000000000000000e+00  5.0790242743745139e-08 4.6334257700276251e-09 0.0000000000000000e+00  5.8036296496546853e-08 9.1460541791598896e-09 0.0000000000000000e+00  -1.6417307458939758e-08 7.0400461161439429e-09 0.0000000000000000e+00  -1.8170243036653311e-08 -1.5896613801283863e-08 0.0000000000000000e+00  7.2422665862377944e-09 -1.1303349319578623e-08 0.0000000000000000e+00  1.8135186865216332e-08 -5.2560435487076170e-09 0.0000000000000000e+00  2.3203338098866746e-08 -2.4013020517215401e-09 0.0000000000000000e+00  2.5797675179156858e-08 -1.1466293950049977e-09 0.0000000000000000e+00  2.7265148601198152e-08 -5.5542919914243835e-10 0.0000000000000000e+00  2.8118681040307263e-08 -2.5941380070989422e-10 0.0000000000000000e+00  2.8618205814780114e-08 -1.0835221071021916e-10 0.0000000000000000e+00  2.8907222303819445e-08 -3.3232670947959594e-11 0.0000000000000000e+00  2.9065831111064253e-08 3.2719481734760196e-12 0.0000000000000000e+00  2.9135858961929007e-08 2.5703372321487009e-11 0.0000000000000000e+00  2.9132375774185761e-08 5.4524674775063342e-11 0.0000000000000000e+00  2.9047684225185590e-08 1.1189035588905837e-10 0.0000000000000000e+00  2.8849786112897599e-08 2.2825939507761145e-10 0.0000000000000000e+00  2.8474316695182402e-08 4.5418807970387057e-10 0.0000000000000000e+00  2.7803904711334412e-08 8.8624077922412795e-10 0.0000000000000000e+00  2.6612917865749925e-08 1.7278722304377481e-09 0.0000000000000000e+00  2.4390080298761396e-08 3.4252205124208192e-09 0.0000000000000000e+00  1.9691276909238547e-08 6.8687003644636399e-09 0.0000000000000000e+00  8.2700153785519253e-09 1.3022184608827016e-08 0.0000000000000000e+00  -1.8386015343869031e-08 1.0970706862684197e-08 0.0000000000000000e+00  -1.1195319101977696e-08 -1.9496217943257095e-08 0.0000000000000000e+00  -2.6534274632120758e-10 -1.8468519250801003e-08 0.0000000000000000e+00  5.8437322957740872e-09 -1.1352525564389330e-08 0.0000000000000000e+00  1.0723960019828994e-08 -6.5762795257965044e-09 0.0000000000000000e+00  1.4536901061265573e-08 -3.8129385194830782e-09 0.0000000000000000e+00  1.7183105634909209e-08 -2.2406517532095024e-09 0.0000000000000000e+00  1.8952414358160030e-08 -1.3200188972287500e-09 0.0000000000000000e+00  2.0110540292043821e-08 -7.6025890028033076e-10 0.0000000000000000e+00  2.0836830270079352e-08 -4.0247312711859207e-10 0.0000000000000000e+00  2.1241737249083691e-08 -1.5237364736358388e-10 0.0000000000000000e+00  2.1385253238397146e-08 5.4273667183653813e-11 0.0000000000000000e+00  2.1287938622077568e-08 2.7054084717510344e-10 0.0000000000000000e+00  2.0934919318644751e-08 5.5148196144410958e-10 0.0000000000000000e+00  2.0273500234108683e-08 9.6776466751058516e-10 0.0000000000000000e+00  1.9203803968958984e-08 1.6257239223364464e-09 0.0000000000000000e+00  1.7560525567571154e-08 2.7015519822920254e-09 0.0000000000000000e+00  1.5084444296588643e-08 4.4960605016641638e-09 0.0000000000000000e+00  1.1393920940237078e-08 7.4832047440403356e-09 0.0000000000000000e+00  6.0233843688416768e-09 1.2129548531722127e-08 0.0000000000000000e+00  -1.2874730753668720e-09 1.7582766243039095e-08 0.0000000000000000e+00  -1.3219878270513064e-08 1.4714072829415704e-08 0.0000000000000000e+00  -7.4985676086857101e-09 -2.0115506635815413e-08 0.0000000000000000e+00  -1.5547679315957764e-09 -1.9897674227550470e-08 0.0000000000000000e+00  1.1304800541640688e-09 -1.5317717336143875e-08 0.0000000000000000e+00  3.9006751185068290e-09 -1.0448039501529574e-08 0.0000000000000000e+00  6.7925875754331908e-09 -6.8716663048261991e-09 0.0000000000000000e+00  9.3089988804893890e-09 -4.4602162228766106e-09 0.0000000000000000e+00  1.1250274451073888e-08 -2.8578079720137281e-09 0.0000000000000000e+00  1.2639939515552150e-08 -1.7737018958414431e-09 0.0000000000000000e+00  1.3561951460481634e-08 -1.0075646633775005e-09 0.0000000000000000e+00  1.4090816130271026e-08 -4.2148752548296475e-10 0.0000000000000000e+00  1.4273776652693332e-08 8.7200600584807856e-11 0.0000000000000000e+00  1.4128106896675325e-08 6.0611849408786203e-10 0.0000000000000000e+00  1.3641301387714642e-08 1.2238507407499125e-09 0.0000000000000000e+00  1.2771306585642830e-08 2.0454394125299885e-09 0.0000000000000000e+00  1.1448025773906150e-08 3.2099322686797311e-09 0.0000000000000000e+00  9.5823005933304751e-09 4.9083814828793027e-09 0.0000000000000000e+00  7.0992211460103662e-09 7.3844837362740930e-09 0.0000000000000000e+00  4.0298835018616556e-09 1.0847384559577908e-08 0.0000000000000000e+00  6.6777915872263567e-10 1.5105350906098650e-08 0.0000000000000000e+00  -2.6232430009515094e-09 1.8746186649984620e-08 0.0000000000000000e+00  -8.9187667284370967e-09 1.7551980617737526e-08 0.0000000000000000e+00  -5.6312641287185668e-09 -1.9519209396179529e-08 0.0000000000000000e+00  -1.8914967060650439e-09 -1.9634429979522807e-08 0.0000000000000000e+00  -9.1863945427897116e-10 -1.6725990335562730e-08 0.0000000000000000e+00  2.1554786537230347e-10 -1.2818508026311690e-08 0.0000000000000000e+00  1.8501713160039592e-09 -9.2694405709965926e-09 0.0000000000000000e+00  3.6195082208423833e-09 -6.4849706298758649e-09 0.0000000000000000e+00  5.2008230906235169e-09 -4.4096533899820642e-09 0.0000000000000000e+00  6.4494653851563844e-09 -2.8702948435737603e-09 0.0000000000000000e+00  7.3314905597650827e-09 -1.6960560657834219e-09 0.0000000000000000e+00  7.8561284023505997e-09 -7.4330649543345855e-10 0.0000000000000000e+00  8.0392910832239502e-09 1.0852445936173063e-10 0.0000000000000000e+00  7.8885731958831783e-09 9.6786489110831953e-10 0.0000000000000000e+00  7.3991174837049142e-09 1.9424661114423739e-09 0.0000000000000000e+00  6.5562448824043906e-09 3.1497010447371079e-09 0.0000000000000000e+00  5.3460915816788608e-09 4.7231531327513482e-09 0.0000000000000000e+00  3.7802992542417127e-09 6.8069342239770781e-09 0.0000000000000000e+00  1.9441174748076236e-09 9.5143795634549937e-09 0.0000000000000000e+00  6.4950823277409232e-11 1.2803369736882833e-08 0.0000000000000000e+00  -1.4920540778976340e-09 1.6222323476746603e-08 0.0000000000000000e+00  -2.7356052599595093e-09 1.8690566554934663e-08 0.0000000000000000e+00  -6.6323648234484998e-09 1.8534148324232175e-08 0.0000000000000000e+00  -4.5702027276582337e-09 -1.8382460235371606e-08 0.0000000000000000e+00  -2.0638980811200075e-09 -1.8706137993987972e-08 0.0000000000000000e+00  -1.9959158787059977e-09 -1.6744556616012138e-08 0.0000000000000000e+00  -1.9107369135625189e-09 -1.3779677554783889e-08 0.0000000000000000e+00  -1.3146920694796350e-09 -1.0670859619050719e-08 0.0000000000000000e+00  -3.7716963031708506e-10 -7.9119342640847365e-09 0.0000000000000000e+00  6.3494071713804088e-10 -5.6382363020665683e-09 0.0000000000000000e+00  1.5321056687849291e-09 -3.8083066860145036e-09 0.0000000000000000e+00  2.2142483264106355e-09 -2.3174525623913762e-09 0.0000000000000000e+00  2.6384552412621654e-09 -1.0480982752989809e-09 0.0000000000000000e+00  2.7900067907592190e-09 1.1432176729366258e-10 0.0000000000000000e+00  2.6658607467087261e-09 1.2797391482209284e-09 0.0000000000000000e+00  2.2688972122271462e-09 2.5562412885620623e-09 0.0000000000000000e+00  1.6109926900797555e-09 4.0518551317425769e-09 0.0000000000000000e+00  7.2507900575711320e-10 5.8698637699885798e-09 0.0000000000000000e+00  -3.1261837898614884e-10 8.0886222960355293e-09 0.0000000000000000e+00  -1.3532538735602816e-09 1.0711373681176551e-08 0.0000000000000000e+00  -2.1634623099631905e-09 1.3573118265717314e-08 0.0000000000000000e+00  -2.5236825226245872e-09 1.6229730663069829e-08 0.0000000000000000e+00  -2.7141583359917616e-09 1.7986229733106069e-08 0.0000000000000000e+00  -5.2934613077039223e-09 1.8286489180989543e-08 0.0000000000000000e+00  -3.8924305778693602e-09 -1.6946887801625943e-08 0.0000000000000000e+00  -2.1953040256234474e-09 -1.7414693114988890e-08 0.0000000000000000e+00  -2.6670720516233161e-09 -1.6022388767358772e-08 0.0000000000000000e+00  -3.2450813276019547e-09 -1.3766766749778166e-08 0.0000000000000000e+00  -3.4052090738353866e-09 -1.1175885687969737e-08 0.0000000000000000e+00  -3.1798448031034439e-09 -8.6540242110341563e-09 0.0000000000000000e+00  -2.7437523508393816e-09 -6.3980762454527325e-09 0.0000000000000000e+00  -2.2628546953813305e-09 -4.4513244100876062e-09 0.0000000000000000e+00  -1.8523595190183489e-09 -2.7729673456693230e-09 0.0000000000000000e+00  -1.5796864842056172e-09 -1.2843628387130943e-09 0.0000000000000000e+00  -1.4782587496921739e-09 1.0704931747320452e-10 0.0000000000000000e+00  -1.5585644072680495e-09 1.4970253937496137e-09 0.0000000000000000e+00  -1.8127921674350385e-09 2.9792162732151511e-09 0.0000000000000000e+00  -2.2127410606018894e-09 4.6394446888252619e-09 0.0000000000000000e+00  -2.7016698662650164e-09 6.5441549424710313e-09 0.0000000000000000e+00  -3.1825268593193807e-09 8.7171075464849687e-09 0.0000000000000000e+00  -3.5109498911134731e-09 1.1099658734810237e-08 0.0000000000000000e+00  -3.5169911227519582e-09 1.3499774437513327e-08 0.0000000000000000e+00  -3.1174453586191384e-09 1.5564012873567773e-08 0.0000000000000000e+00  -2.6993213615479229e-09 1.6863512363639713e-08 0.0000000000000000e+00  -4.4273530251038593e-09 1.7380185307478505e-08 0.0000000000000000e+00  -3.4222811020659938e-09 -1.5312336560173331e-08 0.0000000000000000e+00  -2.3037276947601239e-09 -1.5884146694481942e-08 0.0000000000000000e+00  -3.1334380286821855e-09 -1.4859056654724247e-08 0.0000000000000000e+00  -4.1440894344492122e-09 -1.3118706648004941e-08 0.0000000000000000e+00  -4.8349018084163643e-09 -1.0996501765676988e-08 0.0000000000000000e+00  -5.1615592741427388e-09 -8.7885831329451277e-09 0.0000000000000000e+00  -5.2206214056597527e-09 -6.6828910010600867e-09 0.0000000000000000e+00  -5.1333071970542807e-09 -4.7593060010903098e-09 0.0000000000000000e+00  -5.0006790828012531e-09 -3.0209582722471265e-09 0.0000000000000000e+00  -4.8919977934779846e-09 -1.4257032453060064e-09 0.0000000000000000e+00  -4.8464637368066783e-09 9.1432268278697290e-11 0.0000000000000000e+00  -4.8776792538258851e-09 1.6038947390166119e-09 0.0000000000000000e+00  -4.9761446513570965e-09 3.1834342458094994e-09 0.0000000000000000e+00  -5.1085133460230240e-09 4.8900100685194739e-09 0.0000000000000000e+00  -5.2144895325501735e-09 6.7580776769332133e-09 0.0000000000000000e+00  -5.2047438517193441e-09 8.7766571253545313e-09 0.0000000000000000e+00  -4.9676241185119815e-09 1.0864002552625980e-08 0.0000000000000000e+00  -4.4009975699731982e-09 1.2846101151667333e-08 0.0000000000000000e+00  -3.5081594992708459e-09 1.4463219921301713e-08 0.0000000000000000e+00  -2.6985229899671938e-09 1.5452417650259599e-08 0.0000000000000000e+00  -3.8259585169280583e-09 1.6089063178212985e-08 0.0000000000000000e+00  -3.0789754778211998e-09 -1.3532545186072165e-08 0.0000000000000000e+00  -2.3927180556789921e-09 -1.4181432701475380e-08 0.0000000000000000e+00  -3.4760323607920773e-09 -1.3408659751208237e-08 0.0000000000000000e+00  -4.7792563541773473e-09 -1.2050073845258161e-08 0.0000000000000000e+00  -5.8396535162340350e-09 -1.0324261452547041e-08 0.0000000000000000e+00  -6.5748047973118019e-09 -8.4408443808832581e-09 0.0000000000000000e+00  -7.0260139711229278e-09 -6.5551255000909676e-09 0.0000000000000000e+00  -7.2709893755211723e-09 -4.7533306452174468e-09 0.0000000000000000e+00  -7.3857553679298781e-09 -3.0621993217419393e-09 0.0000000000000000e+00  -7.4287411943699582e-09 -1.4668630384749866e-09 0.0000000000000000e+00  -7.4359526830872222e-09 7.2050118655052692e-11 0.0000000000000000e+00  -7.4206737486914285e-09 1.6045005157634072e-09 0.0000000000000000e+00  -7.3740936237738983e-09 3.1793999041185777e-09 0.0000000000000000e+00  -7.2656056267421317e-09 4.8332700460979734e-09 0.0000000000000000e+00  -7.0434839209235437e-09 6.5774322275322960e-09 0.0000000000000000e+00  -6.6386369898156952e-09 8.3833217848064322e-09 0.0000000000000000e+00  -5.9766589767983068e-09 1.0168524882009669e-08 0.0000000000000000e+00  -5.0080619420850511e-09 1.1791130181398210e-08 0.0000000000000000e+00  -3.7841359019348007e-09 1.3066547729096222e-08 0.0000000000000000e+00  -2.7042932082295738e-09 1.3834262726362672e-08 0.0000000000000000e+00  -3.3880659642724210e-09 1.4546795930415046e-08 0.0000000000000000e+00  -2.8212912342751930e-09 -1.1643556167100315e-08 0.0000000000000000e+00  -2.4644071594585329e-09 -1.2350422129334177e-08 0.0000000000000000e+00  -3.7333888870755057e-09 -1.1761595863777045e-08 0.0000000000000000e+00  -5.2394721369371114e-09 -1.0696390037000709e-08 0.0000000000000000e+00  -6.5571105800277110e-09 -9.3038574319071415e-09 0.0000000000000000e+00  -7.5867931988426459e-09 -7.7309331363846808e-09 0.0000000000000000e+00  -8.3337002963287780e-09 -6.0978475836279670e-09 0.0000000000000000e+00  -8.8405037546953197e-09 -4.4826788717975290e-09 0.0000000000000000e+00  -9.1576042206072871e-09 -2.9212813518032824e-09 0.0000000000000000e+00  -9.3279993361625255e-09 -1.4160801168532449e-09 0.0000000000000000e+00  -9.3800893701305650e-09 5.2324848778348904e-11 0.0000000000000000e+00  -9.3248973395277548e-09 1.5136554150168855e-09 0.0000000000000000e+00  -9.1555432003114130e-09 2.9971716145066701e-09 0.0000000000000000e+00  -8.8481095982322202e-09 4.5211943499081485e-09 0.0000000000000000e+00  -8.3643173495831034e-09 6.0825756400357296e-09 0.0000000000000000e+00  -7.6576408858104721e-09 7.6467693454635288e-09 0.0000000000000000e+00  -6.6857974346808924e-09 9.1410581491991354e-09 0.0000000000000000e+00  -5.4357538479200336e-09 1.0455900677863157e-08 0.0000000000000000e+00  -3.9838815444673915e-09 1.1462259256127681e-08 0.0000000000000000e+00  -2.7104807924507649e-09 1.2063867250491097e-08 0.0000000000000000e+00  -3.0595160659085834e-09 1.2828090093180830e-08 0.0000000000000000e+00  -2.6264038959693618e-09 -9.6726830935697741e-09 0.0000000000000000e+00  -2.5211811633579004e-09 -1.0423435678151424e-08 0.0000000000000000e+00  -3.9274051297514841e-09 -9.9765857037228860e-09 0.0000000000000000e+00  -5.5755744508926476e-09 -9.1467829929427823e-09 0.0000000000000000e+00  -7.0716646350025060e-09 -8.0396051555511398e-09 0.0000000000000000e+00  -8.3095831077752355e-09 -6.7577135187199134e-09 0.0000000000000000e+00  -9.2717501577019523e-09 -5.3907877621924208e-09 0.0000000000000000e+00  -9.9750202643996633e-09 -4.0034820982281503e-09 0.0000000000000000e+00  -1.0447981342169773e-08 -2.6320551878258736e-09 0.0000000000000000e+00  -1.0718380700985436e-08 -1.2880495102501227e-09 0.0000000000000000e+00  -1.0805922719348624e-08 3.4390622574978757e-11 0.0000000000000000e+00  -1.0718677190843658e-08 1.3498933626683131e-09 0.0000000000000000e+00  -1.0452042144668746e-08 2.6730381155812483e-09 0.0000000000000000e+00  -9.9897919981642152e-09 4.0097613066720562e-09 0.0000000000000000e+00  -9.3073876772076865e-09 5.3493882175899156e-09 0.0000000000000000e+00  -8.3783175140807177e-09 6.6582688718542148e-09 0.0000000000000000e+00  -7.1849542813638224e-09 7.8769682055782643e-09 0.0000000000000000e+00  -5.7383181444407105e-09 8.9239253873135198e-09 0.0000000000000000e+00  -4.1274957860182095e-09 9.7101659032631950e-09 0.0000000000000000e+00  -2.7136749729508206e-09 1.0180697425628237e-08 0.0000000000000000e+00  -2.8091837978325444e-09 1.0980865595781132e-08 0.0000000000000000e+00  -2.4809758200589939e-09 -7.6417512963602945e-09 0.0000000000000000e+00  -2.5656844989069668e-09 -8.4257071728926691e-09 0.0000000000000000e+00  -4.0725266031576023e-09 -8.0945802959780784e-09 0.0000000000000000e+00  -5.8196329478648680e-09 -7.4623039412417614e-09 0.0000000000000000e+00  -7.4380276127713608e-09 -6.6062731527118620e-09 0.0000000000000000e+00  -8.8199769270548790e-09 -5.5977327890993121e-09 0.0000000000000000e+00  -9.9338714829887613e-09 -4.5015041172669977e-09 0.0000000000000000e+00  -1.0778534045897930e-08 -3.3678801580823510e-09 0.0000000000000000e+00  -1.1365741909276385e-08 -2.2288200264166764e-09 0.0000000000000000e+00  -1.1710386868664320e-08 -1.0990900551238963e-09 0.0000000000000000e+00  -1.1824258978689206e-08 1.9360247282203977e-11 0.0000000000000000e+00  -1.1712564057154879e-08 1.1313734977057038e-09 0.0000000000000000e+00  -1.1372784062862784e-08 2.2419877820223351e-09 0.0000000000000000e+00  -1.0795685494407781e-08 3.3499759442301720e-09 0.0000000000000000e+00  -9.9685000929647967e-09 4.4421858771364796e-09 0.0000000000000000e+00  -8.8805192102286863e-09 5.4896107355739758e-09 0.0000000000000000e+00  -7.5318459772907553e-09 6.4465159400839318e-09 0.0000000000000000e+00  -5.9490205241556607e-09 7.2542540021001792e-09 0.0000000000000000e+00  -4.2275010334730882e-09 7.8528258614462879e-09 0.0000000000000000e+00  -2.7125435032132758e-09 8.2145325915517606e-09 0.0000000000000000e+00  -2.6183511462824329e-09 9.0391503288476135e-09 0.0000000000000000e+00  -2.3769971668458776e-09 -5.5685849653950531e-09 0.0000000000000000e+00  -2.6005744187466200e-09 -6.3774592930570742e-09 0.0000000000000000e+00  -4.1791858460478272e-09 -6.1455360079994662e-09 0.0000000000000000e+00  -5.9933837446689527e-09 -5.6862413843899004e-09 0.0000000000000000e+00  -7.6932169523035792e-09 -5.0578835743640605e-09 0.0000000000000000e+00  -9.1714536694185113e-09 -4.3088525262799847e-09 0.0000000000000000e+00  -1.0388057154569160e-08 -3.4840074971560437e-09 0.0000000000000000e+00  -1.1329826096835786e-08 -2.6200003461420161e-09 0.0000000000000000e+00  -1.1996506209803207e-08 -1.7421519670692610e-09 0.0000000000000000e+00  -1.2393221027713368e-08 -8.6450782459147026e-10 0.0000000000000000e+00  -1.2525444664754551e-08 7.6794622144674997e-12 0.0000000000000000e+00  -1.2395992381595731e-08 8.7401879933370403e-10 0.0000000000000000e+00  -1.2003976485335081e-08 1.7344379301402867e-09 0.0000000000000000e+00  -1.1345689850791520e-08 2.5847058063347193e-09 0.0000000000000000e+00  -1.0417363909714029e-08 3.4126589047839239e-09 0.0000000000000000e+00  -9.2197781249961106e-09 4.1958584042813300e-09 0.0000000000000000e+00  -7.7651581116834558e-09 4.9015184448230448e-09 0.0000000000000000e+00  -6.0898966852206916e-09 5.4896151215491762e-09 0.0000000000000000e+00  -4.2927146581017982e-09 5.9215976482979435e-09 0.0000000000000000e+00  -2.7070181160380629e-09 6.1885051573551877e-09 0.0000000000000000e+00  -2.4754667013618877e-09 7.0286273181830916e-09 0.0000000000000000e+00  -2.3096708438101705e-09 -3.4679820824534227e-09 0.0000000000000000e+00  -2.6282682299349934e-09 -4.2951616044579286e-09 0.0000000000000000e+00  -4.2551000388959932e-09 -4.1521806703655765e-09 0.0000000000000000e+00  -6.1119574602119633e-09 -3.8503121289791147e-09 0.0000000000000000e+00  -7.8625788201907363e-09 -3.4341570321718432e-09 0.0000000000000000e+00  -9.4010186680932320e-09 -2.9347183440919794e-09 0.0000000000000000e+00  -1.0682466114245829e-08 -2.3805046919514351e-09