<?xml version="1.0"?>
<VTKFile type="UnstructuredGrid"  version="0.1"  >
<UnstructuredGrid>
<Piece  NumberOfPoints="651" NumberOfCells="1200">
<Points>
<DataArray  type="Float64"  NumberOfComponents="3"  format="ascii">0 0 0  50000 0 0  100000 0 0  150000 0 0  200000 0 0  250000 0 0  300000 0 0  350000 0 0  400000 0 0  450000 0 0  500000 0 0  550000 0 0  600000 0 0  650000 0 0  700000 0 0  750000 0 0  800000 0 0  850000 0 0  900000 0 0  950000 0 0  1000000 0 0  0 50000 0  50000 50000 0  100000 50000 0  150000 50000 0  200000 50000 0  250000 50000 0  300000 50000 0  350000 50000 0  400000 50000 0  450000 50000 0  500000 50000 0  550000 50000 0  600000 50000 0  650000 50000 0  700000 50000 0  750000 50000 0  800000 50000 0  850000 50000 0  900000 50000 0  950000 50000 0  1000000 50000 0  0 100000 0  50000 100000 0  100000 100000 0  150000 100000 0  200000 100000 0  250000 100000 0  300000 100000 0  350000 100000 0  400000 100000 0  450000 100000 0  500000 100000 0  550000 100000 0  600000 100000 0  650000 100000 0  700000 100000 0  750000 100000 0  800000 100000 0  850000 100000 0  900000 100000 0  950000 100000 0  1000000 100000 0  0 150000 0  50000 150000 0  100000 150000 0  150000 150000 0  200000 150000 0  250000 150000 0  300000 150000 0  350000 150000 0  400000 150000 0  450000 150000 0  500000 150000 0  550000 150000 0  600000 150000 0  650000 150000 0  700000 150000 0  750000 150000 0  800000 150000 0  850000 150000 0  900000 150000 0  950000 150000 0  1000000 150000 0  0 200000 0  50000 200000 0  100000 200000 0  150000 200000 0  200000 200000 0  250000 200000 0  300000 200000 0  350000 200000 0  400000 200000 0  450000 200000 0  500000 200000 0  550000 200000 0  600000 200000 0  650000 200000 0  700000 200000 0  750000 200000 0  800000 200000 0  850000 200000 0  900000 200000 0  950000 200000 0  1000000 200000 0  0 250000 0  50000 250000 0  100000 250000 0  150000 250000 0  200000 250000 0  250000 250000 0  300000 250000 0  350000 250000 0  400000 250000 0  450000 250000 0  500000 250000 0  550000 250000 0  600000 250000 0  650000 250000 0  700000 250000 0  750000 250000 0  800000 250000 0  850000 250000 0  900000 250000 0  950000 250000 0  1000000 250000 0  0 300000 0  50000 300000 0  100000 300000 0  150000 300000 0  200000 300000 0  250000 300000 0  300000 300000 0  350000 300000 0  400000 300000 0  450000 300000 0  500000 300000 0  550000 300000 0  600000 300000 0  650000 300000 0  700000 300000 0  750000 300000 0  800000 300000 0  850000 300000 0  900000 300000 0  950000 300000 0  1000000 300000 0  0 350000 0  50000 350000 0  100000 350000 0  150000 350000 0  200000 350000 0  250000 350000 0  300000 350000 0  350000 350000 0  400000 350000 0  450000 350000 0  500000 350000 0  550000 350000 0  600000 350000 0  650000 350000 0  700000 350000 0  750000 350000 0  800000 350000 0  850000 350000 0  900000 350000 0  950000 350000 0  1000000 350000 0  0 400000 0  50000 400000 0  100000 400000 0  150000 400000 0  200000 400000 0  250000 400000 0  300000 400000 0  350000 400000 0  400000 400000 0  450000 400000 0  500000 400000 0  550000 400000 0  600000 400000 0  650000 400000 0  700000 400000 0  750000 400000 0  800000 400000 0  850000 400000 0  900000 400000 0  950000 400000 0  1000000 400000 0  0 450000 0  50000 450000 0  100000 450000 0  150000 450000 0  200000 450000 0  250000 450000 0  300000 450000 0  350000 450000 0  400000 450000 0  450000 450000 0  500000 450000 0  550000 450000 0  600000 450000 0  650000 450000 0  700000 450000 0  750000 450000 0  800000 450000 0  850000 450000 0  900000 450000 0  950000 450000 0  1000000 450000 0  0 500000 0  50000 500000 0  100000 500000 0  150000 500000 0  200000 500000 0  250000 500000 0  300000 500000 0  350000 500000 0  400000 500000 0  450000 500000 0  500000 500000 0  550000 500000 0  600000 500000 0  650000 500000 0  700000 500000 0  750000 500000 0  800000 500000 0  850000 500000 0  900000 500000 0  950000 500000 0  1000000 500000 0  0 550000 0  50000 550000 0  100000 550000 0  150000 550000 0  200000 550000 0  250000 550000 0  300000 550000 0  350000 550000 0  400000 550000 0  450000 550000 0  500000 550000 0  550000 550000 0  600000 550000 0  650000 550000 0  700000 550000 0  750000 550000 0  800000 550000 0  850000 550000 0  900000 550000 0  950000 550000 0  1000000 550000 0  0 600000 0  50000 600000 0  100000 600000 0  150000 600000 0  200000 600000 0  250000 600000 0  300000 600000 0  350000 600000 0  400000 600000 0  450000 600000 0  500000 600000 0  550000 600000 0  600000 600000 0  650000 600000 0  700000 600000 0  750000 600000 0  800000 600000 0  850000 600000 0  900000 600000 0  950000 600000 0  1000000 600000 0  0 650000 0  50000 650000 0  100000 650000 0  150000 650000 0  200000 650000 0  250000 650000 0  300000 650000 0  350000 650000 0  400000 650000 0  450000 650000 0  500000 650000 0  550000 650000 0  600000 650000 0  650000 650000 0  700000 650000 0  750000 650000 0  800000 650000 0  850000 650000 0  900000 650000 0  950000 650000 0  1000000 650000 0  0 700000 0  50000 700000 0  100000 700000 0  150000 700000 0  200000 700000 0  250000 700000 0  300000 700000 0  350000 700000 0  400000 700000 0  450000 700000 0  500000 700000 0  550000 700000 0  600000 700000 0  650000 700000 0  700000 700000 0  750000 700000 0  800000 700000 0  850000 700000 0  900000 700000 0  950000 700000 0  1000000 700000 0  0 750000 0  50000 750000 0  100000 750000 0  150000 750000 0  200000 750000 0  250000 750000 0  300000 750000 0  350000 750000 0  400000 750000 0  450000 750000 0  500000 750000 0  550000 750000 0  600000 750000 0  650000 750000 0  700000 750000 0  750000 750000 0  800000 750000 0  850000 750000 0  900000 750000 0  950000 750000 0  1000000 750000 0  0 800000 0  50000 800000 0  100000 800000 0  150000 800000 0  200000 800000 0  250000 800000 0  300000 800000 0  350000 800000 0  400000 800000 0  450000 800000 0  500000 800000 0  550000 800000 0  600000 800000 0  650000 800000 0  700000 800000 0  750000 800000 0  800000 800000 0  850000 800000 0  900000 800000 0  950000 800000 0  1000000 800000 0  0 850000 0  50000 850000 0  100000 850000 0  150000 850000 0  200000 850000 0  250000 850000 0  300000 850000 0  350000 850000 0  400000 850000 0  450000 850000 0  500000 850000 0  550000 850000 0  600000 850000 0  650000 850000 0  700000 850000 0  750000 850000 0  800000 850000 0  850000 850000 0  900000 850000 0  950000 850000 0  1000000 850000 0  0 900000 0  50000 900000 0  100000 900000 0  150000 900000 0  200000 900000 0  250000 900000 0  300000 900000 0  350000 900000 0  400000 900000 0  450000 900000 0  500000 900000 0  550000 900000 0  600000 900000 0  650000 900000 0  700000 900000 0  750000 900000 0  800000 900000 0  850000 900000 0  900000 900000 0  950000 900000 0  1000000 900000 0  0 950000 0  50000 950000 0  100000 950000 0  150000 950000 0  200000 950000 0  250000 950000 0  300000 950000 0  350000 950000 0  400000 950000 0  450000 950000 0  500000 950000 0  550000 950000 0  600000 950000 0  650000 950000 0  700000 950000 0  750000 950000 0  800000 950000 0  850000 950000 0  900000 950000 0  950000 950000 0  1000000 950000 0  0 1000000 0  50000 1000000 0  100000 1000000 0  150000 1000000 0  200000 1000000 0  250000 1000000 0  300000 1000000 0  350000 1000000 0  400000 1000000 0  450000 1000000 0  500000 1000000 0  550000 1000000 0  600000 1000000 0  650000 1000000 0  700000 1000000 0  750000 1000000 0  800000 1000000 0  850000 1000000 0  900000 1000000 0  950000 1000000 0  1000000 1000000 0  0 1050000 0  50000 1050000 0  100000 1050000 0  150000 1050000 0  200000 1050000 0  250000 1050000 0  300000 1050000 0  350000 1050000 0  400000 1050000 0  450000 1050000 0  500000 1050000 0  550000 1050000 0  600000 1050000 0  650000 1050000 0  700000 1050000 0  750000 1050000 0  800000 1050000 0  850000 1050000 0  900000 1050000 0  950000 1050000 0  1000000 1050000 0  0 1100000 0  50000 1100000 0  100000 1100000 0  150000 1100000 0  200000 1100000 0  250000 1100000 0  300000 1100000 0  350000 1100000 0  400000 1100000 0  450000 1100000 0  500000 1100000 0  550000 1100000 0  600000 1100000 0  650000 1100000 0  700000 1100000 0  750000 1100000 0  800000 1100000 0  850000 1100000 0  900000 1100000 0  950000 1100000 0  1000000 1100000 0  0 1150000 0  50000 1150000 0  100000 1150000 0  150000 1150000 0  200000 1150000 0  250000 1150000 0  300000 1150000 0  350000 1150000 0  400000 1150000 0  450000 1150000 0  500000 1150000 0  550000 1150000 0  600000 1150000 0  650000 1150000 0  700000 1150000 0  750000 1150000 0  800000 1150000 0  850000 1150000 0  900000 1150000 0  950000 1150000 0  1000000 1150000 0  0 1200000 0  50000 1200000 0  100000 1200000 0  150000 1200000 0  200000 1200000 0  250000 1200000 0  300000 1200000 0  350000 1200000 0  400000 1200000 0  450000 1200000 0  500000 1200000 0  550000 1200000 0  600000 1200000 0  650000 1200000 0  700000 1200000 0  750000 1200000 0  800000 1200000 0  850000 1200000 0  900000 1200000 0  950000 1200000 0  1000000 1200000 0  0 1250000 0  50000 1250000 0  100000 1250000 0  150000 1250000 0  200000 1250000 0  250000 1250000 0  300000 1250000 0  350000 1250000 0  400000 1250000 0  450000 1250000 0  500000 1250000 0  550000 1250000 0  600000 1250000 0  650000 1250000 0  700000 1250000 0  750000 1250000 0  800000 1250000 0  850000 1250000 0  900000 1250000 0  950000 1250000 0  1000000 1250000 0  0 1300000 0  50000 1300000 0  100000 1300000 0  150000 1300000 0  200000 1300000 0  250000 1300000 0  300000 1300000 0  350000 1300000 0  400000 1300000 0  450000 1300000 0  500000 1300000 0  550000 1300000 0  600000 1300000 0  650000 1300000 0  700000 1300000 0  750000 1300000 0  800000 1300000 0  850000 1300000 0  900000 1300000 0  950000 1300000 0  1000000 1300000 0  0 1350000 0  50000 1350000 0  100000 1350000 0  150000 1350000 0  200000 1350000 0  250000 1350000 0  300000 1350000 0  350000 1350000 0  400000 1350000 0  450000 1350000 0  500000 1350000 0  550000 1350000 0  600000 1350000 0  650000 1350000 0  700000 135
[...]
<PointData  Vectors="f_19"> 
<DataArray  type="Float64"  Name="f_19"  NumberOfComponents="3" format="ascii">-2.4427244691138333e-08 -1.0289628409929384e-08 0.0000000000000000e+00  4.8638911024949936e-08 -6.3776614163276252e-09 0.0000000000000000e+00  4.2924283338481448e-08 -2.0888629650102227e-09 0.0000000000000000e+00  4.0481955290443211e-08 -7.3505934564306047e-10 0.0000000000000000e+00  3.9287864884916672e-08 -2.7191549715351196e-10 0.0000000000000000e+00  3.8509695533574757e-08 -8.1525595805191785e-11 0.0000000000000000e+00  3.7950943190557504e-08 3.3729877311080027e-12 0.0000000000000000e+00  3.7554995708158490e-08 4.0136584681282569e-11 0.0000000000000000e+00  3.7304182275337489e-08 5.3293312425441074e-11 0.0000000000000000e+00  3.7194076365278498e-08 5.6007717985904458e-11 0.0000000000000000e+00  3.7225759260311308e-08 5.7421435515393210e-11 0.0000000000000000e+00  3.7404055881429621e-08 6.5977181631779791e-11 0.0000000000000000e+00  3.7739121712367937e-08 9.1939098968282443e-11 0.0000000000000000e+00  3.8252481018764422e-08 1.5093395002759465e-10 0.0000000000000000e+00  3.8993091710597807e-08 2.7126029361193419e-10 0.0000000000000000e+00  4.0079860262590882e-08 5.1199704757280577e-10 0.0000000000000000e+00  4.1813985682851848e-08 1.0116469986841748e-09 0.0000000000000000e+00  4.4942336001021768e-08 2.1147759323368236e-09 0.0000000000000000e+00  5.0794565619190325e-08 4.6388375188972105e-09 0.0000000000000000e+00  5.8041056278315731e-08 9.1512599155330809e-09 0.0000000000000000e+00  -1.6412317396709525e-08 7.0454709627134310e-09 0.0000000000000000e+00  -1.8194139855909474e-08 -1.5845714669839365e-08 0.0000000000000000e+00  7.2314101283948394e-09 -1.1288413592460539e-08 0.0000000000000000e+00  1.8118340046899926e-08 -5.2536259269096413e-09 0.0000000000000000e+00  2.3189992749670562e-08 -2.3992478328431840e-09 0.0000000000000000e+00  2.5789001711347048e-08 -1.1445200844528039e-09 0.0000000000000000e+00  2.7260011780217666e-08 -5.5319349693357603e-10 0.0000000000000000e+00  2.8116212198865403e-08 -2.5706519087448304e-10 0.0000000000000000e+00  2.8617747256671309e-08 -1.0593287508554641e-10 0.0000000000000000e+00  2.8908224648673384e-08 -3.0781731680557970e-11 0.0000000000000000e+00  2.9067833706469241e-08 5.7218919396343904e-12 0.0000000000000000e+00  2.9138479777673886e-08 2.8124762850035617e-11 0.0000000000000000e+00  2.9135302216214053e-08 5.6894270485713838e-11 0.0000000000000000e+00  2.9050665908132308e-08 1.1418923249951208e-10 0.0000000000000000e+00  2.8852629003134152e-08 2.3047350376542695e-10 0.0000000000000000e+00  2.8476877452001432e-08 4.5630980272553053e-10 0.0000000000000000e+00  2.7806083627940051e-08 8.8827292260057411e-10 0.0000000000000000e+00  2.6614649719532996e-08 1.7298372377691727e-09 0.0000000000000000e+00  2.4391339249776697e-08 3.4271732852424296e-09 0.0000000000000000e+00  1.9692176512065849e-08 6.8707336274209465e-09 0.0000000000000000e+00  8.2708841386129626e-09 1.3024562239218847e-08 0.0000000000000000e+00  -1.8381208542527793e-08 1.0975780918458204e-08 0.0000000000000000e+00  -1.1223273672287426e-08 -1.9450816862841895e-08 0.0000000000000000e+00  -2.7096700143656020e-10 -1.8455792144522244e-08 0.0000000000000000e+00  5.8327809052315911e-09 -1.1358341355794278e-08 0.0000000000000000e+00  1.0711176241464752e-08 -6.5841303589741699e-09 0.0000000000000000e+00  1.4525485614887460e-08 -3.8201943392448632e-09 0.0000000000000000e+00  1.7174107447991130e-08 -2.2467624854273869e-09 0.0000000000000000e+00  1.8945733951288910e-08 -1.3249233222781757e-09 0.0000000000000000e+00  2.0105798506665039e-08 -7.6405152034579356e-10 0.0000000000000000e+00  2.0833620772111806e-08 -4.0528276528525379e-10 0.0000000000000000e+00  2.1239683959798101e-08 -1.5432822275370450e-10 0.0000000000000000e+00  2.1384026913791564e-08 5.3053823851966754e-11 0.0000000000000000e+00  2.1287260952274095e-08 2.6994353435027716e-10 0.0000000000000000e+00  2.0934562091364942e-08 5.5140306919142972e-10 0.0000000000000000e+00  2.0273282791441278e-08 9.6810899362422271e-10 0.0000000000000000e+00  1.9203589963193235e-08 1.6264079565263121e-09 0.0000000000000000e+00  1.7560219399017498e-08 2.7025104315464792e-09 0.0000000000000000e+00  1.5083989724910358e-08 4.4972585843547152e-09 0.0000000000000000e+00  1.1393311859054020e-08 7.4846556647512053e-09 0.0000000000000000e+00  6.0227311771456795e-09 1.2131338075706929e-08 0.0000000000000000e+00  -1.2877851468488202e-09 1.7584688923994399e-08 0.0000000000000000e+00  -1.3215369008451029e-08 1.4718363435761862e-08 0.0000000000000000e+00  -7.5295192357184505e-09 -2.0075710126651610e-08 0.0000000000000000e+00  -1.5570355223138067e-09 -1.9880497158623906e-08 0.0000000000000000e+00  1.1268871521682132e-09 -1.5320582208575363e-08 0.0000000000000000e+00  3.8937769288058113e-09 -1.0456693220215969e-08 0.0000000000000000e+00  6.7843340237690617e-09 -6.8811378896175952e-09 0.0000000000000000e+00  9.3010511147623729e-09 -4.4688600054007907e-09 0.0000000000000000e+00  1.1243347227278984e-08 -2.8651131562566159e-09 0.0000000000000000e+00  1.2634197154019732e-08 -1.7795836471003941e-09 0.0000000000000000e+00  1.3557309255856115e-08 -1.0121012274021646e-09 0.0000000000000000e+00  1.4087094663788411e-08 -4.2481468175408779e-10 0.0000000000000000e+00  1.4270771807081476e-08 8.4930304155691203e-11 0.0000000000000000e+00  1.4125621751284378e-08 6.0475112250972619e-10 0.0000000000000000e+00  1.3639161328845360e-08 1.2232371804100833e-09 0.0000000000000000e+00  1.2769366826211297e-08 2.0454388790011115e-09 0.0000000000000000e+00  1.1446175689352915e-08 3.2104161874642761e-09 0.0000000000000000e+00  9.5804677370906387e-09 4.9092396291096502e-09 0.0000000000000000e+00  7.0973787135246393e-09 7.3856330639371839e-09 0.0000000000000000e+00  4.0280716995359883e-09 1.0848775063629659e-08 0.0000000000000000e+00  6.6620228044844983e-10 1.5106935709669230e-08 0.0000000000000000e+00  -2.6241277006512701e-09 1.8747298586892610e-08 0.0000000000000000e+00  -8.9148491448118337e-09 1.7555245422091314e-08 0.0000000000000000e+00  -5.6642269616573024e-09 -1.9484918611401774e-08 0.0000000000000000e+00  -1.8924445435063877e-09 -1.9615794822420051e-08 0.0000000000000000e+00  -9.1771856220883311e-10 -1.6724958124412337e-08 0.0000000000000000e+00  2.1391308263542171e-10 -1.2824981731888815e-08 0.0000000000000000e+00  1.8462129837346353e-09 -9.2784196567486583e-09 0.0000000000000000e+00  3.6144206096667281e-09 -6.4940611228795830e-09 0.0000000000000000e+00  5.1955034592325685e-09 -4.4178089056780669e-09 0.0000000000000000e+00  6.4443977471326304e-09 -2.8771241927179856e-09 0.0000000000000000e+00  7.3268737151896221e-09 -1.7014787762187541e-09 0.0000000000000000e+00  7.8519967457972388e-09 -7.4738606802972341e-10 0.0000000000000000e+00  8.0355945484978621e-09 1.0565967109496575e-10 0.0000000000000000e+00  7.8852250653513924e-09 9.6605888774684096e-10 0.0000000000000000e+00  7.3960225771584226e-09 1.9415529463427879e-09 0.0000000000000000e+00  6.5533171560156183e-09 3.1495138583818391e-09 0.0000000000000000e+00  5.3432668310917333e-09 4.7235298298391258e-09 0.0000000000000000e+00  3.7775469565225527e-09 6.8077221432744430e-09 0.0000000000000000e+00  1.9414560974540779e-09 9.5154383819842547e-09 0.0000000000000000e+00  6.2476642178828565e-11 1.2804562609886614e-08 0.0000000000000000e+00  -1.4940747523845043e-09 1.6223454277882325e-08 0.0000000000000000e+00  -2.7368429735976103e-09 1.8690642808514442e-08 0.0000000000000000e+00  -6.6292964821354204e-09 1.8536257273320890e-08 0.0000000000000000e+00  -4.6043952218059902e-09 -1.8353495156851346e-08 0.0000000000000000e+00  -2.0643319497685485e-09 -1.8688420273498700e-08 0.0000000000000000e+00  -1.9923574742682714e-09 -1.6740925939593790e-08 0.0000000000000000e+00  -1.9086186356003757e-09 -1.3783526701174548e-08 0.0000000000000000e+00  -1.3148546879068781e-09 -1.0678157827728803e-08 0.0000000000000000e+00  -3.7908627201358168e-10 -7.9202292647782453e-09 0.0000000000000000e+00  6.3196523470083153e-10 -5.6461919955655217e-09 0.0000000000000000e+00  1.5286086053250748e-09 -3.8152688306771985e-09 0.0000000000000000e+00  2.2105700950925274e-09 -2.3231573932420114e-09 0.0000000000000000e+00  2.6347812977420330e-09 -1.0524964972126507e-09 0.0000000000000000e+00  2.7864191086539091e-09 1.1116433470382201e-10 0.0000000000000000e+00  2.6623796239654538e-09 1.2776954909448332e-09 0.0000000000000000e+00  2.2655118752289724e-09 2.5551518650020172e-09 0.0000000000000000e+00  1.6076838384937377e-09 4.0515429649547707e-09 0.0000000000000000e+00  7.2183699856627849e-10 5.8701423078804873e-09 0.0000000000000000e+00  -3.1577634631096518e-10 8.0892988777970693e-09 0.0000000000000000e+00  -1.3562641262769072e-09 1.0712247764631687e-08 0.0000000000000000e+00  -2.1661860148611462e-09 1.3573964015266723e-08 0.0000000000000000e+00  -2.5258355636373924e-09 1.6230222176338050e-08 0.0000000000000000e+00  -2.7156221972424045e-09 1.7985112912317851e-08 0.0000000000000000e+00  -5.2914970567054632e-09 1.8287369505928318e-08 0.0000000000000000e+00  -3.9271809862127107e-09 -1.6923005356417647e-08 0.0000000000000000e+00  -2.1955929004359068e-09 -1.7399062096673808e-08 0.0000000000000000e+00  -2.6620088633019469e-09 -1.6017527941932728e-08 0.0000000000000000e+00  -3.2404922378595005e-09 -1.3768458612109977e-08 0.0000000000000000e+00  -3.4024746229685358e-09 -1.1181219327847469e-08 0.0000000000000000e+00  -3.1789628247165918e-09 -8.6608952505788770e-09 0.0000000000000000e+00  -2.7443303369984122e-09 -6.4051339716968472e-09 0.0000000000000000e+00  -2.2644577020196284e-09 -4.4577860525873347e-09 0.0000000000000000e+00  -1.8546307926550928e-09 -2.7784332450557497e-09 0.0000000000000000e+00  -1.5823709660745587e-09 -1.2886757703652473e-09 0.0000000000000000e+00  -1.4811896322224103e-09 1.0389820148530759e-10 0.0000000000000000e+00  -1.5616395025069694e-09 1.4949548293108704e-09 0.0000000000000000e+00  -1.8159502392133514e-09 2.9780890778388616e-09 0.0000000000000000e+00  -2.2159406007370699e-09 4.6390867320564075e-09 0.0000000000000000e+00  -2.7048697446941653e-09 6.5443645572375890e-09 0.0000000000000000e+00  -3.1856673119343317e-09 8.7176582758126062e-09 0.0000000000000000e+00  -3.5139320576703990e-09 1.1100295048002533e-08 0.0000000000000000e+00  -3.5196524584915767e-09 1.3500190998800558e-08 0.0000000000000000e+00  -3.1195151268028361e-09 1.5563775793350617e-08 0.0000000000000000e+00  -2.7009379404287615e-09 1.6861150497150956e-08 0.0000000000000000e+00  -4.4267412189399040e-09 1.7379813156309581e-08 0.0000000000000000e+00  -3.4569890073402082e-09 -1.5293243229776340e-08 0.0000000000000000e+00  -2.3040500161494319e-09 -1.5871168180804034e-08 0.0000000000000000e+00  -3.1275831246548769e-09 -1.4853939457329431e-08 0.0000000000000000e+00  -4.1379803238052786e-09 -1.3118894703926957e-08 0.0000000000000000e+00  -4.8301411971546174e-09 -1.1000035549209902e-08 0.0000000000000000e+00  -5.1584785156307714e-09 -8.7938379369060019e-09 0.0000000000000000e+00  -5.2190965685997132e-09 -6.6886794186791435e-09 0.0000000000000000e+00  -5.1330568742779928e-09 -4.7648465475068444e-09 0.0000000000000000e+00  -5.0014032025674114e-09 -3.0257892246108185e-09 0.0000000000000000e+00  -4.8934363576928687e-09 -1.4295930300117611e-09 0.0000000000000000e+00  -4.8484131011532204e-09 8.8557246446581709e-11 0.0000000000000000e+00  -4.8799880864709714e-09 1.6020010646352364e-09 0.0000000000000000e+00  -4.9787014222630734e-09 3.1824143352691509e-09 0.0000000000000000e+00  -5.1112307291760806e-09 4.8897013892555784e-09 0.0000000000000000e+00  -5.2172875745595759e-09 6.7582721389386165e-09 0.0000000000000000e+00  -5.2075321658739864e-09 8.7771030165588700e-09 0.0000000000000000e+00  -4.9702829800308319e-09 1.0864398989342215e-08 0.0000000000000000e+00  -4.4033587318938030e-09 1.2846076394130160e-08 0.0000000000000000e+00  -3.5099880522394335e-09 1.4462250880255394e-08 0.0000000000000000e+00  -2.7002461385502153e-09 1.5448849164315690e-08 0.0000000000000000e+00  -3.8269375760083411e-09 1.6087464480588805e-08 0.0000000000000000e+00  -3.1131003935291192e-09 -1.3517901936422704e-08 0.0000000000000000e+00  -2.3931586791397565e-09 -1.4171343288405246e-08 0.0000000000000000e+00  -3.4698534058362847e-09 -1.3403918936222429e-08 0.0000000000000000e+00  -4.7723165861738180e-09 -1.2049345681814390e-08 0.0000000000000000e+00  -5.8335971725026670e-09 -1.0326327338955061e-08 0.0000000000000000e+00  -6.5701446864020102e-09 -8.4445503761766271e-09 0.0000000000000000e+00  -7.0228204265242834e-09 -6.5595257481101379e-09 0.0000000000000000e+00  -7.2691266220440972e-09 -4.7577326365795664e-09 0.0000000000000000e+00  -7.3850074580797161e-09 -3.0661461621410131e-09 0.0000000000000000e+00  -7.4288815139406537e-09 -1.4700904296891764e-09 0.0000000000000000e+00  -7.4367771591171855e-09 6.9658996040980451e-11 0.0000000000000000e+00  -7.4220118835426204e-09 1.6029519947873939e-09 0.0000000000000000e+00  -7.3758069998023393e-09 3.1786159832944319e-09 0.0000000000000000e+00  -7.2675795987166385e-09 4.8331043471579939e-09 0.0000000000000000e+00  -7.0456154372775235e-09 6.5776774209487708e-09 0.0000000000000000e+00  -6.6408199382300043e-09 8.3837099538199500e-09 0.0000000000000000e+00  -5.9787681452297485e-09 1.0168720734611545e-08 0.0000000000000000e+00  -5.0099396039120321e-09 1.1790708628573294e-08 0.0000000000000000e+00  -3.7856011738826674e-09 1.3064911214904165e-08 0.0000000000000000e+00  -2.7060893013270184e-09 1.3829597205770841e-08 0.0000000000000000e+00  -3.3908617376807861e-09 1.4544047514295449e-08 0.0000000000000000e+00  -2.8543501349051427e-09 -1.1632981698982382e-08 0.0000000000000000e+00  -2.4650053468814461e-09 -1.2343248515913373e-08 0.0000000000000000e+00  -3.7272081668537291e-09 -1.1757620400495034e-08 0.0000000000000000e+00  -5.2322052815542117e-09 -1.0695207787974256e-08 0.0000000000000000e+00  -6.5503421063808661e-09 -9.3048158321903163e-09 0.0000000000000000e+00  -7.5811123360794325e-09 -7.7332876265592850e-09 0.0000000000000000e+00  -8.3292987332063689e-09 -6.1009084492497365e-09 0.0000000000000000e+00  -8.8373594367325271e-09 -4.4858874473833929e-09 0.0000000000000000e+00  -9.1555842747883746e-09 -2.9242321949099315e-09 0.0000000000000000e+00  -9.3269263015500168e-09 -1.4185125162072894e-09 0.0000000000000000e+00  -9.3797807204663028e-09 5.0547357485903620e-11 0.0000000000000000e+00  -9.3251856506115094e-09 1.5125663394311004e-09 0.0000000000000000e+00  -9.1562832754733756e-09 2.9967182177751438e-09 0.0000000000000000e+00  -8.8491771478241806e-09 4.5212479178271509e-09 0.0000000000000000e+00  -8.3656021343248166e-09 6.0829352062064741e-09 0.0000000000000000e+00  -7.6590361017004873e-09 7.6471593693881119e-09 0.0000000000000000e+00  -6.6871871454419170e-09 9.1411196752836025e-09 0.0000000000000000e+00  -5.4370055781207587e-09 1.0455167187163616e-08 0.0000000000000000e+00  -3.9848851932073421e-09 1.1460070417535331e-08 0.0000000000000000e+00  -2.7123216621314479e-09 1.2058272208211526e-08 0.0000000000000000e+00  -3.0643389177971609e-09 1.2824320777747100e-08 0.0000000000000000e+00  -2.6579724751698409e-09 -9.6657583909319558e-09 0.0000000000000000e+00  -2.5219532366719558e-09 -1.0419062866263271e-08 0.0000000000000000e+00  -3.9214550830165182e-09 -9.9735907668199649e-09 0.0000000000000000e+00  -5.5683544504339880e-09 -9.1454867761897796e-09 0.0000000000000000e+00  -7.0646429563312663e-09 -8.0397860179573408e-09 0.0000000000000000e+00  -8.3033570012005117e-09 -6.7589640574379117e-09 0.0000000000000000e+00  -9.2665741144257977e-09 -5.3926564384657575e-09 0.0000000000000000e+00  -9.9709492625125295e-09 -4.0055579636012234e-09 0.0000000000000000e+00  -1.0444950610315641e-08 -2.6340101040491762e-09 0.0000000000000000e+00  -1.0716262597421226e-08 -1.2896519697867848e-09 0.0000000000000000e+00  -1.0804565852207346e-08 3.3276927423805725e-11 0.0000000000000000e+00  -1.0717930718677882e-08 1.3493166149685950e-09 0.0000000000000000e+00  -1.0451768614855971e-08 2.6729651825623621e-09 0.0000000000000000e+00  -9.9898717421688744e-09 4.0100811969578665e-09 0.0000000000000000e+00  -9.3077170050066551e-09 5.3499109263210596e-09 0.0000000000000000e+00  -8.3788023113658288e-09 6.6587192707064956e-09 0.0000000000000000e+00  -7.1855011555318940e-09 7.8769739846326981e-09 0.0000000000000000e+00  -5.7388334126968212e-09 8.9229897426359972e-09 0.0000000000000000e+00  -4.1279566842069475e-09 9.7075762847941230e-09 0.0000000000000000e+00  -2.7155344527065133e-09 1.0174389181918574e-08 0.0000000000000000e+00  -2.8162249887601780e-09 1.0976257078552988e-08 0.0000000000000000e+00  -2.5106911540423457e-09 -7.6380262225627429e-09 0.0000000000000000e+00  -2.5666341756756754e-09 -8.4239220120773728e-09 0.0000000000000000e+00  -4.0669795525033159e-09 -8.0926556735598561e-09 0.0000000000000000e+00  -5.8127410700128324e-09 -7.4611304483105423e-09 0.0000000000000000e+00  -7.4311115961011451e-09 -6.6059556177732572e-09 0.0000000000000000e+00  -8.8135989728513532e-09 -5.5981331566151041e-09 0.0000000000000000e+00  -9.9283058039484105e-09 -4.5023775204068798e-09 0.0000000000000000e+00  -1.0773879578135503e-08 -3.3689584552885261e-09 0.0000000000000000e+00  -1.1361982296432455e-08 -2.2298620442002333e-09 0.0000000000000000e+00  -1.1707436517386746e-08 -1.0999081438301628e-09 0.0000000000000000e+00  -1.1821998367445243e-08 1.8888543900892255e-11 0.0000000000000000e+00  -1.1710864805113959e-08 1.1313012574158086e-09 0.0000000000000000e+00  -1.1371525012270750e-08 2.2422966352524609e-09 0.0000000000000000e+00  -1.0794761367044268e-08 3.3505727007676075e-09 0.0000000000000000e+00  -9.9678240789256653e-09 4.4428959531634327e-09 0.0000000000000000e+00  -8.8800206211404773e-09 5.4901674145977272e-09 0.0000000000000000e+00  -7.5314652379103814e-09 6.4465439621070356e-09 0.0000000000000000e+00  -5.9487151352578335e-09 7.2532376830055579e-09 0.0000000000000000e+00  -4.2273521122514590e-09 7.8500118289215690e-09 0.0000000000000000e+00  -2.7143957805933088e-09 8.2077693560106565e-09 0.0000000000000000e+00  -2.6277783002005438e-09 9.0339374715228449e-09 0.0000000000000000e+00  -2.4045603280664771e-09 -5.5675868647877109e-09 0.0000000000000000e+00  -2.6016975250977168e-09 -6.3779802496123158e-09 0.0000000000000000e+00  -4.1741699389302342e-09 -6.1446802123740772e-09 0.0000000000000000e+00  -5.9870318328894757e-09 -5.6853433000710262e-09 0.0000000000000000e+00  -7.6866855582868222e-09 -5.0572922586064626e-09 0.0000000000000000e+00  -9.1652436946581301e-09 -4.3086400007819852e-09 0.0000000000000000e+00  -1.0382432389043786e-08 -3.4841004774788297e-09 0.0000000000000000e+00  -1.1324902613559617e-08 -2.6202587447284411e-09 0.0000000000000000e+00  -1.1992296534736782e-08 -1.7424204100853349e-09 0.0000000000000000e+00  -1.2389670068545578e-08 -8.6464826410287696e-10 0.0000000000000000e+00  -1.2522459967059682e-08 7.7680825969181731e-12 0.0000000000000000e+00  -1.2393468085163454e-08 8.7438837286798955e-10 0.0000000000000000e+00  -1.2001810941309721e-08 1.7350820173849062e-09 0.0000000000000000e+00  -1.1343797344388390e-08 2.5855501642731438e-09 0.0000000000000000e+00  -1.0415681003723527e-08 3.4135495325333377e-09 0.0000000000000000e+00  -9.2182651899782639e-09 4.1965457053898620e-09 0.0000000000000000e+00  -7.7637983611096679e-09 4.9016355719538990e-09 0.0000000000000000e+00  -6.0887098680963834e-09 5.4886404010227343e-09 0.0000000000000000e+00  -4.2919019440443722e-09 5.9187508631645455e-09 0.0000000000000000e+00  -2.7088371688513666e-09 6.1815811203298512e-09 0.0000000000000000e+00  -2.4874183145771198e-09 7.0230973617896471e-09 0.0000000000000000e+00  -2.3348485223612227e-09 -3.4692259926528821e-09 0.0000000000000000e+00  -2.6295548657145843e-09 -4.2976608110141093e-09 0.0000000000000000e+00  -4.2507080794985749e-09 -4.1523254504263190e-09 0.0000000000000000e+00  -6.1063025949738305e-09 -3.8497747178650489e-09 0.0000000000000000e+00  -7.8566461802915139e-09 -3.4334646160698045e-09 0.0000000000000000e+00  -9.3952327695500726e-09 -2.9341025742882363e-09 0.0000000000000000e+00  -1.0677060098773714e-08 -2.3800298878373274e-09 