<?xml version="1.0"?>
<VTKFile type="UnstructuredGrid"  version="0.1"  >
<UnstructuredGrid>
<Piece  NumberOfPoints="651" NumberOfCells="1200">
<Points>
<DataArray  type="Float64"  NumberOfComponents="3"  format="ascii">0 0 0  50000 0 0  100000 0 0  150000 0 0  200000 0 0  250000 0 0  300000 0 0  350000 0 0  400000 0 0  450000 0 0  500000 0 0  550000 0 0  600000 0 0  650000 0 0  700000 0 0  750000 0 0  800000 0 0  850000 0 0  900000 0 0  950000 0 0  1000000 0 0  0 50000 0  50000 50000 0  100000 50000 0  150000 50000 0  200000 50000 0  250000 50000 0  300000 50000 0  350000 50000 0  400000 50000 0  450000 50000 0  500000 50000 0  550000 50000 0  600000 50000 0  650000 50000 0  700000 50000 0  750000 50000 0  800000 50000 0  850000 50000 0  900000 50000 0  950000 50000 0  1000000 50000 0  0 100000 0  50000 100000 0  100000 100000 0  150000 100000 0  200000 100000 0  250000 100000 0  300000 100000 0  350000 100000 0  400000 100000 0  450000 100000 0  500000 100000 0  550000 100000 0  600000 100000 0  650000 100000 0  700000 100000 0  750000 100000 0  800000 100000 0  850000 100000 0  900000 100000 0  950000 100000 0  1000000 100000 0  0 150000 0  50000 150000 0  100000 150000 0  150000 150000 0  200000 150000 0  250000 150000 0  300000 150000 0  350000 150000 0  400000 150000 0  450000 150000 0  500000 150000 0  550000 150000 0  600000 150000 0  650000 150000 0  700000 150000 0  750000 150000 0  800000 150000 0  850000 150000 0  900000 150000 0  950000 150000 0  1000000 150000 0  0 200000 0  50000 200000 0  100000 200000 0  150000 200000 0  200000 200000 0  250000 200000 0  300000 200000 0  350000 200000 0  400000 200000 0  450000 200000 0  500000 200000 0  550000 200000 0  600000 200000 0  650000 200000 0  700000 200000 0  750000 200000 0  800000 200000 0  850000 200000 0  900000 200000 0  950000 200000 0  1000000 200000 0  0 250000 0  50000 250000 0  100000 250000 0  150000 250000 0  200000 250000 0  250000 250000 0  300000 250000 0  350000 250000 0  400000 250000 0  450000 250000 0  500000 250000 0  550000 250000 0  600000 250000 0  650000 250000 0  700000 250000 0  750000 250000 0  800000 250000 0  850000 250000 0  900000 250000 0  950000 250000 0  1000000 250000 0  0 300000 0  50000 300000 0  100000 300000 0  150000 300000 0  200000 300000 0  250000 300000 0  300000 300000 0  350000 300000 0  400000 300000 0  450000 300000 0  500000 300000 0  550000 300000 0  600000 300000 0  650000 300000 0  700000 300000 0  750000 300000 0  800000 300000 0  850000 300000 0  900000 300000 0  950000 300000 0  1000000 300000 0  0 350000 0  50000 350000 0  100000 350000 0  150000 350000 0  200000 350000 0  250000 350000 0  300000 350000 0  350000 350000 0  400000 350000 0  450000 350000 0  500000 350000 0  550000 350000 0  600000 350000 0  650000 350000 0  700000 350000 0  750000 350000 0  800000 350000 0  850000 350000 0  900000 350000 0  950000 350000 0  1000000 350000 0  0 400000 0  50000 400000 0  100000 400000 0  150000 400000 0  200000 400000 0  250000 400000 0  300000 400000 0  350000 400000 0  400000 400000 0  450000 400000 0  500000 400000 0  550000 400000 0  600000 400000 0  650000 400000 0  700000 400000 0  750000 400000 0  800000 400000 0  850000 400000 0  900000 400000 0  950000 400000 0  1000000 400000 0  0 450000 0  50000 450000 0  100000 450000 0  150000 450000 0  200000 450000 0  250000 450000 0  300000 450000 0  350000 450000 0  400000 450000 0  450000 450000 0  500000 450000 0  550000 450000 0  600000 450000 0  650000 450000 0  700000 450000 0  750000 450000 0  800000 450000 0  850000 450000 0  900000 450000 0  950000 450000 0  1000000 450000 0  0 500000 0  50000 500000 0  100000 500000 0  150000 500000 0  200000 500000 0  250000 500000 0  300000 500000 0  350000 500000 0  400000 500000 0  450000 500000 0  500000 500000 0  550000 500000 0  600000 500000 0  650000 500000 0  700000 500000 0  750000 500000 0  800000 500000 0  850000 500000 0  900000 500000 0  950000 500000 0  1000000 500000 0  0 550000 0  50000 550000 0  100000 550000 0  150000 550000 0  200000 550000 0  250000 550000 0  300000 550000 0  350000 550000 0  400000 550000 0  450000 550000 0  500000 550000 0  550000 550000 0  600000 550000 0  650000 550000 0  700000 550000 0  750000 550000 0  800000 550000 0  850000 550000 0  900000 550000 0  950000 550000 0  1000000 550000 0  0 600000 0  50000 600000 0  100000 600000 0  150000 600000 0  200000 600000 0  250000 600000 0  300000 600000 0  350000 600000 0  400000 600000 0  450000 600000 0  500000 600000 0  550000 600000 0  600000 600000 0  650000 600000 0  700000 600000 0  750000 600000 0  800000 600000 0  850000 600000 0  900000 600000 0  950000 600000 0  1000000 600000 0  0 650000 0  50000 650000 0  100000 650000 0  150000 650000 0  200000 650000 0  250000 650000 0  300000 650000 0  350000 650000 0  400000 650000 0  450000 650000 0  500000 650000 0  550000 650000 0  600000 650000 0  650000 650000 0  700000 650000 0  750000 650000 0  800000 650000 0  850000 650000 0  900000 650000 0  950000 650000 0  1000000 650000 0  0 700000 0  50000 700000 0  100000 700000 0  150000 700000 0  200000 700000 0  250000 700000 0  300000 700000 0  350000 700000 0  400000 700000 0  450000 700000 0  500000 700000 0  550000 700000 0  600000 700000 0  650000 700000 0  700000 700000 0  750000 700000 0  800000 700000 0  850000 700000 0  900000 700000 0  950000 700000 0  1000000 700000 0  0 750000 0  50000 750000 0  100000 750000 0  150000 750000 0  200000 750000 0  250000 750000 0  300000 750000 0  350000 750000 0  400000 750000 0  450000 750000 0  500000 750000 0  550000 750000 0  600000 750000 0  650000 750000 0  700000 750000 0  750000 750000 0  800000 750000 0  850000 750000 0  900000 750000 0  950000 750000 0  1000000 750000 0  0 800000 0  50000 800000 0  100000 800000 0  150000 800000 0  200000 800000 0  250000 800000 0  300000 800000 0  350000 800000 0  400000 800000 0  450000 800000 0  500000 800000 0  550000 800000 0  600000 800000 0  650000 800000 0  700000 800000 0  750000 800000 0  800000 800000 0  850000 800000 0  900000 800000 0  950000 800000 0  1000000 800000 0  0 850000 0  50000 850000 0  100000 850000 0  150000 850000 0  200000 850000 0  250000 850000 0  300000 850000 0  350000 850000 0  400000 850000 0  450000 850000 0  500000 850000 0  550000 850000 0  600000 850000 0  650000 850000 0  700000 850000 0  750000 850000 0  800000 850000 0  850000 850000 0  900000 850000 0  950000 850000 0  1000000 850000 0  0 900000 0  50000 900000 0  100000 900000 0  150000 900000 0  200000 900000 0  250000 900000 0  300000 900000 0  350000 900000 0  400000 900000 0  450000 900000 0  500000 900000 0  550000 900000 0  600000 900000 0  650000 900000 0  700000 900000 0  750000 900000 0  800000 900000 0  850000 900000 0  900000 900000 0  950000 900000 0  1000000 900000 0  0 950000 0  50000 950000 0  100000 950000 0  150000 950000 0  200000 950000 0  250000 950000 0  300000 950000 0  350000 950000 0  400000 950000 0  450000 950000 0  500000 950000 0  550000 950000 0  600000 950000 0  650000 950000 0  700000 950000 0  750000 950000 0  800000 950000 0  850000 950000 0  900000 950000 0  950000 950000 0  1000000 950000 0  0 1000000 0  50000 1000000 0  100000 1000000 0  150000 1000000 0  200000 1000000 0  250000 1000000 0  300000 1000000 0  350000 1000000 0  400000 1000000 0  450000 1000000 0  500000 1000000 0  550000 1000000 0  600000 1000000 0  650000 1000000 0  700000 1000000 0  750000 1000000 0  800000 1000000 0  850000 1000000 0  900000 1000000 0  950000 1000000 0  1000000 1000000 0  0 1050000 0  50000 1050000 0  100000 1050000 0  150000 1050000 0  200000 1050000 0  250000 1050000 0  300000 1050000 0  350000 1050000 0  400000 1050000 0  450000 1050000 0  500000 1050000 0  550000 1050000 0  600000 1050000 0  650000 1050000 0  700000 1050000 0  750000 1050000 0  800000 1050000 0  850000 1050000 0  900000 1050000 0  950000 1050000 0  1000000 1050000 0  0 1100000 0  50000 1100000 0  100000 1100000 0  150000 1100000 0  200000 1100000 0  250000 1100000 0  300000 1100000 0  350000 1100000 0  400000 1100000 0  450000 1100000 0  500000 1100000 0  550000 1100000 0  600000 1100000 0  650000 1100000 0  700000 1100000 0  750000 1100000 0  800000 1100000 0  850000 1100000 0  900000 1100000 0  950000 1100000 0  1000000 1100000 0  0 1150000 0  50000 1150000 0  100000 1150000 0  150000 1150000 0  200000 1150000 0  250000 1150000 0  300000 1150000 0  350000 1150000 0  400000 1150000 0  450000 1150000 0  500000 1150000 0  550000 1150000 0  600000 1150000 0  650000 1150000 0  700000 1150000 0  750000 1150000 0  800000 1150000 0  850000 1150000 0  900000 1150000 0  950000 1150000 0  1000000 1150000 0  0 1200000 0  50000 1200000 0  100000 1200000 0  150000 1200000 0  200000 1200000 0  250000 1200000 0  300000 1200000 0  350000 1200000 0  400000 1200000 0  450000 1200000 0  500000 1200000 0  550000 1200000 0  600000 1200000 0  650000 1200000 0  700000 1200000 0  750000 1200000 0  800000 1200000 0  850000 1200000 0  900000 1200000 0  950000 1200000 0  1000000 1200000 0  0 1250000 0  50000 1250000 0  100000 1250000 0  150000 1250000 0  200000 1250000 0  250000 1250000 0  300000 1250000 0  350000 1250000 0  400000 1250000 0  450000 1250000 0  500000 1250000 0  550000 1250000 0  600000 1250000 0  650000 1250000 0  700000 1250000 0  750000 1250000 0  800000 1250000 0  850000 1250000 0  900000 1250000 0  950000 1250000 0  1000000 1250000 0  0 1300000 0  50000 1300000 0  100000 1300000 0  150000 1300000 0  200000 1300000 0  250000 1300000 0  300000 1300000 0  350000 1300000 0  400000 1300000 0  450000 1300000 0  500000 1300000 0  550000 1300000 0  600000 1300000 0  650000 1300000 0  700000 1300000 0  750000 1300000 0  800000 1300000 0  850000 1300000 0  900000 1300000 0  950000 1300000 0  1000000 1300000 0  0 1350000 0  50000 1350000 0  100000 1350000 0  150000 1350000 0  200000 1350000 0  250000 1350000 0  300000 1350000 0  350000 1350000 0  400000 1350000 0  450000 1350000 0  500000 1350000 0  550000 1350000 0  600000 1350000 0  650000 1350000 0  700000 135
[...]
<PointData  Vectors="f_19"> 
<DataArray  type="Float64"  Name="f_19"  NumberOfComponents="3" format="ascii">-2.4290308689406727e-08 -1.0615898363645779e-08 0.0000000000000000e+00  4.8750151328621124e-08 -6.6876559228921229e-09 0.0000000000000000e+00  4.3004161331701994e-08 -2.3679861859585614e-09 0.0000000000000000e+00  4.0538560281539321e-08 -9.8534538716050387e-10 0.0000000000000000e+00  3.9325252778267627e-08 -4.9681740951405878e-10 0.0000000000000000e+00  3.8531294889180417e-08 -2.8312155205694515e-10 0.0000000000000000e+00  3.7959746932580299e-08 -1.7641670813596790e-10 0.0000000000000000e+00  3.7553661326000397e-08 -1.1919483651454442e-10 0.0000000000000000e+00  3.7295070958341017e-08 -8.6923492068658312e-11 0.0000000000000000e+00  3.7179248892559325e-08 -6.6492684044682894e-11 0.0000000000000000e+00  3.7206958852360272e-08 -4.8835912312917897e-11 0.0000000000000000e+00  3.7382691279669258e-08 -2.5584721372480294e-11 0.0000000000000000e+00  3.7716255246613917e-08 1.3462624926184983e-11 0.0000000000000000e+00  3.8228822529771437e-08 8.3885997533618262e-11 0.0000000000000000e+00  3.8968996726888519e-08 2.1395124750596707e-10 0.0000000000000000e+00  4.0055329021178417e-08 4.6271417272919942e-10 0.0000000000000000e+00  4.1788657555171735e-08 9.6865638175757315e-10 0.0000000000000000e+00  4.4915477514590474e-08 2.0763091840720326e-09 0.0000000000000000e+00  5.0765152400852546e-08 4.6030714946095745e-09 0.0000000000000000e+00  5.8008471041046740e-08 9.1165802375670991e-09 0.0000000000000000e+00  -1.6446583214872275e-08 7.0092232668900695e-09 0.0000000000000000e+00  -1.8037662539795748e-08 -1.6156947486860115e-08 0.0000000000000000e+00  7.2999156591412594e-09 -1.1379888451276002e-08 0.0000000000000000e+00  1.8222852775428103e-08 -5.2688735890207310e-09 0.0000000000000000e+00  2.3273829575696563e-08 -2.4118635244333969e-09 0.0000000000000000e+00  2.5844717726805501e-08 -1.1571606500999784e-09 0.0000000000000000e+00  2.7294216565278583e-08 -5.6644474476396815e-10 0.0000000000000000e+00  2.8133984594209693e-08 -2.7094201872753043e-10 0.0000000000000000e+00  2.8622971815730843e-08 -1.2024111191627263e-10 0.0000000000000000e+00  2.8904194741911967e-08 -4.5327260053179295e-11 0.0000000000000000e+00  2.9057347228026389e-08 -8.8910643491741248e-12 0.0000000000000000e+00  2.9123882570876948e-08 1.3598255268268951e-11 0.0000000000000000e+00  2.9118529893810434e-08 4.2594835307650705e-11 0.0000000000000000e+00  2.9033277156062537e-08 1.0024108329161138e-10 0.0000000000000000e+00  2.8835834286941749e-08 2.1697651321372476e-10 0.0000000000000000e+00  2.8461570653980760e-08 4.4332436878742653e-10 0.0000000000000000e+00  2.7792886898410829e-08 8.7578854081206000e-10 0.0000000000000000e+00  2.6603975942265387e-08 1.7177059619419825e-09 0.0000000000000000e+00  2.4383363861036285e-08 3.4150176402775148e-09 0.0000000000000000e+00  1.9686177464194528e-08 6.8579037957431235e-09 0.0000000000000000e+00  8.2647438067435710e-09 1.3009179785868392e-08 0.0000000000000000e+00  -1.8414172676682337e-08 1.0941981657784843e-08 0.0000000000000000e+00  -1.1042593129621006e-08 -1.9726258697613930e-08 0.0000000000000000e+00  -2.3726828155367782e-10 -1.8534303085240684e-08 0.0000000000000000e+00  5.8967624018958659e-09 -1.1324506188888609e-08 0.0000000000000000e+00  1.0786782526530825e-08 -6.5372314200301283e-09 0.0000000000000000e+00  1.4593559450913533e-08 -3.7762260790791319e-09 0.0000000000000000e+00  1.7228151019684922e-08 -2.2092683805597386e-09 0.0000000000000000e+00  1.8986170531864382e-08 -1.2944629466875027e-09 0.0000000000000000e+00  2.0134776054119886e-08 -7.4019719138077236e-10 0.0000000000000000e+00  2.0853489726767939e-08 -3.8736330031314459e-10 0.0000000000000000e+00  2.1252643670245204e-08 -1.4164603776280254e-10 0.0000000000000000e+00  2.1392017227915869e-08 6.1180666766918397e-11 0.0000000000000000e+00  2.1291930489319542e-08 2.7417505205707426e-10 0.0000000000000000e+00  2.0937268003411253e-08 5.5237211602793811e-10 0.0000000000000000e+00  2.0275102361522282e-08 9.6640837752075048e-10 0.0000000000000000e+00  1.9205337968907797e-08 1.6225633714523591e-09 0.0000000000000000e+00  1.7562468884917385e-08 2.6969281675250397e-09 0.0000000000000000e+00  1.5087079475878449e-08 4.4901346513086236e-09 0.0000000000000000e+00  1.1397272939431402e-08 7.4758491717602774e-09 0.0000000000000000e+00  6.0268392922781077e-09 1.2120192532728882e-08 0.0000000000000000e+00  -1.2862010876733224e-09 1.7572369399463046e-08 0.0000000000000000e+00  -1.3246585422699675e-08 1.4690048088321161e-08 0.0000000000000000e+00  -7.3316614167620346e-09 -2.0315227969030593e-08 0.0000000000000000e+00  -1.5436984698988147e-09 -1.9985021459702088e-08 0.0000000000000000e+00  1.1455456991127823e-09 -1.5304848623417535e-08 0.0000000000000000e+00  3.9322275126232615e-09 -1.0405520629886093e-08 0.0000000000000000e+00  6.8314630458706214e-09 -6.8243714713666738e-09 0.0000000000000000e+00  9.3469715170368850e-09 -4.4165432749031367e-09 0.0000000000000000e+00  1.1283716687318427e-08 -2.8205011846622441e-09 0.0000000000000000e+00  1.2667943746504534e-08 -1.7433483442715857e-09 0.0000000000000000e+00  1.3584855545467626e-08 -9.8389998425604939e-10 0.0000000000000000e+00  1.4109440768217506e-08 -4.0392369105403152e-10 0.0000000000000000e+00  1.4289077081075520e-08 9.9369881781776208e-11 0.0000000000000000e+00  1.4141013113345922e-08 6.1363738600931130e-10 0.0000000000000000e+00  1.3652641554567379e-08 1.2274642235959353e-09 0.0000000000000000e+00  1.2781767884550215e-08 2.0458671810692988e-09 0.0000000000000000e+00  1.1458130510537657e-08 3.2078384291074355e-09 0.0000000000000000e+00  9.5923825534356098e-09 4.9043307720816617e-09 0.0000000000000000e+00  7.1093811515682526e-09 7.3788825192653947e-09 0.0000000000000000e+00  4.0398636225428799e-09 1.0840437677000346e-08 0.0000000000000000e+00  6.7639735827612219e-10 1.5097214069784667e-08 0.0000000000000000e+00  -2.6188224915145106e-09 1.8740321316779431e-08 0.0000000000000000e+00  -8.9424713553745833e-09 1.7533965171199198e-08 0.0000000000000000e+00  -5.4554228720849248e-09 -1.9689645036818910e-08 0.0000000000000000e+00  -1.8868116926378909e-09 -1.9727800279275904e-08 0.0000000000000000e+00  -9.2607377689389304e-10 -1.6732417020155584e-08 0.0000000000000000e+00  2.2040208804474833e-10 -1.2787227038047809e-08 0.0000000000000000e+00  1.8668508993693562e-09 -9.2251551015252264e-09 0.0000000000000000e+00  3.6423168671418331e-09 -6.4396553652277476e-09 0.0000000000000000e+00  5.2253659415549877e-09 -4.3686526226796697e-09 0.0000000000000000e+00  6.4733254644976999e-09 -2.8356976285649219e-09 0.0000000000000000e+00  7.3536355249836285e-09 -1.6683841240374391e-09 0.0000000000000000e+00  7.8763303590751564e-09 -7.2233520480825649e-10 0.0000000000000000e+00  8.0577388791328152e-09 1.2337428441656299e-10 0.0000000000000000e+00  7.9056395273838794e-09 9.7733999601077577e-10 0.0000000000000000e+00  7.4152208424043940e-09 1.9473879296366646e-09 0.0000000000000000e+00  6.5717620143686917e-09 3.1509135074010998e-09 0.0000000000000000e+00  5.3612919654808312e-09 4.7214853326901081e-09 0.0000000000000000e+00  3.7952807150972782e-09 6.8031670727001323e-09 0.0000000000000000e+00  1.9587192091635231e-09 9.5092219293359147e-09 0.0000000000000000e+00  7.8585577407805893e-11 1.2797499011824789e-08 0.0000000000000000e+00  -1.4809434691043958e-09 1.6216717278491520e-08 0.0000000000000000e+00  -2.7292578027710007e-09 1.8690420892392487e-08 0.0000000000000000e+00  -6.6517219649153143e-09 1.8522808403273976e-08 0.0000000000000000e+00  -4.3894167687685760e-09 -1.8524962534704295e-08 0.0000000000000000e+00  -2.0615324869474584e-09 -1.8793727543138134e-08 0.0000000000000000e+00  -2.0161019073590325e-09 -1.6763425152569241e-08 0.0000000000000000e+00  -1.9243993488140669e-09 -1.3761504969669478e-08 0.0000000000000000e+00  -1.3170089419372930e-09 -1.0635303199275782e-08 0.0000000000000000e+00  -3.7044209958167766e-10 -7.8710964351533719e-09 0.0000000000000000e+00  6.4741754261336581e-10 -5.5988012012193665e-09 0.0000000000000000e+00  1.5477272994053045e-09 -3.7736146953309377e-09 0.0000000000000000e+00  2.2313317437097879e-09 -2.2889069311835435e-09 0.0000000000000000e+00  2.6560545690071794e-09 -1.0260207567286299e-09 0.0000000000000000e+00  2.8076722560065745e-09 1.3020505486612387e-10 0.0000000000000000e+00  2.6834398029939694e-09 1.2900315762268805e-09 0.0000000000000000e+00  2.2863872688709328e-09 2.5617312622593990e-09 0.0000000000000000e+00  1.6284305660243625e-09 4.0534365870368260e-09 0.0000000000000000e+00  7.4244873170977083e-10 5.8684912101982298e-09 0.0000000000000000e+00  -2.9547661428404345e-10 8.0852875864410191e-09 0.0000000000000000e+00  -1.3367525075650148e-09 1.0707110925722678e-08 0.0000000000000000e+00  -2.1484322799524909e-09 1.3569093334732358e-08 0.0000000000000000e+00  -2.5117987546450530e-09 1.6227636358966433e-08 0.0000000000000000e+00  -2.7065919708110917e-09 1.7992662929692529e-08 0.0000000000000000e+00  -5.3071225815121561e-09 1.8282195042081755e-08 0.0000000000000000e+00  -3.7100270745753724e-09 -1.7063049861807959e-08 0.0000000000000000e+00  -2.1934491601248026e-09 -1.7490885573486417e-08 0.0000000000000000e+00  -2.6942720664817340e-09 -1.6046764907920407e-08 0.0000000000000000e+00  -3.2706225768336853e-09 -1.3759142323159052e-08 0.0000000000000000e+00  -3.4216941557898512e-09 -1.1150253253952938e-08 0.0000000000000000e+00  -3.1869699965222252e-09 -8.6206401031590468e-09 0.0000000000000000e+00  -2.7432675150170382e-09 -6.3636001803926893e-09 0.0000000000000000e+00  -2.2568051810642276e-09 -4.4196662447473315e-09 0.0000000000000000e+00  -1.8424644493115963e-09 -2.7461600445427247e-09 0.0000000000000000e+00  -1.5672029877676426e-09 -1.2632359289976831e-09 0.0000000000000000e+00  -1.4640342389270947e-09 1.2241577870668762e-10 0.0000000000000000e+00  -1.5431438890633808e-09 1.5070173875380644e-09 0.0000000000000000e+00  -1.7965296362733533e-09 2.9845174937409261e-09 0.0000000000000000e+00  -2.1959023070662894e-09 4.6409411862331076e-09 0.0000000000000000e+00  -2.6845294944039286e-09 6.5428860654357737e-09 0.0000000000000000e+00  -3.1654674190532301e-09 8.7142503281786949e-09 0.0000000000000000e+00  -3.4945730232320416e-09 1.1096549543109423e-08 0.0000000000000000e+00  -3.5022594826164786e-09 1.3498018788486589e-08 0.0000000000000000e+00  -3.1059717865739520e-09 1.5565902128268810e-08 0.0000000000000000e+00  -2.6909459611504663e-09 1.6876816680158606e-08 0.0000000000000000e+00  -4.4339889728414660e-09 1.7383053277443512e-08 0.0000000000000000e+00  -3.2411681670171617e-09 -1.5403923736965266e-08 0.0000000000000000e+00  -2.3015516764892708e-09 -1.5946338437673155e-08 0.0000000000000000e+00  -3.1641293370062053e-09 -1.4884105597439186e-08 0.0000000000000000e+00  -4.1767205333051711e-09 -1.3118262080598303e-08 0.0000000000000000e+00  -4.8610803986934869e-09 -1.0979814351186156e-08 0.0000000000000000e+00  -5.1793622872974730e-09 -8.7634605693161554e-09 0.0000000000000000e+00  -5.2304611333379786e-09 -6.6551071421724198e-09 0.0000000000000000e+00  -5.1364432676935045e-09 -4.7326993483200047e-09 0.0000000000000000e+00  -4.9985202343954866e-09 -2.9978199908342092e-09 0.0000000000000000e+00  -4.8857985622775475e-09 -1.4071960361353898e-09 0.0000000000000000e+00  -4.8372323906110172e-09 1.0493187171090411e-10 0.0000000000000000e+00  -4.8661888280066019e-09 1.6125525145201851e-09 0.0000000000000000e+00  -4.9629888817379036e-09 3.1877999766426447e-09 0.0000000000000000e+00  -5.0941809645373136e-09 4.8909242475549207e-09 0.0000000000000000e+00  -5.1994478079661170e-09 6.7566259136288672e-09 0.0000000000000000e+00  -5.1895302269307355e-09 8.7741619864098709e-09 0.0000000000000000e+00  -4.9529472452452553e-09 1.0862054782983466e-08 0.0000000000000000e+00  -4.3878484024434913e-09 1.2846677027731096e-08 0.0000000000000000e+00  -3.4979603842937546e-09 1.4469109118822308e-08 0.0000000000000000e+00  -2.6895971005252946e-09 1.5472395979230631e-08 0.0000000000000000e+00  -3.8242804328259662e-09 1.6098941677480938e-08 0.0000000000000000e+00  -2.9017312494580321e-09 -1.3601469513394274e-08 0.0000000000000000e+00  -2.3898640213109154e-09 -1.4228628288481188e-08 0.0000000000000000e+00  -3.5079677616340397e-09 -1.3431296965444346e-08 0.0000000000000000e+00  -4.8155855427277467e-09 -1.2053849204238228e-08 0.0000000000000000e+00  -5.8718707300416817e-09 -1.0314772061291777e-08 0.0000000000000000e+00  -6.6001337039141574e-09 -8.4235324850464354e-09 0.0000000000000000e+00  -7.0439199499483924e-09 -6.5345155852456337e-09 0.0000000000000000e+00  -7.2820068843507933e-09 -4.7327665219471118e-09 0.0000000000000000e+00  -7.3908627968284480e-09 -3.0439015100064054e-09 0.0000000000000000e+00  -7.4290107546570029e-09 -1.4521191290643837e-09 0.0000000000000000e+00  -7.4323784088560618e-09 8.2677903500073387e-11 0.0000000000000000e+00  -7.4141098723230799e-09 1.6110027167705620e-09 0.0000000000000000e+00  -7.3652567202275985e-09 3.1821971982131273e-09 0.0000000000000000e+00  -7.2551127353852793e-09 4.8331388425103144e-09 0.0000000000000000e+00  -7.0319122871943953e-09 6.5754716069155549e-09 0.0000000000000000e+00  -6.6265986182675896e-09 8.3809558598246052e-09 0.0000000000000000e+00  -5.9648851141086346e-09 1.0167542717619990e-08 0.0000000000000000e+00  -4.9974816808579551e-09 1.1793809304992684e-08 0.0000000000000000e+00  -3.7758787372238840e-09 1.3076096437217212e-08 0.0000000000000000e+00  -2.6950065062501716e-09 1.3860333374770960e-08 0.0000000000000000e+00  -3.3768443264782870e-09 1.4563252893035419e-08 0.0000000000000000e+00  -2.6502023226719942e-09 -1.1691867098398470e-08 0.0000000000000000e+00  -2.4607423082385161e-09 -1.2382631154230886e-08 0.0000000000000000e+00  -3.7650607930408804e-09 -1.1779967002121046e-08 0.0000000000000000e+00  -5.2770722239759456e-09 -1.0702097536600193e-08 0.0000000000000000e+00  -6.5925026871017390e-09 -9.2997288798866420e-09 0.0000000000000000e+00  -7.6168686169953678e-09 -7.7203735079804489e-09 0.0000000000000000e+00  -8.3573496060806896e-09 -6.0840798572244101e-09 0.0000000000000000e+00  -8.8577084800501576e-09 -4.4683431285592859e-09 0.0000000000000000e+00  -9.1689306056432663e-09 -2.9083034174802762e-09 0.0000000000000000e+00  -9.3342691282684698e-09 -1.4056949746364902e-09 0.0000000000000000e+00  -9.3821801112576407e-09 5.9486507013933224e-11 0.0000000000000000e+00  -9.3236378395583759e-09 1.5174730671801580e-09 0.0000000000000000e+00  -9.1516742535593576e-09 2.9979606164190856e-09 0.0000000000000000e+00  -8.8422878900726331e-09 4.5196616875172910e-09 0.0000000000000000e+00  -8.3571484514754488e-09 6.0798072791810860e-09 0.0000000000000000e+00  -7.6497326460792870e-09 7.6442479240019079e-09 0.0000000000000000e+00  -6.6778252230179185e-09 9.1407150078377786e-09 0.0000000000000000e+00  -5.4285056062591878e-09 1.0460250148059807e-08 0.0000000000000000e+00  -3.9781020101625602e-09 1.1474862888495092e-08 0.0000000000000000e+00  -2.7009912715151875e-09 1.2095135506837484e-08 0.0000000000000000e+00  -3.0376023188043575e-09 1.2850403996755256e-08 0.0000000000000000e+00  -2.4634794466733200e-09 -9.7025575270094211e-09 0.0000000000000000e+00  -2.5166769876770370e-09 -1.0441334473259831e-08 0.0000000000000000e+00  -3.9577471663220555e-09 -9.9897028730895019e-09 0.0000000000000000e+00  -5.6126703978435364e-09 -9.1527687227642653e-09 0.0000000000000000e+00  -7.1080107715435121e-09 -8.0391881474665737e-09 0.0000000000000000e+00  -8.3420728526991139e-09 -6.7526311929723836e-09 0.0000000000000000e+00  -9.2989933070398800e-09 -5.3830647620834073e-09 0.0000000000000000e+00  -9.9966353030875952e-09 -3.9949980513685337e-09 0.0000000000000000e+00  -1.0464205637759071e-08 -2.6243215522146793e-09 0.0000000000000000e+00  -1.0729790302137504e-08 -1.2821267284829949e-09 0.0000000000000000e+00  -1.0813237294039191e-08 3.7899136081994315e-11 0.0000000000000000e+00  -1.0722637128531024e-08 1.3508173090335585e-09 0.0000000000000000e+00  -1.0453342365813768e-08 2.6716158156296470e-09 0.0000000000000000e+00  -9.9890582189790864e-09 4.0066304003980868e-09 0.0000000000000000e+00  -9.3051843494973021e-09 5.3455985571283768e-09 0.0000000000000000e+00  -8.3751795869479269e-09 6.6553203109706163e-09 0.0000000000000000e+00  -7.1814323740702978e-09 7.8768798469084461e-09 0.0000000000000000e+00  -5.7349881566451340e-09 8.9293871733153133e-09 0.0000000000000000e+00  -4.1246294032045422e-09 9.7250312933019061e-09 0.0000000000000000e+00  -2.7041247708583508e-09 1.0216005361387820e-08 0.0000000000000000e+00  -2.7755371133508283e-09 1.1008021891447039e-08 0.0000000000000000e+00  -2.3279480403770959e-09 -7.6554774853313445e-09 0.0000000000000000e+00  -2.5603612192458397e-09 -8.4304298439799240e-09 0.0000000000000000e+00  -4.1007526443191464e-09 -8.1020749657172061e-09 0.0000000000000000e+00  -5.8548985571716237e-09 -7.4674421767959844e-09 0.0000000000000000e+00  -7.4736036530967986e-09 -6.6081944786809842e-09 0.0000000000000000e+00  -8.8529668057796211e-09 -5.5968467451903934e-09 0.0000000000000000e+00  -9.9628178151255495e-09 -4.4988019311210542e-09 0.0000000000000000e+00  -1.0802859986065009e-08 -3.3645149669310404e-09 0.0000000000000000e+00  -1.1385458992562106e-08 -2.2258492997171066e-09 0.0000000000000000e+00  -1.1725869551407740e-08 -1.0973332080426390e-09 0.0000000000000000e+00  -1.1836070133135628e-08 1.9390850738291348e-11 0.0000000000000000e+00  -1.1721329892260512e-08 1.1295037475816002e-09 0.0000000000000000e+00  -1.1379113132758349e-08 2.2384014611122886e-09 0.0000000000000000e+00  -1.0800124635383073e-08 3.3452398674162579e-09 0.0000000000000000e+00  -9.9715208259932964e-09 4.4372903712556237e-09 0.0000000000000000e+00  -8.8825290113770566e-09 5.4860310370662629e-09 0.0000000000000000e+00  -7.5332130892125975e-09 6.4463035370736885e-09 0.0000000000000000e+00  -5.9500453242697098e-09 7.2602114910460616e-09 0.0000000000000000e+00  -4.2278963787504918e-09 7.8690314831395785e-09 0.0000000000000000e+00  -2.7030647687495721e-09 8.2524984642137366e-09 0.0000000000000000e+00  -2.5720696475762500e-09 9.0698457692173437e-09 0.0000000000000000e+00  -2.2353151683828816e-09 -5.5685387267763256e-09 0.0000000000000000e+00  -2.5944753695497397e-09 -6.3704607831096450e-09 0.0000000000000000e+00  -4.2047036883520332e-09 -6.1474876560273710e-09 0.0000000000000000e+00  -6.0258153892952021e-09 -5.6898295244048029e-09 0.0000000000000000e+00  -7.7266816239448254e-09 -5.0610541464282264e-09 0.0000000000000000e+00  -9.2033898723089544e-09 -4.3109798910668943e-09 0.0000000000000000e+00  -1.0417088022179081e-08 -3.4852283350210717e-09 0.0000000000000000e+00  -1.1355313361302587e-08 -2.6208217126969633e-09 0.0000000000000000e+00  -1.2018335013066277e-08 -1.7431904937937019e-09 0.0000000000000000e+00  -1.2411624712418252e-08 -8.6631978754969504e-10 0.0000000000000000e+00  -1.2540856160980180e-08 4.7051700398985910e-12 0.0000000000000000e+00  -1.2408925744756151e-08 8.6973066918985801e-10 0.0000000000000000e+00  -1.2014939325185368e-08 1.7289764924404004e-09 0.0000000000000000e+00  -1.1355124843201474e-08 2.5785591620219973e-09 0.0000000000000000e+00  -1.0425616999794512e-08 3.4067301281254034e-09 0.0000000000000000e+00  -9.2270905064074597e-09 4.1915522982009756e-09 0.0000000000000000e+00  -7.7716700816637674e-09 4.9008586124342302e-09 0.0000000000000000e+00  -6.0955773039280315e-09 5.4954464086882905e-09 0.0000000000000000e+00  -4.2966364961341552e-09 5.9381424133529573e-09 0.0000000000000000e+00  -2.6977341533122533e-09 6.2275590578706910e-09 0.0000000000000000e+00  -2.4158213699587826e-09 7.0612840287521958e-09 0.0000000000000000e+00  -2.1804925429388022e-09 -3.4565950683101205e-09 0.0000000000000000e+00  -2.6214488136893812e-09 -4.2781199338169943e-09 0.0000000000000000e+00  -4.2774653494709091e-09 -4.1489953439016058e-09 0.0000000000000000e+00  -6.1407971404595851e-09 -3.8519825530583048e-09 0.0000000000000000e+00  -7.8928924649729100e-09 -3.4377508192900673e-09 0.0000000000000000e+00  -9.4306508938273580e-09 -2.9388217221190281e-09 0.0000000000000000e+00  -1.0710218413938248e-08 -2.38457088476956