<?xml version="1.0"?>
<VTKFile type="UnstructuredGrid"  version="0.1"  >
<UnstructuredGrid>
<Piece  NumberOfPoints="651" NumberOfCells="1200">
<Points>
<DataArray  type="Float64"  NumberOfComponents="3"  format="ascii">0 0 0  50000 0 0  100000 0 0  150000 0 0  200000 0 0  250000 0 0  300000 0 0  350000 0 0  400000 0 0  450000 0 0  500000 0 0  550000 0 0  600000 0 0  650000 0 0  700000 0 0  750000 0 0  800000 0 0  850000 0 0  900000 0 0  950000 0 0  1000000 0 0  0 50000 0  50000 50000 0  100000 50000 0  150000 50000 0  200000 50000 0  250000 50000 0  300000 50000 0  350000 50000 0  400000 50000 0  450000 50000 0  500000 50000 0  550000 50000 0  600000 50000 0  650000 50000 0  700000 50000 0  750000 50000 0  800000 50000 0  850000 50000 0  900000 50000 0  950000 50000 0  1000000 50000 0  0 100000 0  50000 100000 0  100000 100000 0  150000 100000 0  200000 100000 0  250000 100000 0  300000 100000 0  350000 100000 0  400000 100000 0  450000 100000 0  500000 100000 0  550000 100000 0  600000 100000 0  650000 100000 0  700000 100000 0  750000 100000 0  800000 100000 0  850000 100000 0  900000 100000 0  950000 100000 0  1000000 100000 0  0 150000 0  50000 150000 0  100000 150000 0  150000 150000 0  200000 150000 0  250000 150000 0  300000 150000 0  350000 150000 0  400000 150000 0  450000 150000 0  500000 150000 0  550000 150000 0  600000 150000 0  650000 150000 0  700000 150000 0  750000 150000 0  800000 150000 0  850000 150000 0  900000 150000 0  950000 150000 0  1000000 150000 0  0 200000 0  50000 200000 0  100000 200000 0  150000 200000 0  200000 200000 0  250000 200000 0  300000 200000 0  350000 200000 0  400000 200000 0  450000 200000 0  500000 200000 0  550000 200000 0  600000 200000 0  650000 200000 0  700000 200000 0  750000 200000 0  800000 200000 0  850000 200000 0  900000 200000 0  950000 200000 0  1000000 200000 0  0 250000 0  50000 250000 0  100000 250000 0  150000 250000 0  200000 250000 0  250000 250000 0  300000 250000 0  350000 250000 0  400000 250000 0  450000 250000 0  500000 250000 0  550000 250000 0  600000 250000 0  650000 250000 0  700000 250000 0  750000 250000 0  800000 250000 0  850000 250000 0  900000 250000 0  950000 250000 0  1000000 250000 0  0 300000 0  50000 300000 0  100000 300000 0  150000 300000 0  200000 300000 0  250000 300000 0  300000 300000 0  350000 300000 0  400000 300000 0  450000 300000 0  500000 300000 0  550000 300000 0  600000 300000 0  650000 300000 0  700000 300000 0  750000 300000 0  800000 300000 0  850000 300000 0  900000 300000 0  950000 300000 0  1000000 300000 0  0 350000 0  50000 350000 0  100000 350000 0  150000 350000 0  200000 350000 0  250000 350000 0  300000 350000 0  350000 350000 0  400000 350000 0  450000 350000 0  500000 350000 0  550000 350000 0  600000 350000 0  650000 350000 0  700000 350000 0  750000 350000 0  800000 350000 0  850000 350000 0  900000 350000 0  950000 350000 0  1000000 350000 0  0 400000 0  50000 400000 0  100000 400000 0  150000 400000 0  200000 400000 0  250000 400000 0  300000 400000 0  350000 400000 0  400000 400000 0  450000 400000 0  500000 400000 0  550000 400000 0  600000 400000 0  650000 400000 0  700000 400000 0  750000 400000 0  800000 400000 0  850000 400000 0  900000 400000 0  950000 400000 0  1000000 400000 0  0 450000 0  50000 450000 0  100000 450000 0  150000 450000 0  200000 450000 0  250000 450000 0  300000 450000 0  350000 450000 0  400000 450000 0  450000 450000 0  500000 450000 0  550000 450000 0  600000 450000 0  650000 450000 0  700000 450000 0  750000 450000 0  800000 450000 0  850000 450000 0  900000 450000 0  950000 450000 0  1000000 450000 0  0 500000 0  50000 500000 0  100000 500000 0  150000 500000 0  200000 500000 0  250000 500000 0  300000 500000 0  350000 500000 0  400000 500000 0  450000 500000 0  500000 500000 0  550000 500000 0  600000 500000 0  650000 500000 0  700000 500000 0  750000 500000 0  800000 500000 0  850000 500000 0  900000 500000 0  950000 500000 0  1000000 500000 0  0 550000 0  50000 550000 0  100000 550000 0  150000 550000 0  200000 550000 0  250000 550000 0  300000 550000 0  350000 550000 0  400000 550000 0  450000 550000 0  500000 550000 0  550000 550000 0  600000 550000 0  650000 550000 0  700000 550000 0  750000 550000 0  800000 550000 0  850000 550000 0  900000 550000 0  950000 550000 0  1000000 550000 0  0 600000 0  50000 600000 0  100000 600000 0  150000 600000 0  200000 600000 0  250000 600000 0  300000 600000 0  350000 600000 0  400000 600000 0  450000 600000 0  500000 600000 0  550000 600000 0  600000 600000 0  650000 600000 0  700000 600000 0  750000 600000 0  800000 600000 0  850000 600000 0  900000 600000 0  950000 600000 0  1000000 600000 0  0 650000 0  50000 650000 0  100000 650000 0  150000 650000 0  200000 650000 0  250000 650000 0  300000 650000 0  350000 650000 0  400000 650000 0  450000 650000 0  500000 650000 0  550000 650000 0  600000 650000 0  650000 650000 0  700000 650000 0  750000 650000 0  800000 650000 0  850000 650000 0  900000 650000 0  950000 650000 0  1000000 650000 0  0 700000 0  50000 700000 0  100000 700000 0  150000 700000 0  200000 700000 0  250000 700000 0  300000 700000 0  350000 700000 0  400000 700000 0  450000 700000 0  500000 700000 0  550000 700000 0  600000 700000 0  650000 700000 0  700000 700000 0  750000 700000 0  800000 700000 0  850000 700000 0  900000 700000 0  950000 700000 0  1000000 700000 0  0 750000 0  50000 750000 0  100000 750000 0  150000 750000 0  200000 750000 0  250000 750000 0  300000 750000 0  350000 750000 0  400000 750000 0  450000 750000 0  500000 750000 0  550000 750000 0  600000 750000 0  650000 750000 0  700000 750000 0  750000 750000 0  800000 750000 0  850000 750000 0  900000 750000 0  950000 750000 0  1000000 750000 0  0 800000 0  50000 800000 0  100000 800000 0  150000 800000 0  200000 800000 0  250000 800000 0  300000 800000 0  350000 800000 0  400000 800000 0  450000 800000 0  500000 800000 0  550000 800000 0  600000 800000 0  650000 800000 0  700000 800000 0  750000 800000 0  800000 800000 0  850000 800000 0  900000 800000 0  950000 800000 0  1000000 800000 0  0 850000 0  50000 850000 0  100000 850000 0  150000 850000 0  200000 850000 0  250000 850000 0  300000 850000 0  350000 850000 0  400000 850000 0  450000 850000 0  500000 850000 0  550000 850000 0  600000 850000 0  650000 850000 0  700000 850000 0  750000 850000 0  800000 850000 0  850000 850000 0  900000 850000 0  950000 850000 0  1000000 850000 0  0 900000 0  50000 900000 0  100000 900000 0  150000 900000 0  200000 900000 0  250000 900000 0  300000 900000 0  350000 900000 0  400000 900000 0  450000 900000 0  500000 900000 0  550000 900000 0  600000 900000 0  650000 900000 0  700000 900000 0  750000 900000 0  800000 900000 0  850000 900000 0  900000 900000 0  950000 900000 0  1000000 900000 0  0 950000 0  50000 950000 0  100000 950000 0  150000 950000 0  200000 950000 0  250000 950000 0  300000 950000 0  350000 950000 0  400000 950000 0  450000 950000 0  500000 950000 0  550000 950000 0  600000 950000 0  650000 950000 0  700000 950000 0  750000 950000 0  800000 950000 0  850000 950000 0  900000 950000 0  950000 950000 0  1000000 950000 0  0 1000000 0  50000 1000000 0  100000 1000000 0  150000 1000000 0  200000 1000000 0  250000 1000000 0  300000 1000000 0  350000 1000000 0  400000 1000000 0  450000 1000000 0  500000 1000000 0  550000 1000000 0  600000 1000000 0  650000 1000000 0  700000 1000000 0  750000 1000000 0  800000 1000000 0  850000 1000000 0  900000 1000000 0  950000 1000000 0  1000000 1000000 0  0 1050000 0  50000 1050000 0  100000 1050000 0  150000 1050000 0  200000 1050000 0  250000 1050000 0  300000 1050000 0  350000 1050000 0  400000 1050000 0  450000 1050000 0  500000 1050000 0  550000 1050000 0  600000 1050000 0  650000 1050000 0  700000 1050000 0  750000 1050000 0  800000 1050000 0  850000 1050000 0  900000 1050000 0  950000 1050000 0  1000000 1050000 0  0 1100000 0  50000 1100000 0  100000 1100000 0  150000 1100000 0  200000 1100000 0  250000 1100000 0  300000 1100000 0  350000 1100000 0  400000 1100000 0  450000 1100000 0  500000 1100000 0  550000 1100000 0  600000 1100000 0  650000 1100000 0  700000 1100000 0  750000 1100000 0  800000 1100000 0  850000 1100000 0  900000 1100000 0  950000 1100000 0  1000000 1100000 0  0 1150000 0  50000 1150000 0  100000 1150000 0  150000 1150000 0  200000 1150000 0  250000 1150000 0  300000 1150000 0  350000 1150000 0  400000 1150000 0  450000 1150000 0  500000 1150000 0  550000 1150000 0  600000 1150000 0  650000 1150000 0  700000 1150000 0  750000 1150000 0  800000 1150000 0  850000 1150000 0  900000 1150000 0  950000 1150000 0  1000000 1150000 0  0 1200000 0  50000 1200000 0  100000 1200000 0  150000 1200000 0  200000 1200000 0  250000 1200000 0  300000 1200000 0  350000 1200000 0  400000 1200000 0  450000 1200000 0  500000 1200000 0  550000 1200000 0  600000 1200000 0  650000 1200000 0  700000 1200000 0  750000 1200000 0  800000 1200000 0  850000 1200000 0  900000 1200000 0  950000 1200000 0  1000000 1200000 0  0 1250000 0  50000 1250000 0  100000 1250000 0  150000 1250000 0  200000 1250000 0  250000 1250000 0  300000 1250000 0  350000 1250000 0  400000 1250000 0  450000 1250000 0  500000 1250000 0  550000 1250000 0  600000 1250000 0  650000 1250000 0  700000 1250000 0  750000 1250000 0  800000 1250000 0  850000 1250000 0  900000 1250000 0  950000 1250000 0  1000000 1250000 0  0 1300000 0  50000 1300000 0  100000 1300000 0  150000 1300000 0  200000 1300000 0  250000 1300000 0  300000 1300000 0  350000 1300000 0  400000 1300000 0  450000 1300000 0  500000 1300000 0  550000 1300000 0  600000 1300000 0  650000 1300000 0  700000 1300000 0  750000 1300000 0  800000 1300000 0  850000 1300000 0  900000 1300000 0  950000 1300000 0  1000000 1300000 0  0 1350000 0  50000 1350000 0  100000 1350000 0  150000 1350000 0  200000 1350000 0  250000 1350000 0  300000 1350000 0  350000 1350000 0  400000 1350000 0  450000 1350000 0  500000 1350000 0  550000 1350000 0  600000 1350000 0  650000 1350000 0  700000 135
[...]
<PointData  Vectors="f_19"> 
<DataArray  type="Float64"  Name="f_19"  NumberOfComponents="3" format="ascii">-2.4572887178064674e-08 -9.7449073086173054e-09 0.0000000000000000e+00  4.8480634021432003e-08 -5.8512510235097183e-09 0.0000000000000000e+00  4.2732917539035343e-08 -1.5831494019627160e-09 0.0000000000000000e+00  4.0262621415027440e-08 -2.3671701839522732e-10 0.0000000000000000e+00  3.9048066495984643e-08 2.2815439858317683e-10 0.0000000000000000e+00  3.8257487862993340e-08 4.2493596410811396e-10 0.0000000000000000e+00  3.7694886295278952e-08 5.1801591115262429e-10 0.0000000000000000e+00  3.7303898731090318e-08 5.6230789959889076e-10 0.0000000000000000e+00  3.7066859243145733e-08 5.7990707077775439e-10 0.0000000000000000e+00  3.6978972120620808e-08 5.8145193737377678e-10 0.0000000000000000e+00  3.7040363418389747e-08 5.7351941186232969e-10 0.0000000000000000e+00  3.7254091120710543e-08 5.6216393648783829e-10 0.0000000000000000e+00  3.7627564805727582e-08 5.5583144507153557e-10 0.0000000000000000e+00  3.8178590623779364e-08 5.6946181501096814e-10 0.0000000000000000e+00  3.8951775551884391e-08 6.3244435362167639e-10 0.0000000000000000e+00  4.0061874803739893e-08 8.0726121819920466e-10 0.0000000000000000e+00  4.1807524725167478e-08 1.2382416998525126e-09 0.0000000000000000e+00  4.4936362940563572e-08 2.2775631655698944e-09 0.0000000000000000e+00  5.0783448231317468e-08 4.7505049122952432e-09 0.0000000000000000e+00  5.8027440259006888e-08 9.2304832628675339e-09 0.0000000000000000e+00  -1.6429554892436328e-08 7.1216236154552229e-09 0.0000000000000000e+00  -1.8358727155498886e-08 -1.5279601599699066e-08 0.0000000000000000e+00  7.0719005847762563e-09 -1.1049501175606227e-08 0.0000000000000000e+00  1.7846918349390686e-08 -5.1397198261007281e-09 0.0000000000000000e+00  2.2915626508629327e-08 -2.2964019462028401e-09 0.0000000000000000e+00  2.5529604521619109e-08 -1.0499834302438228e-09 0.0000000000000000e+00  2.7015350903016309e-08 -4.6662760156805375e-10 0.0000000000000000e+00  2.7889969484025182e-08 -1.7878925708321743e-10 0.0000000000000000e+00  2.8415289416196970e-08 -3.6441703866818325e-11 0.0000000000000000e+00  2.8734968280513974e-08 2.9512364459568609e-11 0.0000000000000000e+00  2.8928495841161187e-08 5.6636621275038341e-11 0.0000000000000000e+00  2.9036359030970226e-08 6.9934617921552428e-11 0.0000000000000000e+00  2.9071513907141354e-08 9.0628293898758817e-11 0.0000000000000000e+00  2.9023411711251915e-08 1.4192396559731440e-10 0.0000000000000000e+00  2.8856657467583126e-08 2.5549417192616479e-10 0.0000000000000000e+00  2.8503372931743425e-08 4.8295789858664127e-10 0.0000000000000000e+00  2.7843262406449680e-08 9.2127580884940045e-10 0.0000000000000000e+00  2.6649310751773603e-08 1.7729723998238094e-09 0.0000000000000000e+00  2.4411631662743971e-08 3.4812211781637355e-09 0.0000000000000000e+00  1.9692293738258646e-08 6.9310560653065709e-09 0.0000000000000000e+00  8.2521678304560562e-09 1.3077841221688835e-08 0.0000000000000000e+00  -1.8399002231187156e-08 1.1052096967093393e-08 0.0000000000000000e+00  -1.1420477255276865e-08 -1.8866780480333993e-08 0.0000000000000000e+00  -3.8264992356142920e-10 -1.8203174413448356e-08 0.0000000000000000e+00  5.6114406266383247e-09 -1.1298423514548893e-08 0.0000000000000000e+00  1.0445338154840550e-08 -6.5617884121831551e-09 0.0000000000000000e+00  1.4257367985753529e-08 -3.8157800640825905e-09 0.0000000000000000e+00  1.6922424920997982e-08 -2.2570992138169294e-09 0.0000000000000000e+00  1.8717790745956574e-08 -1.3498367595217134e-09 0.0000000000000000e+00  1.9905624458507334e-08 -8.0375830610161672e-10 0.0000000000000000e+00  2.0663826344043716e-08 -4.5938860228772672e-10 0.0000000000000000e+00  2.1101575638004049e-08 -2.2139902392054975e-10 0.0000000000000000e+00  2.1277434784333843e-08 -2.4199097256091899e-11 0.0000000000000000e+00  2.1210349327574148e-08 1.8690734060559766e-10 0.0000000000000000e+00  2.0883748655905603e-08 4.6872228402356825e-10 0.0000000000000000e+00  2.0243372506370349e-08 8.9346689110221508e-10 0.0000000000000000e+00  1.9188196157838286e-08 1.5683158585627108e-09 0.0000000000000000e+00  1.7552480092238988e-08 2.6689080772687908e-09 0.0000000000000000e+00  1.5077500863232711e-08 4.4934066326025172e-09 0.0000000000000000e+00  1.1383083214336956e-08 7.5105227385067963e-09 0.0000000000000000e+00  6.0057915743232549e-09 1.2179270911325676e-08 0.0000000000000000e+00  -1.3237644833217895e-09 1.7629129941671442e-08 0.0000000000000000e+00  -1.3265307899206380e-08 1.4800092839889617e-08 0.0000000000000000e+00  -7.7527932932483685e-09 -1.9482020285521070e-08 0.0000000000000000e+00  -1.6295604128461472e-09 -1.9531558288126122e-08 0.0000000000000000e+00  9.8543210303220365e-10 -1.5203910745826304e-08 0.0000000000000000e+00  3.6955035411479914e-09 -1.0426996084638065e-08 0.0000000000000000e+00  6.5630576738476749e-09 -6.8932197932521061e-09 0.0000000000000000e+00  9.0827622980960334e-09 -4.5080333315439656e-09 0.0000000000000000e+00  1.1042517170546828e-08 -2.9258337420848894e-09 0.0000000000000000e+00  1.2458329534039734e-08 -1.8590050320117193e-09 0.0000000000000000e+00  1.3409936343547736e-08 -1.1077015542105570e-09 0.0000000000000000e+00  1.3969184352402348e-08 -5.3333257252609444e-10 0.0000000000000000e+00  1.4181342819496298e-08 -3.1960290214167269e-11 0.0000000000000000e+00  1.4062094855792834e-08 4.8558421251583916e-10 0.0000000000000000e+00  1.3597694141949818e-08 1.1094327235859620e-09 0.0000000000000000e+00  1.2745274023860262e-08 1.9457839626845151e-09 0.0000000000000000e+00  1.1434441405859729e-08 3.1339403705772747e-09 0.0000000000000000e+00  9.5762681425607258e-09 4.8637274921184673e-09 0.0000000000000000e+00  7.0964518770976415e-09 7.3756098482649819e-09 0.0000000000000000e+00  4.0266882323676950e-09 1.0873101113403390e-08 0.0000000000000000e+00  6.6036759799787615e-10 1.5155781182520926e-08 0.0000000000000000e+00  -2.6590182274797887e-09 1.8781213889341303e-08 0.0000000000000000e+00  -9.0160564723808224e-09 1.7640546595666129e-08 0.0000000000000000e+00  -5.9081030306076791e-09 -1.8882106830530923e-08 0.0000000000000000e+00  -1.9490813518347136e-09 -1.9200530641241905e-08 0.0000000000000000e+00  -1.0086711816337544e-09 -1.6542003302930866e-08 0.0000000000000000e+00  7.7371655265059848e-11 -1.2761367165620718e-08 0.0000000000000000e+00  1.6810632590022039e-09 -9.2840106476600763e-09 0.0000000000000000e+00  3.4424894845821798e-09 -6.5441554571107660e-09 0.0000000000000000e+00  5.0327884129037552e-09 -4.4996926898181737e-09 0.0000000000000000e+00  6.3006644814392460e-09 -2.9832472422966406e-09 0.0000000000000000e+00  7.2072578919333048e-09 -1.8261058299756127e-09 0.0000000000000000e+00  7.7583709919831887e-09 -8.8491601332041815e-10 0.0000000000000000e+00  7.9675089792220663e-09 -3.8451792967123107e-11 0.0000000000000000e+00  7.8405834049726129e-09 8.2278005776778941e-10 0.0000000000000000e+00  7.3716454496148168e-09 1.8075975418987032e-09 0.0000000000000000e+00  6.5454620007165651e-09 3.0340252130626049e-09 0.0000000000000000e+00  5.3480874817103211e-09 4.6354276958989714e-09 0.0000000000000000e+00  3.7914038000592885e-09 6.7543672416366631e-09 0.0000000000000000e+00  1.9609387049672717e-09 9.5008795070437107e-09 0.0000000000000000e+00  8.3903081909785082e-11 1.2827250532923406e-08 0.0000000000000000e+00  -1.4767517673674422e-09 1.6272279821130291e-08 0.0000000000000000e+00  -2.7633717764230843e-09 1.8717386681190913e-08 0.0000000000000000e+00  -6.7959472063017446e-09 1.8630926753194279e-08 0.0000000000000000e+00  -4.8670923614630883e-09 -1.7741979071252591e-08 0.0000000000000000e+00  -2.1140390759191106e-09 -1.8235396522651537e-08 0.0000000000000000e+00  -2.0519842401417470e-09 -1.6506878060063868e-08 0.0000000000000000e+00  -1.9991957201466102e-09 -1.3684328975008559e-08 0.0000000000000000e+00  -1.4304547399528339e-09 -1.0668826517995912e-08 0.0000000000000000e+00  -5.0464718831055805e-10 -7.9722285844473256e-09 0.0000000000000000e+00  5.1014997777451725e-10 -5.7414947326661975e-09 0.0000000000000000e+00  1.4203278994118243e-09 -3.9417396514428524e-09 0.0000000000000000e+00  2.1217479239121407e-09 -2.4715480966774397e-09 0.0000000000000000e+00  2.5682166771602283e-09 -1.2146117373927750e-09 0.0000000000000000e+00  2.7425793029136350e-09 -5.6493061047695693e-11 0.0000000000000000e+00  2.6401010845062573e-09 1.1131552588445607e-09 0.0000000000000000e+00  2.2626025562713790e-09 2.4029192152964228e-09 0.0000000000000000e+00  1.6214250480580154e-09 3.9209928330915078e-09 0.0000000000000000e+00  7.4934599121145939e-10 5.7700975497694501e-09 0.0000000000000000e+00  -2.7740171776786356e-10 8.0269240272177596e-09 0.0000000000000000e+00  -1.3101389206401778e-09 1.0691575447361220e-08 0.0000000000000000e+00  -2.1165241673445842e-09 1.3593780469119901e-08 0.0000000000000000e+00  -2.4816983232744066e-09 1.6279849161101202e-08 0.0000000000000000e+00  -2.7325479279184708e-09 1.8014163760888076e-08 0.0000000000000000e+00  -5.5303398665725682e-09 1.8403428270006248e-08 0.0000000000000000e+00  -4.2084852962692355e-09 -1.6303212948377688e-08 0.0000000000000000e+00  -2.2426615886623849e-09 -1.6923937229090062e-08 0.0000000000000000e+00  -2.7012914450653498e-09 -1.5749228259262026e-08 0.0000000000000000e+00  -3.2978832807704053e-09 -1.3641029702703636e-08 0.0000000000000000e+00  -3.4780803260069681e-09 -1.1156733933421935e-08 0.0000000000000000e+00  -3.2633448511192398e-09 -8.7109778861721547e-09 0.0000000000000000e+00  -2.8271384124902475e-09 -6.5090002267773467e-09 0.0000000000000000e+00  -2.3372758901339054e-09 -4.5999377855299871e-09 0.0000000000000000e+00  -1.9117060964995650e-09 -2.9465866884319197e-09 0.0000000000000000e+00  -1.6204573573454116e-09 -1.4722096368293864e-09 0.0000000000000000e+00  -1.4990744892410219e-09 -8.5046038829423817e-11 0.0000000000000000e+00  -1.5596002848253001e-09 1.3104598349973996e-09 0.0000000000000000e+00  -1.7952486096571067e-09 2.8079286132371292e-09 0.0000000000000000e+00  -2.1784155183111494e-09 4.4929464564525022e-09 0.0000000000000000e+00  -2.6526908366129004e-09 6.4311771828170599e-09 0.0000000000000000e+00  -3.1213273037728464e-09 8.6447530886608110e-09 0.0000000000000000e+00  -3.4406139358245295e-09 1.1072238592371844e-08 0.0000000000000000e+00  -3.4424987727371557e-09 1.3517029861295016e-08 0.0000000000000000e+00  -3.0509990435660097e-09 1.5617237510450257e-08 0.0000000000000000e+00  -2.7106067536202223e-09 1.6904502939165050e-08 0.0000000000000000e+00  -4.7368538987368996e-09 1.7531061951133369e-08 0.0000000000000000e+00  -3.7573565432428282e-09 -1.4665886646203274e-08 0.0000000000000000e+00  -2.3506710316460976e-09 -1.5383551860806546e-08 0.0000000000000000e+00  -3.1528387932938227e-09 -1.4564308182811317e-08 0.0000000000000000e+00  -4.1709300246397192e-09 -1.2972261532665712e-08 0.0000000000000000e+00  -4.8741095177969320e-09 -1.0964084325577530e-08 0.0000000000000000e+00  -5.2079399837469011e-09 -8.8417734538336881e-09 0.0000000000000000e+00  -5.2668117021587508e-09 -6.7987673983685836e-09 0.0000000000000000e+00  -5.1724710484423754e-09 -4.9195516635671357e-09 0.0000000000000000e+00  -5.0275590903915615e-09 -3.2105990875076113e-09 0.0000000000000000e+00  -4.9031545711742063e-09 -1.6319092505407972e-09 0.0000000000000000e+00  -4.8401063037222604e-09 -1.1974023546663751e-10 0.0000000000000000e+00  -4.8533275012498176e-09 1.3986886502090689e-09 0.0000000000000000e+00  -4.9342686535903718e-09 2.9946875690426057e-09 0.0000000000000000e+00  -5.0502447243707178e-09 4.7276927615040755e-09 0.0000000000000000e+00  -5.1414831375695265e-09 6.6312838944639303e-09 0.0000000000000000e+00  -5.1192757521808737e-09 8.6930227687842992e-09 0.0000000000000000e+00  -4.8730875446219064e-09 1.0828896453507178e-08 0.0000000000000000e+00  -4.3034698910268371e-09 1.2861354876938538e-08 0.0000000000000000e+00  -3.4230444520485959e-09 1.4524050564505704e-08 0.0000000000000000e+00  -2.7065058265629056e-09 1.5518253764282360e-08 0.0000000000000000e+00  -4.2010613833006433e-09 1.6285874584439307e-08 0.0000000000000000e+00  -3.4333279161962782e-09 -1.2884201276388842e-08 0.0000000000000000e+00  -2.4403196273911256e-09 -1.3678069353021322e-08 0.0000000000000000e+00  -3.4845221259118977e-09 -1.3102487006891892e-08 0.0000000000000000e+00  -4.7863915012407408e-09 -1.1891709355766771e-08 0.0000000000000000e+00  -5.8521824643212802e-09 -1.0283854048559232e-08 0.0000000000000000e+00  -6.5903057568489360e-09 -8.4921089914213074e-09 0.0000000000000000e+00  -7.0398072714836137e-09 -6.6753489482490024e-09 0.0000000000000000e+00  -7.2782199610776273e-09 -4.9232414584762625e-09 0.0000000000000000e+00  -7.3823243902209223e-09 -3.2653834821137297e-09 0.0000000000000000e+00  -7.4116789894996650e-09 -1.6890110382535724e-09 0.0000000000000000e+00  -7.4034562384114404e-09 -1.5617894003989816e-10 0.0000000000000000e+00  -7.3719699176715145e-09 1.3821283944426637e-09 0.0000000000000000e+00  -7.3092520346569465e-09 2.9741256356222458e-09 0.0000000000000000e+00  -7.1853974981111360e-09 4.6556579765699328e-09 0.0000000000000000e+00  -6.9493693039733275e-09 6.4371961264829753e-09 0.0000000000000000e+00  -6.5329709176475595e-09 8.2890023283535872e-09 0.0000000000000000e+00  -5.8632951499465533e-09 1.0127048978700745e-08 0.0000000000000000e+00  -4.8941192373036071e-09 1.1807097783832188e-08 0.0000000000000000e+00  -3.6875195586698421e-09 1.3140062355292645e-08 0.0000000000000000e+00  -2.7128239987706125e-09 1.3934736642586410e-08 0.0000000000000000e+00  -3.8175441787482363e-09 1.4797770501071514e-08 0.0000000000000000e+00  -3.1953694898480241e-09 -1.0994782706775448e-08 0.0000000000000000e+00  -2.5130149707873508e-09 -1.1849710775982380e-08 0.0000000000000000e+00  -3.7329679339857552e-09 -1.1451648169415848e-08 0.0000000000000000e+00  -5.2307245640605638e-09 -1.0533400427279516e-08 0.0000000000000000e+00  -6.5478651263194240e-09 -9.2607116901773445e-09 0.0000000000000000e+00  -7.5764558052972092e-09 -7.7830271699051126e-09 0.0000000000000000e+00  -8.3196152628022776e-09 -6.2230336051768880e-09 0.0000000000000000e+00  -8.8195407701935092e-09 -4.6613945907411072e-09 0.0000000000000000e+00  -9.1268736807772679e-09 -3.1363314273645079e-09 0.0000000000000000e+00  -9.2852229029662316e-09 -1.6521938114373139e-09 0.0000000000000000e+00  -9.3237446228002336e-09 -1.9102870293602295e-10 0.0000000000000000e+00  -9.2542260383876099e-09 1.2758301898592531e-09 0.0000000000000000e+00  -9.0705102485449835e-09 2.7768376837885601e-09 0.0000000000000000e+00  -8.7493925800144682e-09 4.3296122505952443e-09 0.0000000000000000e+00  -8.2534013528531023e-09 5.9302859768215664e-09 0.0000000000000000e+00  -7.5371039583563018e-09 7.5435063827844717e-09 0.0000000000000000e+00  -6.5599650652761310e-09 9.0956486015214628e-09 0.0000000000000000e+00  -5.3125295554441338e-09 1.0476059813795103e-08 0.0000000000000000e+00  -3.8827358380454105e-09 1.1553250766522110e-08 0.0000000000000000e+00  -2.7226143073023663e-09 1.2205848715317775e-08 0.0000000000000000e+00  -3.5301662787826445e-09 1.3137126937366016e-08 0.0000000000000000e+00  -3.0206844334286819e-09 -9.0256001600878811e-09 0.0000000000000000e+00  -2.5707179202871973e-09 -9.9299635222937998e-09 0.0000000000000000e+00  -3.9189112446763574e-09 -9.6688534652119168e-09 0.0000000000000000e+00  -5.5531285622111113e-09 -8.9850554214318032e-09 0.0000000000000000e+00  -7.0439270601772605e-09 -7.9983408686017404e-09 0.0000000000000000e+00  -8.2772541284395963e-09 -6.8134700475384524e-09 0.0000000000000000e+00  -9.2337073052207483e-09 -5.5220291746900111e-09 0.0000000000000000e+00  -9.9295666830303627e-09 -4.1907160017859092e-09 0.0000000000000000e+00  -1.0393357424723731e-08 -2.8577584819591542e-09 0.0000000000000000e+00  -1.0653077746666297e-08 -1.5363996238271142e-09 0.0000000000000000e+00  -1.0728869912163022e-08 -2.2214192405663951e-10 0.0000000000000000e+00  -1.0629342647384618e-08 1.0986051454715668e-09 0.0000000000000000e+00  -1.0350500159792875e-08 2.4396317923369975e-09 0.0000000000000000e+00  -9.8768139643049050e-09 3.8062523292914528e-09 0.0000000000000000e+00  -9.1846159060647071e-09 5.1872809460199839e-09 0.0000000000000000e+00  -8.2485935111128781e-09 6.5486659083956481e-09 0.0000000000000000e+00  -7.0529659422401263e-09 7.8307456278005634e-09 0.0000000000000000e+00  -5.6123804491691241e-09 8.9519295667746930e-09 0.0000000000000000e+00  -4.0276828501056595e-09 9.8225338629471393e-09 0.0000000000000000e+00  -2.7313538069320011e-09 1.0367952078063491e-08 0.0000000000000000e+00  -3.3076630446494028e-09 1.1347926716841804e-08 0.0000000000000000e+00  -2.8958135975049921e-09 -6.9991850239674893e-09 0.0000000000000000e+00  -2.6157910710726189e-09 -7.9437243163924463e-09 0.0000000000000000e+00  -4.0560749701420034e-09 -7.7939575895853774e-09 0.0000000000000000e+00  -5.7845995682058068e-09 -7.3065471737384310e-09 0.0000000000000000e+00  -7.3939164957696542e-09 -6.5706715452905358e-09 0.0000000000000000e+00  -8.7685241550291923e-09 -5.6595952693090201e-09 0.0000000000000000e+00  -9.8751646743713310e-09 -4.6398491489428909e-09 0.0000000000000000e+00  -1.0712056746869324e-08 -3.5634722199623156e-09 0.0000000000000000e+00  -1.1290732837788389e-08 -2.4641052346962387e-09 0.0000000000000000e+00  -1.1626090049786380e-08 -1.3579954056456436e-09 0.0000000000000000e+00  -1.1730120422478233e-08 -2.4830206657473083e-10 0.0000000000000000e+00  -1.1608387415074500e-08 8.6888599230401555e-10 0.0000000000000000e+00  -1.1258870709087684e-08 1.9979252853280738e-09 0.0000000000000000e+00  -1.0672994808902469e-08 3.1371234619120521e-09 0.0000000000000000e+00  -9.8388708001368122e-09 4.2730715597138666e-09 0.0000000000000000e+00  -8.7470048445789904e-09 5.3767601131229230e-09 0.0000000000000000e+00  -7.3993081207009140e-09 6.4028222298724382e-09 0.0000000000000000e+00  -5.8257828818400708e-09 7.2934443379345597e-09 0.0000000000000000e+00  -4.1334006854411886e-09 7.9892545113951554e-09 0.0000000000000000e+00  -2.7366330206576447e-09 8.4480331889514607e-09 0.0000000000000000e+00  -3.1324306338277620e-09 9.4611276554634912e-09 0.0000000000000000e+00  -2.8124714143571819e-09 -4.9341035770806389e-09 0.0000000000000000e+00  -2.6506783406640116e-09 -5.9111707745638039e-09 0.0000000000000000e+00  -4.1544385032614866e-09 -5.8561798971488556e-09 0.0000000000000000e+00  -5.9461939368114651e-09 -5.5401920734585356e-09 0.0000000000000000e+00  -7.6340729331471612e-09 -5.0308464753536172e-09 0.0000000000000000e+00  -9.1030343935152662e-09 -4.3786355474573108e-09 0.0000000000000000e+00  -1.0311461446231403e-08 -3.6301325064944884e-09 0.0000000000000000e+00  -1.1245516016090608e-08 -2.8235992920172429e-09 0.0000000000000000e+00  -1.1904571546407187e-08 -1.9858395004635434e-09 0.0000000000000000e+00  -1.2293581907760150e-08 -1.1321791600269467e-09 0.0000000000000000e+00  -1.2418047047103089e-08 -2.6890243683823232e-10 0.0000000000000000e+00  -1.2280994525607488e-08 6.0283015449679702e-10 0.0000000000000000e+00  -1.1881933894641905e-08 1.4824329146921344e-09 0.0000000000000000e+00  -1.1217756640381163e-08 2.3654132279928716e-09 0.0000000000000000e+00  -1.0285533871365784e-08 3.2396195597736182e-09 0.0000000000000000e+00  -9.0871995629608272e-09 4.0829702552404172e-09 0.0000000000000000e+00  -7.6366443250164381e-09 4.8635180112574401e-09 0.0000000000000000e+00  -5.9734152802518669e-09 5.5426874781249010e-09 0.0000000000000000e+00  -4.2072230753796441e-09 6.0834782020338998e-09 0.0000000000000000e+00  -2.7375210459172294e-09 6.4669930042947345e-09 0.0000000000000000e+00  -2.9947204427678378e-09 7.5003296510453505e-09 0.0000000000000000e+00  -2.7654099944340657e-09 -2.8459159727205843e-09 0.0000000000000000e+00  -2.6776184293453291e-09 -3.8488856366319558e-09 0.0000000000000000e+00  -4.2214499793299019e-09 -3.8777216091195362e-09 0.0000000000000000e+00  -6.0526522201985773e-09 -3.7168789740811171e-09 0.0000000000000000e+00  -7.7892822229884660e-09 -3.4177204325712683e-09 0.0000000000000000e+00  -9.3173463384370279e-09 -3.0134957701307061e-09 0.0000000000000000e+00  -1.0590404946670231e-08 -2.5345290173752