<?xml version="1.0"?>
<VTKFile type="UnstructuredGrid"  version="0.1"  >
<UnstructuredGrid>
<Piece  NumberOfPoints="651" NumberOfCells="1200">
<Points>
<DataArray  type="Float64"  NumberOfComponents="3"  format="ascii">0 0 0  50000 0 0  100000 0 0  150000 0 0  200000 0 0  250000 0 0  300000 0 0  350000 0 0  400000 0 0  450000 0 0  500000 0 0  550000 0 0  600000 0 0  650000 0 0  700000 0 0  750000 0 0  800000 0 0  850000 0 0  900000 0 0  950000 0 0  1000000 0 0  0 50000 0  50000 50000 0  100000 50000 0  150000 50000 0  200000 50000 0  250000 50000 0  300000 50000 0  350000 50000 0  400000 50000 0  450000 50000 0  500000 50000 0  550000 50000 0  600000 50000 0  650000 50000 0  700000 50000 0  750000 50000 0  800000 50000 0  850000 50000 0  900000 50000 0  950000 50000 0  1000000 50000 0  0 100000 0  50000 100000 0  100000 100000 0  150000 100000 0  200000 100000 0  250000 100000 0  300000 100000 0  350000 100000 0  400000 100000 0  450000 100000 0  500000 100000 0  550000 100000 0  600000 100000 0  650000 100000 0  700000 100000 0  750000 100000 0  800000 100000 0  850000 100000 0  900000 100000 0  950000 100000 0  1000000 100000 0  0 150000 0  50000 150000 0  100000 150000 0  150000 150000 0  200000 150000 0  250000 150000 0  300000 150000 0  350000 150000 0  400000 150000 0  450000 150000 0  500000 150000 0  550000 150000 0  600000 150000 0  650000 150000 0  700000 150000 0  750000 150000 0  800000 150000 0  850000 150000 0  900000 150000 0  950000 150000 0  1000000 150000 0  0 200000 0  50000 200000 0  100000 200000 0  150000 200000 0  200000 200000 0  250000 200000 0  300000 200000 0  350000 200000 0  400000 200000 0  450000 200000 0  500000 200000 0  550000 200000 0  600000 200000 0  650000 200000 0  700000 200000 0  750000 200000 0  800000 200000 0  850000 200000 0  900000 200000 0  950000 200000 0  1000000 200000 0  0 250000 0  50000 250000 0  100000 250000 0  150000 250000 0  200000 250000 0  250000 250000 0  300000 250000 0  350000 250000 0  400000 250000 0  450000 250000 0  500000 250000 0  550000 250000 0  600000 250000 0  650000 250000 0  700000 250000 0  750000 250000 0  800000 250000 0  850000 250000 0  900000 250000 0  950000 250000 0  1000000 250000 0  0 300000 0  50000 300000 0  100000 300000 0  150000 300000 0  200000 300000 0  250000 300000 0  300000 300000 0  350000 300000 0  400000 300000 0  450000 300000 0  500000 300000 0  550000 300000 0  600000 300000 0  650000 300000 0  700000 300000 0  750000 300000 0  800000 300000 0  850000 300000 0  900000 300000 0  950000 300000 0  1000000 300000 0  0 350000 0  50000 350000 0  100000 350000 0  150000 350000 0  200000 350000 0  250000 350000 0  300000 350000 0  350000 350000 0  400000 350000 0  450000 350000 0  500000 350000 0  550000 350000 0  600000 350000 0  650000 350000 0  700000 350000 0  750000 350000 0  800000 350000 0  850000 350000 0  900000 350000 0  950000 350000 0  1000000 350000 0  0 400000 0  50000 400000 0  100000 400000 0  150000 400000 0  200000 400000 0  250000 400000 0  300000 400000 0  350000 400000 0  400000 400000 0  450000 400000 0  500000 400000 0  550000 400000 0  600000 400000 0  650000 400000 0  700000 400000 0  750000 400000 0  800000 400000 0  850000 400000 0  900000 400000 0  950000 400000 0  1000000 400000 0  0 450000 0  50000 450000 0  100000 450000 0  150000 450000 0  200000 450000 0  250000 450000 0  300000 450000 0  350000 450000 0  400000 450000 0  450000 450000 0  500000 450000 0  550000 450000 0  600000 450000 0  650000 450000 0  700000 450000 0  750000 450000 0  800000 450000 0  850000 450000 0  900000 450000 0  950000 450000 0  1000000 450000 0  0 500000 0  50000 500000 0  100000 500000 0  150000 500000 0  200000 500000 0  250000 500000 0  300000 500000 0  350000 500000 0  400000 500000 0  450000 500000 0  500000 500000 0  550000 500000 0  600000 500000 0  650000 500000 0  700000 500000 0  750000 500000 0  800000 500000 0  850000 500000 0  900000 500000 0  950000 500000 0  1000000 500000 0  0 550000 0  50000 550000 0  100000 550000 0  150000 550000 0  200000 550000 0  250000 550000 0  300000 550000 0  350000 550000 0  400000 550000 0  450000 550000 0  500000 550000 0  550000 550000 0  600000 550000 0  650000 550000 0  700000 550000 0  750000 550000 0  800000 550000 0  850000 550000 0  900000 550000 0  950000 550000 0  1000000 550000 0  0 600000 0  50000 600000 0  100000 600000 0  150000 600000 0  200000 600000 0  250000 600000 0  300000 600000 0  350000 600000 0  400000 600000 0  450000 600000 0  500000 600000 0  550000 600000 0  600000 600000 0  650000 600000 0  700000 600000 0  750000 600000 0  800000 600000 0  850000 600000 0  900000 600000 0  950000 600000 0  1000000 600000 0  0 650000 0  50000 650000 0  100000 650000 0  150000 650000 0  200000 650000 0  250000 650000 0  300000 650000 0  350000 650000 0  400000 650000 0  450000 650000 0  500000 650000 0  550000 650000 0  600000 650000 0  650000 650000 0  700000 650000 0  750000 650000 0  800000 650000 0  850000 650000 0  900000 650000 0  950000 650000 0  1000000 650000 0  0 700000 0  50000 700000 0  100000 700000 0  150000 700000 0  200000 700000 0  250000 700000 0  300000 700000 0  350000 700000 0  400000 700000 0  450000 700000 0  500000 700000 0  550000 700000 0  600000 700000 0  650000 700000 0  700000 700000 0  750000 700000 0  800000 700000 0  850000 700000 0  900000 700000 0  950000 700000 0  1000000 700000 0  0 750000 0  50000 750000 0  100000 750000 0  150000 750000 0  200000 750000 0  250000 750000 0  300000 750000 0  350000 750000 0  400000 750000 0  450000 750000 0  500000 750000 0  550000 750000 0  600000 750000 0  650000 750000 0  700000 750000 0  750000 750000 0  800000 750000 0  850000 750000 0  900000 750000 0  950000 750000 0  1000000 750000 0  0 800000 0  50000 800000 0  100000 800000 0  150000 800000 0  200000 800000 0  250000 800000 0  300000 800000 0  350000 800000 0  400000 800000 0  450000 800000 0  500000 800000 0  550000 800000 0  600000 800000 0  650000 800000 0  700000 800000 0  750000 800000 0  800000 800000 0  850000 800000 0  900000 800000 0  950000 800000 0  1000000 800000 0  0 850000 0  50000 850000 0  100000 850000 0  150000 850000 0  200000 850000 0  250000 850000 0  300000 850000 0  350000 850000 0  400000 850000 0  450000 850000 0  500000 850000 0  550000 850000 0  600000 850000 0  650000 850000 0  700000 850000 0  750000 850000 0  800000 850000 0  850000 850000 0  900000 850000 0  950000 850000 0  1000000 850000 0  0 900000 0  50000 900000 0  100000 900000 0  150000 900000 0  200000 900000 0  250000 900000 0  300000 900000 0  350000 900000 0  400000 900000 0  450000 900000 0  500000 900000 0  550000 900000 0  600000 900000 0  650000 900000 0  700000 900000 0  750000 900000 0  800000 900000 0  850000 900000 0  900000 900000 0  950000 900000 0  1000000 900000 0  0 950000 0  50000 950000 0  100000 950000 0  150000 950000 0  200000 950000 0  250000 950000 0  300000 950000 0  350000 950000 0  400000 950000 0  450000 950000 0  500000 950000 0  550000 950000 0  600000 950000 0  650000 950000 0  700000 950000 0  750000 950000 0  800000 950000 0  850000 950000 0  900000 950000 0  950000 950000 0  1000000 950000 0  0 1000000 0  50000 1000000 0  100000 1000000 0  150000 1000000 0  200000 1000000 0  250000 1000000 0  300000 1000000 0  350000 1000000 0  400000 1000000 0  450000 1000000 0  500000 1000000 0  550000 1000000 0  600000 1000000 0  650000 1000000 0  700000 1000000 0  750000 1000000 0  800000 1000000 0  850000 1000000 0  900000 1000000 0  950000 1000000 0  1000000 1000000 0  0 1050000 0  50000 1050000 0  100000 1050000 0  150000 1050000 0  200000 1050000 0  250000 1050000 0  300000 1050000 0  350000 1050000 0  400000 1050000 0  450000 1050000 0  500000 1050000 0  550000 1050000 0  600000 1050000 0  650000 1050000 0  700000 1050000 0  750000 1050000 0  800000 1050000 0  850000 1050000 0  900000 1050000 0  950000 1050000 0  1000000 1050000 0  0 1100000 0  50000 1100000 0  100000 1100000 0  150000 1100000 0  200000 1100000 0  250000 1100000 0  300000 1100000 0  350000 1100000 0  400000 1100000 0  450000 1100000 0  500000 1100000 0  550000 1100000 0  600000 1100000 0  650000 1100000 0  700000 1100000 0  750000 1100000 0  800000 1100000 0  850000 1100000 0  900000 1100000 0  950000 1100000 0  1000000 1100000 0  0 1150000 0  50000 1150000 0  100000 1150000 0  150000 1150000 0  200000 1150000 0  250000 1150000 0  300000 1150000 0  350000 1150000 0  400000 1150000 0  450000 1150000 0  500000 1150000 0  550000 1150000 0  600000 1150000 0  650000 1150000 0  700000 1150000 0  750000 1150000 0  800000 1150000 0  850000 1150000 0  900000 1150000 0  950000 1150000 0  1000000 1150000 0  0 1200000 0  50000 1200000 0  100000 1200000 0  150000 1200000 0  200000 1200000 0  250000 1200000 0  300000 1200000 0  350000 1200000 0  400000 1200000 0  450000 1200000 0  500000 1200000 0  550000 1200000 0  600000 1200000 0  650000 1200000 0  700000 1200000 0  750000 1200000 0  800000 1200000 0  850000 1200000 0  900000 1200000 0  950000 1200000 0  1000000 1200000 0  0 1250000 0  50000 1250000 0  100000 1250000 0  150000 1250000 0  200000 1250000 0  250000 1250000 0  300000 1250000 0  350000 1250000 0  400000 1250000 0  450000 1250000 0  500000 1250000 0  550000 1250000 0  600000 1250000 0  650000 1250000 0  700000 1250000 0  750000 1250000 0  800000 1250000 0  850000 1250000 0  900000 1250000 0  950000 1250000 0  1000000 1250000 0  0 1300000 0  50000 1300000 0  100000 1300000 0  150000 1300000 0  200000 1300000 0  250000 1300000 0  300000 1300000 0  350000 1300000 0  400000 1300000 0  450000 1300000 0  500000 1300000 0  550000 1300000 0  600000 1300000 0  650000 1300000 0  700000 1300000 0  750000 1300000 0  800000 1300000 0  850000 1300000 0  900000 1300000 0  950000 1300000 0  1000000 1300000 0  0 1350000 0  50000 1350000 0  100000 1350000 0  150000 1350000 0  200000 1350000 0  250000 1350000 0  300000 1350000 0  350000 1350000 0  400000 1350000 0  450000 1350000 0  500000 1350000 0  550000 1350000 0  600000 1350000 0  650000 1350000 0  700000 135
[...]
<PointData  Vectors="f_19"> 
<DataArray  type="Float64"  Name="f_19"  NumberOfComponents="3" format="ascii">-2.4521589335543527e-08 -9.7411591287766643e-09 0.0000000000000000e+00  4.8522467105392659e-08 -5.8565560310124353e-09 0.0000000000000000e+00  4.2751921044856730e-08 -1.5986682960521381e-09 0.0000000000000000e+00  4.0258591197971084e-08 -2.5620155586202839e-10 0.0000000000000000e+00  3.9021416270467655e-08 2.0959082655629359e-10 0.0000000000000000e+00  3.8209159663134474e-08 4.1103280980615522e-10 0.0000000000000000e+00  3.7626266106126182e-08 5.1206599714360280e-10 0.0000000000000000e+00  3.7216837324444383e-08 5.6739855212532093e-10 0.0000000000000000e+00  3.6963895873347550e-08 5.9892613838563563e-10 0.0000000000000000e+00  3.6863607764086494e-08 6.1688407114787489e-10 0.0000000000000000e+00  3.6917289192710340e-08 6.2702902077033194e-10 0.0000000000000000e+00  3.7129260226476068e-08 6.3398236492774867e-10 0.0000000000000000e+00  3.7507952768177143e-08 6.4402800190564885e-10 0.0000000000000000e+00  3.8071471004676289e-08 6.6929609858973445e-10 0.0000000000000000e+00  3.8863406347491567e-08 7.3615466081076176e-10 0.0000000000000000e+00  3.9995726082393497e-08 9.0476853371374548e-10 0.0000000000000000e+00  4.1762643428246574e-08 1.3191871811492859e-09 0.0000000000000000e+00  4.4907084748881721e-08 2.3346602004227653e-09 0.0000000000000000e+00  5.0761826772446123e-08 4.7832305512043365e-09 0.0000000000000000e+00  5.8007431739556238e-08 9.2463083001478846e-09 0.0000000000000000e+00  -1.6451369264957542e-08 7.1374254005979602e-09 0.0000000000000000e+00  -1.8315053022383708e-08 -1.5262971494718003e-08 0.0000000000000000e+00  7.0677260548332175e-09 -1.1041462428417353e-08 0.0000000000000000e+00  1.7824266350663924e-08 -5.1281529204955069e-09 0.0000000000000000e+00  2.2889394542376333e-08 -2.2794605421727986e-09 0.0000000000000000e+00  2.5495425023320224e-08 -1.0311119661223180e-09 0.0000000000000000e+00  2.6970141129528154e-08 -4.4708327223079078e-10 0.0000000000000000e+00  2.7833522456019519e-08 -1.5917552192334502e-10 0.0000000000000000e+00  2.8348963677559951e-08 -1.7213447639813839e-11 0.0000000000000000e+00  2.8661219865536979e-08 4.7765163538483160e-11 0.0000000000000000e+00  2.8850722328120651e-08 7.3040093082985883e-11 0.0000000000000000e+00  2.8958756628690908e-08 8.3305427372661304e-11 0.0000000000000000e+00  2.8998806958773366e-08 9.9592110398281357e-11 0.0000000000000000e+00  2.8960340366839373e-08 1.4522868181478010e-10 0.0000000000000000e+00  2.8807159434980534e-08 2.5255251800382213e-10 0.0000000000000000e+00  2.8469511035145236e-08 4.7456445739695161e-10 0.0000000000000000e+00  2.7824151158754098e-08 9.1025287498443197e-10 0.0000000000000000e+00  2.6640557563542800e-08 1.7642170765510181e-09 0.0000000000000000e+00  2.4406058499281733e-08 3.4803316592365347e-09 0.0000000000000000e+00  1.9682876481537015e-08 6.9406600444374460e-09 0.0000000000000000e+00  8.2351177480375794e-09 1.3091140949481074e-08 0.0000000000000000e+00  -1.8421568818720380e-08 1.1065556728721945e-08 0.0000000000000000e+00  -1.1390115236584579e-08 -1.8837038534484808e-08 0.0000000000000000e+00  -3.9397941799294372e-10 -1.8197830340858893e-08 0.0000000000000000e+00  5.5775631469321452e-09 -1.1288339950264967e-08 0.0000000000000000e+00  1.0405898098976119e-08 -6.5407865862302373e-09 0.0000000000000000e+00  1.4216325423013712e-08 -3.7893505286937598e-09 0.0000000000000000e+00  1.6879805655920027e-08 -2.2290887948909006e-09 0.0000000000000000e+00  1.8673464775554041e-08 -1.3228676622635923e-09 0.0000000000000000e+00  1.9860370503493929e-08 -7.7988534058487760e-10 0.0000000000000000e+00  2.0619209235739379e-08 -4.4050428969590345e-10 0.0000000000000000e+00  2.1059645912290292e-08 -2.0941444206456436e-10 0.0000000000000000e+00  2.1240402501093041e-08 -2.0989647756327882e-11 0.0000000000000000e+00  2.1180207254662310e-08 1.7979770762674112e-10 0.0000000000000000e+00  2.0861845531581042e-08 4.5061838973097492e-10 0.0000000000000000e+00  2.0229998681274045e-08 8.6528325425762604e-10 0.0000000000000000e+00  1.9182317729888391e-08 1.5332692593862808e-09 0.0000000000000000e+00  1.7551809049074339e-08 2.6328261961133082e-09 0.0000000000000000e+00  1.5079052081739363e-08 4.4640232565055764e-09 0.0000000000000000e+00  1.1384134075706006e-08 7.4950583644417098e-09 0.0000000000000000e+00  6.0044482909917452e-09 1.2179989926799925e-08 0.0000000000000000e+00  -1.3355565511673566e-09 1.7634893145482390e-08 0.0000000000000000e+00  -1.3305487309303633e-08 1.4814263566449673e-08 0.0000000000000000e+00  -7.7312390221332620e-09 -1.9443632497638091e-08 0.0000000000000000e+00  -1.6364058090722304e-09 -1.9509761756752656e-08 0.0000000000000000e+00  9.6006548263924475e-10 -1.5187230257496146e-08 0.0000000000000000e+00  3.6611953658548780e-09 -1.0404469998156004e-08 0.0000000000000000e+00  6.5263997072040053e-09 -6.8662614447616826e-09 0.0000000000000000e+00  9.0470233856445360e-09 -4.4800122916516433e-09 0.0000000000000000e+00  1.1009395184706964e-08 -2.8997963667144018e-09 0.0000000000000000e+00  1.2429142958070434e-08 -1.8375273351579598e-09 0.0000000000000000e+00  1.3386006791157089e-08 -1.0930432750577693e-09 0.0000000000000000e+00  1.3951796933372547e-08 -5.2750439339693382e-10 0.0000000000000000e+00  1.4171529637817554e-08 -3.6606349534118815e-11 0.0000000000000000e+00  1.4060365815831525e-08 4.6951056590683748e-10 0.0000000000000000e+00  1.3603798774780531e-08 1.0821698219967032e-09 0.0000000000000000e+00  1.2758088740005215e-08 1.9093338198142410e-09 0.0000000000000000e+00  1.1452085369390128e-08 3.0924931062856637e-09 0.0000000000000000e+00  9.5965073912241282e-09 4.8235906525522832e-09 0.0000000000000000e+00  7.1173010996527688e-09 7.3442151171099847e-09 0.0000000000000000e+00  4.0467800310990222e-09 1.0856713773362525e-08 0.0000000000000000e+00  6.7782108308737036e-10 1.5155733305521794e-08 0.0000000000000000e+00  -2.6590828940467563e-09 1.8783957751669592e-08 0.0000000000000000e+00  -9.0824766451592502e-09 1.7661915176996728e-08 0.0000000000000000e+00  -5.8912945584531688e-09 -1.8835684686852922e-08 0.0000000000000000e+00  -1.9542839128480877e-09 -1.9164449899392209e-08 0.0000000000000000e+00  -1.0275726072827516e-09 -1.6515675825008902e-08 0.0000000000000000e+00  5.0834950730394860e-11 -1.2735581280403151e-08 0.0000000000000000e+00  1.6520788787279051e-09 -9.2577390869756347e-09 0.0000000000000000e+00  3.4151342350469461e-09 -6.5191068057164778e-09 0.0000000000000000e+00  5.0098063736414590e-09 -4.4782334542284129e-09 0.0000000000000000e+00  6.2839249756129945e-09 -2.9676986254241360e-09 0.0000000000000000e+00  7.1980879074292822e-09 -1.8185351611084168e-09 0.0000000000000000e+00  7.7576428370797831e-09 -8.8702216189809290e-10 0.0000000000000000e+00  7.9755785776731390e-09 -5.1376502847445586e-11 0.0000000000000000e+00  7.8571845970066135e-09 7.9876167352167021e-10 0.0000000000000000e+00  7.3958345251298561e-09 1.7734761907175289e-09 0.0000000000000000e+00  6.5756935885532162e-09 2.9924415529497039e-09 0.0000000000000000e+00  5.3824706625907205e-09 4.5908596125436161e-09 0.0000000000000000e+00  3.8281072876720532e-09 6.7128803703019588e-09 0.0000000000000000e+00  1.9985561616900653e-09 9.4692053093531061e-09 0.0000000000000000e+00  1.2127854292419744e-10 1.2811036723246975e-08 0.0000000000000000e+00  -1.4427706471167943e-09 1.6273339215594765e-08 0.0000000000000000e+00  -2.7540350531700016e-09 1.8724804820518044e-08 0.0000000000000000e+00  -6.8894188975618298e-09 1.8668842478524410e-08 0.0000000000000000e+00  -4.8528996133232847e-09 -1.7687745772061701e-08 0.0000000000000000e+00  -2.1184650668577586e-09 -1.8189616337682191e-08 0.0000000000000000e+00  -2.0667509551063687e-09 -1.6472123759166791e-08 0.0000000000000000e+00  -2.0195175802147274e-09 -1.3654939356557291e-08 0.0000000000000000e+00  -1.4523747929261819e-09 -1.0643291612480147e-08 0.0000000000000000e+00  -5.2441694089390281e-10 -7.9510540913780320e-09 0.0000000000000000e+00  4.9545499302480871e-10 -5.7260872965474044e-09 0.0000000000000000e+00  1.4127695606059822e-09 -3.9337374424103347e-09 0.0000000000000000e+00  2.1226427097586393e-09 -2.4724626035665422e-09 0.0000000000000000e+00  2.5782173390062785e-09 -1.2255864240417516e-09 0.0000000000000000e+00  2.7616994947410449e-09 -7.8062361775262104e-11 0.0000000000000000e+00  2.6677298377874854e-09 1.0813494526245690e-09 0.0000000000000000e+00  2.2975692278193166e-09 2.3624306195392847e-09 0.0000000000000000e+00  1.6621610710969052e-09 3.8748129830109302e-09 0.0000000000000000e+00  7.9414820902016205e-10 5.7227130693910489e-09 0.0000000000000000e+00  -2.3007923601273059e-10 7.9840532372375463e-09 0.0000000000000000e+00  -1.2615666982921340e-09 1.0659493145953732e-08 0.0000000000000000e+00  -2.0682324251261686e-09 1.3578229454283132e-08 0.0000000000000000e+00  -2.4383572403331345e-09 1.6284486669979111e-08 0.0000000000000000e+00  -2.7192727192383432e-09 1.8034266556537390e-08 0.0000000000000000e+00  -5.6447239124974127e-09 1.8465755418147955e-08 0.0000000000000000e+00  -4.1957586326389257e-09 -1.6241098127998568e-08 0.0000000000000000e+00  -2.2468367414998729e-09 -1.6870686463251883e-08 0.0000000000000000e+00  -2.7136690765682082e-09 -1.5708285044015987e-08 0.0000000000000000e+00  -3.3140624439030151e-09 -1.3608925612078748e-08 0.0000000000000000e+00  -3.4947986580370973e-09 -1.1132247908982101e-08 0.0000000000000000e+00  -3.2773917192524804e-09 -8.6939972288731602e-09 0.0000000000000000e+00  -2.8358209406078407e-09 -6.5001028303690130e-09 0.0000000000000000e+00  -2.3386294394596879e-09 -4.5999791062595931e-09 0.0000000000000000e+00  -1.9045178187985369e-09 -2.9563699152428221e-09 0.0000000000000000e+00  -1.6042275174550133e-09 -1.4922157068172943e-09 0.0000000000000000e+00  -1.4739628743748786e-09 -1.1518172396336187e-10 0.0000000000000000e+00  -1.5263515280764723e-09 1.2711138405966434e-09 0.0000000000000000e+00  -1.7550726617277200e-09 2.7613504320235504e-09 0.0000000000000000e+00  -2.1328099424891460e-09 4.4423336973714870e-09 0.0000000000000000e+00  -2.6032270072208336e-09 6.3809654164105552e-09 0.0000000000000000e+00  -3.0694826244794371e-09 8.6004369979746363e-09 0.0000000000000000e+00  -3.3878265663860666e-09 1.1040002863084148e-08 0.0000000000000000e+00  -3.3908617573754353e-09 1.3503296375338613e-08 0.0000000000000000e+00  -3.0062626581382904e-09 1.5628208804211358e-08 0.0000000000000000e+00  -2.6985267876513614e-09 1.6942729743882189e-08 0.0000000000000000e+00  -4.8622742698391979e-09 1.7621220048036016e-08 0.0000000000000000e+00  -3.7455036072836552e-09 -1.4595656540084620e-08 0.0000000000000000e+00  -2.3550079893146623e-09 -1.5323857569283134e-08 0.0000000000000000e+00  -3.1641448647148140e-09 -1.4518870655820139e-08 0.0000000000000000e+00  -4.1847833090350807e-09 -1.2938554787309423e-08 0.0000000000000000e+00  -4.8876036289049256e-09 -1.0941160513250097e-08 0.0000000000000000e+00  -5.2183180225198032e-09 -8.8291655801436988e-09 0.0000000000000000e+00  -5.2717314896244358e-09 -6.7964014182751137e-09 0.0000000000000000e+00  -5.1702088088361787e-09 -4.9275488473482356e-09 0.0000000000000000e+00  -5.0170824947036595e-09 -3.2290414355734762e-09 0.0000000000000000e+00  -4.8841131658851175e-09 -1.6606044351870760e-09 0.0000000000000000e+00  -4.8127748561827731e-09 -1.5799284039366906e-10 0.0000000000000000e+00  -4.8185129273479065e-09 1.3522944819244012e-09 0.0000000000000000e+00  -4.8931805141990127e-09 2.9424758878135710e-09 0.0000000000000000e+00  -5.0043372192232271e-09 4.6730230066524965e-09 0.0000000000000000e+00  -5.0923015694386124e-09 6.5785877633036838e-09 0.0000000000000000e+00  -5.0683798239147152e-09 8.6477490279563772e-09 0.0000000000000000e+00  -4.8221855107802732e-09 1.0797427364112701e-08 0.0000000000000000e+00  -4.2550917731243090e-09 1.2851054817050561e-08 0.0000000000000000e+00  -3.3832546583951773e-09 1.4543593762459557e-08 0.0000000000000000e+00  -2.6989074881012420e-09 1.5576606881237906e-08 0.0000000000000000e+00  -4.3271593489961476e-09 1.6402595363223667e-08 0.0000000000000000e+00  -3.4221646965020033e-09 -1.2805542285729484e-08 0.0000000000000000e+00  -2.4451202304594160e-09 -1.3612372473456493e-08 0.0000000000000000e+00  -3.4956835032285016e-09 -1.3053598754236557e-08 0.0000000000000000e+00  -4.7993081641079569e-09 -1.1857292939233551e-08 0.0000000000000000e+00  -5.8641079499283729e-09 -1.0262974137925507e-08 0.0000000000000000e+00  -6.5988103565047084e-09 -8.4839808108268353e-09 0.0000000000000000e+00  -7.0428868405231664e-09 -6.6793446937917809e-09 0.0000000000000000e+00  -7.2744343760539615e-09 -4.9388220215626645e-09 0.0000000000000000e+00  -7.3708628946154128e-09 -3.2919553676317667e-09 0.0000000000000000e+00  -7.3923564353685932e-09 -1.7257468797424010e-09 0.0000000000000000e+00  -7.3766588024172410e-09 -2.0182691280691615e-10 0.0000000000000000e+00  -7.3385634628121486e-09 1.3294292100019464e-09 0.0000000000000000e+00  -7.2704635874172202e-09 2.9170071012031478e-09 0.0000000000000000e+00  -7.1426866853127465e-09 4.5976460115151322e-09 0.0000000000000000e+00  -6.9043218714853598e-09 6.3827906557892661e-09 0.0000000000000000e+00  -6.4872677673511769e-09 8.2437409003300510e-09 0.0000000000000000e+00  -5.8188444241191142e-09 1.0097638576254533e-08 0.0000000000000000e+00  -4.8535857324891467e-09 1.1801779015745910e-08 0.0000000000000000e+00  -3.6565152520615072e-09 1.3169355600437113e-08 0.0000000000000000e+00  -2.7109755413992021e-09 1.4012154387749231e-08 0.0000000000000000e+00  -3.9357126901949491e-09 1.4936425614627619e-08 0.0000000000000000e+00  -3.1850508182708155e-09 -1.0907345386473549e-08 0.0000000000000000e+00  -2.5185082880885980e-09 -1.1778092109373822e-08 0.0000000000000000e+00  -3.7445911421724496e-09 -1.1399879639127958e-08 0.0000000000000000e+00  -5.2436560676805034e-09 -1.0498861131125965e-08 0.0000000000000000e+00  -6.5594189951839557e-09 -9.2422191126861627e-09 0.0000000000000000e+00  -7.5844291971447460e-09 -7.7794063663406364e-09 0.0000000000000000e+00  -8.3222920158521410e-09 -6.2331258018871231e-09 0.0000000000000000e+00  -8.8157588264624344e-09 -4.6840523568871431e-09 0.0000000000000000e+00  -9.1160572874344768e-09 -3.1703407934693357e-09 0.0000000000000000e+00  -9.2673675649035315e-09 -1.6961458007194175e-09 0.0000000000000000e+00  -9.2993616628188921e-09 -2.4316629110449644e-10 0.0000000000000000e+00  -9.2242570480773631e-09 1.2177699627356390e-09 0.0000000000000000e+00  -9.0362235875734203e-09 2.7157721356351905e-09 0.0000000000000000e+00  -8.7122788598603263e-09 4.2692451371585219e-09 0.0000000000000000e+00  -8.2150923805470917e-09 5.8752313793668893e-09 0.0000000000000000e+00  -7.4993474094576669e-09 7.4994403639193474e-09 0.0000000000000000e+00  -6.5247011433014835e-09 9.0695680319076839e-09 0.0000000000000000e+00  -5.2822226881855824e-09 1.0476783078293206e-08 0.0000000000000000e+00  -3.8619810490616850e-09 1.1592279044524755e-08 0.0000000000000000e+00  -2.7262630680962648e-09 1.2299165904288820e-08 0.0000000000000000e+00  -3.6345477142422276e-09 1.3291445714304700e-08 0.0000000000000000e+00  -3.0116707959188770e-09 -8.9290286669468199e-09 0.0000000000000000e+00  -2.5770897313600748e-09 -9.8522982531760802e-09 0.0000000000000000e+00  -3.9313485384026780e-09 -9.6144744372328585e-09 0.0000000000000000e+00  -5.5666303839176385e-09 -8.9507354074034272e-09 0.0000000000000000e+00  -7.0558331094946092e-09 -7.9824372524962933e-09 0.0000000000000000e+00  -8.2855279973724217e-09 -6.8143102646942063e-09 0.0000000000000000e+00  -9.2368762626969905e-09 -5.5379004217496515e-09 0.0000000000000000e+00  -9.9267276633707858e-09 -4.2198866297090190e-09 0.0000000000000000e+00  -1.0384168964549148e-08 -2.8984395165556688e-09 0.0000000000000000e+00  -1.0637724312968179e-08 -1.5866530940241667e-09 0.0000000000000000e+00  -1.0707999733383753e-08 -2.7975670743731081e-10 0.0000000000000000e+00  -1.0603985347109874e-08 1.0362521929068986e-09 0.0000000000000000e+00  -1.0321973595104454e-08 2.3757179332521721e-09 0.0000000000000000e+00  -9.8466326064125745e-09 3.7446518310905301e-09 0.0000000000000000e+00  -9.1544151896279199e-09 5.1327203046131049e-09 0.0000000000000000e+00  -8.2200837966796362e-09 6.5069237716762693e-09 0.0000000000000000e+00  -7.0279316623025148e-09 7.8089573947967960e-09 0.0000000000000000e+00  -5.5928176982982271e-09 8.9590891251377207e-09 0.0000000000000000e+00  -4.0168749982862004e-09 9.8702761763812411e-09 0.0000000000000000e+00  -2.7393896433634603e-09 1.0472954105374192e-08 0.0000000000000000e+00  -3.3951884654860102e-09 1.1511423388812332e-08 0.0000000000000000e+00  -2.8888613303981438e-09 -6.8931458169607051e-09 0.0000000000000000e+00  -2.6231955110571607e-09 -7.8598112082259339e-09 0.0000000000000000e+00  -4.0694635297460762e-09 -7.7370885719852705e-09 0.0000000000000000e+00  -5.7988746801197878e-09 -7.2726494365416920e-09 0.0000000000000000e+00  -7.4064513597944573e-09 -6.5574673080080022e-09 0.0000000000000000e+00  -8.7774262042235081e-09 -5.6648038846245836e-09 0.0000000000000000e+00  -9.8791807278356600e-09 -4.6611600097761044e-09 0.0000000000000000e+00  -1.0710528294312322e-08 -3.5985746749534100e-09 0.0000000000000000e+00  -1.1283548204793780e-08 -2.5106698395863258e-09 0.0000000000000000e+00  -1.1613624288592650e-08 -1.4136036538515952e-09 0.0000000000000000e+00  -1.1713161867890358e-08 -3.1034016673682627e-10 0.0000000000000000e+00  -1.1588053511023134e-08 8.0335445498547907e-10 0.0000000000000000e+00  -1.1236518169688640e-08 1.9322984599752324e-09 0.0000000000000000e+00  -1.0650130373773813e-08 3.0754108321755045e-09 0.0000000000000000e+00  -9.8170676616238302e-09 4.2200634319383296e-09 0.0000000000000000e+00  -8.7278248270938535e-09 5.3382394595051669e-09 0.0000000000000000e+00  -7.3842263509361711e-09 6.3858553518002075e-09 0.0000000000000000e+00  -5.8161699213541474e-09 7.3068031152800275e-09 0.0000000000000000e+00  -4.1311756413385559e-09 8.0440312416082758e-09 0.0000000000000000e+00  -2.7476457146403764e-09 8.5603188640826078e-09 0.0000000000000000e+00  -3.2023228776194720e-09 9.6280093439144346e-09 0.0000000000000000e+00  -2.8086373005207159e-09 -4.8183235498717443e-09 0.0000000000000000e+00  -2.6592353674422441e-09 -5.8208459953472474e-09 0.0000000000000000e+00  -4.1687136386967536e-09 -5.7969256336497247e-09 0.0000000000000000e+00  -5.9611207032799870e-09 -5.5068893866211340e-09 0.0000000000000000e+00  -7.6470984915641728e-09 -5.0204296062015394e-09 0.0000000000000000e+00  -9.1124202013306581e-09 -4.3881126048433059e-09 0.0000000000000000e+00  -1.0316173751164238e-08 -3.6565473711057285e-09 0.0000000000000000e+00  -1.1245138162779821e-08 -2.8640606095077669e-09 0.0000000000000000e+00  -1.1899219171106331e-08 -2.0375069915914723e-09 0.0000000000000000e+00  -1.2283817986303394e-08 -1.1922010861494248e-09 0.0000000000000000e+00  -1.2404794795538080e-08 -3.3431693907662759e-10 0.0000000000000000e+00  -1.2265447486056340e-08 5.3521715818969517e-10 0.0000000000000000e+00  -1.1865463868624538e-08 1.4161850540546536e-09 0.0000000000000000e+00  -1.1201820129838888e-08 2.3046141351339618e-09 0.0000000000000000e+00  -1.0271575089924554e-08 3.1890412344637448e-09 0.0000000000000000e+00  -9.0765420899183198e-09 4.0482705608099340e-09 0.0000000000000000e+00  -7.6303594212828260e-09 4.8514829744795748e-09 0.0000000000000000e+00  -5.9722001758366280e-09 5.5615418930861341e-09 0.0000000000000000e+00  -4.2117493157753677e-09 6.1433189742558182e-09 0.0000000000000000e+00  -2.7501629262109863e-09 6.5825473279618031e-09 0.0000000000000000e+00  -3.0478141726226132e-09 7.6659218387947795e-09 0.0000000000000000e+00  -2.7660614343626240e-09 -2.7202389312413252e-09 0.0000000000000000e+00  -2.6873988291670713e-09 -3.7521325872646846e-09 0.0000000000000000e+00  -4.2363370754153507e-09 -3.8162881126107945e-09 0.0000000000000000e+00  -6.0677949623383833e-09 -3.6844106529381376e-09 0.0000000000000000e+00  -7.8022733160370588e-09 -3.4102210467100303e-09 0.0000000000000000e+00  -9.3266402800438302e-09 -3.0271700099352035e-09 0.0000000000000000e+00  -1.0595209309145544e-08 -2.5657347471243