<?xml version="1.0"?>
<VTKFile type="UnstructuredGrid"  version="0.1"  >
<UnstructuredGrid>
<Piece  NumberOfPoints="651" NumberOfCells="1200">
<Points>
<DataArray  type="Float64"  NumberOfComponents="3"  format="ascii">0 0 0  50000 0 0  100000 0 0  150000 0 0  200000 0 0  250000 0 0  300000 0 0  350000 0 0  400000 0 0  450000 0 0  500000 0 0  550000 0 0  600000 0 0  650000 0 0  700000 0 0  750000 0 0  800000 0 0  850000 0 0  900000 0 0  950000 0 0  1000000 0 0  0 50000 0  50000 50000 0  100000 50000 0  150000 50000 0  200000 50000 0  250000 50000 0  300000 50000 0  350000 50000 0  400000 50000 0  450000 50000 0  500000 50000 0  550000 50000 0  600000 50000 0  650000 50000 0  700000 50000 0  750000 50000 0  800000 50000 0  850000 50000 0  900000 50000 0  950000 50000 0  1000000 50000 0  0 100000 0  50000 100000 0  100000 100000 0  150000 100000 0  200000 100000 0  250000 100000 0  300000 100000 0  350000 100000 0  400000 100000 0  450000 100000 0  500000 100000 0  550000 100000 0  600000 100000 0  650000 100000 0  700000 100000 0  750000 100000 0  800000 100000 0  850000 100000 0  900000 100000 0  950000 100000 0  1000000 100000 0  0 150000 0  50000 150000 0  100000 150000 0  150000 150000 0  200000 150000 0  250000 150000 0  300000 150000 0  350000 150000 0  400000 150000 0  450000 150000 0  500000 150000 0  550000 150000 0  600000 150000 0  650000 150000 0  700000 150000 0  750000 150000 0  800000 150000 0  850000 150000 0  900000 150000 0  950000 150000 0  1000000 150000 0  0 200000 0  50000 200000 0  100000 200000 0  150000 200000 0  200000 200000 0  250000 200000 0  300000 200000 0  350000 200000 0  400000 200000 0  450000 200000 0  500000 200000 0  550000 200000 0  600000 200000 0  650000 200000 0  700000 200000 0  750000 200000 0  800000 200000 0  850000 200000 0  900000 200000 0  950000 200000 0  1000000 200000 0  0 250000 0  50000 250000 0  100000 250000 0  150000 250000 0  200000 250000 0  250000 250000 0  300000 250000 0  350000 250000 0  400000 250000 0  450000 250000 0  500000 250000 0  550000 250000 0  600000 250000 0  650000 250000 0  700000 250000 0  750000 250000 0  800000 250000 0  850000 250000 0  900000 250000 0  950000 250000 0  1000000 250000 0  0 300000 0  50000 300000 0  100000 300000 0  150000 300000 0  200000 300000 0  250000 300000 0  300000 300000 0  350000 300000 0  400000 300000 0  450000 300000 0  500000 300000 0  550000 300000 0  600000 300000 0  650000 300000 0  700000 300000 0  750000 300000 0  800000 300000 0  850000 300000 0  900000 300000 0  950000 300000 0  1000000 300000 0  0 350000 0  50000 350000 0  100000 350000 0  150000 350000 0  200000 350000 0  250000 350000 0  300000 350000 0  350000 350000 0  400000 350000 0  450000 350000 0  500000 350000 0  550000 350000 0  600000 350000 0  650000 350000 0  700000 350000 0  750000 350000 0  800000 350000 0  850000 350000 0  900000 350000 0  950000 350000 0  1000000 350000 0  0 400000 0  50000 400000 0  100000 400000 0  150000 400000 0  200000 400000 0  250000 400000 0  300000 400000 0  350000 400000 0  400000 400000 0  450000 400000 0  500000 400000 0  550000 400000 0  600000 400000 0  650000 400000 0  700000 400000 0  750000 400000 0  800000 400000 0  850000 400000 0  900000 400000 0  950000 400000 0  1000000 400000 0  0 450000 0  50000 450000 0  100000 450000 0  150000 450000 0  200000 450000 0  250000 450000 0  300000 450000 0  350000 450000 0  400000 450000 0  450000 450000 0  500000 450000 0  550000 450000 0  600000 450000 0  650000 450000 0  700000 450000 0  750000 450000 0  800000 450000 0  850000 450000 0  900000 450000 0  950000 450000 0  1000000 450000 0  0 500000 0  50000 500000 0  100000 500000 0  150000 500000 0  200000 500000 0  250000 500000 0  300000 500000 0  350000 500000 0  400000 500000 0  450000 500000 0  500000 500000 0  550000 500000 0  600000 500000 0  650000 500000 0  700000 500000 0  750000 500000 0  800000 500000 0  850000 500000 0  900000 500000 0  950000 500000 0  1000000 500000 0  0 550000 0  50000 550000 0  100000 550000 0  150000 550000 0  200000 550000 0  250000 550000 0  300000 550000 0  350000 550000 0  400000 550000 0  450000 550000 0  500000 550000 0  550000 550000 0  600000 550000 0  650000 550000 0  700000 550000 0  750000 550000 0  800000 550000 0  850000 550000 0  900000 550000 0  950000 550000 0  1000000 550000 0  0 600000 0  50000 600000 0  100000 600000 0  150000 600000 0  200000 600000 0  250000 600000 0  300000 600000 0  350000 600000 0  400000 600000 0  450000 600000 0  500000 600000 0  550000 600000 0  600000 600000 0  650000 600000 0  700000 600000 0  750000 600000 0  800000 600000 0  850000 600000 0  900000 600000 0  950000 600000 0  1000000 600000 0  0 650000 0  50000 650000 0  100000 650000 0  150000 650000 0  200000 650000 0  250000 650000 0  300000 650000 0  350000 650000 0  400000 650000 0  450000 650000 0  500000 650000 0  550000 650000 0  600000 650000 0  650000 650000 0  700000 650000 0  750000 650000 0  800000 650000 0  850000 650000 0  900000 650000 0  950000 650000 0  1000000 650000 0  0 700000 0  50000 700000 0  100000 700000 0  150000 700000 0  200000 700000 0  250000 700000 0  300000 700000 0  350000 700000 0  400000 700000 0  450000 700000 0  500000 700000 0  550000 700000 0  600000 700000 0  650000 700000 0  700000 700000 0  750000 700000 0  800000 700000 0  850000 700000 0  900000 700000 0  950000 700000 0  1000000 700000 0  0 750000 0  50000 750000 0  100000 750000 0  150000 750000 0  200000 750000 0  250000 750000 0  300000 750000 0  350000 750000 0  400000 750000 0  450000 750000 0  500000 750000 0  550000 750000 0  600000 750000 0  650000 750000 0  700000 750000 0  750000 750000 0  800000 750000 0  850000 750000 0  900000 750000 0  950000 750000 0  1000000 750000 0  0 800000 0  50000 800000 0  100000 800000 0  150000 800000 0  200000 800000 0  250000 800000 0  300000 800000 0  350000 800000 0  400000 800000 0  450000 800000 0  500000 800000 0  550000 800000 0  600000 800000 0  650000 800000 0  700000 800000 0  750000 800000 0  800000 800000 0  850000 800000 0  900000 800000 0  950000 800000 0  1000000 800000 0  0 850000 0  50000 850000 0  100000 850000 0  150000 850000 0  200000 850000 0  250000 850000 0  300000 850000 0  350000 850000 0  400000 850000 0  450000 850000 0  500000 850000 0  550000 850000 0  600000 850000 0  650000 850000 0  700000 850000 0  750000 850000 0  800000 850000 0  850000 850000 0  900000 850000 0  950000 850000 0  1000000 850000 0  0 900000 0  50000 900000 0  100000 900000 0  150000 900000 0  200000 900000 0  250000 900000 0  300000 900000 0  350000 900000 0  400000 900000 0  450000 900000 0  500000 900000 0  550000 900000 0  600000 900000 0  650000 900000 0  700000 900000 0  750000 900000 0  800000 900000 0  850000 900000 0  900000 900000 0  950000 900000 0  1000000 900000 0  0 950000 0  50000 950000 0  100000 950000 0  150000 950000 0  200000 950000 0  250000 950000 0  300000 950000 0  350000 950000 0  400000 950000 0  450000 950000 0  500000 950000 0  550000 950000 0  600000 950000 0  650000 950000 0  700000 950000 0  750000 950000 0  800000 950000 0  850000 950000 0  900000 950000 0  950000 950000 0  1000000 950000 0  0 1000000 0  50000 1000000 0  100000 1000000 0  150000 1000000 0  200000 1000000 0  250000 1000000 0  300000 1000000 0  350000 1000000 0  400000 1000000 0  450000 1000000 0  500000 1000000 0  550000 1000000 0  600000 1000000 0  650000 1000000 0  700000 1000000 0  750000 1000000 0  800000 1000000 0  850000 1000000 0  900000 1000000 0  950000 1000000 0  1000000 1000000 0  0 1050000 0  50000 1050000 0  100000 1050000 0  150000 1050000 0  200000 1050000 0  250000 1050000 0  300000 1050000 0  350000 1050000 0  400000 1050000 0  450000 1050000 0  500000 1050000 0  550000 1050000 0  600000 1050000 0  650000 1050000 0  700000 1050000 0  750000 1050000 0  800000 1050000 0  850000 1050000 0  900000 1050000 0  950000 1050000 0  1000000 1050000 0  0 1100000 0  50000 1100000 0  100000 1100000 0  150000 1100000 0  200000 1100000 0  250000 1100000 0  300000 1100000 0  350000 1100000 0  400000 1100000 0  450000 1100000 0  500000 1100000 0  550000 1100000 0  600000 1100000 0  650000 1100000 0  700000 1100000 0  750000 1100000 0  800000 1100000 0  850000 1100000 0  900000 1100000 0  950000 1100000 0  1000000 1100000 0  0 1150000 0  50000 1150000 0  100000 1150000 0  150000 1150000 0  200000 1150000 0  250000 1150000 0  300000 1150000 0  350000 1150000 0  400000 1150000 0  450000 1150000 0  500000 1150000 0  550000 1150000 0  600000 1150000 0  650000 1150000 0  700000 1150000 0  750000 1150000 0  800000 1150000 0  850000 1150000 0  900000 1150000 0  950000 1150000 0  1000000 1150000 0  0 1200000 0  50000 1200000 0  100000 1200000 0  150000 1200000 0  200000 1200000 0  250000 1200000 0  300000 1200000 0  350000 1200000 0  400000 1200000 0  450000 1200000 0  500000 1200000 0  550000 1200000 0  600000 1200000 0  650000 1200000 0  700000 1200000 0  750000 1200000 0  800000 1200000 0  850000 1200000 0  900000 1200000 0  950000 1200000 0  1000000 1200000 0  0 1250000 0  50000 1250000 0  100000 1250000 0  150000 1250000 0  200000 1250000 0  250000 1250000 0  300000 1250000 0  350000 1250000 0  400000 1250000 0  450000 1250000 0  500000 1250000 0  550000 1250000 0  600000 1250000 0  650000 1250000 0  700000 1250000 0  750000 1250000 0  800000 1250000 0  850000 1250000 0  900000 1250000 0  950000 1250000 0  1000000 1250000 0  0 1300000 0  50000 1300000 0  100000 1300000 0  150000 1300000 0  200000 1300000 0  250000 1300000 0  300000 1300000 0  350000 1300000 0  400000 1300000 0  450000 1300000 0  500000 1300000 0  550000 1300000 0  600000 1300000 0  650000 1300000 0  700000 1300000 0  750000 1300000 0  800000 1300000 0  850000 1300000 0  900000 1300000 0  950000 1300000 0  1000000 1300000 0  0 1350000 0  50000 1350000 0  100000 1350000 0  150000 1350000 0  200000 1350000 0  250000 1350000 0  300000 1350000 0  350000 1350000 0  400000 1350000 0  450000 1350000 0  500000 1350000 0  550000 1350000 0  600000 1350000 0  650000 1350000 0  700000 135
[...]
<PointData  Vectors="f_19"> 
<DataArray  type="Float64"  Name="f_19"  NumberOfComponents="3" format="ascii">-2.4341923333968940e-08 -1.0480255053924288e-08 0.0000000000000000e+00  4.8707196723497907e-08 -6.5572214924647700e-09 0.0000000000000000e+00  4.2972675072624138e-08 -2.2476929253822263e-09 0.0000000000000000e+00  4.0516326923073241e-08 -8.7519234548803528e-10 0.0000000000000000e+00  3.9310934366492322e-08 -3.9621376039325476e-10 0.0000000000000000e+00  3.8523660600556424e-08 -1.9174991307968374e-10 0.0000000000000000e+00  3.7957627261029619e-08 -9.4051266866272827e-11 0.0000000000000000e+00  3.7555937952590973e-08 -4.5584806607141698e-11 0.0000000000000000e+00  3.7300689227101274e-08 -2.1747544229810025e-11 0.0000000000000000e+00  3.7187242207422432e-08 -9.3422169263001353e-12 0.0000000000000000e+00  3.7216474828802713e-08 7.8592059931761123e-13 0.0000000000000000e+00  3.7393014330073169e-08 1.7084587954585978e-11 0.0000000000000000e+00  3.7726823046482459e-08 4.9820440085989377e-11 0.0000000000000000e+00  3.8239235797459829e-08 1.1462253695100429e-10 0.0000000000000000e+00  3.8979023452974663e-08 2.3979197664644161e-10 0.0000000000000000e+00  4.0064905650170137e-08 4.8440979185916978e-10 0.0000000000000000e+00  4.1797890693415898e-08 9.8697805799409640e-10 0.0000000000000000e+00  4.4924648615405118e-08 2.0920508008265390e-09 0.0000000000000000e+00  5.0774698394753325e-08 4.6170569989646156e-09 0.0000000000000000e+00  5.8018781378497412e-08 9.1296185431835699e-09 0.0000000000000000e+00  -1.6435904141759680e-08 7.0226142009312454e-09 0.0000000000000000e+00  -1.8095817957670164e-08 -1.6025993464337878e-08 0.0000000000000000e+00  7.2712822401154076e-09 -1.1338423894569731e-08 0.0000000000000000e+00  1.8178722270799799e-08 -5.2604532717054122e-09 0.0000000000000000e+00  2.3237671034842946e-08 -2.4053800507201987e-09 0.0000000000000000e+00  2.5820183121587451e-08 -1.1509639988225445e-09 0.0000000000000000e+00  2.7279051956148399e-08 -5.6015303912552158e-10 0.0000000000000000e+00  2.8126254323115863e-08 -2.6447141873230806e-10 0.0000000000000000e+00  2.8621083265468922e-08 -1.1361255406141380e-10 0.0000000000000000e+00  2.8906724408396985e-08 -3.8582748216070692e-11 0.0000000000000000e+00  2.9063029468310351e-08 -2.0805842284937496e-12 0.0000000000000000e+00  2.9131611260413905e-08 2.0417234976571633e-11 0.0000000000000000e+00  2.9127356408140851e-08 4.9359703616257894e-11 0.0000000000000000e+00  2.9042407776992839e-08 1.0688877293048904e-10 0.0000000000000000e+00  2.8844626423219970e-08 2.2344974116048727e-10 0.0000000000000000e+00  2.8469526136478621e-08 4.4957951832449733e-10 0.0000000000000000e+00  2.7799639925782952e-08 8.8180744076002146e-10 0.0000000000000000e+00  2.6609275754314006e-08 1.7235168550739746e-09 0.0000000000000000e+00  2.4387091798853102e-08 3.4207203269410350e-09 0.0000000000000000e+00  1.9688591341774125e-08 6.8636778928042468e-09 0.0000000000000000e+00  8.2666129457459528e-09 1.3015536542222662e-08 0.0000000000000000e+00  -1.8403840897126769e-08 1.0954713633980498e-08 0.0000000000000000e+00  -1.1109215846891514e-08 -1.9606250570039469e-08 0.0000000000000000e+00  -2.5340324227286090e-10 -1.8496548554223271e-08 0.0000000000000000e+00  5.8660620618687226e-09 -1.1336108319104310e-08 0.0000000000000000e+00  1.0750938639270575e-08 -6.5562051808601641e-09 0.0000000000000000e+00  1.4560885076370792e-08 -3.7950232265594470e-09 0.0000000000000000e+00  1.7201656318376382e-08 -2.2259325783879593e-09 0.0000000000000000e+00  1.8965905076991336e-08 -1.3084638353183614e-09 0.0000000000000000e+00  2.0119953958409034e-08 -7.5150109279237381e-10 0.0000000000000000e+00  2.0843154263657947e-08 -3.9610082823727122e-10 0.0000000000000000e+00  2.1245845001403124e-08 -1.4800869928461894e-10 0.0000000000000000e+00  2.1387876725429833e-08 5.6968610661698462e-11 0.0000000000000000e+00  2.1289666893052724e-08 2.7186774000609836e-10 0.0000000000000000e+00  2.0936207227659265e-08 5.5171145597719563e-10 0.0000000000000000e+00  2.0274680685543997e-08 9.6713509713472341e-10 0.0000000000000000e+00  1.9205102269238401e-08 1.6244314031931086e-09 0.0000000000000000e+00  1.7562075467611787e-08 2.6997253355085876e-09 0.0000000000000000e+00  1.5086297183752716e-08 4.4937137157059415e-09 0.0000000000000000e+00  1.1396011840950359e-08 7.4801683134500086e-09 0.0000000000000000e+00  6.0253000255086700e-09 1.2125372623352792e-08 0.0000000000000000e+00  -1.2873588052011231e-09 1.7577719425081595e-08 0.0000000000000000e+00  -1.3237351571531660e-08 1.4701368213228216e-08 0.0000000000000000e+00  -7.4052699286419129e-09 -2.0206388511075133e-08 0.0000000000000000e+00  -1.5516507602492601e-09 -1.9934830394687434e-08 0.0000000000000000e+00  1.1324294197990932e-09 -1.5308340659011187e-08 0.0000000000000000e+00  3.9103522070230138e-09 -1.0426129607326920e-08 0.0000000000000000e+00  6.8060173806204508e-09 -6.8488257632274871e-09 0.0000000000000000e+00  9.3223765097415191e-09 -4.4400224520008309e-09 0.0000000000000000e+00  1.1261997438676285e-08 -2.8412097940230786e-09 0.0000000000000000e+00  1.2649681677634213e-08 -1.7606958915562572e-09 0.0000000000000000e+00  1.3569939363619476e-08 -9.9780977695110836e-10 0.0000000000000000e+00  1.4097463436096128e-08 -4.1454738553130738e-10 0.0000000000000000e+00  1.4279523642075629e-08 9.1770386089631895e-11 0.0000000000000000e+00  1.4133351126839347e-08 6.0874183074557241e-10 0.0000000000000000e+00  1.3646367533498133e-08 1.2249213228897092e-09 0.0000000000000000e+00  1.2776433628478387e-08 2.0453137149191600e-09 0.0000000000000000e+00  1.1453361006706646e-08 3.2089172107813857e-09 0.0000000000000000e+00  9.5878925769621862e-09 4.9067115956472081e-09 0.0000000000000000e+00  7.1049987969834561e-09 7.3822873799880370e-09 0.0000000000000000e+00  4.0355827668123540e-09 1.0844657246326555e-08 0.0000000000000000e+00  6.7259512540396930e-10 1.5102032036917506e-08 0.0000000000000000e+00  -2.6214804311299084e-09 1.8743794772572656e-08 0.0000000000000000e+00  -8.9351774482282649e-09 1.7543226466984632e-08 0.0000000000000000e+00  -5.5344972570205356e-09 -1.9592006540768935e-08 0.0000000000000000e+00  -1.8913155750084379e-09 -1.9672389931280569e-08 0.0000000000000000e+00  -9.2795279518622041e-10 -1.6725461129410296e-08 0.0000000000000000e+00  2.1154253163088307e-10 -1.2802012729583754e-08 0.0000000000000000e+00  1.8519939687378138e-09 -9.2483144573781149e-09 0.0000000000000000e+00  3.6246994203065564e-09 -6.4644652949598085e-09 0.0000000000000000e+00  5.2074352811796655e-09 -4.3919109918750402e-09 0.0000000000000000e+00  6.4564517079927602e-09 -2.8559783094166540e-09 0.0000000000000000e+00  7.3384276595684406e-09 -1.6851532853414519e-09 0.0000000000000000e+00  7.8629404046402928e-09 -7.3551383698828608e-10 0.0000000000000000e+00  8.0460665576873222e-09 1.1362565639327755e-10 0.0000000000000000e+00  7.8954570725270710e-09 9.7072916448310757e-10 0.0000000000000000e+00  7.4062486024579061e-09 1.9435479455049506e-09 0.0000000000000000e+00  6.5637174929089663e-09 3.1494359491193109e-09 0.0000000000000000e+00  5.3539266920765917e-09 4.7219430160437603e-09 0.0000000000000000e+00  3.7884148631579203e-09 6.8051320700245019e-09 0.0000000000000000e+00  1.9522839278516818e-09 9.5122775093960639e-09 0.0000000000000000e+00  7.2694500547695745e-11 1.2801219976306115e-08 0.0000000000000000e+00  -1.4857909783885406e-09 1.6220503081219548e-08 0.0000000000000000e+00  -2.7328506029630254e-09 1.8691401601307310e-08 0.0000000000000000e+00  -6.6471280151308152e-09 1.8529623385997053e-08 0.0000000000000000e+00  -4.4726318064014398e-09 -1.8438464466525189e-08 0.0000000000000000e+00  -2.0645152446120465e-09 -1.8739016644050427e-08 0.0000000000000000e+00  -2.0110029900807006e-09 -1.6749225221166260e-08 0.0000000000000000e+00  -1.9235125563851611e-09 -1.3769374730744514e-08 0.0000000000000000e+00  -1.3220480186791746e-09 -1.0654180222554641e-08 0.0000000000000000e+00  -3.7984231939210921e-10 -7.8940658420085714e-09 0.0000000000000000e+00  6.3558359992437481e-10 -5.6218928981181182e-09 0.0000000000000000e+00  1.5349531346782019e-09 -3.7946991983527545e-09 0.0000000000000000e+00  2.2185820786478262e-09 -2.3069477024620554e-09 0.0000000000000000e+00  2.6438703633810340e-09 -1.0406154952432783e-09 0.0000000000000000e+00  2.7963002867451425e-09 1.1908973934499114e-10 0.0000000000000000e+00  2.6729387391817751e-09 1.2822097685257001e-09 0.0000000000000000e+00  2.2767062619625799e-09 2.5568820320531923e-09 0.0000000000000000e+00  1.6194682201242958e-09 4.0511521520514607e-09 0.0000000000000000e+00  7.3410175684582483e-10 5.8683048038616170e-09 0.0000000000000000e+00  -3.0326672541384375e-10 8.0866882310096162e-09 0.0000000000000000e+00  -1.3439465322101881e-09 1.0709543090833520e-08 0.0000000000000000e+00  -2.1548215593128459e-09 1.3571913070961520e-08 0.0000000000000000e+00  -2.5168636845870666e-09 1.6229904589554962e-08 0.0000000000000000e+00  -2.7107863465558801e-09 1.7990765023425335e-08 0.0000000000000000e+00  -5.3059666825092393e-09 1.8286356318153036e-08 0.0000000000000000e+00  -3.7961259103017108e-09 -1.6987547928603640e-08 0.0000000000000000e+00  -2.1957952338187586e-09 -1.7440053423889906e-08 0.0000000000000000e+00  -2.6847689892955480e-09 -1.6028766014923148e-08 0.0000000000000000e+00  -3.2628470469210779e-09 -1.3761267647916148e-08 0.0000000000000000e+00  -3.4187944456501699e-09 -1.1164123743119848e-08 0.0000000000000000e+00  -3.1887194776986023e-09 -8.6401555381769047e-09 0.0000000000000000e+00  -2.7485113332819387e-09 -6.3847173917275220e-09 0.0000000000000000e+00  -2.2643152661659303e-09 -4.4399010586860675e-09 0.0000000000000000e+00  -1.8512372887959568e-09 -2.7641028245427293e-09 0.0000000000000000e+00  -1.5765185910630259e-09 -1.2781809795173579e-09 0.0000000000000000e+00  -1.4734236065929746e-09 1.1072188909553812e-10 0.0000000000000000e+00  -1.5523307968734012e-09 1.4985357805251963e-09 0.0000000000000000e+00  -1.8053717299731925e-09 2.9790145052102930e-09 0.0000000000000000e+00  -2.2043375281257872e-09 4.6380455255137891e-09 0.0000000000000000e+00  -2.6925262637292535e-09 6.5421197122269612e-09 0.0000000000000000e+00  -3.1729746004438604e-09 8.7150403556747413e-09 0.0000000000000000e+00  -3.5014655156035456e-09 1.1098219545623360e-08 0.0000000000000000e+00  -3.5082778456120219e-09 1.3499732946222505e-08 0.0000000000000000e+00  -3.1106557281415186e-09 1.5566441346198013e-08 0.0000000000000000e+00  -2.6955366415807702e-09 1.6871955930998641e-08 0.0000000000000000e+00  -4.4369804181418582e-09 1.7384513324927821e-08 0.0000000000000000e+00  -3.3289125117846906e-09 -1.5339188491336436e-08 0.0000000000000000e+00  -2.3036883577688603e-09 -1.5901169239569064e-08 0.0000000000000000e+00  -3.1518484742950038e-09 -1.4864860779644407e-08 0.0000000000000000e+00  -4.1642133482004110e-09 -1.3116304599874812e-08 0.0000000000000000e+00  -4.8521696172683537e-09 -1.0989075667273773e-08 0.0000000000000000e+00  -5.1747030209385656e-09 -8.7789987241186792e-09 0.0000000000000000e+00  -5.2295941908707848e-09 -6.6732598502780333e-09 0.0000000000000000e+00  -5.1385372986304498e-09 -4.7509616247574520e-09 0.0000000000000000e+00  -5.0027182418012047e-09 -3.0146021655429840e-09 0.0000000000000000e+00  -4.8913665638604310e-09 -1.4215795690569729e-09 0.0000000000000000e+00  -4.8436028497645457e-09 9.3391333188755004e-11 0.0000000000000000e+00  -4.8729532252772813e-09 1.6039663247045070e-09 0.0000000000000000e+00  -4.9698685571752031e-09 3.1820398773680823e-09 0.0000000000000000e+00  -5.1009894051951653e-09 4.8876792045089334e-09 0.0000000000000000e+00  -5.2060487830393649e-09 6.7554317656417515e-09 0.0000000000000000e+00  -5.1957922052968459e-09 8.7744095848395144e-09 0.0000000000000000e+00  -4.9586942227642479e-09 1.0862975776368674e-08 0.0000000000000000e+00  -4.3928157456182283e-09 1.2847281787060063e-08 0.0000000000000000e+00  -3.5018080320149611e-09 1.4467952721722013e-08 0.0000000000000000e+00  -2.6944415291326300e-09 1.5464746401596414e-08 0.0000000000000000e+00  -3.8320914093070460e-09 1.6097811789026621e-08 0.0000000000000000e+00  -2.9898922423750158e-09 -1.3547171899529836e-08 0.0000000000000000e+00  -2.3920006040147813e-09 -1.4190124579921383e-08 0.0000000000000000e+00  -3.4939992015977369e-09 -1.3412565437441898e-08 0.0000000000000000e+00  -4.7999532226957903e-09 -1.2049337439445084e-08 0.0000000000000000e+00  -5.8586332053487792e-09 -1.0320250532569480e-08 0.0000000000000000e+00  -6.5904601684971763e-09 -8.4352215879436443e-09 0.0000000000000000e+00  -7.0378689114270794e-09 -6.5493443124421267e-09 0.0000000000000000e+00  -7.2791281345279155e-09 -4.7484386535377553e-09 0.0000000000000000e+00  -7.3905171421567501e-09 -3.0588225792709916e-09 0.0000000000000000e+00  -7.4305483398767912e-09 -1.4652679425059850e-09 0.0000000000000000e+00  -7.4352263589920995e-09 7.1878503547053672e-11 0.0000000000000000e+00  -7.4178042090775258e-09 1.6027915656160008e-09 0.0000000000000000e+00  -7.3694423595424466e-09 3.1765506702120486e-09 0.0000000000000000e+00  -7.2595256350813116e-09 4.8298185257829543e-09 0.0000000000000000e+00  -7.0363508839888922e-09 6.5740477465592655e-09 0.0000000000000000e+00  -6.6308878677232832e-09 8.3808098085575322e-09 0.0000000000000000e+00  -5.9688365479466064e-09 1.0167847122207882e-08 0.0000000000000000e+00  -5.0008676128122596e-09 1.1793460654527168e-08 0.0000000000000000e+00  -3.7785302160210726e-09 1.3073470440163543e-08 0.0000000000000000e+00  -2.6999904414761321e-09 1.3850276671195168e-08 0.0000000000000000e+00  -3.3900992737319217e-09 1.4559805835627558e-08 0.0000000000000000e+00  -2.7375683152067643e-09 -1.1647562387131944e-08 0.0000000000000000e+00  -2.4629875766366588e-09 -1.2351275637169757e-08 0.0000000000000000e+00  -3.7501943956173577e-09 -1.1762924054028876e-08 0.0000000000000000e+00  -5.2595421127314429e-09 -1.0696268905478877e-08 0.0000000000000000e+00  -6.5763495451105952e-09 -9.3023348853323974e-09 0.0000000000000000e+00  -7.6035173834779273e-09 -7.7286727078304151e-09 0.0000000000000000e+00  -8.3471987206851706e-09 -6.0956468508264969e-09 0.0000000000000000e+00  -8.8506124120429389e-09 -4.4812144126255524e-09 0.0000000000000000e+00  -9.1644676965057910e-09 -2.9210046797901061e-09 0.0000000000000000e+00  -9.3319149054785775e-09 -1.4171993269921504e-09 0.0000000000000000e+00  -9.3814127998936103e-09 4.9825647274461647e-11 0.0000000000000000e+00  -9.3239947481874145e-09 1.5099877482698754e-09 0.0000000000000000e+00  -9.1527748374345056e-09 2.9927198059080249e-09 0.0000000000000000e+00  -8.8438349302454339e-09 4.5165037750953154e-09 0.0000000000000000e+00  -8.3589145251594095e-09 6.0783530972845257e-09 0.0000000000000000e+00  -7.6515362866347506e-09 7.6438949147486387e-09 0.0000000000000000e+00  -6.6795023035059623e-09 9.1406100688943731e-09 0.0000000000000000e+00  -5.4299034890078379e-09 1.0459214758894184e-08 0.0000000000000000e+00  -3.9792693857503485e-09 1.1471135098408123e-08 0.0000000000000000e+00  -2.7060143984419048e-09 1.2083224060743674e-08 0.0000000000000000e+00  -3.0568629625452286e-09 1.2845076497682089e-08 0.0000000000000000e+00  -2.5488737175251609e-09 -9.6676734736499278e-09 0.0000000000000000e+00  -2.5190948169558395e-09 -1.0417232927863754e-08 0.0000000000000000e+00  -3.9426018683917982e-09 -9.9750916671450009e-09 0.0000000000000000e+00  -5.5942171524455736e-09 -9.1465660116328045e-09 0.0000000000000000e+00  -7.0901212410480255e-09 -8.0397661265662746e-09 0.0000000000000000e+00  -8.3262548413884912e-09 -6.7581331085180738e-09 0.0000000000000000e+00  -9.2858398071426812e-09 -5.3916838973218933e-09 0.0000000000000000e+00  -9.9862154847066151e-09 -4.0051505418772793e-09 0.0000000000000000e+00  -1.0456279663007753e-08 -2.6347265523536446e-09 0.0000000000000000e+00  -1.0723962240888464e-08 -1.2918220576638809e-09 0.0000000000000000e+00  -1.0809061647656096e-08 2.9575335622114446e-11 0.0000000000000000e+00  -1.0719687110567605e-08 1.3442558895783554e-09 0.0000000000000000e+00  -1.0451248674664199e-08 2.6669625059121109e-09 0.0000000000000000e+00  -9.9875260160976917e-09 4.0038004824911465e-09 0.0000000000000000e+00  -9.3039941236820071e-09 5.3442767871396546e-09 0.0000000000000000e+00  -8.3741760635358563e-09 6.6549444550102027e-09 0.0000000000000000e+00  -7.1805082622686621e-09 7.8766038416510728e-09 0.0000000000000000e+00  -5.7341000045120542e-09 8.9279960307418591e-09 0.0000000000000000e+00  -4.1240877873776541e-09 9.7206675451845455e-09 0.0000000000000000e+00  -2.7090962253837077e-09 1.0202933291827302e-08 0.0000000000000000e+00  -2.8012829885855695e-09 1.1001413621361681e-08 0.0000000000000000e+00  -2.4102528168990825e-09 -7.6293092646476069e-09 0.0000000000000000e+00  -2.5629958038124211e-09 -8.4133979761890354e-09 0.0000000000000000e+00  -4.0858429328188595e-09 -8.0903110813594120e-09 0.0000000000000000e+00  -5.8363242658074919e-09 -7.4615497346282500e-09 0.0000000000000000e+00  -7.4549728270603345e-09 -6.6074679805701349e-09 0.0000000000000000e+00  -8.8357563939580881e-09 -5.6001672658629105e-09 0.0000000000000000e+00  -9.9477059225853226e-09 -4.5049188058423149e-09 0.0000000000000000e+00  -1.0790048026890667e-08 -3.3722232607468620e-09 0.0000000000000000e+00  -1.1374840745006191e-08 -2.2340942842794674e-09 0.0000000000000000e+00  -1.1717159405888200e-08 -1.1052604494556518e-09 0.0000000000000000e+00  -1.1828901796893993e-08 1.2419406847385685e-11 0.0000000000000000e+00  -1.1715327961883309e-08 1.1239098158810129e-09 0.0000000000000000e+00  -1.1373941266386781e-08 2.2343933128880195e-09 0.0000000000000000e+00  -1.0795514602310531e-08 3.3428093358691245e-09 0.0000000000000000e+00  -9.9672861012099529e-09 4.4361987068159745e-09 0.0000000000000000e+00  -8.8785661343536515e-09 5.4857802851644145e-09 0.0000000000000000e+00  -7.5294983767816565e-09 6.4460880013189157e-09 0.0000000000000000e+00  -5.9466744230432607e-09 7.2588201643803170e-09 0.0000000000000000e+00  -4.2254832245386685e-09 7.8645587676803722e-09 0.0000000000000000e+00  -2.7079035264054551e-09 8.2390755305582400e-09 0.0000000000000000e+00  -2.6046752487645349e-09 9.0627119671777866e-09 0.0000000000000000e+00  -2.3134990234377023e-09 -5.5502520512299119e-09 0.0000000000000000e+00  -2.5973616935539766e-09 -6.3600820274497165e-09 0.0000000000000000e+00  -4.1904710946199687e-09 -6.1387328377524831e-09 0.0000000000000000e+00  -6.0077954201542822e-09 -5.6847142831778744e-09 0.0000000000000000e+00  -7.7081567975061818e-09 -5.0596127317400311e-09 0.0000000000000000e+00  -9.1857320419103640e-09 -4.3127003388365416e-09 0.0000000000000000e+00  -1.0400981501675293e-08 -3.4893414375645293e-09 0.0000000000000000e+00  -1.1341023858078604e-08 -2.6264746341376071e-09 0.0000000000000000e+00  -1.2005841519681114e-08 -1.7495595413842313e-09 0.0000000000000000e+00  -1.2400724051237879e-08 -8.7267884681703059e-10 0.0000000000000000e+00  -1.2531250300299190e-08 -1.0534640280686922e-12 0.0000000000000000e+00  -1.2400291664201298e-08 8.6500604511501445e-10 0.0000000000000000e+00  -1.2006982107091296e-08 1.7255470392975776e-09 0.0000000000000000e+00  -1.1347615653116720e-08 2.5764950414584437e-09 0.0000000000000000e+00  -1.0418417709783782e-08 3.4058828400166975e-09 0.0000000000000000e+00  -9.2201670248433402e-09 4.1915134275592947e-09 0.0000000000000000e+00  -7.7651026063065292e-09 4.9008984185498828e-09 0.0000000000000000e+00  -6.0896256310869140e-09 5.4944026597035371e-09 0.0000000000000000e+00  -4.2922548626045317e-09 5.9341174990341490e-09 0.0000000000000000e+00  -2.7023715355349298e-09 6.2146842314740626e-09 0.0000000000000000e+00  -2.4555321217325464e-09 7.0545199424661558e-09 0.0000000000000000e+00  -2.2536384269210194e-09 -3.4452382018033313e-09 0.0000000000000000e+00  -2.6246155485946017e-09 -4.2737894713614478e-09 0.0000000000000000e+00  -4.2642906087433365e-09 -4.1432113618340311e-09 0.0000000000000000e+00  -6.1239035320649986e-09 -3.8479304438558374e-09 0.0000000000000000e+00  -7.8751960774740942e-09 -3.4360534862849201e-09 0.0000000000000000e+00  -9.4133708367793356e-09 -2.9394596159673688e-09 0.0000000000000000e+00  -1.0693990111223812e-08 -2.387180913594454