<?xml version="1.0"?>
<VTKFile type="UnstructuredGrid"  version="0.1"  >
<UnstructuredGrid>
<Piece  NumberOfPoints="651" NumberOfCells="1200">
<Points>
<DataArray  type="Float64"  NumberOfComponents="3"  format="ascii">0 0 0  50000 0 0  100000 0 0  150000 0 0  200000 0 0  250000 0 0  300000 0 0  350000 0 0  400000 0 0  450000 0 0  500000 0 0  550000 0 0  600000 0 0  650000 0 0  700000 0 0  750000 0 0  800000 0 0  850000 0 0  900000 0 0  950000 0 0  1000000 0 0  0 50000 0  50000 50000 0  100000 50000 0  150000 50000 0  200000 50000 0  250000 50000 0  300000 50000 0  350000 50000 0  400000 50000 0  450000 50000 0  500000 50000 0  550000 50000 0  600000 50000 0  650000 50000 0  700000 50000 0  750000 50000 0  800000 50000 0  850000 50000 0  900000 50000 0  950000 50000 0  1000000 50000 0  0 100000 0  50000 100000 0  100000 100000 0  150000 100000 0  200000 100000 0  250000 100000 0  300000 100000 0  350000 100000 0  400000 100000 0  450000 100000 0  500000 100000 0  550000 100000 0  600000 100000 0  650000 100000 0  700000 100000 0  750000 100000 0  800000 100000 0  850000 100000 0  900000 100000 0  950000 100000 0  1000000 100000 0  0 150000 0  50000 150000 0  100000 150000 0  150000 150000 0  200000 150000 0  250000 150000 0  300000 150000 0  350000 150000 0  400000 150000 0  450000 150000 0  500000 150000 0  550000 150000 0  600000 150000 0  650000 150000 0  700000 150000 0  750000 150000 0  800000 150000 0  850000 150000 0  900000 150000 0  950000 150000 0  1000000 150000 0  0 200000 0  50000 200000 0  100000 200000 0  150000 200000 0  200000 200000 0  250000 200000 0  300000 200000 0  350000 200000 0  400000 200000 0  450000 200000 0  500000 200000 0  550000 200000 0  600000 200000 0  650000 200000 0  700000 200000 0  750000 200000 0  800000 200000 0  850000 200000 0  900000 200000 0  950000 200000 0  1000000 200000 0  0 250000 0  50000 250000 0  100000 250000 0  150000 250000 0  200000 250000 0  250000 250000 0  300000 250000 0  350000 250000 0  400000 250000 0  450000 250000 0  500000 250000 0  550000 250000 0  600000 250000 0  650000 250000 0  700000 250000 0  750000 250000 0  800000 250000 0  850000 250000 0  900000 250000 0  950000 250000 0  1000000 250000 0  0 300000 0  50000 300000 0  100000 300000 0  150000 300000 0  200000 300000 0  250000 300000 0  300000 300000 0  350000 300000 0  400000 300000 0  450000 300000 0  500000 300000 0  550000 300000 0  600000 300000 0  650000 300000 0  700000 300000 0  750000 300000 0  800000 300000 0  850000 300000 0  900000 300000 0  950000 300000 0  1000000 300000 0  0 350000 0  50000 350000 0  100000 350000 0  150000 350000 0  200000 350000 0  250000 350000 0  300000 350000 0  350000 350000 0  400000 350000 0  450000 350000 0  500000 350000 0  550000 350000 0  600000 350000 0  650000 350000 0  700000 350000 0  750000 350000 0  800000 350000 0  850000 350000 0  900000 350000 0  950000 350000 0  1000000 350000 0  0 400000 0  50000 400000 0  100000 400000 0  150000 400000 0  200000 400000 0  250000 400000 0  300000 400000 0  350000 400000 0  400000 400000 0  450000 400000 0  500000 400000 0  550000 400000 0  600000 400000 0  650000 400000 0  700000 400000 0  750000 400000 0  800000 400000 0  850000 400000 0  900000 400000 0  950000 400000 0  1000000 400000 0  0 450000 0  50000 450000 0  100000 450000 0  150000 450000 0  200000 450000 0  250000 450000 0  300000 450000 0  350000 450000 0  400000 450000 0  450000 450000 0  500000 450000 0  550000 450000 0  600000 450000 0  650000 450000 0  700000 450000 0  750000 450000 0  800000 450000 0  850000 450000 0  900000 450000 0  950000 450000 0  1000000 450000 0  0 500000 0  50000 500000 0  100000 500000 0  150000 500000 0  200000 500000 0  250000 500000 0  300000 500000 0  350000 500000 0  400000 500000 0  450000 500000 0  500000 500000 0  550000 500000 0  600000 500000 0  650000 500000 0  700000 500000 0  750000 500000 0  800000 500000 0  850000 500000 0  900000 500000 0  950000 500000 0  1000000 500000 0  0 550000 0  50000 550000 0  100000 550000 0  150000 550000 0  200000 550000 0  250000 550000 0  300000 550000 0  350000 550000 0  400000 550000 0  450000 550000 0  500000 550000 0  550000 550000 0  600000 550000 0  650000 550000 0  700000 550000 0  750000 550000 0  800000 550000 0  850000 550000 0  900000 550000 0  950000 550000 0  1000000 550000 0  0 600000 0  50000 600000 0  100000 600000 0  150000 600000 0  200000 600000 0  250000 600000 0  300000 600000 0  350000 600000 0  400000 600000 0  450000 600000 0  500000 600000 0  550000 600000 0  600000 600000 0  650000 600000 0  700000 600000 0  750000 600000 0  800000 600000 0  850000 600000 0  900000 600000 0  950000 600000 0  1000000 600000 0  0 650000 0  50000 650000 0  100000 650000 0  150000 650000 0  200000 650000 0  250000 650000 0  300000 650000 0  350000 650000 0  400000 650000 0  450000 650000 0  500000 650000 0  550000 650000 0  600000 650000 0  650000 650000 0  700000 650000 0  750000 650000 0  800000 650000 0  850000 650000 0  900000 650000 0  950000 650000 0  1000000 650000 0  0 700000 0  50000 700000 0  100000 700000 0  150000 700000 0  200000 700000 0  250000 700000 0  300000 700000 0  350000 700000 0  400000 700000 0  450000 700000 0  500000 700000 0  550000 700000 0  600000 700000 0  650000 700000 0  700000 700000 0  750000 700000 0  800000 700000 0  850000 700000 0  900000 700000 0  950000 700000 0  1000000 700000 0  0 750000 0  50000 750000 0  100000 750000 0  150000 750000 0  200000 750000 0  250000 750000 0  300000 750000 0  350000 750000 0  400000 750000 0  450000 750000 0  500000 750000 0  550000 750000 0  600000 750000 0  650000 750000 0  700000 750000 0  750000 750000 0  800000 750000 0  850000 750000 0  900000 750000 0  950000 750000 0  1000000 750000 0  0 800000 0  50000 800000 0  100000 800000 0  150000 800000 0  200000 800000 0  250000 800000 0  300000 800000 0  350000 800000 0  400000 800000 0  450000 800000 0  500000 800000 0  550000 800000 0  600000 800000 0  650000 800000 0  700000 800000 0  750000 800000 0  800000 800000 0  850000 800000 0  900000 800000 0  950000 800000 0  1000000 800000 0  0 850000 0  50000 850000 0  100000 850000 0  150000 850000 0  200000 850000 0  250000 850000 0  300000 850000 0  350000 850000 0  400000 850000 0  450000 850000 0  500000 850000 0  550000 850000 0  600000 850000 0  650000 850000 0  700000 850000 0  750000 850000 0  800000 850000 0  850000 850000 0  900000 850000 0  950000 850000 0  1000000 850000 0  0 900000 0  50000 900000 0  100000 900000 0  150000 900000 0  200000 900000 0  250000 900000 0  300000 900000 0  350000 900000 0  400000 900000 0  450000 900000 0  500000 900000 0  550000 900000 0  600000 900000 0  650000 900000 0  700000 900000 0  750000 900000 0  800000 900000 0  850000 900000 0  900000 900000 0  950000 900000 0  1000000 900000 0  0 950000 0  50000 950000 0  100000 950000 0  150000 950000 0  200000 950000 0  250000 950000 0  300000 950000 0  350000 950000 0  400000 950000 0  450000 950000 0  500000 950000 0  550000 950000 0  600000 950000 0  650000 950000 0  700000 950000 0  750000 950000 0  800000 950000 0  850000 950000 0  900000 950000 0  950000 950000 0  1000000 950000 0  0 1000000 0  50000 1000000 0  100000 1000000 0  150000 1000000 0  200000 1000000 0  250000 1000000 0  300000 1000000 0  350000 1000000 0  400000 1000000 0  450000 1000000 0  500000 1000000 0  550000 1000000 0  600000 1000000 0  650000 1000000 0  700000 1000000 0  750000 1000000 0  800000 1000000 0  850000 1000000 0  900000 1000000 0  950000 1000000 0  1000000 1000000 0  0 1050000 0  50000 1050000 0  100000 1050000 0  150000 1050000 0  200000 1050000 0  250000 1050000 0  300000 1050000 0  350000 1050000 0  400000 1050000 0  450000 1050000 0  500000 1050000 0  550000 1050000 0  600000 1050000 0  650000 1050000 0  700000 1050000 0  750000 1050000 0  800000 1050000 0  850000 1050000 0  900000 1050000 0  950000 1050000 0  1000000 1050000 0  0 1100000 0  50000 1100000 0  100000 1100000 0  150000 1100000 0  200000 1100000 0  250000 1100000 0  300000 1100000 0  350000 1100000 0  400000 1100000 0  450000 1100000 0  500000 1100000 0  550000 1100000 0  600000 1100000 0  650000 1100000 0  700000 1100000 0  750000 1100000 0  800000 1100000 0  850000 1100000 0  900000 1100000 0  950000 1100000 0  1000000 1100000 0  0 1150000 0  50000 1150000 0  100000 1150000 0  150000 1150000 0  200000 1150000 0  250000 1150000 0  300000 1150000 0  350000 1150000 0  400000 1150000 0  450000 1150000 0  500000 1150000 0  550000 1150000 0  600000 1150000 0  650000 1150000 0  700000 1150000 0  750000 1150000 0  800000 1150000 0  850000 1150000 0  900000 1150000 0  950000 1150000 0  1000000 1150000 0  0 1200000 0  50000 1200000 0  100000 1200000 0  150000 1200000 0  200000 1200000 0  250000 1200000 0  300000 1200000 0  350000 1200000 0  400000 1200000 0  450000 1200000 0  500000 1200000 0  550000 1200000 0  600000 1200000 0  650000 1200000 0  700000 1200000 0  750000 1200000 0  800000 1200000 0  850000 1200000 0  900000 1200000 0  950000 1200000 0  1000000 1200000 0  0 1250000 0  50000 1250000 0  100000 1250000 0  150000 1250000 0  200000 1250000 0  250000 1250000 0  300000 1250000 0  350000 1250000 0  400000 1250000 0  450000 1250000 0  500000 1250000 0  550000 1250000 0  600000 1250000 0  650000 1250000 0  700000 1250000 0  750000 1250000 0  800000 1250000 0  850000 1250000 0  900000 1250000 0  950000 1250000 0  1000000 1250000 0  0 1300000 0  50000 1300000 0  100000 1300000 0  150000 1300000 0  200000 1300000 0  250000 1300000 0  300000 1300000 0  350000 1300000 0  400000 1300000 0  450000 1300000 0  500000 1300000 0  550000 1300000 0  600000 1300000 0  650000 1300000 0  700000 1300000 0  750000 1300000 0  800000 1300000 0  850000 1300000 0  900000 1300000 0  950000 1300000 0  1000000 1300000 0  0 1350000 0  50000 1350000 0  100000 1350000 0  150000 1350000 0  200000 1350000 0  250000 1350000 0  300000 1350000 0  350000 1350000 0  400000 1350000 0  450000 1350000 0  500000 1350000 0  550000 1350000 0  600000 1350000 0  650000 1350000 0  700000 135
[...]
<PointData  Vectors="f_19"> 
<DataArray  type="Float64"  Name="f_19"  NumberOfComponents="3" format="ascii">-2.4419189568685820e-08 -1.0310624746131993e-08 0.0000000000000000e+00  4.8645434186873318e-08 -6.3976657079398277e-09 0.0000000000000000e+00  4.2928895347457418e-08 -2.1069838729263274e-09 0.0000000000000000e+00  4.0485122952770665e-08 -7.5137565293409132e-10 0.0000000000000000e+00  3.9289844057265588e-08 -2.8660746204119944e-10 0.0000000000000000e+00  3.8510704816152546e-08 -9.4707677532402586e-11 0.0000000000000000e+00  3.7951175497339947e-08 -8.3864501261076996e-12 0.0000000000000000e+00  3.7554623239565002e-08 2.9717671841619788e-11 0.0000000000000000e+00  3.7303357858057304e-08 4.4130528317161986e-11 0.0000000000000000e+00  3.7192932806702988e-08 4.8011929617533398e-11 0.0000000000000000e+00  3.7224408346113717e-08 5.0498365042368055e-11 0.0000000000000000e+00  3.7402587639445618e-08 6.0027985667979097e-11 0.0000000000000000e+00  3.7737604074636748e-08 8.6861307722161926e-11 0.0000000000000000e+00  3.8250959790245946e-08 1.4662237776380030e-10 0.0000000000000000e+00  3.8991590644522859e-08 2.6760770918495346e-10 0.0000000000000000e+00  4.0078380995278118e-08 5.0889451064451341e-10 0.0000000000000000e+00  4.1812507225672047e-08 1.0089837722950205e-09 0.0000000000000000e+00  4.4940813720557205e-08 2.1124386189868864e-09 0.0000000000000000e+00  5.0792935026240597e-08 4.6367087698913894e-09 0.0000000000000000e+00  5.8039269961043838e-08 9.1492302674692120e-09 0.0000000000000000e+00  -1.6414184309795756e-08 7.0433644308049018e-09 0.0000000000000000e+00  -1.8184885001092375e-08 -1.5865870911294799e-08 0.0000000000000000e+00  7.2357222762232668e-09 -1.1294450762249073e-08 0.0000000000000000e+00  1.8125026365441274e-08 -5.2546632979291450e-09 0.0000000000000000e+00  2.3195329203689847e-08 -2.4001025380480107e-09 0.0000000000000000e+00  2.5792499859600703e-08 -1.1453834557610504e-09 0.0000000000000000e+00  2.7262096432976631e-08 -5.5410104530558387e-10 0.0000000000000000e+00  2.8117218100386884e-08 -2.5801539694218065e-10 0.0000000000000000e+00  2.8617933024257826e-08 -1.0691158621484674e-10 0.0000000000000000e+00  2.8907809504685145e-08 -3.1774837239732494e-11 0.0000000000000000e+00  2.9067003764445500e-08 4.7267952756556490e-12 0.0000000000000000e+00  2.9137391114617915e-08 2.7138671771462910e-11 0.0000000000000000e+00  2.9134083854676776e-08 5.5926835703611884e-11 0.0000000000000000e+00  2.9049422246435157e-08 1.1324857609627394e-10 0.0000000000000000e+00  2.8851441855718168e-08 2.2956586913763626e-10 0.0000000000000000e+00  2.8475808091897124e-08 4.5543888571293335e-10 0.0000000000000000e+00  2.7805175390245025e-08 8.8743834745350130e-10 0.0000000000000000e+00  2.6613931372655659e-08 1.7290311357226678e-09 0.0000000000000000e+00  2.4390822892068908e-08 3.4263756344054098e-09 0.0000000000000000e+00  1.9691818820946592e-08 6.8699103887392330e-09 0.0000000000000000e+00  8.2705590944921585e-09 1.3023616959731827e-08 0.0000000000000000e+00  -1.8383008976679856e-08 1.0973801632658979e-08 0.0000000000000000e+00  -1.1212490103341478e-08 -1.9468946233617156e-08 0.0000000000000000e+00  -2.6866290382303722e-10 -1.8461034989239274e-08 0.0000000000000000e+00  5.8372429401625264e-09 -1.1356156825121311e-08 0.0000000000000000e+00  1.0716376998066220e-08 -6.5810539059488507e-09 0.0000000000000000e+00  1.4530152080475530e-08 -3.8173055200751699e-09 0.0000000000000000e+00  1.7177811986885610e-08 -2.2443016646901022e-09 0.0000000000000000e+00  1.8948504878491067e-08 -1.3229286400878985e-09 0.0000000000000000e+00  2.0107779827007063e-08 -7.6249497428323916e-10 0.0000000000000000e+00  2.0834971189580276e-08 -4.0411951414652891e-10 0.0000000000000000e+00  2.1240552782682092e-08 -1.5351135929253065e-10 0.0000000000000000e+00  2.1384546597798208e-08 5.3569951934284339e-11 0.0000000000000000e+00  2.1287544869986040e-08 2.7020258749167609e-10 0.0000000000000000e+00  2.0934704415959563e-08 5.5144632890539446e-10 0.0000000000000000e+00  2.0273359152664895e-08 9.6797475450821001e-10 0.0000000000000000e+00  1.9203658434105948e-08 1.6261302764804518e-09 0.0000000000000000e+00  1.7560321639812011e-08 2.7021165669577678e-09 0.0000000000000000e+00  1.5084151333528497e-08 4.4967643249922950e-09 0.0000000000000000e+00  1.1393538181604993e-08 7.4840587600190042e-09 0.0000000000000000e+00  6.0229822060747794e-09 1.2130608915816587e-08 0.0000000000000000e+00  -1.2876466238523255e-09 1.7583915331594003e-08 0.0000000000000000e+00  -1.3217038145777546e-08 1.4716665782475785e-08 0.0000000000000000e+00  -7.5175670766626748e-09 -2.0091767921514497e-08 0.0000000000000000e+00  -1.5560429282061072e-09 -1.9887548481488144e-08 0.0000000000000000e+00  1.1284950819689270e-09 -1.5319586013173663e-08 0.0000000000000000e+00  3.8967054430002914e-09 -1.0453311340135961e-08 0.0000000000000000e+00  6.7877988847481028e-09 -6.8773669732714978e-09 0.0000000000000000e+00  9.3043867015409160e-09 -4.4653780342110002e-09 0.0000000000000000e+00  1.1246262663788201e-08 -2.8621414982145892e-09 0.0000000000000000e+00  1.2636621450353979e-08 -1.7771693385099616e-09 0.0000000000000000e+00  1.3559272495221763e-08 -1.0102224815789924e-09 0.0000000000000000e+00  1.4088666656313732e-08 -4.2342370736659923e-10 0.0000000000000000e+00  1.4272033916246603e-08 8.5890333688356485e-11 0.0000000000000000e+00  1.4126653837624368e-08 6.0533932012527709e-10 0.0000000000000000e+00  1.3640035403595537e-08 1.2235119848257849e-09 0.0000000000000000e+00  1.2770143762967477e-08 2.0454563129309937e-09 0.0000000000000000e+00  1.1446903240292233e-08 3.2102281197668516e-09 0.0000000000000000e+00  9.5811787351175780e-09 4.9088912894012864e-09 0.0000000000000000e+00  7.0980880347498427e-09 7.3851595997069754e-09 0.0000000000000000e+00  4.0287680754120039e-09 1.0848199287791657e-08 0.0000000000000000e+00  6.6681165030589574e-10 1.5106279912744035e-08 0.0000000000000000e+00  -2.6237629550630552e-09 1.8746834752239193e-08 0.0000000000000000e+00  -8.9162678116632131e-09 1.7553925703331130e-08 0.0000000000000000e+00  -5.6514508902965232e-09 -1.9498925064944710e-08 0.0000000000000000e+00  -1.8919816616892437e-09 -1.9623491592770069e-08 0.0000000000000000e+00  -9.1788950535794120e-10 -1.6725525358839001e-08 0.0000000000000000e+00  2.1477539641376255e-10 -1.2822470564477523e-08 0.0000000000000000e+00  1.8479961574208524e-09 -9.2748407696864734e-09 0.0000000000000000e+00  3.6166422036748300e-09 -6.4903894715144059e-09 0.0000000000000000e+00  5.1978010500807642e-09 -4.4144802288958407e-09 0.0000000000000000e+00  6.4465741001396674e-09 -2.8743094043052786e-09 0.0000000000000000e+00  7.3288462859766636e-09 -1.6992212457691921e-09 0.0000000000000000e+00  7.8537498522366162e-09 -7.4566857026543203e-10 0.0000000000000000e+00  8.0371475664649351e-09 1.0688279946674598e-10 0.0000000000000000e+00  7.8866132818236330e-09 9.6684632725511613e-10 0.0000000000000000e+00  7.3972857970743218e-09 1.9419688481221727e-09 0.0000000000000000e+00  6.5544925127705687e-09 3.1496238761582461e-09 0.0000000000000000e+00  5.3443835630787011e-09 4.7233986199529265e-09 0.0000000000000000e+00  3.7786215781175776e-09 6.8074113759683508e-09 0.0000000000000000e+00  1.9424863074416179e-09 9.5150055087040275e-09 0.0000000000000000e+00  6.3430205057482115e-11 1.2804064299551083e-08 0.0000000000000000e+00  -1.4932946500442630e-09 1.6222971417383733e-08 0.0000000000000000e+00  -2.7363382239334965e-09 1.8690578979264187e-08 0.0000000000000000e+00  -6.6303594172214198e-09 1.8535368962183442e-08 0.0000000000000000e+00  -4.5910764902979985e-09 -1.8365498819720501e-08 0.0000000000000000e+00  -2.0640855111933008e-09 -1.8695826940447888e-08 0.0000000000000000e+00  -1.9935901860709783e-09 -1.6742549698286711e-08 0.0000000000000000e+00  -1.9092548823279435e-09 -1.3782063374337103e-08 0.0000000000000000e+00  -1.3145828248933703e-09 -1.0675241831496754e-08 0.0000000000000000e+00  -3.7812610027564694e-10 -7.9168611972577170e-09 0.0000000000000000e+00  6.3333083322041678e-10 -5.6429241791819587e-09 0.0000000000000000e+00  1.5301611891478732e-09 -3.8123781725930540e-09 0.0000000000000000e+00  2.2121707490786346e-09 -2.3207616326793945e-09 0.0000000000000000e+00  2.6363539861595597e-09 -1.0506247479076900e-09 0.0000000000000000e+00  2.7879302377908774e-09 1.1253146454462007e-10 0.0000000000000000e+00  2.6638213974891036e-09 1.2786038797496367e-09 0.0000000000000000e+00  2.2668900584835621e-09 2.5556619889389881e-09 0.0000000000000000e+00  1.6090087038362480e-09 4.0517235170203644e-09 0.0000000000000000e+00  7.2311600364994443e-10 5.8700668019430245e-09 0.0000000000000000e+00  -3.1454545451547408e-10 8.0890440859528466e-09 0.0000000000000000e+00  -1.3551011194025670e-09 1.0711894284776298e-08 0.0000000000000000e+00  -2.1651392943191531e-09 1.3573603117471833e-08 0.0000000000000000e+00  -2.5250079113790322e-09 1.6229985865800007e-08 0.0000000000000000e+00  -2.7150274084716979e-09 1.7985510437337479e-08 0.0000000000000000e+00  -5.2921008303505241e-09 1.8286942235294922e-08 0.0000000000000000e+00  -3.9135682384347536e-09 -1.6933077551603520e-08 0.0000000000000000e+00  -2.1954186749949317e-09 -1.7405704647937779e-08 0.0000000000000000e+00  -2.6638683333830451e-09 -1.6019669129506409e-08 0.0000000000000000e+00  -3.2421382272029863e-09 -1.3767861034055870e-08 0.0000000000000000e+00  -3.4033780223419917e-09 -1.1179080839859291e-08 0.0000000000000000e+00  -3.1791354138723123e-09 -8.6580819911837140e-09 0.0000000000000000e+00  -2.7439353300088364e-09 -6.4022060158292743e-09 0.0000000000000000e+00  -2.2636732204102975e-09 -4.4550727982379507e-09 0.0000000000000000e+00  -1.8536025080622387e-09 -2.7761077427865371e-09 0.0000000000000000e+00  -1.5812029011938985e-09 -1.2868113324794726e-09 0.0000000000000000e+00  -1.4799495089360767e-09 1.0528998970112415e-10 0.0000000000000000e+00  -1.5603681187264444e-09 1.4959003935515925e-09 0.0000000000000000e+00  -1.8146708761121278e-09 2.9786387932281622e-09 0.0000000000000000e+00  -2.2146674778623297e-09 4.6393070111615943e-09 0.0000000000000000e+00  -2.7036157421637753e-09 6.5443338347150641e-09 0.0000000000000000e+00  -3.1844515604752777e-09 8.7174657243806613e-09 0.0000000000000000e+00  -3.5127880762484327e-09 1.1100042156080675e-08 0.0000000000000000e+00  -3.5186376566052517e-09 1.3499999813558054e-08 0.0000000000000000e+00  -3.1187261255045380e-09 1.5563820771766005e-08 0.0000000000000000e+00  -2.7002824011379164e-09 1.6862028121833697e-08 0.0000000000000000e+00  -4.4267855800100919e-09 1.7379856064271405e-08 0.0000000000000000e+00  -3.4433106413864293e-09 -1.5301474739519788e-08 0.0000000000000000e+00  -2.3038776222141977e-09 -1.5876805760955148e-08 0.0000000000000000e+00  -3.1297938252526166e-09 -1.4856209387061054e-08 0.0000000000000000e+00  -4.1402701480524383e-09 -1.3118905484723562e-08 0.0000000000000000e+00  -4.8318874095822202e-09 -1.0998612020902542e-08 0.0000000000000000e+00  -5.1595590560471118e-09 -8.7916587821501015e-09 0.0000000000000000e+00  -5.2195677771470644e-09 -6.6862417331769359e-09 0.0000000000000000e+00  -5.1330360017436184e-09 -4.7624805877085784e-09 0.0000000000000000e+00  -5.0010136340140644e-09 -3.0236939015046961e-09 0.0000000000000000e+00  -4.8927843933882150e-09 -1.4278723859799395e-09 0.0000000000000000e+00  -4.8475814848194470e-09 8.9864678724155823e-11 0.0000000000000000e+00  -4.8790375669285281e-09 1.6029014487545261e-09 0.0000000000000000e+00  -4.9776756784082773e-09 3.1829450231880192e-09 0.0000000000000000e+00  -5.1101625344542410e-09 4.8899229271633413e-09 0.0000000000000000e+00  -5.2162054691119182e-09 6.7582642757362308e-09 0.0000000000000000e+00  -5.2064675343510015e-09 8.7769637662866724e-09 0.0000000000000000e+00  -4.9692775569580320e-09 1.0864246760860225e-08 0.0000000000000000e+00  -4.4024719230058319e-09 1.2846058704944499e-08 0.0000000000000000e+00  -3.5093014418502695e-09 1.4462577048109133e-08 0.0000000000000000e+00  -2.6995486709193404e-09 1.5450189156269281e-08 0.0000000000000000e+00  -3.8263267095796173e-09 1.6087966131224757e-08 0.0000000000000000e+00  -3.0995676805500398e-09 -1.3524402379040666e-08 0.0000000000000000e+00  -2.3929536952868002e-09 -1.4175863837873209e-08 0.0000000000000000e+00  -3.4722324514875037e-09 -1.3406060504362435e-08 0.0000000000000000e+00  -4.7749818270400898e-09 -1.2049731404069835e-08 0.0000000000000000e+00  -5.8359032102579312e-09 -1.0325489260119841e-08 0.0000000000000000e+00  -6.5718950059293709e-09 -8.4429817892798905e-09 0.0000000000000000e+00  -7.0239933032563918e-09 -6.5576290924907278e-09 0.0000000000000000e+00  -7.2697812040486608e-09 -4.7558039133595667e-09 0.0000000000000000e+00  -7.3852337676862346e-09 -3.0643833954030504e-09 0.0000000000000000e+00  -7.4287728168960560e-09 -1.4686117272404796e-09 0.0000000000000000e+00  -7.4364167049325914e-09 7.0796792380693824e-11 0.0000000000000000e+00  -7.4214684321545961e-09 1.6037380431856266e-09 0.0000000000000000e+00  -7.3751353240217708e-09 3.1790746035254889e-09 0.0000000000000000e+00  -7.2668237037898718e-09 4.8332883406969778e-09 0.0000000000000000e+00  -7.0448133374380328e-09 6.5776648858757290e-09 0.0000000000000000e+00  -6.6400094409487721e-09 8.3836040108574936e-09 0.0000000000000000e+00  -5.9779931795625799e-09 1.0168652212846292e-08 0.0000000000000000e+00  -5.0092551735932671e-09 1.1790845166942071e-08 0.0000000000000000e+00  -3.7850665477961942e-09 1.3065490939867837e-08 0.0000000000000000e+00  -2.7053639688298210e-09 1.3831352959695285e-08 0.0000000000000000e+00  -3.3895053288816422e-09 1.4544975544445606e-08 0.0000000000000000e+00  -2.8411570915588514e-09 -1.1637879299602862e-08 0.0000000000000000e+00  -2.4647506720031734e-09 -1.2346623439857786e-08 0.0000000000000000e+00  -3.7296269851511075e-09 -1.1759471522519960e-08 0.0000000000000000e+00  -5.2350466358889706e-09 -1.0695783093395102e-08 0.0000000000000000e+00  -6.5529782372274170e-09 -9.3044213829815154e-09 0.0000000000000000e+00  -7.5833135788732032e-09 -7.7322541288503435e-09 0.0000000000000000e+00  -8.3309937926054586e-09 -6.0995370379803772e-09 0.0000000000000000e+00  -8.8385616866537765e-09 -4.4844215815841672e-09 0.0000000000000000e+00  -9.1563505701460875e-09 -2.9228502181360000e-09 0.0000000000000000e+00  -9.3273304749456646e-09 -1.4173320010852898e-09 0.0000000000000000e+00  -9.3798977182719705e-09 5.1460741951603780e-11 0.0000000000000000e+00  -9.3250833687434098e-09 1.5131898048372314e-09 0.0000000000000000e+00  -9.1560195853101002e-09 2.9970647803146125e-09 0.0000000000000000e+00  -8.8488002897299633e-09 4.5213619974607433e-09 0.0000000000000000e+00  -8.3651533282066207e-09 6.0828909385898853e-09 0.0000000000000000e+00  -7.6585536722509948e-09 7.6470614411975802e-09 0.0000000000000000e+00  -6.6867114084870910e-09 9.1411068916318107e-09 0.0000000000000000e+00  -5.4365812953991741e-09 1.0455422352414709e-08 0.0000000000000000e+00  -3.9845425843918078e-09 1.1460855544399165e-08 0.0000000000000000e+00  -2.7115804817757081e-09 1.2060373539084196e-08 0.0000000000000000e+00  -3.0621534224042337e-09 1.2825621466386886e-08 0.0000000000000000e+00  -2.6452942870994001e-09 -9.6691990493717085e-09 0.0000000000000000e+00  -2.5216403454217651e-09 -1.0421321286345823e-08 0.0000000000000000e+00  -3.9238183007910974e-09 -9.9750578922635322e-09 0.0000000000000000e+00  -5.5712206628941211e-09 -9.1461136729811738e-09 0.0000000000000000e+00  -7.0674250784831450e-09 -8.0397044912115216e-09 0.0000000000000000e+00  -8.3058193775993538e-09 -6.7583695516869997e-09 0.0000000000000000e+00  -9.2686189169294898e-09 -5.3917550468791618e-09 0.0000000000000000e+00  -9.9725584183280452e-09 -4.0045345470322164e-09 0.0000000000000000e+00  -1.0446153552372948e-08 -2.6330127093606660e-09 0.0000000000000000e+00  -1.0717113314582912e-08 -1.2887872288995844e-09 0.0000000000000000e+00  -1.0805127083238711e-08 3.3942539002816156e-11 0.0000000000000000e+00  -1.0718264075976419e-08 1.3497534251503019e-09 0.0000000000000000e+00  -1.0451929284205794e-08 2.6731771980850496e-09 0.0000000000000000e+00  -9.9899065514240837e-09 4.0101044251364283e-09 0.0000000000000000e+00  -9.3076649698452090e-09 5.3498136486254889e-09 0.0000000000000000e+00  -8.3786970200232777e-09 6.6586044192689589e-09 0.0000000000000000e+00  -7.1853740951323296e-09 7.8769840463085467e-09 0.0000000000000000e+00  -5.7387137404133629e-09 8.9233179814327056e-09 0.0000000000000000e+00  -4.1278389323607562e-09 9.7085040311967332e-09 0.0000000000000000e+00  -2.7147886705087582e-09 1.0176746060399821e-08 0.0000000000000000e+00  -2.8131352801175992e-09 1.0977854998494949e-08 0.0000000000000000e+00  -2.4986820092983184e-09 -7.6401715629581699e-09 0.0000000000000000e+00  -2.5662591906118879e-09 -8.4251343668553948e-09 0.0000000000000000e+00  -4.0692138970986304e-09 -8.0936954109982365e-09 0.0000000000000000e+00  -5.8155152390498822e-09 -7.4617115090391699e-09 0.0000000000000000e+00  -7.4338924883772151e-09 -6.6060757081048719e-09 0.0000000000000000e+00  -8.8161622863815960e-09 -5.5978783503486062e-09 0.0000000000000000e+00  -9.9305442585483930e-09 -4.5018706194620019e-09 0.0000000000000000e+00  -1.0775756657110414e-08 -3.3683271356335553e-09 0.0000000000000000e+00  -1.1363507677962218e-08 -2.2292198421551095e-09 0.0000000000000000e+00  -1.1708647301037107e-08 -1.0993446615350480e-09 0.0000000000000000e+00  -1.1822944693935343e-08 1.9311657172334550e-11 0.0000000000000000e+00  -1.1711599608328452e-08 1.1315514651227229e-09 0.0000000000000000e+00  -1.1372097373863629e-08 2.2423709378765397e-09 0.0000000000000000e+00  -1.0795212836404905e-08 3.3504986854788071e-09 0.0000000000000000e+00  -9.9681874102187168e-09 4.4427342343535265e-09 0.0000000000000000e+00  -8.8803204694232128e-09 5.4900158725815079e-09 0.0000000000000000e+00  -7.5317198547537541e-09 6.4465444178129475e-09 0.0000000000000000e+00  -5.9489331980132861e-09 7.2535889977997505e-09 0.0000000000000000e+00  -4.2274858850173973e-09 7.8510096369114873e-09 0.0000000000000000e+00  -2.7136564003748907e-09 8.2102748421712545e-09 0.0000000000000000e+00  -2.6237197629920586e-09 9.0357354559104700e-09 0.0000000000000000e+00  -2.3933512410707629e-09 -5.5686112410350763e-09 0.0000000000000000e+00  -2.6012595153926020e-09 -6.3782470015521104e-09 0.0000000000000000e+00  -4.1762185241819517e-09 -6.1452863250567955e-09 0.0000000000000000e+00  -5.9896230135954098e-09 -5.6858143858790666e-09 0.0000000000000000e+00  -7.6893477867324567e-09 -5.0575237884334699e-09 0.0000000000000000e+00  -9.1677748191126193e-09 -4.3086315045232245e-09 0.0000000000000000e+00  -1.0384727743550173e-08 -3.4839048080805349e-09 0.0000000000000000e+00  -1.1326917847802633e-08 -2.6199517810333334e-09 0.0000000000000000e+00  -1.1994029232832866e-08 -1.7420812735690072e-09 0.0000000000000000e+00  -1.2391144921475571e-08 -8.6434696051558718e-10 0.0000000000000000e+00  -1.2523716335779096e-08 7.9779498535857087e-12 0.0000000000000000e+00  -1.2394550140396083e-08 8.7447398512940967e-10 0.0000000000000000e+00  -1.2002760358110705e-08 1.7350346098917283e-09 0.0000000000000000e+00  -1.1344648350599006e-08 2.5853885070393366e-09 0.0000000000000000e+00  -1.0416457561476717e-08 3.4133245107376337e-09 0.0000000000000000e+00  -9.2189800685437920e-09 4.1963465872319383e-09 0.0000000000000000e+00  -7.7644531100997377e-09 4.9015987808207522e-09 0.0000000000000000e+00  -6.0892883837540297e-09 5.4889649011194772e-09 0.0000000000000000e+00  -4.2923078797698094e-09 5.9197404415043838e-09 0.0000000000000000e+00  -2.7081150281943759e-09 6.1841139817599471e-09 0.0000000000000000e+00  -2.4823393644873440e-09 7.0249770340169145e-09 0.0000000000000000e+00  -2.3245455668857118e-09 -3.4693125740829511e-09 0.0000000000000000e+00  -2.6290551704421709e-09 -4.2971039136844480e-09 0.0000000000000000e+00  -4.2525274785246807e-09 -4.1525194393980781e-09 0.0000000000000000e+00  -6.1086407259615250e-09 -3.8500987045149683e-09 0.0000000000000000e+00  -7.8590969261756695e-09 -3.4337377473515921e-09 0.0000000000000000e+00  -9.3976225465045800e-09 -2.9342574607351047e-09 0.0000000000000000e+00  -1.0679295053381764e-08 -2.3800625143763690e-09