<?xml version="1.0"?>
<VTKFile type="UnstructuredGrid"  version="0.1"  >
<UnstructuredGrid>
<Piece  NumberOfPoints="651" NumberOfCells="1200">
<Points>
<DataArray  type="Float64"  NumberOfComponents="3"  format="ascii">0 0 0  50000 0 0  100000 0 0  150000 0 0  200000 0 0  250000 0 0  300000 0 0  350000 0 0  400000 0 0  450000 0 0  500000 0 0  550000 0 0  600000 0 0  650000 0 0  700000 0 0  750000 0 0  800000 0 0  850000 0 0  900000 0 0  950000 0 0  1000000 0 0  0 50000 0  50000 50000 0  100000 50000 0  150000 50000 0  200000 50000 0  250000 50000 0  300000 50000 0  350000 50000 0  400000 50000 0  450000 50000 0  500000 50000 0  550000 50000 0  600000 50000 0  650000 50000 0  700000 50000 0  750000 50000 0  800000 50000 0  850000 50000 0  900000 50000 0  950000 50000 0  1000000 50000 0  0 100000 0  50000 100000 0  100000 100000 0  150000 100000 0  200000 100000 0  250000 100000 0  300000 100000 0  350000 100000 0  400000 100000 0  450000 100000 0  500000 100000 0  550000 100000 0  600000 100000 0  650000 100000 0  700000 100000 0  750000 100000 0  800000 100000 0  850000 100000 0  900000 100000 0  950000 100000 0  1000000 100000 0  0 150000 0  50000 150000 0  100000 150000 0  150000 150000 0  200000 150000 0  250000 150000 0  300000 150000 0  350000 150000 0  400000 150000 0  450000 150000 0  500000 150000 0  550000 150000 0  600000 150000 0  650000 150000 0  700000 150000 0  750000 150000 0  800000 150000 0  850000 150000 0  900000 150000 0  950000 150000 0  1000000 150000 0  0 200000 0  50000 200000 0  100000 200000 0  150000 200000 0  200000 200000 0  250000 200000 0  300000 200000 0  350000 200000 0  400000 200000 0  450000 200000 0  500000 200000 0  550000 200000 0  600000 200000 0  650000 200000 0  700000 200000 0  750000 200000 0  800000 200000 0  850000 200000 0  900000 200000 0  950000 200000 0  1000000 200000 0  0 250000 0  50000 250000 0  100000 250000 0  150000 250000 0  200000 250000 0  250000 250000 0  300000 250000 0  350000 250000 0  400000 250000 0  450000 250000 0  500000 250000 0  550000 250000 0  600000 250000 0  650000 250000 0  700000 250000 0  750000 250000 0  800000 250000 0  850000 250000 0  900000 250000 0  950000 250000 0  1000000 250000 0  0 300000 0  50000 300000 0  100000 300000 0  150000 300000 0  200000 300000 0  250000 300000 0  300000 300000 0  350000 300000 0  400000 300000 0  450000 300000 0  500000 300000 0  550000 300000 0  600000 300000 0  650000 300000 0  700000 300000 0  750000 300000 0  800000 300000 0  850000 300000 0  900000 300000 0  950000 300000 0  1000000 300000 0  0 350000 0  50000 350000 0  100000 350000 0  150000 350000 0  200000 350000 0  250000 350000 0  300000 350000 0  350000 350000 0  400000 350000 0  450000 350000 0  500000 350000 0  550000 350000 0  600000 350000 0  650000 350000 0  700000 350000 0  750000 350000 0  800000 350000 0  850000 350000 0  900000 350000 0  950000 350000 0  1000000 350000 0  0 400000 0  50000 400000 0  100000 400000 0  150000 400000 0  200000 400000 0  250000 400000 0  300000 400000 0  350000 400000 0  400000 400000 0  450000 400000 0  500000 400000 0  550000 400000 0  600000 400000 0  650000 400000 0  700000 400000 0  750000 400000 0  800000 400000 0  850000 400000 0  900000 400000 0  950000 400000 0  1000000 400000 0  0 450000 0  50000 450000 0  100000 450000 0  150000 450000 0  200000 450000 0  250000 450000 0  300000 450000 0  350000 450000 0  400000 450000 0  450000 450000 0  500000 450000 0  550000 450000 0  600000 450000 0  650000 450000 0  700000 450000 0  750000 450000 0  800000 450000 0  850000 450000 0  900000 450000 0  950000 450000 0  1000000 450000 0  0 500000 0  50000 500000 0  100000 500000 0  150000 500000 0  200000 500000 0  250000 500000 0  300000 500000 0  350000 500000 0  400000 500000 0  450000 500000 0  500000 500000 0  550000 500000 0  600000 500000 0  650000 500000 0  700000 500000 0  750000 500000 0  800000 500000 0  850000 500000 0  900000 500000 0  950000 500000 0  1000000 500000 0  0 550000 0  50000 550000 0  100000 550000 0  150000 550000 0  200000 550000 0  250000 550000 0  300000 550000 0  350000 550000 0  400000 550000 0  450000 550000 0  500000 550000 0  550000 550000 0  600000 550000 0  650000 550000 0  700000 550000 0  750000 550000 0  800000 550000 0  850000 550000 0  900000 550000 0  950000 550000 0  1000000 550000 0  0 600000 0  50000 600000 0  100000 600000 0  150000 600000 0  200000 600000 0  250000 600000 0  300000 600000 0  350000 600000 0  400000 600000 0  450000 600000 0  500000 600000 0  550000 600000 0  600000 600000 0  650000 600000 0  700000 600000 0  750000 600000 0  800000 600000 0  850000 600000 0  900000 600000 0  950000 600000 0  1000000 600000 0  0 650000 0  50000 650000 0  100000 650000 0  150000 650000 0  200000 650000 0  250000 650000 0  300000 650000 0  350000 650000 0  400000 650000 0  450000 650000 0  500000 650000 0  550000 650000 0  600000 650000 0  650000 650000 0  700000 650000 0  750000 650000 0  800000 650000 0  850000 650000 0  900000 650000 0  950000 650000 0  1000000 650000 0  0 700000 0  50000 700000 0  100000 700000 0  150000 700000 0  200000 700000 0  250000 700000 0  300000 700000 0  350000 700000 0  400000 700000 0  450000 700000 0  500000 700000 0  550000 700000 0  600000 700000 0  650000 700000 0  700000 700000 0  750000 700000 0  800000 700000 0  850000 700000 0  900000 700000 0  950000 700000 0  1000000 700000 0  0 750000 0  50000 750000 0  100000 750000 0  150000 750000 0  200000 750000 0  250000 750000 0  300000 750000 0  350000 750000 0  400000 750000 0  450000 750000 0  500000 750000 0  550000 750000 0  600000 750000 0  650000 750000 0  700000 750000 0  750000 750000 0  800000 750000 0  850000 750000 0  900000 750000 0  950000 750000 0  1000000 750000 0  0 800000 0  50000 800000 0  100000 800000 0  150000 800000 0  200000 800000 0  250000 800000 0  300000 800000 0  350000 800000 0  400000 800000 0  450000 800000 0  500000 800000 0  550000 800000 0  600000 800000 0  650000 800000 0  700000 800000 0  750000 800000 0  800000 800000 0  850000 800000 0  900000 800000 0  950000 800000 0  1000000 800000 0  0 850000 0  50000 850000 0  100000 850000 0  150000 850000 0  200000 850000 0  250000 850000 0  300000 850000 0  350000 850000 0  400000 850000 0  450000 850000 0  500000 850000 0  550000 850000 0  600000 850000 0  650000 850000 0  700000 850000 0  750000 850000 0  800000 850000 0  850000 850000 0  900000 850000 0  950000 850000 0  1000000 850000 0  0 900000 0  50000 900000 0  100000 900000 0  150000 900000 0  200000 900000 0  250000 900000 0  300000 900000 0  350000 900000 0  400000 900000 0  450000 900000 0  500000 900000 0  550000 900000 0  600000 900000 0  650000 900000 0  700000 900000 0  750000 900000 0  800000 900000 0  850000 900000 0  900000 900000 0  950000 900000 0  1000000 900000 0  0 950000 0  50000 950000 0  100000 950000 0  150000 950000 0  200000 950000 0  250000 950000 0  300000 950000 0  350000 950000 0  400000 950000 0  450000 950000 0  500000 950000 0  550000 950000 0  600000 950000 0  650000 950000 0  700000 950000 0  750000 950000 0  800000 950000 0  850000 950000 0  900000 950000 0  950000 950000 0  1000000 950000 0  0 1000000 0  50000 1000000 0  100000 1000000 0  150000 1000000 0  200000 1000000 0  250000 1000000 0  300000 1000000 0  350000 1000000 0  400000 1000000 0  450000 1000000 0  500000 1000000 0  550000 1000000 0  600000 1000000 0  650000 1000000 0  700000 1000000 0  750000 1000000 0  800000 1000000 0  850000 1000000 0  900000 1000000 0  950000 1000000 0  1000000 1000000 0  0 1050000 0  50000 1050000 0  100000 1050000 0  150000 1050000 0  200000 1050000 0  250000 1050000 0  300000 1050000 0  350000 1050000 0  400000 1050000 0  450000 1050000 0  500000 1050000 0  550000 1050000 0  600000 1050000 0  650000 1050000 0  700000 1050000 0  750000 1050000 0  800000 1050000 0  850000 1050000 0  900000 1050000 0  950000 1050000 0  1000000 1050000 0  0 1100000 0  50000 1100000 0  100000 1100000 0  150000 1100000 0  200000 1100000 0  250000 1100000 0  300000 1100000 0  350000 1100000 0  400000 1100000 0  450000 1100000 0  500000 1100000 0  550000 1100000 0  600000 1100000 0  650000 1100000 0  700000 1100000 0  750000 1100000 0  800000 1100000 0  850000 1100000 0  900000 1100000 0  950000 1100000 0  1000000 1100000 0  0 1150000 0  50000 1150000 0  100000 1150000 0  150000 1150000 0  200000 1150000 0  250000 1150000 0  300000 1150000 0  350000 1150000 0  400000 1150000 0  450000 1150000 0  500000 1150000 0  550000 1150000 0  600000 1150000 0  650000 1150000 0  700000 1150000 0  750000 1150000 0  800000 1150000 0  850000 1150000 0  900000 1150000 0  950000 1150000 0  1000000 1150000 0  0 1200000 0  50000 1200000 0  100000 1200000 0  150000 1200000 0  200000 1200000 0  250000 1200000 0  300000 1200000 0  350000 1200000 0  400000 1200000 0  450000 1200000 0  500000 1200000 0  550000 1200000 0  600000 1200000 0  650000 1200000 0  700000 1200000 0  750000 1200000 0  800000 1200000 0  850000 1200000 0  900000 1200000 0  950000 1200000 0  1000000 1200000 0  0 1250000 0  50000 1250000 0  100000 1250000 0  150000 1250000 0  200000 1250000 0  250000 1250000 0  300000 1250000 0  350000 1250000 0  400000 1250000 0  450000 1250000 0  500000 1250000 0  550000 1250000 0  600000 1250000 0  650000 1250000 0  700000 1250000 0  750000 1250000 0  800000 1250000 0  850000 1250000 0  900000 1250000 0  950000 1250000 0  1000000 1250000 0  0 1300000 0  50000 1300000 0  100000 1300000 0  150000 1300000 0  200000 1300000 0  250000 1300000 0  300000 1300000 0  350000 1300000 0  400000 1300000 0  450000 1300000 0  500000 1300000 0  550000 1300000 0  600000 1300000 0  650000 1300000 0  700000 1300000 0  750000 1300000 0  800000 1300000 0  850000 1300000 0  900000 1300000 0  950000 1300000 0  1000000 1300000 0  0 1350000 0  50000 1350000 0  100000 1350000 0  150000 1350000 0  200000 1350000 0  250000 1350000 0  300000 1350000 0  350000 1350000 0  400000 1350000 0  450000 1350000 0  500000 1350000 0  550000 1350000 0  600000 1350000 0  650000 1350000 0  700000 135
[...]
<PointData  Vectors="f_19"> 
<DataArray  type="Float64"  Name="f_19"  NumberOfComponents="3" format="ascii">-2.4274955959487939e-08 -1.0655941218317088e-08 0.0000000000000000e+00  4.8763611619286339e-08 -6.7267642976597809e-09 0.0000000000000000e+00  4.3014791559928835e-08 -2.4051496765312954e-09 0.0000000000000000e+00  4.0546589646054863e-08 -1.0203736353319803e-09 0.0000000000000000e+00  3.9330866045928026e-08 -5.2962767868965819e-10 0.0000000000000000e+00  3.8534714636929623e-08 -3.1359547156767287e-10 0.0000000000000000e+00  3.7961236117716464e-08 -2.0443257255001847e-10 0.0000000000000000e+00  3.7553519731199473e-08 -1.4465559875610470e-10 0.0000000000000000e+00  3.7293624214547664e-08 -1.0977456925867953e-10 0.0000000000000000e+00  3.7176832171107050e-08 -8.6732901157628295e-11 0.0000000000000000e+00  3.7203897942007043e-08 -6.6522076744994380e-11 0.0000000000000000e+00  3.7379283567918929e-08 -4.0830180367481046e-11 0.0000000000000000e+00  3.7712752956292318e-08 4.9441805402145095e-13 0.0000000000000000e+00  3.8225420031402689e-08 7.2991159676660458e-11 0.0000000000000000e+00  3.8965822772514988e-08 2.0489618674797726e-10 0.0000000000000000e+00  4.0052443484385862e-08 4.5524518036244644e-10 0.0000000000000000e+00  4.1786050995497650e-08 9.6250641799626622e-10 0.0000000000000000e+00  4.4913071397701543e-08 2.0712008613582233e-09 0.0000000000000000e+00  5.0762803608050849e-08 4.5987164238394132e-09 0.0000000000000000e+00  5.8006016289721487e-08 9.1126769375604219e-09 0.0000000000000000e+00  -1.6449070668594564e-08 7.0052886910003220e-09 0.0000000000000000e+00  -1.8020990297593581e-08 -1.6195978287818028e-08 0.0000000000000000e+00  7.3088996245165999e-09 -1.1393459769907749e-08 0.0000000000000000e+00  1.8236554900182326e-08 -5.2723908750628815e-09 0.0000000000000000e+00  2.3285627509875262e-08 -2.4144078331813401e-09 0.0000000000000000e+00  2.5853268637791701e-08 -1.1594032507217384e-09 0.0000000000000000e+00  2.7299906632112643e-08 -5.6857615749793413e-10 0.0000000000000000e+00  2.8137233411713497e-08 -2.7303992820094107e-10 0.0000000000000000e+00  2.8624179677769804e-08 -1.2234369627718096e-10 0.0000000000000000e+00  2.8903765898973173e-08 -4.7458169469124892e-11 0.0000000000000000e+00  2.9055678734227411e-08 -1.1062796908311689e-11 0.0000000000000000e+00  2.9121351779138554e-08 1.1384881384355098e-11 0.0000000000000000e+00  2.9115484091245025e-08 4.0350289049061272e-11 0.0000000000000000e+00  2.9030024841915330e-08 9.7985029330630342e-11 0.0000000000000000e+00  2.8832638639923543e-08 2.1473412733339735e-10 0.0000000000000000e+00  2.8458645794926855e-08 4.4112145877458048e-10 0.0000000000000000e+00  2.7790397327727222e-08 8.7364569984937470e-10 0.0000000000000000e+00  2.6602038385363166e-08 1.7156314213985272e-09 0.0000000000000000e+00  2.4382039688916187e-08 3.4130012775852390e-09 0.0000000000000000e+00  1.9685401695175589e-08 6.8559163236670403e-09 0.0000000000000000e+00  8.2643074721137340e-09 1.3007129258473694e-08 0.0000000000000000e+00  -1.8416596978995293e-08 1.0938161217105346e-08 0.0000000000000000e+00  -1.1024150914234023e-08 -1.9763096322572199e-08 0.0000000000000000e+00  -2.3188806130934451e-10 -1.8547524553320546e-08 0.0000000000000000e+00  5.9067287761754455e-09 -1.1322596386576642e-08 0.0000000000000000e+00  1.0798500036542046e-08 -6.5323149548978916e-09 0.0000000000000000e+00  1.4604535158991090e-08 -3.7707591754556252e-09 0.0000000000000000e+00  1.7237362722020056e-08 -2.2040193988371911e-09 0.0000000000000000e+00  1.8993470972095841e-08 -1.2897387039850193e-09 0.0000000000000000e+00  2.0140308066493518e-08 -7.3613291191592686e-10 0.0000000000000000e+00  2.0857487391559065e-08 -3.8402354009446737e-10 0.0000000000000000e+00  2.1255369922362194e-08 -1.3905544038327493e-10 0.0000000000000000e+00  2.1393736751270726e-08 6.3029315151944406e-11 0.0000000000000000e+00  2.1292895699141683e-08 2.7531731811284610e-10 0.0000000000000000e+00  2.0937711125428466e-08 5.5286762526941691e-10 0.0000000000000000e+00  2.0275230271872991e-08 9.6633451303654667e-10 0.0000000000000000e+00  1.9205328248698807e-08 1.6220070345478432e-09 0.0000000000000000e+00  1.7562466283643314e-08 2.6959758142579798e-09 0.0000000000000000e+00  1.5087191227894148e-08 4.4888605495908110e-09 0.0000000000000000e+00  1.1397558092474756e-08 7.4743025764224890e-09 0.0000000000000000e+00  6.0272693769761397e-09 1.2118380651737247e-08 0.0000000000000000e+00  -1.2857035493115726e-09 1.7570571944562648e-08 0.0000000000000000e+00  -1.3248541623707878e-08 1.4686441152648294e-08 0.0000000000000000e+00  -7.3115196657442111e-09 -2.0349853125915692e-08 0.0000000000000000e+00  -1.5405936631967242e-09 -2.0002301944626769e-08 0.0000000000000000e+00  1.1507116437039519e-09 -1.5305578203619983e-08 0.0000000000000000e+00  3.9401044565607237e-09 -1.0400332516130386e-08 0.0000000000000000e+00  6.8404751843895563e-09 -6.8172983841310734e-09 0.0000000000000000e+00  9.3557576953552767e-09 -4.4092056201135966e-09 0.0000000000000000e+00  1.1291603251237195e-08 -2.8136158255606903e-09 0.0000000000000000e+00  1.2674691110071056e-08 -1.7372513842689252e-09 0.0000000000000000e+00  1.3590447231987688e-08 -9.7874863221481916e-10 0.0000000000000000e+00  1.4113967129226606e-08 -3.9978002998638928e-10 0.0000000000000000e+00  1.4292677593678784e-08 1.0250381106221085e-10 0.0000000000000000e+00  1.4143847155676468e-08 6.1580325351258337e-10 0.0000000000000000e+00  1.3654872520424556e-08 1.2287372266980535e-09 0.0000000000000000e+00  1.2783553367965259e-08 2.0463471760678046e-09 0.0000000000000000e+00  1.1459614743294735e-08 3.2076407342501487e-09 0.0000000000000000e+00  9.5936888180080642e-09 4.9035761636391770e-09 0.0000000000000000e+00  7.1106020889496459e-09 7.3776865787392449e-09 0.0000000000000000e+00  4.0410445683966603e-09 1.0838903389880667e-08 0.0000000000000000e+00  6.7747957806848158e-10 1.5095453022714965e-08 0.0000000000000000e+00  -2.6178506538798284e-09 1.8739027788579371e-08 0.0000000000000000e+00  -8.9436623716268452e-09 1.7530781680068171e-08 0.0000000000000000e+00  -5.4337028947175589e-09 -1.9722009883118082e-08 0.0000000000000000e+00  -1.8847092296870324e-09 -1.9747148564526948e-08 0.0000000000000000e+00  -9.2405518826218069e-10 -1.6736409486028670e-08 0.0000000000000000e+00  2.2462409669473538e-10 -1.2783873482309536e-08 0.0000000000000000e+00  1.8728709752519140e-09 -9.2185171528655129e-09 0.0000000000000000e+00  3.6491288897729377e-09 -6.4319006830158122e-09 0.0000000000000000e+00  5.2321994328776666e-09 -4.3609190729856576e-09 0.0000000000000000e+00  6.4797289053900987e-09 -2.8285827495812156e-09 0.0000000000000000e+00  7.3593891695797926e-09 -1.6621966807262609e-09 0.0000000000000000e+00  7.8813597948649886e-09 -7.1722135886755509e-10 0.0000000000000000e+00  8.0620558474118727e-09 1.2736778424374532e-10 0.0000000000000000e+00  7.9093054184615889e-09 9.8023292785572912e-10 0.0000000000000000e+00  7.4183243560562647e-09 1.9492476717953490e-09 0.0000000000000000e+00  6.5744043200630934e-09 3.1518422707584788e-09 0.0000000000000000e+00  5.3635749264988279e-09 4.7216100767802823e-09 0.0000000000000000e+00  3.7972951377129556e-09 6.8026308406038970e-09 0.0000000000000000e+00  1.9605303671484957e-09 9.5081773354912613e-09 0.0000000000000000e+00  8.0211009531561921e-11 1.2796112058406466e-08 0.0000000000000000e+00  -1.4795856915226481e-09 1.6215219913387315e-08 0.0000000000000000e+00  -2.7279895554006031e-09 1.8689832557914543e-08 0.0000000000000000e+00  -6.6518706386696372e-09 1.8520187636387447e-08 0.0000000000000000e+00  -4.3662615820480440e-09 -1.8554998859987213e-08 0.0000000000000000e+00  -2.0599084768140308e-09 -1.8813475488091268e-08 0.0000000000000000e+00  -2.0161384606523202e-09 -1.6769761271534613e-08 0.0000000000000000e+00  -1.9230285246798911e-09 -1.3760262642870112e-08 0.0000000000000000e+00  -1.3138733020558480e-09 -1.0629933194606544e-08 0.0000000000000000e+00  -3.6606863721721790e-10 -7.8638355224843678e-09 0.0000000000000000e+00  6.5241726473921221e-10 -5.5910182943490928e-09 0.0000000000000000e+00  1.5528763093457165e-09 -3.7661210561850935e-09 0.0000000000000000e+00  2.2363137472810661e-09 -2.2821681119869108e-09 0.0000000000000000e+00  2.6606844179094340e-09 -1.0202882500513177e-09 0.0000000000000000e+00  2.8118595477071014e-09 1.3481636861371355e-10 0.0000000000000000e+00  2.6871591999603187e-09 1.2934984773880633e-09 0.0000000000000000e+00  2.2896566000232139e-09 2.5640954839213849e-09 0.0000000000000000e+00  1.6312942565809610e-09 4.0547881437946350e-09 0.0000000000000000e+00  7.4496363054308835e-10 5.8689574908487330e-09 0.0000000000000000e+00  -2.9325563551880331e-10 8.0850264932485364e-09 0.0000000000000000e+00  -1.3347896084690095e-09 1.0706309100615172e-08 0.0000000000000000e+00  -2.1467326465277168e-09 1.3567979242216586e-08 0.0000000000000000e+00  -2.5104389408287300e-09 1.6226549655523095e-08 0.0000000000000000e+00  -2.7051373293547329e-09 1.7992885803370186e-08 0.0000000000000000e+00  -5.3059626333601943e-09 1.8280205337102541e-08 0.0000000000000000e+00  -3.6856144254529925e-09 -1.7090677682846860e-08 0.0000000000000000e+00  -2.1920683779053558e-09 -1.7510062219550830e-08 0.0000000000000000e+00  -2.6957227805906535e-09 -1.6054448685837955e-08 0.0000000000000000e+00  -3.2714026632876438e-09 -1.3759656454613766e-08 0.0000000000000000e+00  -3.4210202561329730e-09 -1.1146339044018696e-08 0.0000000000000000e+00  -3.1849822213524323e-09 -8.6143257951862967e-09 0.0000000000000000e+00  -2.7403505710474421e-09 -6.3562878469265160e-09 0.0000000000000000e+00  -2.2533537393215655e-09 -4.4122776392186851e-09 0.0000000000000000e+00  -1.8388012897600238e-09 -2.7392761153932857e-09 0.0000000000000000e+00  -1.5635624376482685e-09 -1.2572041926405905e-09 0.0000000000000000e+00  -1.4605705726624836e-09 1.2740734331331518e-10 0.0000000000000000e+00  -1.5399466423639012e-09 1.5108923252236676e-09 0.0000000000000000e+00  -1.7936390865076781e-09 2.9872805229093078e-09 0.0000000000000000e+00  -2.1933237026608684e-09 4.6426593888935464e-09 0.0000000000000000e+00  -2.6822467734553330e-09 6.5436778576771779e-09 0.0000000000000000e+00  -3.1634578291636801e-09 8.7142805385395801e-09 0.0000000000000000e+00  -3.4928239075642746e-09 1.1096031624964735e-08 0.0000000000000000e+00  -3.5007858363596930e-09 1.3497233972136823e-08 0.0000000000000000e+00  -3.1048189950585253e-09 1.5565278121459667e-08 0.0000000000000000e+00  -2.6893799752496390e-09 1.6877849189755413e-08 0.0000000000000000e+00  -4.4312668948017464e-09 1.7381695799902732e-08 0.0000000000000000e+00  -3.2157157864399824e-09 -1.5429059868654738e-08 0.0000000000000000e+00  -2.3003065986493713e-09 -1.5964325140284281e-08 0.0000000000000000e+00  -3.1666020028230330e-09 -1.4892368444395788e-08 0.0000000000000000e+00  -4.1791275547717128e-09 -1.3120037343380681e-08 0.0000000000000000e+00  -4.8624138711676333e-09 -1.0977229524411519e-08 0.0000000000000000e+00  -5.1794987488067992e-09 -8.7582373492725874e-09 0.0000000000000000e+00  -5.2295796183039654e-09 -6.6485511341957852e-09 0.0000000000000000e+00  -5.1348198023847127e-09 -4.7257457487805104e-09 0.0000000000000000e+00  -4.9964319976772695e-09 -2.9911075144320154e-09 0.0000000000000000e+00  -4.8834819191398629e-09 -1.4011399200190206e-09 0.0000000000000000e+00  -4.8348695093564770e-09 1.1008083368692032e-10 0.0000000000000000e+00  -4.8639081479241425e-09 1.6166650572555132e-09 0.0000000000000000e+00  -4.9608716072634243e-09 3.1908392855593694e-09 0.0000000000000000e+00  -5.0922701749361721e-09 4.8929276403632678e-09 0.0000000000000000e+00  -5.1977592213926350e-09 6.7576948833121617e-09 0.0000000000000000e+00  -5.1880647520012508e-09 8.7744594237475800e-09 0.0000000000000000e+00  -4.9517052462151944e-09 1.0861810414170764e-08 0.0000000000000000e+00  -4.3868406043844745e-09 1.2846210711903293e-08 0.0000000000000000e+00  -3.4971799664570086e-09 1.4468916197748242e-08 0.0000000000000000e+00  -2.6879783560587981e-09 1.5474144326936205e-08 0.0000000000000000e+00  -3.8197598312997864e-09 1.6098150520508788e-08 0.0000000000000000e+00  -2.8754977321989152e-09 -1.3624038145056044e-08 0.0000000000000000e+00  -2.3887067395560038e-09 -1.4245003371653681e-08 0.0000000000000000e+00  -3.5112038755755879e-09 -1.3439575509712183e-08 0.0000000000000000e+00  -4.8192275593110632e-09 -1.2056421710546124e-08 0.0000000000000000e+00  -5.8748018182749486e-09 -1.0313269989930439e-08 0.0000000000000000e+00  -6.6020659806133213e-09 -8.4193632965999345e-09 0.0000000000000000e+00  -7.0448753070630474e-09 -6.5288254319579533e-09 0.0000000000000000e+00  -7.2821469468741258e-09 -4.7264363656040440e-09 0.0000000000000000e+00  -7.3903992569122994e-09 -3.0375757876628850e-09 0.0000000000000000e+00  -7.4281544275168471e-09 -1.4462474638744609e-09 0.0000000000000000e+00  -7.4313129489934314e-09 8.7800090403854814e-11 0.0000000000000000e+00  -7.4129807223646431e-09 1.6152010475983221e-09 0.0000000000000000e+00  -7.3641689167786282e-09 3.1853942602657593e-09 0.0000000000000000e+00  -7.2541338681070163e-09 4.8353387790363039e-09 0.0000000000000000e+00  -7.0310788236352282e-09 6.5767525096823853e-09 0.0000000000000000e+00  -6.6259248310213485e-09 8.3814695188497205e-09 0.0000000000000000e+00  -5.9643734023781720e-09 1.0167522988626176e-08 0.0000000000000000e+00  -4.9971256212048084e-09 1.1793598885820244e-08 0.0000000000000000e+00  -3.7756017472903050e-09 1.3076238318207702e-08 0.0000000000000000e+00  -2.6933848621858916e-09 1.3862628130728830e-08 0.0000000000000000e+00  -3.3703136158837777e-09 1.4562894346516499e-08 0.0000000000000000e+00  -2.6234851875720366e-09 -1.1711811367792340e-08 0.0000000000000000e+00  -2.4596506668494802e-09 -1.2397106659646887e-08 0.0000000000000000e+00  -3.7688689768259240e-09 -1.1787852216719555e-08 0.0000000000000000e+00  -5.2816403949089276e-09 -1.0705080990475806e-08 0.0000000000000000e+00  -6.5966725524095053e-09 -9.2990396030035032e-09 0.0000000000000000e+00  -7.6202580164661312e-09 -7.7171304861628474e-09 0.0000000000000000e+00  -8.3598720493836543e-09 -6.0792490214607371e-09 0.0000000000000000e+00  -8.8594324012151703e-09 -4.4627126495672632e-09 0.0000000000000000e+00  -9.1700024236855156e-09 -2.9024855468977334e-09 0.0000000000000000e+00  -9.3348627401802401e-09 -1.4001442775077273e-09 0.0000000000000000e+00  -9.3824649878873977e-09 6.4449510119144713e-11 0.0000000000000000e+00  -9.3237606405082781e-09 1.5216397749987279e-09 0.0000000000000000e+00  -9.1517497087337314e-09 3.0012171612914509e-09 0.0000000000000000e+00  -8.8423958908347060e-09 4.5219780145656343e-09 0.0000000000000000e+00  -8.3573354606247679e-09 6.0812328809239782e-09 0.0000000000000000e+00  -7.6500162337777822e-09 7.6449145481243597e-09 0.0000000000000000e+00  -6.6781996664752402e-09 9.1408480032649631e-09 0.0000000000000000e+00  -5.4289362355543044e-09 1.0460198644171772e-08 0.0000000000000000e+00  -3.9784273867498759e-09 1.1475197084184088e-08 0.0000000000000000e+00  -2.6994092069090642e-09 1.2097745430099667e-08 0.0000000000000000e+00  -3.0288854267031426e-09 1.2850277981312407e-08 0.0000000000000000e+00  -2.4366102749150146e-09 -9.7198511272448288e-09 0.0000000000000000e+00  -2.5156378289230967e-09 -1.0453725425045557e-08 0.0000000000000000e+00  -3.9619661467270756e-09 -9.9969044828175655e-09 0.0000000000000000e+00  -5.6179031400608748e-09 -9.1558588110635811e-09 0.0000000000000000e+00  -7.1130994562794448e-09 -8.0390614392683347e-09 0.0000000000000000e+00  -8.3465889328114473e-09 -6.7501513140741360e-09 0.0000000000000000e+00  -9.3027823283695776e-09 -5.3790186203496273e-09 0.0000000000000000e+00  -9.9996977041906126e-09 -3.9900636449455237e-09 0.0000000000000000e+00  -1.0466632744109220e-08 -2.6190554095065085e-09 0.0000000000000000e+00  -1.0731718443424214e-08 -1.2769663950768459e-09 0.0000000000000000e+00  -1.0814814941705378e-08 4.2624919788714497e-11 0.0000000000000000e+00  -1.0724002698620497e-08 1.3548766222611673e-09 0.0000000000000000e+00  -1.0454610269087018e-08 2.6748635665880049e-09 0.0000000000000000e+00  -9.9903110293372793e-09 4.0090025158601614e-09 0.0000000000000000e+00  -9.3064695042731818e-09 5.3471115792858960e-09 0.0000000000000000e+00  -8.3765093455996997e-09 6.6560773549572297e-09 0.0000000000000000e+00  -7.1827843276199408e-09 7.8770850289303464e-09 0.0000000000000000e+00  -5.7362901665034873e-09 8.9293791102912834e-09 0.0000000000000000e+00  -4.1256223994115036e-09 9.7253852845458192e-09 0.0000000000000000e+00  -2.7026159372879796e-09 1.0218650503272464e-08 0.0000000000000000e+00  -2.7645058994842942e-09 1.1007867652042190e-08 0.0000000000000000e+00  -2.3012845445095076e-09 -7.6701354958485728e-09 0.0000000000000000e+00  -2.5593620609634766e-09 -8.4406389983034608e-09 0.0000000000000000e+00  -4.1052318672844655e-09 -8.1083980784939278e-09 0.0000000000000000e+00  -5.8605591673377888e-09 -7.4704096906425391e-09 0.0000000000000000e+00  -7.4793172500824398e-09 -6.6084164364897500e-09 0.0000000000000000e+00  -8.8582912639062279e-09 -5.5949628290807954e-09 0.0000000000000000e+00  -9.9675618239792128e-09 -4.4954311330182128e-09 0.0000000000000000e+00  -1.0806979354724693e-08 -3.3602209842235640e-09 0.0000000000000000e+00  -1.1389003655839487e-08 -2.2211207733657919e-09 0.0000000000000000e+00  -1.1728943539450828e-08 -1.0925763993468547e-09 0.0000000000000000e+00  -1.1838800239653214e-08 2.3851603113589762e-11 0.0000000000000000e+00  -1.1723842099640855e-08 1.1334222863352798e-09 0.0000000000000000e+00  -1.1381515636362196e-08 2.2416062814070128e-09 0.0000000000000000e+00  -1.0802496181824661e-08 3.3476332529109749e-09 0.0000000000000000e+00  -9.9739032230869329e-09 4.4388518812128076e-09 0.0000000000000000e+00  -8.8849226445694840e-09 5.4868267438903133e-09 0.0000000000000000e+00  -7.5355722103788665e-09 6.4465034751605730e-09 0.0000000000000000e+00  -5.9522530587067308e-09 7.2601260718811827e-09 0.0000000000000000e+00  -4.2295860416047240e-09 7.8692166571535502e-09 0.0000000000000000e+00  -2.7016519246056899e-09 8.2548641047305299e-09 0.0000000000000000e+00  -2.5586560712325930e-09 9.0693527027312478e-09 0.0000000000000000e+00  -2.2092302487046355e-09 -5.5806267797907747e-09 0.0000000000000000e+00  -2.5935004606984508e-09 -6.3784710364994104e-09 0.0000000000000000e+00  -4.2092943599309156e-09 -6.1528170109663099e-09 0.0000000000000000e+00  -6.0316800878626751e-09 -5.6925114023876054e-09 0.0000000000000000e+00  -7.7327436868372617e-09 -5.0614517168686709e-09 0.0000000000000000e+00  -9.2092165577465534e-09 -4.3095366822106262e-09 0.0000000000000000e+00  -1.0422474327056705e-08 -3.4824103514015846e-09 0.0000000000000000e+00  -1.1360189988927660e-08 -2.6170817900856613e-09 0.0000000000000000e+00  -1.2022724248982095e-08 -1.7389451337844771e-09 0.0000000000000000e+00  -1.2415606122684600e-08 -8.6193608404955930e-10 0.0000000000000000e+00  -1.2544537877343645e-08 8.9155789826939701e-12 0.0000000000000000e+00  -1.2412420973888265e-08 8.7351396285298396e-10 0.0000000000000000e+00  -1.2018347659876212e-08 1.7321383337114351e-09 0.0000000000000000e+00  -1.1358517716790272e-08 2.5809680831281057e-09 0.0000000000000000e+00  -1.0429026567201834e-08 3.4083245217159365e-09 0.0000000000000000e+00  -9.2305009648084924e-09 4.1923526747272173e-09 0.0000000000000000e+00  -7.7750077374034291e-09 4.9009877628185836e-09 0.0000000000000000e+00  -6.0986753843432193e-09 5.4951679595722039e-09 0.0000000000000000e+00  -4.2990141833311143e-09 5.9379662477262798e-09 0.0000000000000000e+00  -2.6964277938922560e-09 6.2293110253761109e-09 0.0000000000000000e+00  -2.4000272559518610e-09 7.0601072513701042e-09 0.0000000000000000e+00  -2.1553606730612596e-09 -3.4662358508895072e-09 0.0000000000000000e+00  -2.6204778498551629e-09 -4.2839896606039150e-09 0.0000000000000000e+00  -4.2820180408240828e-09 -4.1532840162974528e-09 0.0000000000000000e+00  -6.1466506382169427e-09 -3.8542733340198628e-09 0.0000000000000000e+00  -7.8990404109890793e-09 -3.4381911707776492e-09 0.0000000000000000e+00  -9.4366863528182181e-09 -2.9376836673315325e-09 0.0000000000000000e+00  -1.0715939595635255e-08 -2.38218347772189