<?xml version="1.0"?>
<VTKFile type="UnstructuredGrid"  version="0.1"  >
<UnstructuredGrid>
<Piece  NumberOfPoints="651" NumberOfCells="1200">
<Points>
<DataArray  type="Float64"  NumberOfComponents="3"  format="ascii">0 0 0  50000 0 0  100000 0 0  150000 0 0  200000 0 0  250000 0 0  300000 0 0  350000 0 0  400000 0 0  450000 0 0  500000 0 0  550000 0 0  600000 0 0  650000 0 0  700000 0 0  750000 0 0  800000 0 0  850000 0 0  900000 0 0  950000 0 0  1000000 0 0  0 50000 0  50000 50000 0  100000 50000 0  150000 50000 0  200000 50000 0  250000 50000 0  300000 50000 0  350000 50000 0  400000 50000 0  450000 50000 0  500000 50000 0  550000 50000 0  600000 50000 0  650000 50000 0  700000 50000 0  750000 50000 0  800000 50000 0  850000 50000 0  900000 50000 0  950000 50000 0  1000000 50000 0  0 100000 0  50000 100000 0  100000 100000 0  150000 100000 0  200000 100000 0  250000 100000 0  300000 100000 0  350000 100000 0  400000 100000 0  450000 100000 0  500000 100000 0  550000 100000 0  600000 100000 0  650000 100000 0  700000 100000 0  750000 100000 0  800000 100000 0  850000 100000 0  900000 100000 0  950000 100000 0  1000000 100000 0  0 150000 0  50000 150000 0  100000 150000 0  150000 150000 0  200000 150000 0  250000 150000 0  300000 150000 0  350000 150000 0  400000 150000 0  450000 150000 0  500000 150000 0  550000 150000 0  600000 150000 0  650000 150000 0  700000 150000 0  750000 150000 0  800000 150000 0  850000 150000 0  900000 150000 0  950000 150000 0  1000000 150000 0  0 200000 0  50000 200000 0  100000 200000 0  150000 200000 0  200000 200000 0  250000 200000 0  300000 200000 0  350000 200000 0  400000 200000 0  450000 200000 0  500000 200000 0  550000 200000 0  600000 200000 0  650000 200000 0  700000 200000 0  750000 200000 0  800000 200000 0  850000 200000 0  900000 200000 0  950000 200000 0  1000000 200000 0  0 250000 0  50000 250000 0  100000 250000 0  150000 250000 0  200000 250000 0  250000 250000 0  300000 250000 0  350000 250000 0  400000 250000 0  450000 250000 0  500000 250000 0  550000 250000 0  600000 250000 0  650000 250000 0  700000 250000 0  750000 250000 0  800000 250000 0  850000 250000 0  900000 250000 0  950000 250000 0  1000000 250000 0  0 300000 0  50000 300000 0  100000 300000 0  150000 300000 0  200000 300000 0  250000 300000 0  300000 300000 0  350000 300000 0  400000 300000 0  450000 300000 0  500000 300000 0  550000 300000 0  600000 300000 0  650000 300000 0  700000 300000 0  750000 300000 0  800000 300000 0  850000 300000 0  900000 300000 0  950000 300000 0  1000000 300000 0  0 350000 0  50000 350000 0  100000 350000 0  150000 350000 0  200000 350000 0  250000 350000 0  300000 350000 0  350000 350000 0  400000 350000 0  450000 350000 0  500000 350000 0  550000 350000 0  600000 350000 0  650000 350000 0  700000 350000 0  750000 350000 0  800000 350000 0  850000 350000 0  900000 350000 0  950000 350000 0  1000000 350000 0  0 400000 0  50000 400000 0  100000 400000 0  150000 400000 0  200000 400000 0  250000 400000 0  300000 400000 0  350000 400000 0  400000 400000 0  450000 400000 0  500000 400000 0  550000 400000 0  600000 400000 0  650000 400000 0  700000 400000 0  750000 400000 0  800000 400000 0  850000 400000 0  900000 400000 0  950000 400000 0  1000000 400000 0  0 450000 0  50000 450000 0  100000 450000 0  150000 450000 0  200000 450000 0  250000 450000 0  300000 450000 0  350000 450000 0  400000 450000 0  450000 450000 0  500000 450000 0  550000 450000 0  600000 450000 0  650000 450000 0  700000 450000 0  750000 450000 0  800000 450000 0  850000 450000 0  900000 450000 0  950000 450000 0  1000000 450000 0  0 500000 0  50000 500000 0  100000 500000 0  150000 500000 0  200000 500000 0  250000 500000 0  300000 500000 0  350000 500000 0  400000 500000 0  450000 500000 0  500000 500000 0  550000 500000 0  600000 500000 0  650000 500000 0  700000 500000 0  750000 500000 0  800000 500000 0  850000 500000 0  900000 500000 0  950000 500000 0  1000000 500000 0  0 550000 0  50000 550000 0  100000 550000 0  150000 550000 0  200000 550000 0  250000 550000 0  300000 550000 0  350000 550000 0  400000 550000 0  450000 550000 0  500000 550000 0  550000 550000 0  600000 550000 0  650000 550000 0  700000 550000 0  750000 550000 0  800000 550000 0  850000 550000 0  900000 550000 0  950000 550000 0  1000000 550000 0  0 600000 0  50000 600000 0  100000 600000 0  150000 600000 0  200000 600000 0  250000 600000 0  300000 600000 0  350000 600000 0  400000 600000 0  450000 600000 0  500000 600000 0  550000 600000 0  600000 600000 0  650000 600000 0  700000 600000 0  750000 600000 0  800000 600000 0  850000 600000 0  900000 600000 0  950000 600000 0  1000000 600000 0  0 650000 0  50000 650000 0  100000 650000 0  150000 650000 0  200000 650000 0  250000 650000 0  300000 650000 0  350000 650000 0  400000 650000 0  450000 650000 0  500000 650000 0  550000 650000 0  600000 650000 0  650000 650000 0  700000 650000 0  750000 650000 0  800000 650000 0  850000 650000 0  900000 650000 0  950000 650000 0  1000000 650000 0  0 700000 0  50000 700000 0  100000 700000 0  150000 700000 0  200000 700000 0  250000 700000 0  300000 700000 0  350000 700000 0  400000 700000 0  450000 700000 0  500000 700000 0  550000 700000 0  600000 700000 0  650000 700000 0  700000 700000 0  750000 700000 0  800000 700000 0  850000 700000 0  900000 700000 0  950000 700000 0  1000000 700000 0  0 750000 0  50000 750000 0  100000 750000 0  150000 750000 0  200000 750000 0  250000 750000 0  300000 750000 0  350000 750000 0  400000 750000 0  450000 750000 0  500000 750000 0  550000 750000 0  600000 750000 0  650000 750000 0  700000 750000 0  750000 750000 0  800000 750000 0  850000 750000 0  900000 750000 0  950000 750000 0  1000000 750000 0  0 800000 0  50000 800000 0  100000 800000 0  150000 800000 0  200000 800000 0  250000 800000 0  300000 800000 0  350000 800000 0  400000 800000 0  450000 800000 0  500000 800000 0  550000 800000 0  600000 800000 0  650000 800000 0  700000 800000 0  750000 800000 0  800000 800000 0  850000 800000 0  900000 800000 0  950000 800000 0  1000000 800000 0  0 850000 0  50000 850000 0  100000 850000 0  150000 850000 0  200000 850000 0  250000 850000 0  300000 850000 0  350000 850000 0  400000 850000 0  450000 850000 0  500000 850000 0  550000 850000 0  600000 850000 0  650000 850000 0  700000 850000 0  750000 850000 0  800000 850000 0  850000 850000 0  900000 850000 0  950000 850000 0  1000000 850000 0  0 900000 0  50000 900000 0  100000 900000 0  150000 900000 0  200000 900000 0  250000 900000 0  300000 900000 0  350000 900000 0  400000 900000 0  450000 900000 0  500000 900000 0  550000 900000 0  600000 900000 0  650000 900000 0  700000 900000 0  750000 900000 0  800000 900000 0  850000 900000 0  900000 900000 0  950000 900000 0  1000000 900000 0  0 950000 0  50000 950000 0  100000 950000 0  150000 950000 0  200000 950000 0  250000 950000 0  300000 950000 0  350000 950000 0  400000 950000 0  450000 950000 0  500000 950000 0  550000 950000 0  600000 950000 0  650000 950000 0  700000 950000 0  750000 950000 0  800000 950000 0  850000 950000 0  900000 950000 0  950000 950000 0  1000000 950000 0  0 1000000 0  50000 1000000 0  100000 1000000 0  150000 1000000 0  200000 1000000 0  250000 1000000 0  300000 1000000 0  350000 1000000 0  400000 1000000 0  450000 1000000 0  500000 1000000 0  550000 1000000 0  600000 1000000 0  650000 1000000 0  700000 1000000 0  750000 1000000 0  800000 1000000 0  850000 1000000 0  900000 1000000 0  950000 1000000 0  1000000 1000000 0  0 1050000 0  50000 1050000 0  100000 1050000 0  150000 1050000 0  200000 1050000 0  250000 1050000 0  300000 1050000 0  350000 1050000 0  400000 1050000 0  450000 1050000 0  500000 1050000 0  550000 1050000 0  600000 1050000 0  650000 1050000 0  700000 1050000 0  750000 1050000 0  800000 1050000 0  850000 1050000 0  900000 1050000 0  950000 1050000 0  1000000 1050000 0  0 1100000 0  50000 1100000 0  100000 1100000 0  150000 1100000 0  200000 1100000 0  250000 1100000 0  300000 1100000 0  350000 1100000 0  400000 1100000 0  450000 1100000 0  500000 1100000 0  550000 1100000 0  600000 1100000 0  650000 1100000 0  700000 1100000 0  750000 1100000 0  800000 1100000 0  850000 1100000 0  900000 1100000 0  950000 1100000 0  1000000 1100000 0  0 1150000 0  50000 1150000 0  100000 1150000 0  150000 1150000 0  200000 1150000 0  250000 1150000 0  300000 1150000 0  350000 1150000 0  400000 1150000 0  450000 1150000 0  500000 1150000 0  550000 1150000 0  600000 1150000 0  650000 1150000 0  700000 1150000 0  750000 1150000 0  800000 1150000 0  850000 1150000 0  900000 1150000 0  950000 1150000 0  1000000 1150000 0  0 1200000 0  50000 1200000 0  100000 1200000 0  150000 1200000 0  200000 1200000 0  250000 1200000 0  300000 1200000 0  350000 1200000 0  400000 1200000 0  450000 1200000 0  500000 1200000 0  550000 1200000 0  600000 1200000 0  650000 1200000 0  700000 1200000 0  750000 1200000 0  800000 1200000 0  850000 1200000 0  900000 1200000 0  950000 1200000 0  1000000 1200000 0  0 1250000 0  50000 1250000 0  100000 1250000 0  150000 1250000 0  200000 1250000 0  250000 1250000 0  300000 1250000 0  350000 1250000 0  400000 1250000 0  450000 1250000 0  500000 1250000 0  550000 1250000 0  600000 1250000 0  650000 1250000 0  700000 1250000 0  750000 1250000 0  800000 1250000 0  850000 1250000 0  900000 1250000 0  950000 1250000 0  1000000 1250000 0  0 1300000 0  50000 1300000 0  100000 1300000 0  150000 1300000 0  200000 1300000 0  250000 1300000 0  300000 1300000 0  350000 1300000 0  400000 1300000 0  450000 1300000 0  500000 1300000 0  550000 1300000 0  600000 1300000 0  650000 1300000 0  700000 1300000 0  750000 1300000 0  800000 1300000 0  850000 1300000 0  900000 1300000 0  950000 1300000 0  1000000 1300000 0  0 1350000 0  50000 1350000 0  100000 1350000 0  150000 1350000 0  200000 1350000 0  250000 1350000 0  300000 1350000 0  350000 1350000 0  400000 1350000 0  450000 1350000 0  500000 1350000 0  550000 1350000 0  600000 1350000 0  650000 1350000 0  700000 135
[...]
<PointData  Scalars="f_3001"> 
<DataArray  type="Float64"  Name="f_3001"  format="ascii">-8.0781508824001005e+00  -8.0770586988705730e+00  -8.0716646922425728e+00  -8.0619527180002635e+00  -8.0481750187339305e+00  -8.0306984835398971e+00  -8.0099876263528902e+00  -7.9865913539473787e+00  -7.9611282555208387e+00  -7.9342701262007616e+00  -7.9067241373782569e+00  -7.8792141368167821e+00  -7.8524615651673706e+00  -7.8271664807107788e+00  -7.8039892029171192e+00  -7.7835331562741450e+00  -7.7663297648172360e+00  -7.7528270906903503e+00  -7.7433849233387022e+00  -7.7382571947457981e+00  -7.7371500395751251e+00  -8.0791859813550158e+00  -8.0781185789431174e+00  -8.0726473272365968e+00  -8.0628712454474663e+00  -8.0490222745783768e+00  -8.0314604358921304e+00  -8.0106485602150155e+00  -7.9871364003748360e+00  -7.9615446792684317e+00  -7.9345480458078166e+00  -7.9068569522217231e+00  -7.8791987641404582e+00  -7.8522985233220366e+00  -7.8268598211166092e+00  -7.8035462567096072e+00  -7.7829639583177901e+00  -7.7656455827771085e+00  -7.7520357005107225e+00  -7.7424746920681198e+00  -7.7371655694933867e+00  -7.7360584397434993e+00  -8.0842501524728423e+00  -8.0832581143578697e+00  -8.0776615577454614e+00  -8.0675906495986940e+00  -8.0533233481035964e+00  -8.0352381036109453e+00  -8.0138117183187951e+00  -7.9896087391690234e+00  -7.9632666467948336e+00  -7.9354786226484180e+00  -7.9069748854799684e+00  -7.8785032001536095e+00  -7.8508090418929708e+00  -7.8246158834015036e+00  -7.8006060858698980e+00  -7.7794029067465518e+00  -7.7615541874704750e+00  -7.7475182909139040e+00  -7.7376522926862208e+00  -7.7321971519806354e+00  -7.7312058198214242e+00  -8.0932789890194208e+00  -8.0922987069963419e+00  -8.0864929164107835e+00  -8.0759436026168530e+00  -8.0609570748051240e+00  -8.0419467405012490e+00  -8.0194211927946206e+00  -7.9939767013024605e+00  -7.9662840827223871e+00  -7.9370717764511465e+00  -7.9071067758285674e+00  -7.8771744171718758e+00  -7.8480577146211452e+00  -7.8205168153857079e+00  -7.7952691464795523e+00  -7.7729709022763984e+00  -7.7542006801458454e+00  -7.7394461546385172e+00  -7.7290933241425845e+00  -7.7234064659102337e+00  -7.7224146488133956e+00  -8.1061301071664946e+00  -8.1051222185529692e+00  -8.0989864347901381e+00  -8.0877629733068943e+00  -8.0717700053096255e+00  -8.0514565364528998e+00  -8.0273741484422292e+00  -8.0001654831093720e+00  -7.9705505737177065e+00  -7.9393095771813282e+00  -7.9072630371235713e+00  -7.8752507543876815e+00  -7.8441100785898543e+00  -7.8146542977790334e+00  -7.7876517831389105e+00  -7.7638066101324377e+00  -7.7437414473184081e+00  -7.7279831546882818e+00  -7.7169486373378424e+00  -7.7109131235331603e+00  -7.7098659283647262e+00  -8.1227217257232294e+00  -8.1216567628167482e+00  -8.1150654280171768e+00  -8.1029601390827715e+00  -8.0856710324825549e+00  -8.0636837749373118e+00  -8.0376003781017804e+00  -8.0081217975365302e+00  -7.9760316125615054e+00  -7.9421772402103974e+00  -7.9074489141704039e+00  -7.8727572526792322e+00  -7.8390101989297323e+00  -7.8070900317208451e+00  -7.7778311190719513e+00  -7.7519991029464190e+00  -7.7302721186097099e+00  -7.7132238964909536e+00  -7.7013048426138697e+00  -7.6948005397662751e+00  -7.6936681904100626e+00  -8.1430282716019438e+00  -8.1418811868532988e+00  -8.1347098948292764e+00  -8.1215096760470935e+00  -8.1026291989912647e+00  -8.0785960381244042e+00  -8.0500703340842055e+00  -8.0178222203517677e+00  -7.9827120337922990e+00  -7.9456691008366382e+00  -7.9076687659655063e+00  -7.8697081892404919e+00  -7.8327815633013138e+00  -7.7978553795205556e+00  -7.7658443562052097e+00  -7.7375886213062648e+00  -7.7138325586493464e+00  -7.6952047767181240e+00  -7.6821945906130971e+00  -7.6751030505046707e+00  -7.6738631908686479e+00  -8.1670688340331541e+00  -8.1658164426427131e+00  -8.1579418965493424e+00  -8.1434302845679962e+00  -8.1226573031039653e+00  -8.0962005678266102e+00  -8.0647875576085788e+00  -8.0292686811562834e+00  -7.9905938801454557e+00  -7.9497884794337583e+00  -7.9079277533291830e+00  -7.8661105352413649e+00  -7.8254323625051176e+00  -7.7869586577673786e+00  -7.7516984447545578e+00  -7.7205790751431271e+00  -7.6944222448708715e+00  -7.6739205906659258e+00  -7.6596099298158613e+00  -7.6518137808833284e+00  -7.6504462489194411e+00  -8.1948943536252372e+00  -8.1935140764372925e+00  -8.1848126330510862e+00  -8.1687695086993131e+00  -8.1457963539393159e+00  -8.1165306474930343e+00  -8.0817779105287144e+00  -8.0424806985649546e+00  -7.9996915569528362e+00  -7.9545456542911648e+00  -7.9082325574989270e+00  -7.8619673685848213e+00  -7.8169615566381871e+00  -7.7743938152279828e+00  -7.7353812840757872e+00  -7.7009514865094504e+00  -7.6720151868981210e+00  -7.6493394200708131e+00  -7.6335155235548617e+00  -7.6248970030727206e+00  -7.6233822525571728e+00  -8.2265739068425230e+00  -8.2250430699630463e+00  -8.2153892623357194e+00  -8.1975897854096651e+00  -8.1721013793178443e+00  -8.1396323721174131e+00  -8.1010783270183016e+00  -8.0574867277147515e+00  -8.0100260956862570e+00  -7.9599551920588105e+00  -7.9085918206814769e+00  -7.8572813789293789e+00  -7.8073653106244851e+00  -7.7601495647872936e+00  -7.7168731830964497e+00  -7.6786772141805457e+00  -7.6465741044475868e+00  -7.6214168310514223e+00  -7.6038623554323062e+00  -7.5943019777177820e+00  -7.5926204890376203e+00  -8.2621795733004664e+00  -8.2604749613064392e+00  -8.2497403299747045e+00  -8.2299538761609465e+00  -8.2016270595028509e+00  -8.1655511705128436e+00  -8.1227250616311810e+00  -8.0743148580337785e+00  -8.0216188276396778e+00  -7.9660329240706034e+00  -7.9090165648880930e+00  -7.8520586906596961e+00  -7.7966440112326190e+00  -7.7442192201418463e+00  -7.6961589879946910e+00  -7.6537317118364570e+00  -7.6180650933617660e+00  -7.5901108366454464e+00  -7.5706027579339858e+00  -7.5599782792675390e+00  -7.5581102853847355e+00  -8.3017691981407165e+00  -8.2998667377702997e+00  -8.2879189814274650e+00  -8.2659083916291820e+00  -8.2344117804803130e+00  -8.1943169391811495e+00  -8.1467406604124957e+00  -8.0929823960877734e+00  -8.0344842321852976e+00  -7.9727925143441629e+00  -7.9095206957715174e+00  -7.8463132671077513e+00  -7.7848102926001665e+00  -7.7266118489876439e+00  -7.6732417068914511e+00  -7.6261098856798162e+00  -7.5864740110162963e+00  -7.5553987846745869e+00  -7.5337075730649659e+00  -7.5218932278450534e+00  -7.5198185731544411e+00  -8.3453662676800082e+00  -8.3432407816215797e+00  -8.3299431461799944e+00  -8.3054643516859379e+00  -8.2704588954111102e+00  -8.2259266154636208e+00  -8.1731186708897319e+00  -8.1134836010940781e+00  -8.0486214933338971e+00  -7.9802414174923211e+00  -7.9101216495263031e+00  -7.8400722075787570e+00  -7.7718986255966538e+00  -7.7073655257542910e+00  -7.6481586124372072e+00  -7.5958441701086530e+00  -7.5518257283173469e+00  -7.5172972030453860e+00  -7.4931862859804177e+00  -7.4800522067166302e+00  -7.4777502681165267e+00  -8.3929360205476033e+00  -8.3905610092133340e+00  -8.3757717791347019e+00  -8.3485737145855055e+00  -8.3097139972517855e+00  -8.2603229746435947e+00  -8.2018049900847654e+00  -8.1357746903500416e+00  -8.0640041643242508e+00  -7.9883759422366269e+00  -7.9108412262682073e+00  -7.8333823027766822e+00  -7.7579771358625242e+00  -7.6865636045236077e+00  -7.6210009304078028e+00  -7.5630265220211719e+00  -7.5142074292061771e+00  -7.4758856686761916e+00  -7.4491110631266757e+00  -7.4345227436985715e+00  -7.4319723651593135e+00  -8.4443568075622313e+00  -8.4417042138777632e+00  -8.4252760936190700e+00  -8.3951006703496507e+00  -8.3520368750837246e+00  -8.2973682977984584e+00  -8.2326746021972319e+00  -8.1597550915028378e+00  -8.0805672299363369e+00  -7.9971750746825832e+00  -7.9117066501364404e+00  -7.8263182714107096e+00  -7.7431624270869879e+00  -7.6643550843998423e+00  -7.5919383917887293e+00  -7.5278356991537105e+00  -7.4737972886461144e+00  -7.4313359079060213e+00  -7.4016457643293734e+00  -7.3854633485597363e+00  -7.3826427352083783e+00  -8.4993855836800751e+00  -8.4964254770815621e+00  -8.4782045268336219e+00  -8.4447862630635324e+00  -8.3971665840713925e+00  -8.3368113262823034e+00  -8.2655022585621616e+00  -8.1852437647562386e+00  -8.0981907531677741e+00  -8.0065926634619231e+00  -7.9127518951732103e+00  -7.8189931534760682e+00  -7.7276382977060756e+00  -7.6409803113619770e+00  -7.5612501487421140e+00  -7.4905714407790738e+00  -7.4309001148964562e+00  -7.3839475668183390e+00  -7.3510811870287993e+00  -7.3331582429898408e+00  -7.3300447398165032e+00  -8.5576162500206223e+00  -8.5543163278465002e+00  -8.5341399200957628e+00  -8.4972045784970991e+00  -8.4446777105821358e+00  -8.3782456098818869e+00  -8.2999254227318389e+00  -8.2119492747463294e+00  -8.1166792177273361e+00  -8.0165475358146967e+00  -7.9140193096714135e+00  -7.8115713612946900e+00  -7.7116793204221779e+00  -7.6168034253500112e+00  -7.5293638153814113e+00  -7.4516975070890004e+00  -7.3859919083399843e+00  -7.3341924244392693e+00  -7.2978780629110460e+00  -7.2780593143746160e+00  -7.2746289575455334e+00  -8.6184293333731148e+00  -8.6147540703998224e+00  -8.5924470239126922e+00  -8.5517082648614764e+00  -8.4939254461061307e+00  -8.4210569946622602e+00  -8.3353976027584622e+00  -8.2394322334280190e+00  -8.1357356950830670e+00  -8.0269111329593326e+00  -7.9155615508677535e+00  -7.8042848384839179e+00  -7.6956802310205106e+00  -7.5923530453194079e+00  -7.4969046432921047e+00  -7.4118959467412715e+00  -7.3397757948936553e+00  -7.2827693094442774e+00  -7.2427197129092704e+00  -7.2208369088888835e+00  -7.2170635784373518e+00  -8.6809311335501658e+00  -8.6768402921423213e+00  -8.6522078553805031e+00  -8.6073604589634058e+00  -8.5439764692380784e+00  -8.4643576411615786e+00  -8.3711301489936965e+00  -8.2670589167981365e+00  -8.1549302060095208e+00  -8.0374923928747215e+00  -7.9174437917890188e+00  -7.7974525555429572e+00  -7.6801917993701494e+00  -7.5683725340903791e+00  -7.4647569679465189e+00  -7.3721354183574341e+00  -7.2932524873990303e+00  -7.2306727206633612e+00  -7.1865768763214763e+00  -7.1624415325820028e+00  -7.1582954420061000e+00  -8.7438798631866295e+00  -8.7393258630678741e+00  -8.7121414525364731e+00  -8.6628491086158643e+00  -8.5935218455331732e+00  -8.5069037519798236e+00  -8.4060209693007604e+00  -8.2939455734309089e+00  -8.1736623504445660e+00  -8.0480199905318468e+00  -7.9197460586926089e+00  -7.7915030136227781e+00  -7.6659630638039697e+00  -7.5458805013480035e+00  -7.4341398305940682e+00  -7.3337567994624511e+00  -7.2478093880323549e+00  -7.1792793277736831e+00  -7.1307882602752191e+00  -7.1041793078724016e+00  -7.0996244160858897e+00  -8.8055952092710328e+00  -8.8005184491580160e+00  -8.7705028081871212e+00  -8.7163779345287757e+00  -8.6407671979332381e+00  -8.5469944417991410e+00  -8.4385699153583129e+00  -8.3188947172545262e+00  -8.1911198472543223e+00  -8.0581228675235987e+00  -7.9225653642671396e+00  -7.7869982673716205e+00  -7.6539880434240155e+00  -7.5262404406211250e+00  -7.4066976128373190e+00  -7.2985794366266399e+00  -7.2053337569786722e+00  -7.1304584791653713e+00  -7.0771621954758341e+00  -7.0478054473715304e+00  -7.0427951261717912e+00  -8.8638456879236056e+00  -8.8581660748604101e+00  -8.8249524596753002e+00  -8.7655253938376863e+00  -8.6832944432988821e+00  -8.5823506340533111e+00  -8.4667837917440476e+00  -8.3403284139075549e+00  -8.2062376725560764e+00  -8.0673115330066061e+00  -7.9260169704615988e+00  -7.7846558229437468e+00  -7.6455515795814151e+00  -7.5112345985404385e+00  -7.3846036701811499e+00  -7.2690306328413437e+00  -7.1683570732329294e+00  -7.0867161778342131e+00  -7.0281082150819518e+00  -6.9956426818619954e+00  -6.9901125222734066e+00  -8.9157042067367147e+00  -8.9093052572772553e+00  -8.8723817970048611e+00  -8.8070583146968335e+00  -8.7178891416389970e+00  -8.6099771447897488e+00  -8.4880807917264018e+00  -8.3562305876893141e+00  -8.2176678272061867e+00  -8.0749652431529917e+00  -7.9302336019887587e+00  -7.7853611492714210e+00  -7.6422627877650875e+00  -7.5031297686789440e+00  -7.3706684772838500e+00  -7.2482979074342762e+00  -7.1402395320432293e+00  -7.0513877588337337e+00  -6.9868140158393768e+00  -6.9507368178960993e+00  -6.9445925985198240e+00  -8.9573545031946722e+00  -8.9500516130154697e+00  -8.9086664172837207e+00  -8.8366797757770748e+00  -8.7403303017855869e+00  -8.6260217399469212e+00  -8.4992176605054119e+00  -8.3641224810898631e+00  -8.2237781805400072e+00  -8.0803341154378785e+00  -7.9353607497594343e+00  -7.7901581425516975e+00  -7.6460546320014968e+00  -7.5047093476657221e+00  -7.3684302243226778e+00  -7.2404947920194456e+00  -7.1254041387142548e+00  -7.0289043758817478e+00  -6.9574965997712859e+00  -6.9170722831965517e+00  -6.9101693406063607e+00  -8.9838156914597835e+00  -8.9752867863259791e+00  -8.9282943983220093e+00  -8.8486825350904557e+00  -8.7451522124849301e+00  -8.6256691874492830e+00  -8.4962875179724282e+00  -8.3611141551406227e+00  -8.2227102869969144e+00  -8.0825702185554871e+00  -7.9415455254244058e+00  -7.8001981743024800e+00  -7.6591140582186634e+00  -7.5192239485519679e+00  -7.3821789148112709e+00  -7.2508083156480163e+00  -7.1296237496736099e+00  -7.0251742887728321e+00  -6.9457842368455323e+00  -6.8998935709745606e+00  -6.8919997358632212e+00  -8.9885205557193419e+00  -8.9781364502757768e+00  -8.9237671415574944e+00  -8.8354800202763037e+00  -8.7254290422562217e+00  -8.6031596984891294e+00  -8.4748769353172761e+00  -8.3440994057932318e+00  -8.2125378316808604e+00  -8.0808059413231081e+00  -7.9489162885066555e+00  -7.8166228230742956e+00  -7.6836917237775060e+00  -7.5501813142214864e+00  -7.4168154368810004e+00  -7.2855410317673934e+00  -7.1603333169218546e+00  -7.0481402296206443e+00  -6.9593462871117850e+00  -6.9062325749060989e+00  -6.8969562844506003e+00  -8.9626126463197924e+00  -8.9489768407859351e+00  -8.8845889934536277e+00  -8.7870404432979115e+00  -8.6727471179845104e+00  -8.5521195504078360e+00  -8.4305268325505018e+00  -8.3101825810829908e+00  -8.1915705726220907e+00  -8.0742966813749550e+00  -7.9575509287023545e+00  -7.8403569833845115e+00  -7.7217337721917465e+00  -7.6008637420222911e+00  -7.4773679821068777e+00  -7.3518344530664184e+00  -7.2268235895774158e+00  -7.1085689880560992e+00  -7.0090222257933146e+00  -6.9458842343841525e+00  -6.9345186192487862e+00  -8.8936088252914463e+00  -8.8732749195222578e+00  -8.7956087764798951e+00  -8.6905067348107998e+00  -8.5778039849777272e+00  -8.4665467421795420e+00  -8.3596874743856127e+00  -8.2574149167362840e+00  -8.1588234882286059e+00  -8.0626280878569716e+00  -7.9674319761302161e+00  -7.8718061225558644e+00  -7.7743012384040640e+00  -7.6734602702401498e+00  -7.5679027734968605e+00  -7.4566201075159020e+00  -7.3398038239611187e+00  -7.2209148391184668e+00  -7.1109642303254201e+00  -7.0335106870764292e+00  -7.0186411832464746e+00  -8.7620573028612387e+00  -8.7265098204678306e+00  -8.6349216681782206e+00  -8.5311567827227748e+00  -8.4325959556867964e+00  -8.3429287212142906e+00  -8.2612970470703644e+00  -8.1858097810540347e+00  -8.1145811325545889e+00  -8.0459362743570981e+00  -7.9783761567603078e+00  -7.9104833193510942e+00  -7.8408152442364187e+00  -7.7677926670453736e+00  -7.6895885676344609e+00  -7.6040612321384833e+00  -7.5089264243274396e+00  -7.4028992397323501e+00  -7.2902837570459784e+00  -7.1941778306588775e+00  -7.1724314062505155e+00  -8.5287400070196355e+00  -8.4627980240142104e+00  -8.3745835225444001e+00  -8.2980342699609846e+00  -8.2356564360576971e+00  -8.1836867992600322e+00  -8.1386915437877665e+00  -8.0982688163514869e+00  -8.0607592557273655e+00  -8.0249452750534633e+00  -7.9898462812219266e+00  -7.9545788492028544e+00  -7.9182445726233697e+00  -7.8798139211984992e+00  -7.8379712491209936e+00  -7.7908693018681072e+00  -7.7357162641238517e+00  -7.6681828216417056e+00  -7.5825001411369293e+00  -7.4800761090700831e+00  -7.4436256921717021e+00  -8.0000000000000000e+00  -8.0000000000000000e+00  -8.0000000000000000e+00  -8.0000000000000000e+00  -8.0000000000000000e+00  -8.0000000000000000e+00  -8.0000000000000000e+00  -8.0000000000000000e+00  -8.0000000000000000e+00  -8.0000000000000000e+00  -8.0000000000000000e+00  -8.0000000000000000e+00  -8.0000000000000000e+00  -8.0000000000000000e+00  -8.0000000000000000e+00  -8.0000000000000000e+00  -8.0000000000000000e+00  -8.0000000000000000e+00  -8.0000000000000000e+00  -8.0000000000000000e+00  -8.0000000000000000e+00  </DataArray> 
</PointData> 
</Piece>
</UnstructuredGrid>
</VTKFile>