<?xml version="1.0"?>
<VTKFile type="UnstructuredGrid"  version="0.1"  >
<UnstructuredGrid>
<Piece  NumberOfPoints="651" NumberOfCells="1200">
<Points>
<DataArray  type="Float64"  NumberOfComponents="3"  format="ascii">0 0 0  50000 0 0  100000 0 0  150000 0 0  200000 0 0  250000 0 0  300000 0 0  350000 0 0  400000 0 0  450000 0 0  500000 0 0  550000 0 0  600000 0 0  650000 0 0  700000 0 0  750000 0 0  800000 0 0  850000 0 0  900000 0 0  950000 0 0  1000000 0 0  0 50000 0  50000 50000 0  100000 50000 0  150000 50000 0  200000 50000 0  250000 50000 0  300000 50000 0  350000 50000 0  400000 50000 0  450000 50000 0  500000 50000 0  550000 50000 0  600000 50000 0  650000 50000 0  700000 50000 0  750000 50000 0  800000 50000 0  850000 50000 0  900000 50000 0  950000 50000 0  1000000 50000 0  0 100000 0  50000 100000 0  100000 100000 0  150000 100000 0  200000 100000 0  250000 100000 0  300000 100000 0  350000 100000 0  400000 100000 0  450000 100000 0  500000 100000 0  550000 100000 0  600000 100000 0  650000 100000 0  700000 100000 0  750000 100000 0  800000 100000 0  850000 100000 0  900000 100000 0  950000 100000 0  1000000 100000 0  0 150000 0  50000 150000 0  100000 150000 0  150000 150000 0  200000 150000 0  250000 150000 0  300000 150000 0  350000 150000 0  400000 150000 0  450000 150000 0  500000 150000 0  550000 150000 0  600000 150000 0  650000 150000 0  700000 150000 0  750000 150000 0  800000 150000 0  850000 150000 0  900000 150000 0  950000 150000 0  1000000 150000 0  0 200000 0  50000 200000 0  100000 200000 0  150000 200000 0  200000 200000 0  250000 200000 0  300000 200000 0  350000 200000 0  400000 200000 0  450000 200000 0  500000 200000 0  550000 200000 0  600000 200000 0  650000 200000 0  700000 200000 0  750000 200000 0  800000 200000 0  850000 200000 0  900000 200000 0  950000 200000 0  1000000 200000 0  0 250000 0  50000 250000 0  100000 250000 0  150000 250000 0  200000 250000 0  250000 250000 0  300000 250000 0  350000 250000 0  400000 250000 0  450000 250000 0  500000 250000 0  550000 250000 0  600000 250000 0  650000 250000 0  700000 250000 0  750000 250000 0  800000 250000 0  850000 250000 0  900000 250000 0  950000 250000 0  1000000 250000 0  0 300000 0  50000 300000 0  100000 300000 0  150000 300000 0  200000 300000 0  250000 300000 0  300000 300000 0  350000 300000 0  400000 300000 0  450000 300000 0  500000 300000 0  550000 300000 0  600000 300000 0  650000 300000 0  700000 300000 0  750000 300000 0  800000 300000 0  850000 300000 0  900000 300000 0  950000 300000 0  1000000 300000 0  0 350000 0  50000 350000 0  100000 350000 0  150000 350000 0  200000 350000 0  250000 350000 0  300000 350000 0  350000 350000 0  400000 350000 0  450000 350000 0  500000 350000 0  550000 350000 0  600000 350000 0  650000 350000 0  700000 350000 0  750000 350000 0  800000 350000 0  850000 350000 0  900000 350000 0  950000 350000 0  1000000 350000 0  0 400000 0  50000 400000 0  100000 400000 0  150000 400000 0  200000 400000 0  250000 400000 0  300000 400000 0  350000 400000 0  400000 400000 0  450000 400000 0  500000 400000 0  550000 400000 0  600000 400000 0  650000 400000 0  700000 400000 0  750000 400000 0  800000 400000 0  850000 400000 0  900000 400000 0  950000 400000 0  1000000 400000 0  0 450000 0  50000 450000 0  100000 450000 0  150000 450000 0  200000 450000 0  250000 450000 0  300000 450000 0  350000 450000 0  400000 450000 0  450000 450000 0  500000 450000 0  550000 450000 0  600000 450000 0  650000 450000 0  700000 450000 0  750000 450000 0  800000 450000 0  850000 450000 0  900000 450000 0  950000 450000 0  1000000 450000 0  0 500000 0  50000 500000 0  100000 500000 0  150000 500000 0  200000 500000 0  250000 500000 0  300000 500000 0  350000 500000 0  400000 500000 0  450000 500000 0  500000 500000 0  550000 500000 0  600000 500000 0  650000 500000 0  700000 500000 0  750000 500000 0  800000 500000 0  850000 500000 0  900000 500000 0  950000 500000 0  1000000 500000 0  0 550000 0  50000 550000 0  100000 550000 0  150000 550000 0  200000 550000 0  250000 550000 0  300000 550000 0  350000 550000 0  400000 550000 0  450000 550000 0  500000 550000 0  550000 550000 0  600000 550000 0  650000 550000 0  700000 550000 0  750000 550000 0  800000 550000 0  850000 550000 0  900000 550000 0  950000 550000 0  1000000 550000 0  0 600000 0  50000 600000 0  100000 600000 0  150000 600000 0  200000 600000 0  250000 600000 0  300000 600000 0  350000 600000 0  400000 600000 0  450000 600000 0  500000 600000 0  550000 600000 0  600000 600000 0  650000 600000 0  700000 600000 0  750000 600000 0  800000 600000 0  850000 600000 0  900000 600000 0  950000 600000 0  1000000 600000 0  0 650000 0  50000 650000 0  100000 650000 0  150000 650000 0  200000 650000 0  250000 650000 0  300000 650000 0  350000 650000 0  400000 650000 0  450000 650000 0  500000 650000 0  550000 650000 0  600000 650000 0  650000 650000 0  700000 650000 0  750000 650000 0  800000 650000 0  850000 650000 0  900000 650000 0  950000 650000 0  1000000 650000 0  0 700000 0  50000 700000 0  100000 700000 0  150000 700000 0  200000 700000 0  250000 700000 0  300000 700000 0  350000 700000 0  400000 700000 0  450000 700000 0  500000 700000 0  550000 700000 0  600000 700000 0  650000 700000 0  700000 700000 0  750000 700000 0  800000 700000 0  850000 700000 0  900000 700000 0  950000 700000 0  1000000 700000 0  0 750000 0  50000 750000 0  100000 750000 0  150000 750000 0  200000 750000 0  250000 750000 0  300000 750000 0  350000 750000 0  400000 750000 0  450000 750000 0  500000 750000 0  550000 750000 0  600000 750000 0  650000 750000 0  700000 750000 0  750000 750000 0  800000 750000 0  850000 750000 0  900000 750000 0  950000 750000 0  1000000 750000 0  0 800000 0  50000 800000 0  100000 800000 0  150000 800000 0  200000 800000 0  250000 800000 0  300000 800000 0  350000 800000 0  400000 800000 0  450000 800000 0  500000 800000 0  550000 800000 0  600000 800000 0  650000 800000 0  700000 800000 0  750000 800000 0  800000 800000 0  850000 800000 0  900000 800000 0  950000 800000 0  1000000 800000 0  0 850000 0  50000 850000 0  100000 850000 0  150000 850000 0  200000 850000 0  250000 850000 0  300000 850000 0  350000 850000 0  400000 850000 0  450000 850000 0  500000 850000 0  550000 850000 0  600000 850000 0  650000 850000 0  700000 850000 0  750000 850000 0  800000 850000 0  850000 850000 0  900000 850000 0  950000 850000 0  1000000 850000 0  0 900000 0  50000 900000 0  100000 900000 0  150000 900000 0  200000 900000 0  250000 900000 0  300000 900000 0  350000 900000 0  400000 900000 0  450000 900000 0  500000 900000 0  550000 900000 0  600000 900000 0  650000 900000 0  700000 900000 0  750000 900000 0  800000 900000 0  850000 900000 0  900000 900000 0  950000 900000 0  1000000 900000 0  0 950000 0  50000 950000 0  100000 950000 0  150000 950000 0  200000 950000 0  250000 950000 0  300000 950000 0  350000 950000 0  400000 950000 0  450000 950000 0  500000 950000 0  550000 950000 0  600000 950000 0  650000 950000 0  700000 950000 0  750000 950000 0  800000 950000 0  850000 950000 0  900000 950000 0  950000 950000 0  1000000 950000 0  0 1000000 0  50000 1000000 0  100000 1000000 0  150000 1000000 0  200000 1000000 0  250000 1000000 0  300000 1000000 0  350000 1000000 0  400000 1000000 0  450000 1000000 0  500000 1000000 0  550000 1000000 0  600000 1000000 0  650000 1000000 0  700000 1000000 0  750000 1000000 0  800000 1000000 0  850000 1000000 0  900000 1000000 0  950000 1000000 0  1000000 1000000 0  0 1050000 0  50000 1050000 0  100000 1050000 0  150000 1050000 0  200000 1050000 0  250000 1050000 0  300000 1050000 0  350000 1050000 0  400000 1050000 0  450000 1050000 0  500000 1050000 0  550000 1050000 0  600000 1050000 0  650000 1050000 0  700000 1050000 0  750000 1050000 0  800000 1050000 0  850000 1050000 0  900000 1050000 0  950000 1050000 0  1000000 1050000 0  0 1100000 0  50000 1100000 0  100000 1100000 0  150000 1100000 0  200000 1100000 0  250000 1100000 0  300000 1100000 0  350000 1100000 0  400000 1100000 0  450000 1100000 0  500000 1100000 0  550000 1100000 0  600000 1100000 0  650000 1100000 0  700000 1100000 0  750000 1100000 0  800000 1100000 0  850000 1100000 0  900000 1100000 0  950000 1100000 0  1000000 1100000 0  0 1150000 0  50000 1150000 0  100000 1150000 0  150000 1150000 0  200000 1150000 0  250000 1150000 0  300000 1150000 0  350000 1150000 0  400000 1150000 0  450000 1150000 0  500000 1150000 0  550000 1150000 0  600000 1150000 0  650000 1150000 0  700000 1150000 0  750000 1150000 0  800000 1150000 0  850000 1150000 0  900000 1150000 0  950000 1150000 0  1000000 1150000 0  0 1200000 0  50000 1200000 0  100000 1200000 0  150000 1200000 0  200000 1200000 0  250000 1200000 0  300000 1200000 0  350000 1200000 0  400000 1200000 0  450000 1200000 0  500000 1200000 0  550000 1200000 0  600000 1200000 0  650000 1200000 0  700000 1200000 0  750000 1200000 0  800000 1200000 0  850000 1200000 0  900000 1200000 0  950000 1200000 0  1000000 1200000 0  0 1250000 0  50000 1250000 0  100000 1250000 0  150000 1250000 0  200000 1250000 0  250000 1250000 0  300000 1250000 0  350000 1250000 0  400000 1250000 0  450000 1250000 0  500000 1250000 0  550000 1250000 0  600000 1250000 0  650000 1250000 0  700000 1250000 0  750000 1250000 0  800000 1250000 0  850000 1250000 0  900000 1250000 0  950000 1250000 0  1000000 1250000 0  0 1300000 0  50000 1300000 0  100000 1300000 0  150000 1300000 0  200000 1300000 0  250000 1300000 0  300000 1300000 0  350000 1300000 0  400000 1300000 0  450000 1300000 0  500000 1300000 0  550000 1300000 0  600000 1300000 0  650000 1300000 0  700000 1300000 0  750000 1300000 0  800000 1300000 0  850000 1300000 0  900000 1300000 0  950000 1300000 0  1000000 1300000 0  0 1350000 0  50000 1350000 0  100000 1350000 0  150000 1350000 0  200000 1350000 0  250000 1350000 0  300000 1350000 0  350000 1350000 0  400000 1350000 0  450000 1350000 0  500000 1350000 0  550000 1350000 0  600000 1350000 0  650000 1350000 0  700000 135
[...]
<PointData  Scalars="f_3001"> 
<DataArray  type="Float64"  Name="f_3001"  format="ascii">-8.0126134721069882e+00  -8.0124263555195405e+00  -8.0115504942778397e+00  -8.0099824292777324e+00  -8.0077602117593489e+00  -8.0049410908494192e+00  -8.0015987925092187e+00  -7.9978213034391947e+00  -7.9937083973571230e+00  -7.9893688616610703e+00  -7.9849174906564038e+00  -7.9804719262151602e+00  -7.9761494295985109e+00  -7.9720636699494305e+00  -7.9683216177970024e+00  -7.9650206414231981e+00  -7.9622459402735934e+00  -7.9600685618445217e+00  -7.9585443608023336e+00  -7.9577110137630225e+00  -7.9575247632369264e+00  -8.0127934518481876e+00  -8.0126104985941708e+00  -8.0117232629943818e+00  -8.0101448412088789e+00  -8.0079104892466741e+00  -8.0050765492401830e+00  -8.0017165869109679e+00  -7.9979187988157650e+00  -7.9937833625346872e+00  -7.9894195814836468e+00  -7.9849428340921431e+00  -7.9804713843500359e+00  -7.9761231282601317e+00  -7.9720123569484036e+00  -7.9682466192363819e+00  -7.9649237657519620e+00  -7.9621292449740091e+00  -7.9599336443800937e+00  -7.9583900593667742e+00  -7.9575290189213312e+00  -7.9573418696871441e+00  -8.0136180335711700e+00  -8.0134453869207842e+00  -8.0125372163279440e+00  -8.0109115016201589e+00  -8.0086100688304196e+00  -8.0056920238888942e+00  -8.0022331388628185e+00  -7.9983239973619762e+00  -7.9940674926055060e+00  -7.9895759330150291e+00  -7.9849679025551330e+00  -7.9803649734000945e+00  -7.9758883543622918e+00  -7.9716555572446888e+00  -7.9677771649559999e+00  -7.9643537884892490e+00  -7.9614733049094140e+00  -7.9592084674198187e+00  -7.9576149004252681e+00  -7.9567287795944948e+00  -7.9565567275893621e+00  -8.0150796004999325e+00  -8.0149073268284408e+00  -8.0139635298916829e+00  -8.0122599909556218e+00  -8.0098428141877260e+00  -8.0067763049927745e+00  -8.0031411082205359e+00  -7.9990327850079472e+00  -7.9945595279047659e+00  -7.9898392868337673e+00  -7.9849965485725942e+00  -7.9801589240068909e+00  -7.9754536554854010e+00  -7.9710041416918633e+00  -7.9669265770187465e+00  -7.9633268129516548e+00  -7.9602975711267323e+00  -7.9579161530556863e+00  -7.9562426185388917e+00  -7.9553168570590032e+00  -7.9551428018735715e+00  -8.0171598574478597e+00  -8.0169816280148876e+00  -8.0159825437383443e+00  -8.0141689835689558e+00  -8.0115891851520207e+00  -8.0083129374269149e+00  -8.0044275299878702e+00  -8.0000357927626720e+00  -7.9952537177335952e+00  -7.9902075072147296e+00  -7.9850302264111752e+00  -7.9798582273284993e+00  -7.9748274749366743e+00  -7.9700698880247680e+00  -7.9657098047217714e+00  -7.9618606922076935e+00  -7.9586222319996578e+00  -7.9560778710197075e+00  -7.9542925466214385e+00  -7.9533081877302285e+00  -7.9531236678138120e+00  -8.0198499315233551e+00  -8.0196608593009984e+00  -8.0185861827725571e+00  -8.0166287298613934e+00  -8.0138389615433621e+00  -8.0102924890793510e+00  -8.0060845222804851e+00  -8.0013270978679127e+00  -7.9961463115491567e+00  -7.9906791188100801e+00  -7.9850697662881194e+00  -7.9794659895295217e+00  -7.9740151055509960e+00  -7.9688601165635502e+00  -7.9641359382035777e+00  -7.9599658691036685e+00  -7.9564584103886489e+00  -7.9537044478690015e+00  -7.9517743097937146e+00  -7.9507119219372120e+00  -7.9505120365362405e+00  -8.0231496701311773e+00  -8.0229454824579225e+00  -8.0217749932487141e+00  -8.0196388867913626e+00  -8.0165908177921619e+00  -8.0127131214007825e+00  -8.0081102457054989e+00  -8.0029052407796275e+00  -7.9972364747073383e+00  -7.9912540514484176e+00  -7.9851159195092833e+00  -7.9789837695474173e+00  -7.9730188325904150e+00  -7.9673776866751735e+00  -7.9622081778056906e+00  -7.9576455602037139e+00  -7.9538089398330918e+00  -7.9507979834539926e+00  -7.9486893117555084e+00  -7.9475295995382291e+00  -7.9473104848912861e+00  -8.0270658900374769e+00  -8.0268425492132263e+00  -8.0255560415535445e+00  -8.0232058244350934e+00  -8.0198499907851755e+00  -8.0155789006800546e+00  -8.0105077732971068e+00  -8.0047725247553281e+00  -7.9985259308924324e+00  -7.9919335789417634e+00  -7.9851695723312686e+00  -7.9784120612926772e+00  -7.9718386899282603e+00  -7.9656220498886370e+00  -7.9599252306502315e+00  -7.9548975559334725e+00  -7.9506705737599539e+00  -7.9473542418993190e+00  -7.9450326853003119e+00  -7.9437563531779976e+00  -7.9435144265931923e+00  -8.0316104106745776e+00  -8.0313639263130412e+00  -8.0299409673148716e+00  -8.0273403787133937e+00  -8.0236260150562426e+00  -8.0188978098351971e+00  -8.0132835064063599e+00  -8.0069338621432653e+00  -8.0000182330390430e+00  -7.9927200054622265e+00  -7.9852318405246985e+00  -7.9777507897804139e+00  -7.9704733505512344e+00  -7.9635905260203224e+00  -7.9572829567269467e+00  -7.9517161951466448e+00  -7.9470361815841146e+00  -7.9433648606998020e+00  -7.9407952878223815e+00  -7.9393828031758682e+00  -7.9391145309711959e+00  -8.0367979086892767e+00  -8.0365242307719118e+00  -8.0349439284558404e+00  -8.0320557096144380e+00  -8.0279305701242105e+00  -8.0226797514903883e+00  -8.0164454761321569e+00  -8.0093954635759346e+00  -8.0017178902517863e+00  -7.9936162559703021e+00  -7.9853041321810920e+00  -7.9769998403140994e+00  -7.9689211013821506e+00  -7.9612796871356437e+00  -7.9542761060548663e+00  -7.9480943725098090e+00  -7.9428969100675477e+00  -7.9388195336579503e+00  -7.9359658316095114e+00  -7.9343972179047704e+00  -7.9340990278450576e+00  -8.0426435082045629e+00  -8.0423384567048188e+00  -8.0405792776673337e+00  -8.0373649926248216e+00  -8.0327752216193513e+00  -8.0269344403420124e+00  -8.0200015097150921e+00  -8.0121633864034791e+00  -8.0036293789935407e+00  -7.9946254017854343e+00  -7.9853882106100418e+00  -7.9761596534404440e+00  -7.9671809377105056e+00  -7.9586868932402295e+00  -7.9509002142846210e+00  -7.9440256939231286e+00  -7.9382444903930658e+00  -7.9337083778305804e+00  -7.9305332723817710e+00  -7.9287879500185499e+00  -7.9284561901128701e+00  -8.0491599939701324e+00  -8.0488192070798821e+00  -8.0468588423778105e+00  -8.0432787532239960e+00  -8.0381688499399875e+00  -8.0316690138417943e+00  -8.0239571407133656e+00  -8.0152418646977139e+00  -8.0057559954896735e+00  -7.9957501075695943e+00  -7.9854862707790204e+00  -7.9752319257203510e+00  -7.9652538442600012e+00  -7.9558120755570814e+00  -7.9471537847336720e+00  -7.9395069413941304e+00  -7.9330738752378345e+00  -7.9280246589171899e+00  -7.9244895824485582e+00  -7.9225462510528590e+00  -7.9221771677115509e+00  -8.0563545180239835e+00  -8.0559734097613873e+00  -8.0537886755100700e+00  -8.0498016783251778e+00  -8.0441145794906763e+00  -8.0368851800355987e+00  -8.0283131088256976e+00  -8.0186313039023585e+00  -8.0080984732423435e+00  -7.9969919655147947e+00  -7.9856010370451580e+00  -7.9742204651799993e+00  -7.9631443509181628e+00  -7.9526598912267890e+00  -7.9430409109464568e+00  -7.9345410219885020e+00  -7.9273863848407355e+00  -7.9217680381061140e+00  -7.9178330451414807e+00  -7.9156695929858216e+00  -7.9152593179419961e+00  -8.0642246533406094e+00  -8.0637983734563630e+00  -8.0613651242034710e+00  -8.0569287301713306e+00  -8.0506060156307857e+00  -8.0425757078654723e+00  -8.0330622727023613e+00  -8.0223257976179756e+00  -8.0106532679368225e+00  -7.9983506697914502e+00  -7.9857358883669463e+00  -7.9731322600123278e+00  -7.9608624702170951e+00  -7.9492423977109992e+00  -7.9385745180309417e+00  -7.9291405940195352e+00  -7.9211935529445334e+00  -7.9149485147386871e+00  -7.9105722252581918e+00  -7.9081656434072807e+00  -7.9077101817827442e+00  -8.0727536285947910e+00  -8.0722770165143594e+00  -8.0695700368622987e+00  -8.0646403615050524e+00  -8.0576225699196549e+00  -8.0487200376018215e+00  -8.0381857310341616e+00  -8.0263099985882693e+00  -8.0134103927858806e+00  -7.9998229739005824e+00  -7.9858950169690024e+00  -7.9719788293430369e+00  -7.9584261434886754e+00  -7.9455824223788838e+00  -7.9337804320867065e+00  -7.9233325947805548e+00  -7.9145218924312672e+00  -7.9075912659728962e+00  -7.9027307951863222e+00  -7.9000570613448051e+00  -7.8995522719311762e+00  -8.0819045553062256e+00  -8.0813720759264065e+00  -8.0783648952036504e+00  -8.0728965902768923e+00  -8.0651236108335898e+00  -8.0552787473262129e+00  -8.0436479110997841e+00  -8.0305551481042325e+00  -8.0163506688161537e+00  -8.0014013643275028e+00  -7.9860836263640991e+00  -7.9707779344088934e+00  -7.9558643425440820e+00  -7.9417178332534490e+00  -7.9287025265310600e+00  -7.9171639388818225e+00  -7.9074188454454184e+00  -7.8997426250843654e+00  -7.8943534293187367e+00  -7.8913873061970348e+00  -7.8908288611227961e+00  -8.0916134297786275e+00  -8.0910190715740207e+00  -8.0876836133679610e+00  -8.0816296356751938e+00  -8.0730411168472056e+00  -8.0621865573452691e+00  -8.0493903430943465e+00  -8.0350140419790144e+00  -8.0194422405841639e+00  -8.0030723777232105e+00  -7.9863081737260195e+00  -7.9695557336296439e+00  -7.9532209886941434e+00  -7.9377069461503496e+00  -7.9234092395211331e+00  -7.9107087145200854e+00  -7.8999602456105888e+00  -7.8914774972709685e+00  -7.8855130243428855e+00  -7.8822276859274867e+00  -7.8816109901911542e+00  -8.1017806522629847e+00  -8.1011177554906215e+00  -8.0974236822610823e+00  -8.0907347373248442e+00  -8.0812704286437747e+00  -8.0693434917180582e+00  -8.0553238024597551e+00  -8.0396146992035025e+00  -8.0226362091088763e+00  -8.0048144914257744e+00  -7.9865766584879854e+00  -7.9683494577408300e+00  -7.9505598488290730e+00  -7.9336353193895937e+00  -7.9180018000511900e+00  -7.9040772754853261e+00  -7.8922597055809698e+00  -7.8829085943207629e+00  -7.8763195685205547e+00  -7.8726859193009506e+00  -7.8720059600763364e+00  -8.1122607441068890e+00  -8.1115217052214224e+00  -8.1074352377709431e+00  -8.1000586612678251e+00  -8.0896585921509416e+00  -8.0766037536891897e+00  -8.0613184918641192e+00  -8.0442525268559653e+00  -8.0258612722473472e+00  -8.0065955399567770e+00  -7.9868989514830355e+00  -7.9672106460224956e+00  -7.9479705250306463e+00  -7.9296241645542009e+00  -7.9126245234611554e+00  -7.8974277043500365e+00  -7.8844804602248706e+00  -7.8741979938701752e+00  -7.8669310860000579e+00  -7.8629165638035818e+00  -7.8621676428177913e+00  -8.1228498391955384e+00  -8.1220255994139787e+00  -8.1175074641580185e+00  -8.1093852127588359e+00  -8.0979896485462071e+00  -8.0837618318904827e+00  -8.0671919921259505e+00  -8.0487808903970599e+00  -8.0290173780630774e+00  -8.0083696736638643e+00  -7.9872871433049566e+00  -7.9662088946477576e+00  -7.9455755257059177e+00  -7.9258404912547773e+00  -7.9074775012410914e+00  -7.8909801920485307e+00  -7.8768503567722679e+00  -7.8655717260301534e+00  -7.8575672554512588e+00  -7.8531337922950790e+00  -7.8523090678796788e+00  -8.1332703372591926e+00  -8.1323494922036303e+00  -8.1273514447376876e+00  -8.1184167792900244e+00  -8.1059660613143389e+00  -8.0905353891075631e+00  -8.0726949215547297e+00  -8.0530002894409716e+00  -8.0319686559614762e+00  -8.0100740133238926e+00  -7.9877558613186439e+00  -7.9654358792945965e+00  -7.9435381170495143e+00  -7.9225088150558598e+00  -7.9028318359055181e+00  -7.8850349013181473e+00  -7.8696809029725294e+00  -7.8573384162196938e+00  -7.8485266109079017e+00  -7.8436272395528839e+00  -7.8427179601383026e+00  -8.1431517524465900e+00  -8.1421189767485416e+00  -8.1365780120495508e+00  -8.1267504379696511e+00  -8.1131852996223550e+00  -8.0965447153348347e+00  -8.0774947663741212e+00  -8.0566469526988076e+00  -8.0345363966084395e+00  -8.0116254150088899e+00  -7.9883224546677889e+00  -7.9650090622460619e+00  -7.9420700845363239e+00  -7.9199236322525666e+00  -7.8990471018941708e+00  -7.8799937577878048e+00  -7.8633915683001812e+00  -7.8499135692817559e+00  -7.8402088073922833e+00  -7.8347820897670220e+00  -7.8337763208211202e+00  -8.1520061110919002e+00  -8.1508392728049390e+00  -8.1446680660518549e+00  -8.1338463630090860e+00  -8.1191105359426441e+00  -8.1012892207272955e+00  -8.0811594737968147e+00  -8.0593828294432548e+00  -8.0364937421723095e+00  -8.0129182017810798e+00  -7.9890068693043546e+00  -7.9650739022139847e+00  -7.9414375186259019e+00  -7.9184606429629651e+00  -7.8965896425909383e+00  -7.8763861047831067e+00  -7.8585408348048027e+00  -7.8438520408588825e+00  -7.8331445450445356e+00  -7.8271054569613270e+00  -7.8259859513337826e+00  -8.1591949276450411e+00  -8.1578594692985433e+00  -8.1509306825028531e+00  -8.1389850562250405e+00  -8.1230348471499543e+00  -8.1041231870260582e+00  -8.0831446340357065e+00  -8.0607909695140147e+00  -8.0375651557872292e+00  -8.0138243854109898e+00  -7.9898309327304755e+00  -7.9658025008442594e+00  -7.9419610979140121e+00  -7.9185825009032342e+00  -7.8960480673768139e+00  -7.8748966976843935e+00  -7.8558655706914653e+00  -7.8398928788558404e+00  -7.8280379726499794e+00  -7.8212629062666386e+00  -7.8200034544948238e+00  -8.1638821568625506e+00  -8.1623190918759185e+00  -8.1544400514351096e+00  -8.1412084855739426e+00  -8.1240403690362246e+00  -8.1042369989528442e+00  -8.0827921736694393e+00  -8.0603834179113480e+00  -8.0374356611646043e+00  -8.0141987451987866e+00  -7.9908166675242249e+00  -7.9673855189333977e+00  -7.9440050278549652e+00  -7.9208312412470843e+00  -7.8981378771473958e+00  -7.8763907571451677e+00  -7.8563292503107105e+00  -7.8390233262179221e+00  -7.8258310249464422e+00  -7.8181328362231968e+00  -7.8166917236658175e+00  -8.1649621274148299e+00  -8.1630592489745979e+00  -8.1539340049023785e+00  -8.1392402082743391e+00  -8.1209606200885958e+00  -8.1006586083035010e+00  -8.0793552768287178e+00  -8.0576328661501098e+00  -8.0357768349984546e+00  -8.0138918609451970e+00  -7.9919832212416502e+00  -7.9700132827453611e+00  -7.9479462601755806e+00  -7.9257943665855830e+00  -7.9036790222955338e+00  -7.8819216859452323e+00  -7.8611743122052413e+00  -7.8425720113794766e+00  -7.8278091412512554e+00  -7.8188955067203194e+00  -7.8172028971079790e+00  -8.1609392471204742e+00  -8.1584543322521696e+00  -8.1476430951514036e+00  -8.1313882036996201e+00  -8.1123731200789617e+00  -8.0923064122304833e+00  -8.0720736720584991e+00  -8.0520429165460143e+00  -8.0322971405259338e+00  -8.0127740226185526e+00  -7.9933421137166194e+00  -7.9738422502810664e+00  -7.9541145218673410e+00  -7.9340262520454052e+00  -7.9135173294684309e+00  -7.8926865402320177e+00  -7.8719548108129489e+00  -7.8523401178945331e+00  -7.8357897881468377e+00  -7.8251972801787097e+00  -7.8231281858798711e+00  -8.1496980724503096e+00  -8.1460479031130486e+00  -8.1330094606551260e+00  -8.1154764962151287e+00  -8.0966951590296539e+00  -8.0781508294879139e+00  -8.0603313287703759e+00  -8.0432702463642638e+00  -8.0268201726176667e+00  -8.0107702428162213e+00  -7.9948905865253552e+00  -7.9789458244757618e+00  -7.9626974651183424e+00  -7.9459063498048357e+00  -7.9283468605829377e+00  -7.9098554987067651e+00  -7.8904659030711048e+00  -7.8707436822798345e+00  -7.8524773654580056e+00  -7.8395033457112158e+00  -7.8368110069392500e+00  -8.1279269992251137e+00  -8.1216964073697859e+00  -8.1063262951734973e+00  -8.0889969907565682e+00  -8.0725436250920257e+00  -8.0575652010420349e+00  -8.0439193153606272e+00  -8.0312946120565094e+00  -8.0193799794848815e+00  -8.0078983700062487e+00  -7.9966013548566348e+00  -7.9852539472117368e+00  -7.9736173289185883e+00  -7.9614307722885052e+00  -7.9483937721129276e+00  -7.9341554994453309e+00  -7.9183431567841112e+00  -7.9007471746554945e+00  -7.8820623304620430e+00  -7.8660192597475680e+00  -7.8621308350267842e+00  -8.0889077861048246e+00  -8.0776366107007824e+00  -8.0628385729068714e+00  -8.0500413683093832e+00  -8.0396074729164955e+00  -8.0309029796001443e+00  -8.0233592425767579e+00  -8.0165789338906421e+00  -8.0102867665578081e+00  -8.0042800724557814e+00  -7.9983952742114939e+00  -7.9924849467321435e+00  -7.9863993843054528e+00  -7.9799675320488239e+00  -7.9729716240195696e+00  -7.9651071344876057e+00  -7.9559154274709885e+00  -7.9446861764789629e+00  -7.9304674151451451e+00  -7.9134562159550592e+00  -7.9071096692700040e+00  -8.0000000000000000e+00  -8.0000000000000000e+00  -8.0000000000000000e+00  -8.0000000000000000e+00  -8.0000000000000000e+00  -8.0000000000000000e+00  -8.0000000000000000e+00  -8.0000000000000000e+00  -8.0000000000000000e+00  -8.0000000000000000e+00  -8.0000000000000000e+00  -8.0000000000000000e+00  -8.0000000000000000e+00  -8.0000000000000000e+00  -8.0000000000000000e+00  -8.0000000000000000e+00  -8.0000000000000000e+00  -8.0000000000000000e+00  -8.0000000000000000e+00  -8.0000000000000000e+00  -8.0000000000000000e+00  </DataArray> 
</PointData> 
</Piece>
</UnstructuredGrid>
</VTKFile>