<?xml version="1.0"?>
<VTKFile type="UnstructuredGrid"  version="0.1"  >
<UnstructuredGrid>
<Piece  NumberOfPoints="651" NumberOfCells="1200">
<Points>
<DataArray  type="Float64"  NumberOfComponents="3"  format="ascii">0 0 0  50000 0 0  100000 0 0  150000 0 0  200000 0 0  250000 0 0  300000 0 0  350000 0 0  400000 0 0  450000 0 0  500000 0 0  550000 0 0  600000 0 0  650000 0 0  700000 0 0  750000 0 0  800000 0 0  850000 0 0  900000 0 0  950000 0 0  1000000 0 0  0 50000 0  50000 50000 0  100000 50000 0  150000 50000 0  200000 50000 0  250000 50000 0  300000 50000 0  350000 50000 0  400000 50000 0  450000 50000 0  500000 50000 0  550000 50000 0  600000 50000 0  650000 50000 0  700000 50000 0  750000 50000 0  800000 50000 0  850000 50000 0  900000 50000 0  950000 50000 0  1000000 50000 0  0 100000 0  50000 100000 0  100000 100000 0  150000 100000 0  200000 100000 0  250000 100000 0  300000 100000 0  350000 100000 0  400000 100000 0  450000 100000 0  500000 100000 0  550000 100000 0  600000 100000 0  650000 100000 0  700000 100000 0  750000 100000 0  800000 100000 0  850000 100000 0  900000 100000 0  950000 100000 0  1000000 100000 0  0 150000 0  50000 150000 0  100000 150000 0  150000 150000 0  200000 150000 0  250000 150000 0  300000 150000 0  350000 150000 0  400000 150000 0  450000 150000 0  500000 150000 0  550000 150000 0  600000 150000 0  650000 150000 0  700000 150000 0  750000 150000 0  800000 150000 0  850000 150000 0  900000 150000 0  950000 150000 0  1000000 150000 0  0 200000 0  50000 200000 0  100000 200000 0  150000 200000 0  200000 200000 0  250000 200000 0  300000 200000 0  350000 200000 0  400000 200000 0  450000 200000 0  500000 200000 0  550000 200000 0  600000 200000 0  650000 200000 0  700000 200000 0  750000 200000 0  800000 200000 0  850000 200000 0  900000 200000 0  950000 200000 0  1000000 200000 0  0 250000 0  50000 250000 0  100000 250000 0  150000 250000 0  200000 250000 0  250000 250000 0  300000 250000 0  350000 250000 0  400000 250000 0  450000 250000 0  500000 250000 0  550000 250000 0  600000 250000 0  650000 250000 0  700000 250000 0  750000 250000 0  800000 250000 0  850000 250000 0  900000 250000 0  950000 250000 0  1000000 250000 0  0 300000 0  50000 300000 0  100000 300000 0  150000 300000 0  200000 300000 0  250000 300000 0  300000 300000 0  350000 300000 0  400000 300000 0  450000 300000 0  500000 300000 0  550000 300000 0  600000 300000 0  650000 300000 0  700000 300000 0  750000 300000 0  800000 300000 0  850000 300000 0  900000 300000 0  950000 300000 0  1000000 300000 0  0 350000 0  50000 350000 0  100000 350000 0  150000 350000 0  200000 350000 0  250000 350000 0  300000 350000 0  350000 350000 0  400000 350000 0  450000 350000 0  500000 350000 0  550000 350000 0  600000 350000 0  650000 350000 0  700000 350000 0  750000 350000 0  800000 350000 0  850000 350000 0  900000 350000 0  950000 350000 0  1000000 350000 0  0 400000 0  50000 400000 0  100000 400000 0  150000 400000 0  200000 400000 0  250000 400000 0  300000 400000 0  350000 400000 0  400000 400000 0  450000 400000 0  500000 400000 0  550000 400000 0  600000 400000 0  650000 400000 0  700000 400000 0  750000 400000 0  800000 400000 0  850000 400000 0  900000 400000 0  950000 400000 0  1000000 400000 0  0 450000 0  50000 450000 0  100000 450000 0  150000 450000 0  200000 450000 0  250000 450000 0  300000 450000 0  350000 450000 0  400000 450000 0  450000 450000 0  500000 450000 0  550000 450000 0  600000 450000 0  650000 450000 0  700000 450000 0  750000 450000 0  800000 450000 0  850000 450000 0  900000 450000 0  950000 450000 0  1000000 450000 0  0 500000 0  50000 500000 0  100000 500000 0  150000 500000 0  200000 500000 0  250000 500000 0  300000 500000 0  350000 500000 0  400000 500000 0  450000 500000 0  500000 500000 0  550000 500000 0  600000 500000 0  650000 500000 0  700000 500000 0  750000 500000 0  800000 500000 0  850000 500000 0  900000 500000 0  950000 500000 0  1000000 500000 0  0 550000 0  50000 550000 0  100000 550000 0  150000 550000 0  200000 550000 0  250000 550000 0  300000 550000 0  350000 550000 0  400000 550000 0  450000 550000 0  500000 550000 0  550000 550000 0  600000 550000 0  650000 550000 0  700000 550000 0  750000 550000 0  800000 550000 0  850000 550000 0  900000 550000 0  950000 550000 0  1000000 550000 0  0 600000 0  50000 600000 0  100000 600000 0  150000 600000 0  200000 600000 0  250000 600000 0  300000 600000 0  350000 600000 0  400000 600000 0  450000 600000 0  500000 600000 0  550000 600000 0  600000 600000 0  650000 600000 0  700000 600000 0  750000 600000 0  800000 600000 0  850000 600000 0  900000 600000 0  950000 600000 0  1000000 600000 0  0 650000 0  50000 650000 0  100000 650000 0  150000 650000 0  200000 650000 0  250000 650000 0  300000 650000 0  350000 650000 0  400000 650000 0  450000 650000 0  500000 650000 0  550000 650000 0  600000 650000 0  650000 650000 0  700000 650000 0  750000 650000 0  800000 650000 0  850000 650000 0  900000 650000 0  950000 650000 0  1000000 650000 0  0 700000 0  50000 700000 0  100000 700000 0  150000 700000 0  200000 700000 0  250000 700000 0  300000 700000 0  350000 700000 0  400000 700000 0  450000 700000 0  500000 700000 0  550000 700000 0  600000 700000 0  650000 700000 0  700000 700000 0  750000 700000 0  800000 700000 0  850000 700000 0  900000 700000 0  950000 700000 0  1000000 700000 0  0 750000 0  50000 750000 0  100000 750000 0  150000 750000 0  200000 750000 0  250000 750000 0  300000 750000 0  350000 750000 0  400000 750000 0  450000 750000 0  500000 750000 0  550000 750000 0  600000 750000 0  650000 750000 0  700000 750000 0  750000 750000 0  800000 750000 0  850000 750000 0  900000 750000 0  950000 750000 0  1000000 750000 0  0 800000 0  50000 800000 0  100000 800000 0  150000 800000 0  200000 800000 0  250000 800000 0  300000 800000 0  350000 800000 0  400000 800000 0  450000 800000 0  500000 800000 0  550000 800000 0  600000 800000 0  650000 800000 0  700000 800000 0  750000 800000 0  800000 800000 0  850000 800000 0  900000 800000 0  950000 800000 0  1000000 800000 0  0 850000 0  50000 850000 0  100000 850000 0  150000 850000 0  200000 850000 0  250000 850000 0  300000 850000 0  350000 850000 0  400000 850000 0  450000 850000 0  500000 850000 0  550000 850000 0  600000 850000 0  650000 850000 0  700000 850000 0  750000 850000 0  800000 850000 0  850000 850000 0  900000 850000 0  950000 850000 0  1000000 850000 0  0 900000 0  50000 900000 0  100000 900000 0  150000 900000 0  200000 900000 0  250000 900000 0  300000 900000 0  350000 900000 0  400000 900000 0  450000 900000 0  500000 900000 0  550000 900000 0  600000 900000 0  650000 900000 0  700000 900000 0  750000 900000 0  800000 900000 0  850000 900000 0  900000 900000 0  950000 900000 0  1000000 900000 0  0 950000 0  50000 950000 0  100000 950000 0  150000 950000 0  200000 950000 0  250000 950000 0  300000 950000 0  350000 950000 0  400000 950000 0  450000 950000 0  500000 950000 0  550000 950000 0  600000 950000 0  650000 950000 0  700000 950000 0  750000 950000 0  800000 950000 0  850000 950000 0  900000 950000 0  950000 950000 0  1000000 950000 0  0 1000000 0  50000 1000000 0  100000 1000000 0  150000 1000000 0  200000 1000000 0  250000 1000000 0  300000 1000000 0  350000 1000000 0  400000 1000000 0  450000 1000000 0  500000 1000000 0  550000 1000000 0  600000 1000000 0  650000 1000000 0  700000 1000000 0  750000 1000000 0  800000 1000000 0  850000 1000000 0  900000 1000000 0  950000 1000000 0  1000000 1000000 0  0 1050000 0  50000 1050000 0  100000 1050000 0  150000 1050000 0  200000 1050000 0  250000 1050000 0  300000 1050000 0  350000 1050000 0  400000 1050000 0  450000 1050000 0  500000 1050000 0  550000 1050000 0  600000 1050000 0  650000 1050000 0  700000 1050000 0  750000 1050000 0  800000 1050000 0  850000 1050000 0  900000 1050000 0  950000 1050000 0  1000000 1050000 0  0 1100000 0  50000 1100000 0  100000 1100000 0  150000 1100000 0  200000 1100000 0  250000 1100000 0  300000 1100000 0  350000 1100000 0  400000 1100000 0  450000 1100000 0  500000 1100000 0  550000 1100000 0  600000 1100000 0  650000 1100000 0  700000 1100000 0  750000 1100000 0  800000 1100000 0  850000 1100000 0  900000 1100000 0  950000 1100000 0  1000000 1100000 0  0 1150000 0  50000 1150000 0  100000 1150000 0  150000 1150000 0  200000 1150000 0  250000 1150000 0  300000 1150000 0  350000 1150000 0  400000 1150000 0  450000 1150000 0  500000 1150000 0  550000 1150000 0  600000 1150000 0  650000 1150000 0  700000 1150000 0  750000 1150000 0  800000 1150000 0  850000 1150000 0  900000 1150000 0  950000 1150000 0  1000000 1150000 0  0 1200000 0  50000 1200000 0  100000 1200000 0  150000 1200000 0  200000 1200000 0  250000 1200000 0  300000 1200000 0  350000 1200000 0  400000 1200000 0  450000 1200000 0  500000 1200000 0  550000 1200000 0  600000 1200000 0  650000 1200000 0  700000 1200000 0  750000 1200000 0  800000 1200000 0  850000 1200000 0  900000 1200000 0  950000 1200000 0  1000000 1200000 0  0 1250000 0  50000 1250000 0  100000 1250000 0  150000 1250000 0  200000 1250000 0  250000 1250000 0  300000 1250000 0  350000 1250000 0  400000 1250000 0  450000 1250000 0  500000 1250000 0  550000 1250000 0  600000 1250000 0  650000 1250000 0  700000 1250000 0  750000 1250000 0  800000 1250000 0  850000 1250000 0  900000 1250000 0  950000 1250000 0  1000000 1250000 0  0 1300000 0  50000 1300000 0  100000 1300000 0  150000 1300000 0  200000 1300000 0  250000 1300000 0  300000 1300000 0  350000 1300000 0  400000 1300000 0  450000 1300000 0  500000 1300000 0  550000 1300000 0  600000 1300000 0  650000 1300000 0  700000 1300000 0  750000 1300000 0  800000 1300000 0  850000 1300000 0  900000 1300000 0  950000 1300000 0  1000000 1300000 0  0 1350000 0  50000 1350000 0  100000 1350000 0  150000 1350000 0  200000 1350000 0  250000 1350000 0  300000 1350000 0  350000 1350000 0  400000 1350000 0  450000 1350000 0  500000 1350000 0  550000 1350000 0  600000 1350000 0  650000 1350000 0  700000 135
[...]
<PointData  Scalars="f_3001"> 
<DataArray  type="Float64"  Name="f_3001"  format="ascii">-8.0263447786917173e+00  -8.0259713081228394e+00  -8.0241616378563201e+00  -8.0209095581364398e+00  -8.0162974090936832e+00  -8.0104465089805306e+00  -8.0035114523588717e+00  -7.9956756081410010e+00  -7.9871461118344422e+00  -7.9781482556823358e+00  -7.9689194141843327e+00  -7.9597026689586121e+00  -7.9507402998644530e+00  -7.9422673117243372e+00  -7.9345051720213222e+00  -7.9276559569980494e+00  -7.9218971879077902e+00  -7.9173779028161801e+00  -7.9142168098242269e+00  -7.9124962882398000e+00  -7.9121209075408485e+00  -8.0267043834993022e+00  -8.0263392709845416e+00  -8.0245044469525411e+00  -8.0212307377689438e+00  -8.0165940738978350e+00  -8.0107136315994936e+00  -8.0037435291075631e+00  -7.9958674768921103e+00  -7.9872933725423270e+00  -7.9782475082327693e+00  -7.9689684005793797e+00  -7.9597003522336838e+00  -7.9506868909983357e+00  -7.9421642450983621e+00  -7.9343550181646929e+00  -7.9274622277890057e+00  -7.9216638494274498e+00  -7.9171078416190159e+00  -7.9139067297257935e+00  -7.9121267310688301e+00  -7.9117507114114360e+00  -8.0284083078796176e+00  -8.0280668797441788e+00  -8.0261893728962121e+00  -8.0228169918890870e+00  -8.0180404167749497e+00  -8.0119848313617172e+00  -8.0048089937968747e+00  -7.9967015676952133e+00  -7.9878760707836802e+00  -7.9785650121531244e+00  -7.9690135396852915e+00  -7.9594727995641676e+00  -7.9501931738095415e+00  -7.9414175575587604e+00  -7.9333748419985941e+00  -7.9262737781088024e+00  -7.9202974109803712e+00  -7.9155982753978060e+00  -7.9122943651159723e+00  -7.9104642307322592e+00  -7.9101240968561743e+00  -8.0314372431777645e+00  -8.0310984200188180e+00  -8.0291492129579698e+00  -8.0256159627492547e+00  -8.0205986221795609e+00  -8.0142337373161912e+00  -8.0066905100320742e+00  -7.9981681148686183e+00  -7.9888911688331232e+00  -7.9791039490344691e+00  -7.9690638922914401e+00  -7.9590347063277918e+00  -7.9492793238795771e+00  -7.9400528957473631e+00  -7.9315960177936020e+00  -7.9241284114839559e+00  -7.9178433279260885e+00  -7.9129029748752338e+00  -7.9094348482964731e+00  -7.9075252634933682e+00  -7.9071833529160491e+00  -8.0357472076655423e+00  -8.0353978066814573e+00  -8.0333363159238420e+00  -8.0295761597449609e+00  -8.0242214472525717e+00  -8.0174204451629674e+00  -8.0093565225905152e+00  -8.0002442140917438e+00  -7.9903245047657201e+00  -7.9798589158024864e+00  -7.9691227655111252e+00  -7.9583979611259625e+00  -7.9479655934944802e+00  -7.9380985638306445e+00  -7.9290544656092683e+00  -7.9210689656161541e+00  -7.9143499520596965e+00  -7.9090726127042048e+00  -7.9053747036344681e+00  -7.9033464170465333e+00  -7.9029846357548568e+00  -8.0413142493503305e+00  -8.0409442804777704e+00  -8.0387284131565924e+00  -8.0346715116487903e+00  -8.0288819314247579e+00  -8.0215201478887845e+00  -8.0127862489878705e+00  -8.0029141374842592e+00  -7.9921659590601797e+00  -7.9808256779958464e+00  -7.9691918974927543e+00  -7.9575702028963073e+00  -7.9462652917687917e+00  -7.9355731274042736e+00  -7.9257733447998682e+00  -7.9171221440572292e+00  -7.9098458821397477e+00  -7.9041353415399493e+00  -7.9001394815407098e+00  -7.8979522147705712e+00  -7.8975605033581395e+00  -8.0481329650594819e+00  -8.0477338366842002e+00  -8.0453217998148894e+00  -8.0408964813540127e+00  -8.0345726103599020e+00  -8.0265246707926181e+00  -8.0169721075170735e+00  -8.0061718720473554e+00  -7.9944117239359649e+00  -7.9820030008984908e+00  -7.9692727800639211e+00  -7.9565556171936880e+00  -7.9441850869990898e+00  -7.9324853402918070e+00  -7.9217628886953744e+00  -7.9122988226751145e+00  -7.9043416140266212e+00  -7.8981003608353841e+00  -7.8937370598397880e+00  -7.8913509998752644e+00  -7.8909216681762473e+00  -8.0562127168530626e+00  -8.0557764044880962e+00  -8.0531266411143800e+00  -8.0482599818680765e+00  -8.0413002741139277e+00  -8.0324387245129731e+00  -8.0219172554256595e+00  -8.0100196320790893e+00  -7.9970635790835605e+00  -7.9833925737726883e+00  -7.9693671781188415e+00  -7.9553560345808503e+00  -7.9417266994932021e+00  -7.9288364891818386e+00  -7.9170235131049429e+00  -7.9065980635844895e+00  -7.8978344731512777e+00  -7.8909632464363515e+00  -7.8861619504984990e+00  -7.8835375137693617e+00  -7.8830635568945686e+00  -8.0655734200149247e+00  -8.0650920562771624e+00  -8.0621627524945154e+00  -8.0567804307638760e+00  -8.0490809535230028e+00  -8.0392755099825841e+00  -8.0276321043659014e+00  -8.0144653376099608e+00  -8.0001273109597832e+00  -7.9849983418140180e+00  -7.9694773533953445e+00  -7.9539720302839427e+00  -7.9388888629323890e+00  -7.9246232010805677e+00  -7.9115494389578886e+00  -7.9000114617678330e+00  -7.8903134417846106e+00  -7.8827107810438228e+00  -7.8773996147254097e+00  -7.8744969537611649e+00  -7.8739715385080409e+00  -8.0762410025909031e+00  -8.0757066462147424e+00  -8.0724552413254784e+00  -8.0664811635960376e+00  -8.0579352752909728e+00  -8.0470523964589553e+00  -8.0341306454354058e+00  -8.0195197843162767e+00  -8.0036108333508000e+00  -7.9868256289441195e+00  -7.9696062054116217e+00  -7.9524040690261844e+00  -7.9356694288969587e+00  -7.9198404300993381e+00  -7.9053324408083245e+00  -7.8925274726754147e+00  -7.8817638057559973e+00  -7.8733256220549004e+00  -7.8674309872620629e+00  -7.8642095497787619e+00  -7.8636258210712775e+00  -8.0882423618110693e+00  -8.0876468480423913e+00  -8.0840296479077072e+00  -8.0773855872949980e+00  -8.0678836968517587e+00  -8.0557864604887577e+00  -8.0414265628547206e+00  -8.0251935672939219e+00  -8.0075220940444591e+00  -7.9888801358453581e+00  -7.9697574079314624e+00  -7.9506537677525628e+00  -7.9320676865035011e+00  -7.9144847103482290e+00  -7.8983658590652501e+00  -7.8841359677622496e+00  -7.8721720180468582e+00  -7.8627912740539312e+00  -7.8562374799305141e+00  -7.8526556676583921e+00  -7.8520066578893530e+00  -8.1015995853164675e+00  -8.1009344180682934e+00  -8.0969063130006820e+00  -8.0895116558693356e+00  -8.0789411664527009e+00  -8.0654895142834970e+00  -8.0495288803129537e+00  -8.0314936009817526e+00  -8.0118666848380276e+00  -7.9911667912135780e+00  -7.9699355737602646e+00  -7.9487253625159360e+00  -7.9280870386829498e+00  -7.9085578775302556e+00  -7.8906491491080750e+00  -7.8748333664170236e+00  -7.8615311799667627e+00  -7.8510977441294747e+00  -7.8438067315672511e+00  -7.8398216485666001e+00  -7.8391002305616464e+00  -8.1163231724714784e+00  -8.1155794386649873e+00  -8.1110936986885687e+00  -8.1028653177343060e+00  -8.0911108095786020e+00  -8.0761622373619097e+00  -8.0584368142331133e+00  -8.0384189910926533e+00  -8.0166449981612455e+00  -7.9936883874372580e+00  -7.9701464660858576e+00  -7.9466274827649039e+00  -7.9237382198069106e+00  -7.9020715194286604e+00  -7.8821932923652751e+00  -7.8646287140883038e+00  -7.8498475190341157e+00  -7.8382482225834860e+00  -7.8301393864010613e+00  -7.8257066473447559e+00  -7.8249055077075740e+00  -8.1324039574764022e+00  -8.1315722496889400e+00  -8.1265803520722280e+00  -8.1174325757288095e+00  -8.1043762411743430e+00  -8.0877870057238219e+00  -8.0681334662280815e+00  -8.0459559630293871e+00  -8.0218487287432882e+00  -7.9964439047447158e+00  -7.9703972703146855e+00  -7.9443753551486713e+00  -7.9190432771313111e+00  -7.8950524633093426e+00  -7.8730274398941429e+00  -7.8535511080572578e+00  -7.8371482590914239e+00  -7.8242671476883219e+00  -7.8152572160792593e+00  -7.8103307675601119e+00  -7.8094423840988103e+00  -8.1498033979668580e+00  -8.1488737303358114e+00  -8.1433251488216740e+00  -8.1331697510642407e+00  -8.1186920551777835e+00  -8.1003189624501317e+00  -8.0785779343120758e+00  -8.0540715021093625e+00  -8.0274564807596303e+00  -7.9994264068887198e+00  -7.9706969395347311e+00  -7.9419935789086802e+00  -7.9140405773626030e+00  -7.8875496611880207e+00  -7.8632072186604960e+00  -7.8416589310952212e+00  -7.8234913321816606e+00  -7.8092100637442625e+00  -7.7992129488917916e+00  -7.7937448308145765e+00  -7.7927614356858896e+00  -8.1684418476417360e+00  -8.1674035434998515e+00  -8.1612453869926735e+00  -8.1499914627931229e+00  -8.1339719583872903e+00  -8.1136747928518993e+00  -8.0896953526979480e+00  -8.0627053070686827e+00  -8.0334282049083825e+00  -8.0026203733602106e+00  -7.9710566264467175e+00  -7.9395196333928535e+00  -7.9087911385393674e+00  -7.8796428936204190e+00  -7.8528252081387748e+00  -7.8290514410521954e+00  -7.8089774700912393e+00  -7.7931757614738091e+00  -7.7821022349240625e+00  -7.7760421679174172e+00  -7.7749556707712530e+00  -8.1881843743389240e+00  -8.1870258911158142e+00  -8.1802022129148906e+00  -8.1677557219110781e+00  -8.1500738960016346e+00  -8.1277185606935856e+00  -8.1013642901884779e+00  -8.0717596080653138e+00  -8.0396981632458342e+00  -8.0059983214222203e+00  -7.9714902125767582e+00  -7.9370082875927226e+00  -7.9033866160849806e+00  -7.8714537699388059e+00  -7.8420241847332974e+00  -7.8158833805376817e+00  -7.7937653390723192e+00  -7.7763213043611801e+00  -7.7640782657273810e+00  -7.7573728865111393e+00  -7.7561747189923240e+00  -8.2088236058050725e+00  -8.2075322397263193e+00  -8.1999827337319644e+00  -8.1862453792490673e+00  -8.1667813561127431e+00  -8.1422438378109891e+00  -8.1134008671487639e+00  -8.0810863788657965e+00  -8.0461661242717089e+00  -8.0095165773174166e+00  -7.9720149388068320e+00  -7.9345370652593390e+00  -7.8979592654641957e+00  -7.8631595328612134e+00  -7.8310138174200796e+00  -7.8023834121967166e+00  -7.7780905537741472e+00  -7.7588807108228810e+00  -7.7453696988277123e+00  -7.7379611670733679e+00  -7.7366419894608622e+00  -8.2300589635297658e+00  -8.2286203360958776e+00  -8.2202779725496722e+00  -8.2051449292415732e+00  -8.1837798304113267e+00  -8.1569512367249626e+00  -8.1255389337857764e+00  -8.0904715323270970e+00  -8.0526865711836013e+00  -8.0131101030228553e+00  -7.9726521248877731e+00  -7.9322128454446581e+00  -7.8926941129531984e+00  -7.8550101261490131e+00  -7.8200915424618787e+00  -7.7888773410329000e+00  -7.7622896430677795e+00  -7.7411883136976174e+00  -7.7263027451095638e+00  -7.7181262938586803e+00  -7.7166754722305679e+00  -8.2514714390629695e+00  -8.2498685936638374e+00  -8.2406554874339353e+00  -8.2240113032104052e+00  -8.2006271380934876e+00  -8.1714203807484243e+00  -8.1374057756583582e+00  -8.0996159279590856e+00  -8.0590559432940090e+00  -8.0166864142771637e+00  -7.9734279317501660e+00  -7.9301794916151156e+00  -7.8878433003094184e+00  -7.8473487549214180e+00  -7.8096682686950301e+00  -7.7758172248829798e+00  -7.7468303666543683e+00  -7.7237082180673990e+00  -7.7073286276103055e+00  -7.6983083925697757e+00  -7.6967131027427769e+00  -8.2724926955932379e+00  -8.2707044916197212e+00  -8.2605248756995078e+00  -8.2422366901919446e+00  -8.2167159909341052e+00  -8.1850754267066019e+00  -8.1484932484843036e+00  -8.1081136181887601e+00  -8.0649984604198259e+00  -8.0201189046559023e+00  -7.9743740571087178e+00  -7.9286260124669479e+00  -7.8837419742465293e+00  -7.8406355745493306e+00  -7.8002992059968284e+00  -7.7638175166939636e+00  -7.7323502270403042e+00  -7.7070719404751316e+00  -7.6890582454687681e+00  -7.6791003278682100e+00  -7.6773440547249407e+00  -8.2923665796389603e+00  -8.2903647809517764e+00  -8.2790932596608222e+00  -8.2590004406880961e+00  -8.2312268447282904e+00  -8.1971437382339705e+00  -8.1581253208043307e+00  -8.1154290152918680e+00  -8.0701521115860260e+00  -8.0232404173950442e+00  -7.9755281463502437e+00  -7.9277940325357550e+00  -7.8808239237322404e+00  -7.8354728623967027e+00  -7.7927191472128836e+00  -7.7536991274741967e+00  -7.7197055985292788e+00  -7.6921274433652220e+00  -7.6723070421379385e+00  -7.6612881237650372e+00  -7.6593481684024614e+00  -8.3100997847022136e+00  -8.3078435835434323e+00  -8.2953056668247545e+00  -8.2732055060877752e+00  -8.2430689826220398e+00  -8.2066087424709142e+00  -8.1654253154270737e+00  -8.1208770349208521e+00  -8.0740582000756902e+00  -8.0258387999604448e+00  -7.9769335328963171e+00  -7.9279821325136561e+00  -7.8796330862529764e+00  -7.8326275253035860e+00  -7.7878793454796087e+00  -7.7465412631360326e+00  -7.7100345104074774e+00  -7.6800047348201170e+00  -7.6581553320516766e+00  -7.6459040518846262e+00  -7.6437473606263957e+00  -8.3243957764390366e+00  -8.3218208501149196e+00  -8.3077608831492462e+00  -8.2833924371477483e+00  -8.2508086960719265e+00  -8.2121615823236684e+00  -8.1692907035234423e+00  -8.1236143726684595e+00  -8.0761606929468250e+00  -8.0276575211846399e+00  -7.9786376995356223e+00  -7.9295428009243851e+00  -7.8808236804107938e+00  -7.8330422858882098e+00  -7.7869785398023419e+00  -7.7437379161060811e+00  -7.7048362891328859e+00  -7.6722065445831786e+00  -7.6480338653901088e+00  -7.6343001661513972e+00  -7.6318761782032860e+00  -8.3335608313088869e+00  -8.3305554497427305e+00  -8.3145846943054469e+00  -8.2876211114864109e+00  -8.2525876930851059e+00  -8.2121643612738922e+00  -8.1683916460260733e+00  -8.1226564331427102e+00  -8.0758255142781596e+00  -8.0284061302053242e+00  -7.9806886316857959e+00  -7.9328654775235083e+00  -7.8851369743455129e+00  -7.8378194544448103e+00  -7.7914716018378813e+00  -7.7470482365699649e+00  -7.7060691692064136e+00  -7.6707379425821518e+00  -7.6438538445112005e+00  -7.6282579011064140e+00  -7.6254857060970886e+00  -8.3353602311081900e+00  -8.3317070603223069e+00  -8.3132256683975658e+00  -8.2833104912687627e+00  -8.2460487390353379e+00  -8.2046551636030660e+00  -8.1612232710326644e+00  -8.1169427572397641e+00  -8.0723939316886550e+00  -8.0277867963915917e+00  -7.9831281588810210e+00  -7.9383373011046263e+00  -7.8933375051604227e+00  -7.8481505648532757e+00  -7.8030225774890676e+00  -7.7586113403803649e+00  -7.7162564019290265e+00  -7.6782955306599501e+00  -7.6482210250585760e+00  -7.6301677246341963e+00  -7.6269112070343095e+00  -8.3267782963435621e+00  -8.3219975943512416e+00  -8.3001108133228829e+00  -8.2670446297228306e+00  -8.2283241319263656e+00  -8.1874584035496660e+00  -8.1462607182634184e+00  -8.1054810225132918e+00  -8.0652853293909210e+00  -8.0255427701167097e+00  -7.9859816081997650e+00  -7.9462737025953523e+00  -7.9060893327281949e+00  -7.8651542048697429e+00  -7.8233423286157739e+00  -7.7808537785628733e+00  -7.7385522195277066e+00  -7.6985348004789431e+00  -7.6648187500687204e+00  -7.6433611528509706e+00  -7.6393753392470103e+00  -8.3035601885340427e+00  -8.2964759503359886e+00  -8.2700797021944901e+00  -8.2344398885480974e+00  -8.1962355684421908e+00  -8.1585168146814944e+00  -8.1222817005262424e+00  -8.0875961984300933e+00  -8.0541562716361970e+00  -8.0215289911622936e+00  -7.9892432216545135e+00  -7.9568167526569678e+00  -7.9237606981751592e+00  -7.8895840292950457e+00  -7.8538223076453475e+00  -7.8161372985185702e+00  -7.7765954588456685e+00  -7.7363616116265446e+00  -7.6991326293002027e+00  -7.6728256348021278e+00  -7.6676227604006986e+00  -8.2590635404565607e+00  -8.2467882931689278e+00  -8.2156644865689490e+00  -8.1804638523000524e+00  -8.1470318491791733e+00  -8.1166076511251202e+00  -8.0889013917368224e+00  -8.0632753002292397e+00  -8.0390927847180880e+00  -8.0157878304440384e+00  -7.9928534310028834e+00  -7.9698100857678016e+00  -7.9461700512369786e+00  -7.9213999074465535e+00  -7.8948834310970621e+00  -7.8658993971250197e+00  -7.8336797155985458e+00  -7.7977926118312899e+00  -7.7596800833153132e+00  -7.7270805574381809e+00  -7.7195092752344259e+00  -8.1798570310149739e+00  -8.1572918777915895e+00  -8.1273169320880552e+00  -8.1013385654666710e+00  -8.0801639535206018e+00  -8.0625126555845821e+00  -8.0472238316389024e+00  -8.0334858092940031e+00  -8.0207371919971706e+00  -8.0085654976298866e+00  -7.9966382317838978e+00  -7.9846557863431498e+00  -7.9723136305686095e+00  -7.9592631683408737e+00  -7.9450595653905989e+00  -7.9290792054828927e+00  -7.9103808535073954e+00  -7.8875056320431769e+00  -7.8585054551309748e+00  -7.8238295005845204e+00  -7.8112683713681523e+00  -8.0000000000000000e+00  -8.0000000000000000e+00  -8.0000000000000000e+00  -8.0000000000000000e+00  -8.0000000000000000e+00  -8.0000000000000000e+00  -8.0000000000000000e+00  -8.0000000000000000e+00  -8.0000000000000000e+00  -8.0000000000000000e+00  -8.0000000000000000e+00  -8.0000000000000000e+00  -8.0000000000000000e+00  -8.0000000000000000e+00  -8.0000000000000000e+00  -8.0000000000000000e+00  -8.0000000000000000e+00  -8.0000000000000000e+00  -8.0000000000000000e+00  -8.0000000000000000e+00  -8.0000000000000000e+00  </DataArray> 
</PointData> 
</Piece>
</UnstructuredGrid>
</VTKFile>