<?xml version="1.0"?>
<VTKFile type="UnstructuredGrid"  version="0.1"  >
<UnstructuredGrid>
<Piece  NumberOfPoints="651" NumberOfCells="1200">
<Points>
<DataArray  type="Float64"  NumberOfComponents="3"  format="ascii">0 0 0  50000 0 0  100000 0 0  150000 0 0  200000 0 0  250000 0 0  300000 0 0  350000 0 0  400000 0 0  450000 0 0  500000 0 0  550000 0 0  600000 0 0  650000 0 0  700000 0 0  750000 0 0  800000 0 0  850000 0 0  900000 0 0  950000 0 0  1000000 0 0  0 50000 0  50000 50000 0  100000 50000 0  150000 50000 0  200000 50000 0  250000 50000 0  300000 50000 0  350000 50000 0  400000 50000 0  450000 50000 0  500000 50000 0  550000 50000 0  600000 50000 0  650000 50000 0  700000 50000 0  750000 50000 0  800000 50000 0  850000 50000 0  900000 50000 0  950000 50000 0  1000000 50000 0  0 100000 0  50000 100000 0  100000 100000 0  150000 100000 0  200000 100000 0  250000 100000 0  300000 100000 0  350000 100000 0  400000 100000 0  450000 100000 0  500000 100000 0  550000 100000 0  600000 100000 0  650000 100000 0  700000 100000 0  750000 100000 0  800000 100000 0  850000 100000 0  900000 100000 0  950000 100000 0  1000000 100000 0  0 150000 0  50000 150000 0  100000 150000 0  150000 150000 0  200000 150000 0  250000 150000 0  300000 150000 0  350000 150000 0  400000 150000 0  450000 150000 0  500000 150000 0  550000 150000 0  600000 150000 0  650000 150000 0  700000 150000 0  750000 150000 0  800000 150000 0  850000 150000 0  900000 150000 0  950000 150000 0  1000000 150000 0  0 200000 0  50000 200000 0  100000 200000 0  150000 200000 0  200000 200000 0  250000 200000 0  300000 200000 0  350000 200000 0  400000 200000 0  450000 200000 0  500000 200000 0  550000 200000 0  600000 200000 0  650000 200000 0  700000 200000 0  750000 200000 0  800000 200000 0  850000 200000 0  900000 200000 0  950000 200000 0  1000000 200000 0  0 250000 0  50000 250000 0  100000 250000 0  150000 250000 0  200000 250000 0  250000 250000 0  300000 250000 0  350000 250000 0  400000 250000 0  450000 250000 0  500000 250000 0  550000 250000 0  600000 250000 0  650000 250000 0  700000 250000 0  750000 250000 0  800000 250000 0  850000 250000 0  900000 250000 0  950000 250000 0  1000000 250000 0  0 300000 0  50000 300000 0  100000 300000 0  150000 300000 0  200000 300000 0  250000 300000 0  300000 300000 0  350000 300000 0  400000 300000 0  450000 300000 0  500000 300000 0  550000 300000 0  600000 300000 0  650000 300000 0  700000 300000 0  750000 300000 0  800000 300000 0  850000 300000 0  900000 300000 0  950000 300000 0  1000000 300000 0  0 350000 0  50000 350000 0  100000 350000 0  150000 350000 0  200000 350000 0  250000 350000 0  300000 350000 0  350000 350000 0  400000 350000 0  450000 350000 0  500000 350000 0  550000 350000 0  600000 350000 0  650000 350000 0  700000 350000 0  750000 350000 0  800000 350000 0  850000 350000 0  900000 350000 0  950000 350000 0  1000000 350000 0  0 400000 0  50000 400000 0  100000 400000 0  150000 400000 0  200000 400000 0  250000 400000 0  300000 400000 0  350000 400000 0  400000 400000 0  450000 400000 0  500000 400000 0  550000 400000 0  600000 400000 0  650000 400000 0  700000 400000 0  750000 400000 0  800000 400000 0  850000 400000 0  900000 400000 0  950000 400000 0  1000000 400000 0  0 450000 0  50000 450000 0  100000 450000 0  150000 450000 0  200000 450000 0  250000 450000 0  300000 450000 0  350000 450000 0  400000 450000 0  450000 450000 0  500000 450000 0  550000 450000 0  600000 450000 0  650000 450000 0  700000 450000 0  750000 450000 0  800000 450000 0  850000 450000 0  900000 450000 0  950000 450000 0  1000000 450000 0  0 500000 0  50000 500000 0  100000 500000 0  150000 500000 0  200000 500000 0  250000 500000 0  300000 500000 0  350000 500000 0  400000 500000 0  450000 500000 0  500000 500000 0  550000 500000 0  600000 500000 0  650000 500000 0  700000 500000 0  750000 500000 0  800000 500000 0  850000 500000 0  900000 500000 0  950000 500000 0  1000000 500000 0  0 550000 0  50000 550000 0  100000 550000 0  150000 550000 0  200000 550000 0  250000 550000 0  300000 550000 0  350000 550000 0  400000 550000 0  450000 550000 0  500000 550000 0  550000 550000 0  600000 550000 0  650000 550000 0  700000 550000 0  750000 550000 0  800000 550000 0  850000 550000 0  900000 550000 0  950000 550000 0  1000000 550000 0  0 600000 0  50000 600000 0  100000 600000 0  150000 600000 0  200000 600000 0  250000 600000 0  300000 600000 0  350000 600000 0  400000 600000 0  450000 600000 0  500000 600000 0  550000 600000 0  600000 600000 0  650000 600000 0  700000 600000 0  750000 600000 0  800000 600000 0  850000 600000 0  900000 600000 0  950000 600000 0  1000000 600000 0  0 650000 0  50000 650000 0  100000 650000 0  150000 650000 0  200000 650000 0  250000 650000 0  300000 650000 0  350000 650000 0  400000 650000 0  450000 650000 0  500000 650000 0  550000 650000 0  600000 650000 0  650000 650000 0  700000 650000 0  750000 650000 0  800000 650000 0  850000 650000 0  900000 650000 0  950000 650000 0  1000000 650000 0  0 700000 0  50000 700000 0  100000 700000 0  150000 700000 0  200000 700000 0  250000 700000 0  300000 700000 0  350000 700000 0  400000 700000 0  450000 700000 0  500000 700000 0  550000 700000 0  600000 700000 0  650000 700000 0  700000 700000 0  750000 700000 0  800000 700000 0  850000 700000 0  900000 700000 0  950000 700000 0  1000000 700000 0  0 750000 0  50000 750000 0  100000 750000 0  150000 750000 0  200000 750000 0  250000 750000 0  300000 750000 0  350000 750000 0  400000 750000 0  450000 750000 0  500000 750000 0  550000 750000 0  600000 750000 0  650000 750000 0  700000 750000 0  750000 750000 0  800000 750000 0  850000 750000 0  900000 750000 0  950000 750000 0  1000000 750000 0  0 800000 0  50000 800000 0  100000 800000 0  150000 800000 0  200000 800000 0  250000 800000 0  300000 800000 0  350000 800000 0  400000 800000 0  450000 800000 0  500000 800000 0  550000 800000 0  600000 800000 0  650000 800000 0  700000 800000 0  750000 800000 0  800000 800000 0  850000 800000 0  900000 800000 0  950000 800000 0  1000000 800000 0  0 850000 0  50000 850000 0  100000 850000 0  150000 850000 0  200000 850000 0  250000 850000 0  300000 850000 0  350000 850000 0  400000 850000 0  450000 850000 0  500000 850000 0  550000 850000 0  600000 850000 0  650000 850000 0  700000 850000 0  750000 850000 0  800000 850000 0  850000 850000 0  900000 850000 0  950000 850000 0  1000000 850000 0  0 900000 0  50000 900000 0  100000 900000 0  150000 900000 0  200000 900000 0  250000 900000 0  300000 900000 0  350000 900000 0  400000 900000 0  450000 900000 0  500000 900000 0  550000 900000 0  600000 900000 0  650000 900000 0  700000 900000 0  750000 900000 0  800000 900000 0  850000 900000 0  900000 900000 0  950000 900000 0  1000000 900000 0  0 950000 0  50000 950000 0  100000 950000 0  150000 950000 0  200000 950000 0  250000 950000 0  300000 950000 0  350000 950000 0  400000 950000 0  450000 950000 0  500000 950000 0  550000 950000 0  600000 950000 0  650000 950000 0  700000 950000 0  750000 950000 0  800000 950000 0  850000 950000 0  900000 950000 0  950000 950000 0  1000000 950000 0  0 1000000 0  50000 1000000 0  100000 1000000 0  150000 1000000 0  200000 1000000 0  250000 1000000 0  300000 1000000 0  350000 1000000 0  400000 1000000 0  450000 1000000 0  500000 1000000 0  550000 1000000 0  600000 1000000 0  650000 1000000 0  700000 1000000 0  750000 1000000 0  800000 1000000 0  850000 1000000 0  900000 1000000 0  950000 1000000 0  1000000 1000000 0  0 1050000 0  50000 1050000 0  100000 1050000 0  150000 1050000 0  200000 1050000 0  250000 1050000 0  300000 1050000 0  350000 1050000 0  400000 1050000 0  450000 1050000 0  500000 1050000 0  550000 1050000 0  600000 1050000 0  650000 1050000 0  700000 1050000 0  750000 1050000 0  800000 1050000 0  850000 1050000 0  900000 1050000 0  950000 1050000 0  1000000 1050000 0  0 1100000 0  50000 1100000 0  100000 1100000 0  150000 1100000 0  200000 1100000 0  250000 1100000 0  300000 1100000 0  350000 1100000 0  400000 1100000 0  450000 1100000 0  500000 1100000 0  550000 1100000 0  600000 1100000 0  650000 1100000 0  700000 1100000 0  750000 1100000 0  800000 1100000 0  850000 1100000 0  900000 1100000 0  950000 1100000 0  1000000 1100000 0  0 1150000 0  50000 1150000 0  100000 1150000 0  150000 1150000 0  200000 1150000 0  250000 1150000 0  300000 1150000 0  350000 1150000 0  400000 1150000 0  450000 1150000 0  500000 1150000 0  550000 1150000 0  600000 1150000 0  650000 1150000 0  700000 1150000 0  750000 1150000 0  800000 1150000 0  850000 1150000 0  900000 1150000 0  950000 1150000 0  1000000 1150000 0  0 1200000 0  50000 1200000 0  100000 1200000 0  150000 1200000 0  200000 1200000 0  250000 1200000 0  300000 1200000 0  350000 1200000 0  400000 1200000 0  450000 1200000 0  500000 1200000 0  550000 1200000 0  600000 1200000 0  650000 1200000 0  700000 1200000 0  750000 1200000 0  800000 1200000 0  850000 1200000 0  900000 1200000 0  950000 1200000 0  1000000 1200000 0  0 1250000 0  50000 1250000 0  100000 1250000 0  150000 1250000 0  200000 1250000 0  250000 1250000 0  300000 1250000 0  350000 1250000 0  400000 1250000 0  450000 1250000 0  500000 1250000 0  550000 1250000 0  600000 1250000 0  650000 1250000 0  700000 1250000 0  750000 1250000 0  800000 1250000 0  850000 1250000 0  900000 1250000 0  950000 1250000 0  1000000 1250000 0  0 1300000 0  50000 1300000 0  100000 1300000 0  150000 1300000 0  200000 1300000 0  250000 1300000 0  300000 1300000 0  350000 1300000 0  400000 1300000 0  450000 1300000 0  500000 1300000 0  550000 1300000 0  600000 1300000 0  650000 1300000 0  700000 1300000 0  750000 1300000 0  800000 1300000 0  850000 1300000 0  900000 1300000 0  950000 1300000 0  1000000 1300000 0  0 1350000 0  50000 1350000 0  100000 1350000 0  150000 1350000 0  200000 1350000 0  250000 1350000 0  300000 1350000 0  350000 1350000 0  400000 1350000 0  450000 1350000 0  500000 1350000 0  550000 1350000 0  600000 1350000 0  650000 1350000 0  700000 135
[...]
<PointData  Scalars="f_3001"> 
<DataArray  type="Float64"  Name="f_3001"  format="ascii">-8.0444179145113495e+00  -8.0437955330316324e+00  -8.0407403050240553e+00  -8.0352424556134903e+00  -8.0274434484454193e+00  -8.0175500339989636e+00  -8.0058246133821207e+00  -7.9925777037839527e+00  -7.9781595568377011e+00  -7.9629507694133688e+00  -7.9473521205996223e+00  -7.9317739098518638e+00  -7.9166250744873503e+00  -7.9023023681298081e+00  -7.8891798922193752e+00  -7.8775993117806786e+00  -7.8678612352084460e+00  -7.8602187027884138e+00  -7.8548742767118576e+00  -7.8519700191687294e+00  -7.8513415622833218e+00  -8.0450153130678661e+00  -8.0444065824856370e+00  -8.0413077251859093e+00  -8.0357732020911286e+00  -8.0279331881111311e+00  -8.0179906316303953e+00  -8.0062070319254737e+00  -7.9928934203046040e+00  -7.9784012858700368e+00  -7.9631128693787545e+00  -7.9474308358009482e+00  -7.9317675051276542e+00  -7.9165338825493841e+00  -7.9021287508579388e+00  -7.8889280967168176e+00  -7.8772751441092623e+00  -7.8674712320536040e+00  -7.8597674886522508e+00  -7.8543557004296218e+00  -7.8513496857932097e+00  -7.8507209637519928e+00  -8.0478907039413237e+00  -8.0473232763853559e+00  -8.0441526505120660e+00  -8.0384509323229665e+00  -8.0303739136526620e+00  -8.0201348592262924e+00  -8.0080031462915056e+00  -7.9942981776597986e+00  -7.9793809337389465e+00  -7.9636441542608480e+00  -7.9475017034659414e+00  -7.9313774598734224e+00  -7.9156940068018740e+00  -7.9008613917035131e+00  -7.8872662298599163e+00  -7.8752614451269789e+00  -7.8651569674345234e+00  -7.8572117095999960e+00  -7.8516268330453149e+00  -7.8485373950359545e+00  -7.8479724250330385e+00  -8.0530090171733786e+00  -8.0524470713214793e+00  -8.0491565929432358e+00  -8.0431832682190585e+00  -8.0346988060363085e+00  -8.0239360375869726e+00  -8.0111822043478007e+00  -7.9967745940687163e+00  -7.9810930179928024e+00  -7.9645501522170044e+00  -7.9475806653755381e+00  -7.9306296960017892e+00  -7.9141410696499808e+00  -7.8985455834517708e+00  -7.8842496839277540e+00  -7.8716249071428122e+00  -7.8609985380558509e+00  -7.8526459940755098e+00  -7.8467846934394663e+00  -7.8435628657363328e+00  -7.8429966048595290e+00  -8.0602920475806261e+00  -8.0597133053216563e+00  -8.0562345240658377e+00  -8.0498784537209875e+00  -8.0408236479940882e+00  -8.0293229653010840e+00  -8.0156878373315585e+00  -8.0002816959688445e+00  -7.9835121434954868e+00  -7.9658210887075676e+00  -7.9476734866636871e+00  -7.9295452882420836e+00  -7.9119110599198157e+00  -7.8952316587239757e+00  -7.8799423363350289e+00  -7.8664416824064407e+00  -7.8550818570298491e+00  -7.8461603723036779e+00  -7.8399120872078738e+00  -7.8364915674897144e+00  -7.8358930879775084e+00  -8.0696957197447734e+00  -8.0690834134487037e+00  -8.0653452140545312e+00  -8.0584886246164498e+00  -8.0486991343442895e+00  -8.0362503169216239e+00  -8.0214820476100606e+00  -8.0047906708131968e+00  -7.9866196899368589e+00  -7.9674490433103964e+00  -7.9477831100465117e+00  -7.9281379140060393e+00  -7.9090279705800057e+00  -7.8909531732891081e+00  -7.8743861035511138e+00  -7.8597601562193278e+00  -7.8474588283791569e+00  -7.8378061045186325e+00  -7.8310558013614662e+00  -7.8273685108968420e+00  -7.8267208641846731e+00  -8.0812075959519163e+00  -8.0805474032697546e+00  -8.0764792609655824e+00  -8.0690012954372605e+00  -8.0583095990186830e+00  -8.0447014578692819e+00  -8.0285495889283993e+00  -8.0102894284181403e+00  -7.9904078805979832e+00  -7.9694312241828928e+00  -7.9479120101149929e+00  -7.9264152558927785e+00  -7.9055043082777230e+00  -7.8857267341308628e+00  -7.8676005900065666e+00  -7.8516014107780556e+00  -7.8381501581420103e+00  -7.8276018482626837e+00  -7.8202323324854506e+00  -7.8162110866002221e+00  -7.8155014553729938e+00  -8.0948403940586182e+00  -8.0941190099506581e+00  -8.0896509384140991e+00  -8.0814287536197007e+00  -8.0696638931043676e+00  -8.0546819527101547e+00  -8.0368937284768958e+00  -8.0167800633845019e+00  -7.9948785687276507e+00  -7.9717698724213388e+00  -7.9480631195618070e+00  -7.9243809209771641e+00  -7.9013440341250574e+00  -7.8795560650293464e+00  -7.8595884781075842e+00  -7.8419661903080620e+00  -7.8271539187893229e+00  -7.8155429095597535e+00  -7.8074353411274222e+00  -7.8030134838186278e+00  -7.8022302667094490e+00  -8.1106247840977179e+00  -8.1098292188607157e+00  -8.1048909455375036e+00  -8.0957995168588521e+00  -8.0827867069532022e+00  -8.0662119617479977e+00  -8.0465302290362732e+00  -8.0242745101927753e+00  -8.0000405216678985e+00  -7.9744711216655393e+00  -7.9482402253333770e+00  -7.9220363451290439e+00  -7.8965459527343853e+00  -7.8724368556162148e+00  -7.8503417862693272e+00  -7.8308424108737338e+00  -7.8144538860087094e+00  -7.8016095708535262e+00  -7.7926430626180636e+00  -7.7877536343147931e+00  -7.7868855620205251e+00  -8.1286016556193506e+00  -8.1277188433527492e+00  -8.1222389789038729e+00  -8.1121504881814683e+00  -8.0977106036490145e+00  -8.0793188202169688e+00  -8.0574810398203152e+00  -8.0327896881591876e+00  -8.0059062001506547e+00  -7.9775434977552049e+00  -7.9484482139911288e+00  -7.9193827588747681e+00  -7.8911073231314122e+00  -7.8643618854058319e+00  -7.8398482994832897e+00  -7.8182125821226061e+00  -7.8000275000807067e+00  -7.7857750730984909e+00  -7.7758260241735044e+00  -7.7704010108120052e+00  -7.7694368145926180e+00  -8.1488135639050796e+00  -8.1478301126876058e+00  -8.1417354951185281e+00  -8.1305187273988881e+00  -8.1144679140562239e+00  -8.0940294409301501e+00  -8.0697676744076610e+00  -8.0423422598909902e+00  -8.0124881929233034e+00  -7.9809962138416264e+00  -7.9486933066085594e+00  -7.9164233407624360e+00  -7.8850278122707893e+00  -7.8553265665949992e+00  -7.8280984040900075e+00  -7.8040615634263260e+00  -7.7838541386268512e+00  -7.7680140625921652e+00  -7.7569555348709702e+00  -7.7509252850734587e+00  -7.7498535418043231e+00  -8.1712949647514073e+00  -8.1701969800889334e+00  -8.1634121984343526e+00  -8.1509321180000587e+00  -8.1330817078483211e+00  -8.1103619014088242e+00  -8.0834038399858041e+00  -8.0529427387097741e+00  -8.0197951708797355e+00  -7.9848372278031068e+00  -7.9489833417568727e+00  -7.9131657060978551e+00  -7.8783140319862337e+00  -7.8453352505202485e+00  -7.8150927934814156e+00  -7.7883852523508308e+00  -7.7659243902679478e+00  -7.7483121529008496e+00  -7.7360134040793742e+00  -7.7293061989481231e+00  -7.7281152507730395e+00  -8.1960607936170220e+00  -8.1948337414991386e+00  -8.1872807931875116e+00  -8.1733983328412290e+00  -8.1535551590654407e+00  -8.1283155559641305e+00  -8.0983867632259976e+00  -8.0645885311489298e+00  -8.0278270963729188e+00  -7.9890709469675567e+00  -7.9493281386805750e+00  -7.9096249067588573e+00  -7.8709849729902288e+00  -7.8344087398097155e+00  -7.8008515978845319e+00  -7.7712008356800757e+00  -7.7462509754437994e+00  -7.7266771842654247e+00  -7.7130033648007439e+00  -7.7055450907322038e+00  -7.7042229996592102e+00  -8.2230928898247591e+00  -8.2217214756491224e+00  -8.2133194806767467e+00  -8.1978914938656278e+00  -8.1758586287026880e+00  -8.1478589854570291e+00  -8.1146865901130969e+00  -8.0772554147972748e+00  -8.0365693474964903e+00  -7.9936954186958236e+00  -7.9497399648748992e+00  -7.9058271488917331e+00  -7.8630787122479608e+00  -7.8225935273139600e+00  -7.7854255652836803e+00  -7.7525592823668781e+00  -7.7248819830692623e+00  -7.7031527852102197e+00  -7.6879647314613111e+00  -7.6796785765127540e+00  -7.6782130864321871e+00  -8.2523237040278961e+00  -8.2507917416585226e+00  -8.2414565934414092e+00  -8.2243358403242528e+00  -8.1999137102108719e+00  -8.1689150166527753e+00  -8.1322331513588892e+00  -8.0908868708704453e+00  -8.0459853540476729e+00  -7.9986988102782446e+00  -7.9502341306220536e+00  -7.9018144681856661e+00  -7.8546608342310655e+00  -7.8099733701540739e+00  -7.7689100183553048e+00  -7.7325608534537400e+00  -7.7019171791062035e+00  -7.6778349233405754e+00  -7.6609889011766699e+00  -7.6517949516314561e+00  -7.6501734270320902e+00  -8.2836166527631878e+00  -8.2819068868484447e+00  -8.2715506491652597e+00  -8.2525855879368901e+00  -8.2255733442957695e+00  -8.1913419100701912e+00  -8.1508992702859064e+00  -8.1053806022320263e+00  -8.0560072825398308e+00  -8.0040549516760127e+00  -7.9508297324209698e+00  -7.8976506327844351e+00  -7.8458350707319955e+00  -7.7966839059034596e+00  -7.7514624403134587e+00  -7.7113745492432626e+00  -7.6775282894011756e+00  -7.6508922645414410e+00  -7.6322394156741531e+00  -7.6220539603100876e+00  -7.6202632588786097e+00  -8.3167423893660377e+00  -8.3148362118561412e+00  -8.3033659587302431e+00  -8.2823999738427609e+00  -8.2525969101154324e+00  -8.2149096382324487e+00  -8.1704796580491905e+00  -8.1205714849057102e+00  -8.0665242640836450e+00  -8.0097176954883853e+00  -7.9515505636856441e+00  -7.8934285588866251e+00  -7.8367567108525140e+00  -7.7829311125541016e+00  -7.7333246917970904e+00  -7.6892626072863868e+00  -7.6519843685184057e+00  -7.6225913508641554e+00  -7.6019764508027645e+00  -7.5907106928752608e+00  -7.5887369078093680e+00  -8.3513501287456151e+00  -8.3492270914004738e+00  -8.3365427103265635e+00  -8.3134122147421756e+00  -8.2806189327289719e+00  -8.2392699695548810e+00  -8.1906643254868854e+00  -8.1362101667045845e+00  -8.0773676679599049e+00  -8.0156138591492052e+00  -7.9524261994023169e+00  -7.8892794956988466e+00  -7.8276493206063407e+00  -7.7690144626912359e+00  -7.7148510035623268e+00  -7.6666114006418962e+00  -7.6256836547260729e+00  -7.5933278854554676e+00  -7.5705868206385833e+00  -7.5581445323771863e+00  -7.5559725062181711e+00  -8.3869329595733149e+00  -8.3845699158859919e+00  -8.3705601190385917e+00  -8.3450907088287671e+00  -8.3091096957861161e+00  -8.2639188693203511e+00  -8.2110054143030169e+00  -8.1519366284044104e+00  -8.0882930599998524e+00  -8.0216345935980051e+00  -7.9534932333159380e+00  -7.8853841112828933e+00  -7.8188251571098517e+00  -7.7553555376897050e+00  -7.6965429626361406e+00  -7.6439703462862285e+00  -7.5991937075048099e+00  -7.5636658342462209e+00  -7.5386209307567693e+00  -7.5248943308738303e+00  -7.5225067891014827e+00  -8.4227857315105759e+00  -8.4201553185430331e+00  -8.4046906705719895e+00  -8.3766901952578650e+00  -8.3373255972967222e+00  -8.2881496064026390e+00  -8.2308765604305041e+00  -8.1672484278477082e+00  -8.0989588842605293e+00  -8.0276252398285628e+00  -7.9547965881627771e+00  -7.8819852952839806e+00  -7.8107092136641976e+00  -7.7425324806306790e+00  -7.6790925792569427e+00  -7.6221006664522948e+00  -7.5733021704893879e+00  -7.5343867237600772e+00  -7.5068387022588459e+00  -7.4917014394914059e+00  -7.4890775059114549e+00  -8.4579534798219296e+00  -8.4550214168904372e+00  -8.4379424827859726e+00  -8.4071895879839680e+00  -8.3642465384439699e+00  -8.3109950950749880e+00  -8.2494246394997912e+00  -8.1814643543596173e+00  -8.1089027972723695e+00  -8.0333742025558408e+00  -7.9563907109294592e+00  -7.8794018364539919e+00  -7.8038658295892196e+00  -7.7313196664143717e+00  -7.6634339166313925e+00  -7.6020359152797710e+00  -7.5490812498628230e+00  -7.5065526246577727e+00  -7.4762675357893205e+00  -7.4595630222728868e+00  -7.4566757333133644e+00  -8.4911671754807667e+00  -8.4878873773682244e+00  -8.4689849236539168e+00  -8.4352115571064026e+00  -8.3884970850332312e+00  -8.3311588206498275e+00  -8.2655155586100335e+00  -8.1936863323228035e+00  -8.1175183166821405e+00  -8.0386022529944210e+00  -7.9583402791233562e+00  -7.8780409105502471e+00  -7.7990248324016811e+00  -7.7227298108351761e+00  -7.6508021463429285e+00  -7.5851557534809677e+00  -7.5279699661250739e+00  -7.4815882077142879e+00  -7.4482773381604011e+00  -7.4297996076466486e+00  -7.4266117843491379e+00  -8.5207613317610313e+00  -8.5170667518051104e+00  -8.4960489681195011e+00  -8.4589162527146922e+00  -8.4082479892276076e+00  -8.3469361207380182e+00  -8.2776796499959904e+00  -8.2027664019184101e+00  -8.1240374850860686e+00  -8.0429551684936538e+00  -7.9607197562612484e+00  -7.8784052613287843e+00  -7.7971006761335317e+00  -7.7180515331030284e+00  -7.6427952134512678e+00  -7.5732727137641254e+00  -7.5118792712251459e+00  -7.4613905426695197e+00  -7.4246814152778446e+00  -7.4041438155970294e+00  -7.4006011582323783e+00  -8.5445635817614622e+00  -8.5403479763603549e+00  -8.5167865191933387e+00  -8.4758575135116718e+00  -8.4210962322639915e+00  -8.3561336242467394e+00  -8.2840698926777918e+00  -8.2072924898199471e+00  -8.1275300400768629e+00  -8.0460048675175049e+00  -7.9636107524634676e+00  -7.8810878939635032e+00  -7.7991923783460244e+00  -7.7188678000885824e+00  -7.6414255813715011e+00  -7.5687267103052029e+00  -7.5033254116813755e+00  -7.4484809237944898e+00  -7.4078796261829396e+00  -7.3848632840057791e+00  -7.3808825313571935e+00  -8.5597375392104986e+00  -8.5548157134773692e+00  -8.5280584147931933e+00  -8.4827851658852769e+00  -8.4239289564624098e+00  -8.3560084183098375e+00  -8.2824601956201249e+00  -8.2056173566100661e+00  -8.1269361018602009e+00  -8.0472670406227689e+00  -7.9670957664484483e+00  -7.8867432917659830e+00  -7.8065440661348546e+00  -7.7270281638409264e+00  -7.6491342523078618e+00  -7.5744691881829462e+00  -7.5055934272973914e+00  -7.4462220236315213e+00  -7.4010760298869842e+00  -7.3749439481676804e+00  -7.3703916086447396e+00  -8.5625422183410933e+00  -8.5565530547099478e+00  -8.5255927926609463e+00  -8.4753773532617132e+00  -8.4128000273784007e+00  -8.3432777218867749e+00  -8.2703341160839177e+00  -8.1959690554252038e+00  -8.1211560956767936e+00  -8.0462457130243177e+00  -7.9712467532620428e+00  -7.8960210255185785e+00  -7.8204371976062932e+00  -7.7445297977534988e+00  -7.6687111235823604e+00  -7.5940873991930182e+00  -7.5229149594682481e+00  -7.4591351445126417e+00  -7.4086375820240553e+00  -7.3783906209802383e+00  -7.3730417540728936e+00  -8.5479308682590140e+00  -8.5400750547268274e+00  -8.5034090224566405e+00  -8.4479171521377570e+00  -8.3829128515265747e+00  -8.3143058350812922e+00  -8.2451462752942088e+00  -8.1766932938925940e+00  -8.1092234895306561e+00  -8.0425144749132080e+00  -7.9761073404365010e+00  -7.9094485235139516e+00  -7.8419817782417542e+00  -7.7732438813586295e+00  -7.7030209007247903e+00  -7.6316478612778553e+00  -7.5605786479635606e+00  -7.4933492219196784e+00  -7.4367366422307262e+00  -7.4007828727714173e+00  -7.3942318608910718e+00  -8.5087867420933438e+00  -8.4970978689659891e+00  -8.4528717442142387e+00  -8.3930737471694812e+00  -8.3289590717830908e+00  -8.2656634748932678e+00  -8.2048648846435501e+00  -8.1466720336421190e+00  -8.0905717054614552e+00  -8.0358346093293171e+00  -7.9816676999555076e+00  -7.9272594722152769e+00  -7.8717870173440048e+00  -7.8144233265191980e+00  -7.7543853798935265e+00  -7.6911017916748223e+00  -7.6246825728616932e+00  -7.5570912466502449e+00  -7.4945688398587160e+00  -7.4504731318488950e+00  -7.4419098524974983e+00  -8.4340116061259405e+00  -8.4136441815899801e+00  -8.3614915193088653e+00  -8.3024444057286200e+00  -8.2463605541472571e+00  -8.1953314508995945e+00  -8.1488696443351909e+00  -8.1059014489230599e+00  -8.0653558110539425e+00  -8.0262810794832564e+00  -7.9878252214664220e+00  -7.9491825171901791e+00  -7.9095331521859791e+00  -7.8679799574493208e+00  -7.8234855865543551e+00  -7.7748347590110560e+00  -7.7207320673276314e+00  -7.6604490554907532e+00  -7.5964233297501913e+00  -7.5417359130028414e+00  -7.5292362530746200e+00  -8.3012040509805480e+00  -8.2635524174978947e+00  -8.2133214216300470e+00  -8.1697542866165076e+00  -8.1342490649352293e+00  -8.1046617323826577e+00  -8.0790408674526706e+00  -8.0560217174280204e+00  -8.0346610107372474e+00  -8.0142662515959540e+00  -7.9942795393047987e+00  -7.9741982153759938e+00  -7.9535111978929933e+00  -7.9316330572684040e+00  -7.9078160817355441e+00  -7.8810110574077168e+00  -7.8496330902997800e+00  -7.8112249247625760e+00  -7.7625095959413004e+00  -7.7042699803808787e+00  -7.6834014250337024e+00  -8.0000000000000000e+00  -8.0000000000000000e+00  -8.0000000000000000e+00  -8.0000000000000000e+00  -8.0000000000000000e+00  -8.0000000000000000e+00  -8.0000000000000000e+00  -8.0000000000000000e+00  -8.0000000000000000e+00  -8.0000000000000000e+00  -8.0000000000000000e+00  -8.0000000000000000e+00  -8.0000000000000000e+00  -8.0000000000000000e+00  -8.0000000000000000e+00  -8.0000000000000000e+00  -8.0000000000000000e+00  -8.0000000000000000e+00  -8.0000000000000000e+00  -8.0000000000000000e+00  -8.0000000000000000e+00  </DataArray> 
</PointData> 
</Piece>
</UnstructuredGrid>
</VTKFile>