<?xml version="1.0"?>
<VTKFile type="UnstructuredGrid"  version="0.1"  >
<UnstructuredGrid>
<Piece  NumberOfPoints="651" NumberOfCells="1200">
<Points>
<DataArray  type="Float64"  NumberOfComponents="3"  format="ascii">0 0 0  50000 0 0  100000 0 0  150000 0 0  200000 0 0  250000 0 0  300000 0 0  350000 0 0  400000 0 0  450000 0 0  500000 0 0  550000 0 0  600000 0 0  650000 0 0  700000 0 0  750000 0 0  800000 0 0  850000 0 0  900000 0 0  950000 0 0  1000000 0 0  0 50000 0  50000 50000 0  100000 50000 0  150000 50000 0  200000 50000 0  250000 50000 0  300000 50000 0  350000 50000 0  400000 50000 0  450000 50000 0  500000 50000 0  550000 50000 0  600000 50000 0  650000 50000 0  700000 50000 0  750000 50000 0  800000 50000 0  850000 50000 0  900000 50000 0  950000 50000 0  1000000 50000 0  0 100000 0  50000 100000 0  100000 100000 0  150000 100000 0  200000 100000 0  250000 100000 0  300000 100000 0  350000 100000 0  400000 100000 0  450000 100000 0  500000 100000 0  550000 100000 0  600000 100000 0  650000 100000 0  700000 100000 0  750000 100000 0  800000 100000 0  850000 100000 0  900000 100000 0  950000 100000 0  1000000 100000 0  0 150000 0  50000 150000 0  100000 150000 0  150000 150000 0  200000 150000 0  250000 150000 0  300000 150000 0  350000 150000 0  400000 150000 0  450000 150000 0  500000 150000 0  550000 150000 0  600000 150000 0  650000 150000 0  700000 150000 0  750000 150000 0  800000 150000 0  850000 150000 0  900000 150000 0  950000 150000 0  1000000 150000 0  0 200000 0  50000 200000 0  100000 200000 0  150000 200000 0  200000 200000 0  250000 200000 0  300000 200000 0  350000 200000 0  400000 200000 0  450000 200000 0  500000 200000 0  550000 200000 0  600000 200000 0  650000 200000 0  700000 200000 0  750000 200000 0  800000 200000 0  850000 200000 0  900000 200000 0  950000 200000 0  1000000 200000 0  0 250000 0  50000 250000 0  100000 250000 0  150000 250000 0  200000 250000 0  250000 250000 0  300000 250000 0  350000 250000 0  400000 250000 0  450000 250000 0  500000 250000 0  550000 250000 0  600000 250000 0  650000 250000 0  700000 250000 0  750000 250000 0  800000 250000 0  850000 250000 0  900000 250000 0  950000 250000 0  1000000 250000 0  0 300000 0  50000 300000 0  100000 300000 0  150000 300000 0  200000 300000 0  250000 300000 0  300000 300000 0  350000 300000 0  400000 300000 0  450000 300000 0  500000 300000 0  550000 300000 0  600000 300000 0  650000 300000 0  700000 300000 0  750000 300000 0  800000 300000 0  850000 300000 0  900000 300000 0  950000 300000 0  1000000 300000 0  0 350000 0  50000 350000 0  100000 350000 0  150000 350000 0  200000 350000 0  250000 350000 0  300000 350000 0  350000 350000 0  400000 350000 0  450000 350000 0  500000 350000 0  550000 350000 0  600000 350000 0  650000 350000 0  700000 350000 0  750000 350000 0  800000 350000 0  850000 350000 0  900000 350000 0  950000 350000 0  1000000 350000 0  0 400000 0  50000 400000 0  100000 400000 0  150000 400000 0  200000 400000 0  250000 400000 0  300000 400000 0  350000 400000 0  400000 400000 0  450000 400000 0  500000 400000 0  550000 400000 0  600000 400000 0  650000 400000 0  700000 400000 0  750000 400000 0  800000 400000 0  850000 400000 0  900000 400000 0  950000 400000 0  1000000 400000 0  0 450000 0  50000 450000 0  100000 450000 0  150000 450000 0  200000 450000 0  250000 450000 0  300000 450000 0  350000 450000 0  400000 450000 0  450000 450000 0  500000 450000 0  550000 450000 0  600000 450000 0  650000 450000 0  700000 450000 0  750000 450000 0  800000 450000 0  850000 450000 0  900000 450000 0  950000 450000 0  1000000 450000 0  0 500000 0  50000 500000 0  100000 500000 0  150000 500000 0  200000 500000 0  250000 500000 0  300000 500000 0  350000 500000 0  400000 500000 0  450000 500000 0  500000 500000 0  550000 500000 0  600000 500000 0  650000 500000 0  700000 500000 0  750000 500000 0  800000 500000 0  850000 500000 0  900000 500000 0  950000 500000 0  1000000 500000 0  0 550000 0  50000 550000 0  100000 550000 0  150000 550000 0  200000 550000 0  250000 550000 0  300000 550000 0  350000 550000 0  400000 550000 0  450000 550000 0  500000 550000 0  550000 550000 0  600000 550000 0  650000 550000 0  700000 550000 0  750000 550000 0  800000 550000 0  850000 550000 0  900000 550000 0  950000 550000 0  1000000 550000 0  0 600000 0  50000 600000 0  100000 600000 0  150000 600000 0  200000 600000 0  250000 600000 0  300000 600000 0  350000 600000 0  400000 600000 0  450000 600000 0  500000 600000 0  550000 600000 0  600000 600000 0  650000 600000 0  700000 600000 0  750000 600000 0  800000 600000 0  850000 600000 0  900000 600000 0  950000 600000 0  1000000 600000 0  0 650000 0  50000 650000 0  100000 650000 0  150000 650000 0  200000 650000 0  250000 650000 0  300000 650000 0  350000 650000 0  400000 650000 0  450000 650000 0  500000 650000 0  550000 650000 0  600000 650000 0  650000 650000 0  700000 650000 0  750000 650000 0  800000 650000 0  850000 650000 0  900000 650000 0  950000 650000 0  1000000 650000 0  0 700000 0  50000 700000 0  100000 700000 0  150000 700000 0  200000 700000 0  250000 700000 0  300000 700000 0  350000 700000 0  400000 700000 0  450000 700000 0  500000 700000 0  550000 700000 0  600000 700000 0  650000 700000 0  700000 700000 0  750000 700000 0  800000 700000 0  850000 700000 0  900000 700000 0  950000 700000 0  1000000 700000 0  0 750000 0  50000 750000 0  100000 750000 0  150000 750000 0  200000 750000 0  250000 750000 0  300000 750000 0  350000 750000 0  400000 750000 0  450000 750000 0  500000 750000 0  550000 750000 0  600000 750000 0  650000 750000 0  700000 750000 0  750000 750000 0  800000 750000 0  850000 750000 0  900000 750000 0  950000 750000 0  1000000 750000 0  0 800000 0  50000 800000 0  100000 800000 0  150000 800000 0  200000 800000 0  250000 800000 0  300000 800000 0  350000 800000 0  400000 800000 0  450000 800000 0  500000 800000 0  550000 800000 0  600000 800000 0  650000 800000 0  700000 800000 0  750000 800000 0  800000 800000 0  850000 800000 0  900000 800000 0  950000 800000 0  1000000 800000 0  0 850000 0  50000 850000 0  100000 850000 0  150000 850000 0  200000 850000 0  250000 850000 0  300000 850000 0  350000 850000 0  400000 850000 0  450000 850000 0  500000 850000 0  550000 850000 0  600000 850000 0  650000 850000 0  700000 850000 0  750000 850000 0  800000 850000 0  850000 850000 0  900000 850000 0  950000 850000 0  1000000 850000 0  0 900000 0  50000 900000 0  100000 900000 0  150000 900000 0  200000 900000 0  250000 900000 0  300000 900000 0  350000 900000 0  400000 900000 0  450000 900000 0  500000 900000 0  550000 900000 0  600000 900000 0  650000 900000 0  700000 900000 0  750000 900000 0  800000 900000 0  850000 900000 0  900000 900000 0  950000 900000 0  1000000 900000 0  0 950000 0  50000 950000 0  100000 950000 0  150000 950000 0  200000 950000 0  250000 950000 0  300000 950000 0  350000 950000 0  400000 950000 0  450000 950000 0  500000 950000 0  550000 950000 0  600000 950000 0  650000 950000 0  700000 950000 0  750000 950000 0  800000 950000 0  850000 950000 0  900000 950000 0  950000 950000 0  1000000 950000 0  0 1000000 0  50000 1000000 0  100000 1000000 0  150000 1000000 0  200000 1000000 0  250000 1000000 0  300000 1000000 0  350000 1000000 0  400000 1000000 0  450000 1000000 0  500000 1000000 0  550000 1000000 0  600000 1000000 0  650000 1000000 0  700000 1000000 0  750000 1000000 0  800000 1000000 0  850000 1000000 0  900000 1000000 0  950000 1000000 0  1000000 1000000 0  0 1050000 0  50000 1050000 0  100000 1050000 0  150000 1050000 0  200000 1050000 0  250000 1050000 0  300000 1050000 0  350000 1050000 0  400000 1050000 0  450000 1050000 0  500000 1050000 0  550000 1050000 0  600000 1050000 0  650000 1050000 0  700000 1050000 0  750000 1050000 0  800000 1050000 0  850000 1050000 0  900000 1050000 0  950000 1050000 0  1000000 1050000 0  0 1100000 0  50000 1100000 0  100000 1100000 0  150000 1100000 0  200000 1100000 0  250000 1100000 0  300000 1100000 0  350000 1100000 0  400000 1100000 0  450000 1100000 0  500000 1100000 0  550000 1100000 0  600000 1100000 0  650000 1100000 0  700000 1100000 0  750000 1100000 0  800000 1100000 0  850000 1100000 0  900000 1100000 0  950000 1100000 0  1000000 1100000 0  0 1150000 0  50000 1150000 0  100000 1150000 0  150000 1150000 0  200000 1150000 0  250000 1150000 0  300000 1150000 0  350000 1150000 0  400000 1150000 0  450000 1150000 0  500000 1150000 0  550000 1150000 0  600000 1150000 0  650000 1150000 0  700000 1150000 0  750000 1150000 0  800000 1150000 0  850000 1150000 0  900000 1150000 0  950000 1150000 0  1000000 1150000 0  0 1200000 0  50000 1200000 0  100000 1200000 0  150000 1200000 0  200000 1200000 0  250000 1200000 0  300000 1200000 0  350000 1200000 0  400000 1200000 0  450000 1200000 0  500000 1200000 0  550000 1200000 0  600000 1200000 0  650000 1200000 0  700000 1200000 0  750000 1200000 0  800000 1200000 0  850000 1200000 0  900000 1200000 0  950000 1200000 0  1000000 1200000 0  0 1250000 0  50000 1250000 0  100000 1250000 0  150000 1250000 0  200000 1250000 0  250000 1250000 0  300000 1250000 0  350000 1250000 0  400000 1250000 0  450000 1250000 0  500000 1250000 0  550000 1250000 0  600000 1250000 0  650000 1250000 0  700000 1250000 0  750000 1250000 0  800000 1250000 0  850000 1250000 0  900000 1250000 0  950000 1250000 0  1000000 1250000 0  0 1300000 0  50000 1300000 0  100000 1300000 0  150000 1300000 0  200000 1300000 0  250000 1300000 0  300000 1300000 0  350000 1300000 0  400000 1300000 0  450000 1300000 0  500000 1300000 0  550000 1300000 0  600000 1300000 0  650000 1300000 0  700000 1300000 0  750000 1300000 0  800000 1300000 0  850000 1300000 0  900000 1300000 0  950000 1300000 0  1000000 1300000 0  0 1350000 0  50000 1350000 0  100000 1350000 0  150000 1350000 0  200000 1350000 0  250000 1350000 0  300000 1350000 0  350000 1350000 0  400000 1350000 0  450000 1350000 0  500000 1350000 0  550000 1350000 0  600000 1350000 0  650000 1350000 0  700000 135
[...]
<PointData  Scalars="f_3001"> 
<DataArray  type="Float64"  Name="f_3001"  format="ascii">-8.0961247648637791e+00  -8.0947832559584736e+00  -8.0881433138337169e+00  -8.0761853239263370e+00  -8.0592206066086671e+00  -8.0377014560265874e+00  -8.0122001759336872e+00  -7.9833928093950055e+00  -7.9520410534002446e+00  -7.9189720027371893e+00  -7.8850562316658070e+00  -7.8511848073000623e+00  -7.8182458325148589e+00  -7.7871011223350406e+00  -7.7585636409515049e+00  -7.7333764143377328e+00  -7.7121939666571180e+00  -7.6955683730811275e+00  -7.6839432831169052e+00  -7.6776323086249754e+00  -7.6762725989901792e+00  -8.0973984934614354e+00  -8.0960874364556705e+00  -8.0893520504318683e+00  -8.0773150781911021e+00  -8.0602627179253190e+00  -8.0386387554066339e+00  -8.0130133929202412e+00  -7.9840636962595006e+00  -7.9525539742885467e+00  -7.9193148213713371e+00  -7.8852208373685650e+00  -7.8511674068958852e+00  -7.8180470530168336e+00  -7.7867259276120135e+00  -7.7580210204418556e+00  -7.7326786743943634e+00  -7.7113549175686771e+00  -7.6945974953327418e+00  -7.6828260504611823e+00  -7.6762911896229831e+00  -7.6749316483696282e+00  -8.1036351132376421e+00  -8.1024173161621231e+00  -8.0955277930152914e+00  -8.0831276612716305e+00  -8.0655600167238770e+00  -8.0432913973651505e+00  -8.0169092240748618e+00  -7.9871087807734256e+00  -7.9546750088953040e+00  -7.9204613198242102e+00  -7.8853666494268992e+00  -7.8503114971927763e+00  -7.8162135433871054e+00  -7.7839634179956665e+00  -7.7544012120738692e+00  -7.7282943618508826e+00  -7.7063175987180106e+00  -7.6890356667966033e+00  -7.6768888095113859e+00  -7.6701744881985707e+00  -7.6689584407637472e+00  -8.1147545189035348e+00  -8.1135515597992569e+00  -8.1064048599998397e+00  -8.0934157644598717e+00  -8.0749623571918452e+00  -8.0515543418719222e+00  -8.0238183565654531e+00  -7.9924887867950911e+00  -7.9583916453645243e+00  -7.9224237726810527e+00  -7.8855293965416067e+00  -7.8486752875086303e+00  -7.8128253567582808e+00  -7.7789154026658025e+00  -7.7478287080312231e+00  -7.7203732867538015e+00  -7.6972617741179281e+00  -7.6790950567221188e+00  -7.6663490549275357e+00  -7.6593499551811401e+00  -7.6581337677976329e+00  -8.1305800818660590e+00  -8.1293434832572942e+00  -8.1217909536570865e+00  -8.1079720333433301e+00  -8.0882793488087223e+00  -8.0632665079371559e+00  -8.0336131631370993e+00  -8.0001108597873518e+00  -7.9636462534916141e+00  -7.9251798935204087e+00  -7.8857219649969466e+00  -7.8463063173599723e+00  -7.8079637810493434e+00  -7.7716956052674284e+00  -7.7384478246592483e+00  -7.7090874423534643e+00  -7.6843814026014865e+00  -7.6649788918093238e+00  -7.6513939171650991e+00  -7.6439660743773370e+00  -7.6426820505317012e+00  -8.1510098956281958e+00  -8.1497034104613597e+00  -8.1415904579600973e+00  -8.1266860858614649e+00  -8.1053975707497070e+00  -8.0783236872974999e+00  -8.0462062441752931e+00  -8.0099086474415362e+00  -7.9703958421327714e+00  -7.9287112266861532e+00  -7.8859508176475570e+00  -7.8432356784683126e+00  -7.8016835766787302e+00  -7.7623807275777308e+00  -7.7263544514824671e+00  -7.6945475902949907e+00  -7.6677954234375170e+00  -7.6468048855073105e+00  -7.6321312391319802e+00  -7.6241267404665196e+00  -7.6227382436104172e+00  -8.1760113631393221e+00  -8.1746042178990415e+00  -8.1657776991648294e+00  -8.1495255778100049e+00  -8.1262778915452163e+00  -8.0966850273254352e+00  -8.0615604093600766e+00  -8.0218526671705419e+00  -7.9786212929866300e+00  -7.9330105641255528e+00  -7.8862213080641110e+00  -7.8394811551767125e+00  -7.7940140781825207e+00  -7.7510099919756836e+00  -7.7115951666029146e+00  -7.6768041803396692e+00  -7.6475539115450832e+00  -7.6246188895087306e+00  -7.6086022837936707e+00  -7.5998753269044261e+00  -7.5983548979491236e+00  -8.2056069501147508e+00  -8.2040706864688104e+00  -8.1943788724373707e+00  -8.1765126105618755e+00  -8.1509351962664329e+00  -8.1183586473260334e+00  -8.0796793305466501e+00  -8.0359447465699887e+00  -7.9883247371972708e+00  -7.9380817903273018e+00  -7.8865397748509984e+00  -7.8350515030716394e+00  -7.7849657231067999e+00  -7.7375941561216184e+00  -7.6941791887309581e+00  -7.6558628041177839e+00  -7.6236570883830082e+00  -7.5984154233493566e+00  -7.5807982389556088e+00  -7.5712043933136517e+00  -7.5695272921528192e+00  -8.2398583835429786e+00  -8.2381653059700088e+00  -8.2274560906612688e+00  -8.2077048560233443e+00  -8.1794191790345483e+00  -8.1433848127715844e+00  -8.1005942402294675e+00  -8.0522084350524601e+00  -7.9995235743258934e+00  -7.9439373826106978e+00  -7.8869144325336329e+00  -7.8299506664808121e+00  -7.7745375460959796e+00  -7.7221262329019735e+00  -7.6740922140285361e+00  -7.6317008017668115e+00  -7.5960737514451333e+00  -7.5681560600629734e+00  -7.5486765301646450e+00  -7.5380709299755537e+00  -7.5362131866423123e+00  -8.2788497454769896e+00  -8.2769720567638867e+00  -8.2650911357646617e+00  -8.2431783489835979e+00  -8.2117968302555173e+00  -8.1718196068547382e+00  -8.1243500491232972e+00  -8.0706783262741180e+00  -8.0122433944261982e+00  -7.9505951182523678e+00  -7.8873559164339744e+00  -7.8241821045381865e+00  -7.7627251209554000e+00  -7.7045927598829174e+00  -7.6513105589683965e+00  -7.6042835810861868e+00  -7.5647587672191738e+00  -7.5337869387543019e+00  -7.5121777194106212e+00  -7.5004134217536871e+00  -7.4983511094156112e+00  -8.3226688317534414e+00  -8.3205780816953361e+00  -8.3073675104548261e+00  -8.2830095373115888e+00  -8.2481347308954955e+00  -8.2037183165469916e+00  -8.1509908583715944e+00  -8.0913885903564502e+00  -8.0265101794121883e+00  -7.9580743476469991e+00  -7.8878777997713687e+00  -7.8177535047277873e+00  -7.7495292115877614e+00  -7.6849859260511133e+00  -7.6258161107791294e+00  -7.5735815766057923e+00  -7.5296711467049819e+00  -7.4952572018804169e+00  -7.4712440207187161e+00  -7.4581707290059196e+00  -7.4558796260743829e+00  -8.3713859292480475e+00  -8.3690526243615917e+00  -8.3543497705184979e+00  -8.3272549975991073e+00  -8.2884794163528905e+00  -8.2391171248044390e+00  -8.1805439130976847e+00  -8.1143601437689181e+00  -8.0423414950088077e+00  -7.9663917681110989e+00  -7.8884972154250539e+00  -7.8106822087983847e+00  -7.7349656581427908e+00  -7.6633173099206324e+00  -7.5976131088701386e+00  -7.5395891639696586e+00  -7.4907942236058656e+00  -7.4525397901201318e+00  -7.4258404298014931e+00  -7.4113035517461601e+00  -7.4087589679894421e+00  -8.4250290497869909e+00  -8.4224223494788877e+00  -8.4060591394427373e+00  -8.3759275123142878e+00  -8.3328343159092277e+00  -8.2780116631283356e+00  -8.2130007840941541e+00  -8.1395855546221494e+00  -8.0597360993445744e+00  -7.9755564503166028e+00  -7.8892356542871243e+00  -7.8030017350712155e+00  -7.7190771826396212e+00  -7.6396341939371588e+00  -7.5667479662355817e+00  -7.5023469087136885e+00  -7.4481593495610827e+00  -7.4056558667543122e+00  -7.3759795031199840e+00  -7.3598194356629811e+00  -7.3569961151042857e+00  -8.4835545410976874e+00  -8.4806419884453135e+00  -8.4624442805499598e+00  -8.4289671963738453e+00  -8.3811317936723668e+00  -8.3203309275209865e+00  -8.2482944217729166e+00  -8.1670105963573327e+00  -8.0786612292312192e+00  -7.9855637675356794e+00  -7.8901199938783613e+00  -7.7947698474342459e+00  -7.7019479327773741e+00  -7.6140395889123349e+00  -7.5333334955078231e+00  -7.4619686279741915e+00  -7.4018745605105458e+00  -7.3547041838393499e+00  -7.3217509322329768e+00  -7.3038024002684292e+00  -7.3006744408540598e+00  -8.5468118614947013e+00  -8.5435590934597876e+00  -8.5233459164730743e+00  -8.4862061910861009e+00  -8.4331986577749216e+00  -8.3659048925754700e+00  -8.2862705460447206e+00  -8.1965111907929007e+00  -8.0990366900927420e+00  -7.9963878022433033e+00  -7.8911838069109628e+00  -7.7860786914543532e+00  -7.6837217197282497e+00  -7.5867172881800382e+00  -7.4975791118539368e+00  -7.4186749453732403e+00  -7.3521598517620124e+00  -7.2998968758094520e+00  -7.2633572284077115e+00  -7.2434484089086713e+00  -7.2399891325621288e+00  -8.6145011455465070e+00  -8.6108715044402420e+00  -8.5884537481144232e+00  -8.5473251607648457e+00  -8.4887132069866489e+00  -8.4144238753129841e+00  -8.3266515917845698e+00  -8.2278642928932708e+00  -8.1207147491313521e+00  -8.0079717407577391e+00  -7.8924689979839098e+00  -7.7770675826640323e+00  -7.6646250426236984e+00  -7.5579634819056531e+00  -7.4598288584310968e+00  -7.3728353296881561e+00  -7.2993910120612657e+00  -7.2416034491790882e+00  -7.2011570642220075e+00  -7.1791080777424883e+00  -7.1752897588017772e+00  -8.6861219849901001e+00  -8.6820759064682314e+00  -8.6572538077227499e+00  -8.6117994239840510e+00  -8.5471514559965289e+00  -8.4653873212256858e+00  -8.3689911476586563e+00  -8.2607110938918158e+00  -8.1434547392520393e+00  -8.0202157261561560e+00  -7.8940278087314351e+00  -7.7679390633199743e+00  -7.6449960919472426e+00  -7.5282266640780957e+00  -7.4206094200051451e+00  -7.3250210230870616e+00  -7.2441544172072243e+00  -7.1804051480527171e+00  -7.1357181408330295e+00  -7.1113382598819257e+00  -7.1071315743899266e+00  -8.7609115659267847e+00  -8.7564055361193507e+00  -8.7289639232301770e+00  -8.6788319755531624e+00  -8.6077196057093222e+00  -8.5180392416273136e+00  -8.4126165798684074e+00  -8.2945108482138163e+00  -8.1668913029595274e+00  -8.0329616635854304e+00  -7.8959252060565124e+00  -7.7589787809917476e+00  -7.6253208953827727e+00  -7.4981576674715216e+00  -7.3806905960847287e+00  -7.2760717724128767e+00  -7.1873158054281987e+00  -7.1171624746158466e+00  -7.0678819236619317e+00  -7.0409644901832351e+00  -7.0363374758547756e+00  -8.8377698646615226e+00  -8.8327545939610346e+00  -8.8024542550675395e+00  -8.7472698003890663e+00  -8.6692690699604142e+00  -8.5712870951990627e+00  -8.4565574794323677e+00  -8.3284838536152002e+00  -8.1904955025921957e+00  -8.0459746441411344e+00  -7.8982416062990666e+00  -7.7505794694661487e+00  -7.6062774325437186e+00  -7.4686714755948396e+00  -7.3411608595657691e+00  -7.2271798377715610e+00  -7.1301069116517546e+00  -7.0530995531931300e+00  -6.9988433388611195e+00  -6.9691568331745870e+00  -6.9640730354630813e+00  -8.9151688600886452e+00  -8.9095860591951013e+00  -8.8761486585959730e+00  -8.8154985512332953e+00  -8.7301894001322200e+00  -8.6236006475973515e+00  -8.4994580323477642e+00  -8.3615429945207254e+00  -8.2135288895089875e+00  -8.0589211232630102e+00  -7.9010757606492668e+00  -7.7432686264873123e+00  -7.5887875703662884e+00  -7.4410216191161673e+00  -7.3035203413188547e+00  -7.1799952536113221e+00  -7.0742350177618203e+00  -6.9899104726668737e+00  -6.9302497899309579e+00  -6.8975226339663180e+00  -6.8919379295113350e+00  -8.9910413742337330e+00  -8.9848180188229296e+00  -8.9479004592510432e+00  -8.8813085140425585e+00  -8.7882732737080858e+00  -8.6728876573725717e+00  -8.5394730149040932e+00  -8.3922154422899045e+00  -8.2349925536875919e+00  -8.0713450003379474e+00  -7.9045473886426176e+00  -7.7377380541223477e+00  -7.5740744967234441e+00  -7.4168857951560092e+00  -7.2697922673368769e+00  -7.1367564647661856e+00  -7.0220220895214958e+00  -6.9298951408247698e+00  -6.8643261159900870e+00  -6.8282214110828221e+00  -6.8220786902816020e+00  -9.0626426230383714e+00  -9.0556805666349138e+00  -9.0148321633437831e+00  -8.9417212437456595e+00  -8.8405465385993978e+00  -8.7163450245186205e+00  -8.5741510523907554e+00  -8.4185606792689480e+00  -8.2535769233040153e+00  -8.0826446520107691e+00  -7.9087987377818507e+00  -7.7348707754204096e+00  -7.5637190681031248e+00  -7.3984566752094993e+00  -7.2426503672104472e+00  -7.1004495272404649e+00  -6.9765822622319549e+00  -6.8761362843533780e+00  -6.8040363321198090e+00  -6.7641104189720975e+00  -6.7573307575032056e+00  -9.1263726948310744e+00  -9.1185291665213324e+00  -9.0731207422942308e+00  -8.9927604857378913e+00  -8.8830560043183908e+00  -8.7502893026718525e+00  -8.6003172107765256e+00  -8.4380996463614455e+00  -8.2676246540793610e+00  -8.0920571994071810e+00  -7.9139936144882963e+00  -7.7357563883168821e+00  -7.5597008951994846e+00  -7.3885227554802295e+00  -7.2255518085948269e+00  -7.0749952983674866e+00  -6.9420486742814873e+00  -6.8327363282912579e+00  -6.7533011604628879e+00  -6.7089358489331499e+00  -6.7014037424510073e+00  -9.1775386517527657e+00  -9.1685873185776448e+00  -9.1176944721581368e+00  -9.0291422799244163e+00  -8.9106111210365402e+00  -8.7699835524926879e+00  -8.6139835951208745e+00  -8.4477847029333279e+00  -8.2751292986727343e+00  -8.0986611444206726e+00  -7.9203115900939398e+00  -7.7416792743923031e+00  -7.5643977236015765e+00  -7.3905076723168142e+00  -7.2228485140170804e+00  -7.0654532518913875e+00  -6.9238612837525091e+00  -6.8051450351452196e+00  -6.7173067655323919e+00  -6.6675977718251493e+00  -6.6591358195363259e+00  -9.2100159744902665e+00  -9.1995617981192748e+00  -9.1417760144435292e+00  -9.0438489905419477e+00  -8.9164913555427283e+00  -8.7695073314360705e+00  -8.6103469259189378e+00  -8.4440631547032847e+00  -8.2738065248892152e+00  -8.1014146372688103e+00  -7.9279342483343038e+00  -7.7540558232446415e+00  -7.5804993466588932e+00  -7.4084092822199352e+00  -7.2398166327586599e+00  -7.0782027415993127e+00  -6.9291197982393022e+00  -6.8006283299744075e+00  -6.7029743520771330e+00  -6.6465452707985344e+00  -6.6368686885922079e+00  -9.2157302461992803e+00  -9.2030010762271512e+00  -9.1361459092595485e+00  -9.0275529121181535e+00  -8.8921817419596589e+00  -8.7417798092249370e+00  -8.5839820720472986e+00  -8.4231172132227741e+00  -8.2612891061568341e+00  -8.0992518748641924e+00  -7.9370200436818994e+00  -7.7742900290182009e+00  -7.6107733388174683e+00  -7.4465409758543650e+00  -7.2824829260315678e+00  -7.1209944946625008e+00  -6.9669676176313846e+00  -6.8289537270640759e+00  -6.7197345872674559e+00  -6.6544247126907390e+00  -6.6430530903290386e+00  -9.1837933049228084e+00  -9.1670741092091301e+00  -9.0879005566218041e+00  -8.9679210447586275e+00  -8.8273395357283189e+00  -8.6789670140297908e+00  -8.5294093368046831e+00  -8.3813891879131894e+00  -8.2355008386737776e+00  -8.0912585666919465e+00  -7.9476651517816661e+00  -7.8035187796531735e+00  -7.6576117943151143e+00  -7.5089376566167045e+00  -7.3570294546070230e+00  -7.2026100320831405e+00  -7.0488299632564368e+00  -6.9033615571574538e+00  -6.7809161009365697e+00  -6.7032792685780951e+00  -6.6893450940459864e+00  -9.0988600475044574e+00  -9.0739150336486265e+00  -8.9784137336680594e+00  -8.8491490269023227e+00  -8.7105321304195655e+00  -8.5736948555449892e+00  -8.4422694356825918e+00  -8.3164872796539200e+00  -8.1952335473327551e+00  -8.0769267048760991e+00  -7.9598480397540792e+00  -7.8422391700533920e+00  -7.7223167314867922e+00  -7.5982876387131499e+00  -7.4684528101458225e+00  -7.3315703886330814e+00  -7.1878753951462890e+00  -7.0416273286487865e+00  -6.9063812547375374e+00  -6.8111362939540117e+00  -6.7929026693795231e+00  -8.9370235254174517e+00  -8.8933798080203879e+00  -8.7807591187674099e+00  -8.6531444415288359e+00  -8.5319289019698026e+00  -8.4216543430368773e+00  -8.3212650998774205e+00  -8.2284340439841657e+00  -8.1408408610688703e+00  -8.0564250304503400e+00  -7.9733424253219800e+00  -7.8898493207621740e+00  -7.8041710861766749e+00  -7.7143646673239914e+00  -7.6181818771994987e+00  -7.5129868938458699e+00  -7.3959680908561936e+00  -7.2655437680766113e+00  -7.1270134172155268e+00  -7.0088171330747846e+00  -6.9821383292788362e+00  -8.6500967961026394e+00  -8.5690665543211662e+00  -8.4605940613523352e+00  -8.3664541980398717e+00  -8.2897441450199718e+00  -8.2258371188910182e+00  -8.1705087001568462e+00  -8.1208039191233432e+00  -8.0746815020359559e+00  -8.0306438139875063e+00  -7.9874848253860993e+00  -7.9441180343311197e+00  -7.8994384592625986e+00  -7.8521797132446887e+00  -7.8007232483730800e+00  -7.7427961830741587e+00  -7.6749630029088962e+00  -7.5918959499871352e+00  -7.4864971699277101e+00  -7.3605078230708374e+00  -7.3157465148407397e+00  -8.0000000000000000e+00  -8.0000000000000000e+00  -8.0000000000000000e+00  -8.0000000000000000e+00  -8.0000000000000000e+00  -8.0000000000000000e+00  -8.0000000000000000e+00  -8.0000000000000000e+00  -8.0000000000000000e+00  -8.0000000000000000e+00  -8.0000000000000000e+00  -8.0000000000000000e+00  -8.0000000000000000e+00  -8.0000000000000000e+00  -8.0000000000000000e+00  -8.0000000000000000e+00  -8.0000000000000000e+00  -8.0000000000000000e+00  -8.0000000000000000e+00  -8.0000000000000000e+00  -8.0000000000000000e+00  </DataArray> 
</PointData> 
</Piece>
</UnstructuredGrid>
</VTKFile>