<?xml version="1.0"?>
<VTKFile type="UnstructuredGrid"  version="0.1"  >
<UnstructuredGrid>
<Piece  NumberOfPoints="651" NumberOfCells="1200">
<Points>
<DataArray  type="Float64"  NumberOfComponents="3"  format="ascii">0 0 0  50000 0 0  100000 0 0  150000 0 0  200000 0 0  250000 0 0  300000 0 0  350000 0 0  400000 0 0  450000 0 0  500000 0 0  550000 0 0  600000 0 0  650000 0 0  700000 0 0  750000 0 0  800000 0 0  850000 0 0  900000 0 0  950000 0 0  1000000 0 0  0 50000 0  50000 50000 0  100000 50000 0  150000 50000 0  200000 50000 0  250000 50000 0  300000 50000 0  350000 50000 0  400000 50000 0  450000 50000 0  500000 50000 0  550000 50000 0  600000 50000 0  650000 50000 0  700000 50000 0  750000 50000 0  800000 50000 0  850000 50000 0  900000 50000 0  950000 50000 0  1000000 50000 0  0 100000 0  50000 100000 0  100000 100000 0  150000 100000 0  200000 100000 0  250000 100000 0  300000 100000 0  350000 100000 0  400000 100000 0  450000 100000 0  500000 100000 0  550000 100000 0  600000 100000 0  650000 100000 0  700000 100000 0  750000 100000 0  800000 100000 0  850000 100000 0  900000 100000 0  950000 100000 0  1000000 100000 0  0 150000 0  50000 150000 0  100000 150000 0  150000 150000 0  200000 150000 0  250000 150000 0  300000 150000 0  350000 150000 0  400000 150000 0  450000 150000 0  500000 150000 0  550000 150000 0  600000 150000 0  650000 150000 0  700000 150000 0  750000 150000 0  800000 150000 0  850000 150000 0  900000 150000 0  950000 150000 0  1000000 150000 0  0 200000 0  50000 200000 0  100000 200000 0  150000 200000 0  200000 200000 0  250000 200000 0  300000 200000 0  350000 200000 0  400000 200000 0  450000 200000 0  500000 200000 0  550000 200000 0  600000 200000 0  650000 200000 0  700000 200000 0  750000 200000 0  800000 200000 0  850000 200000 0  900000 200000 0  950000 200000 0  1000000 200000 0  0 250000 0  50000 250000 0  100000 250000 0  150000 250000 0  200000 250000 0  250000 250000 0  300000 250000 0  350000 250000 0  400000 250000 0  450000 250000 0  500000 250000 0  550000 250000 0  600000 250000 0  650000 250000 0  700000 250000 0  750000 250000 0  800000 250000 0  850000 250000 0  900000 250000 0  950000 250000 0  1000000 250000 0  0 300000 0  50000 300000 0  100000 300000 0  150000 300000 0  200000 300000 0  250000 300000 0  300000 300000 0  350000 300000 0  400000 300000 0  450000 300000 0  500000 300000 0  550000 300000 0  600000 300000 0  650000 300000 0  700000 300000 0  750000 300000 0  800000 300000 0  850000 300000 0  900000 300000 0  950000 300000 0  1000000 300000 0  0 350000 0  50000 350000 0  100000 350000 0  150000 350000 0  200000 350000 0  250000 350000 0  300000 350000 0  350000 350000 0  400000 350000 0  450000 350000 0  500000 350000 0  550000 350000 0  600000 350000 0  650000 350000 0  700000 350000 0  750000 350000 0  800000 350000 0  850000 350000 0  900000 350000 0  950000 350000 0  1000000 350000 0  0 400000 0  50000 400000 0  100000 400000 0  150000 400000 0  200000 400000 0  250000 400000 0  300000 400000 0  350000 400000 0  400000 400000 0  450000 400000 0  500000 400000 0  550000 400000 0  600000 400000 0  650000 400000 0  700000 400000 0  750000 400000 0  800000 400000 0  850000 400000 0  900000 400000 0  950000 400000 0  1000000 400000 0  0 450000 0  50000 450000 0  100000 450000 0  150000 450000 0  200000 450000 0  250000 450000 0  300000 450000 0  350000 450000 0  400000 450000 0  450000 450000 0  500000 450000 0  550000 450000 0  600000 450000 0  650000 450000 0  700000 450000 0  750000 450000 0  800000 450000 0  850000 450000 0  900000 450000 0  950000 450000 0  1000000 450000 0  0 500000 0  50000 500000 0  100000 500000 0  150000 500000 0  200000 500000 0  250000 500000 0  300000 500000 0  350000 500000 0  400000 500000 0  450000 500000 0  500000 500000 0  550000 500000 0  600000 500000 0  650000 500000 0  700000 500000 0  750000 500000 0  800000 500000 0  850000 500000 0  900000 500000 0  950000 500000 0  1000000 500000 0  0 550000 0  50000 550000 0  100000 550000 0  150000 550000 0  200000 550000 0  250000 550000 0  300000 550000 0  350000 550000 0  400000 550000 0  450000 550000 0  500000 550000 0  550000 550000 0  600000 550000 0  650000 550000 0  700000 550000 0  750000 550000 0  800000 550000 0  850000 550000 0  900000 550000 0  950000 550000 0  1000000 550000 0  0 600000 0  50000 600000 0  100000 600000 0  150000 600000 0  200000 600000 0  250000 600000 0  300000 600000 0  350000 600000 0  400000 600000 0  450000 600000 0  500000 600000 0  550000 600000 0  600000 600000 0  650000 600000 0  700000 600000 0  750000 600000 0  800000 600000 0  850000 600000 0  900000 600000 0  950000 600000 0  1000000 600000 0  0 650000 0  50000 650000 0  100000 650000 0  150000 650000 0  200000 650000 0  250000 650000 0  300000 650000 0  350000 650000 0  400000 650000 0  450000 650000 0  500000 650000 0  550000 650000 0  600000 650000 0  650000 650000 0  700000 650000 0  750000 650000 0  800000 650000 0  850000 650000 0  900000 650000 0  950000 650000 0  1000000 650000 0  0 700000 0  50000 700000 0  100000 700000 0  150000 700000 0  200000 700000 0  250000 700000 0  300000 700000 0  350000 700000 0  400000 700000 0  450000 700000 0  500000 700000 0  550000 700000 0  600000 700000 0  650000 700000 0  700000 700000 0  750000 700000 0  800000 700000 0  850000 700000 0  900000 700000 0  950000 700000 0  1000000 700000 0  0 750000 0  50000 750000 0  100000 750000 0  150000 750000 0  200000 750000 0  250000 750000 0  300000 750000 0  350000 750000 0  400000 750000 0  450000 750000 0  500000 750000 0  550000 750000 0  600000 750000 0  650000 750000 0  700000 750000 0  750000 750000 0  800000 750000 0  850000 750000 0  900000 750000 0  950000 750000 0  1000000 750000 0  0 800000 0  50000 800000 0  100000 800000 0  150000 800000 0  200000 800000 0  250000 800000 0  300000 800000 0  350000 800000 0  400000 800000 0  450000 800000 0  500000 800000 0  550000 800000 0  600000 800000 0  650000 800000 0  700000 800000 0  750000 800000 0  800000 800000 0  850000 800000 0  900000 800000 0  950000 800000 0  1000000 800000 0  0 850000 0  50000 850000 0  100000 850000 0  150000 850000 0  200000 850000 0  250000 850000 0  300000 850000 0  350000 850000 0  400000 850000 0  450000 850000 0  500000 850000 0  550000 850000 0  600000 850000 0  650000 850000 0  700000 850000 0  750000 850000 0  800000 850000 0  850000 850000 0  900000 850000 0  950000 850000 0  1000000 850000 0  0 900000 0  50000 900000 0  100000 900000 0  150000 900000 0  200000 900000 0  250000 900000 0  300000 900000 0  350000 900000 0  400000 900000 0  450000 900000 0  500000 900000 0  550000 900000 0  600000 900000 0  650000 900000 0  700000 900000 0  750000 900000 0  800000 900000 0  850000 900000 0  900000 900000 0  950000 900000 0  1000000 900000 0  0 950000 0  50000 950000 0  100000 950000 0  150000 950000 0  200000 950000 0  250000 950000 0  300000 950000 0  350000 950000 0  400000 950000 0  450000 950000 0  500000 950000 0  550000 950000 0  600000 950000 0  650000 950000 0  700000 950000 0  750000 950000 0  800000 950000 0  850000 950000 0  900000 950000 0  950000 950000 0  1000000 950000 0  0 1000000 0  50000 1000000 0  100000 1000000 0  150000 1000000 0  200000 1000000 0  250000 1000000 0  300000 1000000 0  350000 1000000 0  400000 1000000 0  450000 1000000 0  500000 1000000 0  550000 1000000 0  600000 1000000 0  650000 1000000 0  700000 1000000 0  750000 1000000 0  800000 1000000 0  850000 1000000 0  900000 1000000 0  950000 1000000 0  1000000 1000000 0  0 1050000 0  50000 1050000 0  100000 1050000 0  150000 1050000 0  200000 1050000 0  250000 1050000 0  300000 1050000 0  350000 1050000 0  400000 1050000 0  450000 1050000 0  500000 1050000 0  550000 1050000 0  600000 1050000 0  650000 1050000 0  700000 1050000 0  750000 1050000 0  800000 1050000 0  850000 1050000 0  900000 1050000 0  950000 1050000 0  1000000 1050000 0  0 1100000 0  50000 1100000 0  100000 1100000 0  150000 1100000 0  200000 1100000 0  250000 1100000 0  300000 1100000 0  350000 1100000 0  400000 1100000 0  450000 1100000 0  500000 1100000 0  550000 1100000 0  600000 1100000 0  650000 1100000 0  700000 1100000 0  750000 1100000 0  800000 1100000 0  850000 1100000 0  900000 1100000 0  950000 1100000 0  1000000 1100000 0  0 1150000 0  50000 1150000 0  100000 1150000 0  150000 1150000 0  200000 1150000 0  250000 1150000 0  300000 1150000 0  350000 1150000 0  400000 1150000 0  450000 1150000 0  500000 1150000 0  550000 1150000 0  600000 1150000 0  650000 1150000 0  700000 1150000 0  750000 1150000 0  800000 1150000 0  850000 1150000 0  900000 1150000 0  950000 1150000 0  1000000 1150000 0  0 1200000 0  50000 1200000 0  100000 1200000 0  150000 1200000 0  200000 1200000 0  250000 1200000 0  300000 1200000 0  350000 1200000 0  400000 1200000 0  450000 1200000 0  500000 1200000 0  550000 1200000 0  600000 1200000 0  650000 1200000 0  700000 1200000 0  750000 1200000 0  800000 1200000 0  850000 1200000 0  900000 1200000 0  950000 1200000 0  1000000 1200000 0  0 1250000 0  50000 1250000 0  100000 1250000 0  150000 1250000 0  200000 1250000 0  250000 1250000 0  300000 1250000 0  350000 1250000 0  400000 1250000 0  450000 1250000 0  500000 1250000 0  550000 1250000 0  600000 1250000 0  650000 1250000 0  700000 1250000 0  750000 1250000 0  800000 1250000 0  850000 1250000 0  900000 1250000 0  950000 1250000 0  1000000 1250000 0  0 1300000 0  50000 1300000 0  100000 1300000 0  150000 1300000 0  200000 1300000 0  250000 1300000 0  300000 1300000 0  350000 1300000 0  400000 1300000 0  450000 1300000 0  500000 1300000 0  550000 1300000 0  600000 1300000 0  650000 1300000 0  700000 1300000 0  750000 1300000 0  800000 1300000 0  850000 1300000 0  900000 1300000 0  950000 1300000 0  1000000 1300000 0  0 1350000 0  50000 1350000 0  100000 1350000 0  150000 1350000 0  200000 1350000 0  250000 1350000 0  300000 1350000 0  350000 1350000 0  400000 1350000 0  450000 1350000 0  500000 1350000 0  550000 1350000 0  600000 1350000 0  650000 1350000 0  700000 135
[...]
<PointData  Scalars="f_3001"> 
<DataArray  type="Float64"  Name="f_3001"  format="ascii">-8.0079130772157310e+00  -8.0077882667669229e+00  -8.0072237545813252e+00  -8.0062171281578447e+00  -8.0047917723360253e+00  -8.0029836260540499e+00  -8.0008394714814592e+00  -7.9984154940469203e+00  -7.9957756613005504e+00  -7.9929898995351030e+00  -7.9901321119342352e+00  -7.9872780921359690e+00  -7.9845033897407207e+00  -7.9818811857183372e+00  -7.9794802372622620e+00  -7.9773629568162576e+00  -7.9755837106387677e+00  -7.9741874859903019e+00  -7.9732091304245163e+00  -7.9726714145575261e+00  -7.9725479869431926e+00  -8.0080327538287950e+00  -8.0079104623874802e+00  -8.0073390361068899e+00  -8.0063257452760226e+00  -8.0048923501513922e+00  -8.0030742805473558e+00  -8.0009182575990447e+00  -7.9984806287599399e+00  -7.9958256431051939e+00  -7.9930235793784643e+00  -7.9901487370805402e+00  -7.9872773307761538e+00  -7.9844853389597628e+00  -7.9818463627673033e+00  -7.9794295508844915e+00  -7.9772976459739482e+00  -7.9755052000275786e+00  -7.9740969592979436e+00  -7.9731061742174214e+00  -7.9725514882719626e+00  -7.9724271749011395e+00  -8.0085638805127566e+00  -8.0084472792280401e+00  -8.0078620741832882e+00  -8.0068185756578352e+00  -8.0053423650956397e+00  -8.0034705408240914e+00  -8.0012512125231900e+00  -7.9987422558883230e+00  -7.9960096651879757e+00  -7.9931256516993532e+00  -7.9901665769373524e+00  -7.9872107837952671e+00  -7.9843363819996922e+00  -7.9816190440327190e+00  -7.9791298685380463e+00  -7.9769333695439375e+00  -7.9750856518845739e+00  -7.9736328319756122e+00  -7.9726097190741783e+00  -7.9720383719757528e+00  -7.9719222686859847e+00  -8.0095027162475425e+00  -8.0093856609215219e+00  -8.0087768146176739e+00  -8.0076831666212360e+00  -8.0061328984215923e+00  -8.0041662435053134e+00  -8.0018343212128418e+00  -7.9991981369660614e+00  -7.9963270492484320e+00  -7.9932968676536733e+00  -7.9901877272509783e+00  -7.9870818351983228e+00  -7.9840611626361015e+00  -7.9812051468729734e+00  -7.9785884686958211e+00  -7.9762789755191577e+00  -7.9743358339684400e+00  -7.9728080063146027e+00  -7.9717330534186903e+00  -7.9711353941211742e+00  -7.9710172564832771e+00  -8.0108396056182496e+00  -8.0107180809155967e+00  -8.0100729395170180e+00  -8.0089082514505261e+00  -8.0072536444833915e+00  -8.0051527475297153e+00  -8.0026608111238762e+00  -7.9998434089661705e+00  -7.9967748412260677e+00  -7.9935361724275218e+00  -7.9902130157023059e+00  -7.9868931678490220e+00  -7.9836641793442329e+00  -7.9806109332471777e+00  -7.9778133057533260e+00  -7.9753439869484817e+00  -7.9732665482288443e+00  -7.9716338228979193e+00  -7.9704864567492164e+00  -7.9698502890249205e+00  -7.9697248579366242e+00  -8.0125707808849640e+00  -8.0124416102811864e+00  -8.0117471469085935e+00  -8.0104895518802905e+00  -8.0086999867260555e+00  -8.0064257636334073e+00  -8.0037271136607195e+00  -8.0006754263338244e+00  -7.9973514185647332e+00  -7.9938430119287256e+00  -7.9902429683952061e+00  -7.9866463729741701e+00  -7.9831480468116736e+00  -7.9798399673993758e+00  -7.9768087711235260e+00  -7.9741334160679607e+00  -7.9718830800044760e+00  -7.9701153180007793e+00  -7.9688742270218960e+00  -7.9681870581451717e+00  -7.9680511354856716e+00  -8.0146979179961679e+00  -8.0145582693805650e+00  -8.0138014591880449e+00  -8.0124285063825802e+00  -8.0104726884171011e+00  -8.0079856009799819e+00  -8.0050333325175682e+00  -8.0016942697678122e+00  -7.9980569536613730e+00  -7.9942177139157273e+00  -7.9902780935417823e+00  -7.9863421320168761e+00  -7.9825135819513058e+00  -7.9788931314411098e+00  -7.9755757034603727e+00  -7.9726479040750329e+00  -7.9701856814292400e+00  -7.9682521925759238e+00  -7.9668955730463136e+00  -7.9661449338026529e+00  -7.9659959129130797e+00  -8.0172270649140494e+00  -8.0170742263853807e+00  -8.0162419798359537e+00  -8.0147307011547326e+00  -8.0125765257370780e+00  -8.0098361608012070e+00  -8.0065825545215947e+00  -8.0029023056998998e+00  -7.9988931763867637e+00  -7.9946614297540703e+00  -7.9903189917433979e+00  -7.9859804918866129e+00  -7.9817602466099160e+00  -7.9777692471865578e+00  -7.9741122145943262e+00  -7.9708847845044062e+00  -7.9681708756941036e+00  -7.9660402285778158e+00  -7.9645457863789542e+00  -7.9637191305990971e+00  -7.9635545536969481e+00  -8.0201674255686637e+00  -8.0199986940877483e+00  -8.0190777017358954e+00  -8.0174045191806762e+00  -8.0150189362254309e+00  -8.0119837477541687e+00  -8.0083798966258293e+00  -8.0043034864844920e+00  -7.9998629271331332e+00  -7.9951759374666764e+00  -7.9903664063024067e+00  -7.9855611590585678e+00  -7.9808866806549474e+00  -7.9764658418754451e+00  -7.9724146774329823e+00  -7.9688392684945830e+00  -7.9658327781586449e+00  -7.9634726266746876e+00  -7.9618174655614489e+00  -7.9609020196889837e+00  -7.9607194408971989e+00  -8.0235300142106869e+00  -8.0233426312626879e+00  -8.0223192192670272e+00  -8.0204598118583856e+00  -8.0178086950232128e+00  -8.0144358461267782e+00  -8.0104314643411634e+00  -8.0059025443932779e+00  -8.0009696177864669e+00  -7.9957633869096858e+00  -7.9904212591602581e+00  -7.9850838230559944e+00  -7.9798913001185889e+00  -7.9749799981440530e+00  -7.9704787933446237e+00  -7.9665056797367786e+00  -7.9631644303096421e+00  -7.9605413616470271e+00  -7.9587018484460366e+00  -7.9576844826896114e+00  -7.9574814155002445e+00  -8.0273261239523777e+00  -8.0271172326354492e+00  -8.0259772495030681e+00  -8.0239064354748191e+00  -8.0209544901039287e+00  -8.0171997951851779e+00  -8.0127432008615234e+00  -8.0077040801916173e+00  -8.0022166098724306e+00  -7.9964260002480181e+00  -7.9904846886602918e+00  -7.9845485285604001e+00  -7.9787729833264907e+00  -7.9733093177319310e+00  -7.9683007828614967e+00  -7.9638788105754390e+00  -7.9601592552393301e+00  -7.9572386810222904e+00  -7.9551903287461156e+00  -7.9540574580618539e+00  -7.9538313498943074e+00  -8.0315655362011782e+00  -8.0313321493942507e+00  -8.0300608820900532e+00  -8.0277525375007013e+00  -8.0244632724311948e+00  -8.0202812591251504e+00  -8.0153195503245911e+00  -8.0097114950834918e+00  -8.0036064799017730e+00  -7.9971657166522352e+00  -7.9905580960629656e+00  -7.9839561207498191e+00  -7.9775318872177596e+00  -7.9714530592810577e+00  -7.9658787794932113e+00  -7.9609554986783913e+00  -7.9568127473307122e+00  -7.9535588541645836e+00  -7.9512762369611583e+00  -7.9500137472866417e+00  -7.9497619654708931e+00  -8.0362543864099365e+00  -8.0359933606025766e+00  -8.0345754714363942e+00  -8.0320024875899101e+00  -8.0283382642663170e+00  -8.0236823783982043e+00  -8.0181618379621487e+00  -8.0119256912662777e+00  -8.0051401225107632e+00  -7.9979837584318165e+00  -7.9906432050361120e+00  -7.9833087946314434e+00  -7.9761704497536048e+00  -7.9694135287956520e+00  -7.9632145240265420e+00  -7.9577365342224073e+00  -7.9531245089001184e+00  -7.9495002754709070e+00  -7.9469569742766524e+00  -7.9455501649190658e+00  -7.9452699878856174e+00  -8.0413925898093659e+00  -8.0411006002003731e+00  -8.0395200706065229e+00  -8.0366543398842882e+00  -8.0325765015819659e+00  -8.0273994776980633e+00  -8.0212662538520867e+00  -8.0143434493334560e+00  -8.0068156281160885e+00  -7.9988800878992370e+00  -7.9907421377023988e+00  -7.9826107858242557e+00  -7.9746946471983078e+00  -7.9671978180382048e+00  -7.9603154737941013e+00  -7.9542290217216589e+00  -7.9491007568923653e+00  -7.9450680350201015e+00  -7.9422366010381147e+00  -7.9406701290312833e+00  -7.9403587379575686e+00  -8.0469707176249905e+00  -8.0466442290690505e+00  -8.0448842881192970e+00  -8.0416966943268715e+00  -8.0371657671831880e+00  -8.0314201858508056e+00  -8.0246213071515822e+00  -8.0169553732437500e+00  -8.0086268588134342e+00  -7.9998527173665899e+00  -7.9908575108271034e+00  -7.9818692472819652e+00  -7.9731155885945268e+00  -7.9648200048030322e+00  -7.9571974629623714e+00  -7.9504493425763174e+00  -7.9447574433164050e+00  -7.9402770889221586e+00  -7.9371289985520566e+00  -7.9353868025696963e+00  -7.9350412676128013e+00  -8.0529661988884964e+00  -8.0526014244165527e+00  -8.0506444262465227e+00  -8.0471047972373846e+00  -8.0420807414570916e+00  -8.0357197941274698e+00  -8.0282045927889811e+00  -8.0197432743868138e+00  -8.0105616335170051e+00  -8.0008968283767405e+00  -7.9909925557439880e+00  -7.9810953630222849e+00  -7.9714515433900477e+00  -7.9623039498043768e+00  -7.9538880767765390e+00  -7.9464268948651382e+00  -7.9401241636572859e+00  -7.9351561890058111e+00  -7.9316617452157736e+00  -7.9297269134121562e+00  -7.9293441658883657e+00  -8.0593387037610480e+00  -8.0589315371249164e+00  -8.0567587296301717e+00  -8.0528356836766442e+00  -8.0472781572267031e+00  -8.0402566429853017e+00  -8.0319786847195385e+00  -8.0226768482689419e+00  -8.0125994235181377e+00  -8.0020036519413207e+00  -7.9911512650821654e+00  -7.9803057536616517e+00  -7.9697305085938019e+00  -7.9596868448668090e+00  -7.9504309333060119e+00  -7.9422088259457881e+00  -7.9352490694444064e+00  -7.9297527696662122e+00  -7.9258808780587167e+00  -7.9237354035921541e+00  -7.9233121808299209e+00  -8.0660245379898097e+00  -8.0655704375671551e+00  -8.0631615305413415e+00  -8.0588221109898974e+00  -8.0526906917388406e+00  -8.0449662850523413e+00  -8.0358859450500493e+00  -8.0257094884589026e+00  -8.0147084598151377e+00  -8.0031590629787566e+00  -7.9913385674489286e+00  -7.9795242242440150e+00  -7.9679934211845485e+00  -7.9570236783880528e+00  -7.9468910954871248e+00  -7.9378660203511160e+00  -7.9302050579209968e+00  -7.9241390443577142e+00  -7.9198567543381779e+00  -7.9174810906277715e+00  -7.9170138329358730e+00  -8.0729298378858179e+00  -8.0724236235433509e+00  -8.0697560110497406e+00  -8.0649649544559985e+00  -8.0582192587687551e+00  -8.0497541298902267e+00  -8.0398420299898827e+00  -8.0287730992416186e+00  -8.0168421780056836e+00  -8.0043418568883684e+00  -7.9915605265755669e+00  -7.9787838825421238e+00  -7.9662980941097814e+00  -7.9543927701751542e+00  -7.9433618523470084e+00  -7.9335006570857827e+00  -7.9250975890683133e+00  -7.9184196463099052e+00  -7.9136912959560615e+00  -7.9110635749212186e+00  -7.9105482426849356e+00  -8.0799222872686940e+00  -8.0793577838488861e+00  -8.0764051913910180e+00  -8.0711236141597311e+00  -8.0637232731820649e+00  -8.0544862478435046e+00  -8.0437279093752281e+00  -8.0317718426169851e+00  -8.0189350012740697e+00  -8.0055217177741156e+00  -7.9918245518116038e+00  -7.9781295981423437e+00  -7.9647238713765489e+00  -7.9519024566811591e+00  -7.9399730859267077e+00  -7.9292556969639438e+00  -7.9200745863705606e+00  -7.9127412778071946e+00  -7.9075270138251845e+00  -7.9046217141410997e+00  -7.9040534746857540e+00  -8.0868209548563357e+00  -8.0861903639445583e+00  -8.0829205553920467e+00  -8.0771037852494665e+00  -8.0690083484308524e+00  -8.0589780298901754e+00  -8.0473803513295845e+00  -8.0345749439593916e+00  -8.0208976310533178e+00  -8.0066569783232335e+00  -7.9921395888748936e+00  -7.9776206506275820e+00  -7.9633768102421119e+00  -7.9496988202901395e+00  -7.9369013277828993e+00  -7.9253266761615935e+00  -7.9153390222918656e+00  -7.9073050467514623e+00  -7.9015584127017489e+00  -7.8983441427942616e+00  -7.8977168458233216e+00  -8.0933836185443209e+00  -8.0926763965576534e+00  -8.0890473523559407e+00  -8.0826416184142982e+00  -8.0738107701579320e+00  -8.0629805457290402e+00  -8.0505811622783394e+00  -8.0370090803825729e+00  -8.0226123461702965e+00  -8.0076924430477749e+00  -7.9925162290547362e+00  -7.9773331873651223e+00  -7.9623948286088098e+00  -7.9479739491245489e+00  -7.9343813029565018e+00  -7.9219761020642823e+00  -7.9111649759650780e+00  -7.9023825344618990e+00  -7.8960467554024829e+00  -7.8924826122341196e+00  -7.8917879178603290e+00  -8.0992904940468406e+00  -8.0984912892312728e+00  -8.0944448958759452e+00  -8.0873827653663213e+00  -8.0777780392252918e+00  -8.0661648884980295e+00  -8.0530462067496646e+00  -8.0388516362210716e+00  -8.0239293953447479e+00  -8.0085578386756744e+00  -7.9929666278202038e+00  -7.9773617277659961e+00  -7.9619515949981157e+00  -7.9469734171806889e+00  -7.9327180601414824e+00  -7.9195504153032648e+00  -7.9079181476639961e+00  -7.8983372686055899e+00  -7.8913398963127506e+00  -7.8873695079172661e+00  -7.8865954271117502e+00  -8.1041224001007031e+00  -8.1032070556997500e+00  -8.0986587565747890e+00  -8.0908539920563900e+00  -8.0804450427624808e+00  -8.0681059239556152e+00  -8.0544166899071570e+00  -8.0398274299893888e+00  -8.0246664930549176e+00  -8.0091678965032713e+00  -7.9935040616057602e+00  -7.9778183774492435e+00  -7.9622568708001840e+00  -7.9470002389686627e+00  -7.9322973199917328e+00  -7.9184985244317447e+00  -7.9060818604975704e+00  -7.8956543452208807e+00  -7.8879003574226081e+00  -7.8834420862958456e+00  -7.8825704795441398e+00  -8.1073296117283515e+00  -8.1062567688415150e+00  -8.1010789072169178e+00  -8.0924240655165196e+00  -8.0812067323123582e+00  -8.0682694692033508e+00  -8.0542578678139218e+00  -8.0396135765682732e+00  -8.0246146960079212e+00  -8.0094256312207541e+00  -7.9941418911626032e+00  -7.9788277010732678e+00  -7.9635495089166382e+00  -7.9484101933874474e+00  -7.9335887832336178e+00  -7.9193884601200608e+00  -7.9062888772596249e+00  -7.8949826380021495e+00  -7.8863478578609696e+00  -7.8812785288499843e+00  -7.8802806269824277e+00  -8.1081839523183650e+00  -8.1068754260061446e+00  -8.1008723876490620e+00  -8.0912505443042786e+00  -8.0792925764544510e+00  -8.0660125066192947e+00  -8.0520748153221042e+00  -8.0378598652571345e+00  -8.0235552592098109e+00  -8.0092308689650551e+00  -7.9948916833203558e+00  -7.9805146078541069e+00  -7.9660776653942102e+00  -7.9515900560261281e+00  -7.9371318692780326e+00  -7.9229127596293072e+00  -7.9093559059607195e+00  -7.8971960908831607e+00  -7.8875290338550164e+00  -7.8816568839729388e+00  -7.8804846826935506e+00  -8.1056982004038680e+00  -8.1039880570039173e+00  -8.0968698632171279e+00  -8.0862146331015214e+00  -8.0737604039733046e+00  -8.0606168328588605e+00  -8.0473611078925540e+00  -8.0342344508925940e+00  -8.0212925009051101e+00  -8.0084959794801076e+00  -7.9957603189817341e+00  -7.9829827601004189e+00  -7.9700600615340207e+00  -7.9569068329430337e+00  -7.9434850482248276e+00  -7.9298599396498570e+00  -7.9163051970709182e+00  -7.9034796118498285e+00  -7.8926413244267284e+00  -7.8856635998630971e+00  -7.8842315874074993e+00  -8.0984706470777539e+00  -8.0959682184864157e+00  -8.0873786360031872e+00  -8.0758738262700405e+00  -8.0635572904812296e+00  -8.0513938013958732e+00  -8.0397015978476780e+00  -8.0285037360568623e+00  -8.0177051470953931e+00  -8.0071690431991716e+00  -7.9967459840321098e+00  -7.9862828486824800e+00  -7.9756245816115801e+00  -7.9646159599895583e+00  -7.9531109822690151e+00  -7.9410044680139977e+00  -7.9283193041466422e+00  -7.9154217429297296e+00  -7.9034648918239849e+00  -7.8949259527395368e+00  -7.8930667996168173e+00  -8.0842950766973676e+00  -8.0800702919041960e+00  -8.0699405159552509e+00  -8.0585575606826065e+00  -8.0477534137172118e+00  -8.0379135928097103e+00  -8.0289447422724987e+00  -8.0206442398704247e+00  -8.0128094087267545e+00  -8.0052594601013691e+00  -7.9978320833391496e+00  -7.9903737111951605e+00  -7.9827284087340491e+00  -7.9747262531867680e+00  -7.9661718955968377e+00  -7.9568379154350009e+00  -7.9464832787483992e+00  -7.9349725944761378e+00  -7.9227518307074849e+00  -7.9122162479049347e+00  -7.9095485852659655e+00  -8.0586706935345980e+00  -8.0511431603928010e+00  -8.0413892415547696e+00  -8.0329757063447857e+00  -8.0261142371759338e+00  -8.0203852566869518e+00  -8.0154170288221867e+00  -8.0109501120868618e+00  -8.0068044569487515e+00  -8.0028472344941939e+00  -7.9989710837094075e+00  -7.9950792177049390e+00  -7.9910734452585830e+00  -7.9868417915644541e+00  -7.9822420726234702e+00  -7.9770760128969824e+00  -7.9710457265223678e+00  -7.9636902737338673e+00  -7.9543895097467603e+00  -7.9432560375727030e+00  -7.9389694025809021e+00  -8.0000000000000000e+00  -8.0000000000000000e+00  -8.0000000000000000e+00  -8.0000000000000000e+00  -8.0000000000000000e+00  -8.0000000000000000e+00  -8.0000000000000000e+00  -8.0000000000000000e+00  -8.0000000000000000e+00  -8.0000000000000000e+00  -8.0000000000000000e+00  -8.0000000000000000e+00  -8.0000000000000000e+00  -8.0000000000000000e+00  -8.0000000000000000e+00  -8.0000000000000000e+00  -8.0000000000000000e+00  -8.0000000000000000e+00  -8.0000000000000000e+00  -8.0000000000000000e+00  -8.0000000000000000e+00  </DataArray> 
</PointData> 
</Piece>
</UnstructuredGrid>
</VTKFile>