<?xml version="1.0"?>
<VTKFile type="UnstructuredGrid"  version="0.1"  >
<UnstructuredGrid>
<Piece  NumberOfPoints="651" NumberOfCells="1200">
<Points>
<DataArray  type="Float64"  NumberOfComponents="3"  format="ascii">0 0 0  50000 0 0  100000 0 0  150000 0 0  200000 0 0  250000 0 0  300000 0 0  350000 0 0  400000 0 0  450000 0 0  500000 0 0  550000 0 0  600000 0 0  650000 0 0  700000 0 0  750000 0 0  800000 0 0  850000 0 0  900000 0 0  950000 0 0  1000000 0 0  0 50000 0  50000 50000 0  100000 50000 0  150000 50000 0  200000 50000 0  250000 50000 0  300000 50000 0  350000 50000 0  400000 50000 0  450000 50000 0  500000 50000 0  550000 50000 0  600000 50000 0  650000 50000 0  700000 50000 0  750000 50000 0  800000 50000 0  850000 50000 0  900000 50000 0  950000 50000 0  1000000 50000 0  0 100000 0  50000 100000 0  100000 100000 0  150000 100000 0  200000 100000 0  250000 100000 0  300000 100000 0  350000 100000 0  400000 100000 0  450000 100000 0  500000 100000 0  550000 100000 0  600000 100000 0  650000 100000 0  700000 100000 0  750000 100000 0  800000 100000 0  850000 100000 0  900000 100000 0  950000 100000 0  1000000 100000 0  0 150000 0  50000 150000 0  100000 150000 0  150000 150000 0  200000 150000 0  250000 150000 0  300000 150000 0  350000 150000 0  400000 150000 0  450000 150000 0  500000 150000 0  550000 150000 0  600000 150000 0  650000 150000 0  700000 150000 0  750000 150000 0  800000 150000 0  850000 150000 0  900000 150000 0  950000 150000 0  1000000 150000 0  0 200000 0  50000 200000 0  100000 200000 0  150000 200000 0  200000 200000 0  250000 200000 0  300000 200000 0  350000 200000 0  400000 200000 0  450000 200000 0  500000 200000 0  550000 200000 0  600000 200000 0  650000 200000 0  700000 200000 0  750000 200000 0  800000 200000 0  850000 200000 0  900000 200000 0  950000 200000 0  1000000 200000 0  0 250000 0  50000 250000 0  100000 250000 0  150000 250000 0  200000 250000 0  250000 250000 0  300000 250000 0  350000 250000 0  400000 250000 0  450000 250000 0  500000 250000 0  550000 250000 0  600000 250000 0  650000 250000 0  700000 250000 0  750000 250000 0  800000 250000 0  850000 250000 0  900000 250000 0  950000 250000 0  1000000 250000 0  0 300000 0  50000 300000 0  100000 300000 0  150000 300000 0  200000 300000 0  250000 300000 0  300000 300000 0  350000 300000 0  400000 300000 0  450000 300000 0  500000 300000 0  550000 300000 0  600000 300000 0  650000 300000 0  700000 300000 0  750000 300000 0  800000 300000 0  850000 300000 0  900000 300000 0  950000 300000 0  1000000 300000 0  0 350000 0  50000 350000 0  100000 350000 0  150000 350000 0  200000 350000 0  250000 350000 0  300000 350000 0  350000 350000 0  400000 350000 0  450000 350000 0  500000 350000 0  550000 350000 0  600000 350000 0  650000 350000 0  700000 350000 0  750000 350000 0  800000 350000 0  850000 350000 0  900000 350000 0  950000 350000 0  1000000 350000 0  0 400000 0  50000 400000 0  100000 400000 0  150000 400000 0  200000 400000 0  250000 400000 0  300000 400000 0  350000 400000 0  400000 400000 0  450000 400000 0  500000 400000 0  550000 400000 0  600000 400000 0  650000 400000 0  700000 400000 0  750000 400000 0  800000 400000 0  850000 400000 0  900000 400000 0  950000 400000 0  1000000 400000 0  0 450000 0  50000 450000 0  100000 450000 0  150000 450000 0  200000 450000 0  250000 450000 0  300000 450000 0  350000 450000 0  400000 450000 0  450000 450000 0  500000 450000 0  550000 450000 0  600000 450000 0  650000 450000 0  700000 450000 0  750000 450000 0  800000 450000 0  850000 450000 0  900000 450000 0  950000 450000 0  1000000 450000 0  0 500000 0  50000 500000 0  100000 500000 0  150000 500000 0  200000 500000 0  250000 500000 0  300000 500000 0  350000 500000 0  400000 500000 0  450000 500000 0  500000 500000 0  550000 500000 0  600000 500000 0  650000 500000 0  700000 500000 0  750000 500000 0  800000 500000 0  850000 500000 0  900000 500000 0  950000 500000 0  1000000 500000 0  0 550000 0  50000 550000 0  100000 550000 0  150000 550000 0  200000 550000 0  250000 550000 0  300000 550000 0  350000 550000 0  400000 550000 0  450000 550000 0  500000 550000 0  550000 550000 0  600000 550000 0  650000 550000 0  700000 550000 0  750000 550000 0  800000 550000 0  850000 550000 0  900000 550000 0  950000 550000 0  1000000 550000 0  0 600000 0  50000 600000 0  100000 600000 0  150000 600000 0  200000 600000 0  250000 600000 0  300000 600000 0  350000 600000 0  400000 600000 0  450000 600000 0  500000 600000 0  550000 600000 0  600000 600000 0  650000 600000 0  700000 600000 0  750000 600000 0  800000 600000 0  850000 600000 0  900000 600000 0  950000 600000 0  1000000 600000 0  0 650000 0  50000 650000 0  100000 650000 0  150000 650000 0  200000 650000 0  250000 650000 0  300000 650000 0  350000 650000 0  400000 650000 0  450000 650000 0  500000 650000 0  550000 650000 0  600000 650000 0  650000 650000 0  700000 650000 0  750000 650000 0  800000 650000 0  850000 650000 0  900000 650000 0  950000 650000 0  1000000 650000 0  0 700000 0  50000 700000 0  100000 700000 0  150000 700000 0  200000 700000 0  250000 700000 0  300000 700000 0  350000 700000 0  400000 700000 0  450000 700000 0  500000 700000 0  550000 700000 0  600000 700000 0  650000 700000 0  700000 700000 0  750000 700000 0  800000 700000 0  850000 700000 0  900000 700000 0  950000 700000 0  1000000 700000 0  0 750000 0  50000 750000 0  100000 750000 0  150000 750000 0  200000 750000 0  250000 750000 0  300000 750000 0  350000 750000 0  400000 750000 0  450000 750000 0  500000 750000 0  550000 750000 0  600000 750000 0  650000 750000 0  700000 750000 0  750000 750000 0  800000 750000 0  850000 750000 0  900000 750000 0  950000 750000 0  1000000 750000 0  0 800000 0  50000 800000 0  100000 800000 0  150000 800000 0  200000 800000 0  250000 800000 0  300000 800000 0  350000 800000 0  400000 800000 0  450000 800000 0  500000 800000 0  550000 800000 0  600000 800000 0  650000 800000 0  700000 800000 0  750000 800000 0  800000 800000 0  850000 800000 0  900000 800000 0  950000 800000 0  1000000 800000 0  0 850000 0  50000 850000 0  100000 850000 0  150000 850000 0  200000 850000 0  250000 850000 0  300000 850000 0  350000 850000 0  400000 850000 0  450000 850000 0  500000 850000 0  550000 850000 0  600000 850000 0  650000 850000 0  700000 850000 0  750000 850000 0  800000 850000 0  850000 850000 0  900000 850000 0  950000 850000 0  1000000 850000 0  0 900000 0  50000 900000 0  100000 900000 0  150000 900000 0  200000 900000 0  250000 900000 0  300000 900000 0  350000 900000 0  400000 900000 0  450000 900000 0  500000 900000 0  550000 900000 0  600000 900000 0  650000 900000 0  700000 900000 0  750000 900000 0  800000 900000 0  850000 900000 0  900000 900000 0  950000 900000 0  1000000 900000 0  0 950000 0  50000 950000 0  100000 950000 0  150000 950000 0  200000 950000 0  250000 950000 0  300000 950000 0  350000 950000 0  400000 950000 0  450000 950000 0  500000 950000 0  550000 950000 0  600000 950000 0  650000 950000 0  700000 950000 0  750000 950000 0  800000 950000 0  850000 950000 0  900000 950000 0  950000 950000 0  1000000 950000 0  0 1000000 0  50000 1000000 0  100000 1000000 0  150000 1000000 0  200000 1000000 0  250000 1000000 0  300000 1000000 0  350000 1000000 0  400000 1000000 0  450000 1000000 0  500000 1000000 0  550000 1000000 0  600000 1000000 0  650000 1000000 0  700000 1000000 0  750000 1000000 0  800000 1000000 0  850000 1000000 0  900000 1000000 0  950000 1000000 0  1000000 1000000 0  0 1050000 0  50000 1050000 0  100000 1050000 0  150000 1050000 0  200000 1050000 0  250000 1050000 0  300000 1050000 0  350000 1050000 0  400000 1050000 0  450000 1050000 0  500000 1050000 0  550000 1050000 0  600000 1050000 0  650000 1050000 0  700000 1050000 0  750000 1050000 0  800000 1050000 0  850000 1050000 0  900000 1050000 0  950000 1050000 0  1000000 1050000 0  0 1100000 0  50000 1100000 0  100000 1100000 0  150000 1100000 0  200000 1100000 0  250000 1100000 0  300000 1100000 0  350000 1100000 0  400000 1100000 0  450000 1100000 0  500000 1100000 0  550000 1100000 0  600000 1100000 0  650000 1100000 0  700000 1100000 0  750000 1100000 0  800000 1100000 0  850000 1100000 0  900000 1100000 0  950000 1100000 0  1000000 1100000 0  0 1150000 0  50000 1150000 0  100000 1150000 0  150000 1150000 0  200000 1150000 0  250000 1150000 0  300000 1150000 0  350000 1150000 0  400000 1150000 0  450000 1150000 0  500000 1150000 0  550000 1150000 0  600000 1150000 0  650000 1150000 0  700000 1150000 0  750000 1150000 0  800000 1150000 0  850000 1150000 0  900000 1150000 0  950000 1150000 0  1000000 1150000 0  0 1200000 0  50000 1200000 0  100000 1200000 0  150000 1200000 0  200000 1200000 0  250000 1200000 0  300000 1200000 0  350000 1200000 0  400000 1200000 0  450000 1200000 0  500000 1200000 0  550000 1200000 0  600000 1200000 0  650000 1200000 0  700000 1200000 0  750000 1200000 0  800000 1200000 0  850000 1200000 0  900000 1200000 0  950000 1200000 0  1000000 1200000 0  0 1250000 0  50000 1250000 0  100000 1250000 0  150000 1250000 0  200000 1250000 0  250000 1250000 0  300000 1250000 0  350000 1250000 0  400000 1250000 0  450000 1250000 0  500000 1250000 0  550000 1250000 0  600000 1250000 0  650000 1250000 0  700000 1250000 0  750000 1250000 0  800000 1250000 0  850000 1250000 0  900000 1250000 0  950000 1250000 0  1000000 1250000 0  0 1300000 0  50000 1300000 0  100000 1300000 0  150000 1300000 0  200000 1300000 0  250000 1300000 0  300000 1300000 0  350000 1300000 0  400000 1300000 0  450000 1300000 0  500000 1300000 0  550000 1300000 0  600000 1300000 0  650000 1300000 0  700000 1300000 0  750000 1300000 0  800000 1300000 0  850000 1300000 0  900000 1300000 0  950000 1300000 0  1000000 1300000 0  0 1350000 0  50000 1350000 0  100000 1350000 0  150000 1350000 0  200000 1350000 0  250000 1350000 0  300000 1350000 0  350000 1350000 0  400000 1350000 0  450000 1350000 0  500000 1350000 0  550000 1350000 0  600000 1350000 0  650000 1350000 0  700000 135
[...]
<PointData  Scalars="f_3001"> 
<DataArray  type="Float64"  Name="f_3001"  format="ascii">-8.0691676984021647e+00  -8.0682001618229506e+00  -8.0634291268900800e+00  -8.0548401611190847e+00  -8.0426559687323635e+00  -8.0272007355150485e+00  -8.0088850794368120e+00  -7.9881943384093583e+00  -7.9656755473541487e+00  -7.9419228514984397e+00  -7.9175617210302445e+00  -7.8932323945594369e+00  -7.8695729824125440e+00  -7.8472026655080427e+00  -7.8267054421227957e+00  -7.8086149372395406e+00  -7.7934010260313356e+00  -7.7814597651656463e+00  -7.7731090147637243e+00  -7.7685728670084249e+00  -7.7675919487021918e+00  -8.0700834266518147e+00  -8.0691377875081312e+00  -8.0642985720882603e+00  -8.0556529175426643e+00  -8.0434056283401443e+00  -8.0278748397964392e+00  -8.0094696948276756e+00  -7.9886762883921349e+00  -7.9660435495597035e+00  -7.9421681540956932e+00  -7.9176784803437208e+00  -7.8932178846722927e+00  -7.8694276686684894e+00  -7.8469301440938786e+00  -7.8263122156490370e+00  -7.8081099050594194e+00  -7.7927941843135304e+00  -7.7807580369624176e+00  -7.7723022127023880e+00  -7.7676059259916261e+00  -7.7666249686787490e+00  -8.0745612836099880e+00  -8.0736820318380946e+00  -8.0687319024220532e+00  -8.0598255715278775e+00  -8.0472084187947335e+00  -8.0312148451060743e+00  -8.0122663398627925e+00  -7.9908620793325458e+00  -7.9675658123782807e+00  -7.9429906046863721e+00  -7.9177823160752379e+00  -7.8926023440544473e+00  -7.8681100615412438e+00  -7.8449453629983807e+00  -7.8237117451961762e+00  -7.8049603767319606e+00  -7.7891756545368409e+00  -7.7767627511371291e+00  -7.7680371581783767e+00  -7.7632115832442423e+00  -7.7623325831417489e+00  -8.0825446988758305e+00  -8.0816756507172336e+00  -8.0765402461229545e+00  -8.0672107788631120e+00  -8.0539576620890809e+00  -8.0371461492072722e+00  -8.0172258067269091e+00  -7.9947238435786678e+00  -7.9702334766157845e+00  -7.9443989436070517e+00  -7.9178986200294244e+00  -7.8914271248069161e+00  -7.8656770235597593e+00  -7.8413206380996279e+00  -7.8189924678411762e+00  -7.7992727977147842e+00  -7.7826732063865860e+00  -7.7696247624687755e+00  -7.7604685031705358e+00  -7.7554377506164718e+00  -7.7545581025702335e+00  -8.0939084124993723e+00  -8.0930147740598724e+00  -8.0875872927208334e+00  -8.0776615143624309e+00  -8.0635183752688224e+00  -8.0455545743772969e+00  -8.0242576539254475e+00  -8.0001958010538790e+00  -7.9740057358536331e+00  -7.9463774177427604e+00  -7.9180365687864009e+00  -7.8897259651003342e+00  -7.8621862157353464e+00  -7.8361366282001175e+00  -7.8122567420954381e+00  -7.7911691692330338e+00  -7.7734244404614019e+00  -7.7594882525740658e+00  -7.7497289594319927e+00  -7.7443896051942875e+00  -7.7434608189679555e+00  -8.1085807065781328e+00  -8.1076364095495776e+00  -8.1018058202957484e+00  -8.0911000321362909e+00  -8.0758106053310623e+00  -8.0563666477535367e+00  -8.0333002687878352e+00  -8.0072311959558817e+00  -7.9788523237305267e+00  -7.9489130770871741e+00  -7.9182007974139941e+00  -7.8875208798402809e+00  -7.8576763551592856e+00  -7.8294475338774072e+00  -7.8035723079374693e+00  -7.7807277194520843e+00  -7.7615133317077127e+00  -7.7464362730692899e+00  -7.7358945211553145e+00  -7.7301403218754947e+00  -7.7291360522472274e+00  -8.1265395214540881e+00  -8.1255223904284968e+00  -8.1191786636767080e+00  -8.1075043676024503e+00  -8.0908074809358368e+00  -8.0695541678580955e+00  -8.0443279240284813e+00  -8.0158096324714450e+00  -7.9847600505866287e+00  -7.9520010281176248e+00  -7.9183951672331014e+00  -7.8848243923575980e+00  -7.8521680058605803e+00  -7.8212807873013848e+00  -7.7929716791791925e+00  -7.7679835844020850e+00  -7.7469746396541561e+00  -7.7305004931040111e+00  -7.7189935326458858e+00  -7.7127197172940800e+00  -7.7116201599018233e+00  -8.1478022612949292e+00  -8.1466917568118795e+00  -8.1397258189934512e+00  -8.1268915215811930e+00  -8.1085207573811857e+00  -8.0851239378936874e+00  -8.0573440955416675e+00  -8.0259330911399243e+00  -7.9917309148743305e+00  -7.9556443090800411e+00  -7.9186242501221162e+00  -7.8816425815914677e+00  -7.8456682352747826e+00  -7.8116434845610758e+00  -7.7804606718410323e+00  -7.7529398332092034e+00  -7.7298074697180166e+00  -7.7116758457398893e+00  -7.6990184724110220e+00  -7.6921211987360669e+00  -7.6909084803966721e+00  -8.1724144787514028e+00  -8.1711905875318465e+00  -8.1634930329953370e+00  -8.1493039766841289e+00  -8.1289871030494449e+00  -8.1031057515380081e+00  -8.0723719607386570e+00  -8.0376190758115182e+00  -7.9997778252829326e+00  -7.9598520991134940e+00  -7.9188939609682247e+00  -7.8779780924791529e+00  -7.8381759664389907e+00  -7.8005300425486279e+00  -7.7660282870266686e+00  -7.7355793289814478e+00  -7.7099884376001864e+00  -7.6899336669420251e+00  -7.6759376223562095e+00  -7.6683126787267142e+00  -7.6669694645773125e+00  -8.2004377549480125e+00  -8.1990803711428040e+00  -8.1905401566326450e+00  -8.1747973747973806e+00  -8.1522555673965034e+00  -8.1235407119051377e+00  -8.0894444672053343e+00  -8.0508929736482067e+00  -8.0089195349861075e+00  -7.9646373603342813e+00  -7.9192119460440153e+00  -7.8738332304486693e+00  -7.8296876602536454e+00  -7.7879302621495281e+00  -7.7496568301585942e+00  -7.7158764061663030e+00  -7.6874841897106432e+00  -7.6652342362764108e+00  -7.6497071766479188e+00  -7.6412488053259047e+00  -7.6397577785632933e+00  -8.2319363210704743e+00  -8.2304248512189382e+00  -8.2209282632118512e+00  -8.2034276391699219e+00  -8.1783748842462511e+00  -8.1464693217762498e+00  -8.1085939485702276e+00  -8.0657798355787822e+00  -8.0191750514174132e+00  -7.9700141656941526e+00  -7.9195879526763857e+00  -7.8692133390796570e+00  -7.8202035155276057e+00  -7.7738380199091104e+00  -7.7313326272819953e+00  -7.6938090283101737e+00  -7.6622643644937902e+00  -7.6375400021219439e+00  -7.6202845268966541e+00  -7.6108845097330509e+00  -7.6092281295697379e+00  -8.2669618130820783e+00  -8.2652748962791360e+00  -8.2547048004939292e+00  -8.2352364034473275e+00  -8.2073793695643786e+00  -8.1719183381185854e+00  -8.1298406042462208e+00  -8.0822951655091835e+00  -8.0305573125879004e+00  -7.9759946640085975e+00  -7.9200342740686329e+00  -7.8641306934399680e+00  -7.8097345641641187e+00  -7.7582611287465131e+00  -7.7110580713870291e+00  -7.6693723673002836e+00  -7.6343160814602591e+00  -7.6068305160585359e+00  -7.5876434383167730e+00  -7.5771904220488828e+00  -7.5753507990128748e+00  -8.3055354677632831e+00  -8.3036507578209076e+00  -8.2918860592471262e+00  -8.2702338127692414e+00  -8.2392723436549620e+00  -8.1998853553151640e+00  -8.1531789733945743e+00  -8.1004340708038853e+00  -8.0430657175173561e+00  -7.9825855035193509e+00  -7.9205663204068983e+00  -7.8586091844196844e+00  -7.7983111523569200e+00  -7.7412330598281152e+00  -7.6888658655712820e+00  -7.6425947924778992e+00  -7.6036609715668240e+00  -7.5731199886336604e+00  -7.5517918606513454e+00  -7.5401708444812865e+00  -7.5381296706431975e+00  -8.3476269831944023e+00  -8.3455209556331429e+00  -8.3324361487970791e+00  -8.3083777538873633e+00  -8.2740060193132816e+00  -8.2303200425908027e+00  -8.1785614297657201e+00  -8.1201579934216408e+00  -8.0566769798499180e+00  -7.9897834624409612e+00  -7.9212033545422669e+00  -7.8526901173110097e+00  -7.7859933956963916e+00  -7.7228273396927936e+00  -7.6648364428803824e+00  -7.6135573312218012e+00  -7.5703757932762095e+00  -7.5364784096541833e+00  -7.5127931981979144e+00  -7.4998850593686210e+00  -7.4976235504271056e+00  -8.3931291702349906e+00  -8.3907769143260502e+00  -8.3762415362298839e+00  -8.3495484478275976e+00  -8.3114566813721868e+00  -8.2631008384695761e+00  -8.2058775930656829e+00  -8.1413781166232120e+00  -8.0713336762218333e+00  -7.9975699804637843e+00  -7.9219694277771833e+00  -7.8464394985944397e+00  -7.7728842951364561e+00  -7.7031755711864758e+00  -7.6391196929513958e+00  -7.5824178089829415e+00  -7.5346178119772613e+00  -7.4970573019722346e+00  -7.4707919856071641e+00  -7.4564728502457038e+00  -7.4539716516868637e+00  -8.4418274064462899e+00  -8.4392023457491998e+00  -8.4230800344479668e+00  -8.3935171345461832e+00  -8.3513937679650496e+00  -8.2980057002950129e+00  -8.2349283759371428e+00  -8.1639344057223298e+00  -8.0869297695555709e+00  -8.0059042390385020e+00  -7.9228945502508843e+00  -7.8399572316476709e+00  -7.7591462997426506e+00  -7.6824901790395081e+00  -7.6119623231954794e+00  -7.5494411009607072e+00  -7.4966563463250626e+00  -7.4551213820824316e+00  -7.4260450833934701e+00  -7.4101852422586498e+00  -7.4074242332459423e+00  -8.4933627574561061e+00  -8.4904362085273242e+00  -8.4725828953598548e+00  -8.4399072882614803e+00  -8.3934411552084676e+00  -8.3346752331712661e+00  -8.2653931819597091e+00  -8.1875691141752949e+00  -8.1032923207103131e+00  -8.0147144089406694e+00  -7.9240161248062613e+00  -7.8333886648621762e+00  -7.7450221742209777e+00  -7.6610931269536406e+00  -7.5837424131087650e+00  -7.5150372270186736e+00  -7.4569122096336322e+00  -7.4110876971197470e+00  -7.3789597391965245e+00  -7.3614216406976460e+00  -7.3583795364329703e+00  -8.5471874265220880e+00  -8.5439278455977306e+00  -8.5241883347637675e+00  -8.4881463871922644e+00  -8.4370285326298919e+00  -8.3725662028268530e+00  -8.2967885920264717e+00  -8.2118935343134094e+00  -8.1201586169992730e+00  -8.0238867005859849e+00  -7.9253806548447212e+00  -7.8269388907457813e+00  -7.7308610091706793e+00  -7.6394519276603043e+00  -7.5550129409462858e+00  -7.4798093873229901e+00  -7.4160072222607916e+00  -7.3655742396258290e+00  -7.3301402023850750e+00  -7.3107747981749132e+00  -7.3074283989746771e+00  -8.6025108768563694e+00  -8.5988825393703685e+00  -8.5770842996493055e+00  -8.5374056455692902e+00  -8.4813302125720291e+00  -8.4108931219751426e+00  -8.3284168372807503e+00  -8.2363469322634906e+00  -8.1371481593185102e+00  -8.0332519762033421e+00  -7.9270456924615464e+00  -7.8208899988077665e+00  -7.7171499701837503e+00  -7.6182241341848371e+00  -7.5265561739870286e+00  -7.4446144402577650e+00  -7.3748265865173295e+00  -7.3194606962293740e+00  -7.2804451194426054e+00  -7.2590854422203703e+00  -7.2554082948881096e+00  -8.6582344348427558e+00  -8.6541951033422109e+00  -8.6301374183681716e+00  -8.5865241582858900e+00  -8.5251880175868440e+00  -8.4485554118294921e+00  -8.3593026868019891e+00  -8.2601472390397142e+00  -8.1537295723030585e+00  -8.0425700209539208e+00  -7.9290819018730234e+00  -7.8156209923189461e+00  -7.7045516816944470e+00  -7.5983108961100374e+00  -7.4994506090490773e+00  -7.4106386852641535e+00  -7.3345977651164933e+00  -7.2739650274305250e+00  -7.2310588498004877e+00  -7.2075090845007184e+00  -7.2034691885251272e+00  -8.7128712124025682e+00  -8.7083679878428573e+00  -8.6818035139611620e+00  -8.6339123611432811e+00  -8.5670140418670613e+00  -8.4840478642194928e+00  -8.3881185294330063e+00  -8.2822346395917723e+00  -8.1691838891832997e+00  -8.0515122975766129e+00  -7.9315749424678303e+00  -7.8116290523920044e+00  -7.6939455786223157e+00  -7.5809186053866728e+00  -7.4751512057641438e+00  -7.3794919200097722e+00  -7.2969906656941443e+00  -7.2307413021861322e+00  -7.1835814702740857e+00  -7.1575987850755158e+00  -7.1531547525283035e+00  -8.7644463647621063e+00  -8.7594081749346699e+00  -8.7300121338698098e+00  -8.6774271585829812e+00  -8.6046682341015437e+00  -8.5153534124740169e+00  -8.4131002581584031e+00  -8.3012124903875701e+00  -8.1825683595303627e+00  -8.0596453811799691e+00  -7.9346265832629932e+00  -7.8095489266799714e+00  -7.6864684947616357e+00  -7.5676242962625659e+00  -7.4555811326608898e+00  -7.3533220710499796e+00  -7.2642454391615834e+00  -7.1920071617211052e+00  -7.1401452731594510e+00  -7.1114100130509827e+00  -7.1065046923075474e+00  -8.8103691962585966e+00  -8.8046926990798067e+00  -8.7720118707205970e+00  -8.7142069153256383e+00  -8.6353055260810780e+00  -8.5398210013600266e+00  -8.4319626281258540e+00  -8.3152962061763009e+00  -8.1926896559018676e+00  -8.0664195948706219e+00  -7.9383540077281403e+00  -7.8101640193649944e+00  -7.6835442978432686e+00  -7.5604339108943561e+00  -7.4432275178199028e+00  -7.3349499886257998e+00  -7.2393358090899182e+00  -7.1607143959603397e+00  -7.1035714423490859e+00  -7.0716383824616509e+00  -7.0661881933302766e+00  -8.8472617690661188e+00  -8.8407832255981891e+00  -8.8041519750844763e+00  -8.7404482241990831e+00  -8.6551897021081974e+00  -8.5540407466115518e+00  -8.4418347025186780e+00  -8.3222914694865793e+00  -8.1981028048676254e+00  -8.0711708631228500e+00  -7.9428856660016756e+00  -7.8143979835557866e+00  -7.6868835608277895e+00  -7.5618107258320109e+00  -7.4412216850459938e+00  -7.3280162330695564e+00  -7.2261763041234586e+00  -7.1407848538766707e+00  -7.0775923981886448e+00  -7.0418104989709738e+00  -7.0356871464311448e+00  -8.8707150027333252e+00  -8.8631488245712777e+00  -8.8215532263210381e+00  -8.7510990350774431e+00  -8.6594824580961411e+00  -8.5537500185055446e+00  -8.4392577987536583e+00  -8.3196397173747894e+00  -8.1971623029655429e+00  -8.0731482129650090e+00  -7.9483514330257581e+00  -7.8232696812402436e+00  -7.6984218055657294e+00  -7.5746317321084060e+00  -7.4533605646967853e+00  -7.3371116707577002e+00  -7.2298763547064961e+00  -7.1374479620871085e+00  -7.0671899425373752e+00  -7.0265685599439722e+00  -7.0195661817066419e+00  -8.8749152735119221e+00  -8.8657037632627169e+00  -8.8175774510933831e+00  -8.7394433378541176e+00  -8.6420525263877099e+00  -8.5338495463362189e+00  -8.4203243371321168e+00  -8.3045905364107888e+00  -8.1881622899204682e+00  -8.0715831282370285e+00  -7.9548646201447202e+00  -7.8377894826432595e+00  -7.7201512304763344e+00  -7.6020018484008265e+00  -7.4839821080755478e+00  -7.3678147679465127e+00  -7.2570166884373339e+00  -7.1577340609373570e+00  -7.0791527809015200e+00  -7.0321372211836710e+00  -7.0239086775063839e+00  -8.8520219828988953e+00  -8.8399279129444626e+00  -8.7829329652465891e+00  -8.6965999472001787e+00  -8.5954507669361551e+00  -8.4886957298679206e+00  -8.3810855442721106e+00  -8.2745792925326072e+00  -8.1696055035592732e+00  -8.0658158497644994e+00  -7.9624939733942073e+00  -7.8587762850490872e+00  -7.7537950033239298e+00  -7.6468270687458526e+00  -7.5375375719244193e+00  -7.4264470329105805e+00  -7.3158208179329076e+00  -7.2111731688053746e+00  -7.1230758100305609e+00  -7.0671873045198046e+00  -7.0571060463429109e+00  -8.7909829737466776e+00  -8.7729546457319287e+00  -8.7042061118004064e+00  -8.6111854378974169e+00  -8.5114397991369408e+00  -8.4129726111547427e+00  -8.3183964581549983e+00  -8.2278787377487639e+00  -8.1406184980903600e+00  -8.0554788544151332e+00  -7.9712240537583225e+00  -7.8865897415025117e+00  -7.8002936670064802e+00  -7.7110467932486211e+00  -7.6176279948081431e+00  -7.5191452401476901e+00  -7.4157683475009435e+00  -7.3105589435703209e+00  -7.2132561140979732e+00  -7.1446983365826346e+00  -7.1315109650587942e+00  -8.6745740363240866e+00  -8.6430746832995275e+00  -8.5620028173752711e+00  -8.4701628495551269e+00  -8.3829294028148791e+00  -8.3035658557616401e+00  -8.2313129916570684e+00  -8.1644976458962049e+00  -8.1014512893560955e+00  -8.0406919413723745e+00  -7.9808930907540159e+00  -7.9208004094206688e+00  -7.8591374360201867e+00  -7.7945068014224201e+00  -7.7252920693567173e+00  -7.6495985806361659e+00  -7.5654057950577096e+00  -7.4715772074897933e+00  -7.3719191926747722e+00  -7.2868584894132677e+00  -7.2675783177126432e+00  -8.4680615360987055e+00  -8.4096636867745520e+00  -8.3315781890921556e+00  -8.2638242521636123e+00  -8.2086125394866478e+00  -8.1626116097792814e+00  -8.1227829486667105e+00  -8.0870012607417170e+00  -8.0537981408352177e+00  -8.0220960259890433e+00  -7.9910270412961806e+00  -7.9598093001882138e+00  -7.9276476839736727e+00  -7.8936310908433223e+00  -7.8565953262609511e+00  -7.8149059495493542e+00  -7.7660929954296209e+00  -7.7063263722561377e+00  -7.6305017588754680e+00  -7.5398604090461738e+00  -7.5075654805291290e+00  -8.0000000000000000e+00  -8.0000000000000000e+00  -8.0000000000000000e+00  -8.0000000000000000e+00  -8.0000000000000000e+00  -8.0000000000000000e+00  -8.0000000000000000e+00  -8.0000000000000000e+00  -8.0000000000000000e+00  -8.0000000000000000e+00  -8.0000000000000000e+00  -8.0000000000000000e+00  -8.0000000000000000e+00  -8.0000000000000000e+00  -8.0000000000000000e+00  -8.0000000000000000e+00  -8.0000000000000000e+00  -8.0000000000000000e+00  -8.0000000000000000e+00  -8.0000000000000000e+00  -8.0000000000000000e+00  </DataArray> 
</PointData> 
</Piece>
</UnstructuredGrid>
</VTKFile>