<?xml version="1.0"?>
<VTKFile type="UnstructuredGrid"  version="0.1"  >
<UnstructuredGrid>
<Piece  NumberOfPoints="651" NumberOfCells="1200">
<Points>
<DataArray  type="Float64"  NumberOfComponents="3"  format="ascii">0 0 0  50000 0 0  100000 0 0  150000 0 0  200000 0 0  250000 0 0  300000 0 0  350000 0 0  400000 0 0  450000 0 0  500000 0 0  550000 0 0  600000 0 0  650000 0 0  700000 0 0  750000 0 0  800000 0 0  850000 0 0  900000 0 0  950000 0 0  1000000 0 0  0 50000 0  50000 50000 0  100000 50000 0  150000 50000 0  200000 50000 0  250000 50000 0  300000 50000 0  350000 50000 0  400000 50000 0  450000 50000 0  500000 50000 0  550000 50000 0  600000 50000 0  650000 50000 0  700000 50000 0  750000 50000 0  800000 50000 0  850000 50000 0  900000 50000 0  950000 50000 0  1000000 50000 0  0 100000 0  50000 100000 0  100000 100000 0  150000 100000 0  200000 100000 0  250000 100000 0  300000 100000 0  350000 100000 0  400000 100000 0  450000 100000 0  500000 100000 0  550000 100000 0  600000 100000 0  650000 100000 0  700000 100000 0  750000 100000 0  800000 100000 0  850000 100000 0  900000 100000 0  950000 100000 0  1000000 100000 0  0 150000 0  50000 150000 0  100000 150000 0  150000 150000 0  200000 150000 0  250000 150000 0  300000 150000 0  350000 150000 0  400000 150000 0  450000 150000 0  500000 150000 0  550000 150000 0  600000 150000 0  650000 150000 0  700000 150000 0  750000 150000 0  800000 150000 0  850000 150000 0  900000 150000 0  950000 150000 0  1000000 150000 0  0 200000 0  50000 200000 0  100000 200000 0  150000 200000 0  200000 200000 0  250000 200000 0  300000 200000 0  350000 200000 0  400000 200000 0  450000 200000 0  500000 200000 0  550000 200000 0  600000 200000 0  650000 200000 0  700000 200000 0  750000 200000 0  800000 200000 0  850000 200000 0  900000 200000 0  950000 200000 0  1000000 200000 0  0 250000 0  50000 250000 0  100000 250000 0  150000 250000 0  200000 250000 0  250000 250000 0  300000 250000 0  350000 250000 0  400000 250000 0  450000 250000 0  500000 250000 0  550000 250000 0  600000 250000 0  650000 250000 0  700000 250000 0  750000 250000 0  800000 250000 0  850000 250000 0  900000 250000 0  950000 250000 0  1000000 250000 0  0 300000 0  50000 300000 0  100000 300000 0  150000 300000 0  200000 300000 0  250000 300000 0  300000 300000 0  350000 300000 0  400000 300000 0  450000 300000 0  500000 300000 0  550000 300000 0  600000 300000 0  650000 300000 0  700000 300000 0  750000 300000 0  800000 300000 0  850000 300000 0  900000 300000 0  950000 300000 0  1000000 300000 0  0 350000 0  50000 350000 0  100000 350000 0  150000 350000 0  200000 350000 0  250000 350000 0  300000 350000 0  350000 350000 0  400000 350000 0  450000 350000 0  500000 350000 0  550000 350000 0  600000 350000 0  650000 350000 0  700000 350000 0  750000 350000 0  800000 350000 0  850000 350000 0  900000 350000 0  950000 350000 0  1000000 350000 0  0 400000 0  50000 400000 0  100000 400000 0  150000 400000 0  200000 400000 0  250000 400000 0  300000 400000 0  350000 400000 0  400000 400000 0  450000 400000 0  500000 400000 0  550000 400000 0  600000 400000 0  650000 400000 0  700000 400000 0  750000 400000 0  800000 400000 0  850000 400000 0  900000 400000 0  950000 400000 0  1000000 400000 0  0 450000 0  50000 450000 0  100000 450000 0  150000 450000 0  200000 450000 0  250000 450000 0  300000 450000 0  350000 450000 0  400000 450000 0  450000 450000 0  500000 450000 0  550000 450000 0  600000 450000 0  650000 450000 0  700000 450000 0  750000 450000 0  800000 450000 0  850000 450000 0  900000 450000 0  950000 450000 0  1000000 450000 0  0 500000 0  50000 500000 0  100000 500000 0  150000 500000 0  200000 500000 0  250000 500000 0  300000 500000 0  350000 500000 0  400000 500000 0  450000 500000 0  500000 500000 0  550000 500000 0  600000 500000 0  650000 500000 0  700000 500000 0  750000 500000 0  800000 500000 0  850000 500000 0  900000 500000 0  950000 500000 0  1000000 500000 0  0 550000 0  50000 550000 0  100000 550000 0  150000 550000 0  200000 550000 0  250000 550000 0  300000 550000 0  350000 550000 0  400000 550000 0  450000 550000 0  500000 550000 0  550000 550000 0  600000 550000 0  650000 550000 0  700000 550000 0  750000 550000 0  800000 550000 0  850000 550000 0  900000 550000 0  950000 550000 0  1000000 550000 0  0 600000 0  50000 600000 0  100000 600000 0  150000 600000 0  200000 600000 0  250000 600000 0  300000 600000 0  350000 600000 0  400000 600000 0  450000 600000 0  500000 600000 0  550000 600000 0  600000 600000 0  650000 600000 0  700000 600000 0  750000 600000 0  800000 600000 0  850000 600000 0  900000 600000 0  950000 600000 0  1000000 600000 0  0 650000 0  50000 650000 0  100000 650000 0  150000 650000 0  200000 650000 0  250000 650000 0  300000 650000 0  350000 650000 0  400000 650000 0  450000 650000 0  500000 650000 0  550000 650000 0  600000 650000 0  650000 650000 0  700000 650000 0  750000 650000 0  800000 650000 0  850000 650000 0  900000 650000 0  950000 650000 0  1000000 650000 0  0 700000 0  50000 700000 0  100000 700000 0  150000 700000 0  200000 700000 0  250000 700000 0  300000 700000 0  350000 700000 0  400000 700000 0  450000 700000 0  500000 700000 0  550000 700000 0  600000 700000 0  650000 700000 0  700000 700000 0  750000 700000 0  800000 700000 0  850000 700000 0  900000 700000 0  950000 700000 0  1000000 700000 0  0 750000 0  50000 750000 0  100000 750000 0  150000 750000 0  200000 750000 0  250000 750000 0  300000 750000 0  350000 750000 0  400000 750000 0  450000 750000 0  500000 750000 0  550000 750000 0  600000 750000 0  650000 750000 0  700000 750000 0  750000 750000 0  800000 750000 0  850000 750000 0  900000 750000 0  950000 750000 0  1000000 750000 0  0 800000 0  50000 800000 0  100000 800000 0  150000 800000 0  200000 800000 0  250000 800000 0  300000 800000 0  350000 800000 0  400000 800000 0  450000 800000 0  500000 800000 0  550000 800000 0  600000 800000 0  650000 800000 0  700000 800000 0  750000 800000 0  800000 800000 0  850000 800000 0  900000 800000 0  950000 800000 0  1000000 800000 0  0 850000 0  50000 850000 0  100000 850000 0  150000 850000 0  200000 850000 0  250000 850000 0  300000 850000 0  350000 850000 0  400000 850000 0  450000 850000 0  500000 850000 0  550000 850000 0  600000 850000 0  650000 850000 0  700000 850000 0  750000 850000 0  800000 850000 0  850000 850000 0  900000 850000 0  950000 850000 0  1000000 850000 0  0 900000 0  50000 900000 0  100000 900000 0  150000 900000 0  200000 900000 0  250000 900000 0  300000 900000 0  350000 900000 0  400000 900000 0  450000 900000 0  500000 900000 0  550000 900000 0  600000 900000 0  650000 900000 0  700000 900000 0  750000 900000 0  800000 900000 0  850000 900000 0  900000 900000 0  950000 900000 0  1000000 900000 0  0 950000 0  50000 950000 0  100000 950000 0  150000 950000 0  200000 950000 0  250000 950000 0  300000 950000 0  350000 950000 0  400000 950000 0  450000 950000 0  500000 950000 0  550000 950000 0  600000 950000 0  650000 950000 0  700000 950000 0  750000 950000 0  800000 950000 0  850000 950000 0  900000 950000 0  950000 950000 0  1000000 950000 0  0 1000000 0  50000 1000000 0  100000 1000000 0  150000 1000000 0  200000 1000000 0  250000 1000000 0  300000 1000000 0  350000 1000000 0  400000 1000000 0  450000 1000000 0  500000 1000000 0  550000 1000000 0  600000 1000000 0  650000 1000000 0  700000 1000000 0  750000 1000000 0  800000 1000000 0  850000 1000000 0  900000 1000000 0  950000 1000000 0  1000000 1000000 0  0 1050000 0  50000 1050000 0  100000 1050000 0  150000 1050000 0  200000 1050000 0  250000 1050000 0  300000 1050000 0  350000 1050000 0  400000 1050000 0  450000 1050000 0  500000 1050000 0  550000 1050000 0  600000 1050000 0  650000 1050000 0  700000 1050000 0  750000 1050000 0  800000 1050000 0  850000 1050000 0  900000 1050000 0  950000 1050000 0  1000000 1050000 0  0 1100000 0  50000 1100000 0  100000 1100000 0  150000 1100000 0  200000 1100000 0  250000 1100000 0  300000 1100000 0  350000 1100000 0  400000 1100000 0  450000 1100000 0  500000 1100000 0  550000 1100000 0  600000 1100000 0  650000 1100000 0  700000 1100000 0  750000 1100000 0  800000 1100000 0  850000 1100000 0  900000 1100000 0  950000 1100000 0  1000000 1100000 0  0 1150000 0  50000 1150000 0  100000 1150000 0  150000 1150000 0  200000 1150000 0  250000 1150000 0  300000 1150000 0  350000 1150000 0  400000 1150000 0  450000 1150000 0  500000 1150000 0  550000 1150000 0  600000 1150000 0  650000 1150000 0  700000 1150000 0  750000 1150000 0  800000 1150000 0  850000 1150000 0  900000 1150000 0  950000 1150000 0  1000000 1150000 0  0 1200000 0  50000 1200000 0  100000 1200000 0  150000 1200000 0  200000 1200000 0  250000 1200000 0  300000 1200000 0  350000 1200000 0  400000 1200000 0  450000 1200000 0  500000 1200000 0  550000 1200000 0  600000 1200000 0  650000 1200000 0  700000 1200000 0  750000 1200000 0  800000 1200000 0  850000 1200000 0  900000 1200000 0  950000 1200000 0  1000000 1200000 0  0 1250000 0  50000 1250000 0  100000 1250000 0  150000 1250000 0  200000 1250000 0  250000 1250000 0  300000 1250000 0  350000 1250000 0  400000 1250000 0  450000 1250000 0  500000 1250000 0  550000 1250000 0  600000 1250000 0  650000 1250000 0  700000 1250000 0  750000 1250000 0  800000 1250000 0  850000 1250000 0  900000 1250000 0  950000 1250000 0  1000000 1250000 0  0 1300000 0  50000 1300000 0  100000 1300000 0  150000 1300000 0  200000 1300000 0  250000 1300000 0  300000 1300000 0  350000 1300000 0  400000 1300000 0  450000 1300000 0  500000 1300000 0  550000 1300000 0  600000 1300000 0  650000 1300000 0  700000 1300000 0  750000 1300000 0  800000 1300000 0  850000 1300000 0  900000 1300000 0  950000 1300000 0  1000000 1300000 0  0 1350000 0  50000 1350000 0  100000 1350000 0  150000 1350000 0  200000 1350000 0  250000 1350000 0  300000 1350000 0  350000 1350000 0  400000 1350000 0  450000 1350000 0  500000 1350000 0  550000 1350000 0  600000 1350000 0  650000 1350000 0  700000 135
[...]
<PointData  Scalars="f_3001"> 
<DataArray  type="Float64"  Name="f_3001"  format="ascii">-8.0377721392019001e+00  -8.0372411393780379e+00  -8.0346508789862536e+00  -8.0299928028059409e+00  -8.0233862511200442e+00  -8.0150059538684708e+00  -8.0050738913407979e+00  -7.9938529057119654e+00  -7.9816395852296136e+00  -7.9687562922851676e+00  -7.9555425337738068e+00  -7.9423459069772955e+00  -7.9295128574203053e+00  -7.9173794882013988e+00  -7.9062626690909221e+00  -7.8964517263134724e+00  -7.8882011182978502e+00  -7.8817248919485081e+00  -7.8771941684816902e+00  -7.8747286176180298e+00  -7.8741896274957224e+00  -8.0382713023495089e+00  -8.0377516353562495e+00  -8.0351245387317860e+00  -8.0304354650464713e+00  -8.0237942080575895e+00  -8.0153722894383428e+00  -8.0053909353498316e+00  -7.9941134294953731e+00  -7.9818374136148140e+00  -7.9688866483377438e+00  -7.9556022443716987e+00  -7.9423335171454621e+00  -7.9294286702080097e+00  -7.9172255310863839e+00  -7.9060425706171156e+00  -7.8961704378489888e+00  -7.8878642115520714e+00  -7.8813363286968077e+00  -7.8767488414540523e+00  -7.8741976852296904e+00  -7.8736585675822468e+00  -8.0406982269240537e+00  -8.0402131148592044e+00  -8.0375251006827124e+00  -8.0326945784382904e+00  -8.0258528551967174e+00  -8.0171801305725481e+00  -8.0069042801295254e+00  -7.9952956679192333e+00  -7.9826599689135289e+00  -7.9693298323017157e+00  -7.9556558514997651e+00  -7.9419971294070679e+00  -7.9287116735500733e+00  -7.9161468491728550e+00  -7.9046301245746742e+00  -7.8944603571289882e+00  -7.8858998906710731e+00  -7.8791677368811488e+00  -7.8744338507155494e+00  -7.8718120669867053e+00  -7.8713265766198344e+00  -8.0450236303553471e+00  -8.0445429449119690e+00  -8.0417531852652981e+00  -8.0366926875885323e+00  -8.0295061851828837e+00  -8.0203903575891786e+00  -8.0095881520681527e+00  -7.9973850445235009e+00  -7.9841026354908982e+00  -7.9700904428920971e+00  -7.9557166677246602e+00  -7.9413584080766473e+00  -7.9273916518074898e+00  -7.9141813260567924e+00  -7.9020716802127646e+00  -7.8913773152273317e+00  -7.8823752458797385e+00  -7.8752984238104817e+00  -7.8703305276304780e+00  -7.8675965438348943e+00  -7.8671099388059238e+00  -8.0511821584983121e+00  -8.0506871262309900e+00  -8.0477377100010106e+00  -8.0423530765352336e+00  -8.0346837999676310e+00  -8.0249434692664430e+00  -8.0133954580025328e+00  -8.0003473368233546e+00  -7.9861442090937809e+00  -7.9711603259522317e+00  -7.9557895199430320e+00  -7.9404349691874980e+00  -7.9254986817569968e+00  -7.9113710266700323e+00  -7.8984206288054750e+00  -7.8869849754475077e+00  -7.8773621161008247e+00  -7.8698036792793600e+00  -7.8645080946689223e+00  -7.8616057704281115e+00  -7.8610919550282716e+00  -8.0591372694626298e+00  -8.0586137429293725e+00  -8.0554445161015540e+00  -8.0496360140707992e+00  -8.0413447399990545e+00  -8.0308018075633996e+00  -8.0182946346352360e+00  -8.0041586221385845e+00  -7.9887692438224631e+00  -7.9725329327894761e+00  -7.9558768912389866e+00  -7.9392382203759428e+00  -7.9230527473585948e+00  -7.9077438860666458e+00  -7.8937118571090821e+00  -7.8813236005389964e+00  -7.8709036775920858e+00  -7.8627261117768033e+00  -7.8570053864326921e+00  -7.8538770776091695e+00  -7.8533216942247792e+00  -8.0688791430939606e+00  -8.0683150280161993e+00  -8.0648663146158643e+00  -8.0585315964539905e+00  -8.0494763935464899e+00  -8.0379518929378246e+00  -8.0242732964550854e+00  -8.0088090792599917e+00  -7.9919714442837906e+00  -7.9742060509666191e+00  -7.9559808853991791e+00  -7.9377745327395663e+00  -7.9200641679628081e+00  -7.9033135706640989e+00  -7.8879614620603125e+00  -7.8744104540270108e+00  -7.8630168174357458e+00  -7.8540808412215828e+00  -7.8478356730084649e+00  -7.8444244620505374e+00  -7.8438166152750828e+00  -8.0804192209774772e+00  -8.0798032760566194e+00  -8.0760158262686463e+00  -8.0690508342533107e+00  -8.0590868290025846e+00  -8.0463989622429022e+00  -8.0313346644320358e+00  -8.0143008450354003e+00  -7.9957526355841937e+00  -7.9761817159050761e+00  -7.9561040000877288e+00  -7.9360468515828071e+00  -7.9165360702697383e+00  -7.8980828976166499e+00  -7.8811712845743820e+00  -7.8662456585693183e+00  -7.8536993370456214e+00  -7.8438632823777565e+00  -7.8369929385562251e+00  -7.8332423196880470e+00  -7.8325721258025993e+00  -8.0937841284582017e+00  -8.0931053749014161e+00  -8.0889196670098240e+00  -8.0812184575746588e+00  -8.0701974906804015e+00  -8.0561605685962796e+00  -8.0394924985449983e+00  -8.0206443536109351e+00  -8.0001204734016564e+00  -7.9784652476976401e+00  -7.9562494582636862e+00  -7.9340562987692165e+00  -7.9124672417240713e+00  -7.8920479180831711e+00  -7.8733341793753722e+00  -7.8568185201362217e+00  -7.8429369741967063e+00  -7.8320561633830419e+00  -7.8244581338556891e+00  -7.8203113097180559e+00  -7.8195691541159000e+00  -8.1090091426077375e+00  -8.1082565337889054e+00  -8.1036120721422460e+00  -8.0950662933035265e+00  -8.0828364780445394e+00  -8.0672603228781217e+00  -8.0487657767544967e+00  -8.0278542410331148e+00  -8.0050857264590753e+00  -7.9810639845292473e+00  -7.9564214143656082e+00  -7.9318038306123508e+00  -7.9078551764455174e+00  -7.8852022397952384e+00  -7.8644394400000266e+00  -7.8461137899853552e+00  -7.8307101223271447e+00  -7.8186362662224882e+00  -7.8102056973547906e+00  -7.8056049458067953e+00  -7.8047812051606869e+00  -8.1261309589031203e+00  -8.1252931680803027e+00  -8.1201279278075820e+00  -8.1106263059161119e+00  -8.0970316938540385e+00  -8.0797214729423086e+00  -8.0591730991658910e+00  -8.0359449159319265e+00  -8.0106592633063141e+00  -7.9839858414317053e+00  -7.9566251522680016e+00  -7.9292920571794889e+00  -7.9026994159744985e+00  -7.8775417111423582e+00  -7.8544785752443760e+00  -7.8341182208711748e+00  -7.8170008253011769e+00  -7.8035815711809740e+00  -7.7942107381028052e+00  -7.7890969211729271e+00  -7.7881818340773341e+00  -8.1451794256949466e+00  -8.1442446940382247e+00  -8.1384947160987355e+00  -8.1279226943132343e+00  -8.1128031995979928e+00  -8.0935597818268192e+00  -8.0707264490499053e+00  -8.0449255718269495e+00  -8.0168486274767350e+00  -7.9872376653652166e+00  -7.9568673238547252e+00  -7.9265273477041216e+00  -7.8970053883354829e+00  -7.8690697581996965e+00  -7.8434518310941765e+00  -7.8208279218165604e+00  -7.8018006289102395e+00  -7.7868793537504244e+00  -7.7764572657756128e+00  -7.7707694672600764e+00  -7.7697530674549018e+00  -8.1661678696401125e+00  -8.1651238859410444e+00  -8.1587229835258697e+00  -8.1469625400218302e+00  -8.1301542025550972e+00  -8.1087751478495385e+00  -8.0834238418355824e+00  -8.0547942907881875e+00  -8.0236539770172932e+00  -7.9908232889224617e+00  -7.9571562550591457e+00  -7.9235223705869151e+00  -7.8907890106343253e+00  -7.8598037484881305e+00  -7.8313759257262454e+00  -7.8062570440181673e+00  -7.7851198352574116e+00  -7.7685357265790760e+00  -7.7569478715238693e+00  -7.7506231211969077e+00  -7.7494951999345218e+00  -8.1890815881517938e+00  -8.1879153798184845e+00  -8.1807948909560935e+00  -8.1677244939591507e+00  -8.1490601006437178e+00  -8.1253413847494951e+00  -8.0972403349069797e+00  -8.0655308152332701e+00  -8.0310631001194981e+00  -7.9947411457235118e+00  -7.9575023396939173e+00  -7.9202992429905290e+00  -7.8840823737816512e+00  -7.8497828226250395e+00  -7.8182935284341024e+00  -7.7904483730573508e+00  -7.7669987263254647e+00  -7.7485871389956138e+00  -7.7357153089084569e+00  -7.7286883261093360e+00  -7.7274384004145880e+00  -8.2138640314302176e+00  -8.2125618446325817e+00  -8.2046503292430550e+00  -8.1901449197642862e+00  -8.1694549453354117e+00  -8.1431935106092102e+00  -8.1121167976812618e+00  -8.0770874956298346e+00  -8.0390451648939507e+00  -7.9989812807608338e+00  -7.9579185400539814e+00  -7.9168934930840580e+00  -7.8769408826256173e+00  -7.8390777094221598e+00  -7.8042850968521353e+00  -7.7734864844287745e+00  -7.7475213978889546e+00  -7.7271144169943122e+00  -7.7128364919488872e+00  -7.7050393441293910e+00  -7.7036566049192334e+00  -8.2404001329627707e+00  -8.2389472704177962e+00  -8.2301699904526391e+00  -8.2141007992411907e+00  -8.1912145639948672e+00  -8.1622117808399697e+00  -8.1279457435597191e+00  -8.0893778462491159e+00  -8.0475428107376121e+00  -8.0035215634721499e+00  -7.9584210127831359e+00  -7.9133590639034459e+00  -7.8694522794814450e+00  -7.8278031240625721e+00  -7.7894837959073886e+00  -7.7555142430980712e+00  -7.7268329694793003e+00  -7.7042600391048799e+00  -7.6884495193218072e+00  -7.6798110324944311e+00  -7.6782842361976638e+00  -8.2684961665237573e+00  -8.2668767328135910e+00  -8.2571546589010651e+00  -8.2393885459459586e+00  -8.2141354135223903e+00  -8.1822015498892178e+00  -8.1445534128833170e+00  -8.1022620705907258e+00  -8.0564621515414743e+00  -8.0083228949661596e+00  -7.9590298755169471e+00  -7.9097746006866805e+00  -7.8617480191382612e+00  -7.8161334296203879e+00  -7.7740943489108947e+00  -7.7367535921495865e+00  -7.7051611140702878e+00  -7.6802495059430100e+00  -7.6627744610153066e+00  -7.6532191278466168e+00  -7.6515363769546898e+00  -8.2978553952143823e+00  -8.2960518667148051e+00  -8.2852998054576759e+00  -8.2656976457206888e+00  -8.2379080100802753e+00  -8.2028678705656635e+00  -8.1616771975283555e+00  -8.1155288885184653e+00  -8.0656602683706975e+00  -8.0133232097500429e+00  -7.9597701199838333e+00  -7.9062512396862772e+00  -7.8540174534218536e+00  -7.8043222839351909e+00  -7.7584167925687897e+00  -7.7175317760230326e+00  -7.6828430961135492e+00  -7.6554178973774230e+00  -7.6361388306803972e+00  -7.6255848217982498e+00  -7.6237331507773476e+00  -8.3280486044073267e+00  -8.3260410834643643e+00  -8.3141642861250951e+00  -8.2925777060073660e+00  -8.2620834816187827e+00  -8.2237835664992964e+00  -8.1789374747055543e+00  -8.1288730830788420e+00  -8.0749298846147877e+00  -8.0184301394871405e+00  -7.9606726535519918e+00  -7.9029420106380739e+00  -7.8465251527741842e+00  -7.7927269225219487e+00  -7.7428761699395077e+00  -7.6983143650992361e+00  -7.6603598429398208e+00  -7.6302430689539271e+00  -7.6090089620356327e+00  -7.5973646303542068e+00  -7.5953292677009880e+00  -8.3584783165177843e+00  -8.3562432258311237e+00  -8.3431314698355425e+00  -8.3193969720713223e+00  -8.2860314066317287e+00  -8.2443494083942586e+00  -8.1958030951145826e+00  -8.1418685279958787e+00  -8.0839812551525370e+00  -8.0235123905747301e+00  -7.9617754022597778e+00  -7.9000526978572960e+00  -7.8396313122706625e+00  -7.7818374003769728e+00  -7.7280590853008508e+00  -7.6797466463524158e+00  -7.6383790384774670e+00  -7.6053875075759780e+00  -7.5820290060036157e+00  -7.5691869366315245e+00  -7.5669500403885426e+00  -8.3883349549837511e+00  -8.3858427303605509e+00  -8.3713602674090648e+00  -8.3452895219515337e+00  -8.3088866368888681e+00  -8.2637451430009605e+00  -8.2115503949258297e+00  -8.1539373104679544e+00  -8.0924220565558347e+00  -8.0283902844154174e+00  -7.9631243168194379e+00  -7.8978534474091280e+00  -7.8338143399188080e+00  -7.7723102678026930e+00  -7.7147575320354438e+00  -7.6627050042838230e+00  -7.6178098623528392e+00  -7.5817518086441167e+00  -7.5560701544960382e+00  -7.5418972704889624e+00  -7.5394358110573378e+00  -8.4165422291874314e+00  -8.4137531616649781e+00  -8.3977219337955784e+00  -8.3690869564460417e+00  -8.3294823333718462e+00  -8.2808708171266172e+00  -8.2252171388121536e+00  -8.1643173544163705e+00  -8.0997375350920375e+00  -8.0328266586190225e+00  -7.9647739661797470e+00  -7.8966893719816529e+00  -7.8296930582369875e+00  -7.7650043268499420e+00  -7.7040190318253510e+00  -7.6483595523219146e+00  -7.5998728188370865e+00  -7.5605443466130495e+00  -7.5322943546580632e+00  -7.5166156822767247e+00  -7.5138979262745886e+00  -8.4416870983428982e+00  -8.4385435557444044e+00  -8.4207154126002131e+00  -8.3892281261537693e+00  -8.3462663127084351e+00  -8.2942798917725788e+00  -8.2355561007129250e+00  -8.1720343329244223e+00  -8.1052757477273261e+00  -8.0365205972462412e+00  -7.9667871604712470e+00  -7.8969866652503935e+00  -7.8280429795591937e+00  -7.7610125474496972e+00  -7.6971990036357454e+00  -7.6382477991194957e+00  -7.5861889773220028e+00  -7.5433744969413468e+00  -7.5122399862464420e+00  -7.4948121012827915e+00  -7.4917917295401590e+00  -8.4619259265995979e+00  -8.4583368670661248e+00  -8.4383478319818952e+00  -8.4036369944972460e+00  -8.3571991302304198e+00  -8.3021107530878826e+00  -8.2409994944145293e+00  -8.1758894994174707e+00  -8.1082467963239360e+00  -8.0391083692517196e+00  -7.9692327226977833e+00  -7.8992481410517179e+00  -7.8297963158213957e+00  -7.7616777897733122e+00  -7.6960047389187416e+00  -7.6343549012753646e+00  -7.5788931894467195e+00  -7.5323815287977558e+00  -7.4979434163977787e+00  -7.4784107353671949e+00  -7.4750167571781470e+00  -8.4748509720106160e+00  -8.4706581754795494e+00  -8.4479544490345386e+00  -8.4095547064443696e+00  -8.3596384302773696e+00  -8.3020349016277759e+00  -8.2396573487012077e+00  -8.1744841246045361e+00  -8.1077504896292645e+00  -8.0401783678995855e+00  -7.9721802085550983e+00  -7.9040288843702164e+00  -7.8360086079293776e+00  -7.7685693677810752e+00  -7.7025074081127824e+00  -7.6391851473143308e+00  -7.5807728807323720e+00  -7.5304189324715649e+00  -7.4921237820186724e+00  -7.4699457143323356e+00  -7.4660643531229489e+00  -8.4772860312956713e+00  -8.4721817349987081e+00  -8.4459085259713245e+00  -8.4033121922435878e+00  -8.3502339064087376e+00  -8.2912648768157542e+00  -8.2293925572924884e+00  -8.1663130658409084e+00  -8.1028525626176648e+00  -8.0393089131605695e+00  -7.9756902631964000e+00  -7.9118800371896700e+00  -7.8477674469496677e+00  -7.7833823118324705e+00  -7.7190746765940697e+00  -7.6557826865379814e+00  -7.5954189750803192e+00  -7.5413236504448360e+00  -7.4984874613297947e+00  -7.4728163157731586e+00  -7.4682559166041091e+00  -8.4649456735975335e+00  -8.4582499464332788e+00  -8.4271321524810023e+00  -8.3800553040597059e+00  -8.3249122413479615e+00  -8.2667124814359187e+00  -8.2080424047129537e+00  -8.1499702422550602e+00  -8.0927311759815108e+00  -8.0361371920616431e+00  -7.9797996253909798e+00  -7.9232495019255635e+00  -7.8660155803370424e+00  -7.8077055478621222e+00  -7.7481385202446162e+00  -7.6875989985701985e+00  -7.6273196371117962e+00  -7.5702969707538577e+00  -7.5222732810594399e+00  -7.4917588889870057e+00  -7.4861740150799747e+00  -8.4317857656922435e+00  -8.4218283647785395e+00  -8.3842928362858462e+00  -8.3335582731995927e+00  -8.2791637517799330e+00  -8.2254628677227704e+00  -8.1738786074436582e+00  -8.1245036923924889e+00  -8.0769033832829127e+00  -8.0304595653715705e+00  -7.9844999529131506e+00  -7.9383365717460341e+00  -7.8912718198417302e+00  -7.8426047337312710e+00  -7.7916718228726625e+00  -7.7379892090129285e+00  -7.6816506711298018e+00  -7.6243203609059691e+00  -7.5712854483671901e+00  -7.5338637449324892e+00  -7.5265650504313344e+00  -8.3683782317213957e+00  -8.3510480269825660e+00  -8.3067839761709745e+00  -8.2566820744862870e+00  -8.2090952887381157e+00  -8.1657954182637393e+00  -8.1263690857763997e+00  -8.0899060803894027e+00  -8.0554982921164004e+00  -8.0223387108319599e+00  -7.9897047196190094e+00  -7.9569129639943919e+00  -7.9232681915617142e+00  -7.8880096784149547e+00  -7.8502580452673465e+00  -7.8089833408261144e+00  -7.7630879837325910e+00  -7.7119549019896008e+00  -7.6576485671253227e+00  -7.6112469239598388e+00  -7.6005998712363514e+00  -8.2556847272562912e+00  -8.2236915893664531e+00  -8.1810579764128555e+00  -8.1440880676011744e+00  -8.1139582054947432e+00  -8.0888481535271275e+00  -8.0671029398238172e+00  -8.0475652176039585e+00  -8.0294349288206721e+00  -8.0121245977700148e+00  -7.9951608681943958e+00  -7.9781172437571461e+00  -7.9605601186741470e+00  -7.9419928972834128e+00  -7.9217814718022188e+00  -7.8990362589319858e+00  -7.8724137806884302e+00  -7.8398312439470441e+00  -7.7985101606638541e+00  -7.7491086858610476e+00  -7.7313589401458449e+00  -8.0000000000000000e+00  -8.0000000000000000e+00  -8.0000000000000000e+00  -8.0000000000000000e+00  -8.0000000000000000e+00  -8.0000000000000000e+00  -8.0000000000000000e+00  -8.0000000000000000e+00  -8.0000000000000000e+00  -8.0000000000000000e+00  -8.0000000000000000e+00  -8.0000000000000000e+00  -8.0000000000000000e+00  -8.0000000000000000e+00  -8.0000000000000000e+00  -8.0000000000000000e+00  -8.0000000000000000e+00  -8.0000000000000000e+00  -8.0000000000000000e+00  -8.0000000000000000e+00  -8.0000000000000000e+00  </DataArray> 
</PointData> 
</Piece>
</UnstructuredGrid>
</VTKFile>