<?xml version="1.0"?>
<VTKFile type="UnstructuredGrid"  version="0.1"  >
<UnstructuredGrid>
<Piece  NumberOfPoints="651" NumberOfCells="1200">
<Points>
<DataArray  type="Float64"  NumberOfComponents="3"  format="ascii">0 0 0  50000 0 0  100000 0 0  150000 0 0  200000 0 0  250000 0 0  300000 0 0  350000 0 0  400000 0 0  450000 0 0  500000 0 0  550000 0 0  600000 0 0  650000 0 0  700000 0 0  750000 0 0  800000 0 0  850000 0 0  900000 0 0  950000 0 0  1000000 0 0  0 50000 0  50000 50000 0  100000 50000 0  150000 50000 0  200000 50000 0  250000 50000 0  300000 50000 0  350000 50000 0  400000 50000 0  450000 50000 0  500000 50000 0  550000 50000 0  600000 50000 0  650000 50000 0  700000 50000 0  750000 50000 0  800000 50000 0  850000 50000 0  900000 50000 0  950000 50000 0  1000000 50000 0  0 100000 0  50000 100000 0  100000 100000 0  150000 100000 0  200000 100000 0  250000 100000 0  300000 100000 0  350000 100000 0  400000 100000 0  450000 100000 0  500000 100000 0  550000 100000 0  600000 100000 0  650000 100000 0  700000 100000 0  750000 100000 0  800000 100000 0  850000 100000 0  900000 100000 0  950000 100000 0  1000000 100000 0  0 150000 0  50000 150000 0  100000 150000 0  150000 150000 0  200000 150000 0  250000 150000 0  300000 150000 0  350000 150000 0  400000 150000 0  450000 150000 0  500000 150000 0  550000 150000 0  600000 150000 0  650000 150000 0  700000 150000 0  750000 150000 0  800000 150000 0  850000 150000 0  900000 150000 0  950000 150000 0  1000000 150000 0  0 200000 0  50000 200000 0  100000 200000 0  150000 200000 0  200000 200000 0  250000 200000 0  300000 200000 0  350000 200000 0  400000 200000 0  450000 200000 0  500000 200000 0  550000 200000 0  600000 200000 0  650000 200000 0  700000 200000 0  750000 200000 0  800000 200000 0  850000 200000 0  900000 200000 0  950000 200000 0  1000000 200000 0  0 250000 0  50000 250000 0  100000 250000 0  150000 250000 0  200000 250000 0  250000 250000 0  300000 250000 0  350000 250000 0  400000 250000 0  450000 250000 0  500000 250000 0  550000 250000 0  600000 250000 0  650000 250000 0  700000 250000 0  750000 250000 0  800000 250000 0  850000 250000 0  900000 250000 0  950000 250000 0  1000000 250000 0  0 300000 0  50000 300000 0  100000 300000 0  150000 300000 0  200000 300000 0  250000 300000 0  300000 300000 0  350000 300000 0  400000 300000 0  450000 300000 0  500000 300000 0  550000 300000 0  600000 300000 0  650000 300000 0  700000 300000 0  750000 300000 0  800000 300000 0  850000 300000 0  900000 300000 0  950000 300000 0  1000000 300000 0  0 350000 0  50000 350000 0  100000 350000 0  150000 350000 0  200000 350000 0  250000 350000 0  300000 350000 0  350000 350000 0  400000 350000 0  450000 350000 0  500000 350000 0  550000 350000 0  600000 350000 0  650000 350000 0  700000 350000 0  750000 350000 0  800000 350000 0  850000 350000 0  900000 350000 0  950000 350000 0  1000000 350000 0  0 400000 0  50000 400000 0  100000 400000 0  150000 400000 0  200000 400000 0  250000 400000 0  300000 400000 0  350000 400000 0  400000 400000 0  450000 400000 0  500000 400000 0  550000 400000 0  600000 400000 0  650000 400000 0  700000 400000 0  750000 400000 0  800000 400000 0  850000 400000 0  900000 400000 0  950000 400000 0  1000000 400000 0  0 450000 0  50000 450000 0  100000 450000 0  150000 450000 0  200000 450000 0  250000 450000 0  300000 450000 0  350000 450000 0  400000 450000 0  450000 450000 0  500000 450000 0  550000 450000 0  600000 450000 0  650000 450000 0  700000 450000 0  750000 450000 0  800000 450000 0  850000 450000 0  900000 450000 0  950000 450000 0  1000000 450000 0  0 500000 0  50000 500000 0  100000 500000 0  150000 500000 0  200000 500000 0  250000 500000 0  300000 500000 0  350000 500000 0  400000 500000 0  450000 500000 0  500000 500000 0  550000 500000 0  600000 500000 0  650000 500000 0  700000 500000 0  750000 500000 0  800000 500000 0  850000 500000 0  900000 500000 0  950000 500000 0  1000000 500000 0  0 550000 0  50000 550000 0  100000 550000 0  150000 550000 0  200000 550000 0  250000 550000 0  300000 550000 0  350000 550000 0  400000 550000 0  450000 550000 0  500000 550000 0  550000 550000 0  600000 550000 0  650000 550000 0  700000 550000 0  750000 550000 0  800000 550000 0  850000 550000 0  900000 550000 0  950000 550000 0  1000000 550000 0  0 600000 0  50000 600000 0  100000 600000 0  150000 600000 0  200000 600000 0  250000 600000 0  300000 600000 0  350000 600000 0  400000 600000 0  450000 600000 0  500000 600000 0  550000 600000 0  600000 600000 0  650000 600000 0  700000 600000 0  750000 600000 0  800000 600000 0  850000 600000 0  900000 600000 0  950000 600000 0  1000000 600000 0  0 650000 0  50000 650000 0  100000 650000 0  150000 650000 0  200000 650000 0  250000 650000 0  300000 650000 0  350000 650000 0  400000 650000 0  450000 650000 0  500000 650000 0  550000 650000 0  600000 650000 0  650000 650000 0  700000 650000 0  750000 650000 0  800000 650000 0  850000 650000 0  900000 650000 0  950000 650000 0  1000000 650000 0  0 700000 0  50000 700000 0  100000 700000 0  150000 700000 0  200000 700000 0  250000 700000 0  300000 700000 0  350000 700000 0  400000 700000 0  450000 700000 0  500000 700000 0  550000 700000 0  600000 700000 0  650000 700000 0  700000 700000 0  750000 700000 0  800000 700000 0  850000 700000 0  900000 700000 0  950000 700000 0  1000000 700000 0  0 750000 0  50000 750000 0  100000 750000 0  150000 750000 0  200000 750000 0  250000 750000 0  300000 750000 0  350000 750000 0  400000 750000 0  450000 750000 0  500000 750000 0  550000 750000 0  600000 750000 0  650000 750000 0  700000 750000 0  750000 750000 0  800000 750000 0  850000 750000 0  900000 750000 0  950000 750000 0  1000000 750000 0  0 800000 0  50000 800000 0  100000 800000 0  150000 800000 0  200000 800000 0  250000 800000 0  300000 800000 0  350000 800000 0  400000 800000 0  450000 800000 0  500000 800000 0  550000 800000 0  600000 800000 0  650000 800000 0  700000 800000 0  750000 800000 0  800000 800000 0  850000 800000 0  900000 800000 0  950000 800000 0  1000000 800000 0  0 850000 0  50000 850000 0  100000 850000 0  150000 850000 0  200000 850000 0  250000 850000 0  300000 850000 0  350000 850000 0  400000 850000 0  450000 850000 0  500000 850000 0  550000 850000 0  600000 850000 0  650000 850000 0  700000 850000 0  750000 850000 0  800000 850000 0  850000 850000 0  900000 850000 0  950000 850000 0  1000000 850000 0  0 900000 0  50000 900000 0  100000 900000 0  150000 900000 0  200000 900000 0  250000 900000 0  300000 900000 0  350000 900000 0  400000 900000 0  450000 900000 0  500000 900000 0  550000 900000 0  600000 900000 0  650000 900000 0  700000 900000 0  750000 900000 0  800000 900000 0  850000 900000 0  900000 900000 0  950000 900000 0  1000000 900000 0  0 950000 0  50000 950000 0  100000 950000 0  150000 950000 0  200000 950000 0  250000 950000 0  300000 950000 0  350000 950000 0  400000 950000 0  450000 950000 0  500000 950000 0  550000 950000 0  600000 950000 0  650000 950000 0  700000 950000 0  750000 950000 0  800000 950000 0  850000 950000 0  900000 950000 0  950000 950000 0  1000000 950000 0  0 1000000 0  50000 1000000 0  100000 1000000 0  150000 1000000 0  200000 1000000 0  250000 1000000 0  300000 1000000 0  350000 1000000 0  400000 1000000 0  450000 1000000 0  500000 1000000 0  550000 1000000 0  600000 1000000 0  650000 1000000 0  700000 1000000 0  750000 1000000 0  800000 1000000 0  850000 1000000 0  900000 1000000 0  950000 1000000 0  1000000 1000000 0  0 1050000 0  50000 1050000 0  100000 1050000 0  150000 1050000 0  200000 1050000 0  250000 1050000 0  300000 1050000 0  350000 1050000 0  400000 1050000 0  450000 1050000 0  500000 1050000 0  550000 1050000 0  600000 1050000 0  650000 1050000 0  700000 1050000 0  750000 1050000 0  800000 1050000 0  850000 1050000 0  900000 1050000 0  950000 1050000 0  1000000 1050000 0  0 1100000 0  50000 1100000 0  100000 1100000 0  150000 1100000 0  200000 1100000 0  250000 1100000 0  300000 1100000 0  350000 1100000 0  400000 1100000 0  450000 1100000 0  500000 1100000 0  550000 1100000 0  600000 1100000 0  650000 1100000 0  700000 1100000 0  750000 1100000 0  800000 1100000 0  850000 1100000 0  900000 1100000 0  950000 1100000 0  1000000 1100000 0  0 1150000 0  50000 1150000 0  100000 1150000 0  150000 1150000 0  200000 1150000 0  250000 1150000 0  300000 1150000 0  350000 1150000 0  400000 1150000 0  450000 1150000 0  500000 1150000 0  550000 1150000 0  600000 1150000 0  650000 1150000 0  700000 1150000 0  750000 1150000 0  800000 1150000 0  850000 1150000 0  900000 1150000 0  950000 1150000 0  1000000 1150000 0  0 1200000 0  50000 1200000 0  100000 1200000 0  150000 1200000 0  200000 1200000 0  250000 1200000 0  300000 1200000 0  350000 1200000 0  400000 1200000 0  450000 1200000 0  500000 1200000 0  550000 1200000 0  600000 1200000 0  650000 1200000 0  700000 1200000 0  750000 1200000 0  800000 1200000 0  850000 1200000 0  900000 1200000 0  950000 1200000 0  1000000 1200000 0  0 1250000 0  50000 1250000 0  100000 1250000 0  150000 1250000 0  200000 1250000 0  250000 1250000 0  300000 1250000 0  350000 1250000 0  400000 1250000 0  450000 1250000 0  500000 1250000 0  550000 1250000 0  600000 1250000 0  650000 1250000 0  700000 1250000 0  750000 1250000 0  800000 1250000 0  850000 1250000 0  900000 1250000 0  950000 1250000 0  1000000 1250000 0  0 1300000 0  50000 1300000 0  100000 1300000 0  150000 1300000 0  200000 1300000 0  250000 1300000 0  300000 1300000 0  350000 1300000 0  400000 1300000 0  450000 1300000 0  500000 1300000 0  550000 1300000 0  600000 1300000 0  650000 1300000 0  700000 1300000 0  750000 1300000 0  800000 1300000 0  850000 1300000 0  900000 1300000 0  950000 1300000 0  1000000 1300000 0  0 1350000 0  50000 1350000 0  100000 1350000 0  150000 1350000 0  200000 1350000 0  250000 1350000 0  300000 1350000 0  350000 1350000 0  400000 1350000 0  450000 1350000 0  500000 1350000 0  550000 1350000 0  600000 1350000 0  650000 1350000 0  700000 135
[...]
<PointData  Scalars="f_3001"> 
<DataArray  type="Float64"  Name="f_3001"  format="ascii">-8.0916306352976033e+00  -8.0903514608025926e+00  -8.0840230031928453e+00  -8.0726265191785558e+00  -8.0564585594829303e+00  -8.0359500670445527e+00  -8.0116463982568504e+00  -7.9841918121340347e+00  -7.9543122286736470e+00  -7.9227959176500571e+00  -7.8904726024614531e+00  -7.8581915452020521e+00  -7.8267991829818087e+00  -7.7971168914166062e+00  -7.7699194732951069e+00  -7.7459150540146426e+00  -7.7257273825367658e+00  -7.7098825306600363e+00  -7.6988031828371861e+00  -7.6927880310429302e+00  -7.6914914713387184e+00  -8.0928447398074805e+00  -8.0915946054097159e+00  -8.0851752572617741e+00  -8.0737035106927255e+00  -8.0574520008312618e+00  -8.0368435728449708e+00  -8.0124215864202171e+00  -7.9848312792365785e+00  -7.9548010637006890e+00  -7.9231225477791609e+00  -7.8906292943383196e+00  -7.8581746831226580e+00  -7.8266093667190262e+00  -7.7967588567131934e+00  -7.7694017950622847e+00  -7.7452494708454225e+00  -7.7249270692406391e+00  -7.7089565418298527e+00  -7.6977377158625462e+00  -7.6915092995016625e+00  -7.6902128714464499e+00  -8.0987882876065367e+00  -8.0976269411980155e+00  -8.0910606656056903e+00  -8.0792428433067514e+00  -8.0625002871812494e+00  -8.0412775141131405e+00  -8.0161342907555664e+00  -7.9877332170228454e+00  -7.9568223692583198e+00  -7.9242151013854301e+00  -7.8907681699542191e+00  -7.8573588907188388e+00  -7.8248618925794302e+00  -7.7941260160852295e+00  -7.7659519197128493e+00  -7.7410709949023335e+00  -7.7201262504983648e+00  -7.7036558353058924e+00  -7.6920792008688927e+00  -7.6856796831609993e+00  -7.6845198236100281e+00  -8.1093850990410257e+00  -8.1082378189493554e+00  -8.1014263517477136e+00  -8.0890472044506616e+00  -8.0714605186176378e+00  -8.0491519247044518e+00  -8.0227185500406346e+00  -7.9928602514716394e+00  -7.9603642429328891e+00  -7.9260852646415403e+00  -7.8909232357774810e+00  -7.8557995682956676e+00  -7.8216329490408807e+00  -7.7893152635134406e+00  -7.7596883304866822e+00  -7.7335222089160371e+00  -7.7114960245777269e+00  -7.6941823610781341e+00  -7.6820346583708847e+00  -7.6753636257643105e+00  -7.6742035383830043e+00  -8.1244671056363380e+00  -8.1232876911189216e+00  -8.1160893508769636e+00  -8.1029192960612040e+00  -8.0841515403073405e+00  -8.0603135416340344e+00  -8.0320529352435166e+00  -8.0001240409241614e+00  -7.9653718588630955e+00  -7.9287118403188757e+00  -7.8911067600533471e+00  -7.8535419553277155e+00  -7.8169998863220265e+00  -7.7824348118857998e+00  -7.7507483507370765e+00  -7.7227667740423298e+00  -7.6992209571129511e+00  -7.6807295047761697e+00  -7.6677821487744593e+00  -7.6607023930861793e+00  -7.6594775818991705e+00  -8.1439374312994062e+00  -8.1426913286074356e+00  -8.1349587796584668e+00  -8.1207541760251889e+00  -8.1004655099630849e+00  -8.0746632796729969e+00  -8.0440543449401058e+00  -8.0094614994407305e+00  -7.9718043469235118e+00  -7.9320772905395307e+00  -7.8913249011297930e+00  -7.8506156308149038e+00  -7.8110147909913490e+00  -7.7735576127744590e+00  -7.7392231783509970e+00  -7.7089100295961277e+00  -7.6834141598749097e+00  -7.6634092027584346e+00  -7.6494242067801261e+00  -7.6417947598472900e+00  -7.6404703031840837e+00  -8.1677652338716999e+00  -8.1664230997257832e+00  -8.1580103819565597e+00  -8.1425212299255438e+00  -8.1203653394866002e+00  -8.0921623947948511e+00  -8.0586874994015165e+00  -8.0208446589719298e+00  -7.9796435769792122e+00  -7.9361747930477762e+00  -7.8915827638926448e+00  -7.8470375022687540e+00  -7.8037055358172642e+00  -7.7627209234873877e+00  -7.7251570473294651e+00  -7.6919998729882924e+00  -7.6641231551600262e+00  -7.6422649429300611e+00  -7.6269999422745851e+00  -7.6186818401686178e+00  -7.6172315545308198e+00  -8.1959721335572926e+00  -8.1945068270519421e+00  -8.1852693186746706e+00  -8.1682417083193801e+00  -8.1438653918546340e+00  -8.1128187866525643e+00  -8.0759560376201449e+00  -8.0342753724604048e+00  -7.9888916579506439e+00  -7.9410080912042709e+00  -7.8918863924159490e+00  -7.8428158790974436e+00  -7.7950819965926748e+00  -7.7499348913567943e+00  -7.7085586092065075e+00  -7.6720414753828816e+00  -7.6413479783972322e+00  -7.6172913137710569e+00  -7.6005007582765867e+00  -7.5913563351499773e+00  -7.5897566248560615e+00  -8.2286171590808603e+00  -8.2270022631752830e+00  -8.2167949734231911e+00  -8.1979707503808914e+00  -8.1710131893651852e+00  -8.1366709747860479e+00  -8.0958898491093247e+00  -8.0497761813740158e+00  -7.9995652406506927e+00  -7.9465891124191863e+00  -7.8922436177804194e+00  -7.8379544889217243e+00  -7.7851431892420457e+00  -7.7351927631718862e+00  -7.6894141108915655e+00  -7.6490130973644348e+00  -7.6150587301059902e+00  -7.5884515155167662e+00  -7.5698858898481012e+00  -7.5597770556677810e+00  -7.5580050566636743e+00  -8.2657806391997202e+00  -8.2639896372929531e+00  -8.2526654709691218e+00  -8.2317809905313428e+00  -8.2018727310777013e+00  -8.1637725448028462e+00  -8.1185318500381900e+00  -8.0673801444224829e+00  -8.0116887752409607e+00  -7.9529348311184282e+00  -7.8926645768751751e+00  -7.8324565983839891e+00  -7.7738848352534369e+00  -7.7184816202544893e+00  -7.6677008669195441e+00  -7.6228816344492278e+00  -7.5852122400826376e+00  -7.5556940440615765e+00  -7.5350985044609260e+00  -7.5238851806618898e+00  -7.5219180679602839e+00  -8.3075464386474014e+00  -8.3055521894427375e+00  -8.2929605734624303e+00  -8.2697454540410504e+00  -8.2365076220063891e+00  -8.1941763185323069e+00  -8.1439241794351087e+00  -8.0871199111900118e+00  -8.0252870806959695e+00  -7.9600637177080458e+00  -7.8931622049415058e+00  -7.8263295040551029e+00  -7.7613076041389455e+00  -7.6997939326891753e+00  -7.6434015042030499e+00  -7.5936187759283413e+00  -7.5517692905411948e+00  -7.5189702595456644e+00  -7.4960833458340037e+00  -7.4836222491399864e+00  -7.4814369148879960e+00  -8.3539817317807348e+00  -8.3517560975082130e+00  -8.3377419828151282e+00  -8.3119182250049803e+00  -8.2749623593971684e+00  -8.2279169066904352e+00  -8.1720929071631456e+00  -8.1090154952854263e+00  -8.0403769508503053e+00  -7.9679917109420479e+00  -7.8937528278649873e+00  -7.8195897029333681e+00  -7.7474265344328996e+00  -7.6791406512027507e+00  -7.6165199542742101e+00  -7.5612190300577815e+00  -7.5147138461045042e+00  -7.4782542044673495e+00  -7.4528068713237783e+00  -7.4389506162571370e+00  -7.4365235040284166e+00  -8.4051133970624274e+00  -8.4026269540357514e+00  -8.3870300977842387e+00  -8.3583116442697918e+00  -8.3172403527329237e+00  -8.2649902666316066e+00  -8.2030300977195196e+00  -8.1330598872177351e+00  -8.0569572500041478e+00  -7.9767274772413943e+00  -7.8944569226770804e+00  -7.8122691084402689e+00  -7.7322822852550708e+00  -7.6565667561542980e+00  -7.5871003449855809e+00  -7.5257209295594194e+00  -7.4740756382257665e+00  -7.4335658832898623e+00  -7.4052808696227181e+00  -7.3898772871906715e+00  -7.3871842994178305e+00  -8.4609000032087387e+00  -8.4581217852996122e+00  -8.4407761535065227e+00  -8.4088687867268739e+00  -8.3632772726491176e+00  -8.3053288386332387e+00  -8.2366719377345508e+00  -8.1592014710464937e+00  -8.0749967938007305e+00  -7.9862666235216073e+00  -7.8953000973736600e+00  -7.8044227410312192e+00  -7.7159549986844587e+00  -7.6321703440945550e+00  -7.5552500922014181e+00  -7.4872328264793122e+00  -7.4299574898376788e+00  -7.3849992543016372e+00  -7.3535906510540050e+00  -7.3364821585999715e+00  -7.3334985799579639e+00  -8.5211982303207083e+00  -8.5180954527227914e+00  -8.4988284944384098e+00  -8.4634298051781212e+00  -8.4129081719633358e+00  -8.3487706734640952e+00  -8.2728714628320308e+00  -8.1873220447577637e+00  -8.0944191822697888e+00  -7.9965844579777183e+00  -7.8963143373734699e+00  -7.7961383894394691e+00  -7.6985816839295884e+00  -7.6061265097299504e+00  -7.5211686899939867e+00  -7.4459648779379792e+00  -7.3825689411504882e+00  -7.3327563499204551e+00  -7.2979290640512673e+00  -7.2789518304842602e+00  -7.2756522039417906e+00  -8.5857224172466378e+00  -8.5822601059453518e+00  -8.5608915050048058e+00  -8.5216904584216131e+00  -8.4658265381636877e+00  -8.3950206939137750e+00  -8.3113641867419012e+00  -8.2172090644114189e+00  -8.1150836313860797e+00  -8.0076268323618969e+00  -7.8975395645186408e+00  -7.7875488002183619e+00  -7.6803781648729839e+00  -7.5787174821216894e+00  -7.4851839587299569e+00  -7.4022691203095290e+00  -7.3322680357750816e+00  -7.2771892115529697e+00  -7.2386378124206718e+00  -7.2176203204102549e+00  -7.2139781882241447e+00  -8.6539957328575685e+00  -8.6501361408226032e+00  -8.6264754195123015e+00  -8.5831507566319001e+00  -8.5215330286765383e+00  -8.4436018713844341e+00  -8.3517246667072556e+00  -8.2485205644652986e+00  -8.1367607616465900e+00  -8.0192985606989691e+00  -7.8990255470295194e+00  -7.7788469830756402e+00  -7.6616667274998695e+00  -7.5503706667047847e+00  -7.4477978154809552e+00  -7.3566899252466378e+00  -7.2796135556438948e+00  -7.2188517170294766e+00  -7.1762578549536098e+00  -7.1530182400653253e+00  -7.1490056185671511e+00  -8.7252911988439656e+00  -8.7209928111023522e+00  -8.6948347966836739e+00  -8.6470511080417776e+00  -8.5792710920783257e+00  -8.4937936758731230e+00  -8.3933118043698212e+00  -8.2807411386948644e+00  -8.1591023227601998e+00  -8.0314489321161862e+00  -7.9008341743566080e+00  -7.7703051595601540e+00  -7.6429105764911380e+00  -7.5217063427753965e+00  -7.4097439227567783e+00  -7.3100276150329737e+00  -7.2254305858988674e+00  -7.1585639501525939e+00  -7.1115911209450502e+00  -7.0859323271295986e+00  -7.0815187148656626e+00  -8.7985603733864188e+00  -8.7937761647575705e+00  -8.7648927615974266e+00  -8.7122925358704659e+00  -8.6379459586177223e+00  -8.5445547416739576e+00  -8.4352006306776683e+00  -8.3131275794760118e+00  -8.1816041167089839e+00  -8.0438539994477463e+00  -7.9030420520184661e+00  -7.7622976226372344e+00  -7.6247558890212854e+00  -7.4935965886664082e+00  -7.3720597190940458e+00  -7.2634185494010666e+00  -7.1708931059445176e+00  -7.0974926288712634e+00  -7.0457764898288495e+00  -7.0174777565000186e+00  -7.0126283661745070e+00  -8.8723467952772292e+00  -8.8670211547415878e+00  -8.8351469660429274e+00  -8.7773362671746931e+00  -8.6960225586142261e+00  -8.5944264439616074e+00  -8.4760987622957238e+00  -8.3446436124130070e+00  -8.2035622070959189e+00  -8.0561957730846654e+00  -7.9057432500186593e+00  -7.7553271209341936e+00  -7.6080813248971504e+00  -7.4672362048154577e+00  -7.3361750629698239e+00  -7.2184354735781238e+00  -7.1176284277460278e+00  -7.0372524872719673e+00  -6.9803841910122966e+00  -6.9491865676044142e+00  -6.9438592966487391e+00  -8.9446800045352344e+00  -8.9387432640890818e+00  -8.9035511532501825e+00  -8.8400759473036956e+00  -8.7513968064369010e+00  -8.6414143807045054e+00  -8.5142472446446487e+00  -8.3738852447159928e+00  -8.2240243412731218e+00  -8.0680394130760291e+00  -7.9090518112610857e+00  -7.7500530197214879e+00  -7.5940527798416237e+00  -7.4442243374775643e+00  -7.3040184693055483e+00  -7.1772120578546899e+00  -7.0678498406919044e+00  -6.9800357933098107e+00  -6.9175349365218146e+00  -6.8831172024895757e+00  -6.8772575618564229e+00  -9.0129435439831926e+00  -9.0063020706334385e+00  -8.9673623383296981e+00  -8.8976723575253942e+00  -8.8012335678294757e+00  -8.6828464582056402e+00  -8.5473092481742388e+00  -8.3990026048083770e+00  -8.2417420845920315e+00  -8.0788113293362329e+00  -7.9131032369652070e+00  -7.7473169629027741e+00  -7.5841771066174193e+00  -7.4266510519777853e+00  -7.2781385742085876e+00  -7.1425946700160594e+00  -7.0245258160393380e+00  -6.9287810927798823e+00  -6.8600541209856658e+00  -6.8219932847061804e+00  -6.8155259790993439e+00  -9.0737057084833559e+00  -9.0662233028922774e+00  -9.0229360983737212e+00  -8.9463350147186009e+00  -8.8417643405408786e+00  -8.7152112961756494e+00  -8.5722581210401181e+00  -8.4176323797194854e+00  -8.2551354292683019e+00  -8.0877841769121517e+00  -7.9180535632454703e+00  -7.7481575162532366e+00  -7.5803412921863966e+00  -7.4171744189165807e+00  -7.2618308721312417e+00  -7.1183208329375560e+00  -6.9915962564360896e+00  -6.8873990382719033e+00  -6.8116792102463508e+00  -6.7693859094120397e+00  -6.7622007553991939e+00  -9.1224927304471599e+00  -9.1139534912370248e+00  -9.0654375406201169e+00  -8.9810267192106839e+00  -8.8680409649854131e+00  -8.7339931320488962e+00  -8.5852921286926644e+00  -8.4268691498733048e+00  -8.2622915073443419e+00  -8.0940793617570357e+00  -7.9240738414535423e+00  -7.7537989401020182e+00  -7.5848118868187910e+00  -7.4190580147692575e+00  -7.2592438525617098e+00  -7.1092135348785357e+00  -6.9742468818234871e+00  -6.8610847401587582e+00  -6.7773540782682504e+00  -6.7299662367617561e+00  -6.7218940180639137e+00  -9.1534659999830090e+00  -9.1434931291079131e+00  -9.0884056813981253e+00  -8.9950574342968252e+00  -8.8736566139421367e+00  -8.7335478263021642e+00  -8.5818320918000897e+00  -8.4233259100740820e+00  -8.2610324584861825e+00  -8.0967035138647123e+00  -7.9313370374237788e+00  -7.7655913696172290e+00  -7.6001529720758594e+00  -7.4361128852253149e+00  -7.2754071283827022e+00  -7.1213540484865279e+00  -6.9792456870595947e+00  -6.8567647072588409e+00  -6.7636766962046675e+00  -6.7098822025415181e+00  -6.7006512889308780e+00  -9.1589279011529925e+00  -9.1467849886845087e+00  -9.0830512766873195e+00  -8.9795347382492050e+00  -8.8504936055290067e+00  -8.7071248093569054e+00  -8.5567058050905516e+00  -8.4033627681958478e+00  -8.2491012842192699e+00  -8.0946403782641614e+00  -7.9399940819984760e+00  -7.7848731951236259e+00  -7.6290028931878995e+00  -7.4724510090423255e+00  -7.3160659925644627e+00  -7.1621310575315071e+00  -7.0153089601071050e+00  -6.8837502583919150e+00  -6.7796374045680370e+00  -6.7173765554657061e+00  -6.7065287487707890e+00  -9.1284982003653550e+00  -9.1125498465046668e+00  -9.0370727134429156e+00  -8.9227009344458335e+00  -8.7886914633264919e+00  -8.6472551719213993e+00  -8.5046887262517501e+00  -8.3635875434914553e+00  -8.2245182713464136e+00  -8.0870180865948171e+00  -7.9501365794245515e+00  -7.8127283062687001e+00  -7.6736422567505747e+00  -7.5319191381227917e+00  -7.3871140385824887e+00  -7.2399160809372223e+00  -7.0933283042568664e+00  -6.9546633390815895e+00  -6.8379425446703914e+00  -6.7639304089070373e+00  -6.7506383580567206e+00  -9.0475472857769965e+00  -9.0237550455166247e+00  -8.9327125302714876e+00  -8.8094884845353629e+00  -8.6773501190003106e+00  -8.5469078461657766e+00  -8.4216239582254033e+00  -8.3017191956815548e+00  -8.1861310332507031e+00  -8.0733520453277148e+00  -7.9617440126417138e+00  -7.8496308911070027e+00  -7.7353128352714151e+00  -7.6170807676871615e+00  -7.4933152659040232e+00  -7.3628327767279647e+00  -7.2258574535690672e+00  -7.0864491493835917e+00  -6.9575269322154947e+00  -6.8667298141662521e+00  -6.8493372051355088e+00  -8.8932819983874865e+00  -8.8516623379837345e+00  -8.7442997803072071e+00  -8.6226475477483380e+00  -8.5070956826669217e+00  -8.4019729509635894e+00  -8.3062730960517701e+00  -8.2177779835786335e+00  -8.1342759302253231e+00  -8.0538028387034082e+00  -7.9746008514877484e+00  -7.8950078097694165e+00  -7.8133321110955594e+00  -7.7277216486371243e+00  -7.6360335270233817e+00  -7.5357554512020251e+00  -7.4242076421338856e+00  -7.2998825983050564e+00  -7.1678309576905566e+00  -7.0551572541302709e+00  -7.0297115327629323e+00  -8.6197576129948388e+00  -8.5424994352599999e+00  -8.4390914389564529e+00  -8.3493492267712650e+00  -8.2762222267530667e+00  -8.2152995460420293e+00  -8.1625544161321280e+00  -8.1151701464737496e+00  -8.0712009414737924e+00  -8.0292191782526281e+00  -7.9880751863444237e+00  -7.9467332330608746e+00  -7.9041399806230999e+00  -7.8590882562311641e+00  -7.8100352374647963e+00  -7.7548144494544617e+00  -7.6901513024540371e+00  -7.6109676493400178e+00  -7.5104978907142392e+00  -7.3903998676784015e+00  -7.3477162741229645e+00  -8.0000000000000000e+00  -8.0000000000000000e+00  -8.0000000000000000e+00  -8.0000000000000000e+00  -8.0000000000000000e+00  -8.0000000000000000e+00  -8.0000000000000000e+00  -8.0000000000000000e+00  -8.0000000000000000e+00  -8.0000000000000000e+00  -8.0000000000000000e+00  -8.0000000000000000e+00  -8.0000000000000000e+00  -8.0000000000000000e+00  -8.0000000000000000e+00  -8.0000000000000000e+00  -8.0000000000000000e+00  -8.0000000000000000e+00  -8.0000000000000000e+00  -8.0000000000000000e+00  -8.0000000000000000e+00  </DataArray> 
</PointData> 
</Piece>
</UnstructuredGrid>
</VTKFile>