<?xml version="1.0"?>
<VTKFile type="UnstructuredGrid"  version="0.1"  >
<UnstructuredGrid>
<Piece  NumberOfPoints="651" NumberOfCells="1200">
<Points>
<DataArray  type="Float64"  NumberOfComponents="3"  format="ascii">0 0 0  50000 0 0  100000 0 0  150000 0 0  200000 0 0  250000 0 0  300000 0 0  350000 0 0  400000 0 0  450000 0 0  500000 0 0  550000 0 0  600000 0 0  650000 0 0  700000 0 0  750000 0 0  800000 0 0  850000 0 0  900000 0 0  950000 0 0  1000000 0 0  0 50000 0  50000 50000 0  100000 50000 0  150000 50000 0  200000 50000 0  250000 50000 0  300000 50000 0  350000 50000 0  400000 50000 0  450000 50000 0  500000 50000 0  550000 50000 0  600000 50000 0  650000 50000 0  700000 50000 0  750000 50000 0  800000 50000 0  850000 50000 0  900000 50000 0  950000 50000 0  1000000 50000 0  0 100000 0  50000 100000 0  100000 100000 0  150000 100000 0  200000 100000 0  250000 100000 0  300000 100000 0  350000 100000 0  400000 100000 0  450000 100000 0  500000 100000 0  550000 100000 0  600000 100000 0  650000 100000 0  700000 100000 0  750000 100000 0  800000 100000 0  850000 100000 0  900000 100000 0  950000 100000 0  1000000 100000 0  0 150000 0  50000 150000 0  100000 150000 0  150000 150000 0  200000 150000 0  250000 150000 0  300000 150000 0  350000 150000 0  400000 150000 0  450000 150000 0  500000 150000 0  550000 150000 0  600000 150000 0  650000 150000 0  700000 150000 0  750000 150000 0  800000 150000 0  850000 150000 0  900000 150000 0  950000 150000 0  1000000 150000 0  0 200000 0  50000 200000 0  100000 200000 0  150000 200000 0  200000 200000 0  250000 200000 0  300000 200000 0  350000 200000 0  400000 200000 0  450000 200000 0  500000 200000 0  550000 200000 0  600000 200000 0  650000 200000 0  700000 200000 0  750000 200000 0  800000 200000 0  850000 200000 0  900000 200000 0  950000 200000 0  1000000 200000 0  0 250000 0  50000 250000 0  100000 250000 0  150000 250000 0  200000 250000 0  250000 250000 0  300000 250000 0  350000 250000 0  400000 250000 0  450000 250000 0  500000 250000 0  550000 250000 0  600000 250000 0  650000 250000 0  700000 250000 0  750000 250000 0  800000 250000 0  850000 250000 0  900000 250000 0  950000 250000 0  1000000 250000 0  0 300000 0  50000 300000 0  100000 300000 0  150000 300000 0  200000 300000 0  250000 300000 0  300000 300000 0  350000 300000 0  400000 300000 0  450000 300000 0  500000 300000 0  550000 300000 0  600000 300000 0  650000 300000 0  700000 300000 0  750000 300000 0  800000 300000 0  850000 300000 0  900000 300000 0  950000 300000 0  1000000 300000 0  0 350000 0  50000 350000 0  100000 350000 0  150000 350000 0  200000 350000 0  250000 350000 0  300000 350000 0  350000 350000 0  400000 350000 0  450000 350000 0  500000 350000 0  550000 350000 0  600000 350000 0  650000 350000 0  700000 350000 0  750000 350000 0  800000 350000 0  850000 350000 0  900000 350000 0  950000 350000 0  1000000 350000 0  0 400000 0  50000 400000 0  100000 400000 0  150000 400000 0  200000 400000 0  250000 400000 0  300000 400000 0  350000 400000 0  400000 400000 0  450000 400000 0  500000 400000 0  550000 400000 0  600000 400000 0  650000 400000 0  700000 400000 0  750000 400000 0  800000 400000 0  850000 400000 0  900000 400000 0  950000 400000 0  1000000 400000 0  0 450000 0  50000 450000 0  100000 450000 0  150000 450000 0  200000 450000 0  250000 450000 0  300000 450000 0  350000 450000 0  400000 450000 0  450000 450000 0  500000 450000 0  550000 450000 0  600000 450000 0  650000 450000 0  700000 450000 0  750000 450000 0  800000 450000 0  850000 450000 0  900000 450000 0  950000 450000 0  1000000 450000 0  0 500000 0  50000 500000 0  100000 500000 0  150000 500000 0  200000 500000 0  250000 500000 0  300000 500000 0  350000 500000 0  400000 500000 0  450000 500000 0  500000 500000 0  550000 500000 0  600000 500000 0  650000 500000 0  700000 500000 0  750000 500000 0  800000 500000 0  850000 500000 0  900000 500000 0  950000 500000 0  1000000 500000 0  0 550000 0  50000 550000 0  100000 550000 0  150000 550000 0  200000 550000 0  250000 550000 0  300000 550000 0  350000 550000 0  400000 550000 0  450000 550000 0  500000 550000 0  550000 550000 0  600000 550000 0  650000 550000 0  700000 550000 0  750000 550000 0  800000 550000 0  850000 550000 0  900000 550000 0  950000 550000 0  1000000 550000 0  0 600000 0  50000 600000 0  100000 600000 0  150000 600000 0  200000 600000 0  250000 600000 0  300000 600000 0  350000 600000 0  400000 600000 0  450000 600000 0  500000 600000 0  550000 600000 0  600000 600000 0  650000 600000 0  700000 600000 0  750000 600000 0  800000 600000 0  850000 600000 0  900000 600000 0  950000 600000 0  1000000 600000 0  0 650000 0  50000 650000 0  100000 650000 0  150000 650000 0  200000 650000 0  250000 650000 0  300000 650000 0  350000 650000 0  400000 650000 0  450000 650000 0  500000 650000 0  550000 650000 0  600000 650000 0  650000 650000 0  700000 650000 0  750000 650000 0  800000 650000 0  850000 650000 0  900000 650000 0  950000 650000 0  1000000 650000 0  0 700000 0  50000 700000 0  100000 700000 0  150000 700000 0  200000 700000 0  250000 700000 0  300000 700000 0  350000 700000 0  400000 700000 0  450000 700000 0  500000 700000 0  550000 700000 0  600000 700000 0  650000 700000 0  700000 700000 0  750000 700000 0  800000 700000 0  850000 700000 0  900000 700000 0  950000 700000 0  1000000 700000 0  0 750000 0  50000 750000 0  100000 750000 0  150000 750000 0  200000 750000 0  250000 750000 0  300000 750000 0  350000 750000 0  400000 750000 0  450000 750000 0  500000 750000 0  550000 750000 0  600000 750000 0  650000 750000 0  700000 750000 0  750000 750000 0  800000 750000 0  850000 750000 0  900000 750000 0  950000 750000 0  1000000 750000 0  0 800000 0  50000 800000 0  100000 800000 0  150000 800000 0  200000 800000 0  250000 800000 0  300000 800000 0  350000 800000 0  400000 800000 0  450000 800000 0  500000 800000 0  550000 800000 0  600000 800000 0  650000 800000 0  700000 800000 0  750000 800000 0  800000 800000 0  850000 800000 0  900000 800000 0  950000 800000 0  1000000 800000 0  0 850000 0  50000 850000 0  100000 850000 0  150000 850000 0  200000 850000 0  250000 850000 0  300000 850000 0  350000 850000 0  400000 850000 0  450000 850000 0  500000 850000 0  550000 850000 0  600000 850000 0  650000 850000 0  700000 850000 0  750000 850000 0  800000 850000 0  850000 850000 0  900000 850000 0  950000 850000 0  1000000 850000 0  0 900000 0  50000 900000 0  100000 900000 0  150000 900000 0  200000 900000 0  250000 900000 0  300000 900000 0  350000 900000 0  400000 900000 0  450000 900000 0  500000 900000 0  550000 900000 0  600000 900000 0  650000 900000 0  700000 900000 0  750000 900000 0  800000 900000 0  850000 900000 0  900000 900000 0  950000 900000 0  1000000 900000 0  0 950000 0  50000 950000 0  100000 950000 0  150000 950000 0  200000 950000 0  250000 950000 0  300000 950000 0  350000 950000 0  400000 950000 0  450000 950000 0  500000 950000 0  550000 950000 0  600000 950000 0  650000 950000 0  700000 950000 0  750000 950000 0  800000 950000 0  850000 950000 0  900000 950000 0  950000 950000 0  1000000 950000 0  0 1000000 0  50000 1000000 0  100000 1000000 0  150000 1000000 0  200000 1000000 0  250000 1000000 0  300000 1000000 0  350000 1000000 0  400000 1000000 0  450000 1000000 0  500000 1000000 0  550000 1000000 0  600000 1000000 0  650000 1000000 0  700000 1000000 0  750000 1000000 0  800000 1000000 0  850000 1000000 0  900000 1000000 0  950000 1000000 0  1000000 1000000 0  0 1050000 0  50000 1050000 0  100000 1050000 0  150000 1050000 0  200000 1050000 0  250000 1050000 0  300000 1050000 0  350000 1050000 0  400000 1050000 0  450000 1050000 0  500000 1050000 0  550000 1050000 0  600000 1050000 0  650000 1050000 0  700000 1050000 0  750000 1050000 0  800000 1050000 0  850000 1050000 0  900000 1050000 0  950000 1050000 0  1000000 1050000 0  0 1100000 0  50000 1100000 0  100000 1100000 0  150000 1100000 0  200000 1100000 0  250000 1100000 0  300000 1100000 0  350000 1100000 0  400000 1100000 0  450000 1100000 0  500000 1100000 0  550000 1100000 0  600000 1100000 0  650000 1100000 0  700000 1100000 0  750000 1100000 0  800000 1100000 0  850000 1100000 0  900000 1100000 0  950000 1100000 0  1000000 1100000 0  0 1150000 0  50000 1150000 0  100000 1150000 0  150000 1150000 0  200000 1150000 0  250000 1150000 0  300000 1150000 0  350000 1150000 0  400000 1150000 0  450000 1150000 0  500000 1150000 0  550000 1150000 0  600000 1150000 0  650000 1150000 0  700000 1150000 0  750000 1150000 0  800000 1150000 0  850000 1150000 0  900000 1150000 0  950000 1150000 0  1000000 1150000 0  0 1200000 0  50000 1200000 0  100000 1200000 0  150000 1200000 0  200000 1200000 0  250000 1200000 0  300000 1200000 0  350000 1200000 0  400000 1200000 0  450000 1200000 0  500000 1200000 0  550000 1200000 0  600000 1200000 0  650000 1200000 0  700000 1200000 0  750000 1200000 0  800000 1200000 0  850000 1200000 0  900000 1200000 0  950000 1200000 0  1000000 1200000 0  0 1250000 0  50000 1250000 0  100000 1250000 0  150000 1250000 0  200000 1250000 0  250000 1250000 0  300000 1250000 0  350000 1250000 0  400000 1250000 0  450000 1250000 0  500000 1250000 0  550000 1250000 0  600000 1250000 0  650000 1250000 0  700000 1250000 0  750000 1250000 0  800000 1250000 0  850000 1250000 0  900000 1250000 0  950000 1250000 0  1000000 1250000 0  0 1300000 0  50000 1300000 0  100000 1300000 0  150000 1300000 0  200000 1300000 0  250000 1300000 0  300000 1300000 0  350000 1300000 0  400000 1300000 0  450000 1300000 0  500000 1300000 0  550000 1300000 0  600000 1300000 0  650000 1300000 0  700000 1300000 0  750000 1300000 0  800000 1300000 0  850000 1300000 0  900000 1300000 0  950000 1300000 0  1000000 1300000 0  0 1350000 0  50000 1350000 0  100000 1350000 0  150000 1350000 0  200000 1350000 0  250000 1350000 0  300000 1350000 0  350000 1350000 0  400000 1350000 0  450000 1350000 0  500000 1350000 0  550000 1350000 0  600000 1350000 0  650000 1350000 0  700000 135
[...]
<PointData  Vectors="f_2995"> 
<DataArray  type="Float64"  Name="f_2995"  NumberOfComponents="3" format="ascii">-1.6519968528603975e-10 1.3163075834341853e-10 0.0000000000000000e+00  -3.0186239779916265e-10 1.0522688211273274e-10 0.0000000000000000e+00  -5.4490648153149819e-10 9.4203498883400497e-11 0.0000000000000000e+00  -7.7982189363258118e-10 8.4695119606670477e-11 0.0000000000000000e+00  -9.9495069315238587e-10 7.3721044839778405e-11 0.0000000000000000e+00  -1.1840219258536126e-09 6.0932044151618517e-11 0.0000000000000000e+00  -1.3419382405913002e-09 4.6444209210213848e-11 0.0000000000000000e+00  -1.4645774078891620e-09 3.0535600598803424e-11 0.0000000000000000e+00  -1.5487876934034715e-09 1.3572125003747384e-11 0.0000000000000000e+00  -1.5924425947447602e-09 -4.0290504471218137e-12 0.0000000000000000e+00  -1.5944861131242206e-09 -2.1822996667816887e-11 0.0000000000000000e+00  -1.5549546533147887e-09 -3.9355236461853157e-11 0.0000000000000000e+00  -1.4749729957703576e-09 -5.6177915357961976e-11 0.0000000000000000e+00  -1.3567244598012418e-09 -7.1865610842877016e-11 0.0000000000000000e+00  -1.2034008082613967e-09 -8.6032896921562661e-11 0.0000000000000000e+00  -1.0191652542087442e-09 -9.8360655839359807e-11 0.0000000000000000e+00  -8.0930275280451527e-10 -1.0865715615920450e-10 0.0000000000000000e+00  -5.8135407848112883e-10 -1.1702665014493404e-10 0.0000000000000000e+00  -3.5045883526129573e-10 -1.2370831204854223e-10 0.0000000000000000e+00  -1.6201707647154689e-10 -1.1976560356848258e-10 0.0000000000000000e+00  -8.2619545254119937e-11 -7.8364258005737509e-11 0.0000000000000000e+00  -1.4108940141471006e-10 2.5761423042628053e-10 0.0000000000000000e+00  -2.4729285500171183e-10 2.3852328681087473e-10 0.0000000000000000e+00  -4.3653571264327658e-10 2.4832512951003086e-10 0.0000000000000000e+00  -6.5017812898832137e-10 2.3614464741725681e-10 0.0000000000000000e+00  -8.5414660514104512e-10 2.1463924594663417e-10 0.0000000000000000e+00  -1.0375484810751580e-09 1.8647124016817882e-10 0.0000000000000000e+00  -1.1945627893682812e-09 1.5300423177303387e-10 0.0000000000000000e+00  -1.3207535118304663e-09 1.1534824083930908e-10 0.0000000000000000e+00  -1.4127008170987457e-09 7.4591223850302042e-11 0.0000000000000000e+00  -1.4679858732839040e-09 3.1851898469442920e-11 0.0000000000000000e+00  -1.4852058910286088e-09 -1.1721480074590203e-11 0.0000000000000000e+00  -1.4639885675353298e-09 -5.4968944845723659e-11 0.0000000000000000e+00  -1.4049942283812604e-09 -9.6741370017098802e-11 0.0000000000000000e+00  -1.3099022427349449e-09 -1.3592298791584949e-10 0.0000000000000000e+00  -1.1813865654767194e-09 -1.7144995228673770e-10 0.0000000000000000e+00  -1.0231034324368663e-09 -2.0231777175571458e-10 0.0000000000000000e+00  -8.3978307159646230e-10 -2.2755150441534144e-10 0.0000000000000000e+00  -6.3782328672717786e-10 -2.4598309680586380e-10 0.0000000000000000e+00  -4.2807569832964230e-10 -2.5487095098321656e-10 0.0000000000000000e+00  -2.3742409371748824e-10 -2.4379446378372384e-10 0.0000000000000000e+00  -1.2784245521659323e-10 -1.5186002174175176e-10 0.0000000000000000e+00  -1.3833414508309397e-10 4.8100696782455699e-10 0.0000000000000000e+00  -2.5196103657481565e-10 4.2860808698256228e-10 0.0000000000000000e+00  -4.3119986791553770e-10 4.3764220650654260e-10 0.0000000000000000e+00  -6.2600140039347745e-10 4.1930120896666117e-10 0.0000000000000000e+00  -8.1365679239424516e-10 3.8380258587950991e-10 0.0000000000000000e+00  -9.8400459647564638e-10 3.3563719052128626e-10 0.0000000000000000e+00  -1.1305317252864745e-09 2.7755805118280466e-10 0.0000000000000000e+00  -1.2486422241622001e-09 2.1174283883880657e-10 0.0000000000000000e+00  -1.3349365829657186e-09 1.4022676529123497e-10 0.0000000000000000e+00  -1.3870437478118671e-09 6.5045243295339937e-11 0.0000000000000000e+00  -1.4035950859436308e-09 -1.1738148110363509e-11 0.0000000000000000e+00  -1.3842215444664552e-09 -8.8046919836070886e-11 0.0000000000000000e+00  -1.3295487006821078e-09 -1.6182122536825274e-10 0.0000000000000000e+00  -1.2411838790755868e-09 -2.3104814518063190e-10 0.0000000000000000e+00  -1.1216988041359122e-09 -2.9378112763359587e-10 0.0000000000000000e+00  -9.7462801301435762e-10 -3.4812813899410588e-10 0.0000000000000000e+00  -8.0455742735027300e-10 -3.9215556015720055e-10 0.0000000000000000e+00  -6.1757873273562399e-10 -4.2355842290871277e-10 0.0000000000000000e+00  -4.2315186116646792e-10 -4.3870211376367425e-10 0.0000000000000000e+00  -2.4307005995909202e-10 -4.3048359015485360e-10 0.0000000000000000e+00  -1.3481682909324037e-10 -3.2435623336970878e-10 0.0000000000000000e+00  -1.4262925953252236e-10 7.0090217107782686e-10 0.0000000000000000e+00  -2.5184355906060471e-10 6.3430080200665581e-10 0.0000000000000000e+00  -4.2835809338452298e-10 6.3330685051569664e-10 0.0000000000000000e+00  -6.1582118053728631e-10 6.0583544011524188e-10 0.0000000000000000e+00  -7.9420561871072406e-10 5.5572303158732886e-10 0.0000000000000000e+00  -9.5564492415135130e-10 4.8737298695968321e-10 0.0000000000000000e+00  -1.0945584869320428e-09 4.0438634099604014e-10 0.0000000000000000e+00  -1.2065809074643607e-09 3.0991503802997040e-10 0.0000000000000000e+00  -1.2883989285508931e-09 2.0696874362232240e-10 0.0000000000000000e+00  -1.3376973009804165e-09 9.8548710667183516e-11 0.0000000000000000e+00  -1.3531398023623415e-09 -1.2318068275291502e-11 0.0000000000000000e+00  -1.3343623375671694e-09 -1.2259448743901445e-10 0.0000000000000000e+00  -1.2819633837668979e-09 -2.2926958173315356e-10 0.0000000000000000e+00  -1.1974860595352306e-09 -3.2939823736653330e-10 0.0000000000000000e+00  -1.0833915024097272e-09 -4.2013060553793332e-10 0.0000000000000000e+00  -9.4303189404563609e-10 -4.9871410029662324e-10 0.0000000000000000e+00  -7.8066462961829173e-10 -5.6244373020302656e-10 0.0000000000000000e+00  -6.0170995787017041e-10 -6.0854425186713954e-10 0.0000000000000000e+00  -4.1428529058480721e-10 -6.3397242650404915e-10 0.0000000000000000e+00  -2.3865266407419876e-10 -6.3442568277728573e-10 0.0000000000000000e+00  -1.3578862581677205e-10 -5.3412132154342059e-10 0.0000000000000000e+00  -1.5062822176173067e-10 9.1615748402559130e-10 0.0000000000000000e+00  -2.5262375444239985e-10 8.4107996624659521e-10 0.0000000000000000e+00  -4.2765973048698675e-10 8.2897381113213160e-10 0.0000000000000000e+00  -6.1292729018934236e-10 7.8970183057472598e-10 0.0000000000000000e+00  -7.8757498684967312e-10 7.2412834558977402e-10 0.0000000000000000e+00  -9.4459404410431112e-10 6.3571212036831396e-10 0.0000000000000000e+00  -1.0792122663892735e-09 5.2834482613287249e-10 0.0000000000000000e+00  -1.1875258593041148e-09 4.0590458103784914e-10 0.0000000000000000e+00  -1.2664473636449372e-09 2.7227315132776106e-10 0.0000000000000000e+00  -1.3137722994816560e-09 1.3137499416276659e-10 0.0000000000000000e+00  -1.3282173412254763e-09 -1.2822427333602771e-11 0.0000000000000000e+00  -1.3094318057986362e-09 -1.5634079265556792e-10 0.0000000000000000e+00  -1.2579912887917072e-09 -2.9524092836368746e-10 0.0000000000000000e+00  -1.1753753563292290e-09 -4.2567876913493681e-10 0.0000000000000000e+00  -1.0639282595505648e-09 -5.4395846744336770e-10 0.0000000000000000e+00  -9.2680573322627915e-10 -6.4657769043230961e-10 0.0000000000000000e+00  -7.6794716231432281e-10 -7.3027202237276945e-10 0.0000000000000000e+00  -5.9231867818260529e-10 -7.9209757797978812e-10 0.0000000000000000e+00  -4.0770251947892182e-10 -8.2951402730652924e-10 0.0000000000000000e+00  -2.3523658407147905e-10 -8.3910587490999431e-10 0.0000000000000000e+00  -1.4043329060233646e-10 -7.4590823322052498e-10 0.0000000000000000e+00  -1.6167444763799989e-10 1.1294530383540007e-09 0.0000000000000000e+00  -2.5591434457628332e-10 1.0479084446538356e-09 0.0000000000000000e+00  -4.3041284519114078e-10 1.0253077557725740e-09 0.0000000000000000e+00  -6.1609236246706830e-10 9.7290296148008830e-10 0.0000000000000000e+00  -7.9045060080045573e-10 8.9080956586727165e-10 0.0000000000000000e+00  -9.4638455415508724e-10 7.8191347595713442e-10 0.0000000000000000e+00  -1.0794777956531336e-09 6.5020964907114603e-10 0.0000000000000000e+00  -1.1861764829999034e-09 5.0010847658309142e-10 0.0000000000000000e+00  -1.2636302795012001e-09 3.3624279851463388e-10 0.0000000000000000e+00  -1.3097760156845539e-09 1.6338926656080322e-10 0.0000000000000000e+00  -1.3234056234605668e-09 -1.3590135963391414e-11 0.0000000000000000e+00  -1.3041963053707329e-09 -1.8981235338379771e-10 0.0000000000000000e+00  -1.2527117982860963e-09 -3.6044619955394545e-10 0.0000000000000000e+00  -1.1703804645011381e-09 -5.2079159705050607e-10 0.0000000000000000e+00  -1.0594515991091852e-09 -6.6636382062222079e-10 0.0000000000000000e+00  -9.2293715345905430e-10 -7.9298680709619231e-10 0.0000000000000000e+00  -7.6459663418326578e-10 -8.9691131123195338e-10 0.0000000000000000e+00  -5.8927705073360120e-10 -9.7498359511776598e-10 0.0000000000000000e+00  -4.0505748793730187e-10 -1.0247202489960739e-09 0.0000000000000000e+00  -2.3463972157295747e-10 -1.0426392388210457e-09 0.0000000000000000e+00  -1.4831402587779362e-10 -9.5454935215281879e-10 0.0000000000000000e+00  -1.7553747781079877e-10 1.3432272237064898e-09 0.0000000000000000e+00  -2.6180187507027519e-10 1.2560504594179360e-09 0.0000000000000000e+00  -4.3672746438248845e-10 1.2236475296727024e-09 0.0000000000000000e+00  -6.2444007977055314e-10 1.1576197177093042e-09 0.0000000000000000e+00  -8.0060140440194041e-10 1.0581533503279057e-09 0.0000000000000000e+00  -9.5764319626349055e-10 9.2809923687458383e-10 0.0000000000000000e+00  -1.0911800190390012e-09 7.7165591489527914e-10 0.0000000000000000e+00  -1.1978313135956661e-09 5.9371653409491662e-10 0.0000000000000000e+00  -1.2749204904113653e-09 3.9959238215660572e-10 0.0000000000000000e+00  -1.3205149640197963e-09 1.9485149712056523e-10 0.0000000000000000e+00  -1.3334894569316260e-09 -1.4797155434928224e-11 0.0000000000000000e+00  -1.3135611652049457e-09 -2.2360530247942195e-10 0.0000000000000000e+00  -1.2612964212219236e-09 -4.2588570608874583e-10 0.0000000000000000e+00  -1.1780934947047410e-09 -6.1611713297326553e-10 0.0000000000000000e+00  -1.0661450792549155e-09 -7.8905878564298117e-10 0.0000000000000000e+00  -9.2839428359609459e-10 -9.3988149288423516e-10 0.0000000000000000e+00  -7.6856042916924218e-10 -1.0643266033991851e-09 0.0000000000000000e+00  -5.9159436306547511e-10 -1.1588920275999951e-09 0.0000000000000000e+00  -4.0613200243120727e-10 -1.2208420716238765e-09 0.0000000000000000e+00  -2.3667661735892541e-10 -1.2463153310843256e-09 0.0000000000000000e+00  -1.5901376586941462e-10 -1.1612728028302187e-09 0.0000000000000000e+00  -1.9212679766422122e-10 1.5593207611025480e-09 0.0000000000000000e+00  -2.6987595686395026e-10 1.4669417990099695e-09 0.0000000000000000e+00  -4.4590140197280111e-10 1.4252123354285390e-09 0.0000000000000000e+00  -6.3664735642439641e-10 1.3453409338686007e-09 0.0000000000000000e+00  -8.1580296224059443e-10 1.2278506720002492e-09 0.0000000000000000e+00  -9.7521859840100801e-10 1.0758987645395062e-09 0.0000000000000000e+00  -1.1103818590121824e-09 8.9406526816428544e-10 0.0000000000000000e+00  -1.2179622169303914e-09 6.8777358885783093e-10 0.0000000000000000e+00  -1.2953898592492825e-09 4.6300041770080477e-10 0.0000000000000000e+00  -1.3408381021643091e-09 2.2607193405144404e-10 0.0000000000000000e+00  -1.3532620289848944e-09 -1.6493060857553142e-11 0.0000000000000000e+00  -1.3324257562093946e-09 -2.5811643935345061e-10 0.0000000000000000e+00  -1.2789100072396949e-09 -4.9228574453092173e-10 0.0000000000000000e+00  -1.1941019178357333e-09 -7.1268165198671947e-10 0.0000000000000000e+00  -1.0801712007803367e-09 -9.1331655422298351e-10 0.0000000000000000e+00  -9.4005064563359817e-10 -1.0886917741959480e-09 0.0000000000000000e+00  -7.7750903402688330e-10 -1.2339775001623277e-09 0.0000000000000000e+00  -5.9771060487619692e-10 -1.3451983213872961e-09 0.0000000000000000e+00  -4.0995088326556963e-10 -1.4192028771076857e-09 0.0000000000000000e+00  -2.4074354879680033e-10 -1.4516712025036683e-09 0.0000000000000000e+00  -1.7238119172415325e-10 -1.3681027847783871e-09 0.0000000000000000e+00  -2.1142995322249629e-10 1.7788159969434972e-09 0.0000000000000000e+00  -2.7950766021638716e-10 1.6816068688213672e-09 0.0000000000000000e+00  -4.5677056800684180e-10 1.6307930546928027e-09 0.0000000000000000e+00  -6.5092016025905193e-10 1.5368744808325138e-09 0.0000000000000000e+00  -8.3350276337576167e-10 1.4007928827723098e-09 0.0000000000000000e+00  -9.9575505816966292e-10 1.2262049812439231e-09 0.0000000000000000e+00  -1.1329880283623622e-09 1.0182290543978468e-09 0.0000000000000000e+00  -1.2418687788505198e-09 7.8290085257753327e-10 0.0000000000000000e+00  -1.3199003313097387e-09 5.2688692267962870e-10 0.0000000000000000e+00  -1.3653486675376950e-09 2.5726196851659755e-10 0.0000000000000000e+00  -1.3772487131673631e-09 -1.8671585293652335e-11 0.0000000000000000e+00  -1.3554155704985351e-09 -2.9353691980966024e-10 0.0000000000000000e+00  -1.3004491878269447e-09 -5.6002369435428691e-10 0.0000000000000000e+00  -1.2137323521314410e-09 -8.1103005393619877e-10 0.0000000000000000e+00  -1.0974252239060114e-09 -1.0398172015940486e-09 0.0000000000000000e+00  -9.5447517101253709e-10 -1.2401841796358260e-09 0.0000000000000000e+00  -7.8873653954633652e-10 -1.4066628936100768e-09 0.0000000000000000e+00  -6.0562666806987750e-10 -1.5347094972196973e-09 0.0000000000000000e+00  -4.1515444760868364e-10 -1.6206694350606003e-09 0.0000000000000000e+00  -2.4608719130923973e-10 -1.6597525770948043e-09 0.0000000000000000e+00  -1.8837264851869763e-10 -1.5765778776962811e-09 0.0000000000000000e+00  -2.3348412218952785e-10 2.0019335729575523e-09 0.0000000000000000e+00  -2.8991718604280994e-10 1.9004019376163766e-09 0.0000000000000000e+00  -4.6782766643644191e-10 1.8405564169044625e-09 0.0000000000000000e+00  -6.6500801348084580e-10 1.7323195913276134e-09 0.0000000000000000e+00  -8.5066680725205180e-10 1.5770916489221668e-09 0.0000000000000000e+00  -1.0154227988871973e-09 1.3791510334619500e-09 0.0000000000000000e+00  -1.1544243977013013e-09 1.1442784409845651e-09 0.0000000000000000e+00  -1.2643456301511874e-09 8.7920676209383344e-10 0.0000000000000000e+00  -1.3427727206473259e-09 5.9133051230746939e-10 0.0000000000000000e+00  -1.3880774043671125e-09 2.8847329583705915e-10 0.0000000000000000e+00  -1.3993860184360683e-09 -2.1302589444309050e-11 0.0000000000000000e+00  -1.3765694182841559e-09 -3.2985559520601766e-10 0.0000000000000000e+00  -1.3202422356943020e-09 -6.2910861382389542e-10 0.0000000000000000e+00  -1.2317705641483054e-09 -9.1119385196656247e-10 0.0000000000000000e+00  -1.1132893730558921e-09 -1.1686139519930170e-09 0.0000000000000000e+00  -9.6774655351314942e-10 -1.3944288421967548e-09 0.0000000000000000e+00  -7.9907211985763151e-10 -1.5824675642756849e-09 0.0000000000000000e+00  -6.1293418947868568e-10 -1.7275396209383419e-09 0.0000000000000000e+00  -4.2009339725547821e-10 -1.8254262817826108e-09 0.0000000000000000e+00  -2.5183706995264805e-10 -1.8708683565808778e-09 0.0000000000000000e+00  -2.0699506034882230e-10 -1.7874542436731091e-09 0.0000000000000000e+00  -2.5836187002475150e-10 2.2279079101798498e-09 0.0000000000000000e+00  -3.0017351735762817e-10 2.1228365586787118e-09 0.0000000000000000e+00  -4.7722907704733595e-10 2.0538663943749218e-09 0.0000000000000000e+00  -6.7616371108779602e-10 1.9309603552863014e-09 0.0000000000000000e+00  -8.6364699731241563e-10 1.7560264528894222e-09 0.0000000000000000e+00  -1.0296926478689176e-09 1.5340665355953060e-09 0.0000000000000000e+00  -1.1693454823734008e-09 1.2716304988008003e-09 0.0000000000000000e+00  -1.2793496489701159e-09 9.7622714312008156e-10 0.0000000000000000e+00  -1.3574328545750646e-09 6.5601533174197201e-10 0.0000000000000000e+00  -1.4021204242214707e-09 3.1956290476424639e-10 0.0000000000000000e+00  -1.4126609782575568e-09 -2.4342774230803604e-11 0.0000000000000000e+00  -1.3889896100456251e-09 -3.6684472905441601e-10 0.0000000000000000e+00  -1.3317199819408252e-09 -6.9914587771570347e-10 0.0000000000000000e+00  -1.2421646778796008e-09 -1.0126411719698475e-09 0.0000000000000000e+00  -1.1223824419694289e-09 -1.2990737378788159e-09 0.0000000000000000e+00  -9.7526532619962555e-10 -1.5507291005137743e-09 0.0000000000000000e+00  -8.0476659637042841e-10 -1.7606686924998610e-09 0.0000000000000000e+00  -6.1677037923333816e-10 -1.9229775735894531e-09 0.0000000000000000e+00  -4.2281684266770817e-10 -2.0328102876093239e-09 0.0000000000000000e+00  -2.5698711757303451e-10 -2.0844338606098644e-09 0.0000000000000000e+00  -2.2828474582781974e-10 -2.0005810305130484e-09 0.0000000000000000e+00  -2.8616446912009865e-10 2.4548213972133551e-09 0.0000000000000000e+00  -3.0916581188476817e-10 2.3473915610243056e-09 0.0000000000000000e+00  -4.8274568065351653e-10 2.2690924059747450e-09 0.0000000000000000e+00  -6.8105222425071295e-10 2.1311002438229112e-09 0.0000000000000000e+00  -8.6802347033935366e-10 1.9359129642589947e-09 0.0000000000000000e+00  -1.0331023513405419e-09 1.6893677303392728e-09 0.0000000000000000e+00  -1.1713325859764873e-09 1.3988907501448041e-09 0.0000000000000000e+00  -1.2796461924732866e-09 1.0728411454059461e-09 0.0000000000000000e+00  -1.3560236968846072e-09 7.2016782120672697e-10 0.0000000000000000e+00  -1.3992338793784501e-09 3.5015885294201406e-10 0.0000000000000000e+00  -1.4087037836901737e-09 -2.7735740439946076e-11 0.0000000000000000e+00  -1.3844471893158369e-09 -4.0402521537089433e-10 0.0000000000000000e+00  -1.3270477968504910e-09 -7.6927103284835840e-10 0.0000000000000000e+00  -1.2376974799359859e-09 -1.1141851683486787e-09 0.0000000000000000e+00  -1.1182847567664196e-09 -1.4297657730119556e-09 0.0000000000000000e+00  -9.7154059381408584e-10 -1.7074926596162413e-09 0.0000000000000000e+00  -8.0134287769200505e-10 -1.9395884196057044e-09 0.0000000000000000e+00  -6.1372276535301674e-10 -2.1193211349620889e-09 0.0000000000000000e+00  -4.2101293633227568e-10 -2.2411360709846233e-09 0.0000000000000000e+00  -2.6035889973949749e-10 -2.2988071256781423e-09 0.0000000000000000e+00  -2.5229707956595359e-10 -2.2147713625341915e-09 0.0000000000000000e+00  -3.1702057560165011e-10 2.6793883001424997e-09 0.0000000000000000e+00  -3.1556031123112370e-10 2.5713046345050334e-09 0.0000000000000000e+00  -4.8168050839136949e-10 2.4833840525682331e-09 0.0000000000000000e+00  -6.7561880779908297e-10 2.3298427605774479e-09 0.0000000000000000e+00  -8.5840892406324867e-10 2.1139011922282331e-09 0.0000000000000000e+00  -1.0189886756543847e-09 1.8423766476267547e-09 0.0000000000000000e+00  -1.1525558331071390e-09 1.5236958491493233e-09 0.0000000000000000e+00  -1.2564121856344685e-09 1.1671432941088819e-09 0.0000000000000000e+00  -1.3289658456986144e-09 7.8246656679941002e-10 0.0000000000000000e+00  -1.3693705103637301e-09 3.7961590088774638e-10 0.0000000000000000e+00  -1.3773195996469325e-09 -3.1405788756444543e-11 0.0000000000000000e+00  -1.3529278275700778e-09 -4.4060967095682010e-10 0.0000000000000000e+00  -1.2967031392149506e-09 -8.3804668685718698e-10 0.0000000000000000e+00  -1.2096109509742651e-09 -1.2138426245327096e-09 0.0000000000000000e+00  -1.0932213654856457e-09 -1.5582911267357444e-09 0.0000000000000000e+00  -9.4993809081837434e-10 -1.8620406925548355e-09 0.0000000000000000e+00  -7.8340794819742637e-10 -2.1163895497517125e-09 0.0000000000000000e+00  -5.9969716904075051e-10 -2.3136661351644383e-09 0.0000000000000000e+00  -4.1192216727005004e-10 -2.4474868991495938e-09 0.0000000000000000e+00  -2.6055408398432643e-10 -2.5110899649223459e-09 0.0000000000000000e+00  -2.7910045219567518e-10 -2.4276326729714246e-09 0.0000000000000000e+00  -3.5109041270794209e-10 2.8966802965192249e-09 0.0000000000000000e+00  -3.1774770164807404e-10 2.7903082411871614e-09 0.0000000000000000e+00  -4.7076224474150307e-10 2.6923970245725191e-09 0.0000000000000000e+00  -6.5492098540046087e-10 2.5228125222936845e-09 0.0000000000000000e+00  -8.2820883634149655e-10 2.2857027848103337e-09 0.0000000000000000e+00  -9.791