<?xml version="1.0"?>
<VTKFile type="UnstructuredGrid"  version="0.1"  >
<UnstructuredGrid>
<Piece  NumberOfPoints="651" NumberOfCells="1200">
<Points>
<DataArray  type="Float64"  NumberOfComponents="3"  format="ascii">0 0 0  50000 0 0  100000 0 0  150000 0 0  200000 0 0  250000 0 0  300000 0 0  350000 0 0  400000 0 0  450000 0 0  500000 0 0  550000 0 0  600000 0 0  650000 0 0  700000 0 0  750000 0 0  800000 0 0  850000 0 0  900000 0 0  950000 0 0  1000000 0 0  0 50000 0  50000 50000 0  100000 50000 0  150000 50000 0  200000 50000 0  250000 50000 0  300000 50000 0  350000 50000 0  400000 50000 0  450000 50000 0  500000 50000 0  550000 50000 0  600000 50000 0  650000 50000 0  700000 50000 0  750000 50000 0  800000 50000 0  850000 50000 0  900000 50000 0  950000 50000 0  1000000 50000 0  0 100000 0  50000 100000 0  100000 100000 0  150000 100000 0  200000 100000 0  250000 100000 0  300000 100000 0  350000 100000 0  400000 100000 0  450000 100000 0  500000 100000 0  550000 100000 0  600000 100000 0  650000 100000 0  700000 100000 0  750000 100000 0  800000 100000 0  850000 100000 0  900000 100000 0  950000 100000 0  1000000 100000 0  0 150000 0  50000 150000 0  100000 150000 0  150000 150000 0  200000 150000 0  250000 150000 0  300000 150000 0  350000 150000 0  400000 150000 0  450000 150000 0  500000 150000 0  550000 150000 0  600000 150000 0  650000 150000 0  700000 150000 0  750000 150000 0  800000 150000 0  850000 150000 0  900000 150000 0  950000 150000 0  1000000 150000 0  0 200000 0  50000 200000 0  100000 200000 0  150000 200000 0  200000 200000 0  250000 200000 0  300000 200000 0  350000 200000 0  400000 200000 0  450000 200000 0  500000 200000 0  550000 200000 0  600000 200000 0  650000 200000 0  700000 200000 0  750000 200000 0  800000 200000 0  850000 200000 0  900000 200000 0  950000 200000 0  1000000 200000 0  0 250000 0  50000 250000 0  100000 250000 0  150000 250000 0  200000 250000 0  250000 250000 0  300000 250000 0  350000 250000 0  400000 250000 0  450000 250000 0  500000 250000 0  550000 250000 0  600000 250000 0  650000 250000 0  700000 250000 0  750000 250000 0  800000 250000 0  850000 250000 0  900000 250000 0  950000 250000 0  1000000 250000 0  0 300000 0  50000 300000 0  100000 300000 0  150000 300000 0  200000 300000 0  250000 300000 0  300000 300000 0  350000 300000 0  400000 300000 0  450000 300000 0  500000 300000 0  550000 300000 0  600000 300000 0  650000 300000 0  700000 300000 0  750000 300000 0  800000 300000 0  850000 300000 0  900000 300000 0  950000 300000 0  1000000 300000 0  0 350000 0  50000 350000 0  100000 350000 0  150000 350000 0  200000 350000 0  250000 350000 0  300000 350000 0  350000 350000 0  400000 350000 0  450000 350000 0  500000 350000 0  550000 350000 0  600000 350000 0  650000 350000 0  700000 350000 0  750000 350000 0  800000 350000 0  850000 350000 0  900000 350000 0  950000 350000 0  1000000 350000 0  0 400000 0  50000 400000 0  100000 400000 0  150000 400000 0  200000 400000 0  250000 400000 0  300000 400000 0  350000 400000 0  400000 400000 0  450000 400000 0  500000 400000 0  550000 400000 0  600000 400000 0  650000 400000 0  700000 400000 0  750000 400000 0  800000 400000 0  850000 400000 0  900000 400000 0  950000 400000 0  1000000 400000 0  0 450000 0  50000 450000 0  100000 450000 0  150000 450000 0  200000 450000 0  250000 450000 0  300000 450000 0  350000 450000 0  400000 450000 0  450000 450000 0  500000 450000 0  550000 450000 0  600000 450000 0  650000 450000 0  700000 450000 0  750000 450000 0  800000 450000 0  850000 450000 0  900000 450000 0  950000 450000 0  1000000 450000 0  0 500000 0  50000 500000 0  100000 500000 0  150000 500000 0  200000 500000 0  250000 500000 0  300000 500000 0  350000 500000 0  400000 500000 0  450000 500000 0  500000 500000 0  550000 500000 0  600000 500000 0  650000 500000 0  700000 500000 0  750000 500000 0  800000 500000 0  850000 500000 0  900000 500000 0  950000 500000 0  1000000 500000 0  0 550000 0  50000 550000 0  100000 550000 0  150000 550000 0  200000 550000 0  250000 550000 0  300000 550000 0  350000 550000 0  400000 550000 0  450000 550000 0  500000 550000 0  550000 550000 0  600000 550000 0  650000 550000 0  700000 550000 0  750000 550000 0  800000 550000 0  850000 550000 0  900000 550000 0  950000 550000 0  1000000 550000 0  0 600000 0  50000 600000 0  100000 600000 0  150000 600000 0  200000 600000 0  250000 600000 0  300000 600000 0  350000 600000 0  400000 600000 0  450000 600000 0  500000 600000 0  550000 600000 0  600000 600000 0  650000 600000 0  700000 600000 0  750000 600000 0  800000 600000 0  850000 600000 0  900000 600000 0  950000 600000 0  1000000 600000 0  0 650000 0  50000 650000 0  100000 650000 0  150000 650000 0  200000 650000 0  250000 650000 0  300000 650000 0  350000 650000 0  400000 650000 0  450000 650000 0  500000 650000 0  550000 650000 0  600000 650000 0  650000 650000 0  700000 650000 0  750000 650000 0  800000 650000 0  850000 650000 0  900000 650000 0  950000 650000 0  1000000 650000 0  0 700000 0  50000 700000 0  100000 700000 0  150000 700000 0  200000 700000 0  250000 700000 0  300000 700000 0  350000 700000 0  400000 700000 0  450000 700000 0  500000 700000 0  550000 700000 0  600000 700000 0  650000 700000 0  700000 700000 0  750000 700000 0  800000 700000 0  850000 700000 0  900000 700000 0  950000 700000 0  1000000 700000 0  0 750000 0  50000 750000 0  100000 750000 0  150000 750000 0  200000 750000 0  250000 750000 0  300000 750000 0  350000 750000 0  400000 750000 0  450000 750000 0  500000 750000 0  550000 750000 0  600000 750000 0  650000 750000 0  700000 750000 0  750000 750000 0  800000 750000 0  850000 750000 0  900000 750000 0  950000 750000 0  1000000 750000 0  0 800000 0  50000 800000 0  100000 800000 0  150000 800000 0  200000 800000 0  250000 800000 0  300000 800000 0  350000 800000 0  400000 800000 0  450000 800000 0  500000 800000 0  550000 800000 0  600000 800000 0  650000 800000 0  700000 800000 0  750000 800000 0  800000 800000 0  850000 800000 0  900000 800000 0  950000 800000 0  1000000 800000 0  0 850000 0  50000 850000 0  100000 850000 0  150000 850000 0  200000 850000 0  250000 850000 0  300000 850000 0  350000 850000 0  400000 850000 0  450000 850000 0  500000 850000 0  550000 850000 0  600000 850000 0  650000 850000 0  700000 850000 0  750000 850000 0  800000 850000 0  850000 850000 0  900000 850000 0  950000 850000 0  1000000 850000 0  0 900000 0  50000 900000 0  100000 900000 0  150000 900000 0  200000 900000 0  250000 900000 0  300000 900000 0  350000 900000 0  400000 900000 0  450000 900000 0  500000 900000 0  550000 900000 0  600000 900000 0  650000 900000 0  700000 900000 0  750000 900000 0  800000 900000 0  850000 900000 0  900000 900000 0  950000 900000 0  1000000 900000 0  0 950000 0  50000 950000 0  100000 950000 0  150000 950000 0  200000 950000 0  250000 950000 0  300000 950000 0  350000 950000 0  400000 950000 0  450000 950000 0  500000 950000 0  550000 950000 0  600000 950000 0  650000 950000 0  700000 950000 0  750000 950000 0  800000 950000 0  850000 950000 0  900000 950000 0  950000 950000 0  1000000 950000 0  0 1000000 0  50000 1000000 0  100000 1000000 0  150000 1000000 0  200000 1000000 0  250000 1000000 0  300000 1000000 0  350000 1000000 0  400000 1000000 0  450000 1000000 0  500000 1000000 0  550000 1000000 0  600000 1000000 0  650000 1000000 0  700000 1000000 0  750000 1000000 0  800000 1000000 0  850000 1000000 0  900000 1000000 0  950000 1000000 0  1000000 1000000 0  0 1050000 0  50000 1050000 0  100000 1050000 0  150000 1050000 0  200000 1050000 0  250000 1050000 0  300000 1050000 0  350000 1050000 0  400000 1050000 0  450000 1050000 0  500000 1050000 0  550000 1050000 0  600000 1050000 0  650000 1050000 0  700000 1050000 0  750000 1050000 0  800000 1050000 0  850000 1050000 0  900000 1050000 0  950000 1050000 0  1000000 1050000 0  0 1100000 0  50000 1100000 0  100000 1100000 0  150000 1100000 0  200000 1100000 0  250000 1100000 0  300000 1100000 0  350000 1100000 0  400000 1100000 0  450000 1100000 0  500000 1100000 0  550000 1100000 0  600000 1100000 0  650000 1100000 0  700000 1100000 0  750000 1100000 0  800000 1100000 0  850000 1100000 0  900000 1100000 0  950000 1100000 0  1000000 1100000 0  0 1150000 0  50000 1150000 0  100000 1150000 0  150000 1150000 0  200000 1150000 0  250000 1150000 0  300000 1150000 0  350000 1150000 0  400000 1150000 0  450000 1150000 0  500000 1150000 0  550000 1150000 0  600000 1150000 0  650000 1150000 0  700000 1150000 0  750000 1150000 0  800000 1150000 0  850000 1150000 0  900000 1150000 0  950000 1150000 0  1000000 1150000 0  0 1200000 0  50000 1200000 0  100000 1200000 0  150000 1200000 0  200000 1200000 0  250000 1200000 0  300000 1200000 0  350000 1200000 0  400000 1200000 0  450000 1200000 0  500000 1200000 0  550000 1200000 0  600000 1200000 0  650000 1200000 0  700000 1200000 0  750000 1200000 0  800000 1200000 0  850000 1200000 0  900000 1200000 0  950000 1200000 0  1000000 1200000 0  0 1250000 0  50000 1250000 0  100000 1250000 0  150000 1250000 0  200000 1250000 0  250000 1250000 0  300000 1250000 0  350000 1250000 0  400000 1250000 0  450000 1250000 0  500000 1250000 0  550000 1250000 0  600000 1250000 0  650000 1250000 0  700000 1250000 0  750000 1250000 0  800000 1250000 0  850000 1250000 0  900000 1250000 0  950000 1250000 0  1000000 1250000 0  0 1300000 0  50000 1300000 0  100000 1300000 0  150000 1300000 0  200000 1300000 0  250000 1300000 0  300000 1300000 0  350000 1300000 0  400000 1300000 0  450000 1300000 0  500000 1300000 0  550000 1300000 0  600000 1300000 0  650000 1300000 0  700000 1300000 0  750000 1300000 0  800000 1300000 0  850000 1300000 0  900000 1300000 0  950000 1300000 0  1000000 1300000 0  0 1350000 0  50000 1350000 0  100000 1350000 0  150000 1350000 0  200000 1350000 0  250000 1350000 0  300000 1350000 0  350000 1350000 0  400000 1350000 0  450000 1350000 0  500000 1350000 0  550000 1350000 0  600000 1350000 0  650000 1350000 0  700000 135
[...]
<PointData  Vectors="f_2995"> 
<DataArray  type="Float64"  Name="f_2995"  NumberOfComponents="3" format="ascii">-1.1418536434559556e-10 1.0262410005919336e-10 0.0000000000000000e+00  -1.8363512739396171e-10 8.8839030646756697e-11 0.0000000000000000e+00  -3.0812635830483759e-10 8.1897824373359557e-11 0.0000000000000000e+00  -4.3032851966326757e-10 7.4964282736051529e-11 0.0000000000000000e+00  -5.4454464285064860e-10 6.6417286611073537e-11 0.0000000000000000e+00  -6.4677990136220143e-10 5.6295523076530746e-11 0.0000000000000000e+00  -7.3353371975904950e-10 4.4819531102846119e-11 0.0000000000000000e+00  -8.0183936198027808e-10 3.2255178363184668e-11 0.0000000000000000e+00  -8.4935045816293707e-10 1.8900885586731843e-11 0.0000000000000000e+00  -8.7443004477559163e-10 5.0786618913936639e-12 0.0000000000000000e+00  -8.7621489002388296e-10 -8.8753486892089856e-12 0.0000000000000000e+00  -8.5464942319029039e-10 -2.2620662341818380e-11 0.0000000000000000e+00  -8.1048795091902013e-10 -3.5822367837525787e-11 0.0000000000000000e+00  -7.4526542242120565e-10 -4.8160884617150335e-11 0.0000000000000000e+00  -6.6123971208522723e-10 -5.9341073476532900e-11 0.0000000000000000e+00  -5.6131857297321533e-10 -6.9099245696861147e-11 0.0000000000000000e+00  -4.4903333893244141e-10 -7.7203032602352891e-11 0.0000000000000000e+00  -3.2887173896358536e-10 -8.3421762486984288e-11 0.0000000000000000e+00  -2.0857521775056504e-10 -8.7260773236396217e-11 0.0000000000000000e+00  -1.0956026413572973e-10 -8.5987673293552156e-11 0.0000000000000000e+00  -6.7187541478357422e-11 -6.3028911278021555e-11 0.0000000000000000e+00  -1.0419141663859378e-10 1.6659420978931139e-10 0.0000000000000000e+00  -1.4796657296649077e-10 1.4271135580478700e-10 0.0000000000000000e+00  -2.5737557546418649e-10 1.4042601637319029e-10 0.0000000000000000e+00  -3.7990373018289048e-10 1.3454146771219543e-10 0.0000000000000000e+00  -4.9841444924690169e-10 1.2414891306008991e-10 0.0000000000000000e+00  -6.0702127156713308e-10 1.0946258271191871e-10 0.0000000000000000e+00  -7.0163206066229390e-10 9.0932193380744679e-11 0.0000000000000000e+00  -7.7876324396131105e-10 6.9172230497526094e-11 0.0000000000000000e+00  -8.3557520198411517e-10 4.4923234550214963e-11 0.0000000000000000e+00  -8.6997382829449642e-10 1.9022907574820969e-11 0.0000000000000000e+00  -8.8069060517151641e-10 -7.6256595859962739e-12 0.0000000000000000e+00  -8.6733183939123815e-10 -3.4088556744713603e-11 0.0000000000000000e+00  -8.3039404791596437e-10 -5.9436874149718381e-11 0.0000000000000000e+00  -7.7124491362623963e-10 -8.2782399286145406e-11 0.0000000000000000e+00  -6.9207172653306780e-10 -1.0331165579652479e-10 0.0000000000000000e+00  -5.9580637523603259e-10 -1.2031571331643934e-10 0.0000000000000000e+00  -4.8606827999885771e-10 -1.3320884616595783e-10 0.0000000000000000e+00  -3.6732990073177539e-10 -1.4150784183525108e-10 0.0000000000000000e+00  -2.4630023272010756e-10 -1.4463586669968947e-10 0.0000000000000000e+00  -1.3871075994773700e-10 -1.4050471541138974e-10 0.0000000000000000e+00  -9.2700520228373261e-11 -1.0185521311720311e-10 0.0000000000000000e+00  -1.0657553034716492e-10 2.8245210810280174e-10 0.0000000000000000e+00  -1.4826928276176987e-10 2.5187258819010079e-10 0.0000000000000000e+00  -2.5767750563783823e-10 2.5158755029557469e-10 0.0000000000000000e+00  -3.8075636926359258e-10 2.4376491392930219e-10 0.0000000000000000e+00  -5.0148305719705310e-10 2.2710588068761131e-10 0.0000000000000000e+00  -6.1305703654421486e-10 2.0206452712016684e-10 0.0000000000000000e+00  -7.1077286719147541e-10 1.6952159470498903e-10 0.0000000000000000e+00  -7.9079936605583470e-10 1.3064565921299018e-10 0.0000000000000000e+00  -8.5003377512267075e-10 8.6851551175035411e-11 0.0000000000000000e+00  -8.8618203738859631e-10 3.9747697297473691e-11 0.0000000000000000e+00  -8.9784452954971967e-10 -8.9261043880110464e-12 0.0000000000000000e+00  -8.8457034633163429e-10 -5.7366418876531899e-11 0.0000000000000000e+00  -8.4687498064389367e-10 -1.0377643552757422e-10 0.0000000000000000e+00  -7.8622063655068927e-10 -1.4643609762815535e-10 0.0000000000000000e+00  -7.0496088294672237e-10 -1.8376921936480777e-10 0.0000000000000000e+00  -6.0625812089413678e-10 -2.1440329972333049e-10 0.0000000000000000e+00  -4.9401261849513877e-10 -2.3721249029654692e-10 0.0000000000000000e+00  -3.7299348480546024e-10 -2.5131108553432136e-10 0.0000000000000000e+00  -2.5012126270470590e-10 -2.5581998519183635e-10 0.0000000000000000e+00  -1.4136672045024153e-10 -2.4765678940329483e-10 0.0000000000000000e+00  -9.8739853031641169e-11 -1.9185620029611644e-10 0.0000000000000000e+00  -1.1328385740499350e-10 4.0246769608942564e-10 0.0000000000000000e+00  -1.5346303966342368e-10 3.7616130048688877e-10 0.0000000000000000e+00  -2.6559772318349575e-10 3.7722039721567774e-10 0.0000000000000000e+00  -3.9235829308040764e-10 3.6718676597706115e-10 0.0000000000000000e+00  -5.1714965405803798e-10 3.4358610127458663e-10 0.0000000000000000e+00  -6.3282588039183745e-10 3.0700458081239885e-10 0.0000000000000000e+00  -7.3439018810803621e-10 2.5875494542486252e-10 0.0000000000000000e+00  -8.1770701711415371e-10 2.0062625772919444e-10 0.0000000000000000e+00  -8.7942580207638375e-10 1.3479872190180010e-10 0.0000000000000000e+00  -9.1707108666503650e-10 6.3757209567922569e-11 0.0000000000000000e+00  -9.2913319731271215e-10 -9.8065668754600103e-12 0.0000000000000000e+00  -9.1512701165526176e-10 -8.3099660026119701e-11 0.0000000000000000e+00  -8.7561127392643757e-10 -1.5333708094202045e-10 0.0000000000000000e+00  -8.1216724652029337e-10 -2.1785093457392147e-10 0.0000000000000000e+00  -7.2733810881957196e-10 -2.7419567297172063e-10 0.0000000000000000e+00  -6.2453698685798115e-10 -3.2024424284195559e-10 0.0000000000000000e+00  -5.0796205938516663e-10 -3.5426506769712516e-10 0.0000000000000000e+00  -3.8271381677168692e-10 -3.7494767236998815e-10 0.0000000000000000e+00  -2.5610814588476300e-10 -3.8118745246571215e-10 0.0000000000000000e+00  -1.4489982217529971e-10 -3.6972789067704654e-10 0.0000000000000000e+00  -1.0348835567241053e-10 -3.0404936940971982e-10 0.0000000000000000e+00  -1.2231495756644101e-10 5.2689975078162750e-10 0.0000000000000000e+00  -1.6138830273948464e-10 5.0627541904870435e-10 0.0000000000000000e+00  -2.7809053601495612e-10 5.0987295754053962e-10 0.0000000000000000e+00  -4.1068065301123322e-10 4.9784436725340865e-10 0.0000000000000000e+00  -5.4148513246716097e-10 4.6718585518488506e-10 0.0000000000000000e+00  -6.6294613969048374e-10 4.1861030578526869e-10 0.0000000000000000e+00  -7.6971983970877506e-10 3.5385523203034170e-10 0.0000000000000000e+00  -8.5737148608023357e-10 2.7536301038381200e-10 0.0000000000000000e+00  -9.2229826903349752e-10 1.8613823239272473e-10 0.0000000000000000e+00  -9.6183618687484180e-10 8.9616674302434657e-11 0.0000000000000000e+00  -9.7436213857144352e-10 -1.0474907242885897e-11 0.0000000000000000e+00  -9.5935809347932851e-10 -1.1026678217816227e-10 0.0000000000000000e+00  -9.1743208519225961e-10 -2.0589818511524116e-10 0.0000000000000000e+00  -8.5029521334521343e-10 -2.9366935949104003e-10 0.0000000000000000e+00  -7.6069572210043918e-10 -3.7018966843113132e-10 0.0000000000000000e+00  -6.5231751154026339e-10 -4.3251652411990950e-10 0.0000000000000000e+00  -5.2968277214353186e-10 -4.7827572438670649e-10 0.0000000000000000e+00  -3.9826706611463851e-10 -5.0573255805725115e-10 0.0000000000000000e+00  -2.6589430689678480e-10 -5.1361888051074598e-10 0.0000000000000000e+00  -1.5044583437634039e-10 -4.9871907576478465e-10 0.0000000000000000e+00  -1.0972692558033368e-10 -4.2349614016682745e-10 0.0000000000000000e+00  -1.3359965842372720e-10 6.5700666830135684e-10 0.0000000000000000e+00  -1.7155304857122407e-10 6.4272211607931048e-10 0.0000000000000000e+00  -2.9432108309047325e-10 6.4973036717353272e-10 0.0000000000000000e+00  -4.3465032207038869e-10 6.3594655990497881e-10 0.0000000000000000e+00  -5.7338131657057321e-10 5.9809724716077729e-10 0.0000000000000000e+00  -7.0236163050801966e-10 5.3701129449211893e-10 0.0000000000000000e+00  -8.1582973381911584e-10 4.5487993327131293e-10 0.0000000000000000e+00  -9.0900199023275140e-10 3.5484246944631169e-10 0.0000000000000000e+00  -9.7799226005783129e-10 2.4079003184017647e-10 0.0000000000000000e+00  -1.0199290377296691e-09 1.1718456653895774e-10 0.0000000000000000e+00  -1.0330653843484950e-09 -1.1129059489628492e-11 0.0000000000000000e+00  -1.0168477608888076e-09 -1.3911754703400575e-10 0.0000000000000000e+00  -9.7193864154787226e-10 -2.6175718012183557e-10 0.0000000000000000e+00  -9.0019242194939245e-10 -3.7423214563444810e-10 0.0000000000000000e+00  -8.0458546331758295e-10 -4.7212962419354449e-10 0.0000000000000000e+00  -6.8910741714462060e-10 -5.5162682368351001e-10 0.0000000000000000e+00  -5.5865636963872594e-10 -6.0966077584526679e-10 0.0000000000000000e+00  -4.1916549910927230e-10 -6.4404898185307138e-10 0.0000000000000000e+00  -2.7912390176044690e-10 -6.5335323821341011e-10 0.0000000000000000e+00  -1.5792610522955064e-10 -6.3437772831562872e-10 0.0000000000000000e+00  -1.1790615149462132e-10 -5.4826601272109264e-10 0.0000000000000000e+00  -1.4726776492291506e-10 7.9390651525232575e-10 0.0000000000000000e+00  -1.8370713760675727e-10 7.8701681277086862e-10 0.0000000000000000e+00  -3.1380304246609035e-10 7.9829521232441721e-10 0.0000000000000000e+00  -4.6358366860815476e-10 7.8307835030008824e-10 0.0000000000000000e+00  -6.1202439622673041e-10 7.3782658978051593e-10 0.0000000000000000e+00  -7.5020137958384636e-10 6.6355172954847385e-10 0.0000000000000000e+00  -8.7183150110793764e-10 5.6294840701099935e-10 0.0000000000000000e+00  -9.7171467065482395e-10 4.3991770320538780e-10 0.0000000000000000e+00  -1.0456378941975564e-09 2.9931487944243534e-10 0.0000000000000000e+00  -1.0904951520578362e-09 1.4671449951297189e-10 0.0000000000000000e+00  -1.1044012503185415e-09 -1.1828646473630678e-11 0.0000000000000000e+00  -1.0867629011504614e-09 -1.7002320923956863e-10 0.0000000000000000e+00  -1.0383023057532870e-09 -3.2158746372565827e-10 0.0000000000000000e+00  -9.6103297387532311e-10 -4.6049605974525871e-10 0.0000000000000000e+00  -8.5818825051378853e-10 -5.8122497168857693e-10 0.0000000000000000e+00  -7.3410948937211115e-10 -6.7899044248599522e-10 0.0000000000000000e+00  -5.9413995474420513e-10 -7.4997215499299671e-10 0.0000000000000000e+00  -4.4477509661752435e-10 -7.9148493751023787e-10 0.0000000000000000e+00  -2.9534450320276451e-10 -8.0187426345854812e-10 0.0000000000000000e+00  -1.6714648790672156e-10 -7.7790307637695723e-10 0.0000000000000000e+00  -1.2818924045748361e-10 -6.7904481848417646e-10 0.0000000000000000e+00  -1.6348063980085647e-10 9.3847172512178714e-10 0.0000000000000000e+00  -1.9763553938816990e-10 9.4051246953074802e-10 0.0000000000000000e+00  -3.3605995191944693e-10 9.5715017582303561e-10 0.0000000000000000e+00  -4.9678589614411798e-10 9.4091467926884862e-10 0.0000000000000000e+00  -6.5653449965963999e-10 8.8802032731817501e-10 0.0000000000000000e+00  -8.0543831638182310e-10 7.9973562257274388e-10 0.0000000000000000e+00  -9.3658473305214619e-10 6.7934018953862809e-10 0.0000000000000000e+00  -1.0442850224362304e-09 5.3158792163637817e-10 0.0000000000000000e+00  -1.1239524019903134e-09 3.6239573833289901e-10 0.0000000000000000e+00  -1.1722182077739209e-09 1.7855220931218845e-10 0.0000000000000000e+00  -1.1870442470414605e-09 -1.2574828866860093e-11 0.0000000000000000e+00  -1.1677927582057289e-09 -2.0333196042427229e-10 0.0000000000000000e+00  -1.1152499890024098e-09 -3.8607460360055581e-10 0.0000000000000000e+00  -1.0316034172919657e-09 -5.5346238719887411e-10 0.0000000000000000e+00  -9.2037244182366680e-10 -6.9875517489680724e-10 0.0000000000000000e+00  -7.8629873378752053e-10 -8.1610659857683766e-10 0.0000000000000000e+00  -6.3524554223134166e-10 -9.0084441429332273e-10 0.0000000000000000e+00  -4.7438183676155378e-10 -9.4969714538139079e-10 0.0000000000000000e+00  -3.1405737619300056e-10 -9.6072403679215302e-10 0.0000000000000000e+00  -1.7787311000342342e-10 -9.3058382597044714e-10 0.0000000000000000e+00  -1.4071590877390250e-10 -8.1680279937081104e-10 0.0000000000000000e+00  -1.8241995663450686e-10 1.0912399899905819e-09 0.0000000000000000e+00  -2.1307622398467885e-10 1.1042903014335799e-09 0.0000000000000000e+00  -3.6051081651158989e-10 1.1276617116878155e-09 0.0000000000000000e+00  -5.3339607152840282e-10 1.1109511585307382e-09 0.0000000000000000e+00  -7.0579154051927011e-10 1.0501738410317821e-09 0.0000000000000000e+00  -8.6671653993017073e-10 9.4694579128763689e-10 0.0000000000000000e+00  -1.0085271782941098e-09 8.0524234104438468e-10 0.0000000000000000e+00  -1.1249803298349431e-09 6.3078794573777097e-10 0.0000000000000000e+00  -1.2110755280181487e-09 4.3068027795501825e-10 0.0000000000000000e+00  -1.2631596509043579e-09 2.1303861407545700e-10 0.0000000000000000e+00  -1.2790309792533894e-09 -1.3342674366134145e-11 0.0000000000000000e+00  -1.2580034707487092e-09 -2.3933627773799551e-10 0.0000000000000000e+00  -1.2009289987092736e-09 -4.5582175960853152e-10 0.0000000000000000e+00  -1.1101781588596381e-09 -6.5402695174848158e-10 0.0000000000000000e+00  -9.8957834305928599e-10 -8.2587416175381737e-10 0.0000000000000000e+00  -8.4431342351057436e-10 -9.6433017157871830e-10 0.0000000000000000e+00  -6.8083646145398452e-10 -1.0637487835658829e-09 0.0000000000000000e+00  -5.0709849579932577e-10 -1.1201603473146571e-09 0.0000000000000000e+00  -3.3465042372240068e-10 -1.1312467674232419e-09 0.0000000000000000e+00  -1.8981227727084649e-10 -1.0935001642069323e-09 0.0000000000000000e+00  -1.5563300756987085e-10 -9.6232736022554460e-10 0.0000000000000000e+00  -2.0428554297346882e-10 1.2523164330257720e-09 0.0000000000000000e+00  -2.2967868244182341e-10 1.2790802717134848e-09 0.0000000000000000e+00  -3.8639073891976394e-10 1.3108730532095493e-09 0.0000000000000000e+00  -5.7227164483387279e-10 1.2943819516208669e-09 0.0000000000000000e+00  -7.5828943685189882e-10 1.2254993055348141e-09 0.0000000000000000e+00  -9.3218317539282121e-10 1.1063080375014565e-09 0.0000000000000000e+00  -1.0854884937883080e-09 9.4162052971093035e-10 0.0000000000000000e+00  -1.2113587896016563e-09 7.3827796780917132e-10 0.0000000000000000e+00  -1.3043574539052548e-09 5.0469909255108395e-10 0.0000000000000000e+00  -1.3605401119483596e-09 2.5046350765420083e-10 0.0000000000000000e+00  -1.3775407626787252e-09 -1.4088360504081696e-11 0.0000000000000000e+00  -1.3546238741437932e-09 -2.7824109615473745e-10 0.0000000000000000e+00  -1.2927034321345824e-09 -5.3128253931377075e-10 0.0000000000000000e+00  -1.1943305714636221e-09 -7.6288456968602845e-10 0.0000000000000000e+00  -1.0636466559091625e-09 -9.6349567211642698e-10 0.0000000000000000e+00  -9.0630263794275584e-10 -1.1247483108337166e-09 0.0000000000000000e+00  -7.2939644758187230e-10 -1.2398703530613184e-09 0.0000000000000000e+00  -5.4176031016050244e-10 -1.3040500761533907e-09 0.0000000000000000e+00  -3.5632770423988426e-10 -1.3144745057160837e-09 0.0000000000000000e+00  -2.0257857423840747e-10 -1.2674018505369897e-09 0.0000000000000000e+00  -1.7310027326998063e-10 -1.1160746579195919e-09 0.0000000000000000e+00  -2.2929456376812260e-10 1.4212458175007681e-09 0.0000000000000000e+00  -2.4696834028206257e-10 1.4651488143699012e-09 0.0000000000000000e+00  -4.1267651944606374e-10 1.5073901085692844e-09 0.0000000000000000e+00  -6.1187378627409170e-10 1.4919752341908075e-09 0.0000000000000000e+00  -8.1198096311181485e-10 1.4147947867133056e-09 0.0000000000000000e+00  -9.9929516621130894e-10 1.2785576113950187e-09 0.0000000000000000e+00  -1.1644627689829585e-09 1.0890927879769636e-09 0.0000000000000000e+00  -1.3000127391971031e-09 8.5453597780749596e-10 0.0000000000000000e+00  -1.4000795828825826e-09 5.8478757958389421e-10 0.0000000000000000e+00  -1.4604464695266462e-09 2.9102504242381079e-10 0.0000000000000000e+00  -1.4785990291380700e-09 -1.4747855507596178e-11 0.0000000000000000e+00  -1.4537556855661785e-09 -3.2012094596064548e-10 0.0000000000000000e+00  -1.3868808242673892e-09 -6.1268133398253016e-10 0.0000000000000000e+00  -1.2806840697755126e-09 -8.8042101084218794e-10 0.0000000000000000e+00  -1.1395997293972264e-09 -1.1121675328657814e-09 0.0000000000000000e+00  -9.6974137877132613e-10 -1.2980479675144804e-09 0.0000000000000000e+00  -7.7888097820068863e-10 -1.4299776379298166e-09 0.0000000000000000e+00  -5.7681426154969977e-10 -1.5021185606797975e-09 0.0000000000000000e+00  -3.7803751744368086e-10 -1.5110083143134126e-09 0.0000000000000000e+00  -2.1566056664536465e-10 -1.4525903185543917e-09 0.0000000000000000e+00  -1.9329091873393716e-10 -1.2780546639222099e-09 0.0000000000000000e+00  -2.5768174684828126e-10 1.5968486791585228e-09 0.0000000000000000e+00  -2.6430867303034149e-10 1.6621490351301060e-09 0.0000000000000000e+00  -4.3800609862127579e-10 1.7172276416944593e-09 0.0000000000000000e+00  -6.5013903786576447e-10 1.7039104220284569e-09 0.0000000000000000e+00  -8.6409784289296218e-10 1.6182739570635887e-09 0.0000000000000000e+00  -1.0645867607461678e-09 1.4638683423773461e-09 0.0000000000000000e+00  -1.2413258678183894e-09 1.2477694740591176e-09 0.0000000000000000e+00  -1.3862420347391801e-09 9.7962241928380159e-10 0.0000000000000000e+00  -1.4930938386305760e-09 6.7098863808028039e-10 0.0000000000000000e+00  -1.5574500829149584e-09 3.3478074261373532e-10 0.0000000000000000e+00  -1.5766895344779119e-09 -1.5232213248651015e-11 0.0000000000000000e+00  -1.5499952715951618e-09 -3.6486199488687009e-10 0.0000000000000000e+00  -1.4783579969812435e-09 -6.9990829433533326e-10 0.0000000000000000e+00  -1.3645940600406533e-09 -1.0065717846867390e-09 0.0000000000000000e+00  -1.2133681327130183e-09 -1.2719078619974234e-09 0.0000000000000000e+00  -1.0312064515830937e-09 -1.4843432314662680e-09 0.0000000000000000e+00  -8.2654364466740342e-10 -1.6342520583211121e-09 0.0000000000000000e+00  -6.1019437630775010e-10 -1.7145324423231535e-09 0.0000000000000000e+00  -3.9839319231529968e-10 -1.7208647870401995e-09 0.0000000000000000e+00  -2.2838276656349637e-10 -1.6487711183156617e-09 0.0000000000000000e+00  -2.1639111339991802e-10 -1.4476953184188297e-09 0.0000000000000000e+00  -2.8970141007465172e-10 1.7770159510419503e-09 0.0000000000000000e+00  -2.8085861265598364e-10 1.8689280026781294e-09 0.0000000000000000e+00  -4.6058610041627265e-10 1.9396067590529875e-09 0.0000000000000000e+00  -6.8432896883279927e-10 1.9295613749362187e-09 0.0000000000000000e+00  -9.1093521239010625e-10 1.8353380167059115e-09 0.0000000000000000e+00  -1.1233848906420878e-09 1.6616236145355385e-09 0.0000000000000000e+00  -1.3104831222273840e-09 1.4170391486970055e-09 0.0000000000000000e+00  -1.4636415011642511e-09 1.1129995168650253e-09 0.0000000000000000e+00  -1.5763630731660025e-09 7.6292311207676585e-10 0.0000000000000000e+00  -1.6441179876280253e-09 3.8158262641730315e-10 0.0000000000000000e+00  -1.6642570495648806e-09 -1.5420670165397367e-11 0.0000000000000000e+00  -1.6359493212454252e-09 -4.1208393237823346e-10 0.0000000000000000e+00  -1.5601697759540649e-09 -7.9237819913152348e-10 0.0000000000000000e+00  -1.4397462810737372e-09 -1.1406324968905228e-09 0.0000000000000000e+00  -1.2794501044277706e-09 -1.4419852039549488e-09 0.0000000000000000e+00  -1.0861025649291972e-09 -1.6829439136720419e-09 0.0000000000000000e+00  -8.6872867559531594e-10 -1.8520603666337499e-09 0.0000000000000000e+00  -6.3917592898017990e-10 -1.9406582712702344e-09 0.0000000000000000e+00  -4.1558182956830634e-10 -1.9432765898756965e-09 0.0000000000000000e+00  -2.3986199243678812e-10 -1.8548662203607874e-09 0.0000000000000000e+00  -2.4259969809341427e-10 -1.6236723409993108e-09 0.0000000000000000e+00  -3.2563281327150945e-10 1.9584551840197995e-09 0.0000000000000000e+00  -2.9552411993830084e-10 2.0832840105703097e-09 0.0000000000000000e+00  -4.7808377207068362e-10 2.1726942339757558e-09 0.0000000000000000e+00  -7.1085098875944068e-10 2.1672119079929753e-09 0.0000000000000000e+00  -9.4758997161248366e-10 2.0642725642816947e-09 0.0000000000000000e+00  -1.1694