<?xml version="1.0"?>
<VTKFile type="UnstructuredGrid"  version="0.1"  >
<UnstructuredGrid>
<Piece  NumberOfPoints="651" NumberOfCells="1200">
<Points>
<DataArray  type="Float64"  NumberOfComponents="3"  format="ascii">0 0 0  50000 0 0  100000 0 0  150000 0 0  200000 0 0  250000 0 0  300000 0 0  350000 0 0  400000 0 0  450000 0 0  500000 0 0  550000 0 0  600000 0 0  650000 0 0  700000 0 0  750000 0 0  800000 0 0  850000 0 0  900000 0 0  950000 0 0  1000000 0 0  0 50000 0  50000 50000 0  100000 50000 0  150000 50000 0  200000 50000 0  250000 50000 0  300000 50000 0  350000 50000 0  400000 50000 0  450000 50000 0  500000 50000 0  550000 50000 0  600000 50000 0  650000 50000 0  700000 50000 0  750000 50000 0  800000 50000 0  850000 50000 0  900000 50000 0  950000 50000 0  1000000 50000 0  0 100000 0  50000 100000 0  100000 100000 0  150000 100000 0  200000 100000 0  250000 100000 0  300000 100000 0  350000 100000 0  400000 100000 0  450000 100000 0  500000 100000 0  550000 100000 0  600000 100000 0  650000 100000 0  700000 100000 0  750000 100000 0  800000 100000 0  850000 100000 0  900000 100000 0  950000 100000 0  1000000 100000 0  0 150000 0  50000 150000 0  100000 150000 0  150000 150000 0  200000 150000 0  250000 150000 0  300000 150000 0  350000 150000 0  400000 150000 0  450000 150000 0  500000 150000 0  550000 150000 0  600000 150000 0  650000 150000 0  700000 150000 0  750000 150000 0  800000 150000 0  850000 150000 0  900000 150000 0  950000 150000 0  1000000 150000 0  0 200000 0  50000 200000 0  100000 200000 0  150000 200000 0  200000 200000 0  250000 200000 0  300000 200000 0  350000 200000 0  400000 200000 0  450000 200000 0  500000 200000 0  550000 200000 0  600000 200000 0  650000 200000 0  700000 200000 0  750000 200000 0  800000 200000 0  850000 200000 0  900000 200000 0  950000 200000 0  1000000 200000 0  0 250000 0  50000 250000 0  100000 250000 0  150000 250000 0  200000 250000 0  250000 250000 0  300000 250000 0  350000 250000 0  400000 250000 0  450000 250000 0  500000 250000 0  550000 250000 0  600000 250000 0  650000 250000 0  700000 250000 0  750000 250000 0  800000 250000 0  850000 250000 0  900000 250000 0  950000 250000 0  1000000 250000 0  0 300000 0  50000 300000 0  100000 300000 0  150000 300000 0  200000 300000 0  250000 300000 0  300000 300000 0  350000 300000 0  400000 300000 0  450000 300000 0  500000 300000 0  550000 300000 0  600000 300000 0  650000 300000 0  700000 300000 0  750000 300000 0  800000 300000 0  850000 300000 0  900000 300000 0  950000 300000 0  1000000 300000 0  0 350000 0  50000 350000 0  100000 350000 0  150000 350000 0  200000 350000 0  250000 350000 0  300000 350000 0  350000 350000 0  400000 350000 0  450000 350000 0  500000 350000 0  550000 350000 0  600000 350000 0  650000 350000 0  700000 350000 0  750000 350000 0  800000 350000 0  850000 350000 0  900000 350000 0  950000 350000 0  1000000 350000 0  0 400000 0  50000 400000 0  100000 400000 0  150000 400000 0  200000 400000 0  250000 400000 0  300000 400000 0  350000 400000 0  400000 400000 0  450000 400000 0  500000 400000 0  550000 400000 0  600000 400000 0  650000 400000 0  700000 400000 0  750000 400000 0  800000 400000 0  850000 400000 0  900000 400000 0  950000 400000 0  1000000 400000 0  0 450000 0  50000 450000 0  100000 450000 0  150000 450000 0  200000 450000 0  250000 450000 0  300000 450000 0  350000 450000 0  400000 450000 0  450000 450000 0  500000 450000 0  550000 450000 0  600000 450000 0  650000 450000 0  700000 450000 0  750000 450000 0  800000 450000 0  850000 450000 0  900000 450000 0  950000 450000 0  1000000 450000 0  0 500000 0  50000 500000 0  100000 500000 0  150000 500000 0  200000 500000 0  250000 500000 0  300000 500000 0  350000 500000 0  400000 500000 0  450000 500000 0  500000 500000 0  550000 500000 0  600000 500000 0  650000 500000 0  700000 500000 0  750000 500000 0  800000 500000 0  850000 500000 0  900000 500000 0  950000 500000 0  1000000 500000 0  0 550000 0  50000 550000 0  100000 550000 0  150000 550000 0  200000 550000 0  250000 550000 0  300000 550000 0  350000 550000 0  400000 550000 0  450000 550000 0  500000 550000 0  550000 550000 0  600000 550000 0  650000 550000 0  700000 550000 0  750000 550000 0  800000 550000 0  850000 550000 0  900000 550000 0  950000 550000 0  1000000 550000 0  0 600000 0  50000 600000 0  100000 600000 0  150000 600000 0  200000 600000 0  250000 600000 0  300000 600000 0  350000 600000 0  400000 600000 0  450000 600000 0  500000 600000 0  550000 600000 0  600000 600000 0  650000 600000 0  700000 600000 0  750000 600000 0  800000 600000 0  850000 600000 0  900000 600000 0  950000 600000 0  1000000 600000 0  0 650000 0  50000 650000 0  100000 650000 0  150000 650000 0  200000 650000 0  250000 650000 0  300000 650000 0  350000 650000 0  400000 650000 0  450000 650000 0  500000 650000 0  550000 650000 0  600000 650000 0  650000 650000 0  700000 650000 0  750000 650000 0  800000 650000 0  850000 650000 0  900000 650000 0  950000 650000 0  1000000 650000 0  0 700000 0  50000 700000 0  100000 700000 0  150000 700000 0  200000 700000 0  250000 700000 0  300000 700000 0  350000 700000 0  400000 700000 0  450000 700000 0  500000 700000 0  550000 700000 0  600000 700000 0  650000 700000 0  700000 700000 0  750000 700000 0  800000 700000 0  850000 700000 0  900000 700000 0  950000 700000 0  1000000 700000 0  0 750000 0  50000 750000 0  100000 750000 0  150000 750000 0  200000 750000 0  250000 750000 0  300000 750000 0  350000 750000 0  400000 750000 0  450000 750000 0  500000 750000 0  550000 750000 0  600000 750000 0  650000 750000 0  700000 750000 0  750000 750000 0  800000 750000 0  850000 750000 0  900000 750000 0  950000 750000 0  1000000 750000 0  0 800000 0  50000 800000 0  100000 800000 0  150000 800000 0  200000 800000 0  250000 800000 0  300000 800000 0  350000 800000 0  400000 800000 0  450000 800000 0  500000 800000 0  550000 800000 0  600000 800000 0  650000 800000 0  700000 800000 0  750000 800000 0  800000 800000 0  850000 800000 0  900000 800000 0  950000 800000 0  1000000 800000 0  0 850000 0  50000 850000 0  100000 850000 0  150000 850000 0  200000 850000 0  250000 850000 0  300000 850000 0  350000 850000 0  400000 850000 0  450000 850000 0  500000 850000 0  550000 850000 0  600000 850000 0  650000 850000 0  700000 850000 0  750000 850000 0  800000 850000 0  850000 850000 0  900000 850000 0  950000 850000 0  1000000 850000 0  0 900000 0  50000 900000 0  100000 900000 0  150000 900000 0  200000 900000 0  250000 900000 0  300000 900000 0  350000 900000 0  400000 900000 0  450000 900000 0  500000 900000 0  550000 900000 0  600000 900000 0  650000 900000 0  700000 900000 0  750000 900000 0  800000 900000 0  850000 900000 0  900000 900000 0  950000 900000 0  1000000 900000 0  0 950000 0  50000 950000 0  100000 950000 0  150000 950000 0  200000 950000 0  250000 950000 0  300000 950000 0  350000 950000 0  400000 950000 0  450000 950000 0  500000 950000 0  550000 950000 0  600000 950000 0  650000 950000 0  700000 950000 0  750000 950000 0  800000 950000 0  850000 950000 0  900000 950000 0  950000 950000 0  1000000 950000 0  0 1000000 0  50000 1000000 0  100000 1000000 0  150000 1000000 0  200000 1000000 0  250000 1000000 0  300000 1000000 0  350000 1000000 0  400000 1000000 0  450000 1000000 0  500000 1000000 0  550000 1000000 0  600000 1000000 0  650000 1000000 0  700000 1000000 0  750000 1000000 0  800000 1000000 0  850000 1000000 0  900000 1000000 0  950000 1000000 0  1000000 1000000 0  0 1050000 0  50000 1050000 0  100000 1050000 0  150000 1050000 0  200000 1050000 0  250000 1050000 0  300000 1050000 0  350000 1050000 0  400000 1050000 0  450000 1050000 0  500000 1050000 0  550000 1050000 0  600000 1050000 0  650000 1050000 0  700000 1050000 0  750000 1050000 0  800000 1050000 0  850000 1050000 0  900000 1050000 0  950000 1050000 0  1000000 1050000 0  0 1100000 0  50000 1100000 0  100000 1100000 0  150000 1100000 0  200000 1100000 0  250000 1100000 0  300000 1100000 0  350000 1100000 0  400000 1100000 0  450000 1100000 0  500000 1100000 0  550000 1100000 0  600000 1100000 0  650000 1100000 0  700000 1100000 0  750000 1100000 0  800000 1100000 0  850000 1100000 0  900000 1100000 0  950000 1100000 0  1000000 1100000 0  0 1150000 0  50000 1150000 0  100000 1150000 0  150000 1150000 0  200000 1150000 0  250000 1150000 0  300000 1150000 0  350000 1150000 0  400000 1150000 0  450000 1150000 0  500000 1150000 0  550000 1150000 0  600000 1150000 0  650000 1150000 0  700000 1150000 0  750000 1150000 0  800000 1150000 0  850000 1150000 0  900000 1150000 0  950000 1150000 0  1000000 1150000 0  0 1200000 0  50000 1200000 0  100000 1200000 0  150000 1200000 0  200000 1200000 0  250000 1200000 0  300000 1200000 0  350000 1200000 0  400000 1200000 0  450000 1200000 0  500000 1200000 0  550000 1200000 0  600000 1200000 0  650000 1200000 0  700000 1200000 0  750000 1200000 0  800000 1200000 0  850000 1200000 0  900000 1200000 0  950000 1200000 0  1000000 1200000 0  0 1250000 0  50000 1250000 0  100000 1250000 0  150000 1250000 0  200000 1250000 0  250000 1250000 0  300000 1250000 0  350000 1250000 0  400000 1250000 0  450000 1250000 0  500000 1250000 0  550000 1250000 0  600000 1250000 0  650000 1250000 0  700000 1250000 0  750000 1250000 0  800000 1250000 0  850000 1250000 0  900000 1250000 0  950000 1250000 0  1000000 1250000 0  0 1300000 0  50000 1300000 0  100000 1300000 0  150000 1300000 0  200000 1300000 0  250000 1300000 0  300000 1300000 0  350000 1300000 0  400000 1300000 0  450000 1300000 0  500000 1300000 0  550000 1300000 0  600000 1300000 0  650000 1300000 0  700000 1300000 0  750000 1300000 0  800000 1300000 0  850000 1300000 0  900000 1300000 0  950000 1300000 0  1000000 1300000 0  0 1350000 0  50000 1350000 0  100000 1350000 0  150000 1350000 0  200000 1350000 0  250000 1350000 0  300000 1350000 0  350000 1350000 0  400000 1350000 0  450000 1350000 0  500000 1350000 0  550000 1350000 0  600000 1350000 0  650000 1350000 0  700000 135
[...]
<PointData  Vectors="f_2995"> 
<DataArray  type="Float64"  Name="f_2995"  NumberOfComponents="3" format="ascii">-1.6321747711032334e-10 1.4716201418472295e-10 0.0000000000000000e+00  -3.0007008338122873e-10 1.2105731533838638e-10 0.0000000000000000e+00  -5.4307000240627085e-10 1.1045187871925797e-10 0.0000000000000000e+00  -7.7777103034609354e-10 1.0109630467367412e-10 0.0000000000000000e+00  -9.9263935638625660e-10 9.0049806151683178e-11 0.0000000000000000e+00  -1.1814205870586853e-09 7.7041156875974350e-11 0.0000000000000000e+00  -1.3390311258945193e-09 6.2224733044267144e-11 0.0000000000000000e+00  -1.4613585575364072e-09 4.5899324065527874e-11 0.0000000000000000e+00  -1.5452581755626656e-09 2.8444716268026444e-11 0.0000000000000000e+00  -1.5886092252230361e-09 1.0288279342102441e-11 0.0000000000000000e+00  -1.5903608282151594e-09 -8.1168973111752157e-12 0.0000000000000000e+00  -1.5505541158011515e-09 -2.6308964048706159e-11 0.0000000000000000e+00  -1.4703181657203005e-09 -4.3832398111715091e-11 0.0000000000000000e+00  -1.3518398111038721e-09 -6.0252789393965446e-11 0.0000000000000000e+00  -1.1983127282607588e-09 -7.5173392845478472e-11 0.0000000000000000e+00  -1.0138989098872940e-09 -8.8260433921403617e-11 0.0000000000000000e+00  -8.0387621626255970e-10 -9.9303160368154888e-11 0.0000000000000000e+00  -5.7576779232027413e-10 -1.0838118349462941e-10 0.0000000000000000e+00  -3.4468058248694782e-10 -1.1570158852932132e-10 0.0000000000000000e+00  -1.5598438342211899e-10 -1.1227835913851650e-10 0.0000000000000000e+00  -7.6542622528123779e-11 -7.0884679732460934e-11 0.0000000000000000e+00  -1.3878456743151078e-10 2.7321744583707794e-10 0.0000000000000000e+00  -2.4876163816912763e-10 2.4479148871288780e-10 0.0000000000000000e+00  -4.4087136800910613e-10 2.5078970408891091e-10 0.0000000000000000e+00  -6.5374935016576911e-10 2.3848476359447576e-10 0.0000000000000000e+00  -8.5648455830533395e-10 2.1699722621998828e-10 0.0000000000000000e+00  -1.0388351412531620e-09 1.8882067231684916e-10 0.0000000000000000e+00  -1.1949362186181068e-09 1.5531731487233974e-10 0.0000000000000000e+00  -1.3203106103777802e-09 1.1760760620651967e-10 0.0000000000000000e+00  -1.4115243849951290e-09 7.6787849960235877e-11 0.0000000000000000e+00  -1.4661540925389945e-09 3.3982273403201043e-11 0.0000000000000000e+00  -1.4827975496338993e-09 -9.6568654927692270e-12 0.0000000000000000e+00  -1.4610870733226529e-09 -5.2965942661192576e-11 0.0000000000000000e+00  -1.4016912177164705e-09 -9.4791621206692727e-11 0.0000000000000000e+00  -1.3063015799332260e-09 -1.3401241553501545e-10 0.0000000000000000e+00  -1.1776098044764944e-09 -1.6955569031130096e-10 0.0000000000000000e+00  -1.0192984652789711e-09 -2.0040173541115447e-10 0.0000000000000000e+00  -8.3613688999503968e-10 -2.2554678306120074e-10 0.0000000000000000e+00  -6.3456099594811009e-10 -2.4377189195999088e-10 0.0000000000000000e+00  -4.2535500701542835e-10 -2.5225168709626245e-10 0.0000000000000000e+00  -2.3528477955574873e-10 -2.4021072738287632e-10 0.0000000000000000e+00  -1.2184685498797605e-10 -1.4445645745873374e-10 0.0000000000000000e+00  -1.3565191014231443e-10 4.9709180125319004e-10 0.0000000000000000e+00  -2.5390251342307121e-10 4.3465940127733384e-10 0.0000000000000000e+00  -4.3720806094523761e-10 4.3736875095400113e-10 0.0000000000000000e+00  -6.3287673522168102e-10 4.1802077127255160e-10 0.0000000000000000e+00  -8.2004011611151494e-10 3.8238359701758287e-10 0.0000000000000000e+00  -9.8941021156928849e-10 3.3425685129552285e-10 0.0000000000000000e+00  -1.1348634338426106e-09 2.7625533176581587e-10 0.0000000000000000e+00  -1.2519192717162616e-09 2.1052691566567528e-10 0.0000000000000000e+00  -1.3372151547562759e-09 1.3910492208856310e-10 0.0000000000000000e+00  -1.3883975660439200e-09 6.4028966810077809e-11 0.0000000000000000e+00  -1.4041095638612399e-09 -1.2632221956010738e-11 0.0000000000000000e+00  -1.3839924281783018e-09 -8.8796369262740968e-11 0.0000000000000000e+00  -1.3286831063127574e-09 -1.6239629117715426e-10 0.0000000000000000e+00  -1.2398032284127778e-09 -2.3140859631337905e-10 0.0000000000000000e+00  -1.1199438208315264e-09 -2.9387035590865425e-10 0.0000000000000000e+00  -9.7266575753503222e-10 -3.4786213129541959e-10 0.0000000000000000e+00  -8.0258747071720045e-10 -3.9140323396514649e-10 0.0000000000000000e+00  -6.1582616889789746e-10 -4.2211038720347082e-10 0.0000000000000000e+00  -4.2179579996415344e-10 -4.3621802308236431e-10 0.0000000000000000e+00  -2.4205851987960708e-10 -4.2688041163669347e-10 0.0000000000000000e+00  -1.2935097931348837e-10 -3.1696638093984545e-10 0.0000000000000000e+00  -1.3988298354738683e-10 7.1760859436738696e-10 0.0000000000000000e+00  -2.5305968350391906e-10 6.4323006951631489e-10 0.0000000000000000e+00  -4.3338887887911833e-10 6.3438089899736478e-10 0.0000000000000000e+00  -6.2260899533840854e-10 6.0433898054125458e-10 0.0000000000000000e+00  -8.0145924900997928e-10 5.5335888274715503e-10 0.0000000000000000e+00  -9.6254545403745549e-10 4.8474336557600952e-10 0.0000000000000000e+00  -1.1006981699731874e-09 4.0172806315319519e-10 0.0000000000000000e+00  -1.2117860014237972e-09 3.0733559617691228e-10 0.0000000000000000e+00  -1.2926179838283771e-09 2.0452761212480042e-10 0.0000000000000000e+00  -1.3409451405224000e-09 9.6288249159583886e-11 0.0000000000000000e+00  -1.3554711113813598e-09 -1.4359891804922985e-11 0.0000000000000000e+00  -1.3358590897144662e-09 -1.2437760111860585e-10 0.0000000000000000e+00  -1.2827292368607417e-09 -2.3074680314533693e-10 0.0000000000000000e+00  -1.1976448014074365e-09 -3.3050955142188004e-10 0.0000000000000000e+00  -1.0830879514328590e-09 -4.2079513041915786e-10 0.0000000000000000e+00  -9.4243339814049516e-10 -4.9881818249535772e-10 0.0000000000000000e+00  -7.7995885270116947e-10 -5.6182450357834302e-10 0.0000000000000000e+00  -6.0108527677167837e-10 -6.0697432479181679e-10 0.0000000000000000e+00  -4.1382142292802342e-10 -6.3118458083371805e-10 0.0000000000000000e+00  -2.3817836994877697e-10 -6.3079903961325511e-10 0.0000000000000000e+00  -1.3096297812665974e-10 -5.2685513177141514e-10 0.0000000000000000e+00  -1.4810051511092074e-10 9.3352706110351758e-10 0.0000000000000000e+00  -2.5344970036307459e-10 8.5251569760800423e-10 0.0000000000000000e+00  -4.3177701077852637e-10 8.3216452900924614e-10 0.0000000000000000e+00  -6.1888998377749411e-10 7.8917485415627360e-10 0.0000000000000000e+00  -7.9450434103758899e-10 7.2181528222870039e-10 0.0000000000000000e+00  -9.5170558877182706e-10 6.3257722077929474e-10 0.0000000000000000e+00  -1.0859717823783494e-09 5.2487984416301449e-10 0.0000000000000000e+00  -1.1936201684168584e-09 4.0237518193230466e-10 0.0000000000000000e+00  -1.2717163424214156e-09 2.6883600256749215e-10 0.0000000000000000e+00  -1.3181554934341523e-09 1.2813384136128790e-10 0.0000000000000000e+00  -1.3317195413723653e-09 -1.5788632012630159e-11 0.0000000000000000e+00  -1.3121023233306815e-09 -1.5896220218685085e-10 0.0000000000000000e+00  -1.2599118620412318e-09 -2.9744625029437862e-10 0.0000000000000000e+00  -1.1766532072128086e-09 -4.2738625685225703e-10 0.0000000000000000e+00  -1.0646917358998463e-09 -5.4506660459335412e-10 0.0000000000000000e+00  -9.2719979464927674e-10 -6.4695504546697423e-10 0.0000000000000000e+00  -7.6812400512336746e-10 -7.2974854448891914e-10 0.0000000000000000e+00  -5.9241048622168984e-10 -7.9046999937956621e-10 0.0000000000000000e+00  -4.0771728848788441e-10 -8.2661583524829288e-10 0.0000000000000000e+00  -2.3507773854902930e-10 -8.3558404997079181e-10 0.0000000000000000e+00  -1.3631020125270166e-10 -7.3880130304122627e-10 0.0000000000000000e+00  -1.5959488863525759e-10 1.1475062262354283e-09 0.0000000000000000e+00  -2.5656266391532651e-10 1.0612451498006391e-09 0.0000000000000000e+00  -4.3386361501830185e-10 1.0304818132506380e-09 0.0000000000000000e+00  -6.2118665783298213e-10 9.7370083786391782e-10 0.0000000000000000e+00  -7.9664333888836794e-10 8.8905744180813152e-10 0.0000000000000000e+00  -9.5305953913849019e-10 7.7873941152943420e-10 0.0000000000000000e+00  -1.0861228038831684e-09 6.4630322806136497e-10 0.0000000000000000e+00  -1.1924310335434480e-09 4.9589638090656608e-10 0.0000000000000000e+00  -1.2692701186532879e-09 3.3199814615951831e-10 0.0000000000000000e+00  -1.3146816521850943e-09 1.5929707596754394e-10 0.0000000000000000e+00  -1.3275336867600156e-09 -1.7394085569973748e-11 0.0000000000000000e+00  -1.3075579882657101e-09 -1.9321751140795539e-10 0.0000000000000000e+00  -1.2553576767003117e-09 -3.6335103457914917e-10 0.0000000000000000e+00  -1.1723897763646183e-09 -5.2309129778314893e-10 0.0000000000000000e+00  -1.0609238333456430e-09 -6.6794009827228885e-10 0.0000000000000000e+00  -9.2398349473834748e-10 -7.9369992372978883e-10 0.0000000000000000e+00  -7.6532762287966762e-10 -8.9659782392526803e-10 0.0000000000000000e+00  -5.8977752200451983e-10 -9.7347345962618742e-10 0.0000000000000000e+00  -4.0530627414918593e-10 -1.0219208603436082e-09 0.0000000000000000e+00  -2.3467551439304934e-10 -1.0393593373463795e-09 0.0000000000000000e+00  -1.4492701268437707e-10 -9.4759891111911108e-10 0.0000000000000000e+00  -1.7411889974703238e-10 1.3619598581497485e-09 0.0000000000000000e+00  -2.6239008296924619e-10 1.2708815499215247e-09 0.0000000000000000e+00  -4.3968245896296881e-10 1.2304603316849743e-09 0.0000000000000000e+00  -6.2875532157027681e-10 1.1597136257257141e-09 0.0000000000000000e+00  -8.0594899205861240e-10 1.0571563682877726e-09 0.0000000000000000e+00  -9.6357981064565673e-10 9.2516315420684384e-10 0.0000000000000000e+00  -1.0972805215719318e-09 7.6758309375893242e-10 0.0000000000000000e+00  -1.2037557143090877e-09 5.8905841778286564e-10 0.0000000000000000e+00  -1.2804289325440476e-09 3.9472951272255795e-10 0.0000000000000000e+00  -1.3254577455048572e-09 1.9005269898804217e-10 0.0000000000000000e+00  -1.3377895228192149e-09 -1.9333497295064719e-11 0.0000000000000000e+00  -1.3171968457004521e-09 -2.2772273248066699e-10 0.0000000000000000e+00  -1.2642868608234255e-09 -4.2944948508550233e-10 0.0000000000000000e+00  -1.1804867734287619e-09 -6.1899933158117233e-10 0.0000000000000000e+00  -1.0680080264835980e-09 -7.9112725081077306e-10 0.0000000000000000e+00  -9.2980255761467701e-10 -9.4099301604779275e-10 0.0000000000000000e+00  -7.6958688475481488e-10 -1.0643275510062493e-09 0.0000000000000000e+00  -5.9229059528269372e-10 -1.1576385033822639e-09 0.0000000000000000e+00  -4.0647224287946058e-10 -1.2182838632196089e-09 0.0000000000000000e+00  -2.3684592251713582e-10 -1.2433496042870541e-09 0.0000000000000000e+00  -1.5637361597468550e-10 -1.1544616490121665e-09 0.0000000000000000e+00  -1.9157924571424479e-10 1.5787011587126255e-09 0.0000000000000000e+00  -2.7046781785073667e-10 1.4829675316114174e-09 0.0000000000000000e+00  -4.4845257870132349e-10 1.4333249776158426e-09 0.0000000000000000e+00  -6.4026125864339469e-10 1.3485511334662852e-09 0.0000000000000000e+00  -8.2029137692251766e-10 1.2276104775756928e-09 0.0000000000000000e+00  -9.8027882044019116e-10 1.0733230120198457e-09 0.0000000000000000e+00  -1.1156908147404676e-09 8.9000386857055901e-10 0.0000000000000000e+00  -1.2232355549909479e-09 6.8285862616670655e-10 0.0000000000000000e+00  -1.3004073658525747e-09 4.5769590133747125e-10 0.0000000000000000e+00  -1.3454471281439452e-09 2.2071962104318229e-10 0.0000000000000000e+00  -1.3573700672600303e-09 -2.1636210759200695e-11 0.0000000000000000e+00  -1.3359891727450031e-09 -2.6284933761298550e-10 0.0000000000000000e+00  -1.2819223824189165e-09 -4.9644125550770568e-10 0.0000000000000000e+00  -1.1965832462448554e-09 -7.1611012077929972e-10 0.0000000000000000e+00  -1.0821580659718858e-09 -9.1587392244262925e-10 0.0000000000000000e+00  -9.4158705470564454e-10 -1.0902325909566125e-09 0.0000000000000000e+00  -7.7863735956428482e-10 -1.2343553272615441e-09 0.0000000000000000e+00  -5.9846007595029677e-10 -1.3442838122771267e-09 0.0000000000000000e+00  -4.1030134748530216e-10 -1.4169620727919320e-09 0.0000000000000000e+00  -2.4101646310080917e-10 -1.4490399357664817e-09 0.0000000000000000e+00  -1.7048146668374129e-10 -1.3614118413951945e-09 0.0000000000000000e+00  -2.1196408323023569e-10 1.7987803205440063e-09 0.0000000000000000e+00  -2.8013491494920611e-10 1.6985708744103494e-09 0.0000000000000000e+00  -4.5894974919360119e-10 1.6398999173755761e-09 0.0000000000000000e+00  -6.5386884043323341e-10 1.5409723670215771e-09 0.0000000000000000e+00  -8.3712994423416274e-10 1.4012090806873310e-09 0.0000000000000000e+00  -9.9986687290585292e-10 1.2240040345426243e-09 0.0000000000000000e+00  -1.1373576177765408e-09 1.0142712136867267e-09 0.0000000000000000e+00  -1.2462803524616968e-09 7.7786264089532211e-10 0.0000000000000000e+00  -1.3241736526497864e-09 5.2128900151920949e-10 0.0000000000000000e+00  -1.3693481709135804e-09 2.5150166501450821e-10 0.0000000000000000e+00  -1.3808828144102156e-09 -2.4289246968571621e-11 0.0000000000000000e+00  -1.3586308183562888e-09 -2.9877255004432657e-10 0.0000000000000000e+00  -1.3032222941389169e-09 -5.6468183507261184e-10 0.0000000000000000e+00  -1.2160617594656014e-09 -8.1494215515713057e-10 0.0000000000000000e+00  -1.0993230229943368e-09 -1.0428289717412141e-09 0.0000000000000000e+00  -9.5595985306954279e-10 -1.2421475421756503e-09 0.0000000000000000e+00  -7.8982694035590197e-10 -1.4074343254494683e-09 0.0000000000000000e+00  -6.0633611376325999e-10 -1.5341637669288588e-09 0.0000000000000000e+00  -4.1546999751595740e-10 -1.6187709266106678e-09 0.0000000000000000e+00  -2.4644870291050867e-10 -1.6574449225033674e-09 0.0000000000000000e+00  -1.8719444251179184e-10 -1.5699927215988051e-09 0.0000000000000000e+00  -2.3531042501548427e-10 2.0223795517504561e-09 0.0000000000000000e+00  -2.9058998552327855e-10 1.9180583715884348e-09 0.0000000000000000e+00  -4.6962260075944556e-10 1.8503751118603645e-09 0.0000000000000000e+00  -6.6728522111989066e-10 1.7370657146041235e-09 0.0000000000000000e+00  -8.5341394498184488e-10 1.5780155943965647e-09 0.0000000000000000e+00  -1.0185326826323287e-09 1.3772741207243214e-09 0.0000000000000000e+00  -1.1577553571443977e-09 1.1404539294568931e-09 0.0000000000000000e+00  -1.2677518110299127e-09 8.7413047139960778e-10 0.0000000000000000e+00  -1.3461231416142810e-09 5.8555621191720134e-10 0.0000000000000000e+00  -1.3912659090482448e-09 2.8243532837997663e-10 0.0000000000000000e+00  -1.4023341509143604e-09 -2.7264537059740073e-11 0.0000000000000000e+00  -1.3792245830772648e-09 -3.3547311411896719e-10 0.0000000000000000e+00  -1.3225731974676896e-09 -6.3416422071947259e-10 0.0000000000000000e+00  -1.2337617814001694e-09 -9.1550416885151458e-10 0.0000000000000000e+00  -1.1149352230779269e-09 -1.1720164898528954e-09 0.0000000000000000e+00  -9.6904633345999131e-10 -1.3967725486312596e-09 0.0000000000000000e+00  -8.0002663068565503e-10 -1.5836084115990841e-09 0.0000000000000000e+00  -6.1354394144986378e-10 -1.7273495630029836e-09 0.0000000000000000e+00  -4.2035003068903481e-10 -1.8238581455443904e-09 0.0000000000000000e+00  -2.5227919918534723e-10 -1.8688561093663229e-09 0.0000000000000000e+00  -2.0651113733126334e-10 -1.7809682710695276e-09 0.0000000000000000e+00  -2.6168669006920942e-10 2.2486877824144968e-09 0.0000000000000000e+00  -3.0088495027886432e-10 2.1409292828831137e-09 0.0000000000000000e+00  -4.7859441740298751e-10 2.0641257828756551e-09 0.0000000000000000e+00  -6.7772735493434006e-10 1.9361168977573591e-09 0.0000000000000000e+00  -8.6547183527364760e-10 1.7572907165752036e-09 0.0000000000000000e+00  -1.0317455772324708e-09 1.5324289029993438e-09 0.0000000000000000e+00  -1.1715600654141032e-09 1.2679304126456974e-09 0.0000000000000000e+00  -1.2816465068754925e-09 9.7116326928161377e-10 0.0000000000000000e+00  -1.3597327053089323e-09 6.5015582331779264e-10 0.0000000000000000e+00  -1.4043526626015702e-09 3.1336214560669948e-10 0.0000000000000000e+00  -1.4147680194047173e-09 -3.0524158145218094e-11 0.0000000000000000e+00  -1.3909276943212806e-09 -3.7271967330228084e-10 0.0000000000000000e+00  -1.3334574979724725e-09 -7.0448230186449451e-10 0.0000000000000000e+00  -1.2436790754826805e-09 -1.0172458199910497e-09 0.0000000000000000e+00  -1.1236567241428792e-09 -1.3027786644525256e-09 0.0000000000000000e+00  -9.7628508898499685e-10 -1.5533808882239046e-09 0.0000000000000000e+00  -8.0551857098693335e-10 -1.7621213871261081e-09 0.0000000000000000e+00  -6.1724330846227661e-10 -1.9230973686889938e-09 0.0000000000000000e+00  -4.2300281883423315e-10 -2.0315351222711220e-09 0.0000000000000000e+00  -2.5750502222000663e-10 -2.0826797768617797e-09 0.0000000000000000e+00  -2.2846305665291737e-10 -1.9941965198160919e-09 0.0000000000000000e+00  -2.9118270555644344e-10 2.4757346676667439e-09 0.0000000000000000e+00  -3.0989362633521149e-10 2.3656399739834998e-09 0.0000000000000000e+00  -4.8361060324874258e-10 2.2795236633140877e-09 0.0000000000000000e+00  -6.8183244115252711e-10 2.1364351592929873e-09 0.0000000000000000e+00  -8.6886284251763428e-10 1.9373476203019320e-09 0.0000000000000000e+00  -1.0340364194785983e-09 1.6878719070724342e-09 0.0000000000000000e+00  -1.1723627902038691e-09 1.3952870778217665e-09 0.0000000000000000e+00  -1.2807546108445233e-09 1.0678198907289110e-09 0.0000000000000000e+00  -1.3571813183958403e-09 7.1429696474984283e-10 0.0000000000000000e+00  -1.4004073815620065e-09 3.4389833776659386e-10 0.0000000000000000e+00  -1.4098603284623392e-09 -3.4016982996487674e-11 0.0000000000000000e+00  -1.3855569067737938e-09 -4.1003161695120392e-10 0.0000000000000000e+00  -1.3280842331501282e-09 -7.7476357615458348e-10 0.0000000000000000e+00  -1.2386366245290556e-09 -1.1189661304901178e-09 0.0000000000000000e+00  -1.1191034194312775e-09 -1.4336652179771723e-09 0.0000000000000000e+00  -9.7221500022117490e-10 -1.7103566725112876e-09 0.0000000000000000e+00  -8.0184842853290803e-10 -1.9412699146215214e-09 0.0000000000000000e+00  -6.1403650566988945e-10 -2.1196811719798629e-09 0.0000000000000000e+00  -4.2112327796613195e-10 -2.2400993396946807e-09 0.0000000000000000e+00  -2.6094878540061590e-10 -2.2972698116422708e-09 0.0000000000000000e+00  -2.5310363886277996e-10 -2.2084991107593393e-09 0.0000000000000000e+00  -3.2390474016193095e-10 2.7001750336541854e-09 0.0000000000000000e+00  -3.1626755260858983e-10 2.5893944645274444e-09 0.0000000000000000e+00  -4.8195514390124601e-10 2.4937154727912546e-09 0.0000000000000000e+00  -6.7552673208673148e-10 2.3351321319565334e-09 0.0000000000000000e+00  -8.5818579581661699e-10 2.1153438123675808e-09 0.0000000000000000e+00  -1.0187377384127258e-09 1.8409268408608702e-09 0.0000000000000000e+00  -1.1523412083666723e-09 1.5201562405546888e-09 0.0000000000000000e+00  -1.2562719909687069e-09 1.1621868387262176e-09 0.0000000000000000e+00  -1.3289177040877422e-09 7.7664942009981175e-10 0.0000000000000000e+00  -1.3694170966613449e-09 3.7339152925335393e-10 0.0000000000000000e+00  -1.3774536582999346e-09 -3.7671103804122359e-11 0.0000000000000000e+00  -1.3531357945741254e-09 -4.4662104088944155e-10 0.0000000000000000e+00  -1.2969671352408844e-09 -8.4356540578291106e-10 0.0000000000000000e+00  -1.2099093898106000e-09 -1.2186719586089692e-09 0.0000000000000000e+00  -1.0935287012323281e-09 -1.5622631365326947e-09 0.0000000000000000e+00  -9.5022439987415813e-10 -1.8650039684244759e-09 0.0000000000000000e+00  -7.8363922423142157e-10 -2.1181986026746132e-09 0.0000000000000000e+00  -5.9983857912173152e-10 -2.3141803453336277e-09 0.0000000000000000e+00  -4.1195507955573509e-10 -2.4466229122754882e-09 0.0000000000000000e+00  -2.6121199131515435e-10 -2.5097265237718083e-09 0.0000000000000000e+00  -2.8050158237128328e-10 -2.4214906306106969e-09 0.0000000000000000e+00  -3.5997571672953340e-10 2.9170160512316168e-09 0.0000000000000000e+00  -3.1838340735036589e-10 2.8078869687003076e-09 0.0000000000000000e+00  -4.7034469484754397e-10 2.7023527739339515e-09 0.0000000000000000e+00  -6.5385882484480767e-10 2.5278436154072172e-09 0.0000000000000000e+00  -8.2684233538193718e-10 2.2870057089514287e-09 0.0000000000000000e+00  -9.7767