<?xml version="1.0"?>
<VTKFile type="UnstructuredGrid"  version="0.1"  >
<UnstructuredGrid>
<Piece  NumberOfPoints="651" NumberOfCells="1200">
<Points>
<DataArray  type="Float64"  NumberOfComponents="3"  format="ascii">0 0 0  50000 0 0  100000 0 0  150000 0 0  200000 0 0  250000 0 0  300000 0 0  350000 0 0  400000 0 0  450000 0 0  500000 0 0  550000 0 0  600000 0 0  650000 0 0  700000 0 0  750000 0 0  800000 0 0  850000 0 0  900000 0 0  950000 0 0  1000000 0 0  0 50000 0  50000 50000 0  100000 50000 0  150000 50000 0  200000 50000 0  250000 50000 0  300000 50000 0  350000 50000 0  400000 50000 0  450000 50000 0  500000 50000 0  550000 50000 0  600000 50000 0  650000 50000 0  700000 50000 0  750000 50000 0  800000 50000 0  850000 50000 0  900000 50000 0  950000 50000 0  1000000 50000 0  0 100000 0  50000 100000 0  100000 100000 0  150000 100000 0  200000 100000 0  250000 100000 0  300000 100000 0  350000 100000 0  400000 100000 0  450000 100000 0  500000 100000 0  550000 100000 0  600000 100000 0  650000 100000 0  700000 100000 0  750000 100000 0  800000 100000 0  850000 100000 0  900000 100000 0  950000 100000 0  1000000 100000 0  0 150000 0  50000 150000 0  100000 150000 0  150000 150000 0  200000 150000 0  250000 150000 0  300000 150000 0  350000 150000 0  400000 150000 0  450000 150000 0  500000 150000 0  550000 150000 0  600000 150000 0  650000 150000 0  700000 150000 0  750000 150000 0  800000 150000 0  850000 150000 0  900000 150000 0  950000 150000 0  1000000 150000 0  0 200000 0  50000 200000 0  100000 200000 0  150000 200000 0  200000 200000 0  250000 200000 0  300000 200000 0  350000 200000 0  400000 200000 0  450000 200000 0  500000 200000 0  550000 200000 0  600000 200000 0  650000 200000 0  700000 200000 0  750000 200000 0  800000 200000 0  850000 200000 0  900000 200000 0  950000 200000 0  1000000 200000 0  0 250000 0  50000 250000 0  100000 250000 0  150000 250000 0  200000 250000 0  250000 250000 0  300000 250000 0  350000 250000 0  400000 250000 0  450000 250000 0  500000 250000 0  550000 250000 0  600000 250000 0  650000 250000 0  700000 250000 0  750000 250000 0  800000 250000 0  850000 250000 0  900000 250000 0  950000 250000 0  1000000 250000 0  0 300000 0  50000 300000 0  100000 300000 0  150000 300000 0  200000 300000 0  250000 300000 0  300000 300000 0  350000 300000 0  400000 300000 0  450000 300000 0  500000 300000 0  550000 300000 0  600000 300000 0  650000 300000 0  700000 300000 0  750000 300000 0  800000 300000 0  850000 300000 0  900000 300000 0  950000 300000 0  1000000 300000 0  0 350000 0  50000 350000 0  100000 350000 0  150000 350000 0  200000 350000 0  250000 350000 0  300000 350000 0  350000 350000 0  400000 350000 0  450000 350000 0  500000 350000 0  550000 350000 0  600000 350000 0  650000 350000 0  700000 350000 0  750000 350000 0  800000 350000 0  850000 350000 0  900000 350000 0  950000 350000 0  1000000 350000 0  0 400000 0  50000 400000 0  100000 400000 0  150000 400000 0  200000 400000 0  250000 400000 0  300000 400000 0  350000 400000 0  400000 400000 0  450000 400000 0  500000 400000 0  550000 400000 0  600000 400000 0  650000 400000 0  700000 400000 0  750000 400000 0  800000 400000 0  850000 400000 0  900000 400000 0  950000 400000 0  1000000 400000 0  0 450000 0  50000 450000 0  100000 450000 0  150000 450000 0  200000 450000 0  250000 450000 0  300000 450000 0  350000 450000 0  400000 450000 0  450000 450000 0  500000 450000 0  550000 450000 0  600000 450000 0  650000 450000 0  700000 450000 0  750000 450000 0  800000 450000 0  850000 450000 0  900000 450000 0  950000 450000 0  1000000 450000 0  0 500000 0  50000 500000 0  100000 500000 0  150000 500000 0  200000 500000 0  250000 500000 0  300000 500000 0  350000 500000 0  400000 500000 0  450000 500000 0  500000 500000 0  550000 500000 0  600000 500000 0  650000 500000 0  700000 500000 0  750000 500000 0  800000 500000 0  850000 500000 0  900000 500000 0  950000 500000 0  1000000 500000 0  0 550000 0  50000 550000 0  100000 550000 0  150000 550000 0  200000 550000 0  250000 550000 0  300000 550000 0  350000 550000 0  400000 550000 0  450000 550000 0  500000 550000 0  550000 550000 0  600000 550000 0  650000 550000 0  700000 550000 0  750000 550000 0  800000 550000 0  850000 550000 0  900000 550000 0  950000 550000 0  1000000 550000 0  0 600000 0  50000 600000 0  100000 600000 0  150000 600000 0  200000 600000 0  250000 600000 0  300000 600000 0  350000 600000 0  400000 600000 0  450000 600000 0  500000 600000 0  550000 600000 0  600000 600000 0  650000 600000 0  700000 600000 0  750000 600000 0  800000 600000 0  850000 600000 0  900000 600000 0  950000 600000 0  1000000 600000 0  0 650000 0  50000 650000 0  100000 650000 0  150000 650000 0  200000 650000 0  250000 650000 0  300000 650000 0  350000 650000 0  400000 650000 0  450000 650000 0  500000 650000 0  550000 650000 0  600000 650000 0  650000 650000 0  700000 650000 0  750000 650000 0  800000 650000 0  850000 650000 0  900000 650000 0  950000 650000 0  1000000 650000 0  0 700000 0  50000 700000 0  100000 700000 0  150000 700000 0  200000 700000 0  250000 700000 0  300000 700000 0  350000 700000 0  400000 700000 0  450000 700000 0  500000 700000 0  550000 700000 0  600000 700000 0  650000 700000 0  700000 700000 0  750000 700000 0  800000 700000 0  850000 700000 0  900000 700000 0  950000 700000 0  1000000 700000 0  0 750000 0  50000 750000 0  100000 750000 0  150000 750000 0  200000 750000 0  250000 750000 0  300000 750000 0  350000 750000 0  400000 750000 0  450000 750000 0  500000 750000 0  550000 750000 0  600000 750000 0  650000 750000 0  700000 750000 0  750000 750000 0  800000 750000 0  850000 750000 0  900000 750000 0  950000 750000 0  1000000 750000 0  0 800000 0  50000 800000 0  100000 800000 0  150000 800000 0  200000 800000 0  250000 800000 0  300000 800000 0  350000 800000 0  400000 800000 0  450000 800000 0  500000 800000 0  550000 800000 0  600000 800000 0  650000 800000 0  700000 800000 0  750000 800000 0  800000 800000 0  850000 800000 0  900000 800000 0  950000 800000 0  1000000 800000 0  0 850000 0  50000 850000 0  100000 850000 0  150000 850000 0  200000 850000 0  250000 850000 0  300000 850000 0  350000 850000 0  400000 850000 0  450000 850000 0  500000 850000 0  550000 850000 0  600000 850000 0  650000 850000 0  700000 850000 0  750000 850000 0  800000 850000 0  850000 850000 0  900000 850000 0  950000 850000 0  1000000 850000 0  0 900000 0  50000 900000 0  100000 900000 0  150000 900000 0  200000 900000 0  250000 900000 0  300000 900000 0  350000 900000 0  400000 900000 0  450000 900000 0  500000 900000 0  550000 900000 0  600000 900000 0  650000 900000 0  700000 900000 0  750000 900000 0  800000 900000 0  850000 900000 0  900000 900000 0  950000 900000 0  1000000 900000 0  0 950000 0  50000 950000 0  100000 950000 0  150000 950000 0  200000 950000 0  250000 950000 0  300000 950000 0  350000 950000 0  400000 950000 0  450000 950000 0  500000 950000 0  550000 950000 0  600000 950000 0  650000 950000 0  700000 950000 0  750000 950000 0  800000 950000 0  850000 950000 0  900000 950000 0  950000 950000 0  1000000 950000 0  0 1000000 0  50000 1000000 0  100000 1000000 0  150000 1000000 0  200000 1000000 0  250000 1000000 0  300000 1000000 0  350000 1000000 0  400000 1000000 0  450000 1000000 0  500000 1000000 0  550000 1000000 0  600000 1000000 0  650000 1000000 0  700000 1000000 0  750000 1000000 0  800000 1000000 0  850000 1000000 0  900000 1000000 0  950000 1000000 0  1000000 1000000 0  0 1050000 0  50000 1050000 0  100000 1050000 0  150000 1050000 0  200000 1050000 0  250000 1050000 0  300000 1050000 0  350000 1050000 0  400000 1050000 0  450000 1050000 0  500000 1050000 0  550000 1050000 0  600000 1050000 0  650000 1050000 0  700000 1050000 0  750000 1050000 0  800000 1050000 0  850000 1050000 0  900000 1050000 0  950000 1050000 0  1000000 1050000 0  0 1100000 0  50000 1100000 0  100000 1100000 0  150000 1100000 0  200000 1100000 0  250000 1100000 0  300000 1100000 0  350000 1100000 0  400000 1100000 0  450000 1100000 0  500000 1100000 0  550000 1100000 0  600000 1100000 0  650000 1100000 0  700000 1100000 0  750000 1100000 0  800000 1100000 0  850000 1100000 0  900000 1100000 0  950000 1100000 0  1000000 1100000 0  0 1150000 0  50000 1150000 0  100000 1150000 0  150000 1150000 0  200000 1150000 0  250000 1150000 0  300000 1150000 0  350000 1150000 0  400000 1150000 0  450000 1150000 0  500000 1150000 0  550000 1150000 0  600000 1150000 0  650000 1150000 0  700000 1150000 0  750000 1150000 0  800000 1150000 0  850000 1150000 0  900000 1150000 0  950000 1150000 0  1000000 1150000 0  0 1200000 0  50000 1200000 0  100000 1200000 0  150000 1200000 0  200000 1200000 0  250000 1200000 0  300000 1200000 0  350000 1200000 0  400000 1200000 0  450000 1200000 0  500000 1200000 0  550000 1200000 0  600000 1200000 0  650000 1200000 0  700000 1200000 0  750000 1200000 0  800000 1200000 0  850000 1200000 0  900000 1200000 0  950000 1200000 0  1000000 1200000 0  0 1250000 0  50000 1250000 0  100000 1250000 0  150000 1250000 0  200000 1250000 0  250000 1250000 0  300000 1250000 0  350000 1250000 0  400000 1250000 0  450000 1250000 0  500000 1250000 0  550000 1250000 0  600000 1250000 0  650000 1250000 0  700000 1250000 0  750000 1250000 0  800000 1250000 0  850000 1250000 0  900000 1250000 0  950000 1250000 0  1000000 1250000 0  0 1300000 0  50000 1300000 0  100000 1300000 0  150000 1300000 0  200000 1300000 0  250000 1300000 0  300000 1300000 0  350000 1300000 0  400000 1300000 0  450000 1300000 0  500000 1300000 0  550000 1300000 0  600000 1300000 0  650000 1300000 0  700000 1300000 0  750000 1300000 0  800000 1300000 0  850000 1300000 0  900000 1300000 0  950000 1300000 0  1000000 1300000 0  0 1350000 0  50000 1350000 0  100000 1350000 0  150000 1350000 0  200000 1350000 0  250000 1350000 0  300000 1350000 0  350000 1350000 0  400000 1350000 0  450000 1350000 0  500000 1350000 0  550000 1350000 0  600000 1350000 0  650000 1350000 0  700000 135
[...]
<PointData  Vectors="f_2995"> 
<DataArray  type="Float64"  Name="f_2995"  NumberOfComponents="3" format="ascii">-1.5787115086271107e-10 1.5580160392663468e-10 0.0000000000000000e+00  -2.9412286592372097e-10 1.2895955371624265e-10 0.0000000000000000e+00  -5.3663659891233088e-10 1.1710003565711312e-10 0.0000000000000000e+00  -7.7107978716617175e-10 1.0669315509168749e-10 0.0000000000000000e+00  -9.8575610134851689e-10 9.4822324781488835e-11 0.0000000000000000e+00  -1.1743845803894788e-09 8.1138134047764691e-11 0.0000000000000000e+00  -1.3318654262654584e-09 6.5756136531169074e-11 0.0000000000000000e+00  -1.4540763647710886e-09 4.8956328585876982e-11 0.0000000000000000e+00  -1.5378660363228049e-09 3.1107411150592833e-11 0.0000000000000000e+00  -1.5811081829684151e-09 1.2629619920086674e-11 0.0000000000000000e+00  -1.5827467589603266e-09 -6.0287185414838122e-12 0.0000000000000000e+00  -1.5428177323045406e-09 -2.4409048014469905e-11 0.0000000000000000e+00  -1.4624448592125560e-09 -4.2058212236130134e-11 0.0000000000000000e+00  -1.3438093918753017e-09 -5.8543566447025233e-11 0.0000000000000000e+00  -1.1900990747383538e-09 -7.3469709472949226e-11 0.0000000000000000e+00  -1.0054694970742623e-09 -8.6503832336982861e-11 0.0000000000000000e+00  -7.9519138493619252e-10 -9.7435534288836318e-11 0.0000000000000000e+00  -5.6678002837392929e-10 -1.0634299802880793e-10 0.0000000000000000e+00  -3.3534501898502119e-10 -1.1342989174146618e-10 0.0000000000000000e+00  -1.4633175926544724e-10 -1.0974784711416055e-10 0.0000000000000000e+00  -6.6682398660606830e-11 -6.8109172140264071e-11 0.0000000000000000e+00  -1.3428414196793732e-10 2.8154554609100959e-10 0.0000000000000000e+00  -2.4825291918709200e-10 2.4613683970803712e-10 0.0000000000000000e+00  -4.4230864277163194e-10 2.5081002975443837e-10 0.0000000000000000e+00  -6.5344197627998856e-10 2.3904370592102533e-10 0.0000000000000000e+00  -8.5468823643999661e-10 2.1780153367840302e-10 0.0000000000000000e+00  -1.0361581428428258e-09 1.8973645892163166e-10 0.0000000000000000e+00  -1.1917430151166973e-09 1.5627610011425380e-10 0.0000000000000000e+00  -1.3168302754856162e-09 1.1857163820952677e-10 0.0000000000000000e+00  -1.4079148818804834e-09 7.7738142628089323e-11 0.0000000000000000e+00  -1.4625272737126682e-09 3.4910531367332500e-11 0.0000000000000000e+00  -1.4792339052613072e-09 -8.7525480910570188e-12 0.0000000000000000e+00  -1.4576461111913515e-09 -5.2082815800334646e-11 0.0000000000000000e+00  -1.3984195533176495e-09 -9.3922381058225833e-11 0.0000000000000000e+00  -1.3032405883766695e-09 -1.3314374868655175e-10 0.0000000000000000e+00  -1.1748047829013001e-09 -1.6866439605499665e-10 0.0000000000000000e+00  -1.0168120490522048e-09 -1.9944583110069722e-10 0.0000000000000000e+00  -8.3407043799749096e-10 -2.2444507025106428e-10 0.0000000000000000e+00  -6.3307493206144959e-10 -2.4236149648507237e-10 0.0000000000000000e+00  -4.2459008188092044e-10 -2.5022349352430767e-10 0.0000000000000000e+00  -2.3464955975709269e-10 -2.3647807522068962e-10 0.0000000000000000e+00  -1.1211167176809755e-10 -1.4200542906314756e-10 0.0000000000000000e+00  -1.3235371148363140e-10 5.0434803026400414e-10 0.0000000000000000e+00  -2.5368958329611520e-10 4.3379380391661803e-10 0.0000000000000000e+00  -4.3957937234549475e-10 4.3416900529102041e-10 0.0000000000000000e+00  -6.3503742623069950e-10 4.1561104346247641e-10 0.0000000000000000e+00  -8.2106456198469167e-10 3.8082350041045432e-10 0.0000000000000000e+00  -9.8931454178130029e-10 3.3334744411644924e-10 0.0000000000000000e+00  -1.1339264862772663e-09 2.7582284128791548e-10 0.0000000000000000e+00  -1.2504106059215124e-09 2.1044162566761698e-10 0.0000000000000000e+00  -1.3353519778545368e-09 1.3927570533266793e-10 0.0000000000000000e+00  -1.3863501750710955e-09 6.4392815575018545e-11 0.0000000000000000e+00  -1.4020113804777305e-09 -1.2118449376112818e-11 0.0000000000000000e+00  -1.3819495612833547e-09 -8.8160511482102652e-11 0.0000000000000000e+00  -1.3267831882384932e-09 -1.6165224074050982e-10 0.0000000000000000e+00  -1.2381238732162190e-09 -2.3055455679410922e-10 0.0000000000000000e+00  -1.1185610855594172e-09 -2.9288319844488836e-10 0.0000000000000000e+00  -9.7166187973820874e-10 -3.4668616518608994e-10 0.0000000000000000e+00  -8.0205179644541785e-10 -3.8993263765493013e-10 0.0000000000000000e+00  -6.1582302214304853e-10 -4.2017415159119713e-10 0.0000000000000000e+00  -4.2219969526834849e-10 -4.3359835596641165e-10 0.0000000000000000e+00  -2.4156032901209387e-10 -4.2341379797694738e-10 0.0000000000000000e+00  -1.1944277872238426e-10 -3.1531448385599804e-10 0.0000000000000000e+00  -1.3754016338783575e-10 7.2364349552013567e-10 0.0000000000000000e+00  -2.5211323285594936e-10 6.4352311322908726e-10 0.0000000000000000e+00  -4.3460396056922914e-10 6.3102334115653834e-10 0.0000000000000000e+00  -6.2449296377480123e-10 6.0087987070064290e-10 0.0000000000000000e+00  -8.0311796738672176e-10 5.5063517770255383e-10 0.0000000000000000e+00  -9.6362446516020148e-10 4.8282854147606171e-10 0.0000000000000000e+00  -1.1011849225503588e-09 4.0051292439257067e-10 0.0000000000000000e+00  -1.2118057002473994e-09 3.0668418671702522e-10 0.0000000000000000e+00  -1.2923289664923673e-09 2.0431961358886156e-10 0.0000000000000000e+00  -1.3404982079235785e-09 9.6427863598454921e-11 0.0000000000000000e+00  -1.3549974062329577e-09 -1.3944917910330689e-11 0.0000000000000000e+00  -1.3354686738127172e-09 -1.2373834800539816e-10 0.0000000000000000e+00  -1.2825133536840649e-09 -2.2991420174789398e-10 0.0000000000000000e+00  -1.1976787835755007e-09 -3.2949327018507582e-10 0.0000000000000000e+00  -1.0834324145797783e-09 -4.1958034544876678e-10 0.0000000000000000e+00  -9.4312981267025421e-10 -4.9736192330578389e-10 0.0000000000000000e+00  -7.8101073966202740e-10 -5.6005873343421170e-10 0.0000000000000000e+00  -6.0240360194340700e-10 -6.0483583748176570e-10 0.0000000000000000e+00  -4.1505676765590378e-10 -6.2870613715153962e-10 0.0000000000000000e+00  -2.3785211866382982e-10 -6.2817344736697138e-10 0.0000000000000000e+00  -1.2093802861199252e-10 -5.2609412198319255e-10 0.0000000000000000e+00  -1.4648184989228078e-10 9.3830107348985491e-10 0.0000000000000000e+00  -2.5217958228647832e-10 8.5352216180367236e-10 0.0000000000000000e+00  -4.3206027850845869e-10 8.2953360957299756e-10 0.0000000000000000e+00  -6.1997483019810158e-10 7.8574257113554847e-10 0.0000000000000000e+00  -7.9589962064580914e-10 7.1870833571563636e-10 0.0000000000000000e+00  -9.5305150097180879e-10 6.3017126192152437e-10 0.0000000000000000e+00  -1.0871166993778426e-09 5.2322451691763610e-10 0.0000000000000000e+00  -1.1945574785033337e-09 4.0139929216999302e-10 0.0000000000000000e+00  -1.2725124858438018e-09 2.6843519716131345e-10 0.0000000000000000e+00  -1.3189034855393011e-09 1.2820556444501887e-10 0.0000000000000000e+00  -1.3325140170681099e-09 -1.5332470301209016e-11 0.0000000000000000e+00  -1.3130274549471546e-09 -1.5819120112406178e-10 0.0000000000000000e+00  -1.2610354854979454e-09 -2.9641039488292366e-10 0.0000000000000000e+00  -1.1780226698130255e-09 -4.2611575190609768e-10 0.0000000000000000e+00  -1.0663278738959063e-09 -5.4357316286696843e-10 0.0000000000000000e+00  -9.2908508565880797e-10 -6.4523814144368858e-10 0.0000000000000000e+00  -7.7017967561900492e-10 -7.2781513880758041e-10 0.0000000000000000e+00  -5.9445262996585882e-10 -7.8838099747894181e-10 0.0000000000000000e+00  -4.0933545155315764e-10 -8.2455664248260654e-10 0.0000000000000000e+00  -2.3486113536446823e-10 -8.3379017701658778e-10 0.0000000000000000e+00  -1.2620553855342782e-10 -7.3894957765714606e-10 0.0000000000000000e+00  -1.5853985937837069e-10 1.1510051941358497e-09 0.0000000000000000e+00  -2.5514914683394685e-10 1.0623529593023686e-09 0.0000000000000000e+00  -4.3352976062189188e-10 1.0285421207326897e-09 0.0000000000000000e+00  -6.2154423015026794e-10 9.7072726107002534e-10 0.0000000000000000e+00  -7.9751958271104076e-10 8.8609136943297450e-10 0.0000000000000000e+00  -9.5423071912375106e-10 7.7628427165325904e-10 0.0000000000000000e+00  -1.0874308262940383e-09 6.4453765886964161e-10 0.0000000000000000e+00  -1.1938065371257737e-09 4.9483169811895909e-10 0.0000000000000000e+00  -1.2707097324808301e-09 3.3157077840768739e-10 0.0000000000000000e+00  -1.3162183403446598e-09 1.5941754228688378e-10 0.0000000000000000e+00  -1.3292135372736965e-09 -1.6817231464817357e-11 0.0000000000000000e+00  -1.3094244734497729e-09 -1.9226688632225305e-10 0.0000000000000000e+00  -1.2574408360606851e-09 -3.6209643127307758e-10 0.0000000000000000e+00  -1.1746972875771828e-09 -5.2158993648103812e-10 0.0000000000000000e+00  -1.0634312191263521e-09 -6.6624137239401162e-10 0.0000000000000000e+00  -9.2662127651210120e-10 -7.9185752368348408e-10 0.0000000000000000e+00  -7.6796413846547785e-10 -8.9469432701603155e-10 0.0000000000000000e+00  -5.9219300971537601e-10 -9.7165989026717071e-10 0.0000000000000000e+00  -4.0709995471621266e-10 -1.0204489804115605e-09 0.0000000000000000e+00  -2.3452080477151431e-10 -1.0384633899750826e-09 0.0000000000000000e+00  -1.3478575698732615e-10 -9.4866974285473644e-10 0.0000000000000000e+00  -1.7350194811710350e-10 1.3641874077198293e-09 0.0000000000000000e+00  -2.6092208729435210e-10 1.2717612453166454e-09 0.0000000000000000e+00  -4.3895706385984062e-10 1.2289671669185464e-09 0.0000000000000000e+00  -6.2856180995754614e-10 1.1572806336025844e-09 0.0000000000000000e+00  -8.0631241280727177e-10 1.0546000209587498e-09 0.0000000000000000e+00  -9.6441756923444620e-10 9.2297185048815654e-10 0.0000000000000000e+00  -1.0984874191410353e-09 7.6599020768882445e-10 0.0000000000000000e+00  -1.2052547616020241e-09 5.8813271051863003e-10 0.0000000000000000e+00  -1.2821806780206384e-09 3.9444663759081149e-10 0.0000000000000000e+00  -1.3274504426169849e-09 1.9034237311911401e-10 0.0000000000000000e+00  -1.3400246279410528e-09 -1.8559671630142658e-11 0.0000000000000000e+00  -1.3196755288508510e-09 -2.2655651322507749e-10 0.0000000000000000e+00  -1.2669985530925758e-09 -4.2797975270109700e-10 0.0000000000000000e+00  -1.1833989595577026e-09 -6.1731206998849943e-10 0.0000000000000000e+00  -1.0710562179110796e-09 -7.8931147029358457e-10 0.0000000000000000e+00  -9.3288006212241749e-10 -9.3915385717778159e-10 0.0000000000000000e+00  -7.7253493648743595e-10 -1.0626078602676578e-09 0.0000000000000000e+00  -5.9488424894872657e-10 -1.1562452731591523e-09 0.0000000000000000e+00  -4.0833607495236835e-10 -1.2174946855763056e-09 0.0000000000000000e+00  -2.3672542239180669e-10 -1.2434026909082903e-09 0.0000000000000000e+00  -1.4624180956557480e-10 -1.1564694555204910e-09 0.0000000000000000e+00  -1.9129423900732390e-10 1.5796738962790039e-09 0.0000000000000000e+00  -2.6899239039078335e-10 1.4834380316165158e-09 0.0000000000000000e+00  -4.4748848277558249e-10 1.4320656890137224e-09 0.0000000000000000e+00  -6.3968123416737005e-10 1.3466052388035176e-09 0.0000000000000000e+00  -8.2023295475209986e-10 1.2255650609373212e-09 0.0000000000000000e+00  -9.8076658442004393e-10 1.0715797722894731e-09 0.0000000000000000e+00  -1.1166842941239162e-09 8.8878787630609082e-10 0.0000000000000000e+00  -1.2246783858547610e-09 6.8225886206710777e-10 0.0000000000000000e+00  -1.3022503466788866e-09 4.5771024336354028e-10 0.0000000000000000e+00  -1.3476522282009787e-09 2.2129148375475072e-10 0.0000000000000000e+00  -1.3599051747584722e-09 -2.0592598852533124e-11 0.0000000000000000e+00  -1.3388195871013467e-09 -2.6143377582817608e-10 0.0000000000000000e+00  -1.2850017421981513e-09 -4.9476044453089468e-10 0.0000000000000000e+00  -1.1998447854460582e-09 -7.1427706864488844e-10 0.0000000000000000e+00  -1.0855065603313930e-09 -9.1401327107685755e-10 0.0000000000000000e+00  -9.4489215840486629e-10 -1.0884917245599302e-09 0.0000000000000000e+00  -7.8172910929020998e-10 -1.2329202383897516e-09 0.0000000000000000e+00  -6.0112001304188580e-10 -1.3433942371689941e-09 0.0000000000000000e+00  -4.1217807179732585e-10 -1.4169042652456028e-09 0.0000000000000000e+00  -2.4091775049866535e-10 -1.4500663796910900e-09 0.0000000000000000e+00  -1.6040561786633750e-10 -1.3643693657974119e-09 0.0000000000000000e+00  -2.1191912965187244e-10 1.7985256861320212e-09 0.0000000000000000e+00  -2.7867705064038323e-10 1.6985292699905865e-09 0.0000000000000000e+00  -4.5784982791851408e-10 1.6387207388499392e-09 0.0000000000000000e+00  -6.5303391162539792e-10 1.5394259664749175e-09 0.0000000000000000e+00  -8.3675620467198408e-10 1.3996872929102545e-09 0.0000000000000000e+00  -1.0000504122539222e-09 1.2227981513487604e-09 0.0000000000000000e+00  -1.1381138593639028e-09 1.0135596937286837e-09 0.0000000000000000e+00  -1.2475823929120853e-09 7.7772264873835331e-10 0.0000000000000000e+00  -1.3259777015762864e-09 5.2171990292113819e-10 0.0000000000000000e+00  -1.3716046556543973e-09 2.5244932393066809e-10 0.0000000000000000e+00  -1.3835380559922661e-09 -2.2912995186594952e-11 0.0000000000000000e+00  -1.3616237291247566e-09 -2.9707688799832474e-10 0.0000000000000000e+00  -1.3064789572568953e-09 -5.6279026079701271e-10 0.0000000000000000e+00  -1.2194895432574492e-09 -8.1299144684551907e-10 0.0000000000000000e+00  -1.1028053608492800e-09 -1.0409731680706778e-09 0.0000000000000000e+00  -9.5935278160405725e-10 -1.2405660898052502e-09 0.0000000000000000e+00  -7.9295773341753345e-10 -1.4063424668226621e-09 0.0000000000000000e+00  -6.0899579978478040e-10 -1.5338198841761432e-09 0.0000000000000000e+00  -4.1732644248695150e-10 -1.6194634166303954e-09 0.0000000000000000e+00  -2.4636663721121653e-10 -1.6594508545481185e-09 0.0000000000000000e+00  -1.7722043123548054e-10 -1.5739092991233550e-09 0.0000000000000000e+00  -2.3542587669110046e-10 2.0209348016633976e-09 0.0000000000000000e+00  -2.8916381509774597e-10 1.9174513693746890e-09 0.0000000000000000e+00  -4.6845836247769264e-10 1.8491698757043481e-09 0.0000000000000000e+00  -6.6629676133268382e-10 1.7358344616729259e-09 0.0000000000000000e+00  -8.5282381335422956e-10 1.5769903642310192e-09 0.0000000000000000e+00  -1.0184805594470279e-09 1.3766354015229784e-09 0.0000000000000000e+00  -1.1582981534508487e-09 1.1403149628945605e-09 0.0000000000000000e+00  -1.2688905977709967e-09 8.7453471837193197e-10 0.0000000000000000e+00  -1.3478258705074855e-09 5.8648659347177031e-10 0.0000000000000000e+00  -1.3934809127417583e-09 2.8382805216859231e-10 0.0000000000000000e+00  -1.4049960133509840e-09 -2.5506881871181826e-11 0.0000000000000000e+00  -1.3822550452060411e-09 -3.3347184967541211e-10 0.0000000000000000e+00  -1.3258793851068792e-09 -6.3205917218405927e-10 0.0000000000000000e+00  -1.2372334585468418e-09 -9.1345255051952874e-10 0.0000000000000000e+00  -1.1184423911228580e-09 -1.1701955810825157e-09 0.0000000000000000e+00  -9.7243823121338563e-10 -1.3953851420452576e-09 0.0000000000000000e+00  -8.0313194209731174e-10 -1.5828890467125103e-09 0.0000000000000000e+00  -6.1616304379681409e-10 -1.7275672092370539e-09 0.0000000000000000e+00  -4.2216592620049932e-10 -1.8253018002293559e-09 0.0000000000000000e+00  -2.5221198128548415e-10 -1.8718360521366886e-09 0.0000000000000000e+00  -1.9668352254744627e-10 -1.7858489221873064e-09 0.0000000000000000e+00  -2.6189444701309050e-10 2.2460990268517687e-09 0.0000000000000000e+00  -2.9949931703538553e-10 2.1397372505020100e-09 0.0000000000000000e+00  -4.7741809280315572e-10 2.0628244093105935e-09 0.0000000000000000e+00  -6.7666392696102864e-10 1.9351308981337962e-09 0.0000000000000000e+00  -8.6475127160681272e-10 1.7567213557822718e-09 0.0000000000000000e+00  -1.0315315068324588e-09 1.5323540696646193e-09 0.0000000000000000e+00  -1.1719372037485287e-09 1.2683915680360612e-09 0.0000000000000000e+00  -1.2826382271394992e-09 9.7215737678560053e-10 0.0000000000000000e+00  -1.3613195616675675e-09 6.5163633836017075e-10 0.0000000000000000e+00  -1.4064857404043762e-09 3.1524532990843566e-10 0.0000000000000000e+00  -1.4173768868791718e-09 -2.8351630157500441e-11 0.0000000000000000e+00  -1.3939242333238968e-09 -3.7039440820884244e-10 0.0000000000000000e+00  -1.3367371426230513e-09 -7.0216045624471961e-10 0.0000000000000000e+00  -1.2471208426102618e-09 -1.0151022911650179e-09 0.0000000000000000e+00  -1.1271231973633481e-09 -1.3010088955755973e-09 0.0000000000000000e+00  -9.7962317543431961e-10 -1.5522043925955912e-09 0.0000000000000000e+00  -8.0856040871515650e-10 -1.7617853207743699e-09 0.0000000000000000e+00  -6.1979777722535354e-10 -1.9238769021012493e-09 0.0000000000000000e+00  -4.2476553340458096e-10 -2.0337204300863890e-09 0.0000000000000000e+00  -2.5745251568280814e-10 -2.0866205577005144e-09 0.0000000000000000e+00  -2.1882454398361493e-10 -2.0000414825049234e-09 0.0000000000000000e+00  -2.9142610041966305e-10 2.4720556278751112e-09 0.0000000000000000e+00  -3.0855464637708790e-10 2.3638669964671698e-09 0.0000000000000000e+00  -4.8246209276692878e-10 2.2780836076183909e-09 0.0000000000000000e+00  -6.8075626742798359e-10 2.1356413198038643e-09 0.0000000000000000e+00  -8.6808545738334068e-10 1.9371929943523563e-09 0.0000000000000000e+00  -1.0337322537567278e-09 1.6883419426814674e-09 0.0000000000000000e+00  -1.1726332677888408e-09 1.3963511630399237e-09 0.0000000000000000e+00  -1.2816387585391407e-09 1.0694221113775573e-09 0.0000000000000000e+00  -1.3586702661768001e-09 7.1635296462986386e-10 0.0000000000000000e+00  -1.4024565106808940e-09 3.4629685480174459e-10 0.0000000000000000e+00  -1.4123979862459110e-09 -3.1410618421139434e-11 0.0000000000000000e+00  -1.3884900590209754e-09 -4.0737210894146188e-10 0.0000000000000000e+00  -1.3313019127222222e-09 -7.7222363818250452e-10 0.0000000000000000e+00  -1.2420121315493892e-09 -1.1167362744419950e-09 0.0000000000000000e+00  -1.1224961353410553e-09 -1.4319552142219597e-09 0.0000000000000000e+00  -9.7547234783546114e-10 -1.7093980086594597e-09 0.0000000000000000e+00  -8.0480705818516705e-10 -1.9413180017432197e-09 0.0000000000000000e+00  -6.1651315300961688e-10 -2.1210150454098274e-09 0.0000000000000000e+00  -4.2282521389774788e-10 -2.2430115322050006e-09 0.0000000000000000e+00  -2.6091176158665785e-10 -2.3021530891459135e-09 0.0000000000000000e+00  -2.4369464994185489e-10 -2.2153036678941607e-09 0.0000000000000000e+00  -3.2413857580241704e-10 2.6954654630081007e-09 0.0000000000000000e+00  -3.1497977887783100e-10 2.5870619470447518e-09 0.0000000000000000e+00  -4.8086590188792958e-10 2.4921156981821136e-09 0.0000000000000000e+00  -6.7448829606225414e-10 2.3344938529210612e-09 0.0000000000000000e+00  -8.5741498749179403e-10 2.1155689103774626e-09 0.0000000000000000e+00  -1.0184112105369908e-09 1.8419178478693034e-09 0.0000000000000000e+00  -1.1525686431048342e-09 1.5218129341457870e-09 0.0000000000000000e+00  -1.2571017864185739e-09 1.1643979958132531e-09 0.0000000000000000e+00  -1.3303482259419760e-09 7.7928812982431340e-10 0.0000000000000000e+00  -1.3714074214463015e-09 3.7631404399841264e-10 0.0000000000000000e+00  -1.3799323739554162e-09 -3.4624650299092698e-11 0.0000000000000000e+00  -1.3560076929073606e-09 -4.4362554491596233e-10 0.0000000000000000e+00  -1.3001181556877045e-09 -8.4081031438993990e-10 0.0000000000000000e+00  -1.2132103769803046e-09 -1.2163618381718523e-09 0.0000000000000000e+00  -1.0968385308926236e-09 -1.5606192493441313e-09 0.0000000000000000e+00  -9.5339274573617139e-10 -1.8642664051653789e-09 0.0000000000000000e+00  -7.8650785983748391e-10 -2.1186281160585469e-09 0.0000000000000000e+00  -6.0223188009098914e-10 -2.3160584730295113e-09 0.0000000000000000e+00  -4.1359224851420274e-10 -2.4502455145429160e-09 0.0000000000000000e+00  -2.6119173800990059e-10 -2.5155305958735562e-09 0.0000000000000000e+00  -2.7135990525281852e-10 -2.4292451583445701e-09 0.0000000000000000e+00  -3.6016618649563449e-10 2.9113398714456028e-09 0.0000000000000000e+00  -3.1715036918005647e-10 2.8050292899031352e-09 0.0000000000000000e+00  -4.6933997595606460e-10 2.7005896603710912e-09 0.0000000000000000e+00  -6.5290001550809523e-10 2.5273399184754955e-09 0.0000000000000000e+00  -8.2613351481299087e-10 2.2875850498332702e-09 0.0000000000000000e+00  -9.7738