<?xml version="1.0"?>
<VTKFile type="UnstructuredGrid"  version="0.1"  >
<UnstructuredGrid>
<Piece  NumberOfPoints="651" NumberOfCells="1200">
<Points>
<DataArray  type="Float64"  NumberOfComponents="3"  format="ascii">0 0 0  50000 0 0  100000 0 0  150000 0 0  200000 0 0  250000 0 0  300000 0 0  350000 0 0  400000 0 0  450000 0 0  500000 0 0  550000 0 0  600000 0 0  650000 0 0  700000 0 0  750000 0 0  800000 0 0  850000 0 0  900000 0 0  950000 0 0  1000000 0 0  0 50000 0  50000 50000 0  100000 50000 0  150000 50000 0  200000 50000 0  250000 50000 0  300000 50000 0  350000 50000 0  400000 50000 0  450000 50000 0  500000 50000 0  550000 50000 0  600000 50000 0  650000 50000 0  700000 50000 0  750000 50000 0  800000 50000 0  850000 50000 0  900000 50000 0  950000 50000 0  1000000 50000 0  0 100000 0  50000 100000 0  100000 100000 0  150000 100000 0  200000 100000 0  250000 100000 0  300000 100000 0  350000 100000 0  400000 100000 0  450000 100000 0  500000 100000 0  550000 100000 0  600000 100000 0  650000 100000 0  700000 100000 0  750000 100000 0  800000 100000 0  850000 100000 0  900000 100000 0  950000 100000 0  1000000 100000 0  0 150000 0  50000 150000 0  100000 150000 0  150000 150000 0  200000 150000 0  250000 150000 0  300000 150000 0  350000 150000 0  400000 150000 0  450000 150000 0  500000 150000 0  550000 150000 0  600000 150000 0  650000 150000 0  700000 150000 0  750000 150000 0  800000 150000 0  850000 150000 0  900000 150000 0  950000 150000 0  1000000 150000 0  0 200000 0  50000 200000 0  100000 200000 0  150000 200000 0  200000 200000 0  250000 200000 0  300000 200000 0  350000 200000 0  400000 200000 0  450000 200000 0  500000 200000 0  550000 200000 0  600000 200000 0  650000 200000 0  700000 200000 0  750000 200000 0  800000 200000 0  850000 200000 0  900000 200000 0  950000 200000 0  1000000 200000 0  0 250000 0  50000 250000 0  100000 250000 0  150000 250000 0  200000 250000 0  250000 250000 0  300000 250000 0  350000 250000 0  400000 250000 0  450000 250000 0  500000 250000 0  550000 250000 0  600000 250000 0  650000 250000 0  700000 250000 0  750000 250000 0  800000 250000 0  850000 250000 0  900000 250000 0  950000 250000 0  1000000 250000 0  0 300000 0  50000 300000 0  100000 300000 0  150000 300000 0  200000 300000 0  250000 300000 0  300000 300000 0  350000 300000 0  400000 300000 0  450000 300000 0  500000 300000 0  550000 300000 0  600000 300000 0  650000 300000 0  700000 300000 0  750000 300000 0  800000 300000 0  850000 300000 0  900000 300000 0  950000 300000 0  1000000 300000 0  0 350000 0  50000 350000 0  100000 350000 0  150000 350000 0  200000 350000 0  250000 350000 0  300000 350000 0  350000 350000 0  400000 350000 0  450000 350000 0  500000 350000 0  550000 350000 0  600000 350000 0  650000 350000 0  700000 350000 0  750000 350000 0  800000 350000 0  850000 350000 0  900000 350000 0  950000 350000 0  1000000 350000 0  0 400000 0  50000 400000 0  100000 400000 0  150000 400000 0  200000 400000 0  250000 400000 0  300000 400000 0  350000 400000 0  400000 400000 0  450000 400000 0  500000 400000 0  550000 400000 0  600000 400000 0  650000 400000 0  700000 400000 0  750000 400000 0  800000 400000 0  850000 400000 0  900000 400000 0  950000 400000 0  1000000 400000 0  0 450000 0  50000 450000 0  100000 450000 0  150000 450000 0  200000 450000 0  250000 450000 0  300000 450000 0  350000 450000 0  400000 450000 0  450000 450000 0  500000 450000 0  550000 450000 0  600000 450000 0  650000 450000 0  700000 450000 0  750000 450000 0  800000 450000 0  850000 450000 0  900000 450000 0  950000 450000 0  1000000 450000 0  0 500000 0  50000 500000 0  100000 500000 0  150000 500000 0  200000 500000 0  250000 500000 0  300000 500000 0  350000 500000 0  400000 500000 0  450000 500000 0  500000 500000 0  550000 500000 0  600000 500000 0  650000 500000 0  700000 500000 0  750000 500000 0  800000 500000 0  850000 500000 0  900000 500000 0  950000 500000 0  1000000 500000 0  0 550000 0  50000 550000 0  100000 550000 0  150000 550000 0  200000 550000 0  250000 550000 0  300000 550000 0  350000 550000 0  400000 550000 0  450000 550000 0  500000 550000 0  550000 550000 0  600000 550000 0  650000 550000 0  700000 550000 0  750000 550000 0  800000 550000 0  850000 550000 0  900000 550000 0  950000 550000 0  1000000 550000 0  0 600000 0  50000 600000 0  100000 600000 0  150000 600000 0  200000 600000 0  250000 600000 0  300000 600000 0  350000 600000 0  400000 600000 0  450000 600000 0  500000 600000 0  550000 600000 0  600000 600000 0  650000 600000 0  700000 600000 0  750000 600000 0  800000 600000 0  850000 600000 0  900000 600000 0  950000 600000 0  1000000 600000 0  0 650000 0  50000 650000 0  100000 650000 0  150000 650000 0  200000 650000 0  250000 650000 0  300000 650000 0  350000 650000 0  400000 650000 0  450000 650000 0  500000 650000 0  550000 650000 0  600000 650000 0  650000 650000 0  700000 650000 0  750000 650000 0  800000 650000 0  850000 650000 0  900000 650000 0  950000 650000 0  1000000 650000 0  0 700000 0  50000 700000 0  100000 700000 0  150000 700000 0  200000 700000 0  250000 700000 0  300000 700000 0  350000 700000 0  400000 700000 0  450000 700000 0  500000 700000 0  550000 700000 0  600000 700000 0  650000 700000 0  700000 700000 0  750000 700000 0  800000 700000 0  850000 700000 0  900000 700000 0  950000 700000 0  1000000 700000 0  0 750000 0  50000 750000 0  100000 750000 0  150000 750000 0  200000 750000 0  250000 750000 0  300000 750000 0  350000 750000 0  400000 750000 0  450000 750000 0  500000 750000 0  550000 750000 0  600000 750000 0  650000 750000 0  700000 750000 0  750000 750000 0  800000 750000 0  850000 750000 0  900000 750000 0  950000 750000 0  1000000 750000 0  0 800000 0  50000 800000 0  100000 800000 0  150000 800000 0  200000 800000 0  250000 800000 0  300000 800000 0  350000 800000 0  400000 800000 0  450000 800000 0  500000 800000 0  550000 800000 0  600000 800000 0  650000 800000 0  700000 800000 0  750000 800000 0  800000 800000 0  850000 800000 0  900000 800000 0  950000 800000 0  1000000 800000 0  0 850000 0  50000 850000 0  100000 850000 0  150000 850000 0  200000 850000 0  250000 850000 0  300000 850000 0  350000 850000 0  400000 850000 0  450000 850000 0  500000 850000 0  550000 850000 0  600000 850000 0  650000 850000 0  700000 850000 0  750000 850000 0  800000 850000 0  850000 850000 0  900000 850000 0  950000 850000 0  1000000 850000 0  0 900000 0  50000 900000 0  100000 900000 0  150000 900000 0  200000 900000 0  250000 900000 0  300000 900000 0  350000 900000 0  400000 900000 0  450000 900000 0  500000 900000 0  550000 900000 0  600000 900000 0  650000 900000 0  700000 900000 0  750000 900000 0  800000 900000 0  850000 900000 0  900000 900000 0  950000 900000 0  1000000 900000 0  0 950000 0  50000 950000 0  100000 950000 0  150000 950000 0  200000 950000 0  250000 950000 0  300000 950000 0  350000 950000 0  400000 950000 0  450000 950000 0  500000 950000 0  550000 950000 0  600000 950000 0  650000 950000 0  700000 950000 0  750000 950000 0  800000 950000 0  850000 950000 0  900000 950000 0  950000 950000 0  1000000 950000 0  0 1000000 0  50000 1000000 0  100000 1000000 0  150000 1000000 0  200000 1000000 0  250000 1000000 0  300000 1000000 0  350000 1000000 0  400000 1000000 0  450000 1000000 0  500000 1000000 0  550000 1000000 0  600000 1000000 0  650000 1000000 0  700000 1000000 0  750000 1000000 0  800000 1000000 0  850000 1000000 0  900000 1000000 0  950000 1000000 0  1000000 1000000 0  0 1050000 0  50000 1050000 0  100000 1050000 0  150000 1050000 0  200000 1050000 0  250000 1050000 0  300000 1050000 0  350000 1050000 0  400000 1050000 0  450000 1050000 0  500000 1050000 0  550000 1050000 0  600000 1050000 0  650000 1050000 0  700000 1050000 0  750000 1050000 0  800000 1050000 0  850000 1050000 0  900000 1050000 0  950000 1050000 0  1000000 1050000 0  0 1100000 0  50000 1100000 0  100000 1100000 0  150000 1100000 0  200000 1100000 0  250000 1100000 0  300000 1100000 0  350000 1100000 0  400000 1100000 0  450000 1100000 0  500000 1100000 0  550000 1100000 0  600000 1100000 0  650000 1100000 0  700000 1100000 0  750000 1100000 0  800000 1100000 0  850000 1100000 0  900000 1100000 0  950000 1100000 0  1000000 1100000 0  0 1150000 0  50000 1150000 0  100000 1150000 0  150000 1150000 0  200000 1150000 0  250000 1150000 0  300000 1150000 0  350000 1150000 0  400000 1150000 0  450000 1150000 0  500000 1150000 0  550000 1150000 0  600000 1150000 0  650000 1150000 0  700000 1150000 0  750000 1150000 0  800000 1150000 0  850000 1150000 0  900000 1150000 0  950000 1150000 0  1000000 1150000 0  0 1200000 0  50000 1200000 0  100000 1200000 0  150000 1200000 0  200000 1200000 0  250000 1200000 0  300000 1200000 0  350000 1200000 0  400000 1200000 0  450000 1200000 0  500000 1200000 0  550000 1200000 0  600000 1200000 0  650000 1200000 0  700000 1200000 0  750000 1200000 0  800000 1200000 0  850000 1200000 0  900000 1200000 0  950000 1200000 0  1000000 1200000 0  0 1250000 0  50000 1250000 0  100000 1250000 0  150000 1250000 0  200000 1250000 0  250000 1250000 0  300000 1250000 0  350000 1250000 0  400000 1250000 0  450000 1250000 0  500000 1250000 0  550000 1250000 0  600000 1250000 0  650000 1250000 0  700000 1250000 0  750000 1250000 0  800000 1250000 0  850000 1250000 0  900000 1250000 0  950000 1250000 0  1000000 1250000 0  0 1300000 0  50000 1300000 0  100000 1300000 0  150000 1300000 0  200000 1300000 0  250000 1300000 0  300000 1300000 0  350000 1300000 0  400000 1300000 0  450000 1300000 0  500000 1300000 0  550000 1300000 0  600000 1300000 0  650000 1300000 0  700000 1300000 0  750000 1300000 0  800000 1300000 0  850000 1300000 0  900000 1300000 0  950000 1300000 0  1000000 1300000 0  0 1350000 0  50000 1350000 0  100000 1350000 0  150000 1350000 0  200000 1350000 0  250000 1350000 0  300000 1350000 0  350000 1350000 0  400000 1350000 0  450000 1350000 0  500000 1350000 0  550000 1350000 0  600000 1350000 0  650000 1350000 0  700000 135
[...]
<PointData  Vectors="f_2995"> 
<DataArray  type="Float64"  Name="f_2995"  NumberOfComponents="3" format="ascii">-1.6394620653204405e-10 1.3272798539559660e-10 0.0000000000000000e+00  -3.0036965044134466e-10 1.0561743268372129e-10 0.0000000000000000e+00  -5.4345686236098169e-10 9.3405812260133856e-11 0.0000000000000000e+00  -7.7849069367661448e-10 8.2901386535639518e-11 0.0000000000000000e+00  -9.9368723637638335e-10 7.1141446461804913e-11 0.0000000000000000e+00  -1.1827724221887500e-09 5.7702929466022264e-11 0.0000000000000000e+00  -1.3406576279583619e-09 4.2663963261672310e-11 0.0000000000000000e+00  -1.4632329985948698e-09 2.6283613305177017e-11 0.0000000000000000e+00  -1.5473599572822135e-09 8.9164252921716543e-12 0.0000000000000000e+00  -1.5909250085247754e-09 -9.0274201142584664e-12 0.0000000000000000e+00  -1.5928848474888787e-09 -2.7106391659188064e-11 0.0000000000000000e+00  -1.5532882070971780e-09 -4.4865724877591348e-11 0.0000000000000000e+00  -1.4732715746613044e-09 -6.1852981243178376e-11 0.0000000000000000e+00  -1.3550286207001626e-09 -7.7632904141705865e-11 0.0000000000000000e+00  -1.2017585723541184e-09 -9.1803931834314267e-11 0.0000000000000000e+00  -1.0176265854477933e-09 -1.0402380567206187e-10 0.0000000000000000e+00  -8.0791012711841089e-10 -1.1407088603318514e-10 0.0000000000000000e+00  -5.8012887127505680e-10 -1.2201407064143724e-10 0.0000000000000000e+00  -3.4939832210363048e-10 -1.2805865831839062e-10 0.0000000000000000e+00  -1.6116561247747204e-10 -1.2332242040035409e-10 0.0000000000000000e+00  -8.1673509705064408e-11 -8.1535017444884510e-11 0.0000000000000000e+00  -1.4062411541463719e-10 2.5845098581302783e-10 0.0000000000000000e+00  -2.4718784504693089e-10 2.3802861538855945e-10 0.0000000000000000e+00  -4.3673438202105600e-10 2.4757854929911859e-10 0.0000000000000000e+00  -6.4965605781310676e-10 2.3556702339470659e-10 0.0000000000000000e+00  -8.5310957306904212e-10 2.1404695904492613e-10 0.0000000000000000e+00  -1.0362819372810001e-09 1.8582674794051018e-10 0.0000000000000000e+00  -1.1932270484622480e-09 1.5230644531193777e-10 0.0000000000000000e+00  -1.3194543247915068e-09 1.1460592873518835e-10 0.0000000000000000e+00  -1.4115223860344469e-09 7.3817688210687161e-11 0.0000000000000000e+00  -1.4670002120954765e-09 3.1062343656935756e-11 0.0000000000000000e+00  -1.4844765466376830e-09 -1.2511060826856731e-11 0.0000000000000000e+00  -1.4635720178547741e-09 -5.5742077687358587e-11 0.0000000000000000e+00  -1.4049393446756662e-09 -9.7481341695846084e-11 0.0000000000000000e+00  -1.3102475774901074e-09 -1.3661364812917988e-10 0.0000000000000000e+00  -1.1821546585984473e-09 -1.7207779972592315e-10 0.0000000000000000e+00  -1.0242907649527556e-09 -2.0287635147938523e-10 0.0000000000000000e+00  -8.4134395691447029e-10 -2.2804970488917298e-10 0.0000000000000000e+00  -6.3964612684519744e-10 -2.4646094832721321e-10 0.0000000000000000e+00  -4.2993964180684485e-10 -2.5544885175230073e-10 0.0000000000000000e+00  -2.3865404428624780e-10 -2.4479367099596439e-10 0.0000000000000000e+00  -1.2689954045736826e-10 -1.5547217915948151e-10 0.0000000000000000e+00  -1.3914514180124019e-10 4.8091656289133446e-10 0.0000000000000000e+00  -2.5199836089653954e-10 4.2719434117360551e-10 0.0000000000000000e+00  -4.3139619833905158e-10 4.3595743000977514e-10 0.0000000000000000e+00  -6.2574064317669813e-10 4.1819638933096672e-10 0.0000000000000000e+00  -8.1282495127040468e-10 3.8311020133040762e-10 0.0000000000000000e+00  -9.8275877659099759e-10 3.3523424423825840e-10 0.0000000000000000e+00  -1.1290916265315869e-09 2.7737843448365849e-10 0.0000000000000000e+00  -1.2472036544720959e-09 2.1174791415160090e-10 0.0000000000000000e+00  -1.3336631007511057e-09 1.4039313932030147e-10 0.0000000000000000e+00  -1.3860707565033316e-09 6.5357746295851498e-11 0.0000000000000000e+00  -1.4030321296438928e-09 -1.1290848626313212e-11 0.0000000000000000e+00  -1.3841525489736941e-09 -8.7475343893636404e-11 0.0000000000000000e+00  -1.3300302971280505e-09 -1.6113811362127557e-10 0.0000000000000000e+00  -1.2422413860520173e-09 -2.3027276926790722e-10 0.0000000000000000e+00  -1.1233190876380222e-09 -2.9294630085770897e-10 0.0000000000000000e+00  -9.7674801945134623e-10 -3.4729211668288087e-10 0.0000000000000000e+00  -8.0704624050341160e-10 -3.9142336968452887e-10 0.0000000000000000e+00  -6.2020699364585428e-10 -4.2312418230127193e-10 0.0000000000000000e+00  -4.2552569847984258e-10 -4.3894168204646528e-10 0.0000000000000000e+00  -2.4426033281703695e-10 -4.3192580886574774e-10 0.0000000000000000e+00  -1.3317849196253441e-10 -3.2926970544153502e-10 0.0000000000000000e+00  -1.4463072743539324e-10 6.9975656749514666e-10 0.0000000000000000e+00  -2.5167731267854582e-10 6.3276694562431159e-10 0.0000000000000000e+00  -4.2788695590499395e-10 6.3121075644711101e-10 0.0000000000000000e+00  -6.1505993297248143e-10 6.0416225279160450e-10 0.0000000000000000e+00  -7.9306595453825786e-10 5.5461286250657577e-10 0.0000000000000000e+00  -9.5419149788517468e-10 4.8677463745083072e-10 0.0000000000000000e+00  -1.0929600247346685e-09 4.0423143864605093e-10 0.0000000000000000e+00  -1.2050336681703385e-09 3.1014349458122051e-10 0.0000000000000000e+00  -1.2870887045766137e-09 2.0752913032183065e-10 0.0000000000000000e+00  -1.3367838474199840e-09 9.9395258936465431e-11 0.0000000000000000e+00  -1.3527502298132893e-09 -1.1228953258842116e-11 0.0000000000000000e+00  -1.3345870191914061e-09 -1.2130798466790589e-10 0.0000000000000000e+00  -1.2828517440488149e-09 -2.2783725176682893e-10 0.0000000000000000e+00  -1.1990408640522058e-09 -3.2788509723616089e-10 0.0000000000000000e+00  -1.0855605630373798e-09 -4.1862621700371152e-10 0.0000000000000000e+00  -9.4569610656895780e-10 -4.9735050942544794e-10 0.0000000000000000e+00  -7.8362109377307076e-10 -5.6142549201598625e-10 0.0000000000000000e+00  -6.0464812744953077e-10 -6.0819872828106477e-10 0.0000000000000000e+00  -4.1674789157428977e-10 -6.3481851330265556e-10 0.0000000000000000e+00  -2.3970043374535414e-10 -6.3696877136724831e-10 0.0000000000000000e+00  -1.3366342160910389e-10 -5.4037755420121631e-10 0.0000000000000000e+00  -1.5375366550577636e-10 9.1388546187749586e-10 0.0000000000000000e+00  -2.5243946624546745e-10 8.3912036285684593e-10 0.0000000000000000e+00  -4.2669927905890357e-10 8.2656974463684369e-10 0.0000000000000000e+00  -6.1158116666102167e-10 7.8762900046800699e-10 0.0000000000000000e+00  -7.8593233937202617e-10 7.2266676640958743e-10 0.0000000000000000e+00  -9.4274448050457386e-10 6.3492023235988943e-10 0.0000000000000000e+00  -1.0773077617412859e-09 5.2819430946339634e-10 0.0000000000000000e+00  -1.1857508586896114e-09 4.0633528135755681e-10 0.0000000000000000e+00  -1.2649854362915677e-09 2.7321302061811722e-10 0.0000000000000000e+00  -1.3127847820349876e-09 1.3274655513642740e-10 0.0000000000000000e+00  -1.3278307203834632e-09 -1.1101240796660252e-11 0.0000000000000000e+00  -1.3097296998397787e-09 -1.5435895822331253e-10 0.0000000000000000e+00  -1.2590081237771779e-09 -2.9309952889952096e-10 0.0000000000000000e+00  -1.1770898960725856e-09 -4.2349976429784347e-10 0.0000000000000000e+00  -1.0662558909304749e-09 -5.4189846056298112e-10 0.0000000000000000e+00  -9.2958910400337489e-10 -6.4484893581842430e-10 0.0000000000000000e+00  -7.7094588166443717e-10 -7.2917360911471174e-10 0.0000000000000000e+00  -5.9519999733664994e-10 -7.9205674726377220e-10 0.0000000000000000e+00  -4.1002556541540459e-10 -8.3111448066134397e-10 0.0000000000000000e+00  -2.3611348022423741e-10 -8.4278931307086912e-10 0.0000000000000000e+00  -1.3799588920487332e-10 -7.5347438130652284e-10 0.0000000000000000e+00  -1.6592401921739388e-10 1.1259734353137662e-09 0.0000000000000000e+00  -2.5576075985704869e-10 1.0451768130987234e-09 0.0000000000000000e+00  -4.2907014694699035e-10 1.0224582429158930e-09 0.0000000000000000e+00  -6.1420266528223515e-10 9.7046514600014454e-10 0.0000000000000000e+00  -7.8824666209594152e-10 8.8907589452439866e-10 0.0000000000000000e+00  -9.4402643189817552e-10 7.8100161399532830e-10 0.0000000000000000e+00  -1.0771392735644510e-09 6.5012642278085785e-10 0.0000000000000000e+00  -1.1840437434325331e-09 5.0079859033414643e-10 0.0000000000000000e+00  -1.2618825888986830e-09 3.3761639569557348e-10 0.0000000000000000e+00  -1.3085677833902043e-09 1.6533617621966708e-10 0.0000000000000000e+00  -1.3228534548505878e-09 -1.1194392578574637e-11 0.0000000000000000e+00  -1.3043700879254377e-09 -1.8710619727976038e-10 0.0000000000000000e+00  -1.2536280915904180e-09 -3.5758632326386517e-10 0.0000000000000000e+00  -1.1719968073839827e-09 -5.1796203558554741e-10 0.0000000000000000e+00  -1.0616610270684085e-09 -6.6379039663615616e-10 0.0000000000000000e+00  -9.2556320307604114e-10 -7.9095780695667947e-10 0.0000000000000000e+00  -7.6739051710020712e-10 -8.9580436649616216e-10 0.0000000000000000e+00  -5.9191890306091756e-10 -9.7529315155305871e-10 0.0000000000000000e+00  -4.0714752072752613e-10 -1.0270567804787025e-09 0.0000000000000000e+00  -2.3534333413392277e-10 -1.0474012626599965e-09 0.0000000000000000e+00  -1.4571502057188490e-10 -9.6337195366272675e-10 0.0000000000000000e+00  -1.8094070237639122e-10 1.3384327198661039e-09 0.0000000000000000e+00  -2.6168065973932040e-10 1.2523075251776569e-09 0.0000000000000000e+00  -4.3503033566946011e-10 1.2201564295248653e-09 0.0000000000000000e+00  -6.2202592645156809e-10 1.1547505088792548e-09 0.0000000000000000e+00  -7.9780979309137935e-10 1.0561654494372007e-09 0.0000000000000000e+00  -9.5470737777491478e-10 9.2712132192294500e-10 0.0000000000000000e+00  -1.0883129931790123e-09 7.7170499670643064e-10 0.0000000000000000e+00  -1.1952342195228721e-09 5.9473106413670681e-10 0.0000000000000000e+00  -1.2727731283812369e-09 4.0145920086883110e-10 0.0000000000000000e+00  -1.3189639050360894e-09 1.9742383184014514e-10 0.0000000000000000e+00  -1.3326382785199560e-09 -1.1689753804159202e-11 0.0000000000000000e+00  -1.3134634494937431e-09 -2.2015380139404633e-10 0.0000000000000000e+00  -1.2619508932184522e-09 -4.2230434492021760e-10 0.0000000000000000e+00  -1.1794405669625031e-09 -6.1265166576017063e-10 0.0000000000000000e+00  -1.0680645346731968e-09 -7.8600000256084734e-10 0.0000000000000000e+00  -9.3070465712849583e-10 -9.3758352680338946e-10 0.0000000000000000e+00  -7.7102154784408150e-10 -1.0632279964903304e-09 0.0000000000000000e+00  -5.9391304868749651e-10 -1.1595319960543998e-09 0.0000000000000000e+00  -4.0795131306245906e-10 -1.2238446296172308e-09 0.0000000000000000e+00  -2.3721245469211493e-10 -1.2520600318357785e-09 0.0000000000000000e+00  -1.5637410720074639e-10 -1.1712813188166875e-09 0.0000000000000000e+00  -1.9872078337490522e-10 1.5530687520245439e-09 0.0000000000000000e+00  -2.6976581774785032e-10 1.4619775840307013e-09 0.0000000000000000e+00  -4.4382974181575930e-10 1.4208939482109116e-09 0.0000000000000000e+00  -6.3369210830058008e-10 1.3419371678564425e-09 0.0000000000000000e+00  -8.1239387998266141e-10 1.2255846481357585e-09 0.0000000000000000e+00  -9.7165575525954171e-10 1.0748823382601207e-09 0.0000000000000000e+00  -1.1069220256882558e-09 8.9429981396584495e-10 0.0000000000000000e+00  -1.2148281549285620e-09 6.8917344951030429e-10 0.0000000000000000e+00  -1.2927659577687753e-09 4.6541771409032181e-10 0.0000000000000000e+00  -1.3388640416706611e-09 2.2931613775003338e-10 0.0000000000000000e+00  -1.3520275888029335e-09 -1.2642588905299574e-11 0.0000000000000000e+00  -1.3319674886956481e-09 -2.5390497334015933e-10 0.0000000000000000e+00  -1.2792096100551515e-09 -4.8798424557055981e-10 0.0000000000000000e+00  -1.1950859847234728e-09 -7.0859366852453183e-10 0.0000000000000000e+00  -1.0817123186386158e-09 -9.0979012931444499e-10 0.0000000000000000e+00  -9.4197031221395381e-10 -1.0861349785872279e-09 0.0000000000000000e+00  -7.7958312950148771e-10 -1.2328747010332817e-09 0.0000000000000000e+00  -5.9967564823430233e-10 -1.3461196776335220e-09 0.0000000000000000e+00  -4.1148931944963374e-10 -1.4227826176336809e-09 0.0000000000000000e+00  -2.4112099248514013e-10 -1.4582859088821311e-09 0.0000000000000000e+00  -1.6978929191889395e-10 -1.3792103384775612e-09 0.0000000000000000e+00  -2.1924498096471352e-10 1.7709225836036957e-09 0.0000000000000000e+00  -2.7937071423952005e-10 1.6752035031136030e-09 0.0000000000000000e+00  -4.5427385063608469e-10 1.6254736410562694e-09 0.0000000000000000e+00  -6.4738115581123554e-10 1.5328286367444220e-09 0.0000000000000000e+00  -8.2943890813239398e-10 1.3982115636843545e-09 0.0000000000000000e+00  -9.9152914034596383e-10 1.2251664176357166e-09 0.0000000000000000e+00  -1.1288999243279363e-09 1.0186969093094170e-09 0.0000000000000000e+00  -1.2381640445431361e-09 7.8474606097729159e-10 0.0000000000000000e+00  -1.3167687096590960e-09 5.2991266358913765e-10 0.0000000000000000e+00  -1.3629225282799772e-09 2.6122474021480275e-10 0.0000000000000000e+00  -1.3756028647787883e-09 -1.4047482772147423e-11 0.0000000000000000e+00  -1.3545685116675622e-09 -2.8855213673885049e-10 0.0000000000000000e+00  -1.3003655539791773e-09 -5.5500346335821851e-10 0.0000000000000000e+00  -1.2143263334320676e-09 -8.0632984957739539e-10 0.0000000000000000e+00  -1.0985649395027835e-09 -1.0358331964607987e-09 0.0000000000000000e+00  -9.5598821954444130e-10 -1.2373666910075455e-09 0.0000000000000000e+00  -7.9041676894397360e-10 -1.4055297848139650e-09 0.0000000000000000e+00  -6.0723936156671504e-10 -1.5358527141214358e-09 0.0000000000000000e+00  -4.1641835545929923e-10 -1.6247325452188158e-09 0.0000000000000000e+00  -2.4631728841985436e-10 -1.6671170216257320e-09 0.0000000000000000e+00  -1.8588471335387253e-10 -1.5886850449961310e-09 0.0000000000000000e+00  -2.4252974451192543e-10 1.9921682120178081e-09 0.0000000000000000e+00  -2.8970141993789395e-10 1.8923204561376260e-09 0.0000000000000000e+00  -4.6483686682979120e-10 1.8340689888632968e-09 0.0000000000000000e+00  -6.6082917457757523e-10 1.7275350806697156e-09 0.0000000000000000e+00  -8.4591116144365550e-10 1.5741661096730680e-09 0.0000000000000000e+00  -1.0105152368264794e-09 1.3781137256903778e-09 0.0000000000000000e+00  -1.1497054292192772e-09 1.1450346967653687e-09 0.0000000000000000e+00  -1.2600808614494051e-09 8.8156458554351035e-10 0.0000000000000000e+00  -1.3391542801610294e-09 5.9502887502250905e-10 0.0000000000000000e+00  -1.3852271428391807e-09 2.9320564098906335e-10 0.0000000000000000e+00  -1.3973606172895296e-09 -1.5872064509283621e-11 0.0000000000000000e+00  -1.3753666756943831e-09 -3.2408342162587076e-10 0.0000000000000000e+00  -1.3198079662764705e-09 -6.2337081260161318e-10 0.0000000000000000e+00  -1.2320057924294729e-09 -9.0589090982919504e-10 0.0000000000000000e+00  -1.1140577113965676e-09 -1.1641805466406907e-09 0.0000000000000000e+00  -9.6888173529183515e-10 -1.3913463836400566e-09 0.0000000000000000e+00  -8.0038527217536485e-10 -1.5812766947595810e-09 0.0000000000000000e+00  -6.1421762597225428e-10 -1.7288465604477271e-09 0.0000000000000000e+00  -4.2110059349620745e-10 -1.8298823370056082e-09 0.0000000000000000e+00  -2.5193121646854070e-10 -1.8788612750378748e-09 0.0000000000000000e+00  -2.0463708891053845e-10 -1.8004532816769869e-09 0.0000000000000000e+00  -2.6861066963492358e-10 2.2159887102464681e-09 0.0000000000000000e+00  -2.9981339005276784e-10 2.1128122658961641e-09 0.0000000000000000e+00  -4.7366607786508612e-10 2.0460515850189523e-09 0.0000000000000000e+00  -6.7128867309828536e-10 1.9253624938312059e-09 0.0000000000000000e+00  -8.5817552003956976e-10 1.7527528668120554e-09 0.0000000000000000e+00  -1.0241129466108516e-09 1.5330774442020831e-09 0.0000000000000000e+00  -1.1640348209904583e-09 1.2727505174792800e-09 0.0000000000000000e+00  -1.2745876183873921e-09 9.7918100883304345e-10 0.0000000000000000e+00  -1.3534072840073609e-09 6.6046212013826484e-10 0.0000000000000000e+00  -1.3989361622003252e-09 3.2512290027940916e-10 0.0000000000000000e+00  -1.4103507870852786e-09 -1.8070092869397659e-11 0.0000000000000000e+00  -1.3875257850651506e-09 -3.6027149070662277e-10 0.0000000000000000e+00  -1.3310258143899659e-09 -6.9269447604834544e-10 0.0000000000000000e+00  -1.2421253221950412e-09 -1.0067494050386279e-09 0.0000000000000000e+00  -1.1228549988131460e-09 -1.2942047937310860e-09 0.0000000000000000e+00  -9.7608796493219354e-10 -1.5473844744476961e-09 0.0000000000000000e+00  -8.0576607776481851e-10 -1.7594014615628519e-09 0.0000000000000000e+00  -6.1776468895663610e-10 -1.9244004734296309e-09 0.0000000000000000e+00  -4.2359401965480559e-10 -2.0375786989578913e-09 0.0000000000000000e+00  -2.5695628514387189e-10 -2.0929383872123642e-09 0.0000000000000000e+00  -2.2605537308178366e-10 -2.0143592945295021e-09 0.0000000000000000e+00  -2.9753186762594021e-10 2.4404122069493599e-09 0.0000000000000000e+00  -3.0858259817754656e-10 2.3351356075414587e-09 0.0000000000000000e+00  -4.7853272751843165e-10 2.2598057330220681e-09 0.0000000000000000e+00  -6.7543880251023500e-10 2.1246486902573395e-09 0.0000000000000000e+00  -8.6184101445160590e-10 1.9323278477284225e-09 0.0000000000000000e+00  -1.0269029639257272e-09 1.6885118802849514e-09 0.0000000000000000e+00  -1.1655238796933991e-09 1.4004815255984600e-09 0.0000000000000000e+00  -1.2745120658020095e-09 1.0764980582141204e-09 0.0000000000000000e+00  -1.3517372272864576e-09 7.2545418610777800e-10 0.0000000000000000e+00  -1.3958731123579880e-09 3.5661233070541214e-10 0.0000000000000000e+00  -1.4062691093380703e-09 -2.0583932549876626e-11 0.0000000000000000e+00  -1.3828785247590814e-09 -3.9664128837403883e-10 0.0000000000000000e+00  -1.3262405443956501e-09 -7.6211817268050469e-10 0.0000000000000000e+00  -1.2375168179251678e-09 -1.1077298607286688e-09 0.0000000000000000e+00  -1.1185781069956194e-09 -1.4244891127045657e-09 0.0000000000000000e+00  -9.7214808750743140e-10 -1.7039048136205714e-09 0.0000000000000000e+00  -8.0210514240333873e-10 -1.9382439812156855e-09 0.0000000000000000e+00  -6.1448280949068674e-10 -2.1208302500661166e-09 0.0000000000000000e+00  -4.2159431347224345e-10 -2.2461518302615684e-09 0.0000000000000000e+00  -2.6021334911820288e-10 -2.3077154869002903e-09 0.0000000000000000e+00  -2.5017063412771784e-10 -2.2292137165277613e-09 0.0000000000000000e+00  -3.2933963598653856e-10 2.6620995786285250e-09 0.0000000000000000e+00  -3.1466365546160832e-10 2.5565124772601398e-09 0.0000000000000000e+00  -4.7675223162213048e-10 2.4725095575602133e-09 0.0000000000000000e+00  -6.6925652101383291e-10 2.3225472156020023e-09 0.0000000000000000e+00  -8.5156862022088560e-10 2.1100965663281988e-09 0.0000000000000000e+00  -1.0122833685804136e-09 1.8417896406450679e-09 0.0000000000000000e+00  -1.1464127936582507e-09 1.5259046302139747e-09 0.0000000000000000e+00  -1.2511055852752215e-09 1.1716383297713111e-09 0.0000000000000000e+00  -1.3246396917277745e-09 7.8869982954136003e-10 0.0000000000000000e+00  -1.3660631732963772e-09 3.8703436151855553e-10 0.0000000000000000e+00  -1.3749884113290658e-09 -2.3340891283456919e-11 0.0000000000000000e+00  -1.3514719268686755e-09 -4.3241529234746372e-10 0.0000000000000000e+00  -1.2959836630041617e-09 -8.3021965474030734e-10 0.0000000000000000e+00  -1.2094683325461413e-09 -1.2068682679818455e-09 0.0000000000000000e+00  -1.0934897892744729e-09 -1.5526569190187626e-09 0.0000000000000000e+00  -9.5045708458019528e-10 -1.8582532074170172e-09 0.0000000000000000e+00  -7.8403053755921651e-10 -2.1149928114500202e-09 0.0000000000000000e+00  -6.0029145108401321e-10 -2.3152566433498752e-09 0.0000000000000000e+00  -4.1234895014022821e-10 -2.4527060217664855e-09 0.0000000000000000e+00  -2.6030353826115626e-10 -2.5203077455737124e-09 0.0000000000000000e+00  -2.7702976002648357e-10 -2.4426231605742726e-09 0.0000000000000000e+00  -3.6408119388071663e-10 2.8760767501198217e-09 0.0000000000000000e+00  -3.1643988707640242e-10 2.7726768203134736e-09 0.0000000000000000e+00  -4.6508251612508510e-10 2.6798676862511827e-09 0.0000000000000000e+00  -6.4785338744594482e-10 2.5147518461989727e-09 0.0000000000000000e+00  -8.2083556141159457e-10 2.2818412511474108e-09 0.0000000000000000e+00  -9.721