<?xml version="1.0"?>
<VTKFile type="UnstructuredGrid"  version="0.1"  >
<UnstructuredGrid>
<Piece  NumberOfPoints="651" NumberOfCells="1200">
<Points>
<DataArray  type="Float64"  NumberOfComponents="3"  format="ascii">0 0 0  50000 0 0  100000 0 0  150000 0 0  200000 0 0  250000 0 0  300000 0 0  350000 0 0  400000 0 0  450000 0 0  500000 0 0  550000 0 0  600000 0 0  650000 0 0  700000 0 0  750000 0 0  800000 0 0  850000 0 0  900000 0 0  950000 0 0  1000000 0 0  0 50000 0  50000 50000 0  100000 50000 0  150000 50000 0  200000 50000 0  250000 50000 0  300000 50000 0  350000 50000 0  400000 50000 0  450000 50000 0  500000 50000 0  550000 50000 0  600000 50000 0  650000 50000 0  700000 50000 0  750000 50000 0  800000 50000 0  850000 50000 0  900000 50000 0  950000 50000 0  1000000 50000 0  0 100000 0  50000 100000 0  100000 100000 0  150000 100000 0  200000 100000 0  250000 100000 0  300000 100000 0  350000 100000 0  400000 100000 0  450000 100000 0  500000 100000 0  550000 100000 0  600000 100000 0  650000 100000 0  700000 100000 0  750000 100000 0  800000 100000 0  850000 100000 0  900000 100000 0  950000 100000 0  1000000 100000 0  0 150000 0  50000 150000 0  100000 150000 0  150000 150000 0  200000 150000 0  250000 150000 0  300000 150000 0  350000 150000 0  400000 150000 0  450000 150000 0  500000 150000 0  550000 150000 0  600000 150000 0  650000 150000 0  700000 150000 0  750000 150000 0  800000 150000 0  850000 150000 0  900000 150000 0  950000 150000 0  1000000 150000 0  0 200000 0  50000 200000 0  100000 200000 0  150000 200000 0  200000 200000 0  250000 200000 0  300000 200000 0  350000 200000 0  400000 200000 0  450000 200000 0  500000 200000 0  550000 200000 0  600000 200000 0  650000 200000 0  700000 200000 0  750000 200000 0  800000 200000 0  850000 200000 0  900000 200000 0  950000 200000 0  1000000 200000 0  0 250000 0  50000 250000 0  100000 250000 0  150000 250000 0  200000 250000 0  250000 250000 0  300000 250000 0  350000 250000 0  400000 250000 0  450000 250000 0  500000 250000 0  550000 250000 0  600000 250000 0  650000 250000 0  700000 250000 0  750000 250000 0  800000 250000 0  850000 250000 0  900000 250000 0  950000 250000 0  1000000 250000 0  0 300000 0  50000 300000 0  100000 300000 0  150000 300000 0  200000 300000 0  250000 300000 0  300000 300000 0  350000 300000 0  400000 300000 0  450000 300000 0  500000 300000 0  550000 300000 0  600000 300000 0  650000 300000 0  700000 300000 0  750000 300000 0  800000 300000 0  850000 300000 0  900000 300000 0  950000 300000 0  1000000 300000 0  0 350000 0  50000 350000 0  100000 350000 0  150000 350000 0  200000 350000 0  250000 350000 0  300000 350000 0  350000 350000 0  400000 350000 0  450000 350000 0  500000 350000 0  550000 350000 0  600000 350000 0  650000 350000 0  700000 350000 0  750000 350000 0  800000 350000 0  850000 350000 0  900000 350000 0  950000 350000 0  1000000 350000 0  0 400000 0  50000 400000 0  100000 400000 0  150000 400000 0  200000 400000 0  250000 400000 0  300000 400000 0  350000 400000 0  400000 400000 0  450000 400000 0  500000 400000 0  550000 400000 0  600000 400000 0  650000 400000 0  700000 400000 0  750000 400000 0  800000 400000 0  850000 400000 0  900000 400000 0  950000 400000 0  1000000 400000 0  0 450000 0  50000 450000 0  100000 450000 0  150000 450000 0  200000 450000 0  250000 450000 0  300000 450000 0  350000 450000 0  400000 450000 0  450000 450000 0  500000 450000 0  550000 450000 0  600000 450000 0  650000 450000 0  700000 450000 0  750000 450000 0  800000 450000 0  850000 450000 0  900000 450000 0  950000 450000 0  1000000 450000 0  0 500000 0  50000 500000 0  100000 500000 0  150000 500000 0  200000 500000 0  250000 500000 0  300000 500000 0  350000 500000 0  400000 500000 0  450000 500000 0  500000 500000 0  550000 500000 0  600000 500000 0  650000 500000 0  700000 500000 0  750000 500000 0  800000 500000 0  850000 500000 0  900000 500000 0  950000 500000 0  1000000 500000 0  0 550000 0  50000 550000 0  100000 550000 0  150000 550000 0  200000 550000 0  250000 550000 0  300000 550000 0  350000 550000 0  400000 550000 0  450000 550000 0  500000 550000 0  550000 550000 0  600000 550000 0  650000 550000 0  700000 550000 0  750000 550000 0  800000 550000 0  850000 550000 0  900000 550000 0  950000 550000 0  1000000 550000 0  0 600000 0  50000 600000 0  100000 600000 0  150000 600000 0  200000 600000 0  250000 600000 0  300000 600000 0  350000 600000 0  400000 600000 0  450000 600000 0  500000 600000 0  550000 600000 0  600000 600000 0  650000 600000 0  700000 600000 0  750000 600000 0  800000 600000 0  850000 600000 0  900000 600000 0  950000 600000 0  1000000 600000 0  0 650000 0  50000 650000 0  100000 650000 0  150000 650000 0  200000 650000 0  250000 650000 0  300000 650000 0  350000 650000 0  400000 650000 0  450000 650000 0  500000 650000 0  550000 650000 0  600000 650000 0  650000 650000 0  700000 650000 0  750000 650000 0  800000 650000 0  850000 650000 0  900000 650000 0  950000 650000 0  1000000 650000 0  0 700000 0  50000 700000 0  100000 700000 0  150000 700000 0  200000 700000 0  250000 700000 0  300000 700000 0  350000 700000 0  400000 700000 0  450000 700000 0  500000 700000 0  550000 700000 0  600000 700000 0  650000 700000 0  700000 700000 0  750000 700000 0  800000 700000 0  850000 700000 0  900000 700000 0  950000 700000 0  1000000 700000 0  0 750000 0  50000 750000 0  100000 750000 0  150000 750000 0  200000 750000 0  250000 750000 0  300000 750000 0  350000 750000 0  400000 750000 0  450000 750000 0  500000 750000 0  550000 750000 0  600000 750000 0  650000 750000 0  700000 750000 0  750000 750000 0  800000 750000 0  850000 750000 0  900000 750000 0  950000 750000 0  1000000 750000 0  0 800000 0  50000 800000 0  100000 800000 0  150000 800000 0  200000 800000 0  250000 800000 0  300000 800000 0  350000 800000 0  400000 800000 0  450000 800000 0  500000 800000 0  550000 800000 0  600000 800000 0  650000 800000 0  700000 800000 0  750000 800000 0  800000 800000 0  850000 800000 0  900000 800000 0  950000 800000 0  1000000 800000 0  0 850000 0  50000 850000 0  100000 850000 0  150000 850000 0  200000 850000 0  250000 850000 0  300000 850000 0  350000 850000 0  400000 850000 0  450000 850000 0  500000 850000 0  550000 850000 0  600000 850000 0  650000 850000 0  700000 850000 0  750000 850000 0  800000 850000 0  850000 850000 0  900000 850000 0  950000 850000 0  1000000 850000 0  0 900000 0  50000 900000 0  100000 900000 0  150000 900000 0  200000 900000 0  250000 900000 0  300000 900000 0  350000 900000 0  400000 900000 0  450000 900000 0  500000 900000 0  550000 900000 0  600000 900000 0  650000 900000 0  700000 900000 0  750000 900000 0  800000 900000 0  850000 900000 0  900000 900000 0  950000 900000 0  1000000 900000 0  0 950000 0  50000 950000 0  100000 950000 0  150000 950000 0  200000 950000 0  250000 950000 0  300000 950000 0  350000 950000 0  400000 950000 0  450000 950000 0  500000 950000 0  550000 950000 0  600000 950000 0  650000 950000 0  700000 950000 0  750000 950000 0  800000 950000 0  850000 950000 0  900000 950000 0  950000 950000 0  1000000 950000 0  0 1000000 0  50000 1000000 0  100000 1000000 0  150000 1000000 0  200000 1000000 0  250000 1000000 0  300000 1000000 0  350000 1000000 0  400000 1000000 0  450000 1000000 0  500000 1000000 0  550000 1000000 0  600000 1000000 0  650000 1000000 0  700000 1000000 0  750000 1000000 0  800000 1000000 0  850000 1000000 0  900000 1000000 0  950000 1000000 0  1000000 1000000 0  0 1050000 0  50000 1050000 0  100000 1050000 0  150000 1050000 0  200000 1050000 0  250000 1050000 0  300000 1050000 0  350000 1050000 0  400000 1050000 0  450000 1050000 0  500000 1050000 0  550000 1050000 0  600000 1050000 0  650000 1050000 0  700000 1050000 0  750000 1050000 0  800000 1050000 0  850000 1050000 0  900000 1050000 0  950000 1050000 0  1000000 1050000 0  0 1100000 0  50000 1100000 0  100000 1100000 0  150000 1100000 0  200000 1100000 0  250000 1100000 0  300000 1100000 0  350000 1100000 0  400000 1100000 0  450000 1100000 0  500000 1100000 0  550000 1100000 0  600000 1100000 0  650000 1100000 0  700000 1100000 0  750000 1100000 0  800000 1100000 0  850000 1100000 0  900000 1100000 0  950000 1100000 0  1000000 1100000 0  0 1150000 0  50000 1150000 0  100000 1150000 0  150000 1150000 0  200000 1150000 0  250000 1150000 0  300000 1150000 0  350000 1150000 0  400000 1150000 0  450000 1150000 0  500000 1150000 0  550000 1150000 0  600000 1150000 0  650000 1150000 0  700000 1150000 0  750000 1150000 0  800000 1150000 0  850000 1150000 0  900000 1150000 0  950000 1150000 0  1000000 1150000 0  0 1200000 0  50000 1200000 0  100000 1200000 0  150000 1200000 0  200000 1200000 0  250000 1200000 0  300000 1200000 0  350000 1200000 0  400000 1200000 0  450000 1200000 0  500000 1200000 0  550000 1200000 0  600000 1200000 0  650000 1200000 0  700000 1200000 0  750000 1200000 0  800000 1200000 0  850000 1200000 0  900000 1200000 0  950000 1200000 0  1000000 1200000 0  0 1250000 0  50000 1250000 0  100000 1250000 0  150000 1250000 0  200000 1250000 0  250000 1250000 0  300000 1250000 0  350000 1250000 0  400000 1250000 0  450000 1250000 0  500000 1250000 0  550000 1250000 0  600000 1250000 0  650000 1250000 0  700000 1250000 0  750000 1250000 0  800000 1250000 0  850000 1250000 0  900000 1250000 0  950000 1250000 0  1000000 1250000 0  0 1300000 0  50000 1300000 0  100000 1300000 0  150000 1300000 0  200000 1300000 0  250000 1300000 0  300000 1300000 0  350000 1300000 0  400000 1300000 0  450000 1300000 0  500000 1300000 0  550000 1300000 0  600000 1300000 0  650000 1300000 0  700000 1300000 0  750000 1300000 0  800000 1300000 0  850000 1300000 0  900000 1300000 0  950000 1300000 0  1000000 1300000 0  0 1350000 0  50000 1350000 0  100000 1350000 0  150000 1350000 0  200000 1350000 0  250000 1350000 0  300000 1350000 0  350000 1350000 0  400000 1350000 0  450000 1350000 0  500000 1350000 0  550000 1350000 0  600000 1350000 0  650000 1350000 0  700000 135
[...]
<PointData  Vectors="f_2995"> 
<DataArray  type="Float64"  Name="f_2995"  NumberOfComponents="3" format="ascii">-1.6389812984181196e-10 1.3766347127976922e-10 0.0000000000000000e+00  -3.0094774069454778e-10 1.1182589166575672e-10 0.0000000000000000e+00  -5.4420336919706587e-10 1.0168939955189640e-10 0.0000000000000000e+00  -7.7914859443831416e-10 9.2821306533037410e-11 0.0000000000000000e+00  -9.9424742032446619e-10 8.2248760531328424e-11 0.0000000000000000e+00  -1.1832453774678594e-09 6.9700670273862067e-11 0.0000000000000000e+00  -1.3410568203411361e-09 5.5332840292603828e-11 0.0000000000000000e+00  -1.4635671297438513e-09 3.9444093445951776e-11 0.0000000000000000e+00  -1.5476300357521876e-09 2.2413134219226417e-11 0.0000000000000000e+00  -1.5911240039370083e-09 4.6654221154080877e-12 0.0000000000000000e+00  -1.5929982629388913e-09 -1.3348565652691210e-11 0.0000000000000000e+00  -1.5532950639397251e-09 -3.1170213835688444e-11 0.0000000000000000e+00  -1.4731457594598285e-09 -4.8347771415962142e-11 0.0000000000000000e+00  -1.3547407694653036e-09 -6.4451044783885491e-11 0.0000000000000000e+00  -1.2012788497502325e-09 -7.9087865438402051e-11 0.0000000000000000e+00  -1.0169287998030121e-09 -9.1929351503985605e-11 0.0000000000000000e+00  -8.0697740576249029e-10 -1.0277004649998244e-10 0.0000000000000000e+00  -5.7895937011209499e-10 -1.1169575846948023e-10 0.0000000000000000e+00  -3.4799244435881554e-10 -1.1892108934195472e-10 0.0000000000000000e+00  -1.5943146108382875e-10 -1.1545783254831629e-10 0.0000000000000000e+00  -8.0058535895605620e-11 -7.4137561512404911e-11 0.0000000000000000e+00  -1.3914010002147816e-10 2.6373204361606484e-10 0.0000000000000000e+00  -2.4763518154494479e-10 2.4155100339387926e-10 0.0000000000000000e+00  -4.3813763195972703e-10 2.4990424696693719e-10 0.0000000000000000e+00  -6.5182103802110491e-10 2.3760118741396588e-10 0.0000000000000000e+00  -8.5553586809562967e-10 2.1608090325939679e-10 0.0000000000000000e+00  -1.0386186042728995e-09 1.8789165047470716e-10 0.0000000000000000e+00  -1.1952794468347446e-09 1.5439173078410311e-10 0.0000000000000000e+00  -1.3210918981662467e-09 1.1669564917190215e-10 0.0000000000000000e+00  -1.4126462583291822e-09 7.5894421583467647e-11 0.0000000000000000e+00  -1.4675351024678241e-09 3.3109008181239911e-11 0.0000000000000000e+00  -1.4843679307301161e-09 -1.0510245676953862e-11 0.0000000000000000e+00  -1.4627856928777732e-09 -5.3801027646372304e-11 0.0000000000000000e+00  -1.4034632891700473e-09 -9.5611254737889729e-11 0.0000000000000000e+00  -1.3080965491485057e-09 -1.3482119572189022e-10 0.0000000000000000e+00  -1.1793786739517540e-09 -1.7036137947533858e-10 0.0000000000000000e+00  -1.0209895044459401e-09 -2.0121856018648213e-10 0.0000000000000000e+00  -8.3768906557430137e-10 -2.2640267293974956e-10 0.0000000000000000e+00  -6.3590403350186986e-10 -2.4472031317500653e-10 0.0000000000000000e+00  -4.2646422875133506e-10 -2.5338540625720337e-10 0.0000000000000000e+00  -2.3626806687113095e-10 -2.4179658769422085e-10 0.0000000000000000e+00  -1.2530978457277019e-10 -1.4759306186574135e-10 0.0000000000000000e+00  -1.3546881092421696e-10 4.8775756852881235e-10 0.0000000000000000e+00  -2.5269722796139061e-10 4.3193592582775618e-10 0.0000000000000000e+00  -4.3387911329024217e-10 4.3843356115495206e-10 0.0000000000000000e+00  -6.2929128941639571e-10 4.1941169812040972e-10 0.0000000000000000e+00  -8.1699258284342540e-10 3.8362734899268466e-10 0.0000000000000000e+00  -9.8710141296200340e-10 3.3528980586545059e-10 0.0000000000000000e+00  -1.1332462940382153e-09 2.7708804037140149e-10 0.0000000000000000e+00  -1.2508939579059822e-09 2.1118373242800630e-10 0.0000000000000000e+00  -1.3366799658532154e-09 1.3960764984488611e-10 0.0000000000000000e+00  -1.3882588872004868e-09 6.4394223293810481e-11 0.0000000000000000e+00  -1.4042836011161586e-09 -1.2392256305694978e-11 0.0000000000000000e+00  -1.3844045475372471e-09 -8.8673129874676605e-11 0.0000000000000000e+00  -1.3292661112806639e-09 -1.6238468918035812e-10 0.0000000000000000e+00  -1.2404949685014402e-09 -2.3150791512873821e-10 0.0000000000000000e+00  -1.1206841106455371e-09 -2.9408679253160176e-10 0.0000000000000000e+00  -9.7339270191919563e-10 -3.4821409740863313e-10 0.0000000000000000e+00  -8.0323497201869007e-10 -3.9193079428474146e-10 0.0000000000000000e+00  -6.1633025817352958e-10 -4.2288885517360033e-10 0.0000000000000000e+00  -4.2214228262936659e-10 -4.3737612035878248e-10 0.0000000000000000e+00  -2.4248070658121298e-10 -4.2843074817896418e-10 0.0000000000000000e+00  -1.3274623714039204e-10 -3.1984638816723803e-10 0.0000000000000000e+00  -1.3910173319379723e-10 7.0849907940197491e-10 0.0000000000000000e+00  -2.5244835843567503e-10 6.3905336889978340e-10 0.0000000000000000e+00  -4.3109848271945665e-10 6.3489249987506681e-10 0.0000000000000000e+00  -6.1950748467194868e-10 6.0611007564879489e-10 0.0000000000000000e+00  -7.9825867822666415e-10 5.5531910257640593e-10 0.0000000000000000e+00  -9.5966761046586415e-10 4.8656089256626236e-10 0.0000000000000000e+00  -1.0982994997838516e-09 4.0330693316834437e-10 0.0000000000000000e+00  -1.2098855135162469e-09 3.0865967036416029e-10 0.0000000000000000e+00  -1.2911754083511037e-09 2.0560738557527605e-10 0.0000000000000000e+00  -1.3398981223815270e-09 9.7141271147834576e-11 0.0000000000000000e+00  -1.3547512808691567e-09 -1.3716081788945934e-11 0.0000000000000000e+00  -1.3353987366412916e-09 -1.2392816580747921e-10 0.0000000000000000e+00  -1.2824636697611797e-09 -2.3048118485143634e-10 0.0000000000000000e+00  -1.1975125788982478e-09 -3.3042336459217672e-10 0.0000000000000000e+00  -1.0830301912034671e-09 -4.2089323371638761e-10 0.0000000000000000e+00  -9.4239343677611951e-10 -4.9911951565184432e-10 0.0000000000000000e+00  -7.7988491205139060e-10 -5.6236836824947155e-10 0.0000000000000000e+00  -6.0094429787274429e-10 -6.0782413797474992e-10 0.0000000000000000e+00  -4.1366640240878160e-10 -6.3241046223082585e-10 0.0000000000000000e+00  -2.3834120504815051e-10 -6.3220106263300317e-10 0.0000000000000000e+00  -1.3422860929921819e-10 -5.2941713735521531e-10 0.0000000000000000e+00  -1.4669534308701966e-10 9.2471638428971212e-10 0.0000000000000000e+00  -2.5314884124496297e-10 8.4729952737112782e-10 0.0000000000000000e+00  -4.3035572949949649e-10 8.3167898436274615e-10 0.0000000000000000e+00  -6.1666186921413104e-10 7.9058215802256589e-10 0.0000000000000000e+00  -7.9185193614643236e-10 7.2388634395313141e-10 0.0000000000000000e+00  -9.4901123235509809e-10 6.3474493766627286e-10 0.0000000000000000e+00  -1.0834712964749868e-09 5.2689745594803640e-10 0.0000000000000000e+00  -1.1914221307477593e-09 4.0414455537893675e-10 0.0000000000000000e+00  -1.2698497810416404e-09 2.7032654199685818e-10 0.0000000000000000e+00  -1.3166056808499709e-09 1.2934459411865789e-10 0.0000000000000000e+00  -1.3304498172062001e-09 -1.4846794343103761e-11 0.0000000000000000e+00  -1.3110663351318588e-09 -1.5827530409923779e-10 0.0000000000000000e+00  -1.2590601622913210e-09 -2.9700203599835057e-10 0.0000000000000000e+00  -1.1759368469029574e-09 -4.2717762390417117e-10 0.0000000000000000e+00  -1.0640646934959593e-09 -5.4509481180907776e-10 0.0000000000000000e+00  -9.2662198445088246e-10 -6.4723285668279788e-10 0.0000000000000000e+00  -7.6756751279869130e-10 -7.3030183313556970e-10 0.0000000000000000e+00  -5.9187638008166096e-10 -7.9133176945726738e-10 0.0000000000000000e+00  -4.0729972434343081e-10 -8.2779276470216422e-10 0.0000000000000000e+00  -2.3509418223822787e-10 -8.3675879788185468e-10 0.0000000000000000e+00  -1.3939900731793644e-10 -7.4102371299392457e-10 0.0000000000000000e+00  -1.5755212557575826e-10 1.1390727749932820e-09 0.0000000000000000e+00  -2.5643372243308068e-10 1.0555186224099586e-09 0.0000000000000000e+00  -4.3308946346463041e-10 1.0291503572974823e-09 0.0000000000000000e+00  -6.1978234159160002e-10 9.7452451466575246e-10 0.0000000000000000e+00  -7.9473253961249654e-10 8.9090105954462473e-10 0.0000000000000000e+00  -9.5089553272951987e-10 7.8094407165051383e-10 0.0000000000000000e+00  -1.0839212471101799e-09 6.4851177824286265e-10 0.0000000000000000e+00  -1.1903313408627049e-09 4.9792723383414687e-10 0.0000000000000000e+00  -1.2673449438700445e-09 3.3376712469978911e-10 0.0000000000000000e+00  -1.3129569341520543e-09 1.6077191562542997e-10 0.0000000000000000e+00  -1.3260062510300381e-09 -1.6219263262684995e-11 0.0000000000000000e+00  -1.3062082004585383e-09 -1.9233647493686988e-10 0.0000000000000000e+00  -1.2541579634563735e-09 -3.6275371426127976e-10 0.0000000000000000e+00  -1.1713105059205511e-09 -5.2276893509036685e-10 0.0000000000000000e+00  -1.0599380398837506e-09 -6.6788861564653976e-10 0.0000000000000000e+00  -9.2307191926259379e-10 -7.9392159884633924e-10 0.0000000000000000e+00  -7.6448602551836192e-10 -8.9709968899453125e-10 0.0000000000000000e+00  -5.8903172229533686e-10 -9.7425693924627543e-10 0.0000000000000000e+00  -4.0476597472347011e-10 -1.0229456069734557e-09 0.0000000000000000e+00  -2.3460889358855429e-10 -1.0402292619612174e-09 0.0000000000000000e+00  -1.4779666387467057e-10 -9.4947492778063520e-10 0.0000000000000000e+00  -1.7143816104365792e-10 1.3539887389569190e-09 0.0000000000000000e+00  -2.6236625430211481e-10 1.2649895855730266e-09 0.0000000000000000e+00  -4.3940670514617418e-10 1.2285550239003275e-09 0.0000000000000000e+00  -6.2805469029710924e-10 1.1599808465666924e-09 0.0000000000000000e+00  -8.0477939455638881e-10 1.0586328492208393e-09 0.0000000000000000e+00  -9.6206823360063650e-10 9.2720382620508991e-10 0.0000000000000000e+00  -1.0955819382542649e-09 7.6978281208055291e-10 0.0000000000000000e+00  -1.2019979160515830e-09 5.9117854730479645e-10 0.0000000000000000e+00  -1.2786989003192868e-09 3.9663893209312380e-10 0.0000000000000000e+00  -1.3238057778122789e-09 1.9168605734250065e-10 0.0000000000000000e+00  -1.3362386068984860e-09 -1.8003082492678115e-11 0.0000000000000000e+00  -1.3157520492546358e-09 -2.2670083989892098e-10 0.0000000000000000e+00  -1.2629432050885363e-09 -4.2873103053296541e-10 0.0000000000000000e+00  -1.1792356488883363e-09 -6.1857509604257898e-10 0.0000000000000000e+00  -1.0668427902791894e-09 -7.9098756028062564e-10 0.0000000000000000e+00  -9.2872411760602208e-10 -9.4112876524251841e-10 0.0000000000000000e+00  -7.6861038779455210e-10 -1.0647274368926585e-09 0.0000000000000000e+00  -5.9145724495109747e-10 -1.1582780952917972e-09 0.0000000000000000e+00  -4.0589377063548086e-10 -1.2190908941014039e-09 0.0000000000000000e+00  -2.3673015326660698e-10 -1.2438736663191159e-09 0.0000000000000000e+00  -1.5898747901477439e-10 -1.1559929497277647e-09 0.0000000000000000e+00  -1.8827652240633778e-10 1.5712831686462305e-09 0.0000000000000000e+00  -2.7051696928776400e-10 1.4771549522399558e-09 0.0000000000000000e+00  -4.4858021864581209e-10 1.4310876524664964e-09 0.0000000000000000e+00  -6.4015481405713306e-10 1.3483747587269726e-09 0.0000000000000000e+00  -8.1980019721380668e-10 1.2286992292881517e-09 0.0000000000000000e+00  -9.7943166644167042e-10 1.0750954352138051e-09 0.0000000000000000e+00  -1.1145763648937389e-09 8.9205597147923774e-10 0.0000000000000000e+00  -1.2219499002742624e-09 6.8492667851909289e-10 0.0000000000000000e+00  -1.2990311821994789e-09 4.5961838828059800e-10 0.0000000000000000e+00  -1.3440393246533059e-09 2.2240483916079020e-10 0.0000000000000000e+00  -1.3559695241714199e-09 -2.0234548675171269e-11 0.0000000000000000e+00  -1.3346196435099295e-09 -2.6174917177067148e-10 0.0000000000000000e+00  -1.2805981520473778e-09 -4.9564356973026161e-10 0.0000000000000000e+00  -1.1953146442483602e-09 -7.1560616107852743e-10 0.0000000000000000e+00  -1.0809566791947470e-09 -9.1564920295229931e-10 0.0000000000000000e+00  -9.4047077556375523e-10 -1.0902679663206318e-09 0.0000000000000000e+00  -7.7763573793764120e-10 -1.2346244671345708e-09 0.0000000000000000e+00  -5.9762314627764746e-10 -1.3447434949325740e-09 0.0000000000000000e+00  -4.0973665434755448e-10 -1.4175198774460684e-09 0.0000000000000000e+00  -2.4086950514580303e-10 -1.4492079204841489e-09 0.0000000000000000e+00  -1.7280922976642359e-10 -1.3626065814761222e-09 0.0000000000000000e+00  -2.0807412586404124e-10 1.7920090351056794e-09 0.0000000000000000e+00  -2.8024251831849656e-10 1.6930285360452129e-09 0.0000000000000000e+00  -4.5941847749650562e-10 1.6375257480868933e-09 0.0000000000000000e+00  -6.5426797033722841e-10 1.5404807845944025e-09 0.0000000000000000e+00  -8.3723995572781234e-10 1.4019472132035296e-09 0.0000000000000000e+00  -9.9964602345132922e-10 1.2254704011079334e-09 0.0000000000000000e+00  -1.1368371209064458e-09 1.0160922902476753e-09 0.0000000000000000e+00  -1.2455196643649268e-09 7.7977565004674576e-10 0.0000000000000000e+00  -1.3232363730586071e-09 5.2312000100068283e-10 0.0000000000000000e+00  -1.3682905715923621e-09 2.5314313753858775e-10 0.0000000000000000e+00  -1.3797502785377872e-09 -2.2897647220741872e-11 0.0000000000000000e+00  -1.3574586907858583e-09 -2.9765888763070688e-10 0.0000000000000000e+00  -1.3020388693391056e-09 -5.6385259934554563e-10 0.0000000000000000e+00  -1.2148921326489474e-09 -8.1438941290980423e-10 0.0000000000000000e+00  -1.0981931573122351e-09 -1.0425345382723205e-09 0.0000000000000000e+00  -9.5490053224164329e-10 -1.2420844390346763e-09 0.0000000000000000e+00  -7.8887767526630992e-10 -1.4075651469155200e-09 0.0000000000000000e+00  -6.0555163326917842e-10 -1.5344327410965785e-09 0.0000000000000000e+00  -4.1495122395917583e-10 -1.6190737605345300e-09 0.0000000000000000e+00  -2.4628044788330250e-10 -1.6572671374186099e-09 0.0000000000000000e+00  -1.8921234711643314e-10 -1.5708641232440150e-09 0.0000000000000000e+00  -2.3088817000381866e-10 2.0163473350886715e-09 0.0000000000000000e+00  -2.9074962835480312e-10 1.9129407848182501e-09 0.0000000000000000e+00  -4.7038687589956223e-10 1.8480201244389755e-09 0.0000000000000000e+00  -6.6811689289819568e-10 1.7363776903419794e-09 0.0000000000000000e+00  -8.5404777875241342e-10 1.5784625359317461e-09 0.0000000000000000e+00  -1.0188781167357879e-09 1.3784359116958361e-09 0.0000000000000000e+00  -1.1577986330295043e-09 1.1420021677692901e-09 0.0000000000000000e+00  -1.2675185404394714e-09 8.7582091837202268e-10 0.0000000000000000e+00  -1.3456562470801349e-09 5.8721746374702583e-10 0.0000000000000000e+00  -1.3906125608237764e-09 2.8395474493259386e-10 0.0000000000000000e+00  -1.4015392440359584e-09 -2.5954614586397173e-11 0.0000000000000000e+00  -1.3783286403676523e-09 -3.3440710485731896e-10 0.0000000000000000e+00  -1.3216129626498728e-09 -6.3335240439458801e-10 0.0000000000000000e+00  -1.2327722613340149e-09 -9.1493916147974084e-10 0.0000000000000000e+00  -1.1139523452518232e-09 -1.1716773238064613e-09 0.0000000000000000e+00  -9.6810965622563278e-10 -1.3966265395614022e-09 0.0000000000000000e+00  -7.9918197326386704e-10 -1.5836105324478786e-09 0.0000000000000000e+00  -6.1284813876792905e-10 -1.7274361706434325e-09 0.0000000000000000e+00  -4.1989663793761430e-10 -1.8239183563097655e-09 0.0000000000000000e+00  -2.5209519169165049e-10 -1.8683562108761321e-09 0.0000000000000000e+00  -2.0820201526874002e-10 -1.7815334535995503e-09 0.0000000000000000e+00  -2.5680761227612479e-10 2.2434809806649428e-09 0.0000000000000000e+00  -3.0109305764192797e-10 2.1363623427483890e-09 0.0000000000000000e+00  -4.7961493884139153e-10 2.0619140966508012e-09 0.0000000000000000e+00  -6.7892667319858698e-10 1.9353343801391895e-09 0.0000000000000000e+00  -8.6655409847264485e-10 1.7575103864315622e-09 0.0000000000000000e+00  -1.0325873493256991e-09 1.5333082752274495e-09 0.0000000000000000e+00  -1.1721144482623654e-09 1.2691921725880848e-09 0.0000000000000000e+00  -1.2819110535809392e-09 9.7259212486583906e-10 0.0000000000000000e+00  -1.3597302181882269e-09 6.5159363823392897e-10 0.0000000000000000e+00  -1.4041183933750983e-09 3.1470007277611617e-10 0.0000000000000000e+00  -1.4143418925507624e-09 -2.9354624818304113e-11 0.0000000000000000e+00  -1.3903504029456826e-09 -3.7175514255659936e-10 0.0000000000000000e+00  -1.3327692982618470e-09 -7.0373456914310716e-10 0.0000000000000000e+00  -1.2429202583885655e-09 -1.0167072813022153e-09 0.0000000000000000e+00  -1.1228689503366360e-09 -1.3024260494123031e-09 0.0000000000000000e+00  -9.7551297048881026e-10 -1.5531773833253758e-09 0.0000000000000000e+00  -8.0481129049428921e-10 -1.7620168443295091e-09 0.0000000000000000e+00  -6.1665807705998395e-10 -1.9230233328127152e-09 0.0000000000000000e+00  -4.2262567453974811e-10 -2.0313771282072824e-09 0.0000000000000000e+00  -2.5730828988337663e-10 -2.0818899613095406e-09 0.0000000000000000e+00  -2.2981620793512629e-10 -1.9944755127830400e-09 0.0000000000000000e+00  -2.8594189288189269e-10 2.4714282553916198e-09 0.0000000000000000e+00  -3.1014643255882980e-10 2.3617239070251097e-09 0.0000000000000000e+00  -4.8484793987571773e-10 2.2775525455087421e-09 0.0000000000000000e+00  -6.8333672559076157e-10 2.1356423139003870e-09 0.0000000000000000e+00  -8.7031870004076827e-10 1.9374004050834778e-09 0.0000000000000000e+00  -1.0352992886319536e-09 1.6885006053318173e-09 0.0000000000000000e+00  -1.1733625770079315e-09 1.3962667678535679e-09 0.0000000000000000e+00  -1.2814671464232374e-09 1.0689695396562741e-09 0.0000000000000000e+00  -1.3576118096007696e-09 7.1547851227431353e-10 0.0000000000000000e+00  -1.4005786597430830e-09 3.4501324459386875e-10 0.0000000000000000e+00  -1.4098048757605379e-09 -3.3032770297344008e-11 0.0000000000000000e+00  -1.3853120578346264e-09 -4.0921310193204569e-10 0.0000000000000000e+00  -1.3276898123743996e-09 -7.7412173167712220e-10 0.0000000000000000e+00  -1.2381342546654623e-09 -1.1184920747082445e-09 0.0000000000000000e+00  -1.1185368085847653e-09 -1.4333334015982175e-09 0.0000000000000000e+00  -9.7163063944585417e-10 -1.7101270477076272e-09 0.0000000000000000e+00  -8.0129647944224840e-10 -1.9410886993786785e-09 0.0000000000000000e+00  -6.1357326132770236e-10 -2.1194767666272580e-09 0.0000000000000000e+00  -4.2082721815313111e-10 -2.2397550906440540e-09 0.0000000000000000e+00  -2.6074086180674421e-10 -2.2962274296116126e-09 0.0000000000000000e+00  -2.5411456182714003e-10 -2.2085140256615467e-09 0.0000000000000000e+00  -3.1841449071825942e-10 2.6968270789262070e-09 0.0000000000000000e+00  -3.1655932193446620e-10 2.5862041787746705e-09 0.0000000000000000e+00  -4.8336622756319159e-10 2.4920587588270666e-09 0.0000000000000000e+00  -6.7727181511241746e-10 2.3343964792640096e-09 0.0000000000000000e+00  -8.5993933458292847e-10 2.1152835947516383e-09 0.0000000000000000e+00  -1.0203430170295558e-09 1.8413402836403131e-09 0.0000000000000000e+00  -1.1537129509812623e-09 1.5208696690328382e-09 0.0000000000000000e+00  -1.2573701347316362e-09 1.1630554196134146e-09 0.0000000000000000e+00  -1.3297330353670038e-09 7.7755886577755418e-10 0.0000000000000000e+00  -1.3699607808260158e-09 3.7425780464164530e-10 0.0000000000000000e+00  -1.3777496498682517e-09 -3.6903761970005077e-11 0.0000000000000000e+00  -1.3532157849911522e-09 -4.4598300084836266e-10 0.0000000000000000e+00  -1.2968675850392377e-09 -8.4306474544709301e-10 0.0000000000000000e+00  -1.2096701047655836e-09 -1.2182973766688135e-09 0.0000000000000000e+00  -1.0931924084665492e-09 -1.5619864684848168e-09 0.0000000000000000e+00  -9.4983684754562704e-10 -1.8647822045046657e-09 0.0000000000000000e+00  -7.8324959548353403e-10 -2.1179749305834383e-09 0.0000000000000000e+00  -5.9950116725727670e-10 -2.3138806000302513e-09 0.0000000000000000e+00  -4.1174070354985365e-10 -2.4461285277904256e-09 0.0000000000000000e+00  -2.6099357227726051e-10 -2.5084716350819402e-09 0.0000000000000000e+00  -2.8117157316373168e-10 -2.4212649844473600e-09 0.0000000000000000e+00  -3.5436154631576240e-10 2.9146624686517026e-09 0.0000000000000000e+00  -3.1870549438333465e-10 2.8054712772064586e-09 0.0000000000000000e+00  -4.7188140660789299e-10 2.7010632910793977e-09 0.0000000000000000e+00  -6.5577745255917087e-10 2.5272178869557675e-09 0.0000000000000000e+00  -8.2881588827024295e-10 2.2868794168196872e-09 0.0000000000000000e+00  -9.7953