<?xml version="1.0"?>
<VTKFile type="UnstructuredGrid"  version="0.1"  >
<UnstructuredGrid>
<Piece  NumberOfPoints="651" NumberOfCells="1200">
<Points>
<DataArray  type="Float64"  NumberOfComponents="3"  format="ascii">0 0 0  50000 0 0  100000 0 0  150000 0 0  200000 0 0  250000 0 0  300000 0 0  350000 0 0  400000 0 0  450000 0 0  500000 0 0  550000 0 0  600000 0 0  650000 0 0  700000 0 0  750000 0 0  800000 0 0  850000 0 0  900000 0 0  950000 0 0  1000000 0 0  0 50000 0  50000 50000 0  100000 50000 0  150000 50000 0  200000 50000 0  250000 50000 0  300000 50000 0  350000 50000 0  400000 50000 0  450000 50000 0  500000 50000 0  550000 50000 0  600000 50000 0  650000 50000 0  700000 50000 0  750000 50000 0  800000 50000 0  850000 50000 0  900000 50000 0  950000 50000 0  1000000 50000 0  0 100000 0  50000 100000 0  100000 100000 0  150000 100000 0  200000 100000 0  250000 100000 0  300000 100000 0  350000 100000 0  400000 100000 0  450000 100000 0  500000 100000 0  550000 100000 0  600000 100000 0  650000 100000 0  700000 100000 0  750000 100000 0  800000 100000 0  850000 100000 0  900000 100000 0  950000 100000 0  1000000 100000 0  0 150000 0  50000 150000 0  100000 150000 0  150000 150000 0  200000 150000 0  250000 150000 0  300000 150000 0  350000 150000 0  400000 150000 0  450000 150000 0  500000 150000 0  550000 150000 0  600000 150000 0  650000 150000 0  700000 150000 0  750000 150000 0  800000 150000 0  850000 150000 0  900000 150000 0  950000 150000 0  1000000 150000 0  0 200000 0  50000 200000 0  100000 200000 0  150000 200000 0  200000 200000 0  250000 200000 0  300000 200000 0  350000 200000 0  400000 200000 0  450000 200000 0  500000 200000 0  550000 200000 0  600000 200000 0  650000 200000 0  700000 200000 0  750000 200000 0  800000 200000 0  850000 200000 0  900000 200000 0  950000 200000 0  1000000 200000 0  0 250000 0  50000 250000 0  100000 250000 0  150000 250000 0  200000 250000 0  250000 250000 0  300000 250000 0  350000 250000 0  400000 250000 0  450000 250000 0  500000 250000 0  550000 250000 0  600000 250000 0  650000 250000 0  700000 250000 0  750000 250000 0  800000 250000 0  850000 250000 0  900000 250000 0  950000 250000 0  1000000 250000 0  0 300000 0  50000 300000 0  100000 300000 0  150000 300000 0  200000 300000 0  250000 300000 0  300000 300000 0  350000 300000 0  400000 300000 0  450000 300000 0  500000 300000 0  550000 300000 0  600000 300000 0  650000 300000 0  700000 300000 0  750000 300000 0  800000 300000 0  850000 300000 0  900000 300000 0  950000 300000 0  1000000 300000 0  0 350000 0  50000 350000 0  100000 350000 0  150000 350000 0  200000 350000 0  250000 350000 0  300000 350000 0  350000 350000 0  400000 350000 0  450000 350000 0  500000 350000 0  550000 350000 0  600000 350000 0  650000 350000 0  700000 350000 0  750000 350000 0  800000 350000 0  850000 350000 0  900000 350000 0  950000 350000 0  1000000 350000 0  0 400000 0  50000 400000 0  100000 400000 0  150000 400000 0  200000 400000 0  250000 400000 0  300000 400000 0  350000 400000 0  400000 400000 0  450000 400000 0  500000 400000 0  550000 400000 0  600000 400000 0  650000 400000 0  700000 400000 0  750000 400000 0  800000 400000 0  850000 400000 0  900000 400000 0  950000 400000 0  1000000 400000 0  0 450000 0  50000 450000 0  100000 450000 0  150000 450000 0  200000 450000 0  250000 450000 0  300000 450000 0  350000 450000 0  400000 450000 0  450000 450000 0  500000 450000 0  550000 450000 0  600000 450000 0  650000 450000 0  700000 450000 0  750000 450000 0  800000 450000 0  850000 450000 0  900000 450000 0  950000 450000 0  1000000 450000 0  0 500000 0  50000 500000 0  100000 500000 0  150000 500000 0  200000 500000 0  250000 500000 0  300000 500000 0  350000 500000 0  400000 500000 0  450000 500000 0  500000 500000 0  550000 500000 0  600000 500000 0  650000 500000 0  700000 500000 0  750000 500000 0  800000 500000 0  850000 500000 0  900000 500000 0  950000 500000 0  1000000 500000 0  0 550000 0  50000 550000 0  100000 550000 0  150000 550000 0  200000 550000 0  250000 550000 0  300000 550000 0  350000 550000 0  400000 550000 0  450000 550000 0  500000 550000 0  550000 550000 0  600000 550000 0  650000 550000 0  700000 550000 0  750000 550000 0  800000 550000 0  850000 550000 0  900000 550000 0  950000 550000 0  1000000 550000 0  0 600000 0  50000 600000 0  100000 600000 0  150000 600000 0  200000 600000 0  250000 600000 0  300000 600000 0  350000 600000 0  400000 600000 0  450000 600000 0  500000 600000 0  550000 600000 0  600000 600000 0  650000 600000 0  700000 600000 0  750000 600000 0  800000 600000 0  850000 600000 0  900000 600000 0  950000 600000 0  1000000 600000 0  0 650000 0  50000 650000 0  100000 650000 0  150000 650000 0  200000 650000 0  250000 650000 0  300000 650000 0  350000 650000 0  400000 650000 0  450000 650000 0  500000 650000 0  550000 650000 0  600000 650000 0  650000 650000 0  700000 650000 0  750000 650000 0  800000 650000 0  850000 650000 0  900000 650000 0  950000 650000 0  1000000 650000 0  0 700000 0  50000 700000 0  100000 700000 0  150000 700000 0  200000 700000 0  250000 700000 0  300000 700000 0  350000 700000 0  400000 700000 0  450000 700000 0  500000 700000 0  550000 700000 0  600000 700000 0  650000 700000 0  700000 700000 0  750000 700000 0  800000 700000 0  850000 700000 0  900000 700000 0  950000 700000 0  1000000 700000 0  0 750000 0  50000 750000 0  100000 750000 0  150000 750000 0  200000 750000 0  250000 750000 0  300000 750000 0  350000 750000 0  400000 750000 0  450000 750000 0  500000 750000 0  550000 750000 0  600000 750000 0  650000 750000 0  700000 750000 0  750000 750000 0  800000 750000 0  850000 750000 0  900000 750000 0  950000 750000 0  1000000 750000 0  0 800000 0  50000 800000 0  100000 800000 0  150000 800000 0  200000 800000 0  250000 800000 0  300000 800000 0  350000 800000 0  400000 800000 0  450000 800000 0  500000 800000 0  550000 800000 0  600000 800000 0  650000 800000 0  700000 800000 0  750000 800000 0  800000 800000 0  850000 800000 0  900000 800000 0  950000 800000 0  1000000 800000 0  0 850000 0  50000 850000 0  100000 850000 0  150000 850000 0  200000 850000 0  250000 850000 0  300000 850000 0  350000 850000 0  400000 850000 0  450000 850000 0  500000 850000 0  550000 850000 0  600000 850000 0  650000 850000 0  700000 850000 0  750000 850000 0  800000 850000 0  850000 850000 0  900000 850000 0  950000 850000 0  1000000 850000 0  0 900000 0  50000 900000 0  100000 900000 0  150000 900000 0  200000 900000 0  250000 900000 0  300000 900000 0  350000 900000 0  400000 900000 0  450000 900000 0  500000 900000 0  550000 900000 0  600000 900000 0  650000 900000 0  700000 900000 0  750000 900000 0  800000 900000 0  850000 900000 0  900000 900000 0  950000 900000 0  1000000 900000 0  0 950000 0  50000 950000 0  100000 950000 0  150000 950000 0  200000 950000 0  250000 950000 0  300000 950000 0  350000 950000 0  400000 950000 0  450000 950000 0  500000 950000 0  550000 950000 0  600000 950000 0  650000 950000 0  700000 950000 0  750000 950000 0  800000 950000 0  850000 950000 0  900000 950000 0  950000 950000 0  1000000 950000 0  0 1000000 0  50000 1000000 0  100000 1000000 0  150000 1000000 0  200000 1000000 0  250000 1000000 0  300000 1000000 0  350000 1000000 0  400000 1000000 0  450000 1000000 0  500000 1000000 0  550000 1000000 0  600000 1000000 0  650000 1000000 0  700000 1000000 0  750000 1000000 0  800000 1000000 0  850000 1000000 0  900000 1000000 0  950000 1000000 0  1000000 1000000 0  0 1050000 0  50000 1050000 0  100000 1050000 0  150000 1050000 0  200000 1050000 0  250000 1050000 0  300000 1050000 0  350000 1050000 0  400000 1050000 0  450000 1050000 0  500000 1050000 0  550000 1050000 0  600000 1050000 0  650000 1050000 0  700000 1050000 0  750000 1050000 0  800000 1050000 0  850000 1050000 0  900000 1050000 0  950000 1050000 0  1000000 1050000 0  0 1100000 0  50000 1100000 0  100000 1100000 0  150000 1100000 0  200000 1100000 0  250000 1100000 0  300000 1100000 0  350000 1100000 0  400000 1100000 0  450000 1100000 0  500000 1100000 0  550000 1100000 0  600000 1100000 0  650000 1100000 0  700000 1100000 0  750000 1100000 0  800000 1100000 0  850000 1100000 0  900000 1100000 0  950000 1100000 0  1000000 1100000 0  0 1150000 0  50000 1150000 0  100000 1150000 0  150000 1150000 0  200000 1150000 0  250000 1150000 0  300000 1150000 0  350000 1150000 0  400000 1150000 0  450000 1150000 0  500000 1150000 0  550000 1150000 0  600000 1150000 0  650000 1150000 0  700000 1150000 0  750000 1150000 0  800000 1150000 0  850000 1150000 0  900000 1150000 0  950000 1150000 0  1000000 1150000 0  0 1200000 0  50000 1200000 0  100000 1200000 0  150000 1200000 0  200000 1200000 0  250000 1200000 0  300000 1200000 0  350000 1200000 0  400000 1200000 0  450000 1200000 0  500000 1200000 0  550000 1200000 0  600000 1200000 0  650000 1200000 0  700000 1200000 0  750000 1200000 0  800000 1200000 0  850000 1200000 0  900000 1200000 0  950000 1200000 0  1000000 1200000 0  0 1250000 0  50000 1250000 0  100000 1250000 0  150000 1250000 0  200000 1250000 0  250000 1250000 0  300000 1250000 0  350000 1250000 0  400000 1250000 0  450000 1250000 0  500000 1250000 0  550000 1250000 0  600000 1250000 0  650000 1250000 0  700000 1250000 0  750000 1250000 0  800000 1250000 0  850000 1250000 0  900000 1250000 0  950000 1250000 0  1000000 1250000 0  0 1300000 0  50000 1300000 0  100000 1300000 0  150000 1300000 0  200000 1300000 0  250000 1300000 0  300000 1300000 0  350000 1300000 0  400000 1300000 0  450000 1300000 0  500000 1300000 0  550000 1300000 0  600000 1300000 0  650000 1300000 0  700000 1300000 0  750000 1300000 0  800000 1300000 0  850000 1300000 0  900000 1300000 0  950000 1300000 0  1000000 1300000 0  0 1350000 0  50000 1350000 0  100000 1350000 0  150000 1350000 0  200000 1350000 0  250000 1350000 0  300000 1350000 0  350000 1350000 0  400000 1350000 0  450000 1350000 0  500000 1350000 0  550000 1350000 0  600000 1350000 0  650000 1350000 0  700000 135
[...]
<PointData  Vectors="f_2995"> 
<DataArray  type="Float64"  Name="f_2995"  NumberOfComponents="3" format="ascii">-1.6050355141276300e-10 1.5233103767372375e-10 0.0000000000000000e+00  -3.0038021525059956e-10 1.2643729561764636e-10 0.0000000000000000e+00  -5.5035260324573944e-10 1.1661916143870577e-10 0.0000000000000000e+00  -7.9447108831496293e-10 1.0811827733668990e-10 0.0000000000000000e+00  -1.0199036909761933e-09 9.7752014055275593e-11 0.0000000000000000e+00  -1.2191791776947676e-09 8.5245821621155165e-11 0.0000000000000000e+00  -1.3861867394197364e-09 7.0763742440317014e-11 0.0000000000000000e+00  -1.5159953981540581e-09 5.4615058012987231e-11 0.0000000000000000e+00  -1.6048565840752970e-09 3.7192679805150601e-11 0.0000000000000000e+00  -1.6502644385544886e-09 1.8941993981307135e-11 0.0000000000000000e+00  -1.6510059109082421e-09 3.3875434031841723e-13 0.0000000000000000e+00  -1.6071854622560368e-09 -1.8130033705666701e-11 0.0000000000000000e+00  -1.5202212629627525e-09 -3.5984460580918447e-11 0.0000000000000000e+00  -1.3928133977623808e-09 -5.2770528861962449e-11 0.0000000000000000e+00  -1.2288907879053095e-09 -6.8081160904416066e-11 0.0000000000000000e+00  -1.0335702161929615e-09 -8.1583616279928153e-11 0.0000000000000000e+00  -8.1329178550922343e-10 -9.3064721788768068e-11 0.0000000000000000e+00  -5.7687901454587074e-10 -1.0251231678783081e-10 0.0000000000000000e+00  -3.4062996323023663e-10 -1.0971410685032906e-10 0.0000000000000000e+00  -1.4953280356321931e-10 -1.0637678961492055e-10 0.0000000000000000e+00  -6.9287542240250825e-11 -6.5341477224171255e-11 0.0000000000000000e+00  -1.3601315635029027e-10 2.8035919519105089e-10 0.0000000000000000e+00  -2.5447409703860502e-10 2.5262474426747852e-10 0.0000000000000000e+00  -4.5603166442189159e-10 2.6085837476556824e-10 0.0000000000000000e+00  -6.7819648858201874e-10 2.5026782653785478e-10 0.0000000000000000e+00  -8.9071876267412268e-10 2.2926257371724957e-10 0.0000000000000000e+00  -1.0824577660512186e-09 2.0054083900169989e-10 0.0000000000000000e+00  -1.2467510562482411e-09 1.6567636052774132e-10 0.0000000000000000e+00  -1.3785577192729256e-09 1.2598565179403561e-10 0.0000000000000000e+00  -1.4740618068928664e-09 8.2747656056371289e-11 0.0000000000000000e+00  -1.5306100150335706e-09 3.7259963256824245e-11 0.0000000000000000e+00  -1.5467086671938353e-09 -9.1569713932035031e-12 0.0000000000000000e+00  -1.5220297013346624e-09 -5.5173886283602772e-11 0.0000000000000000e+00  -1.4574101786968504e-09 -9.9472615721891879e-11 0.0000000000000000e+00  -1.3548419387296171e-09 -1.4076535888842604e-10 0.0000000000000000e+00  -1.2174573159544152e-09 -1.7780638916470891e-10 0.0000000000000000e+00  -1.0495360792208027e-09 -2.0938214914024426e-10 0.0000000000000000e+00  -8.5662213995460640e-10 -2.3424094517385080e-10 0.0000000000000000e+00  -6.4608663209196021e-10 -2.5082042145110612e-10 0.0000000000000000e+00  -4.2959529889568493e-10 -2.5600091364505767e-10 0.0000000000000000e+00  -2.3465566707099449e-10 -2.3929268114485127e-10 0.0000000000000000e+00  -1.1564804351595045e-10 -1.3747773521991699e-10 0.0000000000000000e+00  -1.3340289823264822e-10 5.1038044590314399e-10 0.0000000000000000e+00  -2.6322021473818506e-10 4.4977950097470328e-10 0.0000000000000000e+00  -4.5879737183477115e-10 4.5628777735814365e-10 0.0000000000000000e+00  -6.6577833278310289e-10 4.3881067127034991e-10 0.0000000000000000e+00  -8.6318948939643546e-10 4.0293769715950928e-10 0.0000000000000000e+00  -1.0414278899062654e-09 3.5291292068326406e-10 0.0000000000000000e+00  -1.1940145594856818e-09 2.9176886317671586e-10 0.0000000000000000e+00  -1.3162126771931835e-09 2.2200947709000670e-10 0.0000000000000000e+00  -1.4045290227657839e-09 1.4597769534945601e-10 0.0000000000000000e+00  -1.4565798623507302e-09 6.5988935170751038e-11 0.0000000000000000e+00  -1.4710536256991563e-09 -1.5634058792993505e-11 0.0000000000000000e+00  -1.4476972092855243e-09 -9.6565822509704235e-11 0.0000000000000000e+00  -1.3873078713848762e-09 -1.7449636821865570e-10 0.0000000000000000e+00  -1.2917263527278447e-09 -2.4714827567470149e-10 0.0000000000000000e+00  -1.1638347185783361e-09 -3.1227790477516089e-10 0.0000000000000000e+00  -1.0075758132578820e-09 -3.6763548571393052e-10 0.0000000000000000e+00  -8.2805558041280282e-10 -4.1082966772031148e-10 0.0000000000000000e+00  -6.3198121742108761e-10 -4.3896717339443712e-10 0.0000000000000000e+00  -4.2949187860845244e-10 -4.4769413309273171e-10 0.0000000000000000e+00  -2.4317783659961521e-10 -4.2963213579702698e-10 0.0000000000000000e+00  -1.2386033033599590e-10 -3.0677748411831223e-10 0.0000000000000000e+00  -1.3825524131272174e-10 7.4182939974808383e-10 0.0000000000000000e+00  -2.6537065288155375e-10 6.7031918592571406e-10 0.0000000000000000e+00  -4.5959394358589572e-10 6.6539119551073467e-10 0.0000000000000000e+00  -6.6157972453497263e-10 6.3627685398588396e-10 0.0000000000000000e+00  -8.5134898020154273e-10 5.8353258498058471e-10 0.0000000000000000e+00  -1.0212368546345370e-09 5.1112332951233395e-10 0.0000000000000000e+00  -1.1659666737844306e-09 4.2287413554225507e-10 0.0000000000000000e+00  -1.2814060553869616e-09 3.2229298882582520e-10 0.0000000000000000e+00  -1.3644430290383762e-09 2.1273992891575156e-10 0.0000000000000000e+00  -1.4129590834594987e-09 9.7532273939435521e-11 0.0000000000000000e+00  -1.4258119582098601e-09 -2.0017644259839046e-11 0.0000000000000000e+00  -1.4028232987564294e-09 -1.3660257370038975e-10 0.0000000000000000e+00  -1.3447688414017780e-09 -2.4893595152766649e-10 0.0000000000000000e+00  -1.2533700994009432e-09 -3.5376729839249786e-10 0.0000000000000000e+00  -1.1312875860598397e-09 -4.4788256114978486e-10 0.0000000000000000e+00  -9.8212062053384891e-10 -5.2807068814452820e-10 0.0000000000000000e+00  -8.1044904602729630e-10 -5.9103293788372483e-10 0.0000000000000000e+00  -6.2211929905712174e-10 -6.3322325182047844e-10 0.0000000000000000e+00  -4.2579103161015067e-10 -6.5061007942386078e-10 0.0000000000000000e+00  -2.4256535855352553e-10 -6.3837456432081689e-10 0.0000000000000000e+00  -1.2677184074266524e-10 -5.1495418905033970e-10 0.0000000000000000e+00  -1.4691729343018319e-10 9.7312157441446297e-10 0.0000000000000000e+00  -2.6888227992074656e-10 8.9412577329296070e-10 0.0000000000000000e+00  -4.6247534784157125e-10 8.7707721082962681e-10 0.0000000000000000e+00  -6.6321675680406554e-10 8.3324587096505352e-10 0.0000000000000000e+00  -8.5008860765870862e-10 7.6188475491056776e-10 0.0000000000000000e+00  -1.0159440890148977e-09 6.6645605903520499e-10 0.0000000000000000e+00  -1.1562941363051676e-09 5.5114820117681450e-10 0.0000000000000000e+00  -1.2676302486192713e-09 4.2020905380397812e-10 0.0000000000000000e+00  -1.3472634437102808e-09 2.7786705274202508e-10 0.0000000000000000e+00  -1.3933537148020466e-09 1.2834299473724817e-10 0.0000000000000000e+00  -1.4049288691368593e-09 -2.4142905334644383e-11 0.0000000000000000e+00  -1.3818854805960324e-09 -1.7537980529888864e-10 0.0000000000000000e+00  -1.3249822151497962e-09 -3.2118442899456714e-10 0.0000000000000000e+00  -1.2358294456609183e-09 -4.5742007218902514e-10 0.0000000000000000e+00  -1.1168741861838280e-09 -5.8000856938577485e-10 0.0000000000000000e+00  -9.7138110333006448e-10 -6.8493041374617588e-10 0.0000000000000000e+00  -8.0344526148937864e-10 -7.6822014230785434e-10 0.0000000000000000e+00  -6.1827994245963675e-10 -8.2599836610230429e-10 0.0000000000000000e+00  -4.2402351319652519e-10 -8.5452133386875960e-10 0.0000000000000000e+00  -2.4271585003053117e-10 -8.4984396610595228e-10 0.0000000000000000e+00  -1.3303522687959614e-10 -7.2906360614935412e-10 0.0000000000000000e+00  -1.5870544042509517e-10 1.2064965699002502e-09 0.0000000000000000e+00  -2.7502328520981958e-10 1.1195761151429094e-09 0.0000000000000000e+00  -4.6895104548269238e-10 1.0905142267985652e-09 0.0000000000000000e+00  -6.7050083862010871e-10 1.0304174122737202e-09 0.0000000000000000e+00  -8.5720392575939027e-10 9.3897997857890465e-10 0.0000000000000000e+00  -1.0218379782154655e-09 8.1967725882188129e-10 0.0000000000000000e+00  -1.1602910389656950e-09 6.7703486213231210e-10 0.0000000000000000e+00  -1.2695009711954311e-09 5.1590036865030019e-10 0.0000000000000000e+00  -1.3471507257393413e-09 3.4124165308514149e-10 0.0000000000000000e+00  -1.3916696764067713e-09 1.5807664352611072e-10 0.0000000000000000e+00  -1.4022554699167413e-09 -2.8559862719366971e-11 0.0000000000000000e+00  -1.3788809913914613e-09 -2.1364202148360561e-10 0.0000000000000000e+00  -1.3222906767631249e-09 -3.9217891513129792e-10 0.0000000000000000e+00  -1.2339904311488313e-09 -5.5924160327376912e-10 0.0000000000000000e+00  -1.1162311514024952e-09 -7.0999198631398043e-10 0.0000000000000000e+00  -9.7199030929363719e-10 -8.3971893978020726e-10 0.0000000000000000e+00  -8.0500475158517002e-10 -9.4389920345275214e-10 0.0000000000000000e+00  -6.2016178821354193e-10 -1.0183176583158088e-09 0.0000000000000000e+00  -4.2567854919212783e-10 -1.0591490850076572e-09 0.0000000000000000e+00  -2.4526799004887424e-10 -1.0625458152948151e-09 0.0000000000000000e+00  -1.4254611498673267e-10 -9.4394924678178228e-10 0.0000000000000000e+00  -1.7341701019934629e-10 1.4440682516462406e-09 0.0000000000000000e+00  -2.8370907160912679e-10 1.3481097787882334e-09 0.0000000000000000e+00  -4.7890467840176198e-10 1.3065614538782251e-09 0.0000000000000000e+00  -6.8257190865757239e-10 1.2292271876534081e-09 0.0000000000000000e+00  -8.7065141617948819e-10 1.1165325782648149e-09 0.0000000000000000e+00  -1.0356818994674523e-09 9.7241678966148772e-10 0.0000000000000000e+00  -1.1737277806978891e-09 8.0188215172074546e-10 0.0000000000000000e+00  -1.2820340099325199e-09 6.1035839272070593e-10 0.0000000000000000e+00  -1.3585894660673793e-09 4.0347963592752978e-10 0.0000000000000000e+00  -1.4020697337369788e-09 1.8697381398504359e-10 0.0000000000000000e+00  -1.4118372431741111e-09 -3.3398856460077709e-11 0.0000000000000000e+00  -1.3879415123209761e-09 -2.5188645086806277e-10 0.0000000000000000e+00  -1.3311148567979544e-09 -4.6277873506011564e-10 0.0000000000000000e+00  -1.2427653801291799e-09 -6.6044145304128503e-10 0.0000000000000000e+00  -1.1249682758584308e-09 -8.3935867949791336e-10 0.0000000000000000e+00  -9.8046571154248995e-10 -9.9419315306171332e-10 0.0000000000000000e+00  -8.1274627401319096e-10 -1.1198800672716123e-09 0.0000000000000000e+00  -6.2656139128239790e-10 -1.2117707356935443e-09 0.0000000000000000e+00  -4.3045406086105437e-10 -1.2656890866440996e-09 0.0000000000000000e+00  -2.5010643286046738e-10 -1.2775659291628720e-09 0.0000000000000000e+00  -1.5496424803180879e-10 -1.1604572747290639e-09 0.0000000000000000e+00  -1.9099309190295748e-10 1.6874457423852748e-09 0.0000000000000000e+00  -2.9443765444014489e-10 1.5811375888897418e-09 0.0000000000000000e+00  -4.9139327789220403e-10 1.5262207257353408e-09 0.0000000000000000e+00  -6.9783751561316183e-10 1.4306509798526750e-09 0.0000000000000000e+00  -8.8796374572823020e-10 1.2956117027854269e-09 0.0000000000000000e+00  -1.0540533185026350e-09 1.1257208691138338e-09 0.0000000000000000e+00  -1.1922988505484104e-09 9.2659518090090393e-10 0.0000000000000000e+00  -1.3001990972762626e-09 7.0428035216467426e-10 0.0000000000000000e+00  -1.3760164800609715e-09 4.6504386181732926e-10 0.0000000000000000e+00  -1.4186611822057038e-09 2.1525675749505451e-10 0.0000000000000000e+00  -1.4276591256298169e-09 -3.8677806859491543e-11 0.0000000000000000e+00  -1.4031369771115841e-09 -2.9036996270297274e-10 0.0000000000000000e+00  -1.3458140655254050e-09 -5.3347732251436494e-10 0.0000000000000000e+00  -1.2570007223767883e-09 -7.6174012840558782e-10 0.0000000000000000e+00  -1.1386044532779825e-09 -9.6902842508912853e-10 0.0000000000000000e+00  -9.9315822301026291e-10 -1.1494123909382765e-09 0.0000000000000000e+00  -8.2395433182575138e-10 -1.2972668950269185e-09 0.0000000000000000e+00  -6.3568167874363751e-10 -1.4074156283480195e-09 0.0000000000000000e+00  -4.3729321526399815e-10 -1.4751708476060761e-09 0.0000000000000000e+00  -2.5666492016773674e-10 -1.4961001897983950e-09 0.0000000000000000e+00  -1.7014069967043489e-10 -1.3802354515909884e-09 0.0000000000000000e+00  -2.1144268260492437e-10 1.9375295324374744e-09 0.0000000000000000e+00  -3.0650341927133041e-10 1.8194957784696890e-09 0.0000000000000000e+00  -5.0501382848748784e-10 1.7499853098423324e-09 0.0000000000000000e+00  -7.1413750847943912e-10 1.6349917694668498e-09 0.0000000000000000e+00  -9.0614034616746165e-10 1.4764728954258389e-09 0.0000000000000000e+00  -1.0730757796134132e-09 1.2798265782181005e-09 0.0000000000000000e+00  -1.2113012545692424e-09 1.0513761850520264e-09 0.0000000000000000e+00  -1.3185904071248024e-09 7.9781805413594415e-10 0.0000000000000000e+00  -1.3934950589590839e-09 5.2603260862798999e-10 0.0000000000000000e+00  -1.4351750924891182e-09 2.4297447923227123e-10 0.0000000000000000e+00  -1.4433313213737848e-09 -4.4392912146755149e-11 0.0000000000000000e+00  -1.4181710299811818e-09 -3.2913442982737921e-10 0.0000000000000000e+00  -1.3603944665258956e-09 -6.0436706589044401e-10 0.0000000000000000e+00  -1.2712006627971540e-09 -8.6328547206011493e-10 0.0000000000000000e+00  -1.1523135702111464e-09 -1.0992030643697651e-09 0.0000000000000000e+00  -1.0060442445072826e-09 -1.3056205393930689e-09 0.0000000000000000e+00  -8.3548097414826277e-10 -1.4763302302067863e-09 0.0000000000000000e+00  -6.4524466420242587e-10 -1.6055581147672158e-09 0.0000000000000000e+00  -4.4471364008118740e-10 -1.6880066664344881e-09 0.0000000000000000e+00  -2.6417685786904464e-10 -1.7188055568625276e-09 0.0000000000000000e+00  -1.8802759997136371e-10 -1.6045253045915218e-09 0.0000000000000000e+00  -2.3481114768018768e-10 2.1943629466943782e-09 0.0000000000000000e+00  -3.1903675460825934e-10 2.0632246649407787e-09 0.0000000000000000e+00  -5.1800323767734346e-10 1.9775623663632276e-09 0.0000000000000000e+00  -7.2879618389156285e-10 1.8417319133675172e-09 0.0000000000000000e+00  -9.2157898842490375e-10 1.6585034780931820e-09 0.0000000000000000e+00  -1.0882334751318422e-09 1.4341207854885404e-09 0.0000000000000000e+00  -1.2253717779949900e-09 1.1756700707580687e-09 0.0000000000000000e+00  -1.3311219077371315e-09 8.9051601889048558e-10 0.0000000000000000e+00  -1.4043891367239028e-09 5.8612356185155103e-10 0.0000000000000000e+00  -1.4446310790888315e-09 2.6996294287562064e-10 0.0000000000000000e+00  -1.4517529767042311e-09 -5.0537035885797431e-11 0.0000000000000000e+00  -1.4260510815918058e-09 -3.6800346711110472e-10 0.0000000000000000e+00  -1.3681932306031990e-09 -6.7511854867078413e-10 0.0000000000000000e+00  -1.2792347789064246e-09 -9.6462202593998938e-10 0.0000000000000000e+00  -1.1606697210255986e-09 -1.2293342211870006e-09 0.0000000000000000e+00  -1.0145321028006905e-09 -1.4622133261262166e-09 0.0000000000000000e+00  -8.4364605114695060e-10 -1.6564551206699128e-09 0.0000000000000000e+00  -6.5250501739282411e-10 -1.8056375449531039e-09 0.0000000000000000e+00  -4.5089141174604919e-10 -1.9037851568848929e-09 0.0000000000000000e+00  -2.7171915737369246e-10 -1.9455402584842927e-09 0.0000000000000000e+00  -2.0863097487464422e-10 -1.8338394750384074e-09 0.0000000000000000e+00  -2.6116348031012588e-10 2.4569640336581324e-09 0.0000000000000000e+00  -3.3098887160813712e-10 2.3113850629651316e-09 0.0000000000000000e+00  -5.2822586342403826e-10 2.2076736196127323e-09 0.0000000000000000e+00  -7.3858172438604740e-10 2.0493692830031843e-09 0.0000000000000000e+00  -9.2996967272207606e-10 1.8401174113133305e-09 0.0000000000000000e+00  -1.0941859802170348e-09 1.5870674511439019e-09 0.0000000000000000e+00  -1.2282325532874124e-09 1.2981050711076996e-09 0.0000000000000000e+00  -1.3307228976375428e-09 9.8126098867229431e-10 0.0000000000000000e+00  -1.4010270844717784e-09 6.4453619401323891e-10 0.0000000000000000e+00  -1.4389843459500690e-09 2.9582578442642003e-10 0.0000000000000000e+00  -1.4447550741588776e-09 -5.7097444055165114e-11 0.0000000000000000e+00  -1.4187385194233582e-09 -4.0655882693269352e-10 0.0000000000000000e+00  -1.3615473488533230e-09 -7.4493896818778126e-10 0.0000000000000000e+00  -1.2740374862625474e-09 -1.0646365403590514e-09 0.0000000000000000e+00  -1.1573911214670155e-09 -1.3580596733141009e-09 0.0000000000000000e+00  -1.0132656788303097e-09 -1.6176635094607063e-09 0.0000000000000000e+00  -8.4411246522681346e-10 -1.8360438767022370e-09 0.0000000000000000e+00  -6.5419364455571271e-10 -2.0060918039750377e-09 0.0000000000000000e+00  -4.5364438615718048e-10 -2.1210973490502954e-09 0.0000000000000000e+00  -2.7819695687189087e-10 -2.1751770342312837e-09 0.0000000000000000e+00  -2.3198697036836688e-10 -2.0677932227948438e-09 0.0000000000000000e+00  -2.9057388295490000e-10 2.7231160105800954e-09 0.0000000000000000e+00  -3.4109456416614396e-10 2.5618571499526911e-09 0.0000000000000000e+00  -5.3310998225137723e-10 2.4378476577277486e-09 0.0000000000000000e+00  -7.3960670476871502e-10 2.2552230510760740e-09 0.0000000000000000e+00  -9.2614282543266637e-10 2.0185918867549044e-09 0.0000000000000000e+00  -1.0845538171627862e-09 1.7360753526707991e-09 0.0000000000000000e+00  -1.2124155638196189e-09 1.4163863417584126e-09 0.0000000000000000e+00  -1.3090120953019246e-09 1.0682000218086068e-09 0.0000000000000000e+00  -1.3743400427852933e-09 6.9997694968429272e-10 0.0000000000000000e+00  -1.4087436726685035e-09 3.1991019775751067e-10 0.0000000000000000e+00  -1.4127130357891973e-09 -6.4047160514940317e-11 0.0000000000000000e+00  -1.3867702010061782e-09 -4.4409971931762391e-10 0.0000000000000000e+00  -1.3314376275900766e-09 -8.1250283750337077e-10 0.0000000000000000e+00  -1.2472874672524522e-09 -1.1614649231669350e-09 0.0000000000000000e+00  -1.1350668101362839e-09 -1.4830906893885223e-09 0.0000000000000000e+00  -9.9590762566306611e-10 -1.7693897080348990e-09 0.0000000000000000e+00  -8.3172931649294089e-10 -2.0123639877013760e-09 0.0000000000000000e+00  -6.4641460358648294e-10 -2.2041822008400929e-09 0.0000000000000000e+00  -4.5036814790377802e-10 -2.3373437617343785e-09 0.0000000000000000e+00  -2.8230534482763487e-10 -2.4054066519210261e-09 0.0000000000000000e+00  -2.5814818980731720e-10 -2.3049311363971383e-09 0.0000000000000000e+00  -3.2311944404241212e-10 2.9891056811298617e-09 0.0000000000000000e+00  -3.4782328978002927e-10 2.8111000136440890e-09 0.0000000000000000e+00  -5.2955597518917387e-10 2.6641766332502601e-09 0.0000000000000000e+00  -7.2718877187291335e-10 2.4551967538520980e-09 0.0000000000000000e+00  -9.0387505697487818e-10 2.1898486894093356e-09 0.0000000000000000e+00  -1.0516637707833509e-09 1.8773062064126420e-09 0.0000000000000000e+00  -1.1689485885889142e-09 1.5271358369982197e-09 0.0000000000000000e+00  -1.2559324200130310e-09 1.1486168885367637e-09 0.0000000000000000e+00  -1.3134587756037047e-09 7.5055727648873196e-10 0.0000000000000000e+00  -1.3425461398851557e-09 3.4127085159524564e-10 0.0000000000000000e+00  -1.3441159075862993e-09 -7.1333255044337901e-11 0.0000000000000000e+00  -1.3188383984656892e-09 -4.7958456300405421e-10 0.0000000000000000e+00  -1.2670946714589894e-09 -8.7585153705194584e-10 0.0000000000000000e+00  -1.1890532027004901e-09 -1.2523560398221040e-09 0.0000000000000000e+00  -1.0848524480468361e-09 -1.6010470384606618e-09 0.0000000000000000e+00  -9.5489196121702075e-10 -1.9135685050535036e-09 0.0000000000000000e+00  -8.0034220330039670e-10 -2.1813415826141044e-09 0.0000000000000000e+00  -6.2450830872202215e-10 -2.3957721324111220e-09 0.0000000000000000e+00  -4.3794471780629724e-10 -2.5485036621271299e-09 0.0000000000000000e+00  -2.8247878290908015e-10 -2.6325044271093895e-09 0.0000000000000000e+00  -2.8717531427620109e-10 -2.5425136967118418e-09 0.0000000000000000e+00  -3.5887827399498421e-10 3.2494005137086990e-09 0.0000000000000000e+00  -3.4932209351634323e-10 3.0538591596683209e-09 0.0000000000000000e+00  -5.1382409160337796e-10 2.8810224929750173e-09 0.0000000000000000e+00  -6.9567886115051860e-10 2.6434875427708476e-09 0.0000000000000000e+00  -8.5565329142248917e-10 2.3481762150010868e-09 0.0000000000000000e+00  -9.86246