<?xml version="1.0"?>
<VTKFile type="UnstructuredGrid"  version="0.1"  >
<UnstructuredGrid>
<Piece  NumberOfPoints="651" NumberOfCells="1200">
<Points>
<DataArray  type="Float64"  NumberOfComponents="3"  format="ascii">0 0 0  50000 0 0  100000 0 0  150000 0 0  200000 0 0  250000 0 0  300000 0 0  350000 0 0  400000 0 0  450000 0 0  500000 0 0  550000 0 0  600000 0 0  650000 0 0  700000 0 0  750000 0 0  800000 0 0  850000 0 0  900000 0 0  950000 0 0  1000000 0 0  0 50000 0  50000 50000 0  100000 50000 0  150000 50000 0  200000 50000 0  250000 50000 0  300000 50000 0  350000 50000 0  400000 50000 0  450000 50000 0  500000 50000 0  550000 50000 0  600000 50000 0  650000 50000 0  700000 50000 0  750000 50000 0  800000 50000 0  850000 50000 0  900000 50000 0  950000 50000 0  1000000 50000 0  0 100000 0  50000 100000 0  100000 100000 0  150000 100000 0  200000 100000 0  250000 100000 0  300000 100000 0  350000 100000 0  400000 100000 0  450000 100000 0  500000 100000 0  550000 100000 0  600000 100000 0  650000 100000 0  700000 100000 0  750000 100000 0  800000 100000 0  850000 100000 0  900000 100000 0  950000 100000 0  1000000 100000 0  0 150000 0  50000 150000 0  100000 150000 0  150000 150000 0  200000 150000 0  250000 150000 0  300000 150000 0  350000 150000 0  400000 150000 0  450000 150000 0  500000 150000 0  550000 150000 0  600000 150000 0  650000 150000 0  700000 150000 0  750000 150000 0  800000 150000 0  850000 150000 0  900000 150000 0  950000 150000 0  1000000 150000 0  0 200000 0  50000 200000 0  100000 200000 0  150000 200000 0  200000 200000 0  250000 200000 0  300000 200000 0  350000 200000 0  400000 200000 0  450000 200000 0  500000 200000 0  550000 200000 0  600000 200000 0  650000 200000 0  700000 200000 0  750000 200000 0  800000 200000 0  850000 200000 0  900000 200000 0  950000 200000 0  1000000 200000 0  0 250000 0  50000 250000 0  100000 250000 0  150000 250000 0  200000 250000 0  250000 250000 0  300000 250000 0  350000 250000 0  400000 250000 0  450000 250000 0  500000 250000 0  550000 250000 0  600000 250000 0  650000 250000 0  700000 250000 0  750000 250000 0  800000 250000 0  850000 250000 0  900000 250000 0  950000 250000 0  1000000 250000 0  0 300000 0  50000 300000 0  100000 300000 0  150000 300000 0  200000 300000 0  250000 300000 0  300000 300000 0  350000 300000 0  400000 300000 0  450000 300000 0  500000 300000 0  550000 300000 0  600000 300000 0  650000 300000 0  700000 300000 0  750000 300000 0  800000 300000 0  850000 300000 0  900000 300000 0  950000 300000 0  1000000 300000 0  0 350000 0  50000 350000 0  100000 350000 0  150000 350000 0  200000 350000 0  250000 350000 0  300000 350000 0  350000 350000 0  400000 350000 0  450000 350000 0  500000 350000 0  550000 350000 0  600000 350000 0  650000 350000 0  700000 350000 0  750000 350000 0  800000 350000 0  850000 350000 0  900000 350000 0  950000 350000 0  1000000 350000 0  0 400000 0  50000 400000 0  100000 400000 0  150000 400000 0  200000 400000 0  250000 400000 0  300000 400000 0  350000 400000 0  400000 400000 0  450000 400000 0  500000 400000 0  550000 400000 0  600000 400000 0  650000 400000 0  700000 400000 0  750000 400000 0  800000 400000 0  850000 400000 0  900000 400000 0  950000 400000 0  1000000 400000 0  0 450000 0  50000 450000 0  100000 450000 0  150000 450000 0  200000 450000 0  250000 450000 0  300000 450000 0  350000 450000 0  400000 450000 0  450000 450000 0  500000 450000 0  550000 450000 0  600000 450000 0  650000 450000 0  700000 450000 0  750000 450000 0  800000 450000 0  850000 450000 0  900000 450000 0  950000 450000 0  1000000 450000 0  0 500000 0  50000 500000 0  100000 500000 0  150000 500000 0  200000 500000 0  250000 500000 0  300000 500000 0  350000 500000 0  400000 500000 0  450000 500000 0  500000 500000 0  550000 500000 0  600000 500000 0  650000 500000 0  700000 500000 0  750000 500000 0  800000 500000 0  850000 500000 0  900000 500000 0  950000 500000 0  1000000 500000 0  0 550000 0  50000 550000 0  100000 550000 0  150000 550000 0  200000 550000 0  250000 550000 0  300000 550000 0  350000 550000 0  400000 550000 0  450000 550000 0  500000 550000 0  550000 550000 0  600000 550000 0  650000 550000 0  700000 550000 0  750000 550000 0  800000 550000 0  850000 550000 0  900000 550000 0  950000 550000 0  1000000 550000 0  0 600000 0  50000 600000 0  100000 600000 0  150000 600000 0  200000 600000 0  250000 600000 0  300000 600000 0  350000 600000 0  400000 600000 0  450000 600000 0  500000 600000 0  550000 600000 0  600000 600000 0  650000 600000 0  700000 600000 0  750000 600000 0  800000 600000 0  850000 600000 0  900000 600000 0  950000 600000 0  1000000 600000 0  0 650000 0  50000 650000 0  100000 650000 0  150000 650000 0  200000 650000 0  250000 650000 0  300000 650000 0  350000 650000 0  400000 650000 0  450000 650000 0  500000 650000 0  550000 650000 0  600000 650000 0  650000 650000 0  700000 650000 0  750000 650000 0  800000 650000 0  850000 650000 0  900000 650000 0  950000 650000 0  1000000 650000 0  0 700000 0  50000 700000 0  100000 700000 0  150000 700000 0  200000 700000 0  250000 700000 0  300000 700000 0  350000 700000 0  400000 700000 0  450000 700000 0  500000 700000 0  550000 700000 0  600000 700000 0  650000 700000 0  700000 700000 0  750000 700000 0  800000 700000 0  850000 700000 0  900000 700000 0  950000 700000 0  1000000 700000 0  0 750000 0  50000 750000 0  100000 750000 0  150000 750000 0  200000 750000 0  250000 750000 0  300000 750000 0  350000 750000 0  400000 750000 0  450000 750000 0  500000 750000 0  550000 750000 0  600000 750000 0  650000 750000 0  700000 750000 0  750000 750000 0  800000 750000 0  850000 750000 0  900000 750000 0  950000 750000 0  1000000 750000 0  0 800000 0  50000 800000 0  100000 800000 0  150000 800000 0  200000 800000 0  250000 800000 0  300000 800000 0  350000 800000 0  400000 800000 0  450000 800000 0  500000 800000 0  550000 800000 0  600000 800000 0  650000 800000 0  700000 800000 0  750000 800000 0  800000 800000 0  850000 800000 0  900000 800000 0  950000 800000 0  1000000 800000 0  0 850000 0  50000 850000 0  100000 850000 0  150000 850000 0  200000 850000 0  250000 850000 0  300000 850000 0  350000 850000 0  400000 850000 0  450000 850000 0  500000 850000 0  550000 850000 0  600000 850000 0  650000 850000 0  700000 850000 0  750000 850000 0  800000 850000 0  850000 850000 0  900000 850000 0  950000 850000 0  1000000 850000 0  0 900000 0  50000 900000 0  100000 900000 0  150000 900000 0  200000 900000 0  250000 900000 0  300000 900000 0  350000 900000 0  400000 900000 0  450000 900000 0  500000 900000 0  550000 900000 0  600000 900000 0  650000 900000 0  700000 900000 0  750000 900000 0  800000 900000 0  850000 900000 0  900000 900000 0  950000 900000 0  1000000 900000 0  0 950000 0  50000 950000 0  100000 950000 0  150000 950000 0  200000 950000 0  250000 950000 0  300000 950000 0  350000 950000 0  400000 950000 0  450000 950000 0  500000 950000 0  550000 950000 0  600000 950000 0  650000 950000 0  700000 950000 0  750000 950000 0  800000 950000 0  850000 950000 0  900000 950000 0  950000 950000 0  1000000 950000 0  0 1000000 0  50000 1000000 0  100000 1000000 0  150000 1000000 0  200000 1000000 0  250000 1000000 0  300000 1000000 0  350000 1000000 0  400000 1000000 0  450000 1000000 0  500000 1000000 0  550000 1000000 0  600000 1000000 0  650000 1000000 0  700000 1000000 0  750000 1000000 0  800000 1000000 0  850000 1000000 0  900000 1000000 0  950000 1000000 0  1000000 1000000 0  0 1050000 0  50000 1050000 0  100000 1050000 0  150000 1050000 0  200000 1050000 0  250000 1050000 0  300000 1050000 0  350000 1050000 0  400000 1050000 0  450000 1050000 0  500000 1050000 0  550000 1050000 0  600000 1050000 0  650000 1050000 0  700000 1050000 0  750000 1050000 0  800000 1050000 0  850000 1050000 0  900000 1050000 0  950000 1050000 0  1000000 1050000 0  0 1100000 0  50000 1100000 0  100000 1100000 0  150000 1100000 0  200000 1100000 0  250000 1100000 0  300000 1100000 0  350000 1100000 0  400000 1100000 0  450000 1100000 0  500000 1100000 0  550000 1100000 0  600000 1100000 0  650000 1100000 0  700000 1100000 0  750000 1100000 0  800000 1100000 0  850000 1100000 0  900000 1100000 0  950000 1100000 0  1000000 1100000 0  0 1150000 0  50000 1150000 0  100000 1150000 0  150000 1150000 0  200000 1150000 0  250000 1150000 0  300000 1150000 0  350000 1150000 0  400000 1150000 0  450000 1150000 0  500000 1150000 0  550000 1150000 0  600000 1150000 0  650000 1150000 0  700000 1150000 0  750000 1150000 0  800000 1150000 0  850000 1150000 0  900000 1150000 0  950000 1150000 0  1000000 1150000 0  0 1200000 0  50000 1200000 0  100000 1200000 0  150000 1200000 0  200000 1200000 0  250000 1200000 0  300000 1200000 0  350000 1200000 0  400000 1200000 0  450000 1200000 0  500000 1200000 0  550000 1200000 0  600000 1200000 0  650000 1200000 0  700000 1200000 0  750000 1200000 0  800000 1200000 0  850000 1200000 0  900000 1200000 0  950000 1200000 0  1000000 1200000 0  0 1250000 0  50000 1250000 0  100000 1250000 0  150000 1250000 0  200000 1250000 0  250000 1250000 0  300000 1250000 0  350000 1250000 0  400000 1250000 0  450000 1250000 0  500000 1250000 0  550000 1250000 0  600000 1250000 0  650000 1250000 0  700000 1250000 0  750000 1250000 0  800000 1250000 0  850000 1250000 0  900000 1250000 0  950000 1250000 0  1000000 1250000 0  0 1300000 0  50000 1300000 0  100000 1300000 0  150000 1300000 0  200000 1300000 0  250000 1300000 0  300000 1300000 0  350000 1300000 0  400000 1300000 0  450000 1300000 0  500000 1300000 0  550000 1300000 0  600000 1300000 0  650000 1300000 0  700000 1300000 0  750000 1300000 0  800000 1300000 0  850000 1300000 0  900000 1300000 0  950000 1300000 0  1000000 1300000 0  0 1350000 0  50000 1350000 0  100000 1350000 0  150000 1350000 0  200000 1350000 0  250000 1350000 0  300000 1350000 0  350000 1350000 0  400000 1350000 0  450000 1350000 0  500000 1350000 0  550000 1350000 0  600000 1350000 0  650000 1350000 0  700000 135
[...]
<PointData  Vectors="f_2995"> 
<DataArray  type="Float64"  Name="f_2995"  NumberOfComponents="3" format="ascii">-1.6225895933400885e-10 1.3636628919502061e-10 0.0000000000000000e+00  -2.9872505938988872e-10 1.0918810067098995e-10 0.0000000000000000e+00  -5.4203796297447162e-10 9.6604584424517160e-11 0.0000000000000000e+00  -7.7741123251977289e-10 8.5669940741994481e-11 0.0000000000000000e+00  -9.9293991703110107e-10 7.3507432159537191e-11 0.0000000000000000e+00  -1.1823032028912456e-09 5.9699312842435259e-11 0.0000000000000000e+00  -1.3403934966773319e-09 4.4319334583231788e-11 0.0000000000000000e+00  -1.4630950088918461e-09 2.7623642018790225e-11 0.0000000000000000e+00  -1.5472701107312174e-09 9.9650792304955175e-12 0.0000000000000000e+00  -1.5908103224247592e-09 -8.2476225394565085e-12 0.0000000000000000e+00  -1.5926797603537590e-09 -2.6574666502065726e-11 0.0000000000000000e+00  -1.5529360340603142e-09 -4.4563660061079080e-11 0.0000000000000000e+00  -1.4727257079132422e-09 -6.1765422395900420e-11 0.0000000000000000e+00  -1.3542542389669354e-09 -7.7748747584894910e-11 0.0000000000000000e+00  -1.2007356185769864e-09 -9.2115811815617254e-11 0.0000000000000000e+00  -1.0163542438646339e-09 -1.0452434434781995e-10 0.0000000000000000e+00  -8.0641069538528440e-10 -1.1474123959403975e-10 0.0000000000000000e+00  -5.7844317942830645e-10 -1.2279874387354430e-10 0.0000000000000000e+00  -3.4756871508394811e-10 -1.2882510906942240e-10 0.0000000000000000e+00  -1.5925502997150082e-10 -1.2388679590564279e-10 0.0000000000000000e+00  -7.9655867071524703e-11 -8.1668544858603938e-11 0.0000000000000000e+00  -1.3909036048528544e-10 2.6108230216732937e-10 0.0000000000000000e+00  -2.4643976166753976e-10 2.3863379089448211e-10 0.0000000000000000e+00  -4.3666410369491347e-10 2.4763588999513931e-10 0.0000000000000000e+00  -6.4901973170144480e-10 2.3594714708035986e-10 0.0000000000000000e+00  -8.5207529864927183e-10 2.1455468082973085e-10 0.0000000000000000e+00  -1.0351501891027124e-09 1.8635717352469517e-10 0.0000000000000000e+00  -1.1921717911123132e-09 1.5280834120260469e-10 0.0000000000000000e+00  -1.3185724969106406e-09 1.1505385466971592e-10 0.0000000000000000e+00  -1.4108694840073376e-09 7.4200337894523409e-11 0.0000000000000000e+00  -1.4666060532275367e-09 3.1376406533735232e-11 0.0000000000000000e+00  -1.4843540808436774e-09 -1.2264324228721123e-11 0.0000000000000000e+00  -1.4637230169589555e-09 -5.5558671742447354e-11 0.0000000000000000e+00  -1.4053583756112678e-09 -9.7355209709038006e-11 0.0000000000000000e+00  -1.3109250713434196e-09 -1.3653618079200560e-10 0.0000000000000000e+00  -1.1830793649134151e-09 -1.7203597357082282e-10 0.0000000000000000e+00  -1.0254509262184067e-09 -2.0284953802164745e-10 0.0000000000000000e+00  -8.4272415530579199e-10 -2.2800672259644099e-10 0.0000000000000000e+00  -6.4120770640466385e-10 -2.4636560739484784e-10 0.0000000000000000e+00  -4.3154008656619753e-10 -2.5530601074873936e-10 0.0000000000000000e+00  -2.3978764586693870e-10 -2.4469415275050115e-10 0.0000000000000000e+00  -1.2495203602344416e-10 -1.5624421168126502e-10 0.0000000000000000e+00  -1.3791832763167086e-10 4.8173914910577844e-10 0.0000000000000000e+00  -2.5122821827032620e-10 4.2656401699862405e-10 0.0000000000000000e+00  -4.3118617749564300e-10 4.3458083512399992e-10 0.0000000000000000e+00  -6.2524065977098910e-10 4.1742208803350951e-10 0.0000000000000000e+00  -8.1188311266152599e-10 3.8284511231210992e-10 0.0000000000000000e+00  -9.8152419359308377e-10 3.3530972241012963e-10 0.0000000000000000e+00  -1.1277845485526436e-09 2.7767229396994980e-10 0.0000000000000000e+00  -1.2460138537897378e-09 2.1217736986064370e-10 0.0000000000000000e+00  -1.3327367431916144e-09 1.4090270652330519e-10 0.0000000000000000e+00  -1.3855162068655009e-09 6.5909834861186941e-11 0.0000000000000000e+00  -1.4029260629633599e-09 -1.0722299060424901e-11 0.0000000000000000e+00  -1.3845443846006583e-09 -8.6908830524083151e-11 0.0000000000000000e+00  -1.3309448530882621e-09 -1.6058689267210152e-10 0.0000000000000000e+00  -1.2436793317169454e-09 -2.2974615349231081e-10 0.0000000000000000e+00  -1.1252540599548995e-09 -2.9245082065826665e-10 0.0000000000000000e+00  -9.7911798184532241e-10 -3.4683475473721048e-10 0.0000000000000000e+00  -8.0973417278302603e-10 -3.9102286308057128e-10 0.0000000000000000e+00  -6.2300114183041176e-10 -4.2284545942895047e-10 0.0000000000000000e+00  -4.2803826667597404e-10 -4.3898020429862663e-10 0.0000000000000000e+00  -2.4570649447786170e-10 -4.3277199165882859e-10 0.0000000000000000e+00  -1.3113116802124339e-10 -3.3158443275604921e-10 0.0000000000000000e+00  -1.4377971036681742e-10 6.9879974059070403e-10 0.0000000000000000e+00  -2.5052876157365447e-10 6.3184901833101187e-10 0.0000000000000000e+00  -4.2689873942460088e-10 6.2942127193224992e-10 0.0000000000000000e+00  -6.1390800229306862e-10 6.0283873527629943e-10 0.0000000000000000e+00  -7.9166093917182996e-10 5.5394087570319164e-10 0.0000000000000000e+00  -9.5259769958428124e-10 4.8666350768471534e-10 0.0000000000000000e+00  -1.0913414280641718e-09 4.0455332027333255e-10 0.0000000000000000e+00  -1.2035776551817828e-09 3.1078539500084562e-10 0.0000000000000000e+00  -1.2859666605942822e-09 2.0839950395400284e-10 0.0000000000000000e+00  -1.3361362855854391e-09 1.0042084654257104e-10 0.0000000000000000e+00  -1.3526824807022836e-09 -1.0107908289676069e-11 0.0000000000000000e+00  -1.3351681110521176e-09 -1.2014218616782550e-10 0.0000000000000000e+00  -1.2841132177939787e-09 -2.2667242221057117e-10 0.0000000000000000e+00  -1.2009735509318966e-09 -3.2676646028435016e-10 0.0000000000000000e+00  -1.0881073696975178e-09 -4.1760507484184405e-10 0.0000000000000000e+00  -9.4873842190318167e-10 -4.9649637621829784e-10 0.0000000000000000e+00  -7.8695610482727182e-10 -5.6085069590692690e-10 0.0000000000000000e+00  -6.0795475508360319e-10 -6.0810736147864884e-10 0.0000000000000000e+00  -4.1953407725200455e-10 -6.3559083049896077e-10 0.0000000000000000e+00  -2.4118219355483042e-10 -6.3926812270442494e-10 0.0000000000000000e+00  -1.3171172779314290e-10 -5.4447595983560288e-10 0.0000000000000000e+00  -1.5333648973449259e-10 9.1115725243007542e-10 0.0000000000000000e+00  -2.5114789913688383e-10 8.3758804478443154e-10 0.0000000000000000e+00  -4.2518569294589367e-10 8.2448403746436576e-10 0.0000000000000000e+00  -6.0980441828200444e-10 7.8599807820901087e-10 0.0000000000000000e+00  -7.8398034646573716e-10 7.2175320757912984e-10 0.0000000000000000e+00  -9.4071385011217142e-10 6.3472518469116818e-10 0.0000000000000000e+00  -1.0753456825943796e-09 5.2862348002998589e-10 0.0000000000000000e+00  -1.1840307094384146e-09 4.0727043495594002e-10 0.0000000000000000e+00  -1.2636764953498708e-09 2.7453775970608175e-10 0.0000000000000000e+00  -1.3120324784541778e-09 1.3435358932938482e-10 0.0000000000000000e+00  -1.3277456536356600e-09 -9.3100049178821998e-12 0.0000000000000000e+00  -1.3103814018365310e-09 -1.5247535529257181e-10 0.0000000000000000e+00  -1.2604202644506813e-09 -2.9121404482129336e-10 0.0000000000000000e+00  -1.1792344508895745e-09 -4.2170888741972656e-10 0.0000000000000000e+00  -1.0690443166598998e-09 -5.4031611508730645e-10 0.0000000000000000e+00  -9.3285917457175616e-10 -6.4362503304280474e-10 0.0000000000000000e+00  -7.7444424243414153e-10 -7.2852431552705537e-10 0.0000000000000000e+00  -5.9856300992525970e-10 -7.9231106888990629e-10 0.0000000000000000e+00  -4.1275723898055463e-10 -8.3277205808009982e-10 0.0000000000000000e+00  -2.3753065130117925e-10 -8.4656621381869013e-10 0.0000000000000000e+00  -1.3623576082375321e-10 -7.5940238156165872e-10 0.0000000000000000e+00  -1.6599448554822412e-10 1.1214893466036707e-09 0.0000000000000000e+00  -2.5445240908035468e-10 1.0427195953046685e-09 0.0000000000000000e+00  -4.2724779091046387e-10 1.0199272064327507e-09 0.0000000000000000e+00  -6.1196660194276691e-10 9.6856297886350332e-10 0.0000000000000000e+00  -7.8581677017521770e-10 8.8801573775726887e-10 0.0000000000000000e+00  -9.4157093819812139e-10 7.8081463867350402e-10 0.0000000000000000e+00  -1.0748269960262700e-09 6.5074214444661422e-10 0.0000000000000000e+00  -1.1820483170971470e-09 5.0209904893773193e-10 0.0000000000000000e+00  -1.2603682271697346e-09 3.3946559000131787e-10 0.0000000000000000e+00  -1.3076738628019553e-09 1.6759409669002243e-10 0.0000000000000000e+00  -1.3226829799918209e-09 -8.6667301850399365e-12 0.0000000000000000e+00  -1.3049817269034171e-09 -1.8444725698923689e-10 0.0000000000000000e+00  -1.2550299912873572e-09 -3.5493877629501390e-10 0.0000000000000000e+00  -1.1741403286247184e-09 -5.1548177481072351e-10 0.0000000000000000e+00  -1.0644330219384748e-09 -6.6166083829096099e-10 0.0000000000000000e+00  -9.2877647338937097e-10 -7.8941109612725525e-10 0.0000000000000000e+00  -7.7077390684107051e-10 -8.9515093775361890e-10 0.0000000000000000e+00  -5.9511051806673112e-10 -9.7595851167071230e-10 0.0000000000000000e+00  -4.0968901755731351e-10 -1.0296142351171630e-09 0.0000000000000000e+00  -2.3665664856165157e-10 -1.0525921450455641e-09 0.0000000000000000e+00  -1.4419890824029950e-10 -9.7109695087541222e-10 0.0000000000000000e+00  -1.8156211273271374e-10 1.3321975595961742e-09 0.0000000000000000e+00  -2.6041822367105397e-10 1.2487492420895746e-09 0.0000000000000000e+00  -4.3302508782371702e-10 1.2169998003647248e-09 0.0000000000000000e+00  -6.1946571206826498e-10 1.1525141212191138e-09 0.0000000000000000e+00  -7.9499701058968844e-10 1.0549793053815413e-09 0.0000000000000000e+00  -9.5187656214424406e-10 9.2699856495055179e-10 0.0000000000000000e+00  -1.0856693016226693e-09 7.7257240105287994e-10 0.0000000000000000e+00  -1.1929642869481118e-09 5.9645996802260334e-10 0.0000000000000000e+00  -1.2710404526449674e-09 4.0388969348393818e-10 0.0000000000000000e+00  -1.3178995202520575e-09 2.0038048292851607e-10 0.0000000000000000e+00  -1.3323321112053545e-09 -8.3897493639315426e-12 0.0000000000000000e+00  -1.3139577455682117e-09 -2.1669884239096702e-10 0.0000000000000000e+00  -1.2632352119512527e-09 -4.1889231284253565e-10 0.0000000000000000e+00  -1.1814472847258267e-09 -6.0949938160369129e-10 0.0000000000000000e+00  -1.0706640681738731e-09 -7.8335850645148673e-10 0.0000000000000000e+00  -9.3370050421230927e-10 -9.3575932749523155e-10 0.0000000000000000e+00  -7.7414661009075873e-10 -1.0626093737561825e-09 0.0000000000000000e+00  -5.9682954083522072e-10 -1.1606164852864361e-09 0.0000000000000000e+00  -4.1025055509352936e-10 -1.2272563504235384e-09 0.0000000000000000e+00  -2.3840803500861104e-10 -1.2585599347708164e-09 0.0000000000000000e+00  -1.5511661153717478e-10 -1.1807320444369979e-09 0.0000000000000000e+00  -1.9997140804634946e-10 1.5450690700444038e-09 0.0000000000000000e+00  -2.6858033663143044e-10 1.4572056884570906e-09 0.0000000000000000e+00  -4.4170414521036903e-10 1.4169680169559135e-09 0.0000000000000000e+00  -6.3089073505609344e-10 1.3392780861497730e-09 0.0000000000000000e+00  -8.0927412063231763e-10 1.2242508415553440e-09 0.0000000000000000e+00  -9.6850450704948082e-10 1.0748474202379205e-09 0.0000000000000000e+00  -1.1039817134537106e-09 8.9546448169957764e-10 0.0000000000000000e+00  -1.2123039680303975e-09 6.9138175819035022e-10 0.0000000000000000e+00  -1.2908243062566955e-09 4.6847524198773663e-10 0.0000000000000000e+00  -1.3376277244308612e-09 2.3300525804462753e-10 0.0000000000000000e+00  -1.3515711063659552e-09 -8.5528208987884199e-12 0.0000000000000000e+00  -1.3323138168907459e-09 -2.4965516179997204e-10 0.0000000000000000e+00  -1.2803283671013817e-09 -4.8382741286851245e-10 0.0000000000000000e+00  -1.1968923649148993e-09 -7.0480438553271246e-10 0.0000000000000000e+00  -1.0840662642070545e-09 -9.0667972529954839e-10 0.0000000000000000e+00  -9.4467596262533714e-10 -1.0840719430548811e-09 0.0000000000000000e+00  -7.8238932977225478e-10 -1.2323080762528220e-09 0.0000000000000000e+00  -6.0227830477603600e-10 -1.3476007704871168e-09 0.0000000000000000e+00  -4.1353156145395236e-10 -1.4269751202611154e-09 0.0000000000000000e+00  -2.4219359572528324e-10 -1.4659695694805577e-09 0.0000000000000000e+00  -1.6877452027772646e-10 -1.3902922283985771e-09 0.0000000000000000e+00  -2.2122074091057420e-10 1.7611221007775653e-09 0.0000000000000000e+00  -2.7827770157560079e-10 1.6691285311341600e-09 0.0000000000000000e+00  -4.5205046137264128e-10 1.6206670557271482e-09 0.0000000000000000e+00  -6.4437934192677006e-10 1.5296641585115015e-09 0.0000000000000000e+00  -8.2606160762066075e-10 1.3966961722432276e-09 0.0000000000000000e+00  -9.8810643817632449e-10 1.2252278552298888e-09 0.0000000000000000e+00  -1.1257085119682934e-09 1.0201934669798429e-09 0.0000000000000000e+00  -1.2354283102284479e-09 7.8747786492891505e-10 0.0000000000000000e+00  -1.3146586835551133e-09 5.3363734381769430e-10 0.0000000000000000e+00  -1.3615518363040977e-09 2.6567295852847436e-10 0.0000000000000000e+00  -1.3750281024861664e-09 -9.1604882275955963e-12 0.0000000000000000e+00  -1.3547904380976832e-09 -2.8352109302971351e-10 0.0000000000000000e+00  -1.3013317654950391e-09 -5.5013457093704129e-10 0.0000000000000000e+00  -1.2159347365592078e-09 -8.0194933260466500e-10 0.0000000000000000e+00  -1.1006673882222462e-09 -1.0323022885250351e-09 0.0000000000000000e+00  -9.5839398060208345e-10 -1.2351016067530309e-09 0.0000000000000000e+00  -7.9289576175225904e-10 -1.4050239702239520e-09 0.0000000000000000e+00  -6.0952478803151468e-10 -1.5376967187666235e-09 0.0000000000000000e+00  -4.1820526167488784e-10 -1.6296227500526120e-09 0.0000000000000000e+00  -2.4726181406588918e-10 -1.6758516870311392e-09 0.0000000000000000e+00  -1.8507463098989426e-10 -1.6012868816359739e-09 0.0000000000000000e+00  -2.4534685754690238e-10 1.9805029992702456e-09 0.0000000000000000e+00  -2.8870821860107283e-10 1.8848552184076540e-09 0.0000000000000000e+00  -4.6251256206765428e-10 1.8282897515838220e-09 0.0000000000000000e+00  -6.5763777302930953e-10 1.7237980828163191e-09 0.0000000000000000e+00  -8.4230452558796543e-10 1.5724426916631984e-09 0.0000000000000000e+00  -1.0068647589128730e-09 1.3782838422078746e-09 0.0000000000000000e+00  -1.1463200871940539e-09 1.1469015177434112e-09 0.0000000000000000e+00  -1.2572026738112689e-09 8.8486819544752548e-10 0.0000000000000000e+00  -1.3369546985174120e-09 5.9946408713399768e-10 0.0000000000000000e+00  -1.3838071142608803e-09 2.9844009879768464e-10 0.0000000000000000e+00  -1.3967541840286543e-09 -1.0183700141061086e-11 0.0000000000000000e+00  -1.3755473522253285e-09 -3.1829186320698777e-10 0.0000000000000000e+00  -1.3206968691385242e-09 -6.1783234174608998e-10 0.0000000000000000e+00  -1.2334804324643750e-09 -9.0097549707002891e-10 0.0000000000000000e+00  -1.1159604572046882e-09 -1.1602871071533558e-09 0.0000000000000000e+00  -9.7102711619684430e-10 -1.3889234754801778e-09 0.0000000000000000e+00  -8.0256532697638068e-10 -1.5808458648840750e-09 0.0000000000000000e+00  -6.1620411990077033e-10 -1.7310239184549457e-09 0.0000000000000000e+00  -4.2264142337025923e-10 -1.8353900904400198e-09 0.0000000000000000e+00  -2.5273978775999929e-10 -1.8885136337654361e-09 0.0000000000000000e+00  -2.0397859468005742e-10 -1.8144485476991804e-09 0.0000000000000000e+00  -2.7240842641363275e-10 2.2023610978582112e-09 0.0000000000000000e+00  -2.9892171987612670e-10 2.1038586017045651e-09 0.0000000000000000e+00  -4.7121916700895283e-10 2.0392180057860181e-09 0.0000000000000000e+00  -6.6789780652425614e-10 1.9210049683292799e-09 0.0000000000000000e+00  -8.5435442274045888e-10 1.7508161315831396e-09 0.0000000000000000e+00  -1.0202791619073986e-09 1.5333896075985308e-09 0.0000000000000000e+00  -1.1605300949111604e-09 1.2750460985130736e-09 0.0000000000000000e+00  -1.2716691119534432e-09 9.8312266653381247e-10 0.0000000000000000e+00  -1.3512429774717355e-09 6.6566522479611990e-10 0.0000000000000000e+00  -1.3976075193459202e-09 3.3117915088844494e-10 0.0000000000000000e+00  -1.4098612978887345e-09 -1.1574302351376403e-11 0.0000000000000000e+00  -1.3878134107199204e-09 -3.5374472712650451e-10 0.0000000000000000e+00  -1.3319774379176102e-09 -6.8653916548894542e-10 0.0000000000000000e+00  -1.2435915323600305e-09 -1.0013699658073125e-09 0.0000000000000000e+00  -1.1246637686046406e-09 -1.2900240455695207e-09 0.0000000000000000e+00  -9.7805592465314122e-10 -1.5448665366358456e-09 0.0000000000000000e+00  -8.0770602103478873e-10 -1.7590784405296129e-09 0.0000000000000000e+00  -6.1948758893228304e-10 -1.9268987550842078e-09 0.0000000000000000e+00  -4.2490333831267417e-10 -2.0436365001109000e-09 0.0000000000000000e+00  -2.5761842826421093e-10 -2.1033786174464391e-09 0.0000000000000000e+00  -2.2548497942190840e-10 -2.0296049278509243e-09 0.0000000000000000e+00  -3.0247506623939161e-10 2.4246826086859721e-09 0.0000000000000000e+00  -3.0778817920042327e-10 2.3245741903443592e-09 0.0000000000000000e+00  -4.7592515407236477e-10 2.2518416655676939e-09 0.0000000000000000e+00  -6.7182347661031555e-10 2.1196458925481025e-09 0.0000000000000000e+00  -8.5781466965083329e-10 1.9302060329905156e-09 0.0000000000000000e+00  -1.0229397608457096e-09 1.6890371280085530e-09 0.0000000000000000e+00  -1.1620009321029621e-09 1.4033014148064357e-09 0.0000000000000000e+00  -1.2716981791422232e-09 1.0811766334141862e-09 0.0000000000000000e+00  -1.3497890011978934e-09 7.3150781688875596e-10 0.0000000000000000e+00  -1.3948418032194282e-09 3.6354190467463313e-10 0.0000000000000000e+00  -1.4061155645819085e-09 -1.3268849124616166e-11 0.0000000000000000e+00  -1.3834929256438317e-09 -3.8940885319595746e-10 0.0000000000000000e+00  -1.3274641317600981e-09 -7.5541208152282601e-10 0.0000000000000000e+00  -1.2391633403412288e-09 -1.1019781927207209e-09 0.0000000000000000e+00  -1.1204531683098947e-09 -1.4201229901829832e-09 0.0000000000000000e+00  -9.7406476422342596e-10 -1.7013850318786589e-09 0.0000000000000000e+00  -8.0389413788520506e-10 -1.9380930785036476e-09 0.0000000000000000e+00  -6.1599500546397493e-10 -2.1236660317512806e-09 0.0000000000000000e+00  -4.2269333934802845e-10 -2.2527135075580949e-09 0.0000000000000000e+00  -2.6071771364446812e-10 -2.3188206545243531e-09 0.0000000000000000e+00  -2.4961667736620105e-10 -2.2455483480372649e-09 0.0000000000000000e+00  -3.3561973800837476e-10 2.6440753275568550e-09 0.0000000000000000e+00  -3.1395347644995219e-10 2.5441934376542904e-09 0.0000000000000000e+00  -4.7392849157837210e-10 2.4633434102415069e-09 0.0000000000000000e+00  -6.6537992066168078e-10 2.3169052416201485e-09 0.0000000000000000e+00  -8.4734814951378086e-10 2.1078659174246341e-09 0.0000000000000000e+00  -1.0082647443282999e-09 1.8426546001417726e-09 0.0000000000000000e+00  -1.1430118866646850e-09 1.5293991944158191e-09 0.0000000000000000e+00  -1.2485971471795355e-09 1.1772003573077130e-09 0.0000000000000000e+00  -1.3231570086228848e-09 7.9572286914023311e-10 0.0000000000000000e+00  -1.3656118491800061e-09 3.9491131719399437e-10 0.0000000000000000e+00  -1.3754699274044335e-09 -1.5186523586977483e-11 0.0000000000000000e+00  -1.3527123046578783e-09 -4.2451246129337192e-10 0.0000000000000000e+00  -1.2977635214784350e-09 -8.2304708242511456e-10 0.0000000000000000e+00  -1.2115516397874444e-09 -1.2008649919837473e-09 0.0000000000000000e+00  -1.0956493134793374e-09 -1.5482444165558835e-09 0.0000000000000000e+00  -9.5249482648811547e-10 -1.8558671869974018e-09 0.0000000000000000e+00  -7.8579126336563574e-10 -2.1151223734137467e-09 0.0000000000000000e+00  -6.0166682733403307e-10 -2.3184870459376302e-09 0.0000000000000000e+00  -4.1326890822113839e-10 -2.4597554976925296e-09 0.0000000000000000e+00  -2.6064031801344616e-10 -2.5319659944304898e-09 0.0000000000000000e+00  -2.7641259620852831e-10 -2.4598662020295961e-09 0.0000000000000000e+00  -3.7191447438626811e-10 2.8554968865519984e-09 0.0000000000000000e+00  -3.1578704073709651e-10 2.7584100251606093e-09 0.0000000000000000e+00  -4.6196647161103278e-10 2.6694354862445626e-09 0.0000000000000000e+00  -6.4366961523631790e-10 2.5085205051434658e-09 0.0000000000000000e+00  -8.1644303934058539e-10 2.2796450209794594e-09 0.0000000000000000e+00  -9.681