<?xml version="1.0"?>
<VTKFile type="UnstructuredGrid"  version="0.1"  >
<UnstructuredGrid>
<Piece  NumberOfPoints="651" NumberOfCells="1200">
<Points>
<DataArray  type="Float64"  NumberOfComponents="3"  format="ascii">0 0 0  50000 0 0  100000 0 0  150000 0 0  200000 0 0  250000 0 0  300000 0 0  350000 0 0  400000 0 0  450000 0 0  500000 0 0  550000 0 0  600000 0 0  650000 0 0  700000 0 0  750000 0 0  800000 0 0  850000 0 0  900000 0 0  950000 0 0  1000000 0 0  0 50000 0  50000 50000 0  100000 50000 0  150000 50000 0  200000 50000 0  250000 50000 0  300000 50000 0  350000 50000 0  400000 50000 0  450000 50000 0  500000 50000 0  550000 50000 0  600000 50000 0  650000 50000 0  700000 50000 0  750000 50000 0  800000 50000 0  850000 50000 0  900000 50000 0  950000 50000 0  1000000 50000 0  0 100000 0  50000 100000 0  100000 100000 0  150000 100000 0  200000 100000 0  250000 100000 0  300000 100000 0  350000 100000 0  400000 100000 0  450000 100000 0  500000 100000 0  550000 100000 0  600000 100000 0  650000 100000 0  700000 100000 0  750000 100000 0  800000 100000 0  850000 100000 0  900000 100000 0  950000 100000 0  1000000 100000 0  0 150000 0  50000 150000 0  100000 150000 0  150000 150000 0  200000 150000 0  250000 150000 0  300000 150000 0  350000 150000 0  400000 150000 0  450000 150000 0  500000 150000 0  550000 150000 0  600000 150000 0  650000 150000 0  700000 150000 0  750000 150000 0  800000 150000 0  850000 150000 0  900000 150000 0  950000 150000 0  1000000 150000 0  0 200000 0  50000 200000 0  100000 200000 0  150000 200000 0  200000 200000 0  250000 200000 0  300000 200000 0  350000 200000 0  400000 200000 0  450000 200000 0  500000 200000 0  550000 200000 0  600000 200000 0  650000 200000 0  700000 200000 0  750000 200000 0  800000 200000 0  850000 200000 0  900000 200000 0  950000 200000 0  1000000 200000 0  0 250000 0  50000 250000 0  100000 250000 0  150000 250000 0  200000 250000 0  250000 250000 0  300000 250000 0  350000 250000 0  400000 250000 0  450000 250000 0  500000 250000 0  550000 250000 0  600000 250000 0  650000 250000 0  700000 250000 0  750000 250000 0  800000 250000 0  850000 250000 0  900000 250000 0  950000 250000 0  1000000 250000 0  0 300000 0  50000 300000 0  100000 300000 0  150000 300000 0  200000 300000 0  250000 300000 0  300000 300000 0  350000 300000 0  400000 300000 0  450000 300000 0  500000 300000 0  550000 300000 0  600000 300000 0  650000 300000 0  700000 300000 0  750000 300000 0  800000 300000 0  850000 300000 0  900000 300000 0  950000 300000 0  1000000 300000 0  0 350000 0  50000 350000 0  100000 350000 0  150000 350000 0  200000 350000 0  250000 350000 0  300000 350000 0  350000 350000 0  400000 350000 0  450000 350000 0  500000 350000 0  550000 350000 0  600000 350000 0  650000 350000 0  700000 350000 0  750000 350000 0  800000 350000 0  850000 350000 0  900000 350000 0  950000 350000 0  1000000 350000 0  0 400000 0  50000 400000 0  100000 400000 0  150000 400000 0  200000 400000 0  250000 400000 0  300000 400000 0  350000 400000 0  400000 400000 0  450000 400000 0  500000 400000 0  550000 400000 0  600000 400000 0  650000 400000 0  700000 400000 0  750000 400000 0  800000 400000 0  850000 400000 0  900000 400000 0  950000 400000 0  1000000 400000 0  0 450000 0  50000 450000 0  100000 450000 0  150000 450000 0  200000 450000 0  250000 450000 0  300000 450000 0  350000 450000 0  400000 450000 0  450000 450000 0  500000 450000 0  550000 450000 0  600000 450000 0  650000 450000 0  700000 450000 0  750000 450000 0  800000 450000 0  850000 450000 0  900000 450000 0  950000 450000 0  1000000 450000 0  0 500000 0  50000 500000 0  100000 500000 0  150000 500000 0  200000 500000 0  250000 500000 0  300000 500000 0  350000 500000 0  400000 500000 0  450000 500000 0  500000 500000 0  550000 500000 0  600000 500000 0  650000 500000 0  700000 500000 0  750000 500000 0  800000 500000 0  850000 500000 0  900000 500000 0  950000 500000 0  1000000 500000 0  0 550000 0  50000 550000 0  100000 550000 0  150000 550000 0  200000 550000 0  250000 550000 0  300000 550000 0  350000 550000 0  400000 550000 0  450000 550000 0  500000 550000 0  550000 550000 0  600000 550000 0  650000 550000 0  700000 550000 0  750000 550000 0  800000 550000 0  850000 550000 0  900000 550000 0  950000 550000 0  1000000 550000 0  0 600000 0  50000 600000 0  100000 600000 0  150000 600000 0  200000 600000 0  250000 600000 0  300000 600000 0  350000 600000 0  400000 600000 0  450000 600000 0  500000 600000 0  550000 600000 0  600000 600000 0  650000 600000 0  700000 600000 0  750000 600000 0  800000 600000 0  850000 600000 0  900000 600000 0  950000 600000 0  1000000 600000 0  0 650000 0  50000 650000 0  100000 650000 0  150000 650000 0  200000 650000 0  250000 650000 0  300000 650000 0  350000 650000 0  400000 650000 0  450000 650000 0  500000 650000 0  550000 650000 0  600000 650000 0  650000 650000 0  700000 650000 0  750000 650000 0  800000 650000 0  850000 650000 0  900000 650000 0  950000 650000 0  1000000 650000 0  0 700000 0  50000 700000 0  100000 700000 0  150000 700000 0  200000 700000 0  250000 700000 0  300000 700000 0  350000 700000 0  400000 700000 0  450000 700000 0  500000 700000 0  550000 700000 0  600000 700000 0  650000 700000 0  700000 700000 0  750000 700000 0  800000 700000 0  850000 700000 0  900000 700000 0  950000 700000 0  1000000 700000 0  0 750000 0  50000 750000 0  100000 750000 0  150000 750000 0  200000 750000 0  250000 750000 0  300000 750000 0  350000 750000 0  400000 750000 0  450000 750000 0  500000 750000 0  550000 750000 0  600000 750000 0  650000 750000 0  700000 750000 0  750000 750000 0  800000 750000 0  850000 750000 0  900000 750000 0  950000 750000 0  1000000 750000 0  0 800000 0  50000 800000 0  100000 800000 0  150000 800000 0  200000 800000 0  250000 800000 0  300000 800000 0  350000 800000 0  400000 800000 0  450000 800000 0  500000 800000 0  550000 800000 0  600000 800000 0  650000 800000 0  700000 800000 0  750000 800000 0  800000 800000 0  850000 800000 0  900000 800000 0  950000 800000 0  1000000 800000 0  0 850000 0  50000 850000 0  100000 850000 0  150000 850000 0  200000 850000 0  250000 850000 0  300000 850000 0  350000 850000 0  400000 850000 0  450000 850000 0  500000 850000 0  550000 850000 0  600000 850000 0  650000 850000 0  700000 850000 0  750000 850000 0  800000 850000 0  850000 850000 0  900000 850000 0  950000 850000 0  1000000 850000 0  0 900000 0  50000 900000 0  100000 900000 0  150000 900000 0  200000 900000 0  250000 900000 0  300000 900000 0  350000 900000 0  400000 900000 0  450000 900000 0  500000 900000 0  550000 900000 0  600000 900000 0  650000 900000 0  700000 900000 0  750000 900000 0  800000 900000 0  850000 900000 0  900000 900000 0  950000 900000 0  1000000 900000 0  0 950000 0  50000 950000 0  100000 950000 0  150000 950000 0  200000 950000 0  250000 950000 0  300000 950000 0  350000 950000 0  400000 950000 0  450000 950000 0  500000 950000 0  550000 950000 0  600000 950000 0  650000 950000 0  700000 950000 0  750000 950000 0  800000 950000 0  850000 950000 0  900000 950000 0  950000 950000 0  1000000 950000 0  0 1000000 0  50000 1000000 0  100000 1000000 0  150000 1000000 0  200000 1000000 0  250000 1000000 0  300000 1000000 0  350000 1000000 0  400000 1000000 0  450000 1000000 0  500000 1000000 0  550000 1000000 0  600000 1000000 0  650000 1000000 0  700000 1000000 0  750000 1000000 0  800000 1000000 0  850000 1000000 0  900000 1000000 0  950000 1000000 0  1000000 1000000 0  0 1050000 0  50000 1050000 0  100000 1050000 0  150000 1050000 0  200000 1050000 0  250000 1050000 0  300000 1050000 0  350000 1050000 0  400000 1050000 0  450000 1050000 0  500000 1050000 0  550000 1050000 0  600000 1050000 0  650000 1050000 0  700000 1050000 0  750000 1050000 0  800000 1050000 0  850000 1050000 0  900000 1050000 0  950000 1050000 0  1000000 1050000 0  0 1100000 0  50000 1100000 0  100000 1100000 0  150000 1100000 0  200000 1100000 0  250000 1100000 0  300000 1100000 0  350000 1100000 0  400000 1100000 0  450000 1100000 0  500000 1100000 0  550000 1100000 0  600000 1100000 0  650000 1100000 0  700000 1100000 0  750000 1100000 0  800000 1100000 0  850000 1100000 0  900000 1100000 0  950000 1100000 0  1000000 1100000 0  0 1150000 0  50000 1150000 0  100000 1150000 0  150000 1150000 0  200000 1150000 0  250000 1150000 0  300000 1150000 0  350000 1150000 0  400000 1150000 0  450000 1150000 0  500000 1150000 0  550000 1150000 0  600000 1150000 0  650000 1150000 0  700000 1150000 0  750000 1150000 0  800000 1150000 0  850000 1150000 0  900000 1150000 0  950000 1150000 0  1000000 1150000 0  0 1200000 0  50000 1200000 0  100000 1200000 0  150000 1200000 0  200000 1200000 0  250000 1200000 0  300000 1200000 0  350000 1200000 0  400000 1200000 0  450000 1200000 0  500000 1200000 0  550000 1200000 0  600000 1200000 0  650000 1200000 0  700000 1200000 0  750000 1200000 0  800000 1200000 0  850000 1200000 0  900000 1200000 0  950000 1200000 0  1000000 1200000 0  0 1250000 0  50000 1250000 0  100000 1250000 0  150000 1250000 0  200000 1250000 0  250000 1250000 0  300000 1250000 0  350000 1250000 0  400000 1250000 0  450000 1250000 0  500000 1250000 0  550000 1250000 0  600000 1250000 0  650000 1250000 0  700000 1250000 0  750000 1250000 0  800000 1250000 0  850000 1250000 0  900000 1250000 0  950000 1250000 0  1000000 1250000 0  0 1300000 0  50000 1300000 0  100000 1300000 0  150000 1300000 0  200000 1300000 0  250000 1300000 0  300000 1300000 0  350000 1300000 0  400000 1300000 0  450000 1300000 0  500000 1300000 0  550000 1300000 0  600000 1300000 0  650000 1300000 0  700000 1300000 0  750000 1300000 0  800000 1300000 0  850000 1300000 0  900000 1300000 0  950000 1300000 0  1000000 1300000 0  0 1350000 0  50000 1350000 0  100000 1350000 0  150000 1350000 0  200000 1350000 0  250000 1350000 0  300000 1350000 0  350000 1350000 0  400000 1350000 0  450000 1350000 0  500000 1350000 0  550000 1350000 0  600000 1350000 0  650000 1350000 0  700000 135
[...]
<PointData  Vectors="f_2995"> 
<DataArray  type="Float64"  Name="f_2995"  NumberOfComponents="3" format="ascii">-1.6455694528583323e-10 1.3189059144983688e-10 0.0000000000000000e+00  -3.0101551651313243e-10 1.0493859112418497e-10 0.0000000000000000e+00  -5.4405003891638158e-10 9.3022199844182872e-11 0.0000000000000000e+00  -7.7901282450868558e-10 8.2775597117651316e-11 0.0000000000000000e+00  -9.9416064086775585e-10 7.1225426494930354e-11 0.0000000000000000e+00  -1.1832230576226771e-09 5.7965570726974005e-11 0.0000000000000000e+00  -1.3411090329838538e-09 4.3083405090240890e-11 0.0000000000000000e+00  -1.4637045795540280e-09 2.6842587524389846e-11 0.0000000000000000e+00  -1.5478665798481481e-09 9.6004958220517592e-12 0.0000000000000000e+00  -1.5914769109737523e-09 -8.2306291292719007e-12 0.0000000000000000e+00  -1.5934875643475537e-09 -2.6207711656090238e-11 0.0000000000000000e+00  -1.5539423771838239e-09 -4.3875021809646060e-11 0.0000000000000000e+00  -1.4739725861233006e-09 -6.0780063126559836e-11 0.0000000000000000e+00  -1.3557661667724249e-09 -7.6489073105942101e-11 0.0000000000000000e+00  -1.2025164246068104e-09 -9.0604537772490563e-11 0.0000000000000000e+00  -1.0183832914233120e-09 -1.0279207889400575e-10 0.0000000000000000e+00  -8.0864195082818379e-10 -1.1284303380132581e-10 0.0000000000000000e+00  -5.8081673849407036e-10 -1.2084524815468727e-10 0.0000000000000000e+00  -3.5003525689289796e-10 -1.2702708253915543e-10 0.0000000000000000e+00  -1.6173928786842972e-10 -1.2250062944758274e-10 0.0000000000000000e+00  -8.2275514397838869e-11 -8.0860987341662622e-11 0.0000000000000000e+00  -1.4105477875242026e-10 2.5778231623572024e-10 0.0000000000000000e+00  -2.4731476146554723e-10 2.3798944299477754e-10 0.0000000000000000e+00  -4.3665807356587859e-10 2.4769226213985362e-10 0.0000000000000000e+00  -6.4981427965428079e-10 2.3560576487719214e-10 0.0000000000000000e+00  -8.5344223930217725e-10 2.1407924243802389e-10 0.0000000000000000e+00  -1.0366904371039610e-09 1.8587421121077762e-10 0.0000000000000000e+00  -1.1936583984538688e-09 1.5237476661761778e-10 0.0000000000000000e+00  -1.3198770991786807e-09 1.1469519934448449e-10 0.0000000000000000e+00  -1.4119138137873283e-09 7.3925327172669837e-11 0.0000000000000000e+00  -1.4673417805294643e-09 3.1184481494893027e-11 0.0000000000000000e+00  -1.4847519076055457e-09 -1.2379010086066959e-11 0.0000000000000000e+00  -1.4637657802949296e-09 -5.5605342226118656e-11 0.0000000000000000e+00  -1.4050364475843210e-09 -9.7345974452214000e-11 0.0000000000000000e+00  -1.3102332601005281e-09 -1.3648674581650364e-10 0.0000000000000000e+00  -1.1820153630260389e-09 -1.7196743860555831e-10 0.0000000000000000e+00  -1.0240166656497695e-09 -2.0279070593202130e-10 0.0000000000000000e+00  -8.4093421885481269e-10 -2.2799448703714534e-10 0.0000000000000000e+00  -6.3911928908060912e-10 -2.4643311144248237e-10 0.0000000000000000e+00  -4.2935956613134607e-10 -2.5541623146332106e-10 0.0000000000000000e+00  -2.3825514719813037e-10 -2.4465986346990687e-10 0.0000000000000000e+00  -1.2749506682650117e-10 -1.5461212259702590e-10 0.0000000000000000e+00  -1.3927492952776945e-10 4.8064409987629925e-10 0.0000000000000000e+00  -2.5206075985605515e-10 4.2750538383110081e-10 0.0000000000000000e+00  -4.3126845723212790e-10 4.3647819938276891e-10 0.0000000000000000e+00  -6.2572396396741893e-10 4.1852591014817615e-10 0.0000000000000000e+00  -8.1298564639507551e-10 3.8329822111901241e-10 0.0000000000000000e+00  -9.8305404305032843e-10 3.3532967611678044e-10 0.0000000000000000e+00  -1.1294521365559534e-09 2.7740947243310782e-10 0.0000000000000000e+00  -1.2475677605199786e-09 2.1173064133934379e-10 0.0000000000000000e+00  -1.3339801733756398e-09 1.4033643764964261e-10 0.0000000000000000e+00  -1.3862991855442251e-09 6.5266290950986158e-11 0.0000000000000000e+00  -1.4031378924476554e-09 -1.1414839719670023e-11 0.0000000000000000e+00  -1.3841086008335283e-09 -8.7631147253236596e-11 0.0000000000000000e+00  -1.3298167377594283e-09 -1.6132581053866035e-10 0.0000000000000000e+00  -1.2418465846749734e-09 -2.3049229315044711e-10 0.0000000000000000e+00  -1.1227421498432950e-09 -2.9319553561744845e-10 0.0000000000000000e+00  -9.7600321426927474e-10 -3.4756297078526534e-10 0.0000000000000000e+00  -8.0617049804136646e-10 -3.9169377610122150e-10 0.0000000000000000e+00  -6.1927328044428657e-10 -4.2334126654716767e-10 0.0000000000000000e+00  -4.2467172065148166e-10 -4.3898563501892434e-10 0.0000000000000000e+00  -2.4381250787268148e-10 -4.3158256167727170e-10 0.0000000000000000e+00  -1.3394659398169224e-10 -3.2790749431343396e-10 0.0000000000000000e+00  -1.4447302878972658e-10 6.9989026872164118e-10 0.0000000000000000e+00  -2.5182525739570329e-10 6.3306960689656153e-10 0.0000000000000000e+00  -4.2798095955068437e-10 6.3183525453434200e-10 0.0000000000000000e+00  -6.1518848018858878e-10 6.0467186985843269e-10 0.0000000000000000e+00  -7.9328661518920958e-10 5.5494401320013930e-10 0.0000000000000000e+00  -9.5449967400841007e-10 4.8694674050710733e-10 0.0000000000000000e+00  -1.0933098963396865e-09 4.0427170488715756e-10 0.0000000000000000e+00  -1.2053667728692228e-09 3.1007436180766414e-10 0.0000000000000000e+00  -1.2873480848093642e-09 2.0736787150691941e-10 0.0000000000000000e+00  -1.3369196392252029e-09 9.9155411197193309e-11 0.0000000000000000e+00  -1.3527218612038833e-09 -1.1536102306024050e-11 0.0000000000000000e+00  -1.3343645332838029e-09 -1.2167207576329202e-10 0.0000000000000000e+00  -1.2824172842409036e-09 -2.2824739636198205e-10 0.0000000000000000e+00  -1.1983908931307604e-09 -3.2832771593415807e-10 0.0000000000000000e+00  -1.0847092986515255e-09 -4.1908133551809518e-10 0.0000000000000000e+00  -9.4468066615462446e-10 -4.9778518392070740e-10 0.0000000000000000e+00  -7.8250889843317918e-10 -5.6178206653945218e-10 0.0000000000000000e+00  -6.0354742781823791e-10 -6.0837423044217329e-10 0.0000000000000000e+00  -4.1582578101336012e-10 -6.3463328947203893e-10 0.0000000000000000e+00  -2.3928038959713751e-10 -6.3618298526441090e-10 0.0000000000000000e+00  -1.3451390271872576e-10 -5.3848562637445511e-10 0.0000000000000000e+00  -1.5331315793513760e-10 9.1442665763481210e-10 0.0000000000000000e+00  -2.5259870165898448e-10 8.3951165839524529e-10 0.0000000000000000e+00  -4.2694563245543088e-10 8.2723763350837357e-10 0.0000000000000000e+00  -6.1188504851687666e-10 7.8822893698306552e-10 0.0000000000000000e+00  -7.8628883683362818e-10 7.2308968403271409e-10 0.0000000000000000e+00  -9.4314214586060228e-10 6.3514454792889096e-10 0.0000000000000000e+00  -1.0777099094738199e-09 5.2823019710746728e-10 0.0000000000000000e+00  -1.1861059070198365e-09 4.0620256574131710e-10 0.0000000000000000e+00  -1.2652388443878404e-09 2.7293372380017835e-10 0.0000000000000000e+00  -1.3128868639658181e-09 1.3234288336126867e-10 0.0000000000000000e+00  -1.3277413579996193e-09 -1.1606913824813928e-11 0.0000000000000000e+00  -1.3094214562557458e-09 -1.5494317624494520e-10 0.0000000000000000e+00  -1.2584688539564741e-09 -2.9373598783821965e-10 0.0000000000000000e+00  -1.1763255756486164e-09 -4.2415630817119172e-10 0.0000000000000000e+00  -1.0652941121607182e-09 -5.4253211462481145e-10 0.0000000000000000e+00  -9.2848340924096860e-10 -6.4539788481477012e-10 0.0000000000000000e+00  -7.6978065165272827e-10 -7.2954466830622379e-10 0.0000000000000000e+00  -5.9409513769844378e-10 -7.9210743190474579e-10 0.0000000000000000e+00  -4.0914382080673266e-10 -8.3063480420803263e-10 0.0000000000000000e+00  -2.3574363870539047e-10 -8.4154744757209934e-10 0.0000000000000000e+00  -1.3886674033576974e-10 -7.5106617394442582e-10 0.0000000000000000e+00  -1.6518692491479766e-10 1.1269237476071582e-09 0.0000000000000000e+00  -2.5590162522027413e-10 1.0457664226426623e-09 0.0000000000000000e+00  -4.2941654611007097e-10 1.0232097606208673e-09 0.0000000000000000e+00  -6.1465693389284886e-10 9.7113250556738761e-10 0.0000000000000000e+00  -7.8875545050720210e-10 8.8955234844078814e-10 0.0000000000000000e+00  -9.4455444108318261e-10 7.8124446756396255e-10 0.0000000000000000e+00  -1.0776436414288704e-09 6.5013057075476484e-10 0.0000000000000000e+00  -1.1844737287927198e-09 5.0057869631521937e-10 0.0000000000000000e+00  -1.2621861341648038e-09 3.3719742928084024e-10 0.0000000000000000e+00  -1.3086981400890907e-09 1.6474885081524744e-10 0.0000000000000000e+00  -1.3227742562058670e-09 -1.1915375906769692e-11 0.0000000000000000e+00  -1.3040590749234550e-09 -1.8792210120391750e-10 0.0000000000000000e+00  -1.2530800869189666e-09 -3.5845279611003764e-10 0.0000000000000000e+00  -1.1712264507204859e-09 -5.1882584118356728e-10 0.0000000000000000e+00  -1.0607055382490881e-09 -6.6458402670164446e-10 0.0000000000000000e+00  -9.2448504646199834e-10 -7.9159142760057488e-10 0.0000000000000000e+00  -7.6627925861253685e-10 -8.9615477542641659e-10 0.0000000000000000e+00  -5.9089128581954517e-10 -9.7519094228124240e-10 0.0000000000000000e+00  -4.0634978610468768e-10 -1.0262791009303065e-09 0.0000000000000000e+00  -2.3502885997240371e-10 -1.0457276630141932e-09 0.0000000000000000e+00  -1.4656077635450910e-10 -9.6047306226610273e-10 0.0000000000000000e+00  -1.7988162518263996e-10 1.3398001873655926e-09 0.0000000000000000e+00  -2.6179206613115525e-10 1.2531627129832830e-09 0.0000000000000000e+00  -4.3545412391903681e-10 1.2210544106016312e-09 0.0000000000000000e+00  -6.2261278875532552e-10 1.1555049356805262e-09 0.0000000000000000e+00  -7.9847372379786439e-10 1.0566865834904611e-09 0.0000000000000000e+00  -9.5538886649625719e-10 9.2736253490790420e-10 0.0000000000000000e+00  -1.0889560631175223e-09 7.7165461960874225e-10 0.0000000000000000e+00  -1.1957831799506191e-09 5.9440207855687712e-10 0.0000000000000000e+00  -1.2731757551813130e-09 4.0088100897366233e-10 0.0000000000000000e+00  -1.3191760618556544e-09 1.9663678450841065e-10 0.0000000000000000e+00  -1.3326280659786495e-09 -1.2637355771508229e-11 0.0000000000000000e+00  -1.3132144555783932e-09 -2.2120659165991850e-10 0.0000000000000000e+00  -1.2614646905803099e-09 -4.2339883001274113e-10 0.0000000000000000e+00  -1.1787387020658220e-09 -6.1371320082292428e-10 0.0000000000000000e+00  -1.0671900913694584e-09 -7.8693770080600413e-10 0.0000000000000000e+00  -9.2972313990236280e-10 -9.3828309545670505e-10 0.0000000000000000e+00  -7.7002041594739000e-10 -1.0635429925103332e-09 0.0000000000000000e+00  -5.9299946249266265e-10 -1.1592755680953284e-09 0.0000000000000000e+00  -4.0725327208599291e-10 -1.2227888207434656e-09 0.0000000000000000e+00  -2.3695221034305777e-10 -1.2499932935838854e-09 0.0000000000000000e+00  -1.5716429772041545e-10 -1.1679233105635719e-09 0.0000000000000000e+00  -1.9730657953240701e-10 1.5548709123793459e-09 0.0000000000000000e+00  -2.6984563709224831e-10 1.4631510552513189e-09 0.0000000000000000e+00  -4.4432813557458330e-10 1.4219971616156242e-09 0.0000000000000000e+00  -6.3440933236065290e-10 1.3428149497513267e-09 0.0000000000000000e+00  -8.1321914671731259e-10 1.2261616536607020e-09 0.0000000000000000e+00  -9.7250837020962407e-10 1.0751161383648505e-09 0.0000000000000000e+00  -1.1077308917313572e-09 8.9418042901489030e-10 0.0000000000000000e+00  -1.2155293300637332e-09 6.8871796533393044e-10 0.0000000000000000e+00  -1.2933046153711564e-09 4.6466373536639734e-10 0.0000000000000000e+00  -1.3391974903334093e-09 2.2831616666800673e-10 0.0000000000000000e+00  -1.3521280472909448e-09 -1.3824960963768979e-11 0.0000000000000000e+00  -1.3318241807638908e-09 -2.5519678822199262e-10 0.0000000000000000e+00  -1.2788301627953013e-09 -4.8930277551647835e-10 0.0000000000000000e+00  -1.1944972250536924e-09 -7.0984393386873844e-10 0.0000000000000000e+00  -1.0809604658456922e-09 -9.1086047668199024e-10 0.0000000000000000e+00  -9.4112034543483410e-10 -1.0868910872210798e-09 0.0000000000000000e+00  -7.7871692212315085e-10 -1.2331529179986150e-09 0.0000000000000000e+00  -5.9888901361224627e-10 -1.3457218775319880e-09 0.0000000000000000e+00  -4.1089341706131550e-10 -1.4214787662344824e-09 0.0000000000000000e+00  -2.4091138661948146e-10 -1.4558709105238257e-09 0.0000000000000000e+00  -1.7050702483134012e-10 -1.3754285772055595e-09 0.0000000000000000e+00  -2.1743697055169573e-10 1.7731888644448710e-09 0.0000000000000000e+00  -2.7942262071235160e-10 1.6767483862824567e-09 0.0000000000000000e+00  -4.5485786666216378e-10 1.6268372311577793e-09 0.0000000000000000e+00  -6.4824015616532491e-10 1.5338707818109086e-09 0.0000000000000000e+00  -8.3043898309660220e-10 1.3988647949020139e-09 0.0000000000000000e+00  -9.9257001977694279e-10 1.2253953692603169e-09 0.0000000000000000e+00  -1.1298950215946418e-09 1.0184994420641100e-09 0.0000000000000000e+00  -1.2390397491440224e-09 7.8414944376963836e-10 0.0000000000000000e+00  -1.3174662797123661e-09 5.2896756325931865e-10 0.0000000000000000e+00  -1.3633999853392680e-09 2.5999926142950664e-10 0.0000000000000000e+00  -1.3758362940311242e-09 -1.5472342991422436e-11 0.0000000000000000e+00  -1.3545526420303374e-09 -2.9008499039089934e-10 0.0000000000000000e+00  -1.3001136796948814e-09 -5.5654280392078636e-10 0.0000000000000000e+00  -1.2138696733808593e-09 -8.0776217761577069e-10 0.0000000000000000e+00  -1.0979514551111593e-09 -1.0370292950308790e-09 0.0000000000000000e+00  -9.5528079037734701e-10 -1.2381766210973411e-09 0.0000000000000000e+00  -7.8969059803319350e-10 -1.4057776311789556e-09 0.0000000000000000e+00  -6.0657913334318066e-10 -1.5353331322384769e-09 0.0000000000000000e+00  -4.1592022741702378e-10 -1.6232145559545308e-09 0.0000000000000000e+00  -2.4615421739661426e-10 -1.6644004572513197e-09 0.0000000000000000e+00  -1.8652480679889521e-10 -1.5845168196068004e-09 0.0000000000000000e+00  -2.4028563964313300e-10 1.9949429088432294e-09 0.0000000000000000e+00  -2.8973406145746430e-10 1.8942975247986154e-09 0.0000000000000000e+00  -4.6552798834471594e-10 1.8357483294079748e-09 0.0000000000000000e+00  -6.6185204909471428e-10 1.7287827260902997e-09 0.0000000000000000e+00  -8.4710599985802711e-10 1.5749173116267046e-09 0.0000000000000000e+00  -1.0117615743749793e-09 1.3783416308271124e-09 0.0000000000000000e+00  -1.1509008796688844e-09 1.1447501525870872e-09 0.0000000000000000e+00  -1.2611418555283165e-09 8.8081111120622451e-10 0.0000000000000000e+00  -1.3400181075431176e-09 5.9387558626424413e-10 0.0000000000000000e+00  -1.3858528413124165e-09 2.9174024993447778e-10 0.0000000000000000e+00  -1.3977286989700279e-09 -1.7548750397829090e-11 0.0000000000000000e+00  -1.3754779675459035e-09 -3.2586078967451472e-10 0.0000000000000000e+00  -1.3196818342306128e-09 -6.2512932576193517e-10 0.0000000000000000e+00  -1.2316779489203862e-09 -9.0750072431449283e-10 0.0000000000000000e+00  -1.1135777138644899e-09 -1.1654982700759117e-09 0.0000000000000000e+00  -9.6831021126319976e-10 -1.3922106350532360e-09 0.0000000000000000e+00  -7.9979095692732328e-10 -1.5815034904919365e-09 0.0000000000000000e+00  -6.1367492021870522e-10 -1.7282263907949851e-09 0.0000000000000000e+00  -4.2069210429027846e-10 -1.8281839457159675e-09 0.0000000000000000e+00  -2.5181099411574834e-10 -1.8758889159689623e-09 0.0000000000000000e+00  -2.0520412471848285e-10 -1.7959365251463761e-09 0.0000000000000000e+00  -2.6588712652321289e-10 2.2193348486722944e-09 0.0000000000000000e+00  -2.9984088287638535e-10 2.1152947896237437e-09 0.0000000000000000e+00  -4.7449470801704063e-10 2.0481045032537912e-09 0.0000000000000000e+00  -6.7250559408500497e-10 1.9268543043414359e-09 0.0000000000000000e+00  -8.5958907848184674e-10 1.7536192389581041e-09 0.0000000000000000e+00  -1.0255800002748174e-09 1.5333026464169649e-09 0.0000000000000000e+00  -1.1654366219623922e-09 1.2723640758990657e-09 0.0000000000000000e+00  -1.2758311966848689e-09 9.7824925916975491e-10 0.0000000000000000e+00  -1.3544272017556317e-09 6.5907851151777090e-10 0.0000000000000000e+00  -1.3996941001363827e-09 3.2339912278117023e-10 0.0000000000000000e+00  -1.4108334379748522e-09 -2.0010877939662383e-11 0.0000000000000000e+00  -1.3877417310583324e-09 -3.6229873969558859e-10 0.0000000000000000e+00  -1.3310019007283274e-09 -6.9467160241694145e-10 0.0000000000000000e+00  -1.2419028627192650e-09 -1.0085326400287061e-09 0.0000000000000000e+00  -1.1224860157728754e-09 -1.2956400711219164e-09 0.0000000000000000e+00  -9.7563160512167877e-10 -1.5483030405736711e-09 0.0000000000000000e+00  -8.0528542268443434e-10 -1.7596151788375825e-09 0.0000000000000000e+00  -6.1732473346314370e-10 -1.9236985302108332e-09 0.0000000000000000e+00  -4.2326468625813192e-10 -2.0357305513142218e-09 0.0000000000000000e+00  -2.5687601258065478e-10 -2.0897532608962425e-09 0.0000000000000000e+00  -2.2656190875530191e-10 -2.0095319914580925e-09 0.0000000000000000e+00  -2.9428845784699749e-10 2.4444163292340296e-09 0.0000000000000000e+00  -3.0862579219270971e-10 2.3382130719426806e-09 0.0000000000000000e+00  -4.7953747423455219e-10 2.2622928150880065e-09 0.0000000000000000e+00  -6.7688550005227020e-10 2.1264176898313325e-09 0.0000000000000000e+00  -8.6349773543450578e-10 1.9333163773084247e-09 0.0000000000000000e+00  -1.0286002538155683e-09 1.6887208208300824e-09 0.0000000000000000e+00  -1.1671261977959526e-09 1.3999666821639435e-09 0.0000000000000000e+00  -1.2759186379450884e-09 1.0753563464951406e-09 0.0000000000000000e+00  -1.3528825883208599e-09 7.2380995078546816e-10 0.0000000000000000e+00  -1.3967247214975351e-09 3.5460588624130693e-10 0.0000000000000000e+00  -1.4068229594586060e-09 -2.2804558003637691e-11 0.0000000000000000e+00  -1.3831537826065115e-09 -3.9892514780767343e-10 0.0000000000000000e+00  -1.3262739457146633e-09 -7.6431293658439205e-10 0.0000000000000000e+00  -1.2373572578474365e-09 -1.1096805664435987e-09 0.0000000000000000e+00  -1.1182816827536754e-09 -1.4260347476788960e-09 0.0000000000000000e+00  -9.7177378335454281e-10 -1.7048734582593765e-09 0.0000000000000000e+00  -8.0171143001565530e-10 -1.9384474091122415e-09 0.0000000000000000e+00  -6.1412595157757237e-10 -2.1200595821063538e-09 0.0000000000000000e+00  -4.2133182320299571e-10 -2.2441790449516147e-09 0.0000000000000000e+00  -2.6017091132355594e-10 -2.3043565285823668e-09 0.0000000000000000e+00  -2.5063576532947672e-10 -2.2241138206552447e-09 0.0000000000000000e+00  -3.2554512998263965e-10 2.6668773053404341e-09 0.0000000000000000e+00  -3.1475179615781598e-10 2.5602932686212619e-09 0.0000000000000000e+00  -4.7797905802040231e-10 2.4754923540709731e-09 0.0000000000000000e+00  -6.7097102735643214e-10 2.3246159567058553e-09 0.0000000000000000e+00  -8.5348851752477187e-10 2.1111976009887037e-09 0.0000000000000000e+00  -1.0142090435306104e-09 1.8419502944193147e-09 0.0000000000000000e+00  -1.1481923975981761e-09 1.5252175974135960e-09 0.0000000000000000e+00  -1.2526336990936586e-09 1.1702406368711722e-09 0.0000000000000000e+00  -1.3258552886669090e-09 7.8675408122889454e-10 0.0000000000000000e+00  -1.3669442836449818e-09 3.8471427781055083e-10 0.0000000000000000e+00  -1.3755448411787303e-09 -2.5860176476393658e-11 0.0000000000000000e+00  -1.3517373545491500e-09 -4.3496243275067734e-10 0.0000000000000000e+00  -1.2960079627770393e-09 -8.3262841096092341e-10 0.0000000000000000e+00  -1.2093105878121445e-09 -1.2089756963815439e-09 0.0000000000000000e+00  -1.0932122278870269e-09 -1.5542991962177415e-09 0.0000000000000000e+00  -9.5012009660964501e-10 -1.8592598356288627e-09 0.0000000000000000e+00  -7.8368903485511916e-10 -2.1151800195275126e-09 0.0000000000000000e+00  -5.9999335382456246e-10 -2.3144214731612900e-09 0.0000000000000000e+00  -4.1213911367686239e-10 -2.4506259639869593e-09 0.0000000000000000e+00  -2.6029734136148388e-10 -2.5168086401586655e-09 0.0000000000000000e+00  -2.7747813868819789e-10 -2.4372887517126539e-09 0.0000000000000000e+00  -3.5972324526754951e-10 2.8817786382294266e-09 0.0000000000000000e+00  -3.1661226513059157e-10 2.7772893454245446e-09 0.0000000000000000e+00  -4.6658269719417316e-10 2.6834042791431622e-09 0.0000000000000000e+00  -6.4987091587278897e-10 2.5171252846932723e-09 0.0000000000000000e+00  -8.2302708922503109e-10 2.2830207970355200e-09 0.0000000000000000e+00  -9.742