<?xml version="1.0"?>
<VTKFile type="UnstructuredGrid"  version="0.1"  >
<UnstructuredGrid>
<Piece  NumberOfPoints="651" NumberOfCells="1200">
<Points>
<DataArray  type="Float64"  NumberOfComponents="3"  format="ascii">0 0 0  50000 0 0  100000 0 0  150000 0 0  200000 0 0  250000 0 0  300000 0 0  350000 0 0  400000 0 0  450000 0 0  500000 0 0  550000 0 0  600000 0 0  650000 0 0  700000 0 0  750000 0 0  800000 0 0  850000 0 0  900000 0 0  950000 0 0  1000000 0 0  0 50000 0  50000 50000 0  100000 50000 0  150000 50000 0  200000 50000 0  250000 50000 0  300000 50000 0  350000 50000 0  400000 50000 0  450000 50000 0  500000 50000 0  550000 50000 0  600000 50000 0  650000 50000 0  700000 50000 0  750000 50000 0  800000 50000 0  850000 50000 0  900000 50000 0  950000 50000 0  1000000 50000 0  0 100000 0  50000 100000 0  100000 100000 0  150000 100000 0  200000 100000 0  250000 100000 0  300000 100000 0  350000 100000 0  400000 100000 0  450000 100000 0  500000 100000 0  550000 100000 0  600000 100000 0  650000 100000 0  700000 100000 0  750000 100000 0  800000 100000 0  850000 100000 0  900000 100000 0  950000 100000 0  1000000 100000 0  0 150000 0  50000 150000 0  100000 150000 0  150000 150000 0  200000 150000 0  250000 150000 0  300000 150000 0  350000 150000 0  400000 150000 0  450000 150000 0  500000 150000 0  550000 150000 0  600000 150000 0  650000 150000 0  700000 150000 0  750000 150000 0  800000 150000 0  850000 150000 0  900000 150000 0  950000 150000 0  1000000 150000 0  0 200000 0  50000 200000 0  100000 200000 0  150000 200000 0  200000 200000 0  250000 200000 0  300000 200000 0  350000 200000 0  400000 200000 0  450000 200000 0  500000 200000 0  550000 200000 0  600000 200000 0  650000 200000 0  700000 200000 0  750000 200000 0  800000 200000 0  850000 200000 0  900000 200000 0  950000 200000 0  1000000 200000 0  0 250000 0  50000 250000 0  100000 250000 0  150000 250000 0  200000 250000 0  250000 250000 0  300000 250000 0  350000 250000 0  400000 250000 0  450000 250000 0  500000 250000 0  550000 250000 0  600000 250000 0  650000 250000 0  700000 250000 0  750000 250000 0  800000 250000 0  850000 250000 0  900000 250000 0  950000 250000 0  1000000 250000 0  0 300000 0  50000 300000 0  100000 300000 0  150000 300000 0  200000 300000 0  250000 300000 0  300000 300000 0  350000 300000 0  400000 300000 0  450000 300000 0  500000 300000 0  550000 300000 0  600000 300000 0  650000 300000 0  700000 300000 0  750000 300000 0  800000 300000 0  850000 300000 0  900000 300000 0  950000 300000 0  1000000 300000 0  0 350000 0  50000 350000 0  100000 350000 0  150000 350000 0  200000 350000 0  250000 350000 0  300000 350000 0  350000 350000 0  400000 350000 0  450000 350000 0  500000 350000 0  550000 350000 0  600000 350000 0  650000 350000 0  700000 350000 0  750000 350000 0  800000 350000 0  850000 350000 0  900000 350000 0  950000 350000 0  1000000 350000 0  0 400000 0  50000 400000 0  100000 400000 0  150000 400000 0  200000 400000 0  250000 400000 0  300000 400000 0  350000 400000 0  400000 400000 0  450000 400000 0  500000 400000 0  550000 400000 0  600000 400000 0  650000 400000 0  700000 400000 0  750000 400000 0  800000 400000 0  850000 400000 0  900000 400000 0  950000 400000 0  1000000 400000 0  0 450000 0  50000 450000 0  100000 450000 0  150000 450000 0  200000 450000 0  250000 450000 0  300000 450000 0  350000 450000 0  400000 450000 0  450000 450000 0  500000 450000 0  550000 450000 0  600000 450000 0  650000 450000 0  700000 450000 0  750000 450000 0  800000 450000 0  850000 450000 0  900000 450000 0  950000 450000 0  1000000 450000 0  0 500000 0  50000 500000 0  100000 500000 0  150000 500000 0  200000 500000 0  250000 500000 0  300000 500000 0  350000 500000 0  400000 500000 0  450000 500000 0  500000 500000 0  550000 500000 0  600000 500000 0  650000 500000 0  700000 500000 0  750000 500000 0  800000 500000 0  850000 500000 0  900000 500000 0  950000 500000 0  1000000 500000 0  0 550000 0  50000 550000 0  100000 550000 0  150000 550000 0  200000 550000 0  250000 550000 0  300000 550000 0  350000 550000 0  400000 550000 0  450000 550000 0  500000 550000 0  550000 550000 0  600000 550000 0  650000 550000 0  700000 550000 0  750000 550000 0  800000 550000 0  850000 550000 0  900000 550000 0  950000 550000 0  1000000 550000 0  0 600000 0  50000 600000 0  100000 600000 0  150000 600000 0  200000 600000 0  250000 600000 0  300000 600000 0  350000 600000 0  400000 600000 0  450000 600000 0  500000 600000 0  550000 600000 0  600000 600000 0  650000 600000 0  700000 600000 0  750000 600000 0  800000 600000 0  850000 600000 0  900000 600000 0  950000 600000 0  1000000 600000 0  0 650000 0  50000 650000 0  100000 650000 0  150000 650000 0  200000 650000 0  250000 650000 0  300000 650000 0  350000 650000 0  400000 650000 0  450000 650000 0  500000 650000 0  550000 650000 0  600000 650000 0  650000 650000 0  700000 650000 0  750000 650000 0  800000 650000 0  850000 650000 0  900000 650000 0  950000 650000 0  1000000 650000 0  0 700000 0  50000 700000 0  100000 700000 0  150000 700000 0  200000 700000 0  250000 700000 0  300000 700000 0  350000 700000 0  400000 700000 0  450000 700000 0  500000 700000 0  550000 700000 0  600000 700000 0  650000 700000 0  700000 700000 0  750000 700000 0  800000 700000 0  850000 700000 0  900000 700000 0  950000 700000 0  1000000 700000 0  0 750000 0  50000 750000 0  100000 750000 0  150000 750000 0  200000 750000 0  250000 750000 0  300000 750000 0  350000 750000 0  400000 750000 0  450000 750000 0  500000 750000 0  550000 750000 0  600000 750000 0  650000 750000 0  700000 750000 0  750000 750000 0  800000 750000 0  850000 750000 0  900000 750000 0  950000 750000 0  1000000 750000 0  0 800000 0  50000 800000 0  100000 800000 0  150000 800000 0  200000 800000 0  250000 800000 0  300000 800000 0  350000 800000 0  400000 800000 0  450000 800000 0  500000 800000 0  550000 800000 0  600000 800000 0  650000 800000 0  700000 800000 0  750000 800000 0  800000 800000 0  850000 800000 0  900000 800000 0  950000 800000 0  1000000 800000 0  0 850000 0  50000 850000 0  100000 850000 0  150000 850000 0  200000 850000 0  250000 850000 0  300000 850000 0  350000 850000 0  400000 850000 0  450000 850000 0  500000 850000 0  550000 850000 0  600000 850000 0  650000 850000 0  700000 850000 0  750000 850000 0  800000 850000 0  850000 850000 0  900000 850000 0  950000 850000 0  1000000 850000 0  0 900000 0  50000 900000 0  100000 900000 0  150000 900000 0  200000 900000 0  250000 900000 0  300000 900000 0  350000 900000 0  400000 900000 0  450000 900000 0  500000 900000 0  550000 900000 0  600000 900000 0  650000 900000 0  700000 900000 0  750000 900000 0  800000 900000 0  850000 900000 0  900000 900000 0  950000 900000 0  1000000 900000 0  0 950000 0  50000 950000 0  100000 950000 0  150000 950000 0  200000 950000 0  250000 950000 0  300000 950000 0  350000 950000 0  400000 950000 0  450000 950000 0  500000 950000 0  550000 950000 0  600000 950000 0  650000 950000 0  700000 950000 0  750000 950000 0  800000 950000 0  850000 950000 0  900000 950000 0  950000 950000 0  1000000 950000 0  0 1000000 0  50000 1000000 0  100000 1000000 0  150000 1000000 0  200000 1000000 0  250000 1000000 0  300000 1000000 0  350000 1000000 0  400000 1000000 0  450000 1000000 0  500000 1000000 0  550000 1000000 0  600000 1000000 0  650000 1000000 0  700000 1000000 0  750000 1000000 0  800000 1000000 0  850000 1000000 0  900000 1000000 0  950000 1000000 0  1000000 1000000 0  0 1050000 0  50000 1050000 0  100000 1050000 0  150000 1050000 0  200000 1050000 0  250000 1050000 0  300000 1050000 0  350000 1050000 0  400000 1050000 0  450000 1050000 0  500000 1050000 0  550000 1050000 0  600000 1050000 0  650000 1050000 0  700000 1050000 0  750000 1050000 0  800000 1050000 0  850000 1050000 0  900000 1050000 0  950000 1050000 0  1000000 1050000 0  0 1100000 0  50000 1100000 0  100000 1100000 0  150000 1100000 0  200000 1100000 0  250000 1100000 0  300000 1100000 0  350000 1100000 0  400000 1100000 0  450000 1100000 0  500000 1100000 0  550000 1100000 0  600000 1100000 0  650000 1100000 0  700000 1100000 0  750000 1100000 0  800000 1100000 0  850000 1100000 0  900000 1100000 0  950000 1100000 0  1000000 1100000 0  0 1150000 0  50000 1150000 0  100000 1150000 0  150000 1150000 0  200000 1150000 0  250000 1150000 0  300000 1150000 0  350000 1150000 0  400000 1150000 0  450000 1150000 0  500000 1150000 0  550000 1150000 0  600000 1150000 0  650000 1150000 0  700000 1150000 0  750000 1150000 0  800000 1150000 0  850000 1150000 0  900000 1150000 0  950000 1150000 0  1000000 1150000 0  0 1200000 0  50000 1200000 0  100000 1200000 0  150000 1200000 0  200000 1200000 0  250000 1200000 0  300000 1200000 0  350000 1200000 0  400000 1200000 0  450000 1200000 0  500000 1200000 0  550000 1200000 0  600000 1200000 0  650000 1200000 0  700000 1200000 0  750000 1200000 0  800000 1200000 0  850000 1200000 0  900000 1200000 0  950000 1200000 0  1000000 1200000 0  0 1250000 0  50000 1250000 0  100000 1250000 0  150000 1250000 0  200000 1250000 0  250000 1250000 0  300000 1250000 0  350000 1250000 0  400000 1250000 0  450000 1250000 0  500000 1250000 0  550000 1250000 0  600000 1250000 0  650000 1250000 0  700000 1250000 0  750000 1250000 0  800000 1250000 0  850000 1250000 0  900000 1250000 0  950000 1250000 0  1000000 1250000 0  0 1300000 0  50000 1300000 0  100000 1300000 0  150000 1300000 0  200000 1300000 0  250000 1300000 0  300000 1300000 0  350000 1300000 0  400000 1300000 0  450000 1300000 0  500000 1300000 0  550000 1300000 0  600000 1300000 0  650000 1300000 0  700000 1300000 0  750000 1300000 0  800000 1300000 0  850000 1300000 0  900000 1300000 0  950000 1300000 0  1000000 1300000 0  0 1350000 0  50000 1350000 0  100000 1350000 0  150000 1350000 0  200000 1350000 0  250000 1350000 0  300000 1350000 0  350000 1350000 0  400000 1350000 0  450000 1350000 0  500000 1350000 0  550000 1350000 0  600000 1350000 0  650000 1350000 0  700000 135
[...]
<PointData  Vectors="f_2995"> 
<DataArray  type="Float64"  Name="f_2995"  NumberOfComponents="3" format="ascii">-1.5597549284806340e-10 1.6916985442781546e-10 0.0000000000000000e+00  -2.9256059951471330e-10 1.4282801966244774e-10 0.0000000000000000e+00  -5.3515311456221102e-10 1.3172143047762786e-10 0.0000000000000000e+00  -7.6946299896857327e-10 1.2175792363150708e-10 0.0000000000000000e+00  -9.8394660880965845e-10 1.1005263512976785e-10 0.0000000000000000e+00  -1.1723429896222591e-09 9.6351223285094374e-11 0.0000000000000000e+00  -1.3295675649763224e-09 8.0816434287283828e-11 0.0000000000000000e+00  -1.4515083164087084e-09 6.3753366525455321e-11 0.0000000000000000e+00  -1.5350209986751597e-09 4.5546994407362577e-11 0.0000000000000000e+00  -1.5779852076591926e-09 2.6628965699497556e-11 0.0000000000000000e+00  -1.5793503175880870e-09 7.4561147329472990e-12 0.0000000000000000e+00  -1.5391576398555647e-09 -1.1505953895430185e-11 0.0000000000000000e+00  -1.4585362891883481e-09 -2.9797260484359755e-11 0.0000000000000000e+00  -1.3396726730459426e-09 -4.6977376539617612e-11 0.0000000000000000e+00  -1.1857587926048183e-09 -6.2640937616901563e-11 0.0000000000000000e+00  -1.0009521133614569e-09 -7.6441720216317302e-11 0.0000000000000000e+00  -7.9052000974769680e-10 -8.8151143466518926e-11 0.0000000000000000e+00  -5.6196402699881167e-10 -9.7823028984738752e-11 0.0000000000000000e+00  -3.3036205190500312e-10 -1.0562827939758970e-10 0.0000000000000000e+00  -1.4111493210011671e-10 -1.0255766124848215e-10 0.0000000000000000e+00  -6.1452305458068788e-11 -6.0976197707723959e-11 0.0000000000000000e+00  -1.3183247548726755e-10 2.9502368117697010e-10 0.0000000000000000e+00  -2.4944503773582399e-10 2.5187027761445665e-10 0.0000000000000000e+00  -4.4603206972827875e-10 2.5326662785881210e-10 0.0000000000000000e+00  -6.5669746545968846e-10 2.4134234233564315e-10 0.0000000000000000e+00  -8.5700570063595847e-10 2.2010253332745286e-10 0.0000000000000000e+00  -1.0376165038421126e-09 1.9202210493446930e-10 0.0000000000000000e+00  -1.1924136542102746e-09 1.5852295781906642e-10 0.0000000000000000e+00  -1.3167642180481225e-09 1.2076472322209967e-10 0.0000000000000000e+00  -1.4071594358304411e-09 7.9869126396178753e-11 0.0000000000000000e+00  -1.4611324264821563e-09 3.6975610222464019e-11 0.0000000000000000e+00  -1.4772559856245614e-09 -6.7536564913289598e-12 0.0000000000000000e+00  -1.4551508301278230e-09 -5.0146939288490153e-11 0.0000000000000000e+00  -1.3954850764735009e-09 -9.2042170466167326e-11 0.0000000000000000e+00  -1.2999612704424841e-09 -1.3130608047951804e-10 0.0000000000000000e+00  -1.1712964496087384e-09 -1.6684735541264624e-10 0.0000000000000000e+00  -1.0132203056673552e-09 -1.9761269471350539e-10 0.0000000000000000e+00  -8.3058273782685999e-10 -2.2253190855317512e-10 0.0000000000000000e+00  -6.2992016940647926e-10 -2.4025721687018884e-10 0.0000000000000000e+00  -4.2194508570932195e-10 -2.4773749426611396e-10 0.0000000000000000e+00  -2.3263588149377751e-10 -2.3309108499929689e-10 0.0000000000000000e+00  -1.0694935484733087e-10 -1.3489016079714447e-10 0.0000000000000000e+00  -1.2917268197991080e-10 5.1851049823422133e-10 0.0000000000000000e+00  -2.5538636975421537e-10 4.3957072064658477e-10 0.0000000000000000e+00  -4.4494908498992035e-10 4.3443384028537246e-10 0.0000000000000000e+00  -6.4129916445146454e-10 4.1483199125504472e-10 0.0000000000000000e+00  -8.2703243923048907e-10 3.7979363874068956e-10 0.0000000000000000e+00  -9.9451761890270019e-10 3.3225032737067225e-10 0.0000000000000000e+00  -1.1382237666677270e-09 2.7471315645832156e-10 0.0000000000000000e+00  -1.2537708120570243e-09 2.0934398266552420e-10 0.0000000000000000e+00  -1.3377869844627446e-09 1.3821000372483148e-10 0.0000000000000000e+00  -1.3878968651593658e-09 6.3380563324477519e-11 0.0000000000000000e+00  -1.4027254840474896e-09 -1.3052358018350944e-11 0.0000000000000000e+00  -1.3819037074964357e-09 -8.8986448267165353e-11 0.0000000000000000e+00  -1.3260673297059299e-09 -1.6233378217499305e-10 0.0000000000000000e+00  -1.2368476676556156e-09 -2.3104505382604420e-10 0.0000000000000000e+00  -1.1168583982947478e-09 -2.9311987740942283e-10 0.0000000000000000e+00  -9.6969743715993786e-10 -3.4657957478399696e-10 0.0000000000000000e+00  -8.0002757792664993e-10 -3.8934798741976072e-10 0.0000000000000000e+00  -6.1397421308274119e-10 -4.1890084753365030e-10 0.0000000000000000e+00  -4.2073797840711875e-10 -4.3129562823891415e-10 0.0000000000000000e+00  -2.4057319287569931e-10 -4.1997769019584388e-10 0.0000000000000000e+00  -1.1488688636660615e-10 -3.0804808297753620e-10 0.0000000000000000e+00  -1.3398003908786849e-10 7.3868478862519709e-10 0.0000000000000000e+00  -2.5326034862725290e-10 6.5193464142132215e-10 0.0000000000000000e+00  -4.3935754544075445e-10 6.3259230198076483e-10 0.0000000000000000e+00  -6.3089112722227379e-10 6.0004985183648806e-10 0.0000000000000000e+00  -8.1001462089422999e-10 5.4886672029594791e-10 0.0000000000000000e+00  -9.7027447467957792e-10 4.8066677929515793e-10 0.0000000000000000e+00  -1.1071875755657219e-09 3.9819109913319799e-10 0.0000000000000000e+00  -1.2169639960601304e-09 3.0432212451016432e-10 0.0000000000000000e+00  -1.2965591274256609e-09 2.0199299296732131e-10 0.0000000000000000e+00  -1.3437831513414122e-09 9.4195117811144373e-11 0.0000000000000000e+00  -1.3573640709084150e-09 -1.6030885493897167e-11 0.0000000000000000e+00  -1.3369768026969648e-09 -1.2562365023346850e-10 0.0000000000000000e+00  -1.2832502891337026e-09 -2.3153866526621819e-10 0.0000000000000000e+00  -1.1977579614155164e-09 -3.3078442476490864e-10 0.0000000000000000e+00  -1.0829943027163215e-09 -4.2044523415386832e-10 0.0000000000000000e+00  -9.4234379611752010e-10 -4.9767515900574672e-10 0.0000000000000000e+00  -7.8007434336630908e-10 -5.5964573932460793e-10 0.0000000000000000e+00  -6.0152745174957251e-10 -6.0345559959632391e-10 0.0000000000000000e+00  -4.1437327477864011e-10 -6.2606921532723080e-10 0.0000000000000000e+00  -2.3736190317984686e-10 -6.2460627924758540e-10 0.0000000000000000e+00  -1.1707998769154664e-10 -5.1877310983978252e-10 0.0000000000000000e+00  -1.4286777835066336e-10 9.5429633492175741e-10 0.0000000000000000e+00  -2.5301817886989176e-10 8.6434285491198574e-10 0.0000000000000000e+00  -4.3617632286496981e-10 8.3307445217006581e-10 0.0000000000000000e+00  -6.2584086448700658e-10 7.8586631557547205e-10 0.0000000000000000e+00  -8.0268354503344295e-10 7.1705943446968031e-10 0.0000000000000000e+00  -9.6002926699263671e-10 6.2759686370975570e-10 0.0000000000000000e+00  -1.0937807198735756e-09 5.2017894649207822e-10 0.0000000000000000e+00  -1.2005931859679445e-09 3.9814579191838242e-10 0.0000000000000000e+00  -1.2777437738835993e-09 2.6514255166469422e-10 0.0000000000000000e+00  -1.3232488965134790e-09 1.2499506979433076e-10 0.0000000000000000e+00  -1.3359578612083245e-09 -1.8362737593270461e-11 0.0000000000000000e+00  -1.3156020191458653e-09 -1.6095216297673522e-10 0.0000000000000000e+00  -1.2628104495678360e-09 -2.9881181193706956e-10 0.0000000000000000e+00  -1.1790990185101147e-09 -4.2805712437465340e-10 0.0000000000000000e+00  -1.0668342551517694e-09 -5.4493406572214699e-10 0.0000000000000000e+00  -9.2917431335254273e-10 -6.4586739853524115e-10 0.0000000000000000e+00  -7.7002125231668803e-10 -7.2752063735027760e-10 0.0000000000000000e+00  -5.9420992569117272e-10 -7.8693177780915255e-10 0.0000000000000000e+00  -4.0907814763966455e-10 -8.2174649536457177e-10 0.0000000000000000e+00  -2.3466866034529978e-10 -8.3019959283001589e-10 0.0000000000000000e+00  -1.2308861801363411e-10 -7.3160600638473561e-10 0.0000000000000000e+00  -1.5513404280573911e-10 1.1680060627539876e-09 0.0000000000000000e+00  -2.5585506911498601e-10 1.0751415133675563e-09 0.0000000000000000e+00  -4.3717941335304071e-10 1.0339749743099550e-09 0.0000000000000000e+00  -6.2679897888135925e-10 9.7210762274704470e-10 0.0000000000000000e+00  -8.0380629618728116e-10 8.8498661067121856e-10 0.0000000000000000e+00  -9.6095644254766109e-10 7.7368439443730749e-10 0.0000000000000000e+00  -1.0941033457627911e-09 6.4107102782559371e-10 0.0000000000000000e+00  -1.2000713637623177e-09 4.9090702992617673e-10 0.0000000000000000e+00  -1.2763375202128223e-09 3.2746596285100651e-10 0.0000000000000000e+00  -1.3210788589511944e-09 1.5533355662324544e-10 0.0000000000000000e+00  -1.3332515396048374e-09 -2.0723522588600580e-11 0.0000000000000000e+00  -1.3126412152815033e-09 -1.9586165652520461e-10 0.0000000000000000e+00  -1.2598808809617538e-09 -3.6525389508519923e-10 0.0000000000000000e+00  -1.1764391427219036e-09 -5.2418028414386194e-10 0.0000000000000000e+00  -1.0645800607385868e-09 -6.6812015438215350e-10 0.0000000000000000e+00  -9.2730164705726010e-10 -7.9285662479329041e-10 0.0000000000000000e+00  -7.6830934283689497e-10 -8.9461776560996508e-10 0.0000000000000000e+00  -5.9232361282617302e-10 -9.7029765993528115e-10 0.0000000000000000e+00  -4.0705855749574020e-10 -1.0176564531586999e-09 0.0000000000000000e+00  -2.3451809857246436e-10 -1.0349708032095243e-09 0.0000000000000000e+00  -1.3242277415104523e-10 -9.4129911202276990e-10 0.0000000000000000e+00  -1.7054811426101010e-10 1.3822202365311257e-09 0.0000000000000000e+00  -2.6159778595055348e-10 1.2862123500550486e-09 0.0000000000000000e+00  -4.4226354407210240e-10 1.2360284145519899e-09 0.0000000000000000e+00  -6.3324891786739769e-10 1.1598996273670414e-09 0.0000000000000000e+00  -8.1197664285257075e-10 1.0541976119105184e-09 0.0000000000000000e+00  -9.7060358303093241e-10 9.2057058894808858e-10 0.0000000000000000e+00  -1.1047733775598613e-09 7.6232448049084402e-10 0.0000000000000000e+00  -1.2113035976477910e-09 5.8372755562417630e-10 0.0000000000000000e+00  -1.2877515291051374e-09 3.8968185179387233e-10 0.0000000000000000e+00  -1.3323897283253960e-09 1.8550079161258285e-10 0.0000000000000000e+00  -1.3442507978062256e-09 -2.3257609617459219e-11 0.0000000000000000e+00  -1.3231639560209371e-09 -2.3092800655196115e-10 0.0000000000000000e+00  -1.2697686963634140e-09 -4.3186123444711622e-10 0.0000000000000000e+00  -1.1855038602559207e-09 -6.2054484114119074e-10 0.0000000000000000e+00  -1.0725735042513527e-09 -7.9173030775277305e-10 0.0000000000000000e+00  -9.3390319694027963e-10 -9.4057906044526287e-10 0.0000000000000000e+00  -7.7316294653734622e-10 -1.0628439862780767e-09 0.0000000000000000e+00  -5.9520610684108833e-10 -1.1550985723557282e-09 0.0000000000000000e+00  -4.0838890407736916e-10 -1.2148535859066162e-09 0.0000000000000000e+00  -2.3685846305060385e-10 -1.2400737182937936e-09 0.0000000000000000e+00  -1.4462308003885798e-10 -1.1490552396239321e-09 0.0000000000000000e+00  -1.8903601824556352e-10 1.5987373184409960e-09 0.0000000000000000e+00  -2.6969628098960371e-10 1.4993212049382547e-09 0.0000000000000000e+00  -4.5051364624353823e-10 1.4404839895752177e-09 0.0000000000000000e+00  -6.4383992776938363e-10 1.3503137288586462e-09 0.0000000000000000e+00  -8.2523139328913589e-10 1.2258600270841524e-09 0.0000000000000000e+00  -9.8626322640644988e-10 1.0694701350577992e-09 0.0000000000000000e+00  -1.1223419306808267e-09 8.8506264300115221e-10 0.0000000000000000e+00  -1.2302079708178923e-09 6.7752410559237603e-10 0.0000000000000000e+00  -1.3074300934177418e-09 4.5242822554346688e-10 0.0000000000000000e+00  -1.3523290666781136e-09 2.1581780959721508e-10 0.0000000000000000e+00  -1.3639873914375844e-09 -2.5977609987345801e-11 0.0000000000000000e+00  -1.3422663943007858e-09 -2.6649994248309497e-10 0.0000000000000000e+00  -1.2878126500159430e-09 -4.9930780540214611e-10 0.0000000000000000e+00  -1.2020498155268068e-09 -7.1812010943869072e-10 0.0000000000000000e+00  -1.0871573765871664e-09 -9.1696877337197984e-10 0.0000000000000000e+00  -9.4605381147123447e-10 -1.0903707501411520e-09 0.0000000000000000e+00  -7.8247198016898888e-10 -1.2335268800298663e-09 0.0000000000000000e+00  -6.0151071449311365e-10 -1.3425414749271114e-09 0.0000000000000000e+00  -4.1225709698000178e-10 -1.4144893109213026e-09 0.0000000000000000e+00  -2.4116038851145866e-10 -1.4469223654281781e-09 0.0000000000000000e+00  -1.5950584922383962e-10 -1.3568964341063243e-09 0.0000000000000000e+00  -2.1060568798484872e-10 1.8185855208964346e-09 0.0000000000000000e+00  -2.7944064783221022e-10 1.7156403710276314e-09 0.0000000000000000e+00  -4.6060536390112210e-10 1.6482415689958218e-09 0.0000000000000000e+00  -6.5666912582975169e-10 1.5440267450304768e-09 0.0000000000000000e+00  -8.4105536950358507e-10 1.4005853320843486e-09 0.0000000000000000e+00  -1.0047620968095342e-09 1.2209809053812408e-09 0.0000000000000000e+00  -1.1429827435585872e-09 1.0098422173549424e-09 0.0000000000000000e+00  -1.2523798512391016e-09 7.7276321973211229e-10 0.0000000000000000e+00  -1.3305192798553801e-09 5.1604134098577521e-10 0.0000000000000000e+00  -1.3757555570829077e-09 2.4646535073608646e-10 0.0000000000000000e+00  -1.3872108812074343e-09 -2.8871522535513002e-11 0.0000000000000000e+00  -1.3647722239640664e-09 -3.0273852588685252e-10 0.0000000000000000e+00  -1.3090902361611025e-09 -5.6792307511003228e-10 0.0000000000000000e+00  -1.2215761243612077e-09 -8.1738664124347955e-10 0.0000000000000000e+00  -1.1043976540328305e-09 -1.0444321951219993e-09 0.0000000000000000e+00  -9.6049243056347246e-10 -1.2428916886042263e-09 0.0000000000000000e+00  -7.9369227168547899e-10 -1.4073355747174651e-09 0.0000000000000000e+00  -6.0937496283337650e-10 -1.5332914709474420e-09 0.0000000000000000e+00  -4.1739488085680890e-10 -1.6173028982415781e-09 0.0000000000000000e+00  -2.4670577065041987e-10 -1.6564874793296128e-09 0.0000000000000000e+00  -1.7700432911578429e-10 -1.5663705234778196e-09 0.0000000000000000e+00  -2.3531269803391878e-10 2.0419167625124924e-09 0.0000000000000000e+00  -2.8999950577946361e-10 1.9355847620416606e-09 0.0000000000000000e+00  -4.7091651685649351e-10 1.8595481211385731e-09 0.0000000000000000e+00  -6.6937527450523387e-10 1.7411134648799894e-09 0.0000000000000000e+00  -8.5637333223298808e-10 1.5783519192396406e-09 0.0000000000000000e+00  -1.0223240587953603e-09 1.3750542425371290e-09 0.0000000000000000e+00  -1.1622553082571944e-09 1.1366196822400028e-09 0.0000000000000000e+00  -1.2727961612072652e-09 8.6941581425230230e-10 0.0000000000000000e+00  -1.3515418409582511e-09 5.8050798029696548e-10 0.0000000000000000e+00  -1.3969020814314323e-09 2.7744567087789216e-10 0.0000000000000000e+00  -1.4080502231136694e-09 -3.1923634944022655e-11 0.0000000000000000e+00  -1.3848999832263445e-09 -3.3961908459343972e-10 0.0000000000000000e+00  -1.3280975167030677e-09 -6.3767946582648589e-10 0.0000000000000000e+00  -1.2390262674061617e-09 -9.1831853580991630e-10 0.0000000000000000e+00  -1.1198247606715932e-09 -1.1740964064639417e-09 0.0000000000000000e+00  -9.7343372233316429e-10 -1.3981161337923076e-09 0.0000000000000000e+00  -8.0376986135211770e-10 -1.5842459963585445e-09 0.0000000000000000e+00  -6.1647864485142087e-10 -1.7273535507219640e-09 0.0000000000000000e+00  -4.2220474446134944e-10 -1.8233903335005091e-09 0.0000000000000000e+00  -2.5264042665194394e-10 -1.8690354366543501e-09 0.0000000000000000e+00  -1.9711045434701209e-10 -1.7782480313856605e-09 0.0000000000000000e+00  -2.6324062283678126e-10 2.2678802010719333e-09 0.0000000000000000e+00  -3.0040327794878254e-10 2.1586666891303576e-09 0.0000000000000000e+00  -4.7951889592246536e-10 2.0738141081286373e-09 0.0000000000000000e+00  -6.7911753952777006e-10 1.9408674988301650e-09 0.0000000000000000e+00  -8.6747623951323542e-10 1.7583860710322408e-09 0.0000000000000000e+00  -1.0344177114994633e-09 1.5309217926459043e-09 0.0000000000000000e+00  -1.1748734630412503e-09 1.2647001954250442e-09 0.0000000000000000e+00  -1.2855216909582670e-09 9.6691640461794246e-10 0.0000000000000000e+00  -1.3640621142311821e-09 6.4543492224518616e-10 0.0000000000000000e+00  -1.4090178579783370e-09 3.0856672104765663e-10 0.0000000000000000e+00  -1.4196487637467708e-09 -3.5112026276836518e-11 0.0000000000000000e+00  -1.3959045679986510e-09 -3.7691017916655217e-10 0.0000000000000000e+00  -1.3384103156058052e-09 -7.0815626663336260e-10 0.0000000000000000e+00  -1.2484832672645577e-09 -1.0203377433615628e-09 0.0000000000000000e+00  -1.1281796064921924e-09 -1.3052644926913327e-09 0.0000000000000000e+00  -9.8038367004378669e-10 -1.5552698045722180e-09 0.0000000000000000e+00  -8.0903930238397021e-10 -1.7634510280549454e-09 0.0000000000000000e+00  -6.2001630820330539e-10 -1.9239370693378538e-09 0.0000000000000000e+00  -4.2476538684190777e-10 -2.0320289063533089e-09 0.0000000000000000e+00  -2.5796549388779816e-10 -2.0839583023590382e-09 0.0000000000000000e+00  -2.1985234445322671e-10 -1.9923936535853109e-09 0.0000000000000000e+00  -2.9448806516453568e-10 2.4944552253295821e-09 0.0000000000000000e+00  -3.0950738359565405e-10 2.3833313342615466e-09 0.0000000000000000e+00  -4.8411823149526126e-10 2.2894296232765832e-09 0.0000000000000000e+00  -6.8248696012919960e-10 2.1416117365400767e-09 0.0000000000000000e+00  -8.6988723089869622e-10 1.9389936467477521e-09 0.0000000000000000e+00  -1.0355607917615765e-09 1.6869587680876484e-09 0.0000000000000000e+00  -1.1744430095923217e-09 1.3926297368769455e-09 0.0000000000000000e+00  -1.2833869811796206e-09 1.0640814502777641e-09 0.0000000000000000e+00  -1.3603188590640877e-09 7.0999458380245268e-10 0.0000000000000000e+00  -1.4039739125685142e-09 3.3941809783839515e-10 0.0000000000000000e+00  -1.4137604646014156e-09 -3.8400236385603250e-11 0.0000000000000000e+00  -1.3896818000993465e-09 -4.1413358752954653e-10 0.0000000000000000e+00  -1.3323139522482613e-09 -7.7847161552187575e-10 0.0000000000000000e+00  -1.2428404929004029e-09 -1.1222233121278648e-09 0.0000000000000000e+00  -1.1231397343487062e-09 -1.4364574807835044e-09 0.0000000000000000e+00  -9.7593139384192426e-10 -1.7127024117607314e-09 0.0000000000000000e+00  -8.0508296846394470e-10 -1.9432116196685882e-09 0.0000000000000000e+00  -6.1661268147427651e-10 -2.1212844986608770e-09 0.0000000000000000e+00  -4.2278147676083826e-10 -2.2414943618058315e-09 0.0000000000000000e+00  -2.6150504024537464e-10 -2.2996021155440783e-09 0.0000000000000000e+00  -2.4528259931012610e-10 -2.2076346348497880e-09 0.0000000000000000e+00  -3.2915984116530970e-10 2.7182353818450454e-09 0.0000000000000000e+00  -3.1594560963979776e-10 2.6067544748912660e-09 0.0000000000000000e+00  -4.8196689747820382e-10 2.5035483498826227e-09 0.0000000000000000e+00  -6.7537459027515935e-10 2.3404732601160558e-09 0.0000000000000000e+00  -8.5817651088752395e-10 2.1173405292708615e-09 0.0000000000000000e+00  -1.0190725718795390e-09 1.8404844917377582e-09 0.0000000000000000e+00  -1.1531482919483573e-09 1.5180252596836207e-09 0.0000000000000000e+00  -1.2576144262930365e-09 1.1589762736673038e-09 0.0000000000000000e+00  -1.3308038247226825e-09 7.7283518852088636e-10 0.0000000000000000e+00  -1.3718118971802094e-09 3.6932971819140087e-10 0.0000000000000000e+00  -1.3802890092129487e-09 -4.1727514832288951e-11 0.0000000000000000e+00  -1.3563182179285353e-09 -4.5050465275814755e-10 0.0000000000000000e+00  -1.3003830511445086e-09 -8.4717790398946833e-10 0.0000000000000000e+00  -1.2134284196212770e-09 -1.2219694959234907e-09 0.0000000000000000e+00  -1.0970059116657950e-09 -1.5652435901458040e-09 0.0000000000000000e+00  -9.5350232500926875e-10 -1.8676955035050433e-09 0.0000000000000000e+00  -7.8654950132112798e-10 -2.1206493814195733e-09 0.0000000000000000e+00  -6.0219716861990225e-10 -2.3164554706081824e-09 0.0000000000000000e+00  -4.1350183213095297e-10 -2.4488457378674605e-09 0.0000000000000000e+00  -2.6186057555003177e-10 -2.5130629089593269e-09 0.0000000000000000e+00  -2.7347093264313069e-10 -2.4215893118975731e-09 0.0000000000000000e+00  -3.6736245731572081e-10 2.9341559991370543e-09 0.0000000000000000e+00  -3.1807679018543841e-10 2.8245906952641080e-09 0.0000000000000000e+00  -4.6975720352783998e-10 2.7118228601334112e-09 0.0000000000000000e+00  -6.5280514120901908e-10 2.5331055809612032e-09 0.0000000000000000e+00  -8.2572805733387627e-10 2.2891722865317069e-09 0.0000000000000000e+00  -9.76767