<?xml version="1.0"?>
<VTKFile type="UnstructuredGrid"  version="0.1"  >
<UnstructuredGrid>
<Piece  NumberOfPoints="651" NumberOfCells="1200">
<Points>
<DataArray  type="Float64"  NumberOfComponents="3"  format="ascii">0 0 0  50000 0 0  100000 0 0  150000 0 0  200000 0 0  250000 0 0  300000 0 0  350000 0 0  400000 0 0  450000 0 0  500000 0 0  550000 0 0  600000 0 0  650000 0 0  700000 0 0  750000 0 0  800000 0 0  850000 0 0  900000 0 0  950000 0 0  1000000 0 0  0 50000 0  50000 50000 0  100000 50000 0  150000 50000 0  200000 50000 0  250000 50000 0  300000 50000 0  350000 50000 0  400000 50000 0  450000 50000 0  500000 50000 0  550000 50000 0  600000 50000 0  650000 50000 0  700000 50000 0  750000 50000 0  800000 50000 0  850000 50000 0  900000 50000 0  950000 50000 0  1000000 50000 0  0 100000 0  50000 100000 0  100000 100000 0  150000 100000 0  200000 100000 0  250000 100000 0  300000 100000 0  350000 100000 0  400000 100000 0  450000 100000 0  500000 100000 0  550000 100000 0  600000 100000 0  650000 100000 0  700000 100000 0  750000 100000 0  800000 100000 0  850000 100000 0  900000 100000 0  950000 100000 0  1000000 100000 0  0 150000 0  50000 150000 0  100000 150000 0  150000 150000 0  200000 150000 0  250000 150000 0  300000 150000 0  350000 150000 0  400000 150000 0  450000 150000 0  500000 150000 0  550000 150000 0  600000 150000 0  650000 150000 0  700000 150000 0  750000 150000 0  800000 150000 0  850000 150000 0  900000 150000 0  950000 150000 0  1000000 150000 0  0 200000 0  50000 200000 0  100000 200000 0  150000 200000 0  200000 200000 0  250000 200000 0  300000 200000 0  350000 200000 0  400000 200000 0  450000 200000 0  500000 200000 0  550000 200000 0  600000 200000 0  650000 200000 0  700000 200000 0  750000 200000 0  800000 200000 0  850000 200000 0  900000 200000 0  950000 200000 0  1000000 200000 0  0 250000 0  50000 250000 0  100000 250000 0  150000 250000 0  200000 250000 0  250000 250000 0  300000 250000 0  350000 250000 0  400000 250000 0  450000 250000 0  500000 250000 0  550000 250000 0  600000 250000 0  650000 250000 0  700000 250000 0  750000 250000 0  800000 250000 0  850000 250000 0  900000 250000 0  950000 250000 0  1000000 250000 0  0 300000 0  50000 300000 0  100000 300000 0  150000 300000 0  200000 300000 0  250000 300000 0  300000 300000 0  350000 300000 0  400000 300000 0  450000 300000 0  500000 300000 0  550000 300000 0  600000 300000 0  650000 300000 0  700000 300000 0  750000 300000 0  800000 300000 0  850000 300000 0  900000 300000 0  950000 300000 0  1000000 300000 0  0 350000 0  50000 350000 0  100000 350000 0  150000 350000 0  200000 350000 0  250000 350000 0  300000 350000 0  350000 350000 0  400000 350000 0  450000 350000 0  500000 350000 0  550000 350000 0  600000 350000 0  650000 350000 0  700000 350000 0  750000 350000 0  800000 350000 0  850000 350000 0  900000 350000 0  950000 350000 0  1000000 350000 0  0 400000 0  50000 400000 0  100000 400000 0  150000 400000 0  200000 400000 0  250000 400000 0  300000 400000 0  350000 400000 0  400000 400000 0  450000 400000 0  500000 400000 0  550000 400000 0  600000 400000 0  650000 400000 0  700000 400000 0  750000 400000 0  800000 400000 0  850000 400000 0  900000 400000 0  950000 400000 0  1000000 400000 0  0 450000 0  50000 450000 0  100000 450000 0  150000 450000 0  200000 450000 0  250000 450000 0  300000 450000 0  350000 450000 0  400000 450000 0  450000 450000 0  500000 450000 0  550000 450000 0  600000 450000 0  650000 450000 0  700000 450000 0  750000 450000 0  800000 450000 0  850000 450000 0  900000 450000 0  950000 450000 0  1000000 450000 0  0 500000 0  50000 500000 0  100000 500000 0  150000 500000 0  200000 500000 0  250000 500000 0  300000 500000 0  350000 500000 0  400000 500000 0  450000 500000 0  500000 500000 0  550000 500000 0  600000 500000 0  650000 500000 0  700000 500000 0  750000 500000 0  800000 500000 0  850000 500000 0  900000 500000 0  950000 500000 0  1000000 500000 0  0 550000 0  50000 550000 0  100000 550000 0  150000 550000 0  200000 550000 0  250000 550000 0  300000 550000 0  350000 550000 0  400000 550000 0  450000 550000 0  500000 550000 0  550000 550000 0  600000 550000 0  650000 550000 0  700000 550000 0  750000 550000 0  800000 550000 0  850000 550000 0  900000 550000 0  950000 550000 0  1000000 550000 0  0 600000 0  50000 600000 0  100000 600000 0  150000 600000 0  200000 600000 0  250000 600000 0  300000 600000 0  350000 600000 0  400000 600000 0  450000 600000 0  500000 600000 0  550000 600000 0  600000 600000 0  650000 600000 0  700000 600000 0  750000 600000 0  800000 600000 0  850000 600000 0  900000 600000 0  950000 600000 0  1000000 600000 0  0 650000 0  50000 650000 0  100000 650000 0  150000 650000 0  200000 650000 0  250000 650000 0  300000 650000 0  350000 650000 0  400000 650000 0  450000 650000 0  500000 650000 0  550000 650000 0  600000 650000 0  650000 650000 0  700000 650000 0  750000 650000 0  800000 650000 0  850000 650000 0  900000 650000 0  950000 650000 0  1000000 650000 0  0 700000 0  50000 700000 0  100000 700000 0  150000 700000 0  200000 700000 0  250000 700000 0  300000 700000 0  350000 700000 0  400000 700000 0  450000 700000 0  500000 700000 0  550000 700000 0  600000 700000 0  650000 700000 0  700000 700000 0  750000 700000 0  800000 700000 0  850000 700000 0  900000 700000 0  950000 700000 0  1000000 700000 0  0 750000 0  50000 750000 0  100000 750000 0  150000 750000 0  200000 750000 0  250000 750000 0  300000 750000 0  350000 750000 0  400000 750000 0  450000 750000 0  500000 750000 0  550000 750000 0  600000 750000 0  650000 750000 0  700000 750000 0  750000 750000 0  800000 750000 0  850000 750000 0  900000 750000 0  950000 750000 0  1000000 750000 0  0 800000 0  50000 800000 0  100000 800000 0  150000 800000 0  200000 800000 0  250000 800000 0  300000 800000 0  350000 800000 0  400000 800000 0  450000 800000 0  500000 800000 0  550000 800000 0  600000 800000 0  650000 800000 0  700000 800000 0  750000 800000 0  800000 800000 0  850000 800000 0  900000 800000 0  950000 800000 0  1000000 800000 0  0 850000 0  50000 850000 0  100000 850000 0  150000 850000 0  200000 850000 0  250000 850000 0  300000 850000 0  350000 850000 0  400000 850000 0  450000 850000 0  500000 850000 0  550000 850000 0  600000 850000 0  650000 850000 0  700000 850000 0  750000 850000 0  800000 850000 0  850000 850000 0  900000 850000 0  950000 850000 0  1000000 850000 0  0 900000 0  50000 900000 0  100000 900000 0  150000 900000 0  200000 900000 0  250000 900000 0  300000 900000 0  350000 900000 0  400000 900000 0  450000 900000 0  500000 900000 0  550000 900000 0  600000 900000 0  650000 900000 0  700000 900000 0  750000 900000 0  800000 900000 0  850000 900000 0  900000 900000 0  950000 900000 0  1000000 900000 0  0 950000 0  50000 950000 0  100000 950000 0  150000 950000 0  200000 950000 0  250000 950000 0  300000 950000 0  350000 950000 0  400000 950000 0  450000 950000 0  500000 950000 0  550000 950000 0  600000 950000 0  650000 950000 0  700000 950000 0  750000 950000 0  800000 950000 0  850000 950000 0  900000 950000 0  950000 950000 0  1000000 950000 0  0 1000000 0  50000 1000000 0  100000 1000000 0  150000 1000000 0  200000 1000000 0  250000 1000000 0  300000 1000000 0  350000 1000000 0  400000 1000000 0  450000 1000000 0  500000 1000000 0  550000 1000000 0  600000 1000000 0  650000 1000000 0  700000 1000000 0  750000 1000000 0  800000 1000000 0  850000 1000000 0  900000 1000000 0  950000 1000000 0  1000000 1000000 0  0 1050000 0  50000 1050000 0  100000 1050000 0  150000 1050000 0  200000 1050000 0  250000 1050000 0  300000 1050000 0  350000 1050000 0  400000 1050000 0  450000 1050000 0  500000 1050000 0  550000 1050000 0  600000 1050000 0  650000 1050000 0  700000 1050000 0  750000 1050000 0  800000 1050000 0  850000 1050000 0  900000 1050000 0  950000 1050000 0  1000000 1050000 0  0 1100000 0  50000 1100000 0  100000 1100000 0  150000 1100000 0  200000 1100000 0  250000 1100000 0  300000 1100000 0  350000 1100000 0  400000 1100000 0  450000 1100000 0  500000 1100000 0  550000 1100000 0  600000 1100000 0  650000 1100000 0  700000 1100000 0  750000 1100000 0  800000 1100000 0  850000 1100000 0  900000 1100000 0  950000 1100000 0  1000000 1100000 0  0 1150000 0  50000 1150000 0  100000 1150000 0  150000 1150000 0  200000 1150000 0  250000 1150000 0  300000 1150000 0  350000 1150000 0  400000 1150000 0  450000 1150000 0  500000 1150000 0  550000 1150000 0  600000 1150000 0  650000 1150000 0  700000 1150000 0  750000 1150000 0  800000 1150000 0  850000 1150000 0  900000 1150000 0  950000 1150000 0  1000000 1150000 0  0 1200000 0  50000 1200000 0  100000 1200000 0  150000 1200000 0  200000 1200000 0  250000 1200000 0  300000 1200000 0  350000 1200000 0  400000 1200000 0  450000 1200000 0  500000 1200000 0  550000 1200000 0  600000 1200000 0  650000 1200000 0  700000 1200000 0  750000 1200000 0  800000 1200000 0  850000 1200000 0  900000 1200000 0  950000 1200000 0  1000000 1200000 0  0 1250000 0  50000 1250000 0  100000 1250000 0  150000 1250000 0  200000 1250000 0  250000 1250000 0  300000 1250000 0  350000 1250000 0  400000 1250000 0  450000 1250000 0  500000 1250000 0  550000 1250000 0  600000 1250000 0  650000 1250000 0  700000 1250000 0  750000 1250000 0  800000 1250000 0  850000 1250000 0  900000 1250000 0  950000 1250000 0  1000000 1250000 0  0 1300000 0  50000 1300000 0  100000 1300000 0  150000 1300000 0  200000 1300000 0  250000 1300000 0  300000 1300000 0  350000 1300000 0  400000 1300000 0  450000 1300000 0  500000 1300000 0  550000 1300000 0  600000 1300000 0  650000 1300000 0  700000 1300000 0  750000 1300000 0  800000 1300000 0  850000 1300000 0  900000 1300000 0  950000 1300000 0  1000000 1300000 0  0 1350000 0  50000 1350000 0  100000 1350000 0  150000 1350000 0  200000 1350000 0  250000 1350000 0  300000 1350000 0  350000 1350000 0  400000 1350000 0  450000 1350000 0  500000 1350000 0  550000 1350000 0  600000 1350000 0  650000 1350000 0  700000 135
[...]
<PointData  Vectors="f_2995"> 
<DataArray  type="Float64"  Name="f_2995"  NumberOfComponents="3" format="ascii">-1.6371297995016036e-10 1.3907439543418044e-10 0.0000000000000000e+00  -3.0077499797934374e-10 1.1323869010213233e-10 0.0000000000000000e+00  -5.4402736080180050e-10 1.0310176871649754e-10 0.0000000000000000e+00  -7.7895192105818430e-10 9.4213562479074336e-11 0.0000000000000000e+00  -9.9402441722533336e-10 8.3605614700001022e-11 0.0000000000000000e+00  -1.1829928229383048e-09 7.1012630081063508e-11 0.0000000000000000e+00  -1.3407734767649174e-09 5.6593201964884724e-11 0.0000000000000000e+00  -1.4632532612169284e-09 4.0647715317236879e-11 0.0000000000000000e+00  -1.5472870325819046e-09 2.3556037408553359e-11 0.0000000000000000e+00  -1.5907541360430464e-09 5.7446415312532424e-12 0.0000000000000000e+00  -1.5926044732100825e-09 -1.2335006260073338e-11 0.0000000000000000e+00  -1.5528807521887837e-09 -3.0223248776875974e-11 0.0000000000000000e+00  -1.4727145305846797e-09 -4.7467196252017759e-11 0.0000000000000000e+00  -1.3542961288251100e-09 -6.3635401835130090e-11 0.0000000000000000e+00  -1.2008238332772897e-09 -7.8334329618336210e-11 0.0000000000000000e+00  -1.0164655244507352e-09 -9.1233624458346351e-11 0.0000000000000000e+00  -8.0650650803264780e-10 -1.0212624907704840e-10 0.0000000000000000e+00  -5.7847928532909161e-10 -1.1109627056488191e-10 0.0000000000000000e+00  -3.4749889909373394e-10 -1.1835630400110856e-10 0.0000000000000000e+00  -1.5891988374859509e-10 -1.1491641478714315e-10 0.0000000000000000e+00  -7.9540470157333311e-11 -7.3590418367422574e-11 0.0000000000000000e+00  -1.3895434018613747e-10 2.6516127408500986e-10 0.0000000000000000e+00  -2.4779564214465312e-10 2.4210819444990264e-10 0.0000000000000000e+00  -4.3855856957335810e-10 2.5010093337490192e-10 0.0000000000000000e+00  -6.5215427429368442e-10 2.3778276110657050e-10 0.0000000000000000e+00  -8.5574129514645084e-10 2.1626049164944301e-10 0.0000000000000000e+00  -1.0387180726129926e-09 1.8806827488885383e-10 0.0000000000000000e+00  -1.1952899065412695e-09 1.5456410634962082e-10 0.0000000000000000e+00  -1.3210262800844579e-09 1.1686315425205596e-10 0.0000000000000000e+00  -1.4125160391536070e-09 7.6056990703775490e-11 0.0000000000000000e+00  -1.4673510176477493e-09 3.3266910955827171e-11 0.0000000000000000e+00  -1.4841402880269201e-09 -1.0356534574205730e-11 0.0000000000000000e+00  -1.4625245733016159e-09 -5.3650878071021074e-11 0.0000000000000000e+00  -1.4031786944811665e-09 -9.5463870684410813e-11 0.0000000000000000e+00  -1.3077985625875330e-09 -1.3467553352453621e-10 0.0000000000000000e+00  -1.1790777296311195e-09 -1.7021593472081333e-10 0.0000000000000000e+00  -1.0206969164290050e-09 -2.0107086925811402e-10 0.0000000000000000e+00  -8.3741790461890390e-10 -2.2624821842547243e-10 0.0000000000000000e+00  -6.3566892904473443e-10 -2.4455075051098667e-10 0.0000000000000000e+00  -4.2627260077818952e-10 -2.5318629936065803e-10 0.0000000000000000e+00  -2.3611006798264667e-10 -2.4152683312382027e-10 0.0000000000000000e+00  -1.2479854291727601e-10 -1.4705835205934019e-10 0.0000000000000000e+00  -1.3529961125751857e-10 4.8923559944451855e-10 0.0000000000000000e+00  -2.5290659425984700e-10 4.3246467356493962e-10 0.0000000000000000e+00  -4.3445258138027793e-10 4.3836750744234408e-10 0.0000000000000000e+00  -6.2992651067338104e-10 4.1925692299884145e-10 0.0000000000000000e+00  -8.1756355814325183e-10 3.8346572824522062e-10 0.0000000000000000e+00  -9.8756770697634763e-10 3.3513898822638646e-10 0.0000000000000000e+00  -1.1336051294656794e-09 2.7695242508350958e-10 0.0000000000000000e+00  -1.2511532164130413e-09 2.1106440897840273e-10 0.0000000000000000e+00  -1.3368503916187303e-09 1.3950510728465600e-10 0.0000000000000000e+00  -1.3883520372402679e-09 6.4308993670589573e-11 0.0000000000000000e+00  -1.4043111322981563e-09 -1.2459493864194083e-11 0.0000000000000000e+00  -1.3843779682051684e-09 -8.8721523769601551e-11 0.0000000000000000e+00  -1.3291967775148010e-09 -1.6241314376556442e-10 0.0000000000000000e+00  -1.2403942539543959e-09 -2.3151490034014824e-10 0.0000000000000000e+00  -1.1205637418769113e-09 -2.9406992451651968e-10 0.0000000000000000e+00  -9.7326523626434852e-10 -3.4816930090196113e-10 0.0000000000000000e+00  -8.0311414683328441e-10 -3.9185080593558234e-10 0.0000000000000000e+00  -6.1623009383982600e-10 -4.2276099001025447e-10 0.0000000000000000e+00  -4.2207023601963838e-10 -4.3717898424250823e-10 0.0000000000000000e+00  -2.4241430106488406e-10 -4.2816367576297116e-10 0.0000000000000000e+00  -1.3226085628443908e-10 -3.1933425702307688e-10 0.0000000000000000e+00  -1.3898241449120490e-10 7.1002855883531085e-10 0.0000000000000000e+00  -2.5258730282976701e-10 6.3984282956124192e-10 0.0000000000000000e+00  -4.3156276632238001e-10 6.3493580909198919e-10 0.0000000000000000e+00  -6.2011544323012455e-10 6.0591719826133940e-10 0.0000000000000000e+00  -7.9889181844377865e-10 5.5505613578107511e-10 0.0000000000000000e+00  -9.6025410872675746e-10 4.8628712240433577e-10 0.0000000000000000e+00  -1.0988077692125797e-09 4.0304554886945746e-10 0.0000000000000000e+00  -1.2103061344433597e-09 3.0842050422895019e-10 0.0000000000000000e+00  -1.2915098145308307e-09 2.0539492085556617e-10 0.0000000000000000e+00  -1.3401529135901288e-09 9.6957785148566421e-11 0.0000000000000000e+00  -1.3549355238291168e-09 -1.3869207209985872e-11 0.0000000000000000e+00  -1.3355226696351522e-09 -1.2404981934687605e-10 0.0000000000000000e+00  -1.2825381087332211e-09 -2.3057011777901827e-10 0.0000000000000000e+00  -1.1975487120622528e-09 -3.3047777691881686e-10 0.0000000000000000e+00  -1.0830395824698308e-09 -4.2091020521872287e-10 0.0000000000000000e+00  -9.4238804452906123e-10 -4.9909416517419278e-10 0.0000000000000000e+00  -7.7987672429424473e-10 -5.6229274733412828e-10 0.0000000000000000e+00  -6.0094337772827620e-10 -6.0768643143693299e-10 0.0000000000000000e+00  -4.1367107594744938e-10 -6.3219757107512364e-10 0.0000000000000000e+00  -2.3831754675611388e-10 -6.3194875407036946e-10 0.0000000000000000e+00  -1.3378055749438492e-10 -5.2893754482912533e-10 0.0000000000000000e+00  -1.4665425603467314e-10 9.2629105460161168e-10 0.0000000000000000e+00  -2.5324868825091495e-10 8.4830474567973856e-10 0.0000000000000000e+00  -4.3071406492617642e-10 8.3189978086683725e-10 0.0000000000000000e+00  -6.1716725772038334e-10 7.9045938552602672e-10 0.0000000000000000e+00  -7.9242895298329967e-10 7.2361190493376822e-10 0.0000000000000000e+00  -9.4959269688458227e-10 6.3441437196328724e-10 0.0000000000000000e+00  -1.0840143417903292e-09 5.2655841156423632e-10 0.0000000000000000e+00  -1.1919046317350996e-09 4.0382124290922120e-10 0.0000000000000000e+00  -1.2702632191162051e-09 2.7003155109810891e-10 0.0000000000000000e+00  -1.3169496907110816e-09 1.2908465435945004e-10 0.0000000000000000e+00  -1.3307287312639040e-09 -1.5067909407368516e-11 0.0000000000000000e+00  -1.3112871397865924e-09 -1.5845521141978565e-10 0.0000000000000000e+00  -1.2592313262687793e-09 -2.9713878607053791e-10 0.0000000000000000e+00  -1.1760676513242863e-09 -4.2726898570851896e-10 0.0000000000000000e+00  -1.0641647960043060e-09 -5.4513761410874904e-10 0.0000000000000000e+00  -9.2670095276295231e-10 -6.4722234101601648e-10 0.0000000000000000e+00  -7.6763391775845133e-10 -7.3023122696618779e-10 0.0000000000000000e+00  -5.9193534571342794e-10 -7.9119308327941803e-10 0.0000000000000000e+00  -4.0734368985524506e-10 -8.2758244512774045e-10 0.0000000000000000e+00  -2.3509472042305692e-10 -8.3653367340778262e-10 0.0000000000000000e+00  -1.3899682164703032e-10 -7.4058029149572493e-10 0.0000000000000000e+00  -1.5761230943176811e-10 1.1406823012578623e-09 0.0000000000000000e+00  -2.5651211913772797e-10 1.0566697548907535e-09 0.0000000000000000e+00  -4.3336159312886365e-10 1.0295301611211994e-09 0.0000000000000000e+00  -6.2017690232781122e-10 9.7450333417068833e-10 0.0000000000000000e+00  -7.9521019842812269e-10 8.9066299809581278e-10 0.0000000000000000e+00  -9.5140715379994722e-10 7.8060132567395996e-10 0.0000000000000000e+00  -1.0844270242645132e-09 6.4813067696649124e-10 0.0000000000000000e+00  -1.1908050539585510e-09 4.9754638745467876e-10 0.0000000000000000e+00  -1.2677720513580098e-09 3.3340884969327847e-10 0.0000000000000000e+00  -1.3133313263504057e-09 1.6044911377686844e-10 0.0000000000000000e+00  -1.3263274238036562e-09 -1.6499046879635560e-11 0.0000000000000000e+00  -1.3064791944711537e-09 -1.9256862557617148e-10 0.0000000000000000e+00  -1.2543839539712019e-09 -3.6293502622905241e-10 0.0000000000000000e+00  -1.1714978291448336e-09 -5.2289658445552647e-10 0.0000000000000000e+00  -1.0600934362252815e-09 -6.6795942589717877e-10 0.0000000000000000e+00  -9.2320176592045193e-10 -7.9393158290955298e-10 0.0000000000000000e+00  -7.6459525132087732e-10 -8.9704412698451735e-10 0.0000000000000000e+00  -5.8912162768958203e-10 -9.7413198498059856e-10 0.0000000000000000e+00  -4.0482688745589564e-10 -1.0227547286823672e-09 0.0000000000000000e+00  -2.3462327472422038e-10 -1.0400428614865782e-09 0.0000000000000000e+00  -1.4744716993270728e-10 -9.4906805815920338e-10 0.0000000000000000e+00  -1.7161920422191121e-10 1.3556182164234620e-09 0.0000000000000000e+00  -2.6243130361211642e-10 1.2662352869183389e-09 0.0000000000000000e+00  -4.3960492918879132e-10 1.2290545743152399e-09 0.0000000000000000e+00  -6.2834334454750153e-10 1.1600563568875153e-09 0.0000000000000000e+00  -8.0514439536791185e-10 1.0584500737191383e-09 0.0000000000000000e+00  -9.6247915263233904e-10 9.2687705515827359e-10 0.0000000000000000e+00  -1.0960082870174407e-09 7.6938821069039550e-10 0.0000000000000000e+00  -1.2024157126343194e-09 5.9076521234457705e-10 0.0000000000000000e+00  -1.2790919696905034e-09 3.9623776618939922e-10 0.0000000000000000e+00  -1.3241647525772495e-09 1.9131621659526980e-10 0.0000000000000000e+00  -1.3365592975134649e-09 -1.8329801065336823e-11 0.0000000000000000e+00  -1.3160338879561581e-09 -2.2697709381321666e-10 0.0000000000000000e+00  -1.2631879657758385e-09 -4.2895201228002457e-10 0.0000000000000000e+00  -1.1794464239951158e-09 -6.1873725746379783e-10 0.0000000000000000e+00  -1.0670231228720794e-09 -7.9108779806942262e-10 0.0000000000000000e+00  -9.2887716003368524e-10 -9.4116404706792363e-10 0.0000000000000000e+00  -7.6873791823050259e-10 -1.0646950788904725e-09 0.0000000000000000e+00  -5.9155804580820183e-10 -1.1581775312525731e-09 0.0000000000000000e+00  -4.0595813637087746e-10 -1.2189300130655569e-09 0.0000000000000000e+00  -2.3675288544115637e-10 -1.2437313282438452e-09 0.0000000000000000e+00  -1.5869580523587097e-10 -1.1556212082399487e-09 0.0000000000000000e+00  -1.8859455716153744e-10 1.5729130389703940e-09 0.0000000000000000e+00  -2.7057151556550498e-10 1.4784533880779695e-09 0.0000000000000000e+00  -4.4870996555996808e-10 1.4316685150320431e-09 0.0000000000000000e+00  -6.4034253848316833e-10 1.3485283053054171e-09 0.0000000000000000e+00  -8.2004981772227929e-10 1.2285732182498133e-09 0.0000000000000000e+00  -9.7972836226403637e-10 1.0747990884117732e-09 0.0000000000000000e+00  -1.1149002704746940e-09 8.9166812994668689e-10 0.0000000000000000e+00  -1.2222824201242722e-09 6.8450213460632465e-10 0.0000000000000000e+00  -1.2993576244974936e-09 4.5919401990884802e-10 0.0000000000000000e+00  -1.3443494215916400e-09 2.2200487291990177e-10 0.0000000000000000e+00  -1.3562569310381340e-09 -2.0594470430862457e-11 0.0000000000000000e+00  -1.3348810685323176e-09 -2.6205903341871151e-10 0.0000000000000000e+00  -1.2808324336437121e-09 -4.9589690499977891e-10 0.0000000000000000e+00  -1.1955218888138554e-09 -7.1579863996114070e-10 0.0000000000000000e+00  -1.0811374709115946e-09 -9.1577774463321075e-10 0.0000000000000000e+00  -9.4062543226523762e-10 -1.0903303473937522e-09 0.0000000000000000e+00  -7.7776355866018242e-10 -1.2346195656762729e-09 0.0000000000000000e+00  -5.9772134176631118e-10 -1.3446728761632181e-09 0.0000000000000000e+00  -4.0979639998144242e-10 -1.4173937270913319e-09 0.0000000000000000e+00  -2.4089774829496044e-10 -1.4491099315940394e-09 0.0000000000000000e+00  -1.7257884887253854e-10 -1.3622675024735429e-09 0.0000000000000000e+00  -2.0854103096175108e-10 1.7936152543806000e-09 0.0000000000000000e+00  -2.8028646543914227e-10 1.6943418062735259e-09 0.0000000000000000e+00  -4.5948077884649675e-10 1.6381535657898578e-09 0.0000000000000000e+00  -6.5435771040909575e-10 1.5406902152622210e-09 0.0000000000000000e+00  -8.3737488034294867e-10 1.4018708745369272e-09 0.0000000000000000e+00  -9.9982364972903827e-10 1.2252096657866550e-09 0.0000000000000000e+00  -1.1370473522061735e-09 1.0157241027121506e-09 0.0000000000000000e+00  -1.2457502204924648e-09 7.7935642127458313e-10 0.0000000000000000e+00  -1.3234757022661890e-09 5.2268970055054442e-10 0.0000000000000000e+00  -1.3685291725961039e-09 2.5272929010343889e-10 0.0000000000000000e+00  -1.3799810189478499e-09 -2.3276530375823914e-11 0.0000000000000000e+00  -1.3576765713201633e-09 -2.9799060001825149e-10 0.0000000000000000e+00  -1.3022405292462397e-09 -5.6412921806087796e-10 0.0000000000000000e+00  -1.2150752620531467e-09 -8.1460586588997275e-10 0.0000000000000000e+00  -1.0983559008337828e-09 -1.0426876726625563e-09 0.0000000000000000e+00  -9.5504093207737524e-10 -1.2421725564650338e-09 0.0000000000000000e+00  -7.8899317340257306e-10 -1.4075880933318499e-09 0.0000000000000000e+00  -6.0563844898458246e-10 -1.5343931762854832e-09 0.0000000000000000e+00  -4.1500167550677570e-10 -1.6189826441501656e-09 0.0000000000000000e+00  -2.4631273321746862e-10 -1.6572105448739343e-09 0.0000000000000000e+00  -1.8904515877508012e-10 -1.5705547157951383e-09 0.0000000000000000e+00  -2.3151053471460846e-10 2.0179018399595093e-09 0.0000000000000000e+00  -2.9078131147207755e-10 1.9142328291164552e-09 0.0000000000000000e+00  -4.7038067056563962e-10 1.8486643138774046e-09 0.0000000000000000e+00  -6.6811029389182660e-10 1.7366214319521921e-09 0.0000000000000000e+00  -8.5407007179261757e-10 1.5784255273828074e-09 0.0000000000000000e+00  -1.0189365627680716e-09 1.3782107447965461e-09 0.0000000000000000e+00  -1.1578913927052493e-09 1.1416612091312132e-09 0.0000000000000000e+00  -1.2676393839382157e-09 8.7541920985624765e-10 0.0000000000000000e+00  -1.3457973306863127e-09 5.8679554675596432e-10 0.0000000000000000e+00  -1.3907660854821718e-09 2.8354161384697841e-10 0.0000000000000000e+00  -1.4016982814177036e-09 -2.6338775431413616e-11 0.0000000000000000e+00  -1.3784873846156659e-09 -3.3474861171674793e-10 0.0000000000000000e+00  -1.3217666299332490e-09 -6.3364225218331892e-10 0.0000000000000000e+00  -1.2329168011820307e-09 -9.1517166789796072e-10 0.0000000000000000e+00  -1.1140840787493628e-09 -1.1718491937864405e-09 0.0000000000000000e+00  -9.6822492858182948e-10 -1.3967363197240437e-09 0.0000000000000000e+00  -7.9927688013577334e-10 -1.5836585150758529e-09 0.0000000000000000e+00  -6.1291823672312463e-10 -1.7274253379670693e-09 0.0000000000000000e+00  -4.1993534016218848e-10 -1.8238594780897791e-09 0.0000000000000000e+00  -2.5213079791686948e-10 -1.8683361099371728e-09 0.0000000000000000e+00  -2.0809846683019058e-10 -1.7812505767466814e-09 0.0000000000000000e+00  -2.5758566358912814e-10 2.2449525679073181e-09 0.0000000000000000e+00  -3.0111015422001265e-10 2.1375983477213635e-09 0.0000000000000000e+00  -4.7953892681065798e-10 2.0625474497632817e-09 0.0000000000000000e+00  -6.7882547149801003e-10 1.9355929769639034e-09 0.0000000000000000e+00  -8.6646718925092344e-10 1.7575019771697653e-09 0.0000000000000000e+00  -1.0325297900090775e-09 1.5331162256391408e-09 0.0000000000000000e+00  -1.1720911017486358e-09 1.2688826732651195e-09 0.0000000000000000e+00  -1.2819209500659560e-09 9.7221679631421843e-10 0.0000000000000000e+00  -1.3597691299778498e-09 6.5119163503437592e-10 0.0000000000000000e+00  -1.4041805949887444e-09 3.1430026648736983e-10 0.0000000000000000e+00  -1.4144212666329485e-09 -2.9731537043565586e-11 0.0000000000000000e+00  -1.3904410241639035e-09 -3.7209476831278647e-10 0.0000000000000000e+00  -1.3328656444905665e-09 -7.0402727149277577e-10 0.0000000000000000e+00  -1.2430171873099721e-09 -1.0169469652440314e-09 0.0000000000000000e+00  -1.1229615582988724e-09 -1.3026092648140480e-09 0.0000000000000000e+00  -9.7559643321567770e-10 -1.5533027213452469e-09 0.0000000000000000e+00  -8.0488076192259479e-10 -1.7620846777945669e-09 0.0000000000000000e+00  -6.1670863829456159e-10 -1.9230364852651945e-09 0.0000000000000000e+00  -4.2265167291611413e-10 -2.0313456657807585e-09 0.0000000000000000e+00  -2.5734691785013466e-10 -2.0819003754147824e-09 0.0000000000000000e+00  -2.2977545033001599e-10 -1.9942161438523380e-09 0.0000000000000000e+00  -2.8686855696763907e-10 2.4727839337228187e-09 0.0000000000000000e+00  -3.1014667351910355e-10 2.3628706227766319e-09 0.0000000000000000e+00  -4.8470205524817450e-10 2.2781511248417620e-09 0.0000000000000000e+00  -6.8314413852227246e-10 2.1358990243919806e-09 0.0000000000000000e+00  -8.7012804562932785e-10 1.9374108920839391e-09 0.0000000000000000e+00  -1.0351318948641881e-09 1.6883385109933510e-09 0.0000000000000000e+00  -1.1732285937881228e-09 1.3959910600290334e-09 0.0000000000000000e+00  -1.2813699064301260e-09 1.0686270398966300e-09 0.0000000000000000e+00  -1.3575502724402116e-09 7.1510557228329253e-10 0.0000000000000000e+00  -1.4005491819719427e-09 3.4463736506169714e-10 0.0000000000000000e+00  -1.4098024545137813e-09 -3.3391363408557428e-11 0.0000000000000000e+00  -1.3853311187243242e-09 -4.0954001124762463e-10 0.0000000000000000e+00  -1.3277246395615407e-09 -7.7440713643598293e-10 0.0000000000000000e+00  -1.2381791715885139e-09 -1.1187296970106878e-09 0.0000000000000000e+00  -1.1185862134884463e-09 -1.4335196846635443e-09 0.0000000000000000e+00  -9.7167899100090276e-10 -1.7102605307735846e-09 0.0000000000000000e+00  -8.0133831301069606e-10 -1.9411696415832695e-09 0.0000000000000000e+00  -6.1360330444428008e-10 -2.1195076110227962e-09 0.0000000000000000e+00  -4.2084057892314160e-10 -2.2397450254311657e-09 0.0000000000000000e+00  -2.6078243987670182e-10 -2.2962619275901576e-09 0.0000000000000000e+00  -2.5413463304620859e-10 -2.2082754359909332e-09 0.0000000000000000e+00  -3.1947477494024008e-10 2.6980338936655167e-09 0.0000000000000000e+00  -3.1654111005417920e-10 2.5872308676253931e-09 0.0000000000000000e+00  -4.8315280711864945e-10 2.4926020400181337e-09 0.0000000000000000e+00  -6.7699370358755345e-10 2.3346374906607166e-09 0.0000000000000000e+00  -8.5965317392135090e-10 2.1153048970468153e-09 0.0000000000000000e+00  -1.0200750885114708e-09 1.8412051316749118e-09 0.0000000000000000e+00  -1.1534774351618152e-09 1.5206290482272575e-09 0.0000000000000000e+00  -1.2571737124224825e-09 1.1627504434254197e-09 0.0000000000000000e+00  -1.3295772951841467e-09 7.7722212200677932e-10 0.0000000000000000e+00  -1.3698439749551370e-09 3.7391452596542917e-10 0.0000000000000000e+00  -1.3776679927197581e-09 -3.7234574661062564e-11 0.0000000000000000e+00  -1.3531643500844258e-09 -4.4628752076877239e-10 0.0000000000000000e+00  -1.2968408701217238e-09 -8.4333336318525799e-10 0.0000000000000000e+00  -1.2096623496508010e-09 -1.2185238635264363e-09 0.0000000000000000e+00  -1.0931977526759423e-09 -1.5621672584695976e-09 0.0000000000000000e+00  -9.4984941124711937e-10 -1.8649157862600413e-09 0.0000000000000000e+00  -7.8326356288152262e-10 -2.1180614081031279e-09 0.0000000000000000e+00  -5.9951101475628840e-10 -2.3139220219787994e-09 0.0000000000000000e+00  -4.1174216069079458e-10 -2.4461332764282534e-09 0.0000000000000000e+00  -2.6103812491827929e-10 -2.5085237621772681e-09 0.0000000000000000e+00  -2.8124959859284957e-10 -2.4210448316023816e-09 0.0000000000000000e+00  -3.5553243167736494e-10 2.9156897319247650e-09 0.0000000000000000e+00  -3.1866844467064061e-10 2.8063510686107013e-09 0.0000000000000000e+00  -4.7160605199566501e-10 2.7015344439652195e-09 0.0000000000000000e+00  -6.5542314426776302e-10 2.5274323213658586e-09 0.0000000000000000e+00  -8.2844580016391274e-10 2.2869051782714071e-09 0.0000000000000000e+00  -9.7918