<?xml version="1.0"?>
<VTKFile type="UnstructuredGrid"  version="0.1"  >
<UnstructuredGrid>
<Piece  NumberOfPoints="651" NumberOfCells="1200">
<Points>
<DataArray  type="Float64"  NumberOfComponents="3"  format="ascii">0 0 0  50000 0 0  100000 0 0  150000 0 0  200000 0 0  250000 0 0  300000 0 0  350000 0 0  400000 0 0  450000 0 0  500000 0 0  550000 0 0  600000 0 0  650000 0 0  700000 0 0  750000 0 0  800000 0 0  850000 0 0  900000 0 0  950000 0 0  1000000 0 0  0 50000 0  50000 50000 0  100000 50000 0  150000 50000 0  200000 50000 0  250000 50000 0  300000 50000 0  350000 50000 0  400000 50000 0  450000 50000 0  500000 50000 0  550000 50000 0  600000 50000 0  650000 50000 0  700000 50000 0  750000 50000 0  800000 50000 0  850000 50000 0  900000 50000 0  950000 50000 0  1000000 50000 0  0 100000 0  50000 100000 0  100000 100000 0  150000 100000 0  200000 100000 0  250000 100000 0  300000 100000 0  350000 100000 0  400000 100000 0  450000 100000 0  500000 100000 0  550000 100000 0  600000 100000 0  650000 100000 0  700000 100000 0  750000 100000 0  800000 100000 0  850000 100000 0  900000 100000 0  950000 100000 0  1000000 100000 0  0 150000 0  50000 150000 0  100000 150000 0  150000 150000 0  200000 150000 0  250000 150000 0  300000 150000 0  350000 150000 0  400000 150000 0  450000 150000 0  500000 150000 0  550000 150000 0  600000 150000 0  650000 150000 0  700000 150000 0  750000 150000 0  800000 150000 0  850000 150000 0  900000 150000 0  950000 150000 0  1000000 150000 0  0 200000 0  50000 200000 0  100000 200000 0  150000 200000 0  200000 200000 0  250000 200000 0  300000 200000 0  350000 200000 0  400000 200000 0  450000 200000 0  500000 200000 0  550000 200000 0  600000 200000 0  650000 200000 0  700000 200000 0  750000 200000 0  800000 200000 0  850000 200000 0  900000 200000 0  950000 200000 0  1000000 200000 0  0 250000 0  50000 250000 0  100000 250000 0  150000 250000 0  200000 250000 0  250000 250000 0  300000 250000 0  350000 250000 0  400000 250000 0  450000 250000 0  500000 250000 0  550000 250000 0  600000 250000 0  650000 250000 0  700000 250000 0  750000 250000 0  800000 250000 0  850000 250000 0  900000 250000 0  950000 250000 0  1000000 250000 0  0 300000 0  50000 300000 0  100000 300000 0  150000 300000 0  200000 300000 0  250000 300000 0  300000 300000 0  350000 300000 0  400000 300000 0  450000 300000 0  500000 300000 0  550000 300000 0  600000 300000 0  650000 300000 0  700000 300000 0  750000 300000 0  800000 300000 0  850000 300000 0  900000 300000 0  950000 300000 0  1000000 300000 0  0 350000 0  50000 350000 0  100000 350000 0  150000 350000 0  200000 350000 0  250000 350000 0  300000 350000 0  350000 350000 0  400000 350000 0  450000 350000 0  500000 350000 0  550000 350000 0  600000 350000 0  650000 350000 0  700000 350000 0  750000 350000 0  800000 350000 0  850000 350000 0  900000 350000 0  950000 350000 0  1000000 350000 0  0 400000 0  50000 400000 0  100000 400000 0  150000 400000 0  200000 400000 0  250000 400000 0  300000 400000 0  350000 400000 0  400000 400000 0  450000 400000 0  500000 400000 0  550000 400000 0  600000 400000 0  650000 400000 0  700000 400000 0  750000 400000 0  800000 400000 0  850000 400000 0  900000 400000 0  950000 400000 0  1000000 400000 0  0 450000 0  50000 450000 0  100000 450000 0  150000 450000 0  200000 450000 0  250000 450000 0  300000 450000 0  350000 450000 0  400000 450000 0  450000 450000 0  500000 450000 0  550000 450000 0  600000 450000 0  650000 450000 0  700000 450000 0  750000 450000 0  800000 450000 0  850000 450000 0  900000 450000 0  950000 450000 0  1000000 450000 0  0 500000 0  50000 500000 0  100000 500000 0  150000 500000 0  200000 500000 0  250000 500000 0  300000 500000 0  350000 500000 0  400000 500000 0  450000 500000 0  500000 500000 0  550000 500000 0  600000 500000 0  650000 500000 0  700000 500000 0  750000 500000 0  800000 500000 0  850000 500000 0  900000 500000 0  950000 500000 0  1000000 500000 0  0 550000 0  50000 550000 0  100000 550000 0  150000 550000 0  200000 550000 0  250000 550000 0  300000 550000 0  350000 550000 0  400000 550000 0  450000 550000 0  500000 550000 0  550000 550000 0  600000 550000 0  650000 550000 0  700000 550000 0  750000 550000 0  800000 550000 0  850000 550000 0  900000 550000 0  950000 550000 0  1000000 550000 0  0 600000 0  50000 600000 0  100000 600000 0  150000 600000 0  200000 600000 0  250000 600000 0  300000 600000 0  350000 600000 0  400000 600000 0  450000 600000 0  500000 600000 0  550000 600000 0  600000 600000 0  650000 600000 0  700000 600000 0  750000 600000 0  800000 600000 0  850000 600000 0  900000 600000 0  950000 600000 0  1000000 600000 0  0 650000 0  50000 650000 0  100000 650000 0  150000 650000 0  200000 650000 0  250000 650000 0  300000 650000 0  350000 650000 0  400000 650000 0  450000 650000 0  500000 650000 0  550000 650000 0  600000 650000 0  650000 650000 0  700000 650000 0  750000 650000 0  800000 650000 0  850000 650000 0  900000 650000 0  950000 650000 0  1000000 650000 0  0 700000 0  50000 700000 0  100000 700000 0  150000 700000 0  200000 700000 0  250000 700000 0  300000 700000 0  350000 700000 0  400000 700000 0  450000 700000 0  500000 700000 0  550000 700000 0  600000 700000 0  650000 700000 0  700000 700000 0  750000 700000 0  800000 700000 0  850000 700000 0  900000 700000 0  950000 700000 0  1000000 700000 0  0 750000 0  50000 750000 0  100000 750000 0  150000 750000 0  200000 750000 0  250000 750000 0  300000 750000 0  350000 750000 0  400000 750000 0  450000 750000 0  500000 750000 0  550000 750000 0  600000 750000 0  650000 750000 0  700000 750000 0  750000 750000 0  800000 750000 0  850000 750000 0  900000 750000 0  950000 750000 0  1000000 750000 0  0 800000 0  50000 800000 0  100000 800000 0  150000 800000 0  200000 800000 0  250000 800000 0  300000 800000 0  350000 800000 0  400000 800000 0  450000 800000 0  500000 800000 0  550000 800000 0  600000 800000 0  650000 800000 0  700000 800000 0  750000 800000 0  800000 800000 0  850000 800000 0  900000 800000 0  950000 800000 0  1000000 800000 0  0 850000 0  50000 850000 0  100000 850000 0  150000 850000 0  200000 850000 0  250000 850000 0  300000 850000 0  350000 850000 0  400000 850000 0  450000 850000 0  500000 850000 0  550000 850000 0  600000 850000 0  650000 850000 0  700000 850000 0  750000 850000 0  800000 850000 0  850000 850000 0  900000 850000 0  950000 850000 0  1000000 850000 0  0 900000 0  50000 900000 0  100000 900000 0  150000 900000 0  200000 900000 0  250000 900000 0  300000 900000 0  350000 900000 0  400000 900000 0  450000 900000 0  500000 900000 0  550000 900000 0  600000 900000 0  650000 900000 0  700000 900000 0  750000 900000 0  800000 900000 0  850000 900000 0  900000 900000 0  950000 900000 0  1000000 900000 0  0 950000 0  50000 950000 0  100000 950000 0  150000 950000 0  200000 950000 0  250000 950000 0  300000 950000 0  350000 950000 0  400000 950000 0  450000 950000 0  500000 950000 0  550000 950000 0  600000 950000 0  650000 950000 0  700000 950000 0  750000 950000 0  800000 950000 0  850000 950000 0  900000 950000 0  950000 950000 0  1000000 950000 0  0 1000000 0  50000 1000000 0  100000 1000000 0  150000 1000000 0  200000 1000000 0  250000 1000000 0  300000 1000000 0  350000 1000000 0  400000 1000000 0  450000 1000000 0  500000 1000000 0  550000 1000000 0  600000 1000000 0  650000 1000000 0  700000 1000000 0  750000 1000000 0  800000 1000000 0  850000 1000000 0  900000 1000000 0  950000 1000000 0  1000000 1000000 0  0 1050000 0  50000 1050000 0  100000 1050000 0  150000 1050000 0  200000 1050000 0  250000 1050000 0  300000 1050000 0  350000 1050000 0  400000 1050000 0  450000 1050000 0  500000 1050000 0  550000 1050000 0  600000 1050000 0  650000 1050000 0  700000 1050000 0  750000 1050000 0  800000 1050000 0  850000 1050000 0  900000 1050000 0  950000 1050000 0  1000000 1050000 0  0 1100000 0  50000 1100000 0  100000 1100000 0  150000 1100000 0  200000 1100000 0  250000 1100000 0  300000 1100000 0  350000 1100000 0  400000 1100000 0  450000 1100000 0  500000 1100000 0  550000 1100000 0  600000 1100000 0  650000 1100000 0  700000 1100000 0  750000 1100000 0  800000 1100000 0  850000 1100000 0  900000 1100000 0  950000 1100000 0  1000000 1100000 0  0 1150000 0  50000 1150000 0  100000 1150000 0  150000 1150000 0  200000 1150000 0  250000 1150000 0  300000 1150000 0  350000 1150000 0  400000 1150000 0  450000 1150000 0  500000 1150000 0  550000 1150000 0  600000 1150000 0  650000 1150000 0  700000 1150000 0  750000 1150000 0  800000 1150000 0  850000 1150000 0  900000 1150000 0  950000 1150000 0  1000000 1150000 0  0 1200000 0  50000 1200000 0  100000 1200000 0  150000 1200000 0  200000 1200000 0  250000 1200000 0  300000 1200000 0  350000 1200000 0  400000 1200000 0  450000 1200000 0  500000 1200000 0  550000 1200000 0  600000 1200000 0  650000 1200000 0  700000 1200000 0  750000 1200000 0  800000 1200000 0  850000 1200000 0  900000 1200000 0  950000 1200000 0  1000000 1200000 0  0 1250000 0  50000 1250000 0  100000 1250000 0  150000 1250000 0  200000 1250000 0  250000 1250000 0  300000 1250000 0  350000 1250000 0  400000 1250000 0  450000 1250000 0  500000 1250000 0  550000 1250000 0  600000 1250000 0  650000 1250000 0  700000 1250000 0  750000 1250000 0  800000 1250000 0  850000 1250000 0  900000 1250000 0  950000 1250000 0  1000000 1250000 0  0 1300000 0  50000 1300000 0  100000 1300000 0  150000 1300000 0  200000 1300000 0  250000 1300000 0  300000 1300000 0  350000 1300000 0  400000 1300000 0  450000 1300000 0  500000 1300000 0  550000 1300000 0  600000 1300000 0  650000 1300000 0  700000 1300000 0  750000 1300000 0  800000 1300000 0  850000 1300000 0  900000 1300000 0  950000 1300000 0  1000000 1300000 0  0 1350000 0  50000 1350000 0  100000 1350000 0  150000 1350000 0  200000 1350000 0  250000 1350000 0  300000 1350000 0  350000 1350000 0  400000 1350000 0  450000 1350000 0  500000 1350000 0  550000 1350000 0  600000 1350000 0  650000 1350000 0  700000 135
[...]
<PointData  Vectors="f_2995"> 
<DataArray  type="Float64"  Name="f_2995"  NumberOfComponents="3" format="ascii">-1.5766814430875695e-10 1.5948595413979672e-10 0.0000000000000000e+00  -2.9382480324839359e-10 1.3251902652010009e-10 0.0000000000000000e+00  -5.3622325752613179e-10 1.2044287778904686e-10 0.0000000000000000e+00  -7.7056333597670989e-10 1.0981948108888239e-10 0.0000000000000000e+00  -9.8514554996602923e-10 9.7745233111376308e-11 0.0000000000000000e+00  -1.1736879514310244e-09 8.3868310138867285e-11 0.0000000000000000e+00  -1.3310908329041306e-09 6.8302416324326091e-11 0.0000000000000000e+00  -1.4532322708932069e-09 5.1326835850226796e-11 0.0000000000000000e+00  -1.5369611027962900e-09 3.3310247051401216e-11 0.0000000000000000e+00  -1.5801509975634616e-09 1.4673311449947086e-11 0.0000000000000000e+00  -1.5817455052065689e-09 -4.1348896274320182e-12 0.0000000000000000e+00  -1.5417798089062226e-09 -2.2654794737803672e-11 0.0000000000000000e+00  -1.4613764571673528e-09 -4.0432056642006094e-11 0.0000000000000000e+00  -1.3427150324711192e-09 -5.7032708357727150e-11 0.0000000000000000e+00  -1.1889811051713610e-09 -7.2059935261196149e-11 0.0000000000000000e+00  -1.0043275264957531e-09 -8.5179438737275394e-11 0.0000000000000000e+00  -7.9402160486396418e-10 -9.6179210577602238e-11 0.0000000000000000e+00  -5.6557438529597922e-10 -1.0513550427118733e-10 0.0000000000000000e+00  -3.3409182193266363e-10 -1.1224958313085957e-10 0.0000000000000000e+00  -1.4502621322226984e-10 -1.0857490877841694e-10 0.0000000000000000e+00  -6.5348918646351119e-11 -6.6905913588079111e-11 0.0000000000000000e+00  -1.3423288235094733e-10 2.8521959520880565e-10 0.0000000000000000e+00  -2.4870686650636906e-10 2.4736234865709201e-10 0.0000000000000000e+00  -4.4337326784957342e-10 2.5112190814626528e-10 0.0000000000000000e+00  -6.5418042545262531e-10 2.3935890510359426e-10 0.0000000000000000e+00  -8.5503837782936733e-10 2.1813165752009932e-10 0.0000000000000000e+00  -1.0362221416791129e-09 1.9007346573535963e-10 0.0000000000000000e+00  -1.1915918153385416e-09 1.5661351613224113e-10 0.0000000000000000e+00  -1.3165138160827083e-09 1.1890524430163157e-10 0.0000000000000000e+00  -1.4074727598585422e-09 7.8065786694070106e-11 0.0000000000000000e+00  -1.4619920783167441e-09 3.5231345673122326e-11 0.0000000000000000e+00  -1.4786330135355617e-09 -8.4386862205670475e-12 0.0000000000000000e+00  -1.4570029643526399e-09 -5.1775527291765780e-11 0.0000000000000000e+00  -1.3977546180343337e-09 -9.3620813442473236e-11 0.0000000000000000e+00  -1.3025722351934665e-09 -1.3284638681891840e-10 0.0000000000000000e+00  -1.1741503662561869e-09 -1.6836852588954569e-10 0.0000000000000000e+00  -1.0161895895396279e-09 -1.9914628970229358e-10 0.0000000000000000e+00  -8.3350116344426661e-10 -2.2413151063039586e-10 0.0000000000000000e+00  -6.3258334335794817e-10 -2.4201391542496600e-10 0.0000000000000000e+00  -4.2418344808269025e-10 -2.4980713572804725e-10 0.0000000000000000e+00  -2.3428367806069707e-10 -2.3589274383106499e-10 0.0000000000000000e+00  -1.1079884786528831e-10 -1.4084866693819968e-10 0.0000000000000000e+00  -1.3254725241447949e-10 5.0793641380012878e-10 0.0000000000000000e+00  -2.5415363970713348e-10 4.3480085944716825e-10 0.0000000000000000e+00  -4.4083926285077501e-10 4.3371505735478186e-10 0.0000000000000000e+00  -6.3638465191955777e-10 4.1504493150757687e-10 0.0000000000000000e+00  -8.2219540614826175e-10 3.8032637164056735e-10 0.0000000000000000e+00  -9.9015602209623457e-10 3.3294160662539957e-10 0.0000000000000000e+00  -1.1345014980974391e-09 2.7550205421543463e-10 0.0000000000000000e+00  -1.2507613865715886e-09 2.1019448631776197e-10 0.0000000000000000e+00  -1.3355203488883322e-09 1.3909204378059311e-10 0.0000000000000000e+00  -1.3863738525491360e-09 6.4264693645618547e-11 0.0000000000000000e+00  -1.4019234685645548e-09 -1.2197079103072683e-11 0.0000000000000000e+00  -1.3817789491424737e-09 -8.8194170378863259e-11 0.0000000000000000e+00  -1.3265553274485501e-09 -1.6164401416725701e-10 0.0000000000000000e+00  -1.2378617799944074e-09 -2.3050577706375880e-10 0.0000000000000000e+00  -1.1182865744790481e-09 -2.9279249758237162e-10 0.0000000000000000e+00  -9.7139699423542489e-10 -3.4654748606479778e-10 0.0000000000000000e+00  -8.0181976632327124e-10 -3.8973169948048217e-10 0.0000000000000000e+00  -6.1564584732473749e-10 -4.1988339850091660e-10 0.0000000000000000e+00  -4.2207999454446211e-10 -4.3317035332284555e-10 0.0000000000000000e+00  -2.4140385521197250e-10 -4.2284366197057700e-10 0.0000000000000000e+00  -1.1814857772071492e-10 -3.1426267330297345e-10 0.0000000000000000e+00  -1.3799268077781512e-10 7.2710817766912078e-10 0.0000000000000000e+00  -2.5233699280373687e-10 6.4507137873916206e-10 0.0000000000000000e+00  -4.3543581650798941e-10 6.3077050829323873e-10 0.0000000000000000e+00  -6.2562580319506354e-10 6.0015728868120697e-10 0.0000000000000000e+00  -8.0428302306803207e-10 5.4985731640299100e-10 0.0000000000000000e+00  -9.6466305227440630e-10 4.8212112012830803e-10 0.0000000000000000e+00  -1.1020406786142107e-09 3.9990980635875079e-10 0.0000000000000000e+00  -1.2124747038853053e-09 3.0618844694681156e-10 0.0000000000000000e+00  -1.2928292909570737e-09 2.0392435187855025e-10 0.0000000000000000e+00  -1.3408555463804796e-09 9.6123821994969355e-11 0.0000000000000000e+00  -1.3552389647889534e-09 -1.4166665519819927e-11 0.0000000000000000e+00  -1.3356207152269384e-09 -1.2388542279213615e-10 0.0000000000000000e+00  -1.2826003913304110e-09 -2.2999237931263670e-10 0.0000000000000000e+00  -1.1977235667611307e-09 -3.2950581582942972e-10 0.0000000000000000e+00  -1.0834562362371712e-09 -4.1952689902350749e-10 0.0000000000000000e+00  -9.4315265308653803e-10 -4.9723672192254166e-10 0.0000000000000000e+00  -7.8105024055795146e-10 -5.5984831087582566e-10 0.0000000000000000e+00  -6.0246977858674863e-10 -6.0451771244091138e-10 0.0000000000000000e+00  -4.1512641339109323e-10 -6.2825541667399716e-10 0.0000000000000000e+00  -2.3779232497071034e-10 -6.2766384699362320e-10 0.0000000000000000e+00  -1.1968527750348076e-10 -5.2517046633135181e-10 0.0000000000000000e+00  -1.4719274870361960e-10 9.4160750487409667e-10 0.0000000000000000e+00  -2.5227737192946806e-10 8.5544142796551450e-10 0.0000000000000000e+00  -4.3253902193154223e-10 8.2965107806039968e-10 0.0000000000000000e+00  -6.2075015948394346e-10 7.8515189494507850e-10 0.0000000000000000e+00  -7.9683376338784003e-10 7.1788419440185792e-10 0.0000000000000000e+00  -9.5400201132283248e-10 6.2932983601027076e-10 0.0000000000000000e+00  -1.0879964279126070e-09 5.2245711184148305e-10 0.0000000000000000e+00  -1.1953275768613540e-09 4.0073968445972843e-10 0.0000000000000000e+00  -1.2731639898753273e-09 2.6789140314939705e-10 0.0000000000000000e+00  -1.3194435200743217e-09 1.2777461304676634e-10 0.0000000000000000e+00  -1.3329574445963024e-09 -1.5657668689241197e-11 0.0000000000000000e+00  -1.3133922423371746e-09 -1.5841856137452848e-10 0.0000000000000000e+00  -1.2613402421184008e-09 -2.9654688838819668e-10 0.0000000000000000e+00  -1.1782853233951743e-09 -4.2616617874831188e-10 0.0000000000000000e+00  -1.0665647709472269e-09 -5.4353901359998298e-10 0.0000000000000000e+00  -9.2930985047460121e-10 -6.4511648837952818e-10 0.0000000000000000e+00  -7.7040082894042777e-10 -7.2759811573308812e-10 0.0000000000000000e+00  -5.9466718911323929e-10 -7.8805810873605192e-10 0.0000000000000000e+00  -4.0950451458854541e-10 -8.2412714300881261e-10 0.0000000000000000e+00  -2.3485593061033110e-10 -8.3337094823551537e-10 0.0000000000000000e+00  -1.2501183889930808e-10 -7.3816232571150900e-10 0.0000000000000000e+00  -1.5950415924664605e-10 1.1541187300176372e-09 0.0000000000000000e+00  -2.5517577698561779e-10 1.0644319187837129e-09 0.0000000000000000e+00  -4.3374718643399012e-10 1.0289683572124861e-09 0.0000000000000000e+00  -6.2198839464440873e-10 9.7035371819498426e-10 0.0000000000000000e+00  -7.9815477688228438e-10 8.8535313234767282e-10 0.0000000000000000e+00  -9.5496531093861782e-10 7.7543137725929588e-10 0.0000000000000000e+00  -1.0881855742739991e-09 6.4370291016766062e-10 0.0000000000000000e+00  -1.1945304366540748e-09 4.9408011997885657e-10 0.0000000000000000e+00  -1.2713766563976688e-09 3.3093020285934984e-10 0.0000000000000000e+00  -1.3168194453822194e-09 1.5889632049396950e-10 0.0000000000000000e+00  -1.3297505736443189e-09 -1.7220383126411164e-11 0.0000000000000000e+00  -1.3099049880214320e-09 -1.9255745960044619e-10 0.0000000000000000e+00  -1.2578749543193672e-09 -3.6228104709757495e-10 0.0000000000000000e+00  -1.1750954957375375e-09 -5.2167447873905965e-10 0.0000000000000000e+00  -1.0638025746401880e-09 -6.6622980593435504e-10 0.0000000000000000e+00  -9.2697148649366956e-10 -7.9175135484217024e-10 0.0000000000000000e+00  -7.6829276926488291e-10 -8.9449328694375215e-10 0.0000000000000000e+00  -5.9248774666703474e-10 -9.7136583816006102e-10 0.0000000000000000e+00  -4.0731592224687583e-10 -1.0200791486029056e-09 0.0000000000000000e+00  -2.3454653902641827e-10 -1.0381639840197843e-09 0.0000000000000000e+00  -1.3366734363221803e-10 -9.4802194264261930e-10 0.0000000000000000e+00  -1.7470907204840934e-10 1.3670726176782167e-09 0.0000000000000000e+00  -2.6090418977082475e-10 1.2738639825986550e-09 0.0000000000000000e+00  -4.3897552996323416e-10 1.2295954793885455e-09 0.0000000000000000e+00  -6.2872777186150788e-10 1.1571139861049204e-09 0.0000000000000000e+00  -8.0665565498698862e-10 1.0540029158510364e-09 0.0000000000000000e+00  -9.6489563724404830e-10 9.2218655423812980e-10 0.0000000000000000e+00  -1.0990445004267912e-09 7.6516651321069257e-10 0.0000000000000000e+00  -1.2058440889561906e-09 5.8735657293282630e-10 0.0000000000000000e+00  -1.2827702712999585e-09 3.9376316638085383e-10 0.0000000000000000e+00  -1.3280217671208409e-09 1.8977200616466701e-10 0.0000000000000000e+00  -1.3405691261336403e-09 -1.9010680765940402e-11 0.0000000000000000e+00  -1.3201910918737633e-09 -2.2688958227365431e-10 0.0000000000000000e+00  -1.2674865471900347e-09 -4.2820000079999659e-10 0.0000000000000000e+00  -1.1838617930397124e-09 -6.1742593912624831e-10 0.0000000000000000e+00  -1.0714952081342356e-09 -7.8932543663547249e-10 0.0000000000000000e+00  -9.3329329858329894e-10 -9.3907414327905063e-10 0.0000000000000000e+00  -7.7291471548773328e-10 -1.0624415511461936e-09 0.0000000000000000e+00  -5.9521251280657374e-10 -1.1560044064889353e-09 0.0000000000000000e+00  -4.0856708229414767e-10 -1.2172089095018192e-09 0.0000000000000000e+00  -2.3676936516691746e-10 -1.2432389538796218e-09 0.0000000000000000e+00  -1.4521315740284064e-10 -1.1559610929447304e-09 0.0000000000000000e+00  -1.9272670184892082e-10 1.5822953743782457e-09 0.0000000000000000e+00  -2.6894342242108180e-10 1.4854702858468174e-09 0.0000000000000000e+00  -4.4734957609433796e-10 1.4328030649695045e-09 0.0000000000000000e+00  -6.3961769707982858e-10 1.3466027901421947e-09 0.0000000000000000e+00  -8.2031535093783182e-10 1.2251182289213856e-09 0.0000000000000000e+00  -9.8099018757351547e-10 1.0709034725185392e-09 0.0000000000000000e+00  -1.1170186138689003e-09 8.8802968110714538e-10 0.0000000000000000e+00  -1.2250885539895689e-09 6.8151324206418746e-10 0.0000000000000000e+00  -1.3027064788744766e-09 4.5703322263556395e-10 0.0000000000000000e+00  -1.3481321840792627e-09 2.2071306565635172e-10 0.0000000000000000e+00  -1.3603940647704143e-09 -2.1059146916059574e-11 0.0000000000000000e+00  -1.3393079843630774e-09 -2.6178549312061222e-10 0.0000000000000000e+00  -1.2854835595913071e-09 -4.9500044752515624e-10 0.0000000000000000e+00  -1.2003151826437216e-09 -7.1441192593180129e-10 0.0000000000000000e+00  -1.0859599495119012e-09 -9.1405160163789584e-10 0.0000000000000000e+00  -9.4532026068441929e-10 -1.0884438980516538e-09 0.0000000000000000e+00  -7.8211887753450759e-10 -1.2327994035639684e-09 0.0000000000000000e+00  -6.0145015431971797e-10 -1.3432199583786270e-09 0.0000000000000000e+00  -4.1240436643624838e-10 -1.4167143090106493e-09 0.0000000000000000e+00  -2.4097308835494534e-10 -1.4500425743919564e-09 0.0000000000000000e+00  -1.5947912359101372e-10 -1.3639978877797558e-09 0.0000000000000000e+00  -2.1355197079672265e-10 1.8008496339400865e-09 0.0000000000000000e+00  -2.7860406061766904e-10 1.7004202673797869e-09 0.0000000000000000e+00  -4.5758282728124957e-10 1.6394939136619579e-09 0.0000000000000000e+00  -6.5278159182480215e-10 1.5395397583907880e-09 0.0000000000000000e+00  -8.3661441342732771e-10 1.3993776108091968e-09 0.0000000000000000e+00  -1.0000409091270746e-09 1.2222462246795279e-09 0.0000000000000000e+00  -1.1382277819241879e-09 1.0128995427526820e-09 0.0000000000000000e+00  -1.2477985607529546e-09 7.7704723418806537e-10 0.0000000000000000e+00  -1.3262724605395954e-09 5.2108929898807645e-10 0.0000000000000000e+00  -1.3719566189099490e-09 2.5189912486189998e-10 0.0000000000000000e+00  -1.3839296578775434e-09 -2.3364472730335118e-11 0.0000000000000000e+00  -1.3620409966955668e-09 -2.9742307442576986e-10 0.0000000000000000e+00  -1.3069104097296709e-09 -5.6303240276624118e-10 0.0000000000000000e+00  -1.2199247301252488e-09 -8.1313602916401327e-10 0.0000000000000000e+00  -1.1032332978751177e-09 -1.0410304634036386e-09 0.0000000000000000e+00  -9.5976041395433316e-10 -1.2405497248022413e-09 0.0000000000000000e+00  -7.9332838868483386e-10 -1.4062701291618436e-09 0.0000000000000000e+00  -6.0930655430516011e-10 -1.5337163242640179e-09 0.0000000000000000e+00  -4.1753560246998119e-10 -1.6193714939494534e-09 0.0000000000000000e+00  -2.4642953870585232e-10 -1.6595634437980982e-09 0.0000000000000000e+00  -1.7640624830947571e-10 -1.5736699949537123e-09 0.0000000000000000e+00  -2.3722674173579744e-10 2.0229309483976429e-09 0.0000000000000000e+00  -2.8907114845425945e-10 1.9191469643443026e-09 0.0000000000000000e+00  -4.6808639076361006e-10 1.8499221016979675e-09 0.0000000000000000e+00  -6.6589039115571002e-10 1.7360208098415274e-09 0.0000000000000000e+00  -8.5249437487562168e-10 1.5767960371289495e-09 0.0000000000000000e+00  -1.0182674791006520e-09 1.3762076398706810e-09 0.0000000000000000e+00  -1.1582091387342015e-09 1.1397687567158605e-09 0.0000000000000000e+00  -1.2689169837236067e-09 8.7395487690038125e-10 0.0000000000000000e+00  -1.3479516114700842e-09 5.8593159352697634e-10 0.0000000000000000e+00  -1.3936878999962685e-09 2.8333506907274556e-10 0.0000000000000000e+00  -1.4052667474873264e-09 -2.5916981381044437e-11 0.0000000000000000e+00  -1.3825735268770887e-09 -3.3379025059672284e-10 0.0000000000000000e+00  -1.3262309240146341e-09 -6.3228583470959276e-10 0.0000000000000000e+00  -1.2376038969615672e-09 -9.1359391479622428e-10 0.0000000000000000e+00  -1.1188170716831017e-09 -1.1702631688624615e-09 0.0000000000000000e+00  -9.7280092540472673e-10 -1.3953949845127154e-09 0.0000000000000000e+00  -8.0346377589463946e-10 -1.5828620347719659e-09 0.0000000000000000e+00  -6.1644049662596931e-10 -1.7275315110472341e-09 0.0000000000000000e+00  -4.2235022513366987e-10 -1.8253034178884246e-09 0.0000000000000000e+00  -2.5228022488846979e-10 -1.8720763283266053e-09 0.0000000000000000e+00  -1.9598946339586540e-10 -1.7857352708221854e-09 0.0000000000000000e+00  -2.6382427996811448e-10 2.2477426699742081e-09 0.0000000000000000e+00  -2.9939057827061772e-10 2.1411968143030230e-09 0.0000000000000000e+00  -4.7696193839065977e-10 2.0635123457610099e-09 0.0000000000000000e+00  -6.7613485228755353e-10 1.9353529044940107e-09 0.0000000000000000e+00  -8.6426949153838705e-10 1.7566186421063973e-09 0.0000000000000000e+00  -1.0311476102017113e-09 1.5320417834100821e-09 0.0000000000000000e+00  -1.1716707395350165e-09 1.2679637036895663e-09 0.0000000000000000e+00  -1.2824907623340850e-09 9.7168682091609413e-10 0.0000000000000000e+00  -1.3612824575346094e-09 6.5117601100283606e-10 0.0000000000000000e+00  -1.4065452973980722e-09 3.1483068408826141e-10 0.0000000000000000e+00  -1.4175174544460953e-09 -2.8699565552919519e-11 0.0000000000000000e+00  -1.3941297676162181e-09 -3.7066609446792786e-10 0.0000000000000000e+00  -1.3369916892609386e-09 -7.0235537568766421e-10 0.0000000000000000e+00  -1.2474083521254127e-09 -1.0152270802854530e-09 0.0000000000000000e+00  -1.1274269926787019e-09 -1.3010760964668908e-09 0.0000000000000000e+00  -9.7992530670164165e-10 -1.5522318023529817e-09 0.0000000000000000e+00  -8.0884095951318509e-10 -1.7617960533086296e-09 0.0000000000000000e+00  -6.2003334766261125e-10 -1.9239013618510083e-09 0.0000000000000000e+00  -4.2492045287204171e-10 -2.0338066110769429e-09 0.0000000000000000e+00  -2.5752482580722493e-10 -2.0869764072442942e-09 0.0000000000000000e+00  -2.1825603729952643e-10 -2.0000454772580804e-09 0.0000000000000000e+00  -2.9344044138721484e-10 2.4733295941254787e-09 0.0000000000000000e+00  -3.0843368430068467e-10 2.3650619696234144e-09 0.0000000000000000e+00  -4.8194224185906800e-10 2.2786750242216337e-09 0.0000000000000000e+00  -6.8013428256079789e-10 2.1358689679928886e-09 0.0000000000000000e+00  -8.6748552947045087e-10 1.9371591383393620e-09 0.0000000000000000e+00  -1.0332113602792004e-09 1.6881321710547783e-09 0.0000000000000000e+00  -1.1722188819619319e-09 1.3960384345005078e-09 0.0000000000000000e+00  -1.2813402348848630e-09 1.0690656587235784e-09 0.0000000000000000e+00  -1.3584854395471708e-09 7.1599774116985980e-10 0.0000000000000000e+00  -1.4023763405083878e-09 3.4597422671751801e-10 0.0000000000000000e+00  -1.4124096809966012e-09 -3.1681400139000336e-11 0.0000000000000000e+00  -1.3885789404839598e-09 -4.0758216966375625e-10 0.0000000000000000e+00  -1.3314523217859698e-09 -7.7237282665736416e-10 0.0000000000000000e+00  -1.2422076784991203e-09 -1.1168317859852920e-09 0.0000000000000000e+00  -1.1227195640567974e-09 -1.4320105646180405e-09 0.0000000000000000e+00  -9.7570522877217465e-10 -1.7094323833008434e-09 0.0000000000000000e+00  -8.0502937812945211e-10 -1.9413561323254065e-09 0.0000000000000000e+00  -6.1670218471879505e-10 -2.1210888908958974e-09 0.0000000000000000e+00  -4.2294852434184761e-10 -2.2431704856655076e-09 0.0000000000000000e+00  -2.6098744411871871e-10 -2.3026102456009078e-09 0.0000000000000000e+00  -2.4325475431589873e-10 -2.2154161227664649e-09 0.0000000000000000e+00  -3.2618942902467380e-10 2.6963617762564230e-09 0.0000000000000000e+00  -3.1485109997583040e-10 2.5879751639042345e-09 0.0000000000000000e+00  -4.8030334129744652e-10 2.4925877654230328e-09 0.0000000000000000e+00  -6.7380251660093045e-10 2.3347033186143746e-09 0.0000000000000000e+00  -8.5673013086390904e-10 2.1155831710115125e-09 0.0000000000000000e+00  -1.0177870667797696e-09 1.8417956270422643e-09 0.0000000000000000e+00  -1.1520375177257217e-09 1.5216071509949064e-09 0.0000000000000000e+00  -1.2566786194392682e-09 1.1641538431710268e-09 0.0000000000000000e+00  -1.3300361625004094e-09 7.7904140127179698e-10 0.0000000000000000e+00  -1.3712018499007058e-09 3.7609054913343666e-10 0.0000000000000000e+00  -1.3798238330311231e-09 -3.4808822286404061e-11 0.0000000000000000e+00  -1.3559837923389752e-09 -4.4376328781752454e-10 0.0000000000000000e+00  -1.3001646917272309e-09 -8.4090259675194325e-10 0.0000000000000000e+00  -1.2133118532582547e-09 -1.2164168181365789e-09 0.0000000000000000e+00  -1.0969782930875905e-09 -1.5606515129602783e-09 0.0000000000000000e+00  -9.5355290838487383e-10 -1.8642963849065085e-09 0.0000000000000000e+00  -7.8666908924344884e-10 -2.1186818813136493e-09 0.0000000000000000e+00  -6.0237258353514564e-10 -2.3161692435719423e-09 0.0000000000000000e+00  -4.1368337079144732e-10 -2.4504638679665509e-09 0.0000000000000000e+00  -2.6127044891593871e-10 -2.5160735611963581e-09 0.0000000000000000e+00  -2.7104937898558854e-10 -2.4294559936218526e-09 0.0000000000000000e+00  -3.6220436262683558e-10 2.9118609116513660e-09 0.0000000000000000e+00  -3.1701916674402792e-10 2.8056545002054331e-09 0.0000000000000000e+00  -4.6875614331738687e-10 2.7009275959909452e-09 0.0000000000000000e+00  -6.5217892301685173e-10 2.5275126594545149e-09 0.0000000000000000e+00  -8.2539575086725974e-10 2.2876288398480731e-09 0.0000000000000000e+00  -9.7669