<?xml version="1.0"?>
<VTKFile type="UnstructuredGrid"  version="0.1"  >
<UnstructuredGrid>
<Piece  NumberOfPoints="651" NumberOfCells="1200">
<Points>
<DataArray  type="Float64"  NumberOfComponents="3"  format="ascii">0 0 0  50000 0 0  100000 0 0  150000 0 0  200000 0 0  250000 0 0  300000 0 0  350000 0 0  400000 0 0  450000 0 0  500000 0 0  550000 0 0  600000 0 0  650000 0 0  700000 0 0  750000 0 0  800000 0 0  850000 0 0  900000 0 0  950000 0 0  1000000 0 0  0 50000 0  50000 50000 0  100000 50000 0  150000 50000 0  200000 50000 0  250000 50000 0  300000 50000 0  350000 50000 0  400000 50000 0  450000 50000 0  500000 50000 0  550000 50000 0  600000 50000 0  650000 50000 0  700000 50000 0  750000 50000 0  800000 50000 0  850000 50000 0  900000 50000 0  950000 50000 0  1000000 50000 0  0 100000 0  50000 100000 0  100000 100000 0  150000 100000 0  200000 100000 0  250000 100000 0  300000 100000 0  350000 100000 0  400000 100000 0  450000 100000 0  500000 100000 0  550000 100000 0  600000 100000 0  650000 100000 0  700000 100000 0  750000 100000 0  800000 100000 0  850000 100000 0  900000 100000 0  950000 100000 0  1000000 100000 0  0 150000 0  50000 150000 0  100000 150000 0  150000 150000 0  200000 150000 0  250000 150000 0  300000 150000 0  350000 150000 0  400000 150000 0  450000 150000 0  500000 150000 0  550000 150000 0  600000 150000 0  650000 150000 0  700000 150000 0  750000 150000 0  800000 150000 0  850000 150000 0  900000 150000 0  950000 150000 0  1000000 150000 0  0 200000 0  50000 200000 0  100000 200000 0  150000 200000 0  200000 200000 0  250000 200000 0  300000 200000 0  350000 200000 0  400000 200000 0  450000 200000 0  500000 200000 0  550000 200000 0  600000 200000 0  650000 200000 0  700000 200000 0  750000 200000 0  800000 200000 0  850000 200000 0  900000 200000 0  950000 200000 0  1000000 200000 0  0 250000 0  50000 250000 0  100000 250000 0  150000 250000 0  200000 250000 0  250000 250000 0  300000 250000 0  350000 250000 0  400000 250000 0  450000 250000 0  500000 250000 0  550000 250000 0  600000 250000 0  650000 250000 0  700000 250000 0  750000 250000 0  800000 250000 0  850000 250000 0  900000 250000 0  950000 250000 0  1000000 250000 0  0 300000 0  50000 300000 0  100000 300000 0  150000 300000 0  200000 300000 0  250000 300000 0  300000 300000 0  350000 300000 0  400000 300000 0  450000 300000 0  500000 300000 0  550000 300000 0  600000 300000 0  650000 300000 0  700000 300000 0  750000 300000 0  800000 300000 0  850000 300000 0  900000 300000 0  950000 300000 0  1000000 300000 0  0 350000 0  50000 350000 0  100000 350000 0  150000 350000 0  200000 350000 0  250000 350000 0  300000 350000 0  350000 350000 0  400000 350000 0  450000 350000 0  500000 350000 0  550000 350000 0  600000 350000 0  650000 350000 0  700000 350000 0  750000 350000 0  800000 350000 0  850000 350000 0  900000 350000 0  950000 350000 0  1000000 350000 0  0 400000 0  50000 400000 0  100000 400000 0  150000 400000 0  200000 400000 0  250000 400000 0  300000 400000 0  350000 400000 0  400000 400000 0  450000 400000 0  500000 400000 0  550000 400000 0  600000 400000 0  650000 400000 0  700000 400000 0  750000 400000 0  800000 400000 0  850000 400000 0  900000 400000 0  950000 400000 0  1000000 400000 0  0 450000 0  50000 450000 0  100000 450000 0  150000 450000 0  200000 450000 0  250000 450000 0  300000 450000 0  350000 450000 0  400000 450000 0  450000 450000 0  500000 450000 0  550000 450000 0  600000 450000 0  650000 450000 0  700000 450000 0  750000 450000 0  800000 450000 0  850000 450000 0  900000 450000 0  950000 450000 0  1000000 450000 0  0 500000 0  50000 500000 0  100000 500000 0  150000 500000 0  200000 500000 0  250000 500000 0  300000 500000 0  350000 500000 0  400000 500000 0  450000 500000 0  500000 500000 0  550000 500000 0  600000 500000 0  650000 500000 0  700000 500000 0  750000 500000 0  800000 500000 0  850000 500000 0  900000 500000 0  950000 500000 0  1000000 500000 0  0 550000 0  50000 550000 0  100000 550000 0  150000 550000 0  200000 550000 0  250000 550000 0  300000 550000 0  350000 550000 0  400000 550000 0  450000 550000 0  500000 550000 0  550000 550000 0  600000 550000 0  650000 550000 0  700000 550000 0  750000 550000 0  800000 550000 0  850000 550000 0  900000 550000 0  950000 550000 0  1000000 550000 0  0 600000 0  50000 600000 0  100000 600000 0  150000 600000 0  200000 600000 0  250000 600000 0  300000 600000 0  350000 600000 0  400000 600000 0  450000 600000 0  500000 600000 0  550000 600000 0  600000 600000 0  650000 600000 0  700000 600000 0  750000 600000 0  800000 600000 0  850000 600000 0  900000 600000 0  950000 600000 0  1000000 600000 0  0 650000 0  50000 650000 0  100000 650000 0  150000 650000 0  200000 650000 0  250000 650000 0  300000 650000 0  350000 650000 0  400000 650000 0  450000 650000 0  500000 650000 0  550000 650000 0  600000 650000 0  650000 650000 0  700000 650000 0  750000 650000 0  800000 650000 0  850000 650000 0  900000 650000 0  950000 650000 0  1000000 650000 0  0 700000 0  50000 700000 0  100000 700000 0  150000 700000 0  200000 700000 0  250000 700000 0  300000 700000 0  350000 700000 0  400000 700000 0  450000 700000 0  500000 700000 0  550000 700000 0  600000 700000 0  650000 700000 0  700000 700000 0  750000 700000 0  800000 700000 0  850000 700000 0  900000 700000 0  950000 700000 0  1000000 700000 0  0 750000 0  50000 750000 0  100000 750000 0  150000 750000 0  200000 750000 0  250000 750000 0  300000 750000 0  350000 750000 0  400000 750000 0  450000 750000 0  500000 750000 0  550000 750000 0  600000 750000 0  650000 750000 0  700000 750000 0  750000 750000 0  800000 750000 0  850000 750000 0  900000 750000 0  950000 750000 0  1000000 750000 0  0 800000 0  50000 800000 0  100000 800000 0  150000 800000 0  200000 800000 0  250000 800000 0  300000 800000 0  350000 800000 0  400000 800000 0  450000 800000 0  500000 800000 0  550000 800000 0  600000 800000 0  650000 800000 0  700000 800000 0  750000 800000 0  800000 800000 0  850000 800000 0  900000 800000 0  950000 800000 0  1000000 800000 0  0 850000 0  50000 850000 0  100000 850000 0  150000 850000 0  200000 850000 0  250000 850000 0  300000 850000 0  350000 850000 0  400000 850000 0  450000 850000 0  500000 850000 0  550000 850000 0  600000 850000 0  650000 850000 0  700000 850000 0  750000 850000 0  800000 850000 0  850000 850000 0  900000 850000 0  950000 850000 0  1000000 850000 0  0 900000 0  50000 900000 0  100000 900000 0  150000 900000 0  200000 900000 0  250000 900000 0  300000 900000 0  350000 900000 0  400000 900000 0  450000 900000 0  500000 900000 0  550000 900000 0  600000 900000 0  650000 900000 0  700000 900000 0  750000 900000 0  800000 900000 0  850000 900000 0  900000 900000 0  950000 900000 0  1000000 900000 0  0 950000 0  50000 950000 0  100000 950000 0  150000 950000 0  200000 950000 0  250000 950000 0  300000 950000 0  350000 950000 0  400000 950000 0  450000 950000 0  500000 950000 0  550000 950000 0  600000 950000 0  650000 950000 0  700000 950000 0  750000 950000 0  800000 950000 0  850000 950000 0  900000 950000 0  950000 950000 0  1000000 950000 0  0 1000000 0  50000 1000000 0  100000 1000000 0  150000 1000000 0  200000 1000000 0  250000 1000000 0  300000 1000000 0  350000 1000000 0  400000 1000000 0  450000 1000000 0  500000 1000000 0  550000 1000000 0  600000 1000000 0  650000 1000000 0  700000 1000000 0  750000 1000000 0  800000 1000000 0  850000 1000000 0  900000 1000000 0  950000 1000000 0  1000000 1000000 0  0 1050000 0  50000 1050000 0  100000 1050000 0  150000 1050000 0  200000 1050000 0  250000 1050000 0  300000 1050000 0  350000 1050000 0  400000 1050000 0  450000 1050000 0  500000 1050000 0  550000 1050000 0  600000 1050000 0  650000 1050000 0  700000 1050000 0  750000 1050000 0  800000 1050000 0  850000 1050000 0  900000 1050000 0  950000 1050000 0  1000000 1050000 0  0 1100000 0  50000 1100000 0  100000 1100000 0  150000 1100000 0  200000 1100000 0  250000 1100000 0  300000 1100000 0  350000 1100000 0  400000 1100000 0  450000 1100000 0  500000 1100000 0  550000 1100000 0  600000 1100000 0  650000 1100000 0  700000 1100000 0  750000 1100000 0  800000 1100000 0  850000 1100000 0  900000 1100000 0  950000 1100000 0  1000000 1100000 0  0 1150000 0  50000 1150000 0  100000 1150000 0  150000 1150000 0  200000 1150000 0  250000 1150000 0  300000 1150000 0  350000 1150000 0  400000 1150000 0  450000 1150000 0  500000 1150000 0  550000 1150000 0  600000 1150000 0  650000 1150000 0  700000 1150000 0  750000 1150000 0  800000 1150000 0  850000 1150000 0  900000 1150000 0  950000 1150000 0  1000000 1150000 0  0 1200000 0  50000 1200000 0  100000 1200000 0  150000 1200000 0  200000 1200000 0  250000 1200000 0  300000 1200000 0  350000 1200000 0  400000 1200000 0  450000 1200000 0  500000 1200000 0  550000 1200000 0  600000 1200000 0  650000 1200000 0  700000 1200000 0  750000 1200000 0  800000 1200000 0  850000 1200000 0  900000 1200000 0  950000 1200000 0  1000000 1200000 0  0 1250000 0  50000 1250000 0  100000 1250000 0  150000 1250000 0  200000 1250000 0  250000 1250000 0  300000 1250000 0  350000 1250000 0  400000 1250000 0  450000 1250000 0  500000 1250000 0  550000 1250000 0  600000 1250000 0  650000 1250000 0  700000 1250000 0  750000 1250000 0  800000 1250000 0  850000 1250000 0  900000 1250000 0  950000 1250000 0  1000000 1250000 0  0 1300000 0  50000 1300000 0  100000 1300000 0  150000 1300000 0  200000 1300000 0  250000 1300000 0  300000 1300000 0  350000 1300000 0  400000 1300000 0  450000 1300000 0  500000 1300000 0  550000 1300000 0  600000 1300000 0  650000 1300000 0  700000 1300000 0  750000 1300000 0  800000 1300000 0  850000 1300000 0  900000 1300000 0  950000 1300000 0  1000000 1300000 0  0 1350000 0  50000 1350000 0  100000 1350000 0  150000 1350000 0  200000 1350000 0  250000 1350000 0  300000 1350000 0  350000 1350000 0  400000 1350000 0  450000 1350000 0  500000 1350000 0  550000 1350000 0  600000 1350000 0  650000 1350000 0  700000 135
[...]
<PointData  Vectors="f_2995"> 
<DataArray  type="Float64"  Name="f_2995"  NumberOfComponents="3" format="ascii">-1.5693214484187286e-10 1.6501705903137879e-10 0.0000000000000000e+00  -2.9314199574062674e-10 1.3806875627692634e-10 0.0000000000000000e+00  -5.3553049033514827e-10 1.2600830391380968e-10 0.0000000000000000e+00  -7.6979187476094528e-10 1.1532107545426938e-10 0.0000000000000000e+00  -9.8427284393969498e-10 1.0312028684046350e-10 0.0000000000000000e+00  -1.1727008605172154e-09 8.9077501135856302e-11 0.0000000000000000e+00  -1.3299838822167430e-09 7.3317720897552190e-11 0.0000000000000000e+00  -1.4520057860384973e-09 5.6126529457489780e-11 0.0000000000000000e+00  -1.5356197773180943e-09 3.7877231660822262e-11 0.0000000000000000e+00  -1.5787029785773049e-09 1.8994457733129891e-11 0.0000000000000000e+00  -1.5802016455938400e-09 -6.8887187800906640e-14 0.0000000000000000e+00  -1.5401528894066958e-09 -1.8849227821370568e-11 0.0000000000000000e+00  -1.4596802677739499e-09 -3.6887809869419366e-11 0.0000000000000000e+00  -1.3409632350531767e-09 -5.3745764610711155e-11 0.0000000000000000e+00  -1.1871858137105946e-09 -6.9020853783163275e-11 0.0000000000000000e+00  -1.0024975318153036e-09 -8.2372845403082376e-11 0.0000000000000000e+00  -7.9216009862126199e-10 -9.3583272535664073e-11 0.0000000000000000e+00  -5.6367596947913419e-10 -1.0272120189848541e-10 0.0000000000000000e+00  -3.3214017695666354e-10 -1.0997964267672209e-10 0.0000000000000000e+00  -1.4300289140138615e-10 -1.0640431908947829e-10 0.0000000000000000e+00  -6.3301113616887151e-11 -6.4714713038496122e-11 0.0000000000000000e+00  -1.3348127874567040e-10 2.9081882978188394e-10 0.0000000000000000e+00  -2.4932325291042948e-10 2.4955495346355986e-10 0.0000000000000000e+00  -4.4501349901594652e-10 2.5190679907921395e-10 0.0000000000000000e+00  -6.5548488657703818e-10 2.4008541639999413e-10 0.0000000000000000e+00  -8.5584833473408296e-10 2.1885103511516097e-10 0.0000000000000000e+00  -1.0366206168232668e-09 1.9078133469938823e-10 0.0000000000000000e+00  -1.1916430735433349e-09 1.5730445169936015e-10 0.0000000000000000e+00  -1.3162666422322935e-09 1.1957656246400374e-10 0.0000000000000000e+00  -1.4069704843797954e-09 7.8717071078073800e-11 0.0000000000000000e+00  -1.4612754208631770e-09 3.5863562883182072e-11 0.0000000000000000e+00  -1.4777413559587739e-09 -7.8236984320065495e-12 0.0000000000000000e+00  -1.4559751760337604e-09 -5.1175249431832187e-11 0.0000000000000000e+00  -1.3966296698519946e-09 -9.3031996393750886e-11 0.0000000000000000e+00  -1.3013898634126618e-09 -1.3226472530970004e-10 0.0000000000000000e+00  -1.1729521602670944e-09 -1.6778781865253734e-10 0.0000000000000000e+00  -1.0150210987671504e-09 -1.9855647506145704e-10 0.0000000000000000e+00  -8.3241536871396706e-10 -2.2351434201396865e-10 0.0000000000000000e+00  -6.3163983427111977e-10 -2.4133594489873913e-10 0.0000000000000000e+00  -4.2341356727045987e-10 -2.4901064254060244e-10 0.0000000000000000e+00  -2.3365227781024254e-10 -2.3481377704507818e-10 0.0000000000000000e+00  -1.0877788035510339e-10 -1.3870476934137959e-10 0.0000000000000000e+00  -1.3183846261623496e-10 5.1372831268053116e-10 0.0000000000000000e+00  -2.5496338191688227e-10 4.3688697131917577e-10 0.0000000000000000e+00  -4.4308332038562073e-10 4.3347576276787627e-10 0.0000000000000000e+00  -6.3887854855682783e-10 4.1445538428962205e-10 0.0000000000000000e+00  -8.2444515821686519e-10 3.7970625161367306e-10 0.0000000000000000e+00  -9.9200111066216663e-10 3.3235967152832005e-10 0.0000000000000000e+00  -1.1359283466681931e-09 2.7497554330597740e-10 0.0000000000000000e+00  -1.2517983239923731e-09 2.0972794217898854e-10 0.0000000000000000e+00  -1.3362072950993656e-09 1.3868781509425509e-10 0.0000000000000000e+00  -1.3867543651672091e-09 6.3925405612585556e-11 0.0000000000000000e+00  -1.4020419781878317e-09 -1.2468129805532100e-11 0.0000000000000000e+00  -1.3816797905509726e-09 -8.8392911560404859e-11 0.0000000000000000e+00  -1.3262827191636600e-09 -1.6176530706165919e-10 0.0000000000000000e+00  -1.2374604848643051e-09 -2.3054265956014691e-10 0.0000000000000000e+00  -1.1178032184204491e-09 -2.9273452844161628e-10 0.0000000000000000e+00  -9.7088195915828490e-10 -3.4637743585754455e-10 0.0000000000000000e+00  -8.0132859030028289e-10 -3.8941961684667196e-10 0.0000000000000000e+00  -6.1523572810042909e-10 -4.1937769775526172e-10 0.0000000000000000e+00  -4.2178288427065205e-10 -4.3238452918044912e-10 0.0000000000000000e+00  -2.4113647131200875e-10 -4.2177408700826883e-10 0.0000000000000000e+00  -1.1623627330076773e-10 -3.1220143193375355e-10 0.0000000000000000e+00  -1.3745670478513951e-10 7.3310837428668448e-10 0.0000000000000000e+00  -2.5287403720934039e-10 6.4818380588667570e-10 0.0000000000000000e+00  -4.3726289152662980e-10 6.3096667630365745e-10 0.0000000000000000e+00  -6.2802400768298392e-10 5.9942602435873654e-10 0.0000000000000000e+00  -8.0678676622512172e-10 5.4884558368247168e-10 0.0000000000000000e+00  -9.6698900917207236e-10 4.8106000996788857e-10 0.0000000000000000e+00  -1.1040625180166085e-09 3.9889015156334939e-10 0.0000000000000000e+00  -1.2141529017585042e-09 3.0524935529042536e-10 0.0000000000000000e+00  -1.2941671624120513e-09 2.0308429507221839e-10 0.0000000000000000e+00  -1.3418771231361233e-09 9.5392802761993748e-11 0.0000000000000000e+00  -1.3559784743017798e-09 -1.4782043429088404e-11 0.0000000000000000e+00  -1.3361175095433378e-09 -1.2437952431991758e-10 0.0000000000000000e+00  -1.2828966050463826e-09 -2.3035893349928784e-10 0.0000000000000000e+00  -1.1978632961763693e-09 -3.2973627538019293e-10 0.0000000000000000e+00  -1.0834855476285290e-09 -4.1960818049405722e-10 0.0000000000000000e+00  -9.4311966755544671e-10 -4.9714786065653322e-10 0.0000000000000000e+00  -7.8100372648477156e-10 -5.5955603675783573e-10 0.0000000000000000e+00  -6.0245149337037930e-10 -6.0397319160991462e-10 0.0000000000000000e+00  -4.1513244208247822e-10 -6.2740441550091188e-10 0.0000000000000000e+00  -2.3769489733509036e-10 -6.2664804881447720e-10 0.0000000000000000e+00  -1.1792689903810165e-10 -5.2323110084193441e-10 0.0000000000000000e+00  -1.4694135999196789e-10 9.4779636525685903e-10 0.0000000000000000e+00  -2.5266394324263776e-10 8.5940940713345573e-10 0.0000000000000000e+00  -4.3396171912421160e-10 8.3055110683870892e-10 0.0000000000000000e+00  -6.2275916775169420e-10 7.8470310345386560e-10 0.0000000000000000e+00  -7.9912995523416430e-10 7.1683339526060121e-10 0.0000000000000000e+00  -9.5631957280329918e-10 6.2804938947135848e-10 0.0000000000000000e+00  -1.0901647289075538e-09 5.2113356254109892e-10 0.0000000000000000e+00  -1.1972573566807755e-09 3.9946874275381225e-10 0.0000000000000000e+00  -1.2748196456913324e-09 2.6672376214222070e-10 0.0000000000000000e+00  -1.3208218771668333e-09 1.2673825850806525e-10 0.0000000000000000e+00  -1.3340742680089206e-09 -1.6546207833750803e-11 0.0000000000000000e+00  -1.3142742313709283e-09 -1.5914812739235624e-10 0.0000000000000000e+00  -1.2620204205194094e-09 -2.9710794693377939e-10 0.0000000000000000e+00  -1.1788003927846038e-09 -4.2654799130657446e-10 0.0000000000000000e+00  -1.0669533894384241e-09 -5.4372701138605316e-10 0.0000000000000000e+00  -9.2961080198108072e-10 -6.4508967394787557e-10 0.0000000000000000e+00  -7.7064946574211400e-10 -7.2732731542520779e-10 0.0000000000000000e+00  -5.9488578901600110e-10 -7.8750907847671727e-10 0.0000000000000000e+00  -4.0966590063062573e-10 -8.2328312378150882e-10 0.0000000000000000e+00  -2.3485479320390192e-10 -8.3245762747057787e-10 0.0000000000000000e+00  -1.2344058945806761e-10 -7.3635889141177174e-10 0.0000000000000000e+00  -1.5962878442203315e-10 1.1604612374107010e-09 0.0000000000000000e+00  -2.5548168064951826e-10 1.0689877931906355e-09 0.0000000000000000e+00  -4.3484318384734785e-10 1.0305023857036818e-09 0.0000000000000000e+00  -6.2357628541189430e-10 9.7031103862935099e-10 0.0000000000000000e+00  -8.0007467718668064e-10 8.8445004079363136e-10 0.0000000000000000e+00  -9.5702111871727541e-10 7.7410540430325453e-10 0.0000000000000000e+00  -1.0902183285994399e-09 6.4221395142865798e-10 0.0000000000000000e+00  -1.1964348405657200e-09 4.9258067816224063e-10 0.0000000000000000e+00  -1.2730936546735646e-09 3.2950957987097634e-10 0.0000000000000000e+00  -1.3183235454229226e-09 1.5760723191321928e-10 0.0000000000000000e+00  -1.3310387779623395e-09 -1.8346084593255920e-11 0.0000000000000000e+00  -1.3109887010187040e-09 -1.9349934916556114e-10 0.0000000000000000e+00  -1.2587744272141823e-09 -3.6302417501802431e-10 0.0000000000000000e+00  -1.1758359825774415e-09 -5.2220531422472954e-10 0.0000000000000000e+00  -1.0644113450553774e-09 -6.6653330565048533e-10 0.0000000000000000e+00  -9.2747480297864573e-10 -7.9180910340454233e-10 0.0000000000000000e+00  -7.6871161580609504e-10 -8.9428375099726641e-10 0.0000000000000000e+00  -5.9282924858487303e-10 -9.7087072347831979e-10 0.0000000000000000e+00  -4.0754455027114182e-10 -1.0193091931088572e-09 0.0000000000000000e+00  -2.3460069727596160e-10 -1.0373986247844708e-09 0.0000000000000000e+00  -1.3230925232583501e-10 -9.4635546944835667e-10 0.0000000000000000e+00  -1.7528870394416311e-10 1.3735163842302226e-09 0.0000000000000000e+00  -2.6116210401359211e-10 1.2788119389707152e-09 0.0000000000000000e+00  -4.3979342630497926e-10 1.2316122800988595e-09 0.0000000000000000e+00  -6.2991378745728834e-10 1.1574586331764291e-09 0.0000000000000000e+00  -8.0814692251215639e-10 1.0533207639715246e-09 0.0000000000000000e+00  -9.6656840770825832e-10 9.2092398388377708e-10 0.0000000000000000e+00  -1.1007759724461371e-09 7.6362254473734602e-10 0.0000000000000000e+00  -1.2075377446036443e-09 5.8572538641046167e-10 0.0000000000000000e+00  -1.2843608446051381e-09 3.9216829239812577e-10 0.0000000000000000e+00  -1.3294712565302180e-09 1.8829123067198269e-10 0.0000000000000000e+00  -1.3418603492862948e-09 -2.0328317005458103e-11 0.0000000000000000e+00  -1.3213215347165354e-09 -2.2801248116187620e-10 0.0000000000000000e+00  -1.2684633006652331e-09 -4.2910649129785347e-10 0.0000000000000000e+00  -1.1846975054032222e-09 -6.1809924088782938e-10 0.0000000000000000e+00  -1.0722046551708933e-09 -7.8975040684852092e-10 0.0000000000000000e+00  -9.3389006587288415e-10 -9.3923574522137744e-10 0.0000000000000000e+00  -7.7340732861181342e-10 -1.0623259024548127e-09 0.0000000000000000e+00  -5.9559808515913543e-10 -1.1556057972889757e-09 0.0000000000000000e+00  -4.0880995644699854e-10 -1.2165552023315036e-09 0.0000000000000000e+00  -2.3685719786429228e-10 -1.2426426134256411e-09 0.0000000000000000e+00  -1.4408728033564802e-10 -1.1544255703013295e-09 0.0000000000000000e+00  -1.9382836670524565e-10 1.5887700653834049e-09 0.0000000000000000e+00  -2.6916539257041138e-10 1.4906512969150221e-09 0.0000000000000000e+00  -4.4791065719399889e-10 1.4351540787488034e-09 0.0000000000000000e+00  -6.4042064944947144e-10 1.3472617773552036e-09 0.0000000000000000e+00  -8.2136620059134124e-10 1.2246617484691862e-09 0.0000000000000000e+00  -9.8222558720719364e-10 1.0697593367841186e-09 0.0000000000000000e+00  -1.1183571496338931e-09 8.8650841561655700e-10 0.0000000000000000e+00  -1.2264548959915228e-09 6.7983217547251430e-10 0.0000000000000000e+00  -1.3040414225263569e-09 4.5533999157551076e-10 0.0000000000000000e+00  -1.3493945094852530e-09 2.1910591011687830e-10 0.0000000000000000e+00  -1.3615584471345396e-09 -2.2515617820405887e-11 0.0000000000000000e+00  -1.3403614921971802e-09 -2.6304877438168850e-10 0.0000000000000000e+00  -1.2864219715951780e-09 -4.9604198953948751e-10 0.0000000000000000e+00  -1.2011395609265676e-09 -7.1521154618512690e-10 0.0000000000000000e+00  -1.0866735106243053e-09 -9.1459393596064723e-10 0.0000000000000000e+00  -9.4592544095942716e-10 -1.0887167905424372e-09 0.0000000000000000e+00  -7.8261438299030560e-10 -1.2327948157921109e-09 0.0000000000000000e+00  -6.0182681821615841e-10 -1.3429402479157687e-09 0.0000000000000000e+00  -4.1262998638161490e-10 -1.4161959850639917e-09 0.0000000000000000e+00  -2.4108351321203510e-10 -1.4496164884808448e-09 0.0000000000000000e+00  -1.5859785017337878e-10 -1.3625834601308192e-09 0.0000000000000000e+00  -2.1522793519846345e-10 1.8072671749884410e-09 0.0000000000000000e+00  -2.7879038364102578e-10 1.7056900284736587e-09 0.0000000000000000e+00  -4.5789039452283121e-10 1.6420457403664224e-09 0.0000000000000000e+00  -6.5321138698613844e-10 1.5404258092659121e-09 0.0000000000000000e+00  -8.3722536234024401e-10 1.3991176119661427e-09 0.0000000000000000e+00  -1.0008175325085752e-09 1.2212390974527833e-09 0.0000000000000000e+00  -1.1391269042212832e-09 1.0114497788596020e-09 0.0000000000000000e+00  -1.2487698073474739e-09 7.7537954707500821e-10 0.0000000000000000e+00  -1.3272692603393429e-09 5.1936422101382372e-10 0.0000000000000000e+00  -1.3729411154128083e-09 2.5022841385661470e-10 0.0000000000000000e+00  -1.3848737732113687e-09 -2.4904504205586728e-11 0.0000000000000000e+00  -1.3629253828849252e-09 -2.9878096862491026e-10 0.0000000000000000e+00  -1.3077224268536884e-09 -5.6417360010629275e-10 0.0000000000000000e+00  -1.2206560888359819e-09 -8.1403718170616100e-10 0.0000000000000000e+00  -1.1038776898183341e-09 -1.0416756941803482e-09 0.0000000000000000e+00  -9.6031131696228658e-10 -1.2409287149044564e-09 0.0000000000000000e+00  -7.9377713081000706e-10 -1.4063783988273283e-09 0.0000000000000000e+00  -6.0963995884845127e-10 -1.5335602279314498e-09 0.0000000000000000e+00  -4.1772588656727910e-10 -1.6189901360019148e-09 0.0000000000000000e+00  -2.4655689109187347e-10 -1.6592962341034981e-09 0.0000000000000000e+00  -1.7577575617001187e-10 -1.5723650838391599e-09 0.0000000000000000e+00  -2.3951062163510286e-10 2.0291867056293349e-09 0.0000000000000000e+00  -2.8921553405325252e-10 1.9243672192867975e-09 0.0000000000000000e+00  -4.6813446284767993e-10 1.8525551198166503e-09 0.0000000000000000e+00  -6.6595062031698143e-10 1.7370482152402868e-09 0.0000000000000000e+00  -8.5267013673128364e-10 1.5766902264899836e-09 0.0000000000000000e+00  -1.0185813448769510e-09 1.3753354940389150e-09 0.0000000000000000e+00  -1.1586504899348079e-09 1.1384185196310333e-09 0.0000000000000000e+00  -1.2694595147069724e-09 8.7234708392599772e-10 0.0000000000000000e+00  -1.3485636944916623e-09 5.8422984288824128e-10 0.0000000000000000e+00  -1.3943387483197068e-09 2.8165745201191010e-10 0.0000000000000000e+00  -1.4059294294633141e-09 -2.7487191343161542e-11 0.0000000000000000e+00  -1.3832258069740380e-09 -3.3519551451964243e-10 0.0000000000000000e+00  -1.3268547765213867e-09 -6.3348713301258257e-10 0.0000000000000000e+00  -1.2381843183783496e-09 -9.1456533377883727e-10 0.0000000000000000e+00  -1.1193406332001574e-09 -1.1709881220461822e-09 0.0000000000000000e+00  -9.7325440581538337e-10 -1.3958639598402543e-09 0.0000000000000000e+00  -8.0383311554454595e-10 -1.5830721155502645e-09 0.0000000000000000e+00  -6.1670976662784328e-10 -1.7274900438933331e-09 0.0000000000000000e+00  -4.2249577785355710e-10 -1.8250483171509157e-09 0.0000000000000000e+00  -2.5242175736693493e-10 -1.8719490979062525e-09 0.0000000000000000e+00  -1.9561030827364311e-10 -1.7845280703153929e-09 0.0000000000000000e+00  -2.6672677951650709e-10 2.2537180852676029e-09 0.0000000000000000e+00  -2.9948350857667239e-10 2.1462324626706735e-09 0.0000000000000000e+00  -4.7674226505179651e-10 2.0661189775946807e-09 0.0000000000000000e+00  -6.7582806624653502e-10 1.9364435467734421e-09 0.0000000000000000e+00  -8.6401883954709440e-10 1.7566229176056890e-09 0.0000000000000000e+00  -1.0310064884118693e-09 1.5312931818761744e-09 0.0000000000000000e+00  -1.1716552496562965e-09 1.2667281407016911e-09 0.0000000000000000e+00  -1.2825957171612384e-09 9.7017266855049323e-10 0.0000000000000000e+00  -1.3614908800192324e-09 6.4954224178024298e-10 0.0000000000000000e+00  -1.4068349433233293e-09 3.1319542553028916e-10 0.0000000000000000e+00  -1.4178649059071127e-09 -3.0250702303294183e-11 0.0000000000000000e+00  -1.3945125701190402e-09 -3.7207258563726276e-10 0.0000000000000000e+00  -1.3373890871884484e-09 -7.0357559160052538e-10 0.0000000000000000e+00  -1.2478011440735273e-09 -1.0162333975754612e-09 0.0000000000000000e+00  -1.1277969532695619e-09 -1.3018512450865196e-09 0.0000000000000000e+00  -9.8025456168719724e-10 -1.5527663601802525e-09 0.0000000000000000e+00  -8.0911162029390801e-10 -1.7620872931266403e-09 0.0000000000000000e+00  -6.2022741836053053e-10 -1.9239557908538188e-09 0.0000000000000000e+00  -4.2501768404275146e-10 -2.0336589982941665e-09 0.0000000000000000e+00  -2.5767940440984367e-10 -2.0869661920089277e-09 0.0000000000000000e+00  -2.1812385987295369e-10 -1.9989249808008922e-09 0.0000000000000000e+00  -2.9694531587200244e-10 2.4788965666821095e-09 0.0000000000000000e+00  -3.0846502590140005e-10 2.3697817212002220e-09 0.0000000000000000e+00  -4.8144995974184784e-10 2.2811592111970379e-09 0.0000000000000000e+00  -6.7946742148041643e-10 2.1369547558420479e-09 0.0000000000000000e+00  -8.6682396815219309e-10 1.9372333181163694e-09 0.0000000000000000e+00  -1.0326337801504222e-09 1.6874931163612922e-09 0.0000000000000000e+00  -1.1717628009017869e-09 1.3949256736396024e-09 0.0000000000000000e+00  -1.2810179461251720e-09 1.0676699573437478e-09 0.0000000000000000e+00  -1.3582929687587194e-09 7.1446781471434434e-10 0.0000000000000000e+00  -1.4023000028806273e-09 3.4442325360998198e-10 0.0000000000000000e+00  -1.4124307213951554e-09 -3.3169422164794692e-11 0.0000000000000000e+00  -1.3886764803319726e-09 -4.0894657975848832e-10 0.0000000000000000e+00  -1.3316049621842006e-09 -7.7357122461186941e-10 0.0000000000000000e+00  -1.2423941633619904e-09 -1.1178358170590372e-09 0.0000000000000000e+00  -1.1229188993662520e-09 -1.4328025377815004e-09 0.0000000000000000e+00  -9.7589662725591103e-10 -1.7100026585558847e-09 0.0000000000000000e+00  -8.0519235090782505e-10 -1.9417014826371188e-09 0.0000000000000000e+00  -6.1681709081167750e-10 -2.1212141973693539e-09 0.0000000000000000e+00  -4.2299773295678544e-10 -2.2431067977633726e-09 0.0000000000000000e+00  -2.6115477387214202e-10 -2.3026924043437843e-09 0.0000000000000000e+00  -2.4336106880214795e-10 -2.2143727541026824e-09 0.0000000000000000e+00  -3.3025034041055376e-10 2.7013888997420954e-09 0.0000000000000000e+00  -3.1481243211402057e-10 2.5922547528415249e-09 0.0000000000000000e+00  -4.7954163548737267e-10 2.4948655203281988e-09 0.0000000000000000e+00  -6.7279167055140760e-10 2.3357272243552691e-09 0.0000000000000000e+00  -8.5568312937978718e-10 2.1156935751423649e-09 0.0000000000000000e+00  -1.0168031505608632e-09 1.8412531725869185e-09 0.0000000000000000e+00  -1.1511708932851320e-09 1.5206218794567859e-09 0.0000000000000000e+00  -1.2559553800093978e-09 1.1628951994277251e-09 0.0000000000000000e+00  -1.3294631307699130e-09 7.7764393249833448e-10 0.0000000000000000e+00  -1.3707731129830286e-09 3.7465884241101138e-10 0.0000000000000000e+00  -1.3795256295344521e-09 -3.6195443687701568e-11 0.0000000000000000e+00  -1.3557979111823238e-09 -4.4504637148010559e-10 0.0000000000000000e+00  -1.3000706220016622e-09 -8.4204059816234662e-10 0.0000000000000000e+00  -1.2132879952936244e-09 -1.2173816306096995e-09 0.0000000000000000e+00  -1.0970025605721555e-09 -1.5614254732847939e-09 0.0000000000000000e+00  -9.5360304442942851e-10 -1.8648697101357744e-09 0.0000000000000000e+00  -7.8672301120602987e-10 -2.1190507626068367e-09 0.0000000000000000e+00  -6.0240935383532547e-10 -2.3163369848159928e-09 0.0000000000000000e+00  -4.1368735008573466e-10 -2.4504582249267305e-09 0.0000000000000000e+00  -2.6145055812291018e-10 -2.5162234173714108e-09 0.0000000000000000e+00  -2.7138239950784138e-10 -2.4284818905503624e-09 0.0000000000000000e+00  -3.6674335017368389e-10 2.9162214598161256e-09 0.0000000000000000e+00  -3.1690593656957726e-10 2.8093816934201267e-09 0.0000000000000000e+00  -4.6773996818325635e-10 2.7029282451040778e-09 0.0000000000000000e+00  -6.5085302791058865e-10 2.5284290290537423e-09 0.0000000000000000e+00  -8.2400143859802869e-10 2.2877489856872581e-09 0.0000000000000000e+00  -9.7534