<?xml version="1.0"?>
<VTKFile type="UnstructuredGrid"  version="0.1"  >
<UnstructuredGrid>
<Piece  NumberOfPoints="651" NumberOfCells="1200">
<Points>
<DataArray  type="Float64"  NumberOfComponents="3"  format="ascii">0 0 0  50000 0 0  100000 0 0  150000 0 0  200000 0 0  250000 0 0  300000 0 0  350000 0 0  400000 0 0  450000 0 0  500000 0 0  550000 0 0  600000 0 0  650000 0 0  700000 0 0  750000 0 0  800000 0 0  850000 0 0  900000 0 0  950000 0 0  1000000 0 0  0 50000 0  50000 50000 0  100000 50000 0  150000 50000 0  200000 50000 0  250000 50000 0  300000 50000 0  350000 50000 0  400000 50000 0  450000 50000 0  500000 50000 0  550000 50000 0  600000 50000 0  650000 50000 0  700000 50000 0  750000 50000 0  800000 50000 0  850000 50000 0  900000 50000 0  950000 50000 0  1000000 50000 0  0 100000 0  50000 100000 0  100000 100000 0  150000 100000 0  200000 100000 0  250000 100000 0  300000 100000 0  350000 100000 0  400000 100000 0  450000 100000 0  500000 100000 0  550000 100000 0  600000 100000 0  650000 100000 0  700000 100000 0  750000 100000 0  800000 100000 0  850000 100000 0  900000 100000 0  950000 100000 0  1000000 100000 0  0 150000 0  50000 150000 0  100000 150000 0  150000 150000 0  200000 150000 0  250000 150000 0  300000 150000 0  350000 150000 0  400000 150000 0  450000 150000 0  500000 150000 0  550000 150000 0  600000 150000 0  650000 150000 0  700000 150000 0  750000 150000 0  800000 150000 0  850000 150000 0  900000 150000 0  950000 150000 0  1000000 150000 0  0 200000 0  50000 200000 0  100000 200000 0  150000 200000 0  200000 200000 0  250000 200000 0  300000 200000 0  350000 200000 0  400000 200000 0  450000 200000 0  500000 200000 0  550000 200000 0  600000 200000 0  650000 200000 0  700000 200000 0  750000 200000 0  800000 200000 0  850000 200000 0  900000 200000 0  950000 200000 0  1000000 200000 0  0 250000 0  50000 250000 0  100000 250000 0  150000 250000 0  200000 250000 0  250000 250000 0  300000 250000 0  350000 250000 0  400000 250000 0  450000 250000 0  500000 250000 0  550000 250000 0  600000 250000 0  650000 250000 0  700000 250000 0  750000 250000 0  800000 250000 0  850000 250000 0  900000 250000 0  950000 250000 0  1000000 250000 0  0 300000 0  50000 300000 0  100000 300000 0  150000 300000 0  200000 300000 0  250000 300000 0  300000 300000 0  350000 300000 0  400000 300000 0  450000 300000 0  500000 300000 0  550000 300000 0  600000 300000 0  650000 300000 0  700000 300000 0  750000 300000 0  800000 300000 0  850000 300000 0  900000 300000 0  950000 300000 0  1000000 300000 0  0 350000 0  50000 350000 0  100000 350000 0  150000 350000 0  200000 350000 0  250000 350000 0  300000 350000 0  350000 350000 0  400000 350000 0  450000 350000 0  500000 350000 0  550000 350000 0  600000 350000 0  650000 350000 0  700000 350000 0  750000 350000 0  800000 350000 0  850000 350000 0  900000 350000 0  950000 350000 0  1000000 350000 0  0 400000 0  50000 400000 0  100000 400000 0  150000 400000 0  200000 400000 0  250000 400000 0  300000 400000 0  350000 400000 0  400000 400000 0  450000 400000 0  500000 400000 0  550000 400000 0  600000 400000 0  650000 400000 0  700000 400000 0  750000 400000 0  800000 400000 0  850000 400000 0  900000 400000 0  950000 400000 0  1000000 400000 0  0 450000 0  50000 450000 0  100000 450000 0  150000 450000 0  200000 450000 0  250000 450000 0  300000 450000 0  350000 450000 0  400000 450000 0  450000 450000 0  500000 450000 0  550000 450000 0  600000 450000 0  650000 450000 0  700000 450000 0  750000 450000 0  800000 450000 0  850000 450000 0  900000 450000 0  950000 450000 0  1000000 450000 0  0 500000 0  50000 500000 0  100000 500000 0  150000 500000 0  200000 500000 0  250000 500000 0  300000 500000 0  350000 500000 0  400000 500000 0  450000 500000 0  500000 500000 0  550000 500000 0  600000 500000 0  650000 500000 0  700000 500000 0  750000 500000 0  800000 500000 0  850000 500000 0  900000 500000 0  950000 500000 0  1000000 500000 0  0 550000 0  50000 550000 0  100000 550000 0  150000 550000 0  200000 550000 0  250000 550000 0  300000 550000 0  350000 550000 0  400000 550000 0  450000 550000 0  500000 550000 0  550000 550000 0  600000 550000 0  650000 550000 0  700000 550000 0  750000 550000 0  800000 550000 0  850000 550000 0  900000 550000 0  950000 550000 0  1000000 550000 0  0 600000 0  50000 600000 0  100000 600000 0  150000 600000 0  200000 600000 0  250000 600000 0  300000 600000 0  350000 600000 0  400000 600000 0  450000 600000 0  500000 600000 0  550000 600000 0  600000 600000 0  650000 600000 0  700000 600000 0  750000 600000 0  800000 600000 0  850000 600000 0  900000 600000 0  950000 600000 0  1000000 600000 0  0 650000 0  50000 650000 0  100000 650000 0  150000 650000 0  200000 650000 0  250000 650000 0  300000 650000 0  350000 650000 0  400000 650000 0  450000 650000 0  500000 650000 0  550000 650000 0  600000 650000 0  650000 650000 0  700000 650000 0  750000 650000 0  800000 650000 0  850000 650000 0  900000 650000 0  950000 650000 0  1000000 650000 0  0 700000 0  50000 700000 0  100000 700000 0  150000 700000 0  200000 700000 0  250000 700000 0  300000 700000 0  350000 700000 0  400000 700000 0  450000 700000 0  500000 700000 0  550000 700000 0  600000 700000 0  650000 700000 0  700000 700000 0  750000 700000 0  800000 700000 0  850000 700000 0  900000 700000 0  950000 700000 0  1000000 700000 0  0 750000 0  50000 750000 0  100000 750000 0  150000 750000 0  200000 750000 0  250000 750000 0  300000 750000 0  350000 750000 0  400000 750000 0  450000 750000 0  500000 750000 0  550000 750000 0  600000 750000 0  650000 750000 0  700000 750000 0  750000 750000 0  800000 750000 0  850000 750000 0  900000 750000 0  950000 750000 0  1000000 750000 0  0 800000 0  50000 800000 0  100000 800000 0  150000 800000 0  200000 800000 0  250000 800000 0  300000 800000 0  350000 800000 0  400000 800000 0  450000 800000 0  500000 800000 0  550000 800000 0  600000 800000 0  650000 800000 0  700000 800000 0  750000 800000 0  800000 800000 0  850000 800000 0  900000 800000 0  950000 800000 0  1000000 800000 0  0 850000 0  50000 850000 0  100000 850000 0  150000 850000 0  200000 850000 0  250000 850000 0  300000 850000 0  350000 850000 0  400000 850000 0  450000 850000 0  500000 850000 0  550000 850000 0  600000 850000 0  650000 850000 0  700000 850000 0  750000 850000 0  800000 850000 0  850000 850000 0  900000 850000 0  950000 850000 0  1000000 850000 0  0 900000 0  50000 900000 0  100000 900000 0  150000 900000 0  200000 900000 0  250000 900000 0  300000 900000 0  350000 900000 0  400000 900000 0  450000 900000 0  500000 900000 0  550000 900000 0  600000 900000 0  650000 900000 0  700000 900000 0  750000 900000 0  800000 900000 0  850000 900000 0  900000 900000 0  950000 900000 0  1000000 900000 0  0 950000 0  50000 950000 0  100000 950000 0  150000 950000 0  200000 950000 0  250000 950000 0  300000 950000 0  350000 950000 0  400000 950000 0  450000 950000 0  500000 950000 0  550000 950000 0  600000 950000 0  650000 950000 0  700000 950000 0  750000 950000 0  800000 950000 0  850000 950000 0  900000 950000 0  950000 950000 0  1000000 950000 0  0 1000000 0  50000 1000000 0  100000 1000000 0  150000 1000000 0  200000 1000000 0  250000 1000000 0  300000 1000000 0  350000 1000000 0  400000 1000000 0  450000 1000000 0  500000 1000000 0  550000 1000000 0  600000 1000000 0  650000 1000000 0  700000 1000000 0  750000 1000000 0  800000 1000000 0  850000 1000000 0  900000 1000000 0  950000 1000000 0  1000000 1000000 0  0 1050000 0  50000 1050000 0  100000 1050000 0  150000 1050000 0  200000 1050000 0  250000 1050000 0  300000 1050000 0  350000 1050000 0  400000 1050000 0  450000 1050000 0  500000 1050000 0  550000 1050000 0  600000 1050000 0  650000 1050000 0  700000 1050000 0  750000 1050000 0  800000 1050000 0  850000 1050000 0  900000 1050000 0  950000 1050000 0  1000000 1050000 0  0 1100000 0  50000 1100000 0  100000 1100000 0  150000 1100000 0  200000 1100000 0  250000 1100000 0  300000 1100000 0  350000 1100000 0  400000 1100000 0  450000 1100000 0  500000 1100000 0  550000 1100000 0  600000 1100000 0  650000 1100000 0  700000 1100000 0  750000 1100000 0  800000 1100000 0  850000 1100000 0  900000 1100000 0  950000 1100000 0  1000000 1100000 0  0 1150000 0  50000 1150000 0  100000 1150000 0  150000 1150000 0  200000 1150000 0  250000 1150000 0  300000 1150000 0  350000 1150000 0  400000 1150000 0  450000 1150000 0  500000 1150000 0  550000 1150000 0  600000 1150000 0  650000 1150000 0  700000 1150000 0  750000 1150000 0  800000 1150000 0  850000 1150000 0  900000 1150000 0  950000 1150000 0  1000000 1150000 0  0 1200000 0  50000 1200000 0  100000 1200000 0  150000 1200000 0  200000 1200000 0  250000 1200000 0  300000 1200000 0  350000 1200000 0  400000 1200000 0  450000 1200000 0  500000 1200000 0  550000 1200000 0  600000 1200000 0  650000 1200000 0  700000 1200000 0  750000 1200000 0  800000 1200000 0  850000 1200000 0  900000 1200000 0  950000 1200000 0  1000000 1200000 0  0 1250000 0  50000 1250000 0  100000 1250000 0  150000 1250000 0  200000 1250000 0  250000 1250000 0  300000 1250000 0  350000 1250000 0  400000 1250000 0  450000 1250000 0  500000 1250000 0  550000 1250000 0  600000 1250000 0  650000 1250000 0  700000 1250000 0  750000 1250000 0  800000 1250000 0  850000 1250000 0  900000 1250000 0  950000 1250000 0  1000000 1250000 0  0 1300000 0  50000 1300000 0  100000 1300000 0  150000 1300000 0  200000 1300000 0  250000 1300000 0  300000 1300000 0  350000 1300000 0  400000 1300000 0  450000 1300000 0  500000 1300000 0  550000 1300000 0  600000 1300000 0  650000 1300000 0  700000 1300000 0  750000 1300000 0  800000 1300000 0  850000 1300000 0  900000 1300000 0  950000 1300000 0  1000000 1300000 0  0 1350000 0  50000 1350000 0  100000 1350000 0  150000 1350000 0  200000 1350000 0  250000 1350000 0  300000 1350000 0  350000 1350000 0  400000 1350000 0  450000 1350000 0  500000 1350000 0  550000 1350000 0  600000 1350000 0  650000 1350000 0  700000 135
[...]
<PointData  Vectors="f_2995"> 
<DataArray  type="Float64"  Name="f_2995"  NumberOfComponents="3" format="ascii">-1.6139811353725233e-10 1.4587422041729090e-10 0.0000000000000000e+00  -2.9817697913506122e-10 1.1897034172535441e-10 0.0000000000000000e+00  -5.4196634436391010e-10 1.0679946378997075e-10 0.0000000000000000e+00  -7.7801157918798325e-10 9.5953833244473732e-11 0.0000000000000000e+00  -9.9410352501734701e-10 8.3651619172051242e-11 0.0000000000000000e+00  -1.1838714482283779e-09 6.9559603934650619e-11 0.0000000000000000e+00  -1.3422629784012854e-09 5.3806154328114421e-11 0.0000000000000000e+00  -1.4652562352001960e-09 3.6684690987976771e-11 0.0000000000000000e+00  -1.5498024419755744e-09 1.8574565362761779e-11 0.0000000000000000e+00  -1.5938505147666329e-09 -9.7405772386908407e-14 0.0000000000000000e+00  -1.5963741502109346e-09 -1.8879814959042207e-11 0.0000000000000000e+00  -1.5573840682875430e-09 -3.7313043668912169e-11 0.0000000000000000e+00  -1.4779216923996140e-09 -5.4943143484998177e-11 0.0000000000000000e+00  -1.3600338412535540e-09 -7.1335441179783836e-11 0.0000000000000000e+00  -1.2067337491053394e-09 -8.6090992521414786e-11 0.0000000000000000e+00  -1.0219826725022591e-09 -9.8875399676940404e-11 0.0000000000000000e+00  -8.1087399980053785e-10 -1.0949060004970240e-10 0.0000000000000000e+00  -5.8085126543944122e-10 -1.1806491704053401e-10 0.0000000000000000e+00  -3.4726941000395515e-10 -1.2488147429341156e-10 0.0000000000000000e+00  -1.5666432758039293e-10 -1.2047507262334695e-10 0.0000000000000000e+00  -7.6357114771591164e-11 -7.7647579479020270e-11 0.0000000000000000e+00  -1.3762490196584870e-10 2.7044714419140312e-10 0.0000000000000000e+00  -2.4655620714554715e-10 2.4176879339556475e-10 0.0000000000000000e+00  -4.3758834392468325e-10 2.4865645308323431e-10 0.0000000000000000e+00  -6.4858304031668087e-10 2.3693563946635785e-10 0.0000000000000000e+00  -8.5002486984204708e-10 2.1564734802314412e-10 0.0000000000000000e+00  -1.0318012748116277e-09 1.8757073876619280e-10 0.0000000000000000e+00  -1.1879189161127316e-09 1.5416436915827429e-10 0.0000000000000000e+00  -1.3138242743396098e-09 1.1658025394748021e-10 0.0000000000000000e+00  -1.4060314128603997e-09 7.5918861638875392e-11 0.0000000000000000e+00  -1.4620634933228150e-09 3.3291068662412889e-11 0.0000000000000000e+00  -1.4804535687604669e-09 -1.0175640059452667e-11 0.0000000000000000e+00  -1.4607518290164703e-09 -5.3349281539743396e-11 0.0000000000000000e+00  -1.4035228183193391e-09 -9.5111574870642077e-11 0.0000000000000000e+00  -1.3103284764140734e-09 -1.3437713761972568e-10 0.0000000000000000e+00  -1.1837013866754382e-09 -1.7010975558512067e-10 0.0000000000000000e+00  -1.0271315086503265e-09 -2.0132819982034367e-10 0.0000000000000000e+00  -8.4516030311903949e-10 -2.2707206938075669e-10 0.0000000000000000e+00  -6.4397792232991242e-10 -2.4615957509866928e-10 0.0000000000000000e+00  -4.3415355422551246e-10 -2.5573265040795733e-10 0.0000000000000000e+00  -2.4172284850327024e-10 -2.4468866312223250e-10 0.0000000000000000e+00  -1.2190639369894112e-10 -1.5373945014966433e-10 0.0000000000000000e+00  -1.3565097923520976e-10 4.9057514668558539e-10 0.0000000000000000e+00  -2.5050663784470618e-10 4.2823299762047756e-10 0.0000000000000000e+00  -4.3059435996863020e-10 4.3198904586786679e-10 0.0000000000000000e+00  -6.2280568215533130e-10 4.1422924521110329e-10 0.0000000000000000e+00  -8.0701705912706379e-10 3.7998539753552929e-10 0.0000000000000000e+00  -9.7439733906306742e-10 3.3309842570684748e-10 0.0000000000000000e+00  -1.1189194030603004e-09 2.7623322785918487e-10 0.0000000000000000e+00  -1.2360344071180704e-09 2.1155465172140514e-10 0.0000000000000000e+00  -1.3222620113204661e-09 1.4109229686336096e-10 0.0000000000000000e+00  -1.3751156914725729e-09 6.6866901345506891e-11 0.0000000000000000e+00  -1.3931003355697103e-09 -9.0832242022002610e-12 0.0000000000000000e+00  -1.3757173079193813e-09 -8.4715363683789019e-11 0.0000000000000000e+00  -1.3234606049673342e-09 -1.5801012559752823e-10 0.0000000000000000e+00  -1.2377997101839835e-09 -2.2700099120060766e-10 0.0000000000000000e+00  -1.1211528461296958e-09 -2.8979424942422491e-10 0.0000000000000000e+00  -9.7687011346021275e-10 -3.4455884915223303e-10 0.0000000000000000e+00  -8.0929697485501091e-10 -3.8943394264896949e-10 0.0000000000000000e+00  -6.2417498884260902e-10 -4.2221300825768570e-10 0.0000000000000000e+00  -4.3033556466454024e-10 -4.3944403701698797e-10 0.0000000000000000e+00  -2.4805240699720779e-10 -4.3456718172975629e-10 0.0000000000000000e+00  -1.2856516792328355e-10 -3.3266562100858290e-10 0.0000000000000000e+00  -1.4100259250620328e-10 7.0565815837476111e-10 0.0000000000000000e+00  -2.4796087291685700e-10 6.3246082889477067e-10 0.0000000000000000e+00  -4.2330316334243253e-10 6.2452777862309857e-10 0.0000000000000000e+00  -6.0788671514189632e-10 5.9662047085918876e-10 0.0000000000000000e+00  -7.8288117228256936e-10 5.4812083608984402e-10 0.0000000000000000e+00  -9.4125078769551869e-10 4.8198259071127491e-10 0.0000000000000000e+00  -1.0779632215009090e-09 4.0131167596064295e-10 0.0000000000000000e+00  -1.1888527224267283e-09 3.0906534279274721e-10 0.0000000000000000e+00  -1.2706008355957723e-09 2.0816349583914006e-10 0.0000000000000000e+00  -1.3207897858109120e-09 1.0155743572305509e-10 0.0000000000000000e+00  -1.3379423568603243e-09 -7.7622549595830219e-12 0.0000000000000000e+00  -1.3215426833461980e-09 -1.1679384816515813e-10 0.0000000000000000e+00  -1.2720363819868220e-09 -2.2256888039634291e-10 0.0000000000000000e+00  -1.1908097306125105e-09 -3.2219951965778490e-10 0.0000000000000000e+00  -1.0801491169350777e-09 -4.1291718265120336e-10 0.0000000000000000e+00  -9.4318844689711550e-10 -4.9208790345419349e-10 0.0000000000000000e+00  -7.8388250542832620e-10 -5.5718696270151607e-10 0.0000000000000000e+00  -6.0719782495508002e-10 -6.0573517336839206e-10 0.0000000000000000e+00  -4.2050666007219667e-10 -6.3522176362069267e-10 0.0000000000000000e+00  -2.4265513357708402e-10 -6.4234829796109402e-10 0.0000000000000000e+00  -1.2924386966679922e-10 -5.4981253387220449e-10 0.0000000000000000e+00  -1.5031086669695340e-10 9.1419023498853469e-10 0.0000000000000000e+00  -2.4671591050877758e-10 8.3562224988072185e-10 0.0000000000000000e+00  -4.1845862596171631e-10 8.1673137780608393e-10 0.0000000000000000e+00  -5.9992501552427011e-10 7.7667361949627633e-10 0.0000000000000000e+00  -7.7106034555441089e-10 7.1299104887573102e-10 0.0000000000000000e+00  -9.2515052002655167e-10 6.2761891415129891e-10 0.0000000000000000e+00  -1.0577533952650850e-09 5.2365589566788883e-10 0.0000000000000000e+00  -1.1651303936311616e-09 4.0457243162916665e-10 0.0000000000000000e+00  -1.2441981786643073e-09 2.7403946625287196e-10 0.0000000000000000e+00  -1.2926556484852795e-09 1.3587235504314837e-10 0.0000000000000000e+00  -1.3090741336600462e-09 -6.0198114839962685e-12 0.0000000000000000e+00  -1.2929416807174523e-09 -1.4769760462529147e-10 0.0000000000000000e+00  -1.2446712658910823e-09 -2.8526435081948199e-10 0.0000000000000000e+00  -1.1655773605882065e-09 -4.1494273389753352e-10 0.0000000000000000e+00  -1.0578215689845950e-09 -5.3314969039021525e-10 0.0000000000000000e+00  -9.2433146306903357e-10 -6.3656859378540030e-10 0.0000000000000000e+00  -7.6873350880166501e-10 -7.2223242627593338e-10 0.0000000000000000e+00  -5.9554864166614764e-10 -7.8766799690149042e-10 0.0000000000000000e+00  -4.1190578600446948e-10 -8.3106379267057603e-10 0.0000000000000000e+00  -2.3781234786781505e-10 -8.5006406934295286e-10 0.0000000000000000e+00  -1.3401041679681390e-10 -7.6802401007991565e-10 0.0000000000000000e+00  -1.6285892967412156e-10 1.1188121871049458e-09 0.0000000000000000e+00  -2.4827217966475461e-10 1.0365870353566335e-09 0.0000000000000000e+00  -4.1755520535913566e-10 1.0083703550727496e-09 0.0000000000000000e+00  -5.9838217564366462e-10 9.5576245496598581e-10 0.0000000000000000e+00  -7.6892545632372583e-10 8.7625486844630968e-10 0.0000000000000000e+00  -9.2206944412469341e-10 7.7136653972944358e-10 0.0000000000000000e+00  -1.0534776667278883e-09 6.4418973072221714e-10 0.0000000000000000e+00  -1.1596245634575478e-09 4.9858312389178127e-10 0.0000000000000000e+00  -1.2375982991047050e-09 3.3886292913277157e-10 0.0000000000000000e+00  -1.2852053532516266e-09 1.6963850499224304e-10 0.0000000000000000e+00  -1.3010729881100890e-09 -4.3081553318555306e-12 0.0000000000000000e+00  -1.2847069426748134e-09 -1.7813345477927241e-10 0.0000000000000000e+00  -1.2365066773840459e-09 -3.4704363211693273e-10 0.0000000000000000e+00  -1.1577428287335966e-09 -5.0640898457798831e-10 0.0000000000000000e+00  -1.0504991882065214e-09 -6.5188291629679822e-10 0.0000000000000000e+00  -9.1758884775023901e-10 -7.7953282296335815e-10 0.0000000000000000e+00  -7.6250767033437675e-10 -8.8600143116570759e-10 0.0000000000000000e+00  -5.8974561569054771e-10 -9.6872414244548418e-10 0.0000000000000000e+00  -4.0688586775133363e-10 -1.0260387312225554e-09 0.0000000000000000e+00  -2.3571264020134065e-10 -1.0554873895952893e-09 0.0000000000000000e+00  -1.4219527461710040e-10 -9.8155966946407800e-10 0.0000000000000000e+00  -1.7839364741340102e-10 1.3219484701222434e-09 0.0000000000000000e+00  -2.5261075850914544e-10 1.2369743351600705e-09 0.0000000000000000e+00  -4.2059964617843174e-10 1.2006865701823068e-09 0.0000000000000000e+00  -6.0249736175704232e-10 1.1358289552533112e-09 0.0000000000000000e+00  -7.7453864119935030e-10 1.0401999264408179e-09 0.0000000000000000e+00  -9.2895630141262402e-10 9.1540910902817777e-10 0.0000000000000000e+00  -1.0612336138891286e-09 7.6473151195733526e-10 0.0000000000000000e+00  -1.1678508632791439e-09 5.9243619034582256e-10 0.0000000000000000e+00  -1.2459567971239250e-09 4.0345443601267203e-10 0.0000000000000000e+00  -1.2934174830984031e-09 2.0315320576310984e-10 0.0000000000000000e+00  -1.3089023353607170e-09 -2.8434137400696423e-12 0.0000000000000000e+00  -1.2919400342559180e-09 -2.0881266696636267e-10 0.0000000000000000e+00  -1.2429362413563815e-09 -4.0908523316936721e-10 0.0000000000000000e+00  -1.1631549799958388e-09 -5.9819863324550027e-10 0.0000000000000000e+00  -1.0546674456021779e-09 -7.7105827651397181e-10 0.0000000000000000e+00  -9.2028480232904378e-10 -9.2311414798894672e-10 0.0000000000000000e+00  -7.6355735779179020e-10 -1.0505628909640554e-09 0.0000000000000000e+00  -5.8920738024768278e-10 -1.1505682107931243e-09 0.0000000000000000e+00  -4.0553697174448010e-10 -1.2212732706829176e-09 0.0000000000000000e+00  -2.3626011722521745e-10 -1.2598132619905039e-09 0.0000000000000000e+00  -1.5322664087291346e-10 -1.1915111269832215e-09 0.0000000000000000e+00  -1.9682099502044487e-10 1.5254077594583691e-09 0.0000000000000000e+00  -2.5925317580348643e-10 1.4384323793119427e-09 0.0000000000000000e+00  -4.2679883660840839e-10 1.3950658444483206e-09 0.0000000000000000e+00  -6.1095097299487619e-10 1.3183943834264957e-09 0.0000000000000000e+00  -7.8582246711662181e-10 1.2065463129223460e-09 0.0000000000000000e+00  -9.4290808323033709e-10 1.0614650063182701e-09 0.0000000000000000e+00  -1.0773785067085752e-09 8.8679840982903824e-10 0.0000000000000000e+00  -1.1855892613987600e-09 6.8731835864787516e-10 0.0000000000000000e+00  -1.2646569853782397e-09 4.6860212881284371e-10 0.0000000000000000e+00  -1.3124559372249777e-09 2.3677737702261286e-10 0.0000000000000000e+00  -1.3276766786973057e-09 -1.6965744137800121e-12 0.0000000000000000e+00  -1.3098703459069954e-09 -2.4022625081726597e-10 0.0000000000000000e+00  -1.2594645583227577e-09 -4.7227205035326671e-10 0.0000000000000000e+00  -1.1777503281128863e-09 -6.9153629176638297e-10 0.0000000000000000e+00  -1.0668440074766002e-09 -8.9215921113709721e-10 0.0000000000000000e+00  -9.2964448893909708e-10 -1.0689289077198577e-09 0.0000000000000000e+00  -7.6987865491951992e-10 -1.2175055627502849e-09 0.0000000000000000e+00  -5.9263357858680894e-10 -1.3346339636388013e-09 0.0000000000000000e+00  -4.0703142234637102e-10 -1.4181011899167064e-09 0.0000000000000000e+00  -2.3887189188780578e-10 -1.4645876356403060e-09 0.0000000000000000e+00  -1.6686793230181937e-10 -1.3998844501906772e-09 0.0000000000000000e+00  -2.1813240482747787e-10 1.7302106025653559e-09 0.0000000000000000e+00  -2.6753358983145003e-10 1.6421244824115462e-09 0.0000000000000000e+00  -4.3494362213536535e-10 1.5925193266711668e-09 0.0000000000000000e+00  -6.2196774490011014e-10 1.5044554258284092e-09 0.0000000000000000e+00  -8.0035413049313574e-10 1.3763536125734983e-09 0.0000000000000000e+00  -9.6080979958551681e-10 1.2106014523017020e-09 0.0000000000000000e+00  -1.0981410465765573e-09 1.0113618085328342e-09 0.0000000000000000e+00  -1.2085170403929037e-09 7.8401570861122338e-10 0.0000000000000000e+00  -1.2889708108930201e-09 5.3484955881614239e-10 0.0000000000000000e+00  -1.3373526285423600e-09 2.7078327421130017e-10 0.0000000000000000e+00  -1.3523596656490735e-09 -8.7517868630852667e-13 0.0000000000000000e+00  -1.3335639024835545e-09 -2.7265527043218573e-10 0.0000000000000000e+00  -1.2814235735309339e-09 -5.3713859144239743e-10 0.0000000000000000e+00  -1.1972765418889436e-09 -7.8717308250629537e-10 0.0000000000000000e+00  -1.0833187494311646e-09 -1.0160958104721383e-09 0.0000000000000000e+00  -9.4258797413899651e-10 -1.2179689281210322e-09 0.0000000000000000e+00  -7.7905078976965503e-10 -1.3878238603484795e-09 0.0000000000000000e+00  -5.9822042477909424e-10 -1.5218804293301909e-09 0.0000000000000000e+00  -4.1010302166751683e-10 -1.6174974713281968e-09 0.0000000000000000e+00  -2.4280256938862006e-10 -1.6709215279209215e-09 0.0000000000000000e+00  -1.8302481911354305e-10 -1.6082139934389314e-09 0.0000000000000000e+00  -2.4237092212734380e-10 1.9364921388580178e-09 0.0000000000000000e+00  -2.7666177712947904e-10 1.8485258569085266e-09 0.0000000000000000e+00  -4.4353171018573796e-10 1.7934655212311257e-09 0.0000000000000000e+00  -6.3336668524259488e-10 1.6944029637098877e-09 0.0000000000000000e+00  -8.1526895820697150e-10 1.5500246598489079e-09 0.0000000000000000e+00  -9.7911020730254546e-10 1.3632307743214781e-09 0.0000000000000000e+00  -1.1193215322679154e-09 1.1388087154407474e-09 0.0000000000000000e+00  -1.2318759891505738e-09 8.8285160603097323e-10 0.0000000000000000e+00  -1.3137154631969012e-09 6.0242969872488109e-10 0.0000000000000000e+00  -1.3626637002121938e-09 3.0530006024450950e-10 0.0000000000000000e+00  -1.3774254034021966e-09 -3.5784471749507186e-13 0.0000000000000000e+00  -1.3575945417119886e-09 -3.0618429321942541e-10 0.0000000000000000e+00  -1.3036597429092727e-09 -6.0386852828442045e-10 0.0000000000000000e+00  -1.2170055665054585e-09 -8.8537797603137560e-10 0.0000000000000000e+00  -1.0999110607059068e-09 -1.1431993020207567e-09 0.0000000000000000e+00  -9.5556324405767030e-10 -1.3705971622481691e-09 0.0000000000000000e+00  -7.8818576603692539e-10 -1.5618845787254209e-09 0.0000000000000000e+00  -6.0374331734264881e-10 -1.7126698950498902e-09 0.0000000000000000e+00  -4.1318960243214181e-10 -1.8198390068357061e-09 0.0000000000000000e+00  -2.4719543404259062e-10 -1.8792321745227373e-09 0.0000000000000000e+00  -2.0166954727678292e-10 -1.8172417034987781e-09 0.0000000000000000e+00  -2.6961362117350646e-10 2.1433921718843227e-09 0.0000000000000000e+00  -2.8572006435573337e-10 2.0572751983436232e-09 0.0000000000000000e+00  -4.5077328647796459e-10 1.9975696210441614e-09 0.0000000000000000e+00  -6.4253219782277081e-10 1.8879046364726525e-09 0.0000000000000000e+00  -8.2715252590974281e-10 1.7272436125010191e-09 0.0000000000000000e+00  -9.9362299356772222e-10 1.5190704861143140e-09 0.0000000000000000e+00  -1.1360169981719621e-09 1.2689008545400479e-09 0.0000000000000000e+00  -1.2501452724691247e-09 9.8364134319277913e-10 0.0000000000000000e+00  -1.3328953402119819e-09 6.7122257628983584e-10 0.0000000000000000e+00  -1.3820971955712737e-09 3.4028360133586375e-10 0.0000000000000000e+00  -1.3964853191533234e-09 -1.0630703367800132e-13 0.0000000000000000e+00  -1.3756823092218291e-09 -3.4069406651045553e-10 0.0000000000000000e+00  -1.3201966432600005e-09 -6.7227120918978001e-10 0.0000000000000000e+00  -1.2314347382937094e-09 -9.8590352905263613e-10 0.0000000000000000e+00  -1.1117262577568034e-09 -1.2731802772341623e-09 0.0000000000000000e+00  -9.6437576218368161e-10 -1.5264935900431253e-09 0.0000000000000000e+00  -7.9384191711482007e-10 -1.7393442940143565e-09 0.0000000000000000e+00  -6.0654185802256247e-10 -1.9066391175514380e-09 0.0000000000000000e+00  -4.1444389898503457e-10 -2.0247385665176836e-09 0.0000000000000000e+00  -2.5107194864957052e-10 -2.0890893923377967e-09 0.0000000000000000e+00  -2.2281190298800032e-10 -2.0267937508066634e-09 0.0000000000000000e+00  -2.9996211604726905e-10 2.3489092419000726e-09 0.0000000000000000e+00  -2.9363464184986308e-10 2.2670189421871389e-09 0.0000000000000000e+00  -4.5454184509542502e-10 2.2035744935599736e-09 0.0000000000000000e+00  -6.4632810110498994e-10 2.0837472673210350e-09 0.0000000000000000e+00  -8.3189467051452829e-10 1.9068441521912272e-09 0.0000000000000000e+00  -9.9930731655868028e-10 1.6770340294428516e-09 0.0000000000000000e+00  -1.1423301324782357e-09 1.4006806714707276e-09 0.0000000000000000e+00  -1.2566914118740215e-09 1.0856126332084029e-09 0.0000000000000000e+00  -1.3393105521408648e-09 7.4069543132936356e-10 0.0000000000000000e+00  -1.3880985682827305e-09 3.7548310008756651e-10 0.0000000000000000e+00  -1.4018688707581207e-09 -6.7555353751560686e-14 0.0000000000000000e+00  -1.3802870180400673e-09 -3.7583158213501354e-10 0.0000000000000000e+00  -1.3238584015712878e-09 -7.4172267860924174e-10 0.0000000000000000e+00  -1.2339561408398753e-09 -1.0879030868359891e-09 0.0000000000000000e+00  -1.1128848768706194e-09 -1.4050266196135765e-09 0.0000000000000000e+00  -9.6398696808823758e-10 -1.6845349561422204e-09 0.0000000000000000e+00  -7.9189135696844603e-10 -1.9190087264333373e-09 0.0000000000000000e+00  -6.0344216188004364e-10 -2.1025389754975075e-09 0.0000000000000000e+00  -4.1168680785754323e-10 -2.2308772185455593e-09 0.0000000000000000e+00  -2.5329996265761041e-10 -2.2990635962005105e-09 0.0000000000000000e+00  -2.4648579614614231e-10 -2.2356628213035310e-09 0.0000000000000000e+00  -3.3353834390641050e-10 2.5497092313526719e-09 0.0000000000000000e+00  -2.9913427234608773e-10 2.4752234109209185e-09 0.0000000000000000e+00  -4.5229430925225930e-10 2.4090992719202788e-09 0.0000000000000000e+00  -6.4097001518963599e-10 2.2796318152650388e-09 0.0000000000000000e+00  -8.2450033356428095e-10 2.0866125832191578e-09 0.0000000000000000e+00  -9.9000671408897525e-10 1.8350498357684342e-09 0.0000000000000000e+00  -1.1310351018804302e-09 1.5323120056273919e-09 0.0000000000000000e+00  -1.2433695572392970e-09 1.1872749631887963e-09 0.0000000000000000e+00  -1.3241092780285473e-09 8.0980945804920908e-10 0.0000000000000000e+00  -1.3713738757934705e-09 4.1039334639098276e-10 0.0000000000000000e+00  -1.3841391313166066e-09 -1.7106150035548118e-13 0.0000000000000000e+00  -1.3621379287410072e-09 -4.1095639572172870e-10 0.0000000000000000e+00  -1.3058339256522169e-09 -8.1106546364933972e-10 0.0000000000000000e+00  -1.2164730663999665e-09 -1.1897919809332324e-09 0.0000000000000000e+00  -1.0962043616297731e-09 -1.5368355553240027e-09 0.0000000000000000e+00  -9.4826721098317204e-10 -1.8426066297395113e-09 0.0000000000000000e+00  -7.7734128688525304e-10 -2.0986323465622247e-09 0.0000000000000000e+00  -5.9063530335251369e-10 -2.2980302185235247e-09 0.0000000000000000e+00  -4.0232889537128864e-10 -2.4358064072619788e-09 0.0000000000000000e+00  -2.5255034240800480e-10 -2.5065437534263726e-09 0.0000000000000000e+00  -2.7274185635368833e-10 -2.4414560876988850e-09 0.0000000000000000e+00  -3.7048552084819330e-10 2.7408809550891535e-09 0.0000000000000000e+00  -3.0070070138340666e-10 2.6779410094781352e-09 0.0000000000000000e+00  -4.4096897321848510e-10 2.6103899205687522e-09 0.0000000000000000e+00  -6.2186213364525337e-10 2.4719102924071786e-09 0.0000000000000000e+00  -7.9885390434060285e-10 2.2630209634338108e-09 0.0000000000000000e+00  -9.581