<?xml version="1.0"?>
<VTKFile type="UnstructuredGrid"  version="0.1"  >
<UnstructuredGrid>
<Piece  NumberOfPoints="651" NumberOfCells="1200">
<Points>
<DataArray  type="Float64"  NumberOfComponents="3"  format="ascii">0 0 0  50000 0 0  100000 0 0  150000 0 0  200000 0 0  250000 0 0  300000 0 0  350000 0 0  400000 0 0  450000 0 0  500000 0 0  550000 0 0  600000 0 0  650000 0 0  700000 0 0  750000 0 0  800000 0 0  850000 0 0  900000 0 0  950000 0 0  1000000 0 0  0 50000 0  50000 50000 0  100000 50000 0  150000 50000 0  200000 50000 0  250000 50000 0  300000 50000 0  350000 50000 0  400000 50000 0  450000 50000 0  500000 50000 0  550000 50000 0  600000 50000 0  650000 50000 0  700000 50000 0  750000 50000 0  800000 50000 0  850000 50000 0  900000 50000 0  950000 50000 0  1000000 50000 0  0 100000 0  50000 100000 0  100000 100000 0  150000 100000 0  200000 100000 0  250000 100000 0  300000 100000 0  350000 100000 0  400000 100000 0  450000 100000 0  500000 100000 0  550000 100000 0  600000 100000 0  650000 100000 0  700000 100000 0  750000 100000 0  800000 100000 0  850000 100000 0  900000 100000 0  950000 100000 0  1000000 100000 0  0 150000 0  50000 150000 0  100000 150000 0  150000 150000 0  200000 150000 0  250000 150000 0  300000 150000 0  350000 150000 0  400000 150000 0  450000 150000 0  500000 150000 0  550000 150000 0  600000 150000 0  650000 150000 0  700000 150000 0  750000 150000 0  800000 150000 0  850000 150000 0  900000 150000 0  950000 150000 0  1000000 150000 0  0 200000 0  50000 200000 0  100000 200000 0  150000 200000 0  200000 200000 0  250000 200000 0  300000 200000 0  350000 200000 0  400000 200000 0  450000 200000 0  500000 200000 0  550000 200000 0  600000 200000 0  650000 200000 0  700000 200000 0  750000 200000 0  800000 200000 0  850000 200000 0  900000 200000 0  950000 200000 0  1000000 200000 0  0 250000 0  50000 250000 0  100000 250000 0  150000 250000 0  200000 250000 0  250000 250000 0  300000 250000 0  350000 250000 0  400000 250000 0  450000 250000 0  500000 250000 0  550000 250000 0  600000 250000 0  650000 250000 0  700000 250000 0  750000 250000 0  800000 250000 0  850000 250000 0  900000 250000 0  950000 250000 0  1000000 250000 0  0 300000 0  50000 300000 0  100000 300000 0  150000 300000 0  200000 300000 0  250000 300000 0  300000 300000 0  350000 300000 0  400000 300000 0  450000 300000 0  500000 300000 0  550000 300000 0  600000 300000 0  650000 300000 0  700000 300000 0  750000 300000 0  800000 300000 0  850000 300000 0  900000 300000 0  950000 300000 0  1000000 300000 0  0 350000 0  50000 350000 0  100000 350000 0  150000 350000 0  200000 350000 0  250000 350000 0  300000 350000 0  350000 350000 0  400000 350000 0  450000 350000 0  500000 350000 0  550000 350000 0  600000 350000 0  650000 350000 0  700000 350000 0  750000 350000 0  800000 350000 0  850000 350000 0  900000 350000 0  950000 350000 0  1000000 350000 0  0 400000 0  50000 400000 0  100000 400000 0  150000 400000 0  200000 400000 0  250000 400000 0  300000 400000 0  350000 400000 0  400000 400000 0  450000 400000 0  500000 400000 0  550000 400000 0  600000 400000 0  650000 400000 0  700000 400000 0  750000 400000 0  800000 400000 0  850000 400000 0  900000 400000 0  950000 400000 0  1000000 400000 0  0 450000 0  50000 450000 0  100000 450000 0  150000 450000 0  200000 450000 0  250000 450000 0  300000 450000 0  350000 450000 0  400000 450000 0  450000 450000 0  500000 450000 0  550000 450000 0  600000 450000 0  650000 450000 0  700000 450000 0  750000 450000 0  800000 450000 0  850000 450000 0  900000 450000 0  950000 450000 0  1000000 450000 0  0 500000 0  50000 500000 0  100000 500000 0  150000 500000 0  200000 500000 0  250000 500000 0  300000 500000 0  350000 500000 0  400000 500000 0  450000 500000 0  500000 500000 0  550000 500000 0  600000 500000 0  650000 500000 0  700000 500000 0  750000 500000 0  800000 500000 0  850000 500000 0  900000 500000 0  950000 500000 0  1000000 500000 0  0 550000 0  50000 550000 0  100000 550000 0  150000 550000 0  200000 550000 0  250000 550000 0  300000 550000 0  350000 550000 0  400000 550000 0  450000 550000 0  500000 550000 0  550000 550000 0  600000 550000 0  650000 550000 0  700000 550000 0  750000 550000 0  800000 550000 0  850000 550000 0  900000 550000 0  950000 550000 0  1000000 550000 0  0 600000 0  50000 600000 0  100000 600000 0  150000 600000 0  200000 600000 0  250000 600000 0  300000 600000 0  350000 600000 0  400000 600000 0  450000 600000 0  500000 600000 0  550000 600000 0  600000 600000 0  650000 600000 0  700000 600000 0  750000 600000 0  800000 600000 0  850000 600000 0  900000 600000 0  950000 600000 0  1000000 600000 0  0 650000 0  50000 650000 0  100000 650000 0  150000 650000 0  200000 650000 0  250000 650000 0  300000 650000 0  350000 650000 0  400000 650000 0  450000 650000 0  500000 650000 0  550000 650000 0  600000 650000 0  650000 650000 0  700000 650000 0  750000 650000 0  800000 650000 0  850000 650000 0  900000 650000 0  950000 650000 0  1000000 650000 0  0 700000 0  50000 700000 0  100000 700000 0  150000 700000 0  200000 700000 0  250000 700000 0  300000 700000 0  350000 700000 0  400000 700000 0  450000 700000 0  500000 700000 0  550000 700000 0  600000 700000 0  650000 700000 0  700000 700000 0  750000 700000 0  800000 700000 0  850000 700000 0  900000 700000 0  950000 700000 0  1000000 700000 0  0 750000 0  50000 750000 0  100000 750000 0  150000 750000 0  200000 750000 0  250000 750000 0  300000 750000 0  350000 750000 0  400000 750000 0  450000 750000 0  500000 750000 0  550000 750000 0  600000 750000 0  650000 750000 0  700000 750000 0  750000 750000 0  800000 750000 0  850000 750000 0  900000 750000 0  950000 750000 0  1000000 750000 0  0 800000 0  50000 800000 0  100000 800000 0  150000 800000 0  200000 800000 0  250000 800000 0  300000 800000 0  350000 800000 0  400000 800000 0  450000 800000 0  500000 800000 0  550000 800000 0  600000 800000 0  650000 800000 0  700000 800000 0  750000 800000 0  800000 800000 0  850000 800000 0  900000 800000 0  950000 800000 0  1000000 800000 0  0 850000 0  50000 850000 0  100000 850000 0  150000 850000 0  200000 850000 0  250000 850000 0  300000 850000 0  350000 850000 0  400000 850000 0  450000 850000 0  500000 850000 0  550000 850000 0  600000 850000 0  650000 850000 0  700000 850000 0  750000 850000 0  800000 850000 0  850000 850000 0  900000 850000 0  950000 850000 0  1000000 850000 0  0 900000 0  50000 900000 0  100000 900000 0  150000 900000 0  200000 900000 0  250000 900000 0  300000 900000 0  350000 900000 0  400000 900000 0  450000 900000 0  500000 900000 0  550000 900000 0  600000 900000 0  650000 900000 0  700000 900000 0  750000 900000 0  800000 900000 0  850000 900000 0  900000 900000 0  950000 900000 0  1000000 900000 0  0 950000 0  50000 950000 0  100000 950000 0  150000 950000 0  200000 950000 0  250000 950000 0  300000 950000 0  350000 950000 0  400000 950000 0  450000 950000 0  500000 950000 0  550000 950000 0  600000 950000 0  650000 950000 0  700000 950000 0  750000 950000 0  800000 950000 0  850000 950000 0  900000 950000 0  950000 950000 0  1000000 950000 0  0 1000000 0  50000 1000000 0  100000 1000000 0  150000 1000000 0  200000 1000000 0  250000 1000000 0  300000 1000000 0  350000 1000000 0  400000 1000000 0  450000 1000000 0  500000 1000000 0  550000 1000000 0  600000 1000000 0  650000 1000000 0  700000 1000000 0  750000 1000000 0  800000 1000000 0  850000 1000000 0  900000 1000000 0  950000 1000000 0  1000000 1000000 0  0 1050000 0  50000 1050000 0  100000 1050000 0  150000 1050000 0  200000 1050000 0  250000 1050000 0  300000 1050000 0  350000 1050000 0  400000 1050000 0  450000 1050000 0  500000 1050000 0  550000 1050000 0  600000 1050000 0  650000 1050000 0  700000 1050000 0  750000 1050000 0  800000 1050000 0  850000 1050000 0  900000 1050000 0  950000 1050000 0  1000000 1050000 0  0 1100000 0  50000 1100000 0  100000 1100000 0  150000 1100000 0  200000 1100000 0  250000 1100000 0  300000 1100000 0  350000 1100000 0  400000 1100000 0  450000 1100000 0  500000 1100000 0  550000 1100000 0  600000 1100000 0  650000 1100000 0  700000 1100000 0  750000 1100000 0  800000 1100000 0  850000 1100000 0  900000 1100000 0  950000 1100000 0  1000000 1100000 0  0 1150000 0  50000 1150000 0  100000 1150000 0  150000 1150000 0  200000 1150000 0  250000 1150000 0  300000 1150000 0  350000 1150000 0  400000 1150000 0  450000 1150000 0  500000 1150000 0  550000 1150000 0  600000 1150000 0  650000 1150000 0  700000 1150000 0  750000 1150000 0  800000 1150000 0  850000 1150000 0  900000 1150000 0  950000 1150000 0  1000000 1150000 0  0 1200000 0  50000 1200000 0  100000 1200000 0  150000 1200000 0  200000 1200000 0  250000 1200000 0  300000 1200000 0  350000 1200000 0  400000 1200000 0  450000 1200000 0  500000 1200000 0  550000 1200000 0  600000 1200000 0  650000 1200000 0  700000 1200000 0  750000 1200000 0  800000 1200000 0  850000 1200000 0  900000 1200000 0  950000 1200000 0  1000000 1200000 0  0 1250000 0  50000 1250000 0  100000 1250000 0  150000 1250000 0  200000 1250000 0  250000 1250000 0  300000 1250000 0  350000 1250000 0  400000 1250000 0  450000 1250000 0  500000 1250000 0  550000 1250000 0  600000 1250000 0  650000 1250000 0  700000 1250000 0  750000 1250000 0  800000 1250000 0  850000 1250000 0  900000 1250000 0  950000 1250000 0  1000000 1250000 0  0 1300000 0  50000 1300000 0  100000 1300000 0  150000 1300000 0  200000 1300000 0  250000 1300000 0  300000 1300000 0  350000 1300000 0  400000 1300000 0  450000 1300000 0  500000 1300000 0  550000 1300000 0  600000 1300000 0  650000 1300000 0  700000 1300000 0  750000 1300000 0  800000 1300000 0  850000 1300000 0  900000 1300000 0  950000 1300000 0  1000000 1300000 0  0 1350000 0  50000 1350000 0  100000 1350000 0  150000 1350000 0  200000 1350000 0  250000 1350000 0  300000 1350000 0  350000 1350000 0  400000 1350000 0  450000 1350000 0  500000 1350000 0  550000 1350000 0  600000 1350000 0  650000 1350000 0  700000 135
[...]
<PointData  Scalars="f_3013"> 
<DataArray  type="Float64"  Name="f_3013"  format="ascii">-2.2155422949977885e-01  -1.4275702159873266e-01  -8.8249702067974792e-02  -5.0094200426981678e-02  -2.2958054570533255e-02  -2.4901118238849170e-03  1.3980979210842131e-02  2.8033472923985722e-02  4.0626284077534658e-02  5.2383120715665921e-02  6.3755330560415074e-02  7.5120354686034937e-02  8.6852752514410395e-02  9.9394135499161318e-02  1.1334845132617133e-01  1.2964122442609480e-01  1.4980963399536854e-01  1.7652787116771948e-01  2.1435094949381012e-01  2.6913455830116323e-01  3.2592912771649568e-01  -1.6314396326157513e-01  -1.3239705802684024e-01  -8.4750934502816566e-02  -4.8750507178504481e-02  -2.2440745194399283e-02  -2.3028837860864827e-03  1.4041550828131615e-02  2.8052536584426899e-02  4.0639776487958690e-02  5.2407352396219048e-02  6.3799884715349309e-02  7.5194162989818777e-02  8.6967764159210981e-02  9.9568391606326342e-02  1.1360787417166184e-01  1.3001115596624455e-01  1.5024931164457742e-01  1.7659713796375290e-01  2.1181071684899608e-01  2.5519181898932763e-01  2.8499761665433770e-01  -1.0590344819343611e-01  -9.4620653726907186e-02  -6.7342630566169889e-02  -4.0690701665584611e-02  -1.8484971274761567e-02  -2.3845832666886333e-04  1.5178893220731347e-02  2.8699609300753395e-02  4.1001094231470268e-02  5.2579138323211802e-02  6.3822580295778988e-02  7.5072519013230588e-02  8.6672408150419336e-02  9.9018897220503166e-02  1.1262228696801546e-01  1.2817690060941833e-01  1.4660139891993146e-01  1.6885823377052153e-01  1.9490698196870865e-01  2.2023562374629027e-01  2.2945419205356107e-01  -6.4344401392215797e-02  -5.9937477755869321e-02  -4.5582157969167578e-02  -2.8105625535154905e-02  -1.1195721386974408e-02  4.0969981980287671e-03  1.7819371602936323e-02  3.0311000359099706e-02  4.1935031367609447e-02  5.3015719017295522e-02  6.3839117553844249e-02  7.4671238447201110e-02  8.5780438723478722e-02  9.7459857415430978e-02  1.1004424313380055e-01  1.2390178522741210e-01  1.3934188945792222e-01  1.5629010180618486e-01  1.7345327146307066e-01  1.8683977664724979e-01  1.8946850968046669e-01  -3.5018229273901337e-02  -3.3235922061989935e-02  -2.5685546225690078e-02  -1.4609697867736884e-02  -2.3400555367711117e-03  9.8779884596815627e-03  2.1585977020633647e-02  3.2718002379939430e-02  4.3369221924696576e-02  5.3691018212698179e-02  6.3850687377690007e-02  7.4019151501375752e-02  8.4368819754971361e-02  9.5070942973866840e-02  1.0628074345117672e-01  1.1808927646079595e-01  1.3040212015416056e-01  1.4268569484926619e-01  1.5356178744217147e-01  1.6053323094666477e-01  1.6114740289075255e-01  -1.4104585911705061e-02  -1.3393633582545861e-02  -9.2993548820518284e-03  -2.2116592935250089e-03  6.6053216990274270e-03  1.6168655445839720e-02  2.5916418742617194e-02  3.5593930928290128e-02  4.5124938834843482e-02  5.4525640808700912e-02  6.3856146620255932e-02  7.3194039307096406e-02  8.2617430508195575e-02  9.2187394093387137e-02  1.0191921675381163e-01  1.1172882055712088e-01  1.2133868672167429e-01  1.3014062632131845e-01  1.3707924450062287e-01  1.4081431532273639e-01  1.4082191941814984e-01  1.1255186839171057e-03  1.3845555999565777e-03  3.7179653800669403e-03  8.4046788832811831e-03  1.4822139742591951e-02  2.2295336154404845e-02  3.0329728330482340e-02  3.8622912899721251e-02  4.7014244116574531e-02  5.5432336215579296e-02  6.3855557668836563e-02  7.2284132952014704e-02  8.0718154425764729e-02  8.9135114694457881e-02  9.7460466351317304e-02  1.0552542042676222e-01  1.1301113373305582e-01  1.1939630630325929e-01  1.2397212760032078e-01  1.2608541396984013e-01  1.2592920238934199e-01  1.2465369721735387e-02  1.2532884638972071e-02  1.3950441336707446e-02  1.7190692548777586e-02  2.1977947699184774e-02  2.7875902609307779e-02  3.4498821918857774e-02  4.1563817427652083e-02  4.8882781664331652e-02  5.6336859012994671e-02  6.3850148158002579e-02  7.1366798830913611e-02  7.8830515059408329e-02  8.6163774439666885e-02  9.3244110498798369e-02  9.9876688337052461e-02  1.0576800074739930e-01  1.1051864051891276e-01  1.1367944015228804e-01  1.1496283674639458e-01  1.1478281107493817e-01  2.1063558071674145e-02  2.1051170662461805e-02  2.1975703808168458e-02  2.4327046871720222e-02  2.8006438203767824e-02  3.2738424132824205e-02  3.8236395707317294e-02  4.4259339387040963e-02  5.0621787182796252e-02  5.7184919426370523e-02  6.3841532696513256e-02  7.0499907046806046e-02  7.7067812025924123e-02  8.3436386475481114e-02  8.9463698235806716e-02  9.4959477484438587e-02  9.9676563439585475e-02  1.0332241748698223e-01  1.0561817487960051e-01  1.0646007065891450e-01  1.0629651742011118e-01  2.7652972434877816e-02  2.7608421196904202e-02  2.8255123083660731e-02  3.0043749147874034e-02  3.2962034855166127e-02  3.6836026713760281e-02  4.1455141467198212e-02  4.6621300806350907e-02  5.2164304061054434e-02  5.7941613637901117e-02  6.3831163945043692e-02  6.9721365828276538e-02  7.5500186013812018e-02  8.1044198149066479e-02  8.6208562973132508e-02  9.0820007548786136e-02  9.4677275015986509e-02  9.7567830647605880e-02  9.9317897045628392e-02  9.9912598218857840e-02  9.9772909624735256e-02  3.2705846988948260e-02  3.2649153251207069e-02  3.3131160879994528e-02  3.4552542320135375e-02  3.6941536547841061e-02  4.0186154130227782e-02  4.4129623998661015e-02  4.8609944574538960e-02  5.3475251711156122e-02  5.8587494455769981e-02  6.3820108052086391e-02  6.9052709393414902e-02  7.4164582255141054e-02  7.9028181367778769e-02  8.3503924399965318e-02  8.7438153354560288e-02  9.0667431895234421e-02  9.3034811276188928e-02  9.4429505608296105e-02  9.4878033429880507e-02  9.4759775172091665e-02  3.6531575062720513e-02  3.6470721858533395e-02  3.6850656676701822e-02  3.8027138700879488e-02  4.0046294149958271e-02  4.2833310817965840e-02  4.6267809370164885e-02  5.0215306491526925e-02  5.4540799679923410e-02  5.9113846575723931e-02  6.3809026144001593e-02  6.8503873556053987e-02  7.3075698552213394e-02  7.7398437422954908e-02  8.1340710805266656e-02  8.4766554928188104e-02  8.7540967680429946e-02  8.9544032024485395e-02  9.0702187781133370e-02  9.1060284593573279e-02  9.0958984800219578e-02  3.9335710184032972e-02  3.9273437767786738e-02  3.9588546733861585e-02  4.0601505739259670e-02  4.2365618296637375e-02  4.4828059779286229e-02  4.7892187810971279e-02  5.1443137290198698e-02  5.5359455268599297e-02  5.9518468994445663e-02  6.3798247501027389e-02  6.8077611927543843e-02  7.2235243605613925e-02  7.6148823679337105e-02  7.9695148531383528e-02  8.2752294961114609e-02  8.5205298229500501e-02  8.6958087363295508e-02  8.7958823155899757e-02  8.8259864365683810e-02  8.8171347574700673e-02  4.1254560414933736e-02  4.1191289654047690e-02  4.1465843881626371e-02  4.2373641668881752e-02  4.3970393861677746e-02  4.6215880649025431e-02  4.9028149871834743e-02  5.2305278498085687e-02  5.5935491532373795e-02  5.9802428381520653e-02  6.3787864421235227e-02  6.7772954843307656e-02  7.1638776737977292e-02  7.5266893666927570e-02  7.8540671293794731e-02  8.1348128903926828e-02  8.3587388727963938e-02  8.5176949872369886e-02  8.6077242292278991e-02  8.6343345174845917e-02  8.6264214497223643e-02  4.2375070923704808e-02  4.2310140225995982e-02  4.2561737957171920e-02  4.3410006229545349e-02  4.4911183169154927e-02  4.7031572085726753e-02  4.9697223992397593e-02  5.2813548525285019e-02  5.6274520301414492e-02  5.9967801591187891e-02  6.3777816584423344e-02  6.7587639767926075e-02  7.1280311240218566e-02  7.4740163424265746e-02  7.7854745055623523e-02  8.0517957679504384e-02  8.2635262175879701e-02  8.4132950175509230e-02  8.4977643530177185e-02  8.5225263238916743e-02  8.5152839051725437e-02  4.2745908383342149e-02  4.2678069629469115e-02  4.2921059931671376e-02  4.3748984137115934e-02  4.5218026753380734e-02  4.7296600917595327e-02  4.9913370902041024e-02  5.2976138012452337e-02  5.6380762868441715e-02  6.0016252831597408e-02  6.3767956018972019e-02  6.7519659206346366e-02  7.1155149169502080e-02  7.4559774025491549e-02  7.7622541135902764e-02  8.0239311120348739e-02  8.2317885284563394e-02  8.3786927900828173e-02  8.4614852106272800e-02  8.4857842408474979e-02  8.4790003654601959e-02  4.2383072986218871e-02  4.2310648799027573e-02  4.2558268507767165e-02  4.3402961862435016e-02  4.4900649862064650e-02  4.7017954358439772e-02  4.9681166982320640e-02  5.2795748613678362e-02  5.6255600797725236e-02  5.9948272270017727e-02  6.3758095453520569e-02  6.7568110446755925e-02  7.1261391736529220e-02  7.4722363512658554e-02  7.7838688045546042e-02  8.0504339952216897e-02  8.2624728868789063e-02  8.4125905808398627e-02  8.4974174080772139e-02  8.5225771811947987e-02  8.5160841114239216e-02  4.1271697540720804e-02  4.1192566863098495e-02  4.1458669745665477e-02  4.2358962165574672e-02  4.3948523309980586e-02  4.6187783134017515e-02  4.8995240744149661e-02  5.2269018371016503e-02  5.5897135299966677e-02  5.9762957194636313e-02  6.3748047616708672e-02  6.7733483656423121e-02  7.1600420505569820e-02  7.5230633539857886e-02  7.8507762166108983e-02  8.1320031388918357e-02  8.3565518176266201e-02  8.5162270369062071e-02  8.6070068156317639e-02  8.6344622383896411e-02  8.6281351623010344e-02  3.9364564463244225e-02  3.9276047672261026e-02  3.9577088882045142e-02  4.0577824674649397e-02  4.2330613808444294e-02  4.4783617076829894e-02  4.7840763506560968e-02  5.1387088358607190e-02  5.5300668432330218e-02  5.9458300110400257e-02  6.3737664536916649e-02  6.8017443043498355e-02  7.2176456769344491e-02  7.6092774747744743e-02  7.9643724226972398e-02  8.2707852258657427e-02  8.5170293741306427e-02  8.6934406298684250e-02  8.7947365304082273e-02  8.8262474270157112e-02  8.8200201853910962e-02  3.6576927237725695e-02  3.6475627444371952e-02  3.6833724256811848e-02  3.7991880013459836e-02  3.9994944357515133e-02  4.2769357109756739e-02  4.6195201232678187e-02  5.0137474614989561e-02  5.4460213485730900e-02  5.9032038481890120e-02  6.3726885893942348e-02  6.8422065462220016e-02  7.2995112358020378e-02  7.7320605546416635e-02  8.1268102667778536e-02  8.4702601219977580e-02  8.7489617887985552e-02  8.9508773337064404e-02  9.0685255361241918e-02  9.1065190179410366e-02  9.1004336975223310e-02  3.2776136865854080e-02  3.2657878608065169e-02  3.3106406429649599e-02  3.4501100761756567e-02  3.6868480142711040e-02  4.0097758683384881e-02  4.4031987637979712e-02  4.8507730670165929e-02  5.3371329782803470e-02  5.8483202644529352e-02  6.3715803985857675e-02  6.8948417582173904e-02  7.4060660326787597e-02  7.8925967463404786e-02  8.3406288039282697e-02  8.7349757907715986e-02  9.0594375490102810e-02  9.2983369717808406e-02  9.4404751157949190e-02  9.4886758786736691e-02  9.4830065048995604e-02  2.7763002413211089e-02  2.7623313819088439e-02  2.8218014992317936e-02  2.9968081390340316e-02  3.2858637021959396e-02  3.6715904489159519e-02  4.1327349064812689e-02  4.6491713888878426e-02  5.2035726024132721e-02  5.7814546209667923e-02  6.3704748092900512e-02  6.9594298400043025e-02  7.5371607976889493e-02  8.0914611231592978e-02  8.6080770570745688e-02  9.0699885324183507e-02  9.4573877182777655e-02  9.7492162890069761e-02  9.9280788954283078e-02  9.9927490841039621e-02  9.9882939603066143e-02  2.1239394617835704e-02  2.1075841379032380e-02  2.1917737158346270e-02  2.4213494550964366e-02  2.7859348598360881e-02  3.2576434553507463e-02  3.8072213802138891e-02  4.4099525562464215e-02  5.0468100012020942e-02  5.7036004991138624e-02  6.3694379341431170e-02  7.0350992611573862e-02  7.6914124855148092e-02  8.3276572650903075e-02  8.9299516330626577e-02  9.4797487905119548e-02  9.9529473834175999e-02  1.0320886516622367e-01  1.0556020822977541e-01  1.0648474137548203e-01  1.0647235396626982e-01  1.2753100963009290e-02  1.2573075291552927e-02  1.3856471885659258e-02  1.7017271519034129e-02  2.1767911290547434e-02  2.7659223700893895e-02  3.4291801539147578e-02  4.1372137598278701e-02  4.8705396978536923e-02  5.6169113207031274e-02  6.3685763879942028e-02  7.1199053024949846e-02  7.8653130373612809e-02  8.5972094610292107e-02  9.3037090119086216e-02  9.9660009428636009e-02  1.0555796433875907e-01  1.1034521948916642e-01  1.1358547070123656e-01  1.1500302739897206e-01  1.1507054231620875e-01  1.6067096486060985e-03  1.4504980681079138e-03  3.5637844376270877e-03  8.1396057346882281e-03  1.4524778304891283e-02  2.2010491611184516e-02  3.0075445686629104e-02  3.8400797343488120e-02  4.6817757612180856e-02  5.5251779085930555e-02  6.3680354369108363e-02  7.2103575822365443e-02  8.0521667921369999e-02  8.8912999138223023e-02  9.7206183707461799e-02  1.0524057588353916e-01  1.1271377229535214e-01  1.1913123315466290e-01  1.2381794665787738e-01  1.2615135643798794e-01  1.2641039335402746e-01  -1.3286007380200766e-02  -1.3278403284787365e-02  -9.5433324626740448e-03  -2.6047142833700394e-03  6.1972253162734803e-03  1.5807091480826201e-02  2.5616695284135054e-02  3.5348517944559295e-02  4.4918481529750462e-02  5.4341872730849221e-02  6.3679765417689382e-02  7.3010271229244236e-02  8.2410973203101645e-02  9.1941981109654486e-02  1.0161949329532716e-01  1.1136725659210461e-01  1.2093059033891687e-01  1.2974757133146947e-01  1.3683526691999645e-01  1.4092954562049084e-01  1.4164049794965003e-01  -3.3611490852802343e-02  -3.2997318908714664e-02  -2.6025875404221709e-02  -1.5149782811317070e-02  -2.8662081162120945e-03  9.4466355771517137e-03  2.1255168586770561e-02  3.2464969064080126e-02  4.3167092282975307e-02  5.3516760536570396e-02  6.3685224660255862e-02  7.3844893825247476e-02  8.4166690113248857e-02  9.4817909658005586e-02  1.0594993501731118e-01  1.1765792357826324e-01  1.2987596757471587e-01  1.4214560990568173e-01  1.5322145826363523e-01  1.6077183409993545e-01  1.6255414131184701e-01  -6.1932597642514992e-02  -5.9303864609298249e-02  -4.5917359425119632e-02  -2.8754189768234715e-02  -1.1805977419972961e-02  3.6341268105364861e-03  1.7491668904147446e-02  3.0076054622516793e-02  4.1755473314468668e-02  5.2864673590745863e-02  6.3696794484102356e-02  7.4520193020650966e-02  8.5600880670336735e-02  9.7224911678846157e-02  1.0971654043500945e-01  1.2343891383991679e-01  1.3873163342491998e-01  1.5564153757310048e-01  1.7311807000711354e-01  1.8747338979381567e-01  1.9188031343016243e-01  -1.0191828001560754e-01  -9.2699711708336865e-02  -6.7371069930756047e-02  -4.1322321732569972e-02  -1.9065486881981002e-02  -6.4098857146854718e-04  1.4913625069933753e-02  2.8517014817445799e-02  4.0863503887529143e-02  5.2463393024717593e-02  6.3713331742168866e-02  7.4956773714735858e-02  8.6534817806477149e-02  9.8836302737193626e-02  1.1235701881721560e-01  1.2777437036461564e-01  1.4602088331270832e-01  1.6822661370353145e-01  1.9487854260411724e-01  2.2215656576485507e-01  2.3343936023138434e-01  -1.5746170461638226e-01  -1.2765590695137255e-01  -8.4274804811042270e-02  -4.9061225925800138e-02  -2.2713399606625537e-02  -2.4752439282934376e-03  1.3928037866288720e-02  2.7967520431623843e-02  4.0568147878738928e-02  5.2341749048130722e-02  6.3736027322599809e-02  7.5128559641729889e-02  8.6896135549990011e-02  9.9483375453521511e-02  1.1349436120981678e-01  1.2983879582403485e-01  1.4997665723234763e-01  1.7628641921645311e-01  2.1228684654076596e-01  2.5993297006479027e-01  2.9067987529952544e-01  -1.9839321567853951e-01  -1.4159864626320731e-01  -8.6815037455855476e-02  -4.8991959129765936e-02  -2.2273721957415980e-02  -2.1053123881431160e-03  1.4187460711779842e-02  2.8141776538789333e-02  4.0683159523540034e-02  5.2415557351915096e-02  6.3780581477534640e-02  7.5152791322283460e-02  8.6909627960414640e-02  9.9502439113963351e-02  1.1355493282710688e-01  1.3002602386183393e-01  1.5049396660848238e-01  1.7763011246493118e-01  2.1578561410592492e-01  2.7029293363668383e-01  3.4909014153773066e-01  </DataArray> 
</PointData> 
</Piece>
</UnstructuredGrid>
</VTKFile>