<?xml version="1.0"?>
<VTKFile type="UnstructuredGrid"  version="0.1"  >
<UnstructuredGrid>
<Piece  NumberOfPoints="651" NumberOfCells="1200">
<Points>
<DataArray  type="Float64"  NumberOfComponents="3"  format="ascii">0 0 0  50000 0 0  100000 0 0  150000 0 0  200000 0 0  250000 0 0  300000 0 0  350000 0 0  400000 0 0  450000 0 0  500000 0 0  550000 0 0  600000 0 0  650000 0 0  700000 0 0  750000 0 0  800000 0 0  850000 0 0  900000 0 0  950000 0 0  1000000 0 0  0 50000 0  50000 50000 0  100000 50000 0  150000 50000 0  200000 50000 0  250000 50000 0  300000 50000 0  350000 50000 0  400000 50000 0  450000 50000 0  500000 50000 0  550000 50000 0  600000 50000 0  650000 50000 0  700000 50000 0  750000 50000 0  800000 50000 0  850000 50000 0  900000 50000 0  950000 50000 0  1000000 50000 0  0 100000 0  50000 100000 0  100000 100000 0  150000 100000 0  200000 100000 0  250000 100000 0  300000 100000 0  350000 100000 0  400000 100000 0  450000 100000 0  500000 100000 0  550000 100000 0  600000 100000 0  650000 100000 0  700000 100000 0  750000 100000 0  800000 100000 0  850000 100000 0  900000 100000 0  950000 100000 0  1000000 100000 0  0 150000 0  50000 150000 0  100000 150000 0  150000 150000 0  200000 150000 0  250000 150000 0  300000 150000 0  350000 150000 0  400000 150000 0  450000 150000 0  500000 150000 0  550000 150000 0  600000 150000 0  650000 150000 0  700000 150000 0  750000 150000 0  800000 150000 0  850000 150000 0  900000 150000 0  950000 150000 0  1000000 150000 0  0 200000 0  50000 200000 0  100000 200000 0  150000 200000 0  200000 200000 0  250000 200000 0  300000 200000 0  350000 200000 0  400000 200000 0  450000 200000 0  500000 200000 0  550000 200000 0  600000 200000 0  650000 200000 0  700000 200000 0  750000 200000 0  800000 200000 0  850000 200000 0  900000 200000 0  950000 200000 0  1000000 200000 0  0 250000 0  50000 250000 0  100000 250000 0  150000 250000 0  200000 250000 0  250000 250000 0  300000 250000 0  350000 250000 0  400000 250000 0  450000 250000 0  500000 250000 0  550000 250000 0  600000 250000 0  650000 250000 0  700000 250000 0  750000 250000 0  800000 250000 0  850000 250000 0  900000 250000 0  950000 250000 0  1000000 250000 0  0 300000 0  50000 300000 0  100000 300000 0  150000 300000 0  200000 300000 0  250000 300000 0  300000 300000 0  350000 300000 0  400000 300000 0  450000 300000 0  500000 300000 0  550000 300000 0  600000 300000 0  650000 300000 0  700000 300000 0  750000 300000 0  800000 300000 0  850000 300000 0  900000 300000 0  950000 300000 0  1000000 300000 0  0 350000 0  50000 350000 0  100000 350000 0  150000 350000 0  200000 350000 0  250000 350000 0  300000 350000 0  350000 350000 0  400000 350000 0  450000 350000 0  500000 350000 0  550000 350000 0  600000 350000 0  650000 350000 0  700000 350000 0  750000 350000 0  800000 350000 0  850000 350000 0  900000 350000 0  950000 350000 0  1000000 350000 0  0 400000 0  50000 400000 0  100000 400000 0  150000 400000 0  200000 400000 0  250000 400000 0  300000 400000 0  350000 400000 0  400000 400000 0  450000 400000 0  500000 400000 0  550000 400000 0  600000 400000 0  650000 400000 0  700000 400000 0  750000 400000 0  800000 400000 0  850000 400000 0  900000 400000 0  950000 400000 0  1000000 400000 0  0 450000 0  50000 450000 0  100000 450000 0  150000 450000 0  200000 450000 0  250000 450000 0  300000 450000 0  350000 450000 0  400000 450000 0  450000 450000 0  500000 450000 0  550000 450000 0  600000 450000 0  650000 450000 0  700000 450000 0  750000 450000 0  800000 450000 0  850000 450000 0  900000 450000 0  950000 450000 0  1000000 450000 0  0 500000 0  50000 500000 0  100000 500000 0  150000 500000 0  200000 500000 0  250000 500000 0  300000 500000 0  350000 500000 0  400000 500000 0  450000 500000 0  500000 500000 0  550000 500000 0  600000 500000 0  650000 500000 0  700000 500000 0  750000 500000 0  800000 500000 0  850000 500000 0  900000 500000 0  950000 500000 0  1000000 500000 0  0 550000 0  50000 550000 0  100000 550000 0  150000 550000 0  200000 550000 0  250000 550000 0  300000 550000 0  350000 550000 0  400000 550000 0  450000 550000 0  500000 550000 0  550000 550000 0  600000 550000 0  650000 550000 0  700000 550000 0  750000 550000 0  800000 550000 0  850000 550000 0  900000 550000 0  950000 550000 0  1000000 550000 0  0 600000 0  50000 600000 0  100000 600000 0  150000 600000 0  200000 600000 0  250000 600000 0  300000 600000 0  350000 600000 0  400000 600000 0  450000 600000 0  500000 600000 0  550000 600000 0  600000 600000 0  650000 600000 0  700000 600000 0  750000 600000 0  800000 600000 0  850000 600000 0  900000 600000 0  950000 600000 0  1000000 600000 0  0 650000 0  50000 650000 0  100000 650000 0  150000 650000 0  200000 650000 0  250000 650000 0  300000 650000 0  350000 650000 0  400000 650000 0  450000 650000 0  500000 650000 0  550000 650000 0  600000 650000 0  650000 650000 0  700000 650000 0  750000 650000 0  800000 650000 0  850000 650000 0  900000 650000 0  950000 650000 0  1000000 650000 0  0 700000 0  50000 700000 0  100000 700000 0  150000 700000 0  200000 700000 0  250000 700000 0  300000 700000 0  350000 700000 0  400000 700000 0  450000 700000 0  500000 700000 0  550000 700000 0  600000 700000 0  650000 700000 0  700000 700000 0  750000 700000 0  800000 700000 0  850000 700000 0  900000 700000 0  950000 700000 0  1000000 700000 0  0 750000 0  50000 750000 0  100000 750000 0  150000 750000 0  200000 750000 0  250000 750000 0  300000 750000 0  350000 750000 0  400000 750000 0  450000 750000 0  500000 750000 0  550000 750000 0  600000 750000 0  650000 750000 0  700000 750000 0  750000 750000 0  800000 750000 0  850000 750000 0  900000 750000 0  950000 750000 0  1000000 750000 0  0 800000 0  50000 800000 0  100000 800000 0  150000 800000 0  200000 800000 0  250000 800000 0  300000 800000 0  350000 800000 0  400000 800000 0  450000 800000 0  500000 800000 0  550000 800000 0  600000 800000 0  650000 800000 0  700000 800000 0  750000 800000 0  800000 800000 0  850000 800000 0  900000 800000 0  950000 800000 0  1000000 800000 0  0 850000 0  50000 850000 0  100000 850000 0  150000 850000 0  200000 850000 0  250000 850000 0  300000 850000 0  350000 850000 0  400000 850000 0  450000 850000 0  500000 850000 0  550000 850000 0  600000 850000 0  650000 850000 0  700000 850000 0  750000 850000 0  800000 850000 0  850000 850000 0  900000 850000 0  950000 850000 0  1000000 850000 0  0 900000 0  50000 900000 0  100000 900000 0  150000 900000 0  200000 900000 0  250000 900000 0  300000 900000 0  350000 900000 0  400000 900000 0  450000 900000 0  500000 900000 0  550000 900000 0  600000 900000 0  650000 900000 0  700000 900000 0  750000 900000 0  800000 900000 0  850000 900000 0  900000 900000 0  950000 900000 0  1000000 900000 0  0 950000 0  50000 950000 0  100000 950000 0  150000 950000 0  200000 950000 0  250000 950000 0  300000 950000 0  350000 950000 0  400000 950000 0  450000 950000 0  500000 950000 0  550000 950000 0  600000 950000 0  650000 950000 0  700000 950000 0  750000 950000 0  800000 950000 0  850000 950000 0  900000 950000 0  950000 950000 0  1000000 950000 0  0 1000000 0  50000 1000000 0  100000 1000000 0  150000 1000000 0  200000 1000000 0  250000 1000000 0  300000 1000000 0  350000 1000000 0  400000 1000000 0  450000 1000000 0  500000 1000000 0  550000 1000000 0  600000 1000000 0  650000 1000000 0  700000 1000000 0  750000 1000000 0  800000 1000000 0  850000 1000000 0  900000 1000000 0  950000 1000000 0  1000000 1000000 0  0 1050000 0  50000 1050000 0  100000 1050000 0  150000 1050000 0  200000 1050000 0  250000 1050000 0  300000 1050000 0  350000 1050000 0  400000 1050000 0  450000 1050000 0  500000 1050000 0  550000 1050000 0  600000 1050000 0  650000 1050000 0  700000 1050000 0  750000 1050000 0  800000 1050000 0  850000 1050000 0  900000 1050000 0  950000 1050000 0  1000000 1050000 0  0 1100000 0  50000 1100000 0  100000 1100000 0  150000 1100000 0  200000 1100000 0  250000 1100000 0  300000 1100000 0  350000 1100000 0  400000 1100000 0  450000 1100000 0  500000 1100000 0  550000 1100000 0  600000 1100000 0  650000 1100000 0  700000 1100000 0  750000 1100000 0  800000 1100000 0  850000 1100000 0  900000 1100000 0  950000 1100000 0  1000000 1100000 0  0 1150000 0  50000 1150000 0  100000 1150000 0  150000 1150000 0  200000 1150000 0  250000 1150000 0  300000 1150000 0  350000 1150000 0  400000 1150000 0  450000 1150000 0  500000 1150000 0  550000 1150000 0  600000 1150000 0  650000 1150000 0  700000 1150000 0  750000 1150000 0  800000 1150000 0  850000 1150000 0  900000 1150000 0  950000 1150000 0  1000000 1150000 0  0 1200000 0  50000 1200000 0  100000 1200000 0  150000 1200000 0  200000 1200000 0  250000 1200000 0  300000 1200000 0  350000 1200000 0  400000 1200000 0  450000 1200000 0  500000 1200000 0  550000 1200000 0  600000 1200000 0  650000 1200000 0  700000 1200000 0  750000 1200000 0  800000 1200000 0  850000 1200000 0  900000 1200000 0  950000 1200000 0  1000000 1200000 0  0 1250000 0  50000 1250000 0  100000 1250000 0  150000 1250000 0  200000 1250000 0  250000 1250000 0  300000 1250000 0  350000 1250000 0  400000 1250000 0  450000 1250000 0  500000 1250000 0  550000 1250000 0  600000 1250000 0  650000 1250000 0  700000 1250000 0  750000 1250000 0  800000 1250000 0  850000 1250000 0  900000 1250000 0  950000 1250000 0  1000000 1250000 0  0 1300000 0  50000 1300000 0  100000 1300000 0  150000 1300000 0  200000 1300000 0  250000 1300000 0  300000 1300000 0  350000 1300000 0  400000 1300000 0  450000 1300000 0  500000 1300000 0  550000 1300000 0  600000 1300000 0  650000 1300000 0  700000 1300000 0  750000 1300000 0  800000 1300000 0  850000 1300000 0  900000 1300000 0  950000 1300000 0  1000000 1300000 0  0 1350000 0  50000 1350000 0  100000 1350000 0  150000 1350000 0  200000 1350000 0  250000 1350000 0  300000 1350000 0  350000 1350000 0  400000 1350000 0  450000 1350000 0  500000 1350000 0  550000 1350000 0  600000 1350000 0  650000 1350000 0  700000 135
[...]
<PointData  Scalars="f_3013"> 
<DataArray  type="Float64"  Name="f_3013"  format="ascii">-1.4705726428344372e+00  -9.9934879174360436e-01  -6.6970773950356166e-01  -4.4517694327744850e-01  -2.9512345272924090e-01  -1.9186307451186396e-01  -1.1732460337587891e-01  -6.0305751324868512e-02  -1.3802143981583829e-02  2.6755905642162216e-02  6.4612533409437622e-02  1.0242185343295064e-01  1.4281618844383209e-01  1.8896822832504628e-01  2.4531011920918219e-01  3.1862885133451307e-01  4.1987930498345560e-01  5.6715199683452988e-01  7.8910698989845740e-01  1.1182589112176891e+00  1.4541674743670117e+00  -1.1343621703378799e+00  -9.4836113300558189e-01  -6.5750283214723504e-01  -4.4466224142863331e-01  -2.9844778965375940e-01  -1.9601357650978635e-01  -1.2108316087997015e-01  -6.3219342084229371e-02  -1.5736408785090958e-02  2.5827698931304505e-02  6.4709514909113905e-02  1.0360432118877497e-01  1.4521201806819292e-01  1.9278823151168548e-01  2.5084615354410472e-01  3.2617804831523889e-01  4.2931433670356450e-01  5.7588907461169303e-01  7.8378857883388031e-01  1.0467666697798814e+00  1.2227452475218057e+00  -8.0618298255910792e-01  -7.3711652759917268e-01  -5.7065461668578887e-01  -4.1390573797366897e-01  -2.9090349750540118e-01  -1.9750740226614502e-01  -1.2539460743414152e-01  -6.7616121711273361e-02  -1.9046284113794828e-02  2.4082953029795146e-02  6.4705636795639190e-02  1.0537196471272367e-01  1.4864987629380699e-01  1.9753222392566461e-01  2.5589664740587742e-01  3.2900087700525993e-01  4.2371996251293725e-01  5.4724551481359007e-01  7.0006747172581818e-01  8.5331646010255169e-01  9.0676527785101269e-01  -5.6700473574986410e-01  -5.4033421612849375e-01  -4.5459494084762991e-01  -3.5442709689956536e-01  -2.6279717564025401e-01  -1.8542851024268964e-01  -1.2105854633479742e-01  -6.6684281056979419e-02  -1.9294362552047820e-02  2.3745698872768610e-02  6.4729972973913599e-02  1.0577461217000667e-01  1.4901508374362493e-01  1.9680392560068449e-01  2.5186369895323074e-01  3.1725778592208720e-01  3.9578333062382515e-01  4.8781900172340315e-01  5.8585500912009492e-01  6.6478351304114358e-01  6.7913352190353860e-01  -3.9743009751546504e-01  -3.8759351867282138e-01  -3.4561359994272689e-01  -2.8571280715184816e-01  -2.2221358438102184e-01  -1.6233601184257326e-01  -1.0829246188829600e-01  -5.9856814767059445e-02  -1.5850998177914417e-02  2.5192052259194828e-02  6.4787802234320929e-02  1.0444758969120552e-01  1.4569631748134884e-01  1.9008629445149938e-01  2.3912460419379777e-01  2.9397041600154655e-01  3.5463958326198913e-01  4.1834111399595675e-01  4.7684781297187506e-01  5.1473873579336538e-01  5.1677255599501637e-01  -2.7644113040557733e-01  -2.7384602335281966e-01  -2.5482395842234346e-01  -2.2045353868926157e-01  -1.7815821055435829e-01  -1.3370761578536991e-01  -9.0208479438422015e-02  -4.8818360381251175e-02  -9.5750738480842919e-03  2.8049786204209094e-02  6.4843720553490733e-02  1.0169452087195469e-01  1.3949612323491065e-01  1.7904946063074326e-01  2.2088473834055194e-01  2.6491216896854980e-01  3.0979976571153672e-01  3.5207603644717039e-01  3.8542252812367134e-01  4.0195073564848494e-01  3.9993257730023801e-01  -1.8902875772069661e-01  -1.8965751626684715e-01  -1.8263261152959234e-01  -1.6377892954403372e-01  -1.3627487840380653e-01  -1.0405516150240565e-01  -6.9964726821015177e-02  -3.5607198796628194e-02  -1.6643317025732440e-03  3.1758628186704364e-02  6.4874190646491151e-02  9.8033579754002897e-02  1.3158856109868988e-01  1.6574925550189223e-01  2.0039200238943450e-01  2.3477720170553346e-01  2.6717481901182671e-01  2.9452949322372018e-01  3.1265425839189198e-01  3.1820179827477196e-01  3.1488033386430198e-01  -1.2511857094918177e-01  -1.2714589904117904e-01  -1.2635396808475574e-01  -1.1677348394196037e-01  -9.9229842924286132e-02  -7.6183737942663893e-02  -4.9883852348821853e-02  -2.1905277800200105e-02  6.8145148403670362e-03  3.5803008231119003e-02  6.4874133151110153e-02  9.3975000238463557e-02  1.2305026776211664e-01  1.5190405676599775e-01  1.8003956503686830e-01  2.0647048812586624e-01  2.2954114115845231e-01  2.4689818816197742e-01  2.5598956339182621e-01  2.5593038034674059e-01  2.5231939235860917e-01  -7.7983979089453898e-02  -8.0543385252373895e-02  -8.2920347907964764e-02  -7.8834046592879597e-02  -6.7889975578562092e-02  -5.1524841347693855e-02  -3.1398651009523784e-02  -8.8749363772065003e-03  1.5070884716546218e-02  3.9789102078118171e-02  6.4849003774223257e-02  8.9926539598283492e-02  1.1469425836723826e-01  1.3871012036881289e-01  1.6130239201259125e-01  1.8146073038683577e-01  1.9777660031755609e-01  2.0854839065086583e-01  2.1232128598447744e-01  2.0946425181781253e-01  2.0596087853164688e-01  -4.3086639356167591e-02  -4.5764927570906715e-02  -4.9670733519491632e-02  -4.8813111331516383e-02  -4.2208465422641908e-02  -3.0629143289116277e-02  -1.5259958163919708e-02  2.7835520514356022e-03  2.2590300540388915e-02  4.3451753907961223e-02  6.4807373967476337e-02  8.6171694598921045e-02  1.0705607316779595e-01  1.2689016998602781e-01  1.4494876936790552e-01  1.6029873442780646e-01  1.7180309783821951e-01  1.7826795098219508e-01  1.7893091232886957e-01  1.7475934805113949e-01  1.7151100490909141e-01  -1.7319903792231944e-02  -1.9930058636864839e-02  -2.4493079429455222e-02  -2.5510182032916058e-02  -2.1744507297443018e-02  -1.3553438595155121e-02  -1.7709955491902645e-03  1.2710225473825278e-02  2.9078948399845244e-02  4.6632653523596725e-02  6.4756956326523174e-02  8.2884192713115784e-02  1.0044421903796559e-01  1.1681536737319655e-01  1.3128389330313445e-01  1.4302606075017052e-01  1.5114149220075473e-01  1.5480133784474484e-01  1.5366595404188765e-01  1.4895898544833580e-01  1.4600142255985102e-01  1.4686522344030512e-03  -1.0036701751202886e-03  -5.7766461175327334e-03  -7.8621590709541181e-03  -5.9400068596057697e-03  -1.1487197148667309e-04  9.0252525002456636e-03  2.0766053228477025e-02  3.4396902795940452e-02  4.9250577765674715e-02  6.4703225427308067e-02  8.0155629699328393e-02  9.5006849751353262e-02  1.0862815738766074e-01  1.2034544360393434e-01  1.2944182260357573e-01  1.3520205880504477e-01  1.3704789703233802e-01  1.3489192188832436e-01  1.3004326598939595e-01  1.2735902922861952e-01  1.4775233381629588e-02  1.2447772946500813e-02  7.6731577816311330e-03  4.9958125408212642e-03  5.7412766885600814e-03  9.9551213411947954e-03  1.7214867028751545e-02  2.6937998296881784e-02  3.8499092139019767e-02  5.1273544170310950e-02  6.4649384552523018e-02  7.8023678260188356e-02  9.0792397648219489e-02  1.0234058364148048e-01  1.1203974952990228e-01  1.1926176485272032e-01  1.2342590762122088e-01  1.2411923148122619e-01  1.2140108303643253e-01  1.1658836642426024e-01  1.1413379642409949e-01  2.3624927085038126e-02  2.1415119233330504e-02  1.6711333668711678e-02  1.3720955569280682e-02  1.3747338768305554e-02  1.6922053013268486e-02  2.2927697790411081e-02  3.1271169561365705e-02  4.1389978868462914e-02  5.2696614923799311e-02  6.4596841264685165e-02  7.6495447133575631e-02  8.7796601095480362e-02  9.7904414907058049e-02  1.0622939696548186e-01  1.1220811555147817e-01  1.1534963973591283e-01  1.1534368295636119e-01  1.1233115094024237e-01  1.0760951142376139e-01  1.0532808669106865e-01  2.8685590079794210e-02  2.6547260498330182e-02  2.1910671338390197e-02  1.8770741175004404e-02  1.8408191657956412e-02  2.0999174522112737e-02  2.6284835119313888e-02  3.3823835671116805e-02  4.3091898324940557e-02  5.3525970168988725e-02  6.4545770483954240e-02  7.5564596635476863e-02  8.5995469560139717e-02  9.5257387304039251e-02  1.0278648510857630e-01  1.0805825426477321e-01  1.1063269755063196e-01  1.1025469338850562e-01  1.0710507135136775e-01  1.0246158085572640e-01  1.0029101768778219e-01  3.0335636922785417e-02  2.8212171074063437e-02  2.3600066290618810e-02  2.0413588516460756e-02  1.9923602395479193e-02  2.2321433674175214e-02  2.7368163747609676e-02  3.4639825728555340e-02  4.3624893786532712e-02  5.3768588464443150e-02  6.4495606775863190e-02  7.5222625087282780e-02  8.5366319765194154e-02  9.4351387823172539e-02  1.0162304980411889e-01  1.0666977987755513e-01  1.0906761115625233e-01  1.0857762503527164e-01  1.0539114726111368e-01  1.0077904247766879e-01  9.8655576628947098e-02  2.8700195863951120e-02  2.6529632696006875e-02  2.1886142200365843e-02  1.8736520163227327e-02  1.8358516001100646e-02  2.0932959286957788e-02  2.6204728443153701e-02  3.3733826247689454e-02  4.2995743991586843e-02  5.3426616916248962e-02  6.4445443067771627e-02  7.5465243382737010e-02  8.5899315226785511e-02  9.5167377880609416e-02  1.0270637843241343e-01  1.0799203902961574e-01  1.1058302189377411e-01  1.1022047237672664e-01  1.0708054221334176e-01  1.0244395305340176e-01  1.0030562347193811e-01  2.3663126860664609e-02  2.1381702127972073e-02  1.6660062611491267e-02  1.3647530595372711e-02  1.3641573815820254e-02  1.6783098000252867e-02  2.2761816586248367e-02  3.1086798644670403e-02  4.1194612456246511e-02  5.2495766418150278e-02  6.4394372287039980e-02  7.6294598627925425e-02  8.7601234683261670e-02  9.7720043990359468e-02  1.0606351576131563e-01  1.1206916053845954e-01  1.1524387478342409e-01  1.1527025798244907e-01  1.1227987988301980e-01  1.0757609431840170e-01  1.0536628646669403e-01  1.4857417127635055e-02  1.2402847127474536e-02  7.5901305153026448e-03  4.8719820705088786e-03  5.5653059305130325e-03  9.7294486990112741e-03  1.6951464021827959e-02  2.6650629910247615e-02  3.8198815903506926e-02  5.0967535291536629e-02  6.4341828999201225e-02  7.7717669381413099e-02  9.0492121412703921e-02  1.0205321525484157e-01  1.1177634652297339e-01  1.1903609221053137e-01  1.2324993686316824e-01  1.2399540101090814e-01  1.2131805577009859e-01  1.1654344060522934e-01  1.1421598017010093e-01  1.6321843231155073e-03  -1.0520524376608185e-03  -5.9007083365884604e-03  -8.0566834806028373e-03  -6.2108452533105466e-03  -4.5060905184397945e-04  8.6457699477958203e-03  2.0363056164066560e-02  3.3984363800371974e-02  4.8835583852394830e-02  6.4287988124414094e-02  7.9740635786047148e-02  9.4594310755781230e-02  1.0822516032324410e-01  1.1996596105147651e-01  1.2910608552321015e-01  1.3493122041133229e-01  1.3685337262268157e-01  1.3476785966926053e-01  1.2999488372684839e-01  1.2752256131732551e-01  -1.7010209008114528e-02  -1.9967771896599300e-02  -2.4674740490150508e-02  -2.5810124293008829e-02  -2.2150278649019552e-02  -1.4034847198437839e-02  -2.2926797514047034e-03  1.2175846178529728e-02  2.8546994513758570e-02  4.6107020838605746e-02  6.4234257225196739e-02  8.2358560028122488e-02  9.9912265151873778e-02  1.1628098807789421e-01  1.3076220910091113e-01  1.4254465214687773e-01  1.5073572084916739e-01  1.5450139558464129e-01  1.5348429298118194e-01  1.4892127218859211e-01  1.4631111734395949e-01  -4.2519791357352878e-02  -4.5768134499401494e-02  -4.9939698777130587e-02  -4.9276737430457136e-02  -4.2811884286483540e-02  -3.1307520876073636e-02  -1.5957555816176573e-02  2.1010435656970733e-03  2.1935140383926289e-02  4.2819518952798813e-02  6.4183839584241356e-02  8.5539459643755852e-02  1.0640091301132767e-01  1.2620766150028190e-01  1.4425117171563911e-01  1.5962035684083697e-01  1.7119967897436414e-01  1.7780432488323999e-01  1.7866194707121719e-01  1.7475614112263305e-01  1.7207785290789385e-01  -7.6969664979907038e-02  -8.0473038266072716e-02  -8.3330072432737365e-02  -7.9557177099126977e-02  -6.8785386765819870e-02  -5.2469516835103404e-02  -3.2311178460863413e-02  -9.7189068170891162e-03  1.4296955184482211e-02  3.9064673953433972e-02  6.4142209777491785e-02  8.9202111473596468e-02  1.1392032883516848e-01  1.3786614992892166e-01  1.6038986456124044e-01  1.8051605489941186e-01  1.9688118913028216e-01  2.0782526014460201e-01  2.1191156145968881e-01  2.0953459880409930e-01  2.0697519264118019e-01  -1.2332817880686715e-01  -1.2693916679499745e-01  -1.2699834984008382e-01  -1.1790697461023852e-01  -1.0054992760671591e-01  -7.7479274574133963e-02  -5.1048351485141481e-02  -2.2912843214275502e-02  5.9409457896012641e-03  3.5016213313251277e-02  6.4117080400602280e-02  9.3188205320592826e-02  1.2217669871134486e-01  1.5089649135191255e-01  1.7887506590053562e-01  2.0517495149437920e-01  2.2822105647600438e-01  2.4576469749368118e-01  2.5534518163647940e-01  2.5613711259290500e-01  2.5410978450090838e-01  -1.8588912031255619e-01  -1.8921058472302610e-01  -1.8366304484014781e-01  -1.6553827967197923e-01  -1.3818360546008931e-01  -1.0578598815380121e-01  -7.1400788837707591e-02  -3.6758041950170205e-02  -2.5973475469725261e-03  3.0957633797710785e-02  6.4117022905219853e-02  9.7232585365005883e-02  1.3065554525428308e-01  1.6459841234833800e-01  1.9895594037272679e-01  2.3304637505411932e-01  2.6526609195552442e-01  2.9277014309575522e-01  3.1162382508131714e-01  3.1864872981857489e-01  3.1801997127242554e-01  -2.7094136374848615e-01  -2.7295952209673313e-01  -2.5643131457192081e-01  -2.2308482289542519e-01  -1.8080855215979683e-01  -1.3592095541681751e-01  -9.1893524788824968e-02  -5.0058247079020221e-02  -1.0504909683192903e-02  2.7296692679758861e-02  6.4147492998220659e-02  1.0094142734750139e-01  1.3856628739979501e-01  1.7780957393296157e-01  2.1919969299013339e-01  2.6269882933708505e-01  3.0714942410607737e-01  3.4944475224098553e-01  3.8381517197407083e-01  4.0283723690455120e-01  4.0543234395731037e-01  -3.8778134244325507e-01  -3.8574752224160519e-01  -3.4785659942011693e-01  -2.8934990044420605e-01  -2.2564836971024466e-01  -1.6497920244981107e-01  -1.1013339064206795e-01  -6.1095080899774105e-02  -1.6705103929628744e-02  2.4543623860510688e-02  6.4203411317393072e-02  1.0379916129251826e-01  1.4484221172962708e-01  1.8884802831877240e-01  2.3728367544001061e-01  2.9132722539429284e-01  3.5120479793274456e-01  4.1470402070357520e-01  4.7460481349445971e-01  5.1658473222455936e-01  5.2642131106720480e-01  -5.5014230835176370e-01  -5.3579229948937013e-01  -4.5686379556832796e-01  -3.5882778817164507e-01  -2.6679211707207501e-01  -1.8826657237034550e-01  -1.2287248540149537e-01  -6.7812712048954463e-02  -2.0023870191899735e-02  2.3216601381714993e-02  6.4261240577805426e-02  1.0524551467895021e-01  1.4828557610376589e-01  1.9567549460869860e-01  2.5004975988651984e-01  3.1441972379441591e-01  3.9178838919198505e-01  4.8341831045130051e-01  5.8358615439937123e-01  6.6932542968024156e-01  6.9599594930161446e-01  -7.7777406429922313e-01  -7.2432524655076158e-01  -5.7107625817403951e-01  -4.1825430126182184e-01  -2.9472874896117979e-01  -2.0000966345350971e-01  -1.2690543385413439e-01  -6.8541010373926653e-02  -1.9658662742074676e-02  2.3619248839005652e-02  6.4285576756088092e-02  1.0490826052193161e-01  1.4803749766552168e-01  1.9660733526300084e-01  2.5438582098587265e-01  3.2649861581788109e-01  4.1989471105714204e-01  5.4289695152541562e-01  6.9964583023754334e-01  8.6610774115093270e-01  9.3517419611087571e-01  -1.0937540339700058e+00  -9.1777545622808376e-01  -6.5479736528209587e-01  -4.4689786105991736e-01  -3.0032312315179777e-01  -1.9718683476348009e-01  -1.2185493999235300e-01  -6.3797017959939320e-02  -1.6220804516451900e-02  2.5386892362962668e-02  6.4281698642621302e-02  1.0316351462043066e-01  1.4472762233682654e-01  1.9221055563596692e-01  2.5007437443171138e-01  3.2500479006153160e-01  4.2743900320551198e-01  5.7365345498039355e-01  7.8649404569900661e-01  1.0773523465573587e+00  1.2633533838896589e+00  -1.3251762608152073e+00  -9.8926769766588663e-01  -6.6011577634666607e-01  -4.3816078328274966e-01  -2.9088809143168465e-01  -1.8963763778275114e-01  -1.1631890565742742e-01  -5.9977014773297962e-02  -1.3824974892088096e-02  2.6569360118790013e-02  6.4378680142300818e-02  1.0223530790957534e-01  1.4279335753332262e-01  1.8929696487660941e-01  2.4631581692762378e-01  3.2085428806361299e-01  4.2411466628099781e-01  5.7416815682921452e-01  7.9869895305533567e-01  1.1283400052953887e+00  1.5995638563862249e+00  </DataArray> 
</PointData> 
</Piece>
</UnstructuredGrid>
</VTKFile>