<?xml version="1.0"?>
<VTKFile type="UnstructuredGrid"  version="0.1"  >
<UnstructuredGrid>
<Piece  NumberOfPoints="651" NumberOfCells="1200">
<Points>
<DataArray  type="Float64"  NumberOfComponents="3"  format="ascii">0 0 0  50000 0 0  100000 0 0  150000 0 0  200000 0 0  250000 0 0  300000 0 0  350000 0 0  400000 0 0  450000 0 0  500000 0 0  550000 0 0  600000 0 0  650000 0 0  700000 0 0  750000 0 0  800000 0 0  850000 0 0  900000 0 0  950000 0 0  1000000 0 0  0 50000 0  50000 50000 0  100000 50000 0  150000 50000 0  200000 50000 0  250000 50000 0  300000 50000 0  350000 50000 0  400000 50000 0  450000 50000 0  500000 50000 0  550000 50000 0  600000 50000 0  650000 50000 0  700000 50000 0  750000 50000 0  800000 50000 0  850000 50000 0  900000 50000 0  950000 50000 0  1000000 50000 0  0 100000 0  50000 100000 0  100000 100000 0  150000 100000 0  200000 100000 0  250000 100000 0  300000 100000 0  350000 100000 0  400000 100000 0  450000 100000 0  500000 100000 0  550000 100000 0  600000 100000 0  650000 100000 0  700000 100000 0  750000 100000 0  800000 100000 0  850000 100000 0  900000 100000 0  950000 100000 0  1000000 100000 0  0 150000 0  50000 150000 0  100000 150000 0  150000 150000 0  200000 150000 0  250000 150000 0  300000 150000 0  350000 150000 0  400000 150000 0  450000 150000 0  500000 150000 0  550000 150000 0  600000 150000 0  650000 150000 0  700000 150000 0  750000 150000 0  800000 150000 0  850000 150000 0  900000 150000 0  950000 150000 0  1000000 150000 0  0 200000 0  50000 200000 0  100000 200000 0  150000 200000 0  200000 200000 0  250000 200000 0  300000 200000 0  350000 200000 0  400000 200000 0  450000 200000 0  500000 200000 0  550000 200000 0  600000 200000 0  650000 200000 0  700000 200000 0  750000 200000 0  800000 200000 0  850000 200000 0  900000 200000 0  950000 200000 0  1000000 200000 0  0 250000 0  50000 250000 0  100000 250000 0  150000 250000 0  200000 250000 0  250000 250000 0  300000 250000 0  350000 250000 0  400000 250000 0  450000 250000 0  500000 250000 0  550000 250000 0  600000 250000 0  650000 250000 0  700000 250000 0  750000 250000 0  800000 250000 0  850000 250000 0  900000 250000 0  950000 250000 0  1000000 250000 0  0 300000 0  50000 300000 0  100000 300000 0  150000 300000 0  200000 300000 0  250000 300000 0  300000 300000 0  350000 300000 0  400000 300000 0  450000 300000 0  500000 300000 0  550000 300000 0  600000 300000 0  650000 300000 0  700000 300000 0  750000 300000 0  800000 300000 0  850000 300000 0  900000 300000 0  950000 300000 0  1000000 300000 0  0 350000 0  50000 350000 0  100000 350000 0  150000 350000 0  200000 350000 0  250000 350000 0  300000 350000 0  350000 350000 0  400000 350000 0  450000 350000 0  500000 350000 0  550000 350000 0  600000 350000 0  650000 350000 0  700000 350000 0  750000 350000 0  800000 350000 0  850000 350000 0  900000 350000 0  950000 350000 0  1000000 350000 0  0 400000 0  50000 400000 0  100000 400000 0  150000 400000 0  200000 400000 0  250000 400000 0  300000 400000 0  350000 400000 0  400000 400000 0  450000 400000 0  500000 400000 0  550000 400000 0  600000 400000 0  650000 400000 0  700000 400000 0  750000 400000 0  800000 400000 0  850000 400000 0  900000 400000 0  950000 400000 0  1000000 400000 0  0 450000 0  50000 450000 0  100000 450000 0  150000 450000 0  200000 450000 0  250000 450000 0  300000 450000 0  350000 450000 0  400000 450000 0  450000 450000 0  500000 450000 0  550000 450000 0  600000 450000 0  650000 450000 0  700000 450000 0  750000 450000 0  800000 450000 0  850000 450000 0  900000 450000 0  950000 450000 0  1000000 450000 0  0 500000 0  50000 500000 0  100000 500000 0  150000 500000 0  200000 500000 0  250000 500000 0  300000 500000 0  350000 500000 0  400000 500000 0  450000 500000 0  500000 500000 0  550000 500000 0  600000 500000 0  650000 500000 0  700000 500000 0  750000 500000 0  800000 500000 0  850000 500000 0  900000 500000 0  950000 500000 0  1000000 500000 0  0 550000 0  50000 550000 0  100000 550000 0  150000 550000 0  200000 550000 0  250000 550000 0  300000 550000 0  350000 550000 0  400000 550000 0  450000 550000 0  500000 550000 0  550000 550000 0  600000 550000 0  650000 550000 0  700000 550000 0  750000 550000 0  800000 550000 0  850000 550000 0  900000 550000 0  950000 550000 0  1000000 550000 0  0 600000 0  50000 600000 0  100000 600000 0  150000 600000 0  200000 600000 0  250000 600000 0  300000 600000 0  350000 600000 0  400000 600000 0  450000 600000 0  500000 600000 0  550000 600000 0  600000 600000 0  650000 600000 0  700000 600000 0  750000 600000 0  800000 600000 0  850000 600000 0  900000 600000 0  950000 600000 0  1000000 600000 0  0 650000 0  50000 650000 0  100000 650000 0  150000 650000 0  200000 650000 0  250000 650000 0  300000 650000 0  350000 650000 0  400000 650000 0  450000 650000 0  500000 650000 0  550000 650000 0  600000 650000 0  650000 650000 0  700000 650000 0  750000 650000 0  800000 650000 0  850000 650000 0  900000 650000 0  950000 650000 0  1000000 650000 0  0 700000 0  50000 700000 0  100000 700000 0  150000 700000 0  200000 700000 0  250000 700000 0  300000 700000 0  350000 700000 0  400000 700000 0  450000 700000 0  500000 700000 0  550000 700000 0  600000 700000 0  650000 700000 0  700000 700000 0  750000 700000 0  800000 700000 0  850000 700000 0  900000 700000 0  950000 700000 0  1000000 700000 0  0 750000 0  50000 750000 0  100000 750000 0  150000 750000 0  200000 750000 0  250000 750000 0  300000 750000 0  350000 750000 0  400000 750000 0  450000 750000 0  500000 750000 0  550000 750000 0  600000 750000 0  650000 750000 0  700000 750000 0  750000 750000 0  800000 750000 0  850000 750000 0  900000 750000 0  950000 750000 0  1000000 750000 0  0 800000 0  50000 800000 0  100000 800000 0  150000 800000 0  200000 800000 0  250000 800000 0  300000 800000 0  350000 800000 0  400000 800000 0  450000 800000 0  500000 800000 0  550000 800000 0  600000 800000 0  650000 800000 0  700000 800000 0  750000 800000 0  800000 800000 0  850000 800000 0  900000 800000 0  950000 800000 0  1000000 800000 0  0 850000 0  50000 850000 0  100000 850000 0  150000 850000 0  200000 850000 0  250000 850000 0  300000 850000 0  350000 850000 0  400000 850000 0  450000 850000 0  500000 850000 0  550000 850000 0  600000 850000 0  650000 850000 0  700000 850000 0  750000 850000 0  800000 850000 0  850000 850000 0  900000 850000 0  950000 850000 0  1000000 850000 0  0 900000 0  50000 900000 0  100000 900000 0  150000 900000 0  200000 900000 0  250000 900000 0  300000 900000 0  350000 900000 0  400000 900000 0  450000 900000 0  500000 900000 0  550000 900000 0  600000 900000 0  650000 900000 0  700000 900000 0  750000 900000 0  800000 900000 0  850000 900000 0  900000 900000 0  950000 900000 0  1000000 900000 0  0 950000 0  50000 950000 0  100000 950000 0  150000 950000 0  200000 950000 0  250000 950000 0  300000 950000 0  350000 950000 0  400000 950000 0  450000 950000 0  500000 950000 0  550000 950000 0  600000 950000 0  650000 950000 0  700000 950000 0  750000 950000 0  800000 950000 0  850000 950000 0  900000 950000 0  950000 950000 0  1000000 950000 0  0 1000000 0  50000 1000000 0  100000 1000000 0  150000 1000000 0  200000 1000000 0  250000 1000000 0  300000 1000000 0  350000 1000000 0  400000 1000000 0  450000 1000000 0  500000 1000000 0  550000 1000000 0  600000 1000000 0  650000 1000000 0  700000 1000000 0  750000 1000000 0  800000 1000000 0  850000 1000000 0  900000 1000000 0  950000 1000000 0  1000000 1000000 0  0 1050000 0  50000 1050000 0  100000 1050000 0  150000 1050000 0  200000 1050000 0  250000 1050000 0  300000 1050000 0  350000 1050000 0  400000 1050000 0  450000 1050000 0  500000 1050000 0  550000 1050000 0  600000 1050000 0  650000 1050000 0  700000 1050000 0  750000 1050000 0  800000 1050000 0  850000 1050000 0  900000 1050000 0  950000 1050000 0  1000000 1050000 0  0 1100000 0  50000 1100000 0  100000 1100000 0  150000 1100000 0  200000 1100000 0  250000 1100000 0  300000 1100000 0  350000 1100000 0  400000 1100000 0  450000 1100000 0  500000 1100000 0  550000 1100000 0  600000 1100000 0  650000 1100000 0  700000 1100000 0  750000 1100000 0  800000 1100000 0  850000 1100000 0  900000 1100000 0  950000 1100000 0  1000000 1100000 0  0 1150000 0  50000 1150000 0  100000 1150000 0  150000 1150000 0  200000 1150000 0  250000 1150000 0  300000 1150000 0  350000 1150000 0  400000 1150000 0  450000 1150000 0  500000 1150000 0  550000 1150000 0  600000 1150000 0  650000 1150000 0  700000 1150000 0  750000 1150000 0  800000 1150000 0  850000 1150000 0  900000 1150000 0  950000 1150000 0  1000000 1150000 0  0 1200000 0  50000 1200000 0  100000 1200000 0  150000 1200000 0  200000 1200000 0  250000 1200000 0  300000 1200000 0  350000 1200000 0  400000 1200000 0  450000 1200000 0  500000 1200000 0  550000 1200000 0  600000 1200000 0  650000 1200000 0  700000 1200000 0  750000 1200000 0  800000 1200000 0  850000 1200000 0  900000 1200000 0  950000 1200000 0  1000000 1200000 0  0 1250000 0  50000 1250000 0  100000 1250000 0  150000 1250000 0  200000 1250000 0  250000 1250000 0  300000 1250000 0  350000 1250000 0  400000 1250000 0  450000 1250000 0  500000 1250000 0  550000 1250000 0  600000 1250000 0  650000 1250000 0  700000 1250000 0  750000 1250000 0  800000 1250000 0  850000 1250000 0  900000 1250000 0  950000 1250000 0  1000000 1250000 0  0 1300000 0  50000 1300000 0  100000 1300000 0  150000 1300000 0  200000 1300000 0  250000 1300000 0  300000 1300000 0  350000 1300000 0  400000 1300000 0  450000 1300000 0  500000 1300000 0  550000 1300000 0  600000 1300000 0  650000 1300000 0  700000 1300000 0  750000 1300000 0  800000 1300000 0  850000 1300000 0  900000 1300000 0  950000 1300000 0  1000000 1300000 0  0 1350000 0  50000 1350000 0  100000 1350000 0  150000 1350000 0  200000 1350000 0  250000 1350000 0  300000 1350000 0  350000 1350000 0  400000 1350000 0  450000 1350000 0  500000 1350000 0  550000 1350000 0  600000 1350000 0  650000 1350000 0  700000 135
[...]
<PointData  Scalars="f_3013"> 
<DataArray  type="Float64"  Name="f_3013"  format="ascii">-1.7320740973390518e+00  -1.1797014105797032e+00  -7.9320871380112834e-01  -5.3021316254970696e-01  -3.5486982399028283e-01  -2.3469732448579550e-01  -1.4845653587473887e-01  -8.2955631723634127e-02  -2.9926801002084162e-02  1.6038767080482779e-02  5.8791763660071855e-02  1.0148883956077642e-01  1.4726101548792872e-01  1.9987500546420581e-01  2.6457815896681025e-01  3.4938360071405122e-01  4.6719442160580582e-01  6.3927526441301308e-01  8.9924917987290909e-01  1.2851322675869485e+00  1.6788029971487410e+00  -1.3385187172448845e+00  -1.1204040534846635e+00  -7.7930117128172161e-01  -5.2997824359146184e-01  -3.5910236165226433e-01  -2.3985619241070216e-01  -1.5310583208543771e-01  -8.6559143967616617e-02  -3.2324105652543816e-02  1.4880542782446762e-02  5.8895836317627480e-02  1.0292629601349587e-01  1.5018185471353201e-01  2.0452597389996738e-01  2.7130015013999531e-01  3.5852234495874108e-01  4.7859646327585009e-01  6.4990663117849701e-01  8.9344970005243518e-01  1.2018216816454026e+00  1.4080398645508441e+00  -9.5468056513809252e-01  -8.7364035342410240e-01  -6.7841262693822357e-01  -4.9483343155793647e-01  -3.5111337302057194e-01  -2.4236800102116773e-01  -1.5879666313090526e-01  -9.2206195761778312e-02  -3.6541125318670133e-02  1.2660832318310966e-02  5.8882449175651073e-02  1.0515542786776290e-01  1.5453236904214646e-01  2.1056534555218576e-01  2.7784595177974569e-01  3.6258608068382880e-01  4.7289434452305207e-01  6.1724476297769026e-01  7.9622877920158086e-01  9.7593197332538151e-01  1.0385391760348492e+00  -6.7507556277144420e-01  -6.4375969101411401e-01  -5.4322462050600073e-01  -4.2598895733421488e-01  -3.1900701721449926e-01  -2.2896751984268710e-01  -1.5435626261268356e-01  -9.1615294968697539e-02  -3.7175892959176060e-02  1.2088839663858288e-02  5.8906286424294511e-02  1.0579494970648186e-01  1.5529612285402963e-01  2.1020621423716107e-01  2.7375625650408514e-01  3.4957714692962988e-01  4.4098594856329376e-01  5.4845734481143593e-01  6.6319697054584592e-01  7.5572146037635068e-01  7.7252969364305701e-01  -4.7685775233304040e-01  -4.6530545690328007e-01  -4.1613764142785492e-01  -3.4613803373780694e-01  -2.7211737162811878e-01  -2.0252509771606228e-01  -1.3992921304544992e-01  -8.4035243970691009e-02  -3.3430951258367994e-02  1.3635591574514432e-02  5.8973441719743433e-02  1.0438698410967079e-01  1.5169663643559370e-01  2.0275503542758100e-01  2.5936159916670970e-01  3.2290682265714910e-01  3.9343791848136606e-01  4.6770477136768784e-01  5.3606933959384628e-01  5.8042623791210302e-01  5.8280275172064067e-01  -3.3538873690949783e-01  -3.3235635101914562e-01  -3.1017401234387382e-01  -2.7014809837496989e-01  -2.2098860804673162e-01  -1.6944822916608340e-01  -1.1915028812331357e-01  -7.1429361100893499e-02  -2.6305080292034124e-02  1.6868155740717719e-02  5.9040543978452868e-02  1.0128027528767404e-01  1.4466282506355196e-01  1.9015435209604092e-01  2.3840278621544581e-01  2.8932743373242809e-01  3.4138802441426891e-01  3.9053045205717557e-01  4.2935391783359567e-01  4.4860207516718270e-01  4.4621370729846893e-01  -2.3311487227740330e-01  -2.3389214441985251e-01  -2.2584589139691369e-01  -2.0406241478574555e-01  -1.7226094445649015e-01  -1.3504473166365508e-01  -9.5735605435361540e-02  -5.6196938992924869e-02  -1.7208915424050366e-02  2.1125884036217391e-02  5.9078500441365672e-02  9.7083142573080483e-02  1.3557468780035586e-01  1.7482144384265610e-01  2.1469921825488877e-01  2.5435962921547078e-01  2.9178993485973720e-01  3.2341933913676374e-01  3.4434623116246998e-01  3.5065396231318940e-01  3.4671361553008756e-01  -1.5827600676165152e-01  -1.6072065944004266e-01  -1.6004841164712125e-01  -1.4918959138088214e-01  -1.2909096157042152e-01  -1.0262792253999325e-01  -7.2427318829985418e-02  -4.0323876985899322e-02  -7.4023744645630302e-03  2.5799370935983133e-02  5.9080585122038072e-02  9.2397232191232359e-02  1.2570240302322347e-01  1.5878380078225499e-01  1.9107499810557571e-01  2.2143353550362457e-01  2.4792924195656843e-01  2.6781099885427462e-01  2.7809476887484658e-01  2.7776483953262865e-01  2.7345944782365761e-01  -1.0303120365966435e-01  -1.0612340721678433e-01  -1.0922469454291701e-01  -1.0485685060646840e-01  -9.2523772619478542e-02  -7.3899513214205834e-02  -5.0923581200498051e-02  -2.5186440189324717e-02  2.1786924214183896e-03  3.0422311617452812e-02  5.9052911445694856e-02  8.7704650082486874e-02  1.1600768414075918e-01  1.4345716522622221e-01  1.6927759823233315e-01  1.9229443464603319e-01  2.1086371885375971e-01  2.2299607415669634e-01  2.2699526125719216e-01  2.2332803002590138e-01  2.1912580888624300e-01  -6.2094471293299799e-02  -6.5345042400104539e-02  -7.0286660977616947e-02  -6.9747110268008047e-02  -6.2528725906573310e-02  -4.9525165134315985e-02  -3.2120573580992129e-02  -1.1617457657823392e-02  1.0923268625950897e-02  3.4679909123808784e-02  5.9005484056871067e-02  8.3341626364931212e-02  1.0712622505575664e-01  1.2970073784419081e-01  1.5022375036406108e-01  1.6760818462953819e-01  1.8052587179302071e-01  1.8758124517419958e-01  1.8789169378041967e-01  1.8263621948390543e-01  1.7871441692378201e-01  -3.1847360621355562e-02  -3.5032263693864675e-02  -4.0781355807509918e-02  -4.2474482725906954e-02  -3.8608145327101849e-02  -2.9587679809480065e-02  -1.6386871231671634e-02  -4.8784967089362204e-05  1.8480334152837282e-02  3.8383305066727040e-02  5.8947393461064049e-02  7.9515200254415747e-02  9.9426399808980784e-02  1.1795965302452063e-01  1.3428448479160526e-01  1.4743980162538425e-01  1.5637302744831358e-01  1.6011591839163464e-01  1.5828351315144121e-01  1.5236402034415855e-01  1.4876932376518889e-01  -9.7807548129275404e-03  -1.2814014419183124e-02  -1.8836016690412259e-02  -2.1808059344192266e-02  -2.0122045270013083e-02  -1.3885200088869423e-02  -3.7831824907385305e-03  9.3487143546878617e-03  2.4680562627247601e-02  4.1434655006061888e-02  5.8885131921159059e-02  7.6335527536241302e-02  9.3087337244850896e-02  1.0840893121541219e-01  1.2151442450076171e-01  1.3156637434900501e-01  1.3772813504753573e-01  1.3932511984161816e-01  1.3627008101358440e-01  1.3015823832621995e-01  1.2687450453612256e-01  5.8521683185870244e-03  2.9822433053924955e-03  -3.0597894381407744e-03  -6.7443018329466893e-03  -6.4519314783435117e-03  -2.1120998066158155e-03  5.7836220477172498e-03  1.6553722887633730e-02  2.9467027788502374e-02  4.3794433333197005e-02  5.8822528234725287e-02  7.3848951013227832e-02  8.8170046380523628e-02  1.0106885754280301e-01  1.1181165283254367e-01  1.1966395890931569e-01  1.2394618678481639e-01  1.2417772612115242e-01  1.2044515260082493e-01  1.1435774772759151e-01  1.1133728012670613e-01  1.6250513079906475e-02  1.3514596486182019e-02  7.5443414118894631e-03  3.4807661204527048e-03  2.9205699265868680e-03  6.0364411877906320e-03  1.2460188650445809e-02  2.1614731543302148e-02  3.2841960221687533e-02  4.5455357253008970e-02  5.8761297284092212e-02  7.2065425776521100e-02  8.4672651877594290e-02  9.5887386434490504e-02  1.0502073976945232e-01  1.1141341908857312e-01  1.1449078168870393e-01  1.1389285417405727e-01  1.0980319228764582e-01  1.0381160905374845e-01  1.0099072482808218e-01  2.2197029649454268e-02  1.9542801854408466e-02  1.3645287469378705e-02  9.3996941858308595e-03  8.3780909460193804e-03  1.0806244685466012e-02  1.6384773490825625e-02  2.4597097944358225e-02  3.4829513204340405e-02  4.6423661908821981e-02  5.8701699563889882e-02  7.0978637477206702e-02  8.2569158537184079e-02  9.2794559073092434e-02  1.0099550529514953e-01  1.0655798380255893e-01  1.0896693573389502e-01  1.0792730122237819e-01  1.0367030012854650e-01  9.7764519986914503e-02  9.5072004241052471e-02  2.4135929953240494e-02  2.1498319767258873e-02  1.5627576281524086e-02  1.1325271054499131e-02  1.0152532686557447e-02  1.2353186983084097e-02  1.7651276785653303e-02  2.5550519150699523e-02  3.5452023425047580e-02  4.6706958043016257e-02  5.8643120571664861e-02  7.0579283100313042e-02  8.1834217718282878e-02  9.1735721992632260e-02  9.9634964357679420e-02  1.0493305416025078e-01  1.0713370845677886e-01  1.0596097008883831e-01  1.0165866486181348e-01  9.5787921376078472e-02  9.3150311190097201e-02  2.2214236902286081e-02  1.9521721156424005e-02  1.3615941014792344e-02  9.3589399209599161e-03  8.3193054094425171e-03  1.0728257340776745e-02  1.6290735848184756e-02  2.4491682070240290e-02  3.4717082606146088e-02  4.6307603666122438e-02  5.8584541579439209e-02  7.0862579234507006e-02  8.2456727938989074e-02  9.2689143198971549e-02  1.0090146765250554e-01  1.0647999645786670e-01  1.0890815019731577e-01  1.0788654695750502e-01  1.0364095367395827e-01  9.7743439288928508e-02  9.5089211493883150e-02  1.6295516315256303e-02  1.3474632089590153e-02  7.4830488556930815e-03  3.3933869692818800e-03  2.7954594546341074e-03  5.8728220547624305e-03  1.2265501373882097e-02  2.1398854708841852e-02  3.2613589265736161e-02  4.5220815366808033e-02  5.8524943859235991e-02  7.1830883890318858e-02  8.4444280921640177e-02  9.5671509600026294e-02  1.0482605249288456e-01  1.1124979995554143e-01  1.1436567121674714e-01  1.1380547502288155e-01  1.0974189973144688e-01  1.0377164465715530e-01  1.0103572806343077e-01  5.9489610166336632e-03  2.9284934157485908e-03  -3.1589114574843481e-03  -6.8914849778119137e-03  -6.6599456414774246e-03  -2.3777177659795724e-03  5.4745883107906864e-03  1.6217383600528750e-02  2.9116194762806084e-02  4.3437290130099962e-02  5.8463712908601750e-02  7.3491807810129914e-02  8.7819213354824108e-02  1.0073251825569252e-01  1.1150261909561093e-01  1.1939834094994556e-01  1.2373817262167597e-01  1.2403054297628047e-01  1.2034603058147494e-01  1.1430399783794222e-01  1.1143407282474813e-01  -9.5882633927823289e-03  -1.2871997182879548e-02  -1.8983839870243102e-02  -2.2038878698277673e-02  -2.0441893904196554e-02  -1.4280133205668875e-02  -4.2281833574276039e-03  8.8773099279184017e-03  2.4198903898477231e-02  4.0950713607084452e-02  5.8401109222165418e-02  7.5851586137262270e-02  9.2605678516076387e-02  1.0793752678863554e-01  1.2106942363406333e-01  1.3117144123219590e-01  1.3740828641334327e-01  1.3909430048752350e-01  1.3612225783374399e-01  1.3010025556251525e-01  1.2706699595626023e-01  -3.1483082621847132e-02  -3.5077779200816742e-02  -4.0997272008098579e-02  -4.2829677248293341e-02  -3.9086786304973406e-02  -3.0153560482046919e-02  -1.6998243648271755e-02  -6.7341188119131388e-04  1.7859841334345896e-02  3.7771040888907773e-02  5.8338847682257562e-02  7.8902936076593780e-02  9.8805906990483389e-02  1.1733502611041062e-01  1.3367311237499474e-01  1.4687392095280530e-01  1.5589438647042930e-01  1.5976072386923545e-01  1.5806759695084027e-01  1.5231850483719570e-01  1.4913360176468690e-01  -6.1428175780437855e-02  -6.5349978340561943e-02  -7.0605452637074961e-02  -7.0295004030856326e-02  -6.3239630649679870e-02  -5.0321943486200914e-02  -3.2937509220728786e-02  -1.2414496700863271e-02  1.0160016087567572e-02  3.3944614778390197e-02  5.8280757086447720e-02  8.2606332019509218e-02  1.0636297251736655e-01  1.2890369880114216e-01  1.4940681472431341e-01  1.6681140627763894e-01  1.7981496704989811e-01  1.8703335141133465e-01  1.8757290212094579e-01  1.8263128354343461e-01  1.7938071243662948e-01  -1.0183956774289760e-01  -1.0604178888255594e-01  -1.0970902011384639e-01  -1.0570983301335221e-01  -9.3577477710418897e-02  -7.5008193502696649e-02  -5.1991357089002238e-02  -2.6170924082896240e-02  1.2785570025627784e-03  2.9581591060831483e-02  5.8233329697620621e-02  8.6863929525862138e-02  1.1510754872189660e-01  1.4247268133264054e-01  1.6820982234381585e-01  1.9118575435752538e-01  2.0981001376280040e-01  2.2214309174979324e-01  2.2651093568624389e-01  2.2340964836011301e-01  2.2031744480299409e-01  -1.5617320668030976e-01  -1.6047859838927947e-01  -1.6080852773149840e-01  -1.5052475771093052e-01  -1.3064300081322744e-01  -1.0414729436028840e-01  -7.3788756962245988e-02  -4.1497559638930911e-02  -8.4161618799046961e-03  2.4889008952082802e-02  5.8205656021274171e-02  9.1486870207328375e-02  1.2468861560787453e-01  1.5761011812921166e-01  1.8971355997329956e-01  2.1991416368330935e-01  2.4637720271374133e-01  2.6647583252420493e-01  2.7733465279044750e-01  2.7800690058337191e-01  2.7556224790498157e-01  -2.2942737438673527e-01  -2.3336772116983687e-01  -2.2705999001911958e-01  -2.0613309799341739e-01  -1.7450369371639490e-01  -1.3707338807213473e-01  -9.7412977111559218e-02  -5.7535202699332356e-02  -1.8288446657037754e-02  2.0203098570233172e-02  5.8207740701944774e-02  9.6160357107092156e-02  1.3449515656735944e-01  1.7348318013623409e-01  2.1302184657867296e-01  2.5233097280696920e-01  2.8954718559980946e-01  3.2134865592906969e-01  3.4313213254024183e-01  3.5117838556318415e-01  3.5040111342073627e-01  -3.2892746615511009e-01  -3.3131583402382364e-01  -3.1206767669023822e-01  -2.7324421091382423e-01  -2.2410178327092370e-01  -1.7204119258909217e-01  -1.2111654507211636e-01  -7.2868110952716073e-02  -2.7376583920233469e-02  1.6005965855639452e-02  5.8245697164858001e-02  1.0041808540259214e-01  1.4359132143534428e-01  1.8871560224420358e-01  2.3643652926662498e-01  2.8673447030939953e-01  3.3827484919005307e-01  3.8743433951829698e-01  4.2746025348720407e-01  4.4964259216248131e-01  4.5267497805283530e-01  -4.6551651057726978e-01  -4.6313999676873319e-01  -4.1878309845047901e-01  -3.5041853022433028e-01  -2.7615167733801560e-01  -2.0562058151380916e-01  -1.4207535802337665e-01  -8.5468794284253510e-02  -3.4410395292272342e-02  1.2899257033645733e-02  5.8312799423570510e-02  1.0365064956879844e-01  1.5071719240168058e-01  2.0132148511400402e-01  2.5721545418876529e-01  3.1981133885938379e-01  3.8940361277144431e-01  4.6342427488113741e-01  5.3342388257119255e-01  5.8259169804662425e-01  5.9414399347638669e-01  -6.5524345249967031e-01  -6.3843521923296498e-01  -5.4591072940246843e-01  -4.3117110366806916e-01  -3.2369970741993670e-01  -2.3229090578628245e-01  -1.5647001536074542e-01  -9.2919973093828032e-02  -3.8009881710702256e-02  1.1491291436841139e-02  5.8379954719025448e-02  1.0519740147946141e-01  1.5446213410249510e-01  2.0890153611201789e-01  2.7164250375600846e-01  3.4625376098601696e-01  4.3629325835783472e-01  5.4327519847755523e-01  6.6051086164934891e-01  7.6104593215746963e-01  7.9236180391480260e-01  -9.2125293489144588e-01  -8.5864573218197615e-01  -6.7894253805818994e-01  -4.9995852183431133e-01  -3.5560810337968651e-01  -2.4529983954047138e-01  -1.6055971063639699e-01  -9.3279104408843364e-02  -3.7246127898810745e-02  1.2130813275569129e-02  5.8403791967678663e-02  1.0462540882501815e-01  1.5382736646199957e-01  2.0949243690510849e-01  2.7608290427424015e-01  3.5965424216450909e-01  4.6839961416391890e-01  6.1211967270129086e-01  7.9569886808158707e-01  9.9092659456747278e-01  1.0719668062814722e+00  -1.2907536234074284e+00  -1.0845354405019898e+00  -7.7616345890903859e-01  -5.3262039003510997e-01  -3.6131022213247405e-01  -2.4123610381537364e-01  -1.5401390899663625e-01  -8.7239732756615382e-02  -3.2895613570186041e-02  1.4359945129845963e-02  5.8390404825711568e-02  1.0240569836089222e-01  1.4961034679588356e-01  2.0384538511095882e-01  2.7039207322878450e-01  3.5714243355405395e-01  4.7638860279562489e-01  6.4726448473483222e-01  8.9658741242510553e-01  1.2376902946280539e+00  1.4558049583882771e+00  -1.5615167560053203e+00  -1.1678460264435297e+00  -7.8196293872950406e-01  -5.2198902326962093e-01  -3.4990818046242467e-01  -2.3209735957068015e-01  -1.4729191782344769e-01  -8.2588764320851132e-02  -2.9974774344579277e-02  1.5797401582568989e-02  5.8494477483270968e-02  1.0124747406285906e-01  1.4721304214542763e-01  2.0024187286698020e-01  2.6574277701808979e-01  3.5198356562915173e-01  4.7215606513364849e-01  6.4749940369308412e-01  9.1049495494451527e-01  1.2969876517231018e+00  1.8493603384824540e+00  </DataArray> 
</PointData> 
</Piece>
</UnstructuredGrid>
</VTKFile>