<?xml version="1.0"?>
<VTKFile type="UnstructuredGrid"  version="0.1"  >
<UnstructuredGrid>
<Piece  NumberOfPoints="651" NumberOfCells="1200">
<Points>
<DataArray  type="Float64"  NumberOfComponents="3"  format="ascii">0 0 0  50000 0 0  100000 0 0  150000 0 0  200000 0 0  250000 0 0  300000 0 0  350000 0 0  400000 0 0  450000 0 0  500000 0 0  550000 0 0  600000 0 0  650000 0 0  700000 0 0  750000 0 0  800000 0 0  850000 0 0  900000 0 0  950000 0 0  1000000 0 0  0 50000 0  50000 50000 0  100000 50000 0  150000 50000 0  200000 50000 0  250000 50000 0  300000 50000 0  350000 50000 0  400000 50000 0  450000 50000 0  500000 50000 0  550000 50000 0  600000 50000 0  650000 50000 0  700000 50000 0  750000 50000 0  800000 50000 0  850000 50000 0  900000 50000 0  950000 50000 0  1000000 50000 0  0 100000 0  50000 100000 0  100000 100000 0  150000 100000 0  200000 100000 0  250000 100000 0  300000 100000 0  350000 100000 0  400000 100000 0  450000 100000 0  500000 100000 0  550000 100000 0  600000 100000 0  650000 100000 0  700000 100000 0  750000 100000 0  800000 100000 0  850000 100000 0  900000 100000 0  950000 100000 0  1000000 100000 0  0 150000 0  50000 150000 0  100000 150000 0  150000 150000 0  200000 150000 0  250000 150000 0  300000 150000 0  350000 150000 0  400000 150000 0  450000 150000 0  500000 150000 0  550000 150000 0  600000 150000 0  650000 150000 0  700000 150000 0  750000 150000 0  800000 150000 0  850000 150000 0  900000 150000 0  950000 150000 0  1000000 150000 0  0 200000 0  50000 200000 0  100000 200000 0  150000 200000 0  200000 200000 0  250000 200000 0  300000 200000 0  350000 200000 0  400000 200000 0  450000 200000 0  500000 200000 0  550000 200000 0  600000 200000 0  650000 200000 0  700000 200000 0  750000 200000 0  800000 200000 0  850000 200000 0  900000 200000 0  950000 200000 0  1000000 200000 0  0 250000 0  50000 250000 0  100000 250000 0  150000 250000 0  200000 250000 0  250000 250000 0  300000 250000 0  350000 250000 0  400000 250000 0  450000 250000 0  500000 250000 0  550000 250000 0  600000 250000 0  650000 250000 0  700000 250000 0  750000 250000 0  800000 250000 0  850000 250000 0  900000 250000 0  950000 250000 0  1000000 250000 0  0 300000 0  50000 300000 0  100000 300000 0  150000 300000 0  200000 300000 0  250000 300000 0  300000 300000 0  350000 300000 0  400000 300000 0  450000 300000 0  500000 300000 0  550000 300000 0  600000 300000 0  650000 300000 0  700000 300000 0  750000 300000 0  800000 300000 0  850000 300000 0  900000 300000 0  950000 300000 0  1000000 300000 0  0 350000 0  50000 350000 0  100000 350000 0  150000 350000 0  200000 350000 0  250000 350000 0  300000 350000 0  350000 350000 0  400000 350000 0  450000 350000 0  500000 350000 0  550000 350000 0  600000 350000 0  650000 350000 0  700000 350000 0  750000 350000 0  800000 350000 0  850000 350000 0  900000 350000 0  950000 350000 0  1000000 350000 0  0 400000 0  50000 400000 0  100000 400000 0  150000 400000 0  200000 400000 0  250000 400000 0  300000 400000 0  350000 400000 0  400000 400000 0  450000 400000 0  500000 400000 0  550000 400000 0  600000 400000 0  650000 400000 0  700000 400000 0  750000 400000 0  800000 400000 0  850000 400000 0  900000 400000 0  950000 400000 0  1000000 400000 0  0 450000 0  50000 450000 0  100000 450000 0  150000 450000 0  200000 450000 0  250000 450000 0  300000 450000 0  350000 450000 0  400000 450000 0  450000 450000 0  500000 450000 0  550000 450000 0  600000 450000 0  650000 450000 0  700000 450000 0  750000 450000 0  800000 450000 0  850000 450000 0  900000 450000 0  950000 450000 0  1000000 450000 0  0 500000 0  50000 500000 0  100000 500000 0  150000 500000 0  200000 500000 0  250000 500000 0  300000 500000 0  350000 500000 0  400000 500000 0  450000 500000 0  500000 500000 0  550000 500000 0  600000 500000 0  650000 500000 0  700000 500000 0  750000 500000 0  800000 500000 0  850000 500000 0  900000 500000 0  950000 500000 0  1000000 500000 0  0 550000 0  50000 550000 0  100000 550000 0  150000 550000 0  200000 550000 0  250000 550000 0  300000 550000 0  350000 550000 0  400000 550000 0  450000 550000 0  500000 550000 0  550000 550000 0  600000 550000 0  650000 550000 0  700000 550000 0  750000 550000 0  800000 550000 0  850000 550000 0  900000 550000 0  950000 550000 0  1000000 550000 0  0 600000 0  50000 600000 0  100000 600000 0  150000 600000 0  200000 600000 0  250000 600000 0  300000 600000 0  350000 600000 0  400000 600000 0  450000 600000 0  500000 600000 0  550000 600000 0  600000 600000 0  650000 600000 0  700000 600000 0  750000 600000 0  800000 600000 0  850000 600000 0  900000 600000 0  950000 600000 0  1000000 600000 0  0 650000 0  50000 650000 0  100000 650000 0  150000 650000 0  200000 650000 0  250000 650000 0  300000 650000 0  350000 650000 0  400000 650000 0  450000 650000 0  500000 650000 0  550000 650000 0  600000 650000 0  650000 650000 0  700000 650000 0  750000 650000 0  800000 650000 0  850000 650000 0  900000 650000 0  950000 650000 0  1000000 650000 0  0 700000 0  50000 700000 0  100000 700000 0  150000 700000 0  200000 700000 0  250000 700000 0  300000 700000 0  350000 700000 0  400000 700000 0  450000 700000 0  500000 700000 0  550000 700000 0  600000 700000 0  650000 700000 0  700000 700000 0  750000 700000 0  800000 700000 0  850000 700000 0  900000 700000 0  950000 700000 0  1000000 700000 0  0 750000 0  50000 750000 0  100000 750000 0  150000 750000 0  200000 750000 0  250000 750000 0  300000 750000 0  350000 750000 0  400000 750000 0  450000 750000 0  500000 750000 0  550000 750000 0  600000 750000 0  650000 750000 0  700000 750000 0  750000 750000 0  800000 750000 0  850000 750000 0  900000 750000 0  950000 750000 0  1000000 750000 0  0 800000 0  50000 800000 0  100000 800000 0  150000 800000 0  200000 800000 0  250000 800000 0  300000 800000 0  350000 800000 0  400000 800000 0  450000 800000 0  500000 800000 0  550000 800000 0  600000 800000 0  650000 800000 0  700000 800000 0  750000 800000 0  800000 800000 0  850000 800000 0  900000 800000 0  950000 800000 0  1000000 800000 0  0 850000 0  50000 850000 0  100000 850000 0  150000 850000 0  200000 850000 0  250000 850000 0  300000 850000 0  350000 850000 0  400000 850000 0  450000 850000 0  500000 850000 0  550000 850000 0  600000 850000 0  650000 850000 0  700000 850000 0  750000 850000 0  800000 850000 0  850000 850000 0  900000 850000 0  950000 850000 0  1000000 850000 0  0 900000 0  50000 900000 0  100000 900000 0  150000 900000 0  200000 900000 0  250000 900000 0  300000 900000 0  350000 900000 0  400000 900000 0  450000 900000 0  500000 900000 0  550000 900000 0  600000 900000 0  650000 900000 0  700000 900000 0  750000 900000 0  800000 900000 0  850000 900000 0  900000 900000 0  950000 900000 0  1000000 900000 0  0 950000 0  50000 950000 0  100000 950000 0  150000 950000 0  200000 950000 0  250000 950000 0  300000 950000 0  350000 950000 0  400000 950000 0  450000 950000 0  500000 950000 0  550000 950000 0  600000 950000 0  650000 950000 0  700000 950000 0  750000 950000 0  800000 950000 0  850000 950000 0  900000 950000 0  950000 950000 0  1000000 950000 0  0 1000000 0  50000 1000000 0  100000 1000000 0  150000 1000000 0  200000 1000000 0  250000 1000000 0  300000 1000000 0  350000 1000000 0  400000 1000000 0  450000 1000000 0  500000 1000000 0  550000 1000000 0  600000 1000000 0  650000 1000000 0  700000 1000000 0  750000 1000000 0  800000 1000000 0  850000 1000000 0  900000 1000000 0  950000 1000000 0  1000000 1000000 0  0 1050000 0  50000 1050000 0  100000 1050000 0  150000 1050000 0  200000 1050000 0  250000 1050000 0  300000 1050000 0  350000 1050000 0  400000 1050000 0  450000 1050000 0  500000 1050000 0  550000 1050000 0  600000 1050000 0  650000 1050000 0  700000 1050000 0  750000 1050000 0  800000 1050000 0  850000 1050000 0  900000 1050000 0  950000 1050000 0  1000000 1050000 0  0 1100000 0  50000 1100000 0  100000 1100000 0  150000 1100000 0  200000 1100000 0  250000 1100000 0  300000 1100000 0  350000 1100000 0  400000 1100000 0  450000 1100000 0  500000 1100000 0  550000 1100000 0  600000 1100000 0  650000 1100000 0  700000 1100000 0  750000 1100000 0  800000 1100000 0  850000 1100000 0  900000 1100000 0  950000 1100000 0  1000000 1100000 0  0 1150000 0  50000 1150000 0  100000 1150000 0  150000 1150000 0  200000 1150000 0  250000 1150000 0  300000 1150000 0  350000 1150000 0  400000 1150000 0  450000 1150000 0  500000 1150000 0  550000 1150000 0  600000 1150000 0  650000 1150000 0  700000 1150000 0  750000 1150000 0  800000 1150000 0  850000 1150000 0  900000 1150000 0  950000 1150000 0  1000000 1150000 0  0 1200000 0  50000 1200000 0  100000 1200000 0  150000 1200000 0  200000 1200000 0  250000 1200000 0  300000 1200000 0  350000 1200000 0  400000 1200000 0  450000 1200000 0  500000 1200000 0  550000 1200000 0  600000 1200000 0  650000 1200000 0  700000 1200000 0  750000 1200000 0  800000 1200000 0  850000 1200000 0  900000 1200000 0  950000 1200000 0  1000000 1200000 0  0 1250000 0  50000 1250000 0  100000 1250000 0  150000 1250000 0  200000 1250000 0  250000 1250000 0  300000 1250000 0  350000 1250000 0  400000 1250000 0  450000 1250000 0  500000 1250000 0  550000 1250000 0  600000 1250000 0  650000 1250000 0  700000 1250000 0  750000 1250000 0  800000 1250000 0  850000 1250000 0  900000 1250000 0  950000 1250000 0  1000000 1250000 0  0 1300000 0  50000 1300000 0  100000 1300000 0  150000 1300000 0  200000 1300000 0  250000 1300000 0  300000 1300000 0  350000 1300000 0  400000 1300000 0  450000 1300000 0  500000 1300000 0  550000 1300000 0  600000 1300000 0  650000 1300000 0  700000 1300000 0  750000 1300000 0  800000 1300000 0  850000 1300000 0  900000 1300000 0  950000 1300000 0  1000000 1300000 0  0 1350000 0  50000 1350000 0  100000 1350000 0  150000 1350000 0  200000 1350000 0  250000 1350000 0  300000 1350000 0  350000 1350000 0  400000 1350000 0  450000 1350000 0  500000 1350000 0  550000 1350000 0  600000 1350000 0  650000 1350000 0  700000 135
[...]
<PointData  Scalars="f_3013"> 
<DataArray  type="Float64"  Name="f_3013"  format="ascii">-8.7635232082923098e-01  -5.9462055748316345e-01  -3.9791452473888422e-01  -2.6343625869352894e-01  -1.7267465020534536e-01  -1.0914380332917184e-01  -6.2180740893285735e-02  -2.5238484708763040e-02  5.7340308604205701e-03  3.3350748460532958e-02  5.9448183340230588e-02  8.5518383183133539e-02  1.1304062667781017e-01  1.4380940915337578e-01  1.8035723047979471e-01  2.2660519143396365e-01  2.8895002923754975e-01  3.7806211158161263e-01  5.1102591553821652e-01  7.0758461106342752e-01  9.0868273817167189e-01  -6.7407520610203020e-01  -5.6309250167054659e-01  -3.8974627960308217e-01  -2.6233383214051287e-01  -1.7394316500738322e-01  -1.1099995122773003e-01  -6.3912178399789896e-02  -2.6583976721528062e-02  4.8502143913148141e-03  3.2942734419276136e-02  5.9526492532566450e-02  8.6118057167055465e-02  1.1423678008323429e-01  1.4572694528265157e-01  1.8317096399001395e-01  2.3049630407996963e-01  2.9385065723516490e-01  3.8243948437280462e-01  5.0689698381365156e-01  6.6373475800529469e-01  7.6909478327871827e-01  -4.7613434401237820e-01  -4.3505228702563026e-01  -3.3591067585310186e-01  -2.4201927675440382e-01  -1.6760763162397202e-01  -1.1026594468158347e-01  -6.5129953006991231e-02  -2.8163138235286114e-02  3.5866106090947764e-03  3.2268861074519421e-02  5.9542625183143211e-02  8.6841918073144522e-02  1.1561111566523156e-01  1.4754353656635294e-01  1.8485251452927190e-01  2.3056630086274138e-01  2.8867489315292366e-01  3.6337284705413037e-01  4.5492407961344222e-01  5.4627636443499916e-01  5.7831013427167732e-01  -3.3174027949748586e-01  -3.1592501525586458e-01  -2.6481948604956002e-01  -2.0464766779690907e-01  -1.4903191871771812e-01  -1.0142961889879673e-01  -6.1165800898591062e-02  -2.6535250096091895e-02  4.1720064281335475e-03  3.2443628863565603e-02  5.9567122526420671e-02  8.6725584164455374e-02  1.1511328827244890e-01  1.4605155218143248e-01  1.8107881141683060e-01  2.2193427071777783e-01  2.7020123600059437e-01  3.2603741230818356e-01  3.8494480574834883e-01  4.3205520682921722e-01  4.4065527601880616e-01  -2.2941633687208043e-01  -2.2357829800183135e-01  -1.9840876661099868e-01  -1.6216746571617405e-01  -1.2335264045602592e-01  -8.6301787041126329e-02  -5.2391061674022923e-02  -2.1550943620668180e-02  6.8527632855390911e-03  3.3625847406274487e-02  5.9603146541257021e-02  8.5617239249770771e-02  1.1250849028609959e-01  1.4113284952487515e-01  1.7231884886329610e-01  2.0668904277214223e-01  2.4419038646521796e-01  2.8311134095890367e-01  3.1853090467366130e-01  3.4130601527047727e-01  3.4255028137003163e-01  -1.5653189392755867e-01  -1.5494011674520328e-01  -1.4328581552288899e-01  -1.2215467278004076e-01  -9.5964668683166054e-02  -6.8180246471613096e-02  -4.0693546776451407e-02  -1.4242734698886556e-02  1.1096860512542132e-02  3.5584729817560605e-02  5.9633378240278694e-02  8.3714425314264262e-02  1.0830296472533918e-01  1.3381903421738411e-01  1.6052280594702570e-01  1.8830856759559930e-01  2.1633741155047975e-01  2.4250728971588809e-01  2.6303674713040459e-01  2.7323105664744979e-01  2.7209926794101186e-01  -1.0399735763232160e-01  -1.0425892758095570e-01  -9.9592051777382493e-02  -8.7590689964177834e-02  -7.0175620201089015e-02  -4.9713349490971732e-02  -2.7926834120352979e-02  -5.8060619516719205e-03  1.6202882947432485e-02  3.7993656947111869e-02  5.9646934645140669e-02  8.1324920552089466e-02  1.0319006312585011e-01  1.2532146590520282e-01  1.4760190814043098e-01  1.6955181310896264e-01  1.9010866723957814e-01  2.0742933750883316e-01  2.1900255859210763e-01  2.2280487410563732e-01  2.2095223306177006e-01  -6.5677772622069169e-02  -6.6714322223694458e-02  -6.5620685256232644e-02  -5.9034421161827819e-02  -4.7504376090663790e-02  -3.2518029608061778e-02  -1.5433745681947868e-02  2.7863734833256273e-03  2.1554527035946798e-02  4.0555619522924850e-02  5.9642439064510895e-02  7.8745769745508357e-02  9.7794929668279323e-02  1.1663691368380974e-01  1.3494247913065882e-01  1.5209570857623309e-01  1.6708859850408198e-01  1.7850379919697784e-01  1.8480244312924593e-01  1.8539839685562631e-01  1.8342689634259896e-01  -3.7465237362168217e-02  -3.8773525069654480e-02  -3.9456620984971408e-02  -3.6051113491706727e-02  -2.8404683064424556e-02  -1.7396634396326566e-02  -4.0288146330549231e-03  1.0870606971192165e-02  2.6699520762829047e-02  4.3045515070531996e-02  5.9623751186370658e-02  7.6211520481667613e-02  9.2584121344915296e-02  1.0845010697559782e-01  1.2338431887309366e-01  1.3676465375239408e-01  1.4773760131877695e-01  1.5527860596096410e-01  1.5849926472749923e-01  1.5753556203385796e-01  1.5567122512558038e-01  -1.6590219545693421e-02  -1.7937780393316966e-02  -1.9451828474648249e-02  -1.7899807533257438e-02  -1.2798757915013032e-02  -4.6356654217383818e-03  5.8736308761418547e-03  1.8053932104975221e-02  3.1347549709187739e-02  4.5313464959409709e-02  5.9596067306598950e-02  7.3883110199760599e-02  8.7860501080957346e-02  1.0116695125992975e-01  1.1335184328962139e-01  1.2384496479017094e-01  1.3195931001617919e-01  1.3697483116987039e-01  1.3841136583144473e-01  1.3674169500588637e-01  1.3505934770078487e-01  -1.1661399588252309e-03  -2.4538250064997129e-03  -4.3082819218323637e-03  -3.8257478351049630e-03  -3.8738103504999666e-04  5.7628920164882825e-03  1.4119008059817331e-02  2.4141648772634826e-02  3.5336772440597658e-02  4.7271715885023630e-02  5.9563868598497841e-02  7.1857226449518072e-02  8.3794353987557649e-02  9.4988449037746212e-02  1.0500043656640527e-01  1.1332928472063042e-01  1.1943162783650982e-01  1.2280511526688249e-01  1.2321676251934517e-01  1.2127741495736302e-01  1.1978630579979840e-01  1.0102425583212718e-02  8.9065471044476024e-03  6.9550131112864656e-03  6.8290533132474452e-03  9.1868740205902893e-03  1.3930950316969963e-02  2.0701232832912728e-02  2.9066092639506887e-02  3.8594108311154257e-02  4.8876997549749217e-02  5.9530250450984971e-02  7.0182979472600993e-02  8.0463308594787952e-02  8.9983943599503860e-02  9.8332707513719003e-02  1.0507474108353992e-01  1.0977819902121716e-01  1.1208909760149774e-01  1.1192025317914203e-01  1.0992335458832617e-01  1.0860365403402039e-01  1.8105126171878885e-02  1.6998797930611580e-02  1.5058118013359113e-02  1.4593278942835089e-02  1.6259162241455485e-02  2.0044111650343494e-02  2.5685471122402818e-02  3.2830590827114592e-02  4.1100352966574320e-02  5.0114084286444191e-02  5.9496963090356028e-02  6.8878670317990581e-02  7.7888265823738770e-02  8.6149236597149667e-02  9.3278742386157507e-02  9.8896236675308988e-02  1.0265030737999498e-01  1.0428403273908886e-01  1.0379385296518799e-01  1.0182965490137057e-01  1.0064911708936107e-01  2.3443299992555639e-02  2.2406893282887714e-02  2.0510929997158370e-02  1.9864445089217090e-02  2.1105375142722836e-02  2.4270478206050935e-02  2.9158400126619941e-02  3.5469699191613670e-02  4.2863553687029543e-02  5.0982748702624620e-02  5.9464713248203419e-02  6.7945562375003113e-02  7.6061061328230484e-02  8.3447713956696160e-02  8.9747217483450561e-02  9.4618295360214474e-02  9.7762874301945718e-02  9.8983804940336942e-02  9.8323257676946801e-02  9.6415802327216471e-02  9.5337568843624432e-02  2.6503739635267722e-02  2.5508795267106532e-02  2.3651753553791115e-02  2.2916857306302458e-02  2.3926735562308687e-02  2.6742914953039914e-02  3.1197954315874677e-02  3.7023056403551559e-02  4.3900526571825312e-02  5.1488446963267938e-02  5.9433500093110082e-02  6.7377902972207249e-02  7.4963717902260918e-02  8.1837226864448873e-02  8.7656072869909424e-02  9.2102472062322041e-02  9.4908451112772962e-02  9.5908754701794580e-02  9.5167597775233134e-02  9.3305919891943395e-02  9.2292134450990729e-02  2.7503418611078041e-02  2.6516876514725660e-02  2.4673422129094267e-02  2.3910480004239992e-02  2.4844296994014817e-02  2.7544792395410113e-02  3.1856033074567421e-02  3.7519483672787450e-02  4.4225160438481161e-02  5.1636314068030049e-02  5.9402901787122250e-02  6.7169489506213972e-02  7.4580643135763333e-02  8.1286319901457543e-02  8.6949770499677781e-02  9.1261011178835949e-02  9.3961506580231863e-02  9.4895323570007017e-02  9.4132381445152777e-02  9.2288927059521159e-02  9.1302384963168948e-02  2.6513669123256877e-02  2.5499883682304186e-02  2.3638205799014621e-02  2.2897048872452752e-02  2.3897352461474335e-02  2.6703331511924389e-02  3.1149730704336638e-02  3.6968576709796669e-02  4.3842085671983479e-02  5.1427900602036766e-02  5.9372303481134078e-02  6.7317356610976126e-02  7.4905277002418752e-02  8.1782747170692408e-02  8.7607849258369813e-02  9.2062888621205055e-02  9.4879068011937406e-02  9.5888946267943809e-02  9.5154050020455627e-02  9.3297008307140036e-02  9.2302063938979065e-02  2.3468234730623296e-02  2.2390001247031364e-02  2.0482545897301127e-02  1.9821998633911118e-02  2.1042929272301968e-02  2.4187508214032181e-02  2.9058586090795750e-02  3.5358089617549250e-02  4.2744742246014121e-02  5.0860241199241069e-02  5.9341090326040409e-02  6.7823054871619021e-02  7.5942249887213778e-02  8.3336104382629839e-02  8.9647403447624383e-02  9.4535325368193979e-02  9.7700428431522796e-02  9.8941358485028441e-02  9.8294873577088049e-02  9.6398910291359163e-02  9.5362503581691183e-02  1.8156686484887566e-02  1.6976148672878159e-02  1.5011950609060919e-02  1.4521770835159990e-02  1.6155496194253303e-02  1.9909566898938098e-02  2.5527061188089027e-02  3.2656566977095756e-02  4.0917537750505800e-02  4.9927133256253357e-02  5.9308840483887543e-02  6.8691719287799255e-02  7.7705450607668744e-02  8.5975212747128077e-02  9.3120332451840745e-02  9.8761691923900455e-02  1.0254664133278940e-01  1.0421252463141047e-01  1.0374768556088645e-01  1.0180700564363419e-01  1.0070067740236710e-01  1.0202149540228788e-02  8.8824489859230613e-03  6.8855503951074908e-03  6.7167059727514930e-03  9.0276045530315509e-03  1.3731062490707508e-02  2.0473096060527784e-02  2.8821859974741432e-02  3.8342494979456236e-02  4.8622824101642245e-02  5.9275553123257649e-02  6.9928806024493237e-02  8.0211695263087898e-02  8.9739710934734845e-02  9.8104570741329430e-02  1.0487485325727264e-01  1.0961892955365383e-01  1.1197675026099715e-01  1.1185079046295821e-01  1.0989925646979713e-01  1.0870337799103226e-01  -9.8050222554815010e-04  -2.4716113831128547e-03  -4.4109589450946410e-03  -3.9993116926326649e-03  -6.2582426226031132e-04  5.4765188536177846e-03  1.3805367007841577e-02  2.3817354536498945e-02  3.5011449586686345e-02  4.6948577124724500e-02  5.9241934975743885e-02  7.1534087689217610e-02  8.3469031133643345e-02  9.4664154801606434e-02  1.0468679551442436e-01  1.1304291155775409e-01  1.1919318460929323e-01  1.2263155140934849e-01  1.2311408549607651e-01  1.2125962858074417e-01  1.1997194353306989e-01  -1.6253544126533240e-02  -1.7935891431635011e-02  -1.9605562257192889e-02  -1.8169027595619055e-02  -1.3153506441928885e-02  -5.0391612159223715e-03  5.4539602846252156e-03  1.7638852314314831e-02  3.0945302493286003e-02  4.4922693374481418e-02  5.9209736267641956e-02  7.3492338614830705e-02  8.7458253865052363e-02  1.0075187146926520e-01  1.1293217269809926e-01  1.2344146899597988e-01  1.3160456148925523e-01  1.3670561110750024e-01  1.3825763204889194e-01  1.3674358396756101e-01  1.3539602311993751e-01  -3.6865421551327653e-02  -3.8729758459605280e-02  -3.9693461153246325e-02  -3.6472802386712092e-02  -2.8931797744526304e-02  -1.7958850178145448e-02  -4.5785152988474121e-03  1.0355696598646529e-02  2.6221682229327463e-02  4.2594283092573459e-02  5.9182052387869152e-02  7.5760288503707529e-02  9.2106282811410534e-02  1.0793519660304721e-01  1.2283461820729465e-01  1.3620243797056686e-01  1.4721048663866573e-01  1.5485691706594903e-01  1.5826242455921444e-01  1.5757932864389804e-01  1.5627104093641231e-01  -6.4621092768344643e-02  -6.6592593281371446e-02  -6.5996639554991646e-02  -5.9697995622725368e-02  -4.8282794929831063e-02  -3.3289905001984373e-02  -1.6136675556412891e-02  2.1688898904339612e-03  2.1010873905962263e-02  4.0060033828731550e-02  5.9163364509727742e-02  7.8250184051313357e-02  9.7251276538291520e-02  1.1601943009091251e-01  1.3423954925618634e-01  1.5132383318230072e-01  1.6631017966490422e-01  1.7784022473606953e-01  1.8442648883047577e-01  1.8552012579793861e-01  1.8448357619631367e-01  -1.0214642948751360e-01  -1.0399907053138095e-01  -1.0019675501785202e-01  -8.8623533934579293e-02  -7.1302863665326371e-02  -5.0746009534713699e-02  -2.8796104566184880e-02  -6.5156623309591032e-03  1.5615740448391419e-02  3.7480883022150129e-02  5.9158868929097400e-02  8.0812146627125672e-02  1.0260292062680473e-01  1.2461186552590875e-01  1.4673263769459036e-01  1.6851915306520995e-01  1.8898142377532917e-01  2.0639649353841980e-01  2.1839785535162612e-01  2.2306473115520073e-01  2.2280316120656724e-01  -1.5329346436675206e-01  -1.5442525307318999e-01  -1.4423094355614566e-01  -1.2370148614163189e-01  -9.7531607976226717e-02  -6.9502764021350166e-02  -4.1717002372779449e-02  -1.5013230643139794e-02  1.0502838848902693e-02  3.5091378259975492e-02  5.9172425333959749e-02  8.3221073756677172e-02  1.0770894306169568e-01  1.3304853827312366e-01  1.5949935035068888e-01  1.8698605004585209e-01  2.1477047225740670e-01  2.4096047635428355e-01  2.6209161909713374e-01  2.7374592031945011e-01  2.7533769750180637e-01  -2.2374447779576651e-01  -2.2250021169621254e-01  -1.9972510109939831e-01  -1.6430553738464468e-01  -1.2538458289096266e-01  -8.7883239197891372e-02  -5.3513045289048183e-02  -2.2327045950629558e-02  6.2973132881435261e-03  3.3188564324470336e-02  5.9202657032982844e-02  8.5179956167964754e-02  1.1195304028869968e-01  1.4035674719490665e-01  1.7119686524826194e-01  2.0510759061536740e-01  2.4215844403026821e-01  2.8097326929041871e-01  3.1721457018524635e-01  3.4238410157608179e-01  3.4822214044633198e-01  -3.2184947244453421e-01  -3.1324940325494594e-01  -2.6613900217408037e-01  -2.0723160873392016e-01  -1.5139543242633566e-01  -1.0312846714352362e-01  -6.2273007842579733e-02  -2.7245748607184251e-02  3.6925153017969910e-03  3.2080219409788724e-02  5.9238681047821935e-02  8.6362174710676809e-02  1.1463379714610816e-01  1.4534105367033368e-01  1.7997160447283420e-01  2.2023542247304118e-01  2.6783772229196473e-01  3.2345347137115804e-01  3.8362528962381248e-01  4.3473081883012010e-01  4.5054608307174271e-01  -4.5950433069739710e-01  -4.2747056086071922e-01  -3.3611827603916761e-01  -2.4456704347986086e-01  -1.6986908957866051e-01  -1.1176049728848254e-01  -6.6046710955016505e-02  -2.8737732992100203e-02  3.1946879090184654e-03  3.1963885501104024e-02  5.9263178391104149e-02  8.6536942499727612e-02  1.1521919296515190e-01  1.4696894180953265e-01  1.8393575658123951e-01  2.2907174825583368e-01  2.8641343519822421e-01  3.6082508032865934e-01  4.5471647942736104e-01  5.5385809059989288e-01  5.9494014758664437e-01  -6.5028897970443111e-01  -5.4492895443100875e-01  -3.8809118023937256e-01  -2.6363368079853072e-01  -1.7504485366089653e-01  -1.1169050050570545e-01  -6.4365160415753409e-02  -2.6921141708394006e-02  4.5690234910207564e-03  3.2687746407197911e-02  5.9279311041685531e-02  8.5863069154975644e-02  1.1395558918293691e-01  1.4538978029578034e-01  1.8271798197404393e-01  2.2980575480198576e-01  2.9274896858164229e-01  3.8113963571477599e-01  5.0855208317735068e-01  6.8189830524481854e-01  7.9288100967630393e-01  -7.8987693459738217e-01  -5.8877880748913869e-01  -3.9222011196393380e-01  -2.5925630800733629e-01  -1.7014422566327875e-01  -1.0779938785969756e-01  -6.1551426905532253e-02  -2.5003605579116805e-02  5.7651768964466915e-03  3.3287420391121633e-02  5.9357620234023314e-02  8.5455055113720285e-02  1.1307177271383309e-01  1.4404428828301744e-01  1.8098654446754195e-01  2.2794960690342980e-01  2.9148045377960718e-01  3.8224206226779545e-01  5.1672032831315506e-01  7.1342636105744039e-01  9.9515812440350992e-01  </DataArray> 
</PointData> 
</Piece>
</UnstructuredGrid>
</VTKFile>