<?xml version="1.0"?>
<VTKFile type="UnstructuredGrid"  version="0.1"  >
<UnstructuredGrid>
<Piece  NumberOfPoints="651" NumberOfCells="1200">
<Points>
<DataArray  type="Float64"  NumberOfComponents="3"  format="ascii">0 0 0  50000 0 0  100000 0 0  150000 0 0  200000 0 0  250000 0 0  300000 0 0  350000 0 0  400000 0 0  450000 0 0  500000 0 0  550000 0 0  600000 0 0  650000 0 0  700000 0 0  750000 0 0  800000 0 0  850000 0 0  900000 0 0  950000 0 0  1000000 0 0  0 50000 0  50000 50000 0  100000 50000 0  150000 50000 0  200000 50000 0  250000 50000 0  300000 50000 0  350000 50000 0  400000 50000 0  450000 50000 0  500000 50000 0  550000 50000 0  600000 50000 0  650000 50000 0  700000 50000 0  750000 50000 0  800000 50000 0  850000 50000 0  900000 50000 0  950000 50000 0  1000000 50000 0  0 100000 0  50000 100000 0  100000 100000 0  150000 100000 0  200000 100000 0  250000 100000 0  300000 100000 0  350000 100000 0  400000 100000 0  450000 100000 0  500000 100000 0  550000 100000 0  600000 100000 0  650000 100000 0  700000 100000 0  750000 100000 0  800000 100000 0  850000 100000 0  900000 100000 0  950000 100000 0  1000000 100000 0  0 150000 0  50000 150000 0  100000 150000 0  150000 150000 0  200000 150000 0  250000 150000 0  300000 150000 0  350000 150000 0  400000 150000 0  450000 150000 0  500000 150000 0  550000 150000 0  600000 150000 0  650000 150000 0  700000 150000 0  750000 150000 0  800000 150000 0  850000 150000 0  900000 150000 0  950000 150000 0  1000000 150000 0  0 200000 0  50000 200000 0  100000 200000 0  150000 200000 0  200000 200000 0  250000 200000 0  300000 200000 0  350000 200000 0  400000 200000 0  450000 200000 0  500000 200000 0  550000 200000 0  600000 200000 0  650000 200000 0  700000 200000 0  750000 200000 0  800000 200000 0  850000 200000 0  900000 200000 0  950000 200000 0  1000000 200000 0  0 250000 0  50000 250000 0  100000 250000 0  150000 250000 0  200000 250000 0  250000 250000 0  300000 250000 0  350000 250000 0  400000 250000 0  450000 250000 0  500000 250000 0  550000 250000 0  600000 250000 0  650000 250000 0  700000 250000 0  750000 250000 0  800000 250000 0  850000 250000 0  900000 250000 0  950000 250000 0  1000000 250000 0  0 300000 0  50000 300000 0  100000 300000 0  150000 300000 0  200000 300000 0  250000 300000 0  300000 300000 0  350000 300000 0  400000 300000 0  450000 300000 0  500000 300000 0  550000 300000 0  600000 300000 0  650000 300000 0  700000 300000 0  750000 300000 0  800000 300000 0  850000 300000 0  900000 300000 0  950000 300000 0  1000000 300000 0  0 350000 0  50000 350000 0  100000 350000 0  150000 350000 0  200000 350000 0  250000 350000 0  300000 350000 0  350000 350000 0  400000 350000 0  450000 350000 0  500000 350000 0  550000 350000 0  600000 350000 0  650000 350000 0  700000 350000 0  750000 350000 0  800000 350000 0  850000 350000 0  900000 350000 0  950000 350000 0  1000000 350000 0  0 400000 0  50000 400000 0  100000 400000 0  150000 400000 0  200000 400000 0  250000 400000 0  300000 400000 0  350000 400000 0  400000 400000 0  450000 400000 0  500000 400000 0  550000 400000 0  600000 400000 0  650000 400000 0  700000 400000 0  750000 400000 0  800000 400000 0  850000 400000 0  900000 400000 0  950000 400000 0  1000000 400000 0  0 450000 0  50000 450000 0  100000 450000 0  150000 450000 0  200000 450000 0  250000 450000 0  300000 450000 0  350000 450000 0  400000 450000 0  450000 450000 0  500000 450000 0  550000 450000 0  600000 450000 0  650000 450000 0  700000 450000 0  750000 450000 0  800000 450000 0  850000 450000 0  900000 450000 0  950000 450000 0  1000000 450000 0  0 500000 0  50000 500000 0  100000 500000 0  150000 500000 0  200000 500000 0  250000 500000 0  300000 500000 0  350000 500000 0  400000 500000 0  450000 500000 0  500000 500000 0  550000 500000 0  600000 500000 0  650000 500000 0  700000 500000 0  750000 500000 0  800000 500000 0  850000 500000 0  900000 500000 0  950000 500000 0  1000000 500000 0  0 550000 0  50000 550000 0  100000 550000 0  150000 550000 0  200000 550000 0  250000 550000 0  300000 550000 0  350000 550000 0  400000 550000 0  450000 550000 0  500000 550000 0  550000 550000 0  600000 550000 0  650000 550000 0  700000 550000 0  750000 550000 0  800000 550000 0  850000 550000 0  900000 550000 0  950000 550000 0  1000000 550000 0  0 600000 0  50000 600000 0  100000 600000 0  150000 600000 0  200000 600000 0  250000 600000 0  300000 600000 0  350000 600000 0  400000 600000 0  450000 600000 0  500000 600000 0  550000 600000 0  600000 600000 0  650000 600000 0  700000 600000 0  750000 600000 0  800000 600000 0  850000 600000 0  900000 600000 0  950000 600000 0  1000000 600000 0  0 650000 0  50000 650000 0  100000 650000 0  150000 650000 0  200000 650000 0  250000 650000 0  300000 650000 0  350000 650000 0  400000 650000 0  450000 650000 0  500000 650000 0  550000 650000 0  600000 650000 0  650000 650000 0  700000 650000 0  750000 650000 0  800000 650000 0  850000 650000 0  900000 650000 0  950000 650000 0  1000000 650000 0  0 700000 0  50000 700000 0  100000 700000 0  150000 700000 0  200000 700000 0  250000 700000 0  300000 700000 0  350000 700000 0  400000 700000 0  450000 700000 0  500000 700000 0  550000 700000 0  600000 700000 0  650000 700000 0  700000 700000 0  750000 700000 0  800000 700000 0  850000 700000 0  900000 700000 0  950000 700000 0  1000000 700000 0  0 750000 0  50000 750000 0  100000 750000 0  150000 750000 0  200000 750000 0  250000 750000 0  300000 750000 0  350000 750000 0  400000 750000 0  450000 750000 0  500000 750000 0  550000 750000 0  600000 750000 0  650000 750000 0  700000 750000 0  750000 750000 0  800000 750000 0  850000 750000 0  900000 750000 0  950000 750000 0  1000000 750000 0  0 800000 0  50000 800000 0  100000 800000 0  150000 800000 0  200000 800000 0  250000 800000 0  300000 800000 0  350000 800000 0  400000 800000 0  450000 800000 0  500000 800000 0  550000 800000 0  600000 800000 0  650000 800000 0  700000 800000 0  750000 800000 0  800000 800000 0  850000 800000 0  900000 800000 0  950000 800000 0  1000000 800000 0  0 850000 0  50000 850000 0  100000 850000 0  150000 850000 0  200000 850000 0  250000 850000 0  300000 850000 0  350000 850000 0  400000 850000 0  450000 850000 0  500000 850000 0  550000 850000 0  600000 850000 0  650000 850000 0  700000 850000 0  750000 850000 0  800000 850000 0  850000 850000 0  900000 850000 0  950000 850000 0  1000000 850000 0  0 900000 0  50000 900000 0  100000 900000 0  150000 900000 0  200000 900000 0  250000 900000 0  300000 900000 0  350000 900000 0  400000 900000 0  450000 900000 0  500000 900000 0  550000 900000 0  600000 900000 0  650000 900000 0  700000 900000 0  750000 900000 0  800000 900000 0  850000 900000 0  900000 900000 0  950000 900000 0  1000000 900000 0  0 950000 0  50000 950000 0  100000 950000 0  150000 950000 0  200000 950000 0  250000 950000 0  300000 950000 0  350000 950000 0  400000 950000 0  450000 950000 0  500000 950000 0  550000 950000 0  600000 950000 0  650000 950000 0  700000 950000 0  750000 950000 0  800000 950000 0  850000 950000 0  900000 950000 0  950000 950000 0  1000000 950000 0  0 1000000 0  50000 1000000 0  100000 1000000 0  150000 1000000 0  200000 1000000 0  250000 1000000 0  300000 1000000 0  350000 1000000 0  400000 1000000 0  450000 1000000 0  500000 1000000 0  550000 1000000 0  600000 1000000 0  650000 1000000 0  700000 1000000 0  750000 1000000 0  800000 1000000 0  850000 1000000 0  900000 1000000 0  950000 1000000 0  1000000 1000000 0  0 1050000 0  50000 1050000 0  100000 1050000 0  150000 1050000 0  200000 1050000 0  250000 1050000 0  300000 1050000 0  350000 1050000 0  400000 1050000 0  450000 1050000 0  500000 1050000 0  550000 1050000 0  600000 1050000 0  650000 1050000 0  700000 1050000 0  750000 1050000 0  800000 1050000 0  850000 1050000 0  900000 1050000 0  950000 1050000 0  1000000 1050000 0  0 1100000 0  50000 1100000 0  100000 1100000 0  150000 1100000 0  200000 1100000 0  250000 1100000 0  300000 1100000 0  350000 1100000 0  400000 1100000 0  450000 1100000 0  500000 1100000 0  550000 1100000 0  600000 1100000 0  650000 1100000 0  700000 1100000 0  750000 1100000 0  800000 1100000 0  850000 1100000 0  900000 1100000 0  950000 1100000 0  1000000 1100000 0  0 1150000 0  50000 1150000 0  100000 1150000 0  150000 1150000 0  200000 1150000 0  250000 1150000 0  300000 1150000 0  350000 1150000 0  400000 1150000 0  450000 1150000 0  500000 1150000 0  550000 1150000 0  600000 1150000 0  650000 1150000 0  700000 1150000 0  750000 1150000 0  800000 1150000 0  850000 1150000 0  900000 1150000 0  950000 1150000 0  1000000 1150000 0  0 1200000 0  50000 1200000 0  100000 1200000 0  150000 1200000 0  200000 1200000 0  250000 1200000 0  300000 1200000 0  350000 1200000 0  400000 1200000 0  450000 1200000 0  500000 1200000 0  550000 1200000 0  600000 1200000 0  650000 1200000 0  700000 1200000 0  750000 1200000 0  800000 1200000 0  850000 1200000 0  900000 1200000 0  950000 1200000 0  1000000 1200000 0  0 1250000 0  50000 1250000 0  100000 1250000 0  150000 1250000 0  200000 1250000 0  250000 1250000 0  300000 1250000 0  350000 1250000 0  400000 1250000 0  450000 1250000 0  500000 1250000 0  550000 1250000 0  600000 1250000 0  650000 1250000 0  700000 1250000 0  750000 1250000 0  800000 1250000 0  850000 1250000 0  900000 1250000 0  950000 1250000 0  1000000 1250000 0  0 1300000 0  50000 1300000 0  100000 1300000 0  150000 1300000 0  200000 1300000 0  250000 1300000 0  300000 1300000 0  350000 1300000 0  400000 1300000 0  450000 1300000 0  500000 1300000 0  550000 1300000 0  600000 1300000 0  650000 1300000 0  700000 1300000 0  750000 1300000 0  800000 1300000 0  850000 1300000 0  900000 1300000 0  950000 1300000 0  1000000 1300000 0  0 1350000 0  50000 1350000 0  100000 1350000 0  150000 1350000 0  200000 1350000 0  250000 1350000 0  300000 1350000 0  350000 1350000 0  400000 1350000 0  450000 1350000 0  500000 1350000 0  550000 1350000 0  600000 1350000 0  650000 1350000 0  700000 135
[...]
<PointData  Scalars="f_3013"> 
<DataArray  type="Float64"  Name="f_3013"  format="ascii">-6.1912475624074903e-01  -4.1864329256076827e-01  -2.7895956135892558e-01  -1.8312932869425377e-01  -1.1785061491210316e-01  -7.1456009277339513e-02  -3.6471121995696847e-02  -8.3483079147029862e-03  1.5702854311877949e-02  3.7470566367442726e-02  5.8205496695335118e-02  7.8921595727085528e-02  1.0062396934788148e-01  1.2453405463004812e-01  1.5238296487141254e-01  1.8686911033288986e-01  2.3243231488230681e-01  2.9655069571333903e-01  3.9133214611384720e-01  5.3104075921008187e-01  6.7437093985424645e-01  -4.7433078789093186e-01  -3.9551166968260087e-01  -2.7257686002012632e-01  -1.8183549907707175e-01  -1.1830149978624160e-01  -7.2391470409197370e-02  -3.7391295593578615e-02  -9.0699116908831475e-03  1.5234135077364538e-02  3.7266214692259901e-02  5.8273847717987909e-02  7.9286945378383225e-02  1.0133742912448886e-01  1.2568093544117265e-01  1.5408400505740547e-01  1.8925120323532674e-01  2.3544860592726291e-01  2.9911576993261629e-01  3.8776598607316359e-01  4.9908861827284418e-01  5.7417895328866153e-01  -3.3243879531118087e-01  -3.0334364721712487e-01  -2.3307318631069002e-01  -1.6616657545419303e-01  -1.1264855997252256e-01  -7.0859358192754476e-02  -3.7424888963231012e-02  -9.5591137137099151e-03  1.4762688227451555e-02  3.7005916978648433e-02  5.8296281207352516e-02  7.9604418096820437e-02  1.0190814542308560e-01  1.2635694610685985e-01  1.5446037730771381e-01  1.8829565252404173e-01  2.3061513781400564e-01  2.8432338674025165e-01  3.4958154853415074e-01  4.1439897607990683e-01  4.3725579819194649e-01  -2.2893827635455177e-01  -2.1775416128150593e-01  -1.8147315692228669e-01  -1.3845846980809928e-01  -9.8328080304364129e-02  -6.3568549416268869e-02  -3.3757846329894314e-02  -7.7457829499091163e-03  1.5624598581012648e-02  3.7357528573717332e-02  5.8319646438687221e-02  7.9305947429680237e-02  1.0111908798418773e-01  1.2464888676484696e-01  1.5093435040856082e-01  1.8115213963517079e-01  2.1636731886487870e-01  2.5664314841147545e-01  2.9877247096772458e-01  3.3227092915394180e-01  3.3842464550125512e-01  -1.5566271812103447e-01  -1.5150812029927749e-01  -1.3349670673975297e-01  -1.0738480211628298e-01  -7.9180428612978304e-02  -5.1982501333217135e-02  -2.6805092859209251e-02  -3.6416046722465749e-03  1.7914654738952932e-02  3.8393330765500756e-02  5.8346199651637995e-02  7.8324321493020002e-02  9.8884037716659073e-02  1.2059142883661804e-01  1.4399144310300191e-01  1.6948236039863962e-01  1.9698619400507583e-01  2.2525826942648222e-01  2.5079760806040230e-01  2.6714398543790113e-01  2.6807981554666954e-01  -1.0353559250369887e-01  -1.0234144855177285e-01  -9.3788169288028467e-02  -7.8308245839675023e-02  -5.9040807176634055e-02  -3.8458383417483942e-02  -1.7926702763960013e-02  2.0016208732655948e-03  2.1241215231351331e-02  3.9942949266746582e-02  5.8365862973252733e-02  7.6810830834280988e-02  9.5581036000293704e-02  1.1494047164139740e-01  1.3504016423756271e-01  1.5577362449186141e-01  1.7651916510156399e-01  1.9576757816478349e-01  2.1082842800275034e-01  2.1836601730728011e-01  2.1764704970710114e-01  -6.5995218143430040e-02  -6.6071795390040169e-02  -6.2366669982387497e-02  -5.3283240539864406e-02  -4.0212739144400926e-02  -2.4846004309715976e-02  -8.4190552767938378e-03  8.3471240722127176e-03  2.5113257886128969e-02  4.1778400107151878e-02  5.8372790061946789e-02  7.4983834386310844e-02  9.1699043043993553e-02  1.0854740067770657e-01  1.2542027031016834e-01  1.4195526711953069e-01  1.5738187155001598e-01  1.7038231265291043e-01  1.7916665779497423e-01  1.8226939261742273e-01  1.8107402666551967e-01  -3.8605329244170775e-02  -3.9199834019901243e-02  -3.7950496779410599e-02  -3.2646913560373372e-02  -2.3726340298346325e-02  -1.2256302034083649e-02  7.9152179634637003e-04  1.4722934894516754e-02  2.9104964950376316e-02  4.3694865599624204e-02  5.8366993925856876e-02  7.3050100487990544e-02  8.7671885732396565e-02  1.0210261397140752e-01  1.1608969474227190e-01  1.2918082367040601e-01  1.4065054556480097e-01  1.4948730879982527e-01  1.5458875599592611e-01  1.5549007930774925e-01  1.5423789765705381e-01  -1.8400940534370538e-02  -1.9169207582268016e-02  -1.9132047181614424e-02  -1.6046012757195628e-02  -9.8650123847661593e-03  -1.2272252992896889e-03  9.1511752481096380e-03  2.0675248458185268e-02  3.2906603704719706e-02  4.5538237641985856e-02  5.8351569299513628e-02  7.1171096449425222e-02  8.3819924199468848e-02  9.6074873109627174e-02  1.0762012773610266e-01  1.1800358397535891e-01  1.2661309005550375e-01  1.3271728504552119e-01  1.3567207098892137e-01  1.3551143542542887e-01  1.3435175307236336e-01  -3.3949334764379223e-03  -4.1832485170076776e-03  -4.7144054771899495e-03  -2.9260138461348084e-03  1.4535413525868682e-03  8.0614855263902337e-03  1.6384948481958088e-02  2.5939606912407945e-02  3.6321540115114598e-02  4.7206826043406071e-02  5.8330239654311153e-02  6.9456395216838565e-02  8.0348629745304739e-02  9.0737797128189718e-02  1.0029337053553643e-01  1.0860285720244578e-01  1.1517392756673114e-01  1.1949098708280864e-01  1.2119604249418688e-01  1.2055340608171658e-01  1.1952890474516505e-01  7.7527700665572432e-03  7.0063694221646046e-03  6.2343331950053867e-03  7.2639637655395996e-03  1.0458454111699305e-02  1.5624434488942927e-02  2.2396911024166705e-02  3.0388547683697552e-02  3.9242166113534663e-02  4.8641966799534461e-02  5.8306099172733002e-02  6.7970810922618641e-02  7.7371366501176278e-02  8.6223038957249518e-02  9.4205637234609868e-02  1.0095720678055395e-01  1.0608765192148209e-01  1.0923449486459741e-01  1.1021175977250305e-01  1.0937712450435144e-01  1.0848650679401263e-01  1.5950134207547133e-02  1.5263116599896228e-02  1.4409809372740594e-02  1.4996364856010998e-02  1.7412181342021188e-02  2.1565035673727011e-02  2.7191919803313990e-02  3.3981564126996926e-02  4.1621857293197298e-02  4.9815588005677515e-02  5.8281233577117994e-02  6.6746332822411270e-02  7.4937750230583938e-02  8.2572064981085214e-02  8.9349412621996041e-02  9.4955334636935743e-02  9.9078374199175867e-02  1.0145952892626334e-01  1.0201342183252703e-01  1.0112507648001670e-01  1.0034955601797010e-01  2.1811325498705448e-02  2.1179913267723696e-02  2.0316154713179647e-02  2.0645742502191391e-02  2.2555902554621095e-02  2.6013143708090700e-02  3.0821819620220493e-02  3.6725928250891743e-02  4.3450540678983587e-02  5.0718700465257255e-02  5.8256787536155458e-02  6.5793940191744171e-02  7.3058876158780414e-02  7.9776830790109859e-02  8.5669381108548465e-02  9.0460620991884025e-02  9.3895332252512703e-02  9.5781601126093935e-02  9.6091202553912985e-02  9.5208064418282487e-02  9.4523033167207338e-02  2.5745248929260472e-02  2.5155839669536877e-02  2.4306056463189587e-02  2.4490554624787393e-02  2.6085549699341092e-02  2.9090315350906580e-02  3.3351200697889279e-02  3.8649135103465244e-02  4.4736182023106433e-02  5.1352316802068740e-02  5.8233189269478264e-02  6.5113215011808112e-02  7.1726574498979373e-02  7.7808296270484731e-02  8.3097625007266349e-02  8.7346310271508715e-02  9.0336157565923919e-02  9.1916223748581202e-02  9.2089252313920678e-02  9.1229257077232076e-02  9.0609280426409103e-02  2.8011475840109309e-02  2.7446045226594534e-02  2.6611113706086289e-02  2.6721224661922144e-02  2.8142720453523579e-02  3.0891468762895453e-02  3.4836859743514546e-02  3.9780956714676359e-02  4.5492030656313832e-02  5.1721008028284686e-02  5.8210387392171339e-02  6.4699281796266661e-02  7.0926700921749061e-02  7.6634876061378282e-02  8.1574440776521484e-02  8.5513602518927659e-02  8.8254952428505576e-02  8.9669278611160724e-02  8.9774155809205822e-02  8.8934827218945883e-02  8.8355505486915689e-02  2.8754205112877105e-02  2.8192604269123650e-02  2.7362357653469040e-02  2.7448111225534342e-02  2.8812103860155903e-02  3.1475764921620179e-02  3.5316241176245378e-02  4.0142636042811937e-02  4.5728607703808766e-02  5.1828774857511195e-02  5.8188048012204542e-02  6.4547321166897473e-02  7.0647488320600194e-02  7.6233459981597307e-02  8.1059854848163901e-02  8.4900331102789717e-02  8.7563992164254381e-02  8.8927984798876078e-02  8.9013738370941425e-02  8.8183491755286600e-02  8.7621890911533273e-02  2.8020590537495182e-02  2.7441268805464953e-02  2.6601940215205143e-02  2.6706817413249938e-02  2.8121143595905122e-02  3.0862493505482487e-02  3.4801655247888467e-02  3.9741219963031420e-02  4.5449395102659863e-02  5.1676814228142035e-02  5.8165708632237523e-02  6.4655087996124072e-02  7.0884065368094870e-02  7.6595139309732219e-02  8.1539236280894212e-02  8.5484627261513554e-02  8.8233375570886258e-02  8.9654871362487773e-02  8.9764982318323902e-02  8.8930050797815505e-02  8.8364620184300885e-02  2.5766815598001928e-02  2.5146838947178934e-02  2.4286843710490454e-02  2.4459872275830036e-02  2.6039938458487046e-02  2.9029785752901688e-02  3.3278471017143874e-02  3.8567799753924915e-02  4.4649521525429746e-02  5.1262881012600826e-02  5.8142906754930425e-02  6.5023779222339761e-02  7.1639914001301833e-02  7.7726960920943070e-02  8.3024895326519507e-02  8.7285780673502469e-02  9.0290546325068458e-02  9.1885541399622059e-02  9.2070039561220438e-02  9.1220256354873436e-02  9.0630847095149791e-02  2.1853062857204463e-02  2.1168031606129335e-02  2.0284893470498940e-02  2.0594494898317949e-02  2.2480763771898817e-02  2.5915475032526693e-02  3.0706714915861993e-02  3.6599265234299898e-02  4.3317219865628781e-02  5.0582155832664726e-02  5.8119308488253224e-02  6.5657395559151358e-02  7.2925555345424622e-02  7.9650167773516009e-02  8.5554276404187835e-02  9.0362952316317802e-02  9.3820193469788010e-02  9.5730353522218092e-02  9.6059941311229802e-02  9.5196182756685899e-02  9.4564770525704320e-02  1.6026540006442203e-02  1.5251019544395578e-02  1.4362674191885411e-02  1.4916567098148962e-02  1.7297721825236059e-02  2.1420761387475441e-02  2.7026683402414750e-02  3.3804031043324599e-02  4.1438345793825153e-02  4.9629763201997225e-02  5.8094862447290098e-02  6.6560508018730480e-02  7.4754238731210412e-02  8.2394531897410431e-02  8.9184176221093495e-02  9.4811060350680695e-02  9.8963914682387494e-02  1.0137973116839792e-01  1.0196628665166832e-01  1.0111297942451272e-01  1.0042596181686195e-01  7.8895892304005587e-03  6.9989715200616479e-03  6.1643362519102794e-03  7.1416011598154222e-03  1.0288444102930512e-02  1.5418889243857864e-02  2.2170458789801114e-02  3.0153057067160302e-02  3.9004729523232855e-02  4.8405285101789611e-02  5.8069996851674736e-02  6.7734129224872860e-02  7.7133929910872423e-02  8.5987548340709652e-02  9.3979185000240717e-02  1.0075166153546482e-01  1.0591764191270890e-01  1.0911213225886865e-01  1.1014176282940316e-01  1.0936972660224417e-01  1.0862332595785168e-01  -3.1528087207507091e-03  -4.1773100573024528e-03  -4.8199464697724773e-03  -3.1148910583945755e-03  1.2021684576821220e-03  7.7732388219664455e-03  1.6082725488874551e-02  2.5638298896220019e-02  3.6027466279104178e-02  4.6919700807569506e-02  5.8045856370096238e-02  6.9169269981000911e-02  8.0054555909292127e-02  9.0436489111998933e-02  9.9991147542449005e-02  1.0831461049801697e-01  1.1492255467182072e-01  1.1930210987054271e-01  1.2109050150159832e-01  1.2055934454141626e-01  1.1977102950084656e-01  -1.7975657047948131e-02  -1.9135339401013730e-02  -1.9295974964506180e-02  -1.6341189021106550e-02  -1.0236994031090045e-02  -1.6274879509464459e-03  8.7559682883082759e-03  2.0301222914782618e-02  3.2556171824939958e-02  4.5204999574982488e-02  5.8024526724893298e-02  7.0837858382420849e-02  8.3469492319687033e-02  9.5700847566221117e-02  1.0722492077629669e-01  1.1760332132369627e-01  1.2624110840917327e-01  1.3242210878160332e-01  1.3550814320602239e-01  1.3554530360667630e-01  1.3477703655877921e-01  -3.7861801632637436e-02  -3.9113983283332550e-02  -3.8212659971509869e-02  -3.3111212775410251e-02  -2.4274449540386833e-02  -1.2804727645993302e-02  2.8640128213903971e-04  1.4273482053002077e-02  2.8704210292011763e-02  4.3325995536416632e-02  5.8009102098549523e-02  7.2681230424781806e-02  8.7271131074029784e-02  1.0165316112988902e-01  1.1558457422805936e-01  1.2863239805848950e-01  1.4010243632275296e-01  1.4902300958478079e-01  1.5432659280381880e-01  1.5557593004430997e-01  1.5498142526857972e-01  -6.4697930641101686e-02  -6.5893296593004858e-02  -6.2790561770556863e-02  -5.4006216628494266e-02  -4.1005775525601147e-02  -2.5579171095117623e-02  -9.0441742857571041e-03  7.8286953467031836e-03  2.4677052980414851e-02  4.1392261638096325e-02  5.8003305962459409e-02  7.4597695917253862e-02  9.1262838138276514e-02  1.0802897195219227e-01  1.2479515130119902e-01  1.4122210033412150e-01  1.5658883516880745e-01  1.6965933656427190e-01  1.7874276600679612e-01  1.8244789141444967e-01  1.8237131416783989e-01  -1.0127095368268089e-01  -1.0198992128285995e-01  -9.4452331978330695e-02  -7.9391482140365607e-02  -6.0143069077148122e-02  -3.9397528467448213e-02  -1.8664068213151204e-02  1.4356243830129015e-03  2.0795060024115113e-02  3.9565265190126417e-02  5.8010233051153798e-02  7.6433146757659456e-02  9.5134880793054710e-02  1.1437447515113966e-01  1.3430279878836526e-01  1.5483447944188994e-01  1.7541690320104095e-01  1.9468434186408315e-01  2.1016426531243776e-01  2.1871754457618345e-01  2.1991168852810991e-01  -1.5170371952224584e-01  -1.5076788941347768e-01  -1.3442151203598013e-01  -1.0888217340206252e-01  -8.0610097980658393e-02  -5.3106264374225227e-02  -2.7615347078589314e-02  -4.2153328122068266e-03  1.7492058307750691e-02  3.8051774531388388e-02  5.8029896372769556e-02  7.7982765258906309e-02  9.8461441285453699e-02  1.2001770069665275e-01  1.4318118888361564e-01  1.6835859735762446e-01  1.9555652463738624e-01  2.2376089814069217e-01  2.4987280276416401e-01  2.6788421632369014e-01  2.7203881414544789e-01  -2.2204854947682673e-01  -2.1589483312951385e-01  -1.8239637494329872e-01  -1.4026705238705278e-01  -9.9991222840459151e-02  -6.4776043610754036e-02  -3.4558254384146316e-02  -8.2727907404339471e-03  1.5257008040223881e-02  3.7070148594730179e-02  5.8056449585722231e-02  7.9018567450691871e-02  1.0075149744339591e-01  1.2412187897431741e-01  1.5013394235430325e-01  1.7994464544067837e-01  2.1470417632877478e-01  2.5483456583251124e-01  2.9784925294670050e-01  3.3413025730592205e-01  3.4531437237896884e-01  -3.2087970216751260e-01  -2.9802288005547306e-01  -2.3320545250972036e-01  -1.6794729071582493e-01  -1.1423904178958301e-01  -7.1919556499621853e-02  -3.8084281283296190e-02  -9.9808500824437232e-03  1.4467950601328832e-02  3.6771677927593102e-02  5.8079814817060170e-02  7.9370179045763961e-02  1.0161340779696042e-01  1.2593520973812150e-01  1.5380098498764339e-01  1.8723545421716789e-01  2.2902465599693692e-01  2.8254267147860923e-01  3.4944928233510864e-01  4.1971974324154582e-01  4.4881489133560382e-01  -4.5780285726422254e-01  -3.8271252224840613e-01  -2.7138989004872988e-01  -1.8273967390818646e-01  -1.1907250990283652e-01  -7.2875107210903137e-02  -3.7707909032984210e-02  -9.3048394167532331e-03  1.5038666899929120e-02  3.7089150646033665e-02  5.8102248306428031e-02  7.9109881332155796e-02  1.0114196094705093e-01  1.2544600771529871e-01  1.5376739161799499e-01  1.8876756643361481e-01  2.3467759581066075e-01  2.9821159510149314e-01  3.8895295604455138e-01  5.1188776570702810e-01  5.9070688391536041e-01  -5.5799484382980558e-01  -4.1466466318564188e-01  -2.7495605008941110e-01  -1.8017459968890728e-01  -1.1605621885787856e-01  -7.0493014308464871e-02  -3.6006868846989865e-02  -8.1579586056276087e-03  1.5752126676537827e-02  3.7454500297332639e-02  5.8170599329082209e-02  7.8905529656974005e-02  1.0067324171253893e-01  1.2472440393912007e-01  1.5284721802011481e-01  1.8783210530175853e-01  2.3422671093652431e-01  2.9950542471867764e-01  3.9533565738335230e-01  5.3501938858519882e-01  7.3550085226518147e-01  </DataArray> 
</PointData> 
</Piece>
</UnstructuredGrid>
</VTKFile>