<?xml version="1.0"?>
<VTKFile type="UnstructuredGrid"  version="0.1"  >
<UnstructuredGrid>
<Piece  NumberOfPoints="651" NumberOfCells="1200">
<Points>
<DataArray  type="Float64"  NumberOfComponents="3"  format="ascii">0 0 0  50000 0 0  100000 0 0  150000 0 0  200000 0 0  250000 0 0  300000 0 0  350000 0 0  400000 0 0  450000 0 0  500000 0 0  550000 0 0  600000 0 0  650000 0 0  700000 0 0  750000 0 0  800000 0 0  850000 0 0  900000 0 0  950000 0 0  1000000 0 0  0 50000 0  50000 50000 0  100000 50000 0  150000 50000 0  200000 50000 0  250000 50000 0  300000 50000 0  350000 50000 0  400000 50000 0  450000 50000 0  500000 50000 0  550000 50000 0  600000 50000 0  650000 50000 0  700000 50000 0  750000 50000 0  800000 50000 0  850000 50000 0  900000 50000 0  950000 50000 0  1000000 50000 0  0 100000 0  50000 100000 0  100000 100000 0  150000 100000 0  200000 100000 0  250000 100000 0  300000 100000 0  350000 100000 0  400000 100000 0  450000 100000 0  500000 100000 0  550000 100000 0  600000 100000 0  650000 100000 0  700000 100000 0  750000 100000 0  800000 100000 0  850000 100000 0  900000 100000 0  950000 100000 0  1000000 100000 0  0 150000 0  50000 150000 0  100000 150000 0  150000 150000 0  200000 150000 0  250000 150000 0  300000 150000 0  350000 150000 0  400000 150000 0  450000 150000 0  500000 150000 0  550000 150000 0  600000 150000 0  650000 150000 0  700000 150000 0  750000 150000 0  800000 150000 0  850000 150000 0  900000 150000 0  950000 150000 0  1000000 150000 0  0 200000 0  50000 200000 0  100000 200000 0  150000 200000 0  200000 200000 0  250000 200000 0  300000 200000 0  350000 200000 0  400000 200000 0  450000 200000 0  500000 200000 0  550000 200000 0  600000 200000 0  650000 200000 0  700000 200000 0  750000 200000 0  800000 200000 0  850000 200000 0  900000 200000 0  950000 200000 0  1000000 200000 0  0 250000 0  50000 250000 0  100000 250000 0  150000 250000 0  200000 250000 0  250000 250000 0  300000 250000 0  350000 250000 0  400000 250000 0  450000 250000 0  500000 250000 0  550000 250000 0  600000 250000 0  650000 250000 0  700000 250000 0  750000 250000 0  800000 250000 0  850000 250000 0  900000 250000 0  950000 250000 0  1000000 250000 0  0 300000 0  50000 300000 0  100000 300000 0  150000 300000 0  200000 300000 0  250000 300000 0  300000 300000 0  350000 300000 0  400000 300000 0  450000 300000 0  500000 300000 0  550000 300000 0  600000 300000 0  650000 300000 0  700000 300000 0  750000 300000 0  800000 300000 0  850000 300000 0  900000 300000 0  950000 300000 0  1000000 300000 0  0 350000 0  50000 350000 0  100000 350000 0  150000 350000 0  200000 350000 0  250000 350000 0  300000 350000 0  350000 350000 0  400000 350000 0  450000 350000 0  500000 350000 0  550000 350000 0  600000 350000 0  650000 350000 0  700000 350000 0  750000 350000 0  800000 350000 0  850000 350000 0  900000 350000 0  950000 350000 0  1000000 350000 0  0 400000 0  50000 400000 0  100000 400000 0  150000 400000 0  200000 400000 0  250000 400000 0  300000 400000 0  350000 400000 0  400000 400000 0  450000 400000 0  500000 400000 0  550000 400000 0  600000 400000 0  650000 400000 0  700000 400000 0  750000 400000 0  800000 400000 0  850000 400000 0  900000 400000 0  950000 400000 0  1000000 400000 0  0 450000 0  50000 450000 0  100000 450000 0  150000 450000 0  200000 450000 0  250000 450000 0  300000 450000 0  350000 450000 0  400000 450000 0  450000 450000 0  500000 450000 0  550000 450000 0  600000 450000 0  650000 450000 0  700000 450000 0  750000 450000 0  800000 450000 0  850000 450000 0  900000 450000 0  950000 450000 0  1000000 450000 0  0 500000 0  50000 500000 0  100000 500000 0  150000 500000 0  200000 500000 0  250000 500000 0  300000 500000 0  350000 500000 0  400000 500000 0  450000 500000 0  500000 500000 0  550000 500000 0  600000 500000 0  650000 500000 0  700000 500000 0  750000 500000 0  800000 500000 0  850000 500000 0  900000 500000 0  950000 500000 0  1000000 500000 0  0 550000 0  50000 550000 0  100000 550000 0  150000 550000 0  200000 550000 0  250000 550000 0  300000 550000 0  350000 550000 0  400000 550000 0  450000 550000 0  500000 550000 0  550000 550000 0  600000 550000 0  650000 550000 0  700000 550000 0  750000 550000 0  800000 550000 0  850000 550000 0  900000 550000 0  950000 550000 0  1000000 550000 0  0 600000 0  50000 600000 0  100000 600000 0  150000 600000 0  200000 600000 0  250000 600000 0  300000 600000 0  350000 600000 0  400000 600000 0  450000 600000 0  500000 600000 0  550000 600000 0  600000 600000 0  650000 600000 0  700000 600000 0  750000 600000 0  800000 600000 0  850000 600000 0  900000 600000 0  950000 600000 0  1000000 600000 0  0 650000 0  50000 650000 0  100000 650000 0  150000 650000 0  200000 650000 0  250000 650000 0  300000 650000 0  350000 650000 0  400000 650000 0  450000 650000 0  500000 650000 0  550000 650000 0  600000 650000 0  650000 650000 0  700000 650000 0  750000 650000 0  800000 650000 0  850000 650000 0  900000 650000 0  950000 650000 0  1000000 650000 0  0 700000 0  50000 700000 0  100000 700000 0  150000 700000 0  200000 700000 0  250000 700000 0  300000 700000 0  350000 700000 0  400000 700000 0  450000 700000 0  500000 700000 0  550000 700000 0  600000 700000 0  650000 700000 0  700000 700000 0  750000 700000 0  800000 700000 0  850000 700000 0  900000 700000 0  950000 700000 0  1000000 700000 0  0 750000 0  50000 750000 0  100000 750000 0  150000 750000 0  200000 750000 0  250000 750000 0  300000 750000 0  350000 750000 0  400000 750000 0  450000 750000 0  500000 750000 0  550000 750000 0  600000 750000 0  650000 750000 0  700000 750000 0  750000 750000 0  800000 750000 0  850000 750000 0  900000 750000 0  950000 750000 0  1000000 750000 0  0 800000 0  50000 800000 0  100000 800000 0  150000 800000 0  200000 800000 0  250000 800000 0  300000 800000 0  350000 800000 0  400000 800000 0  450000 800000 0  500000 800000 0  550000 800000 0  600000 800000 0  650000 800000 0  700000 800000 0  750000 800000 0  800000 800000 0  850000 800000 0  900000 800000 0  950000 800000 0  1000000 800000 0  0 850000 0  50000 850000 0  100000 850000 0  150000 850000 0  200000 850000 0  250000 850000 0  300000 850000 0  350000 850000 0  400000 850000 0  450000 850000 0  500000 850000 0  550000 850000 0  600000 850000 0  650000 850000 0  700000 850000 0  750000 850000 0  800000 850000 0  850000 850000 0  900000 850000 0  950000 850000 0  1000000 850000 0  0 900000 0  50000 900000 0  100000 900000 0  150000 900000 0  200000 900000 0  250000 900000 0  300000 900000 0  350000 900000 0  400000 900000 0  450000 900000 0  500000 900000 0  550000 900000 0  600000 900000 0  650000 900000 0  700000 900000 0  750000 900000 0  800000 900000 0  850000 900000 0  900000 900000 0  950000 900000 0  1000000 900000 0  0 950000 0  50000 950000 0  100000 950000 0  150000 950000 0  200000 950000 0  250000 950000 0  300000 950000 0  350000 950000 0  400000 950000 0  450000 950000 0  500000 950000 0  550000 950000 0  600000 950000 0  650000 950000 0  700000 950000 0  750000 950000 0  800000 950000 0  850000 950000 0  900000 950000 0  950000 950000 0  1000000 950000 0  0 1000000 0  50000 1000000 0  100000 1000000 0  150000 1000000 0  200000 1000000 0  250000 1000000 0  300000 1000000 0  350000 1000000 0  400000 1000000 0  450000 1000000 0  500000 1000000 0  550000 1000000 0  600000 1000000 0  650000 1000000 0  700000 1000000 0  750000 1000000 0  800000 1000000 0  850000 1000000 0  900000 1000000 0  950000 1000000 0  1000000 1000000 0  0 1050000 0  50000 1050000 0  100000 1050000 0  150000 1050000 0  200000 1050000 0  250000 1050000 0  300000 1050000 0  350000 1050000 0  400000 1050000 0  450000 1050000 0  500000 1050000 0  550000 1050000 0  600000 1050000 0  650000 1050000 0  700000 1050000 0  750000 1050000 0  800000 1050000 0  850000 1050000 0  900000 1050000 0  950000 1050000 0  1000000 1050000 0  0 1100000 0  50000 1100000 0  100000 1100000 0  150000 1100000 0  200000 1100000 0  250000 1100000 0  300000 1100000 0  350000 1100000 0  400000 1100000 0  450000 1100000 0  500000 1100000 0  550000 1100000 0  600000 1100000 0  650000 1100000 0  700000 1100000 0  750000 1100000 0  800000 1100000 0  850000 1100000 0  900000 1100000 0  950000 1100000 0  1000000 1100000 0  0 1150000 0  50000 1150000 0  100000 1150000 0  150000 1150000 0  200000 1150000 0  250000 1150000 0  300000 1150000 0  350000 1150000 0  400000 1150000 0  450000 1150000 0  500000 1150000 0  550000 1150000 0  600000 1150000 0  650000 1150000 0  700000 1150000 0  750000 1150000 0  800000 1150000 0  850000 1150000 0  900000 1150000 0  950000 1150000 0  1000000 1150000 0  0 1200000 0  50000 1200000 0  100000 1200000 0  150000 1200000 0  200000 1200000 0  250000 1200000 0  300000 1200000 0  350000 1200000 0  400000 1200000 0  450000 1200000 0  500000 1200000 0  550000 1200000 0  600000 1200000 0  650000 1200000 0  700000 1200000 0  750000 1200000 0  800000 1200000 0  850000 1200000 0  900000 1200000 0  950000 1200000 0  1000000 1200000 0  0 1250000 0  50000 1250000 0  100000 1250000 0  150000 1250000 0  200000 1250000 0  250000 1250000 0  300000 1250000 0  350000 1250000 0  400000 1250000 0  450000 1250000 0  500000 1250000 0  550000 1250000 0  600000 1250000 0  650000 1250000 0  700000 1250000 0  750000 1250000 0  800000 1250000 0  850000 1250000 0  900000 1250000 0  950000 1250000 0  1000000 1250000 0  0 1300000 0  50000 1300000 0  100000 1300000 0  150000 1300000 0  200000 1300000 0  250000 1300000 0  300000 1300000 0  350000 1300000 0  400000 1300000 0  450000 1300000 0  500000 1300000 0  550000 1300000 0  600000 1300000 0  650000 1300000 0  700000 1300000 0  750000 1300000 0  800000 1300000 0  850000 1300000 0  900000 1300000 0  950000 1300000 0  1000000 1300000 0  0 1350000 0  50000 1350000 0  100000 1350000 0  150000 1350000 0  200000 1350000 0  250000 1350000 0  300000 1350000 0  350000 1350000 0  400000 1350000 0  450000 1350000 0  500000 1350000 0  550000 1350000 0  600000 1350000 0  650000 1350000 0  700000 135
[...]
<PointData  Scalars="f_3013"> 
<DataArray  type="Float64"  Name="f_3013"  format="ascii">-2.0390221836656837e+00  -1.3920289410718567e+00  -9.3932003763583216e-01  -6.3156875621543762e-01  -4.2682787233506048e-01  -2.8701565280281521e-01  -1.8720029366113541e-01  -1.1187331940483677e-01  -5.1296558889109015e-02  9.1535352836161362e-04  4.9319312914759800e-02  9.7657342546210738e-02  1.4964136892793370e-01  2.0972972375837567e-01  2.8411845459682261e-01  3.8224760026992749e-01  5.1928885983430517e-01  7.2020752535669064e-01  1.0244235858287605e+00  1.4764027959669923e+00  1.9374498751865981e+00  -1.5785982266724645e+00  -1.3230525653457279e+00  -9.2343949517278689e-01  -6.3167276231841263e-01  -4.3213067933351740e-01  -2.9335963112585772e-01  -1.9289563015535549e-01  -1.1628691631095210e-01  -5.4237653547379319e-02  -5.1321171207086502e-04  4.9431252096120738e-02  9.9393411434165135e-02  1.5317728174685077e-01  2.1535404012804543e-01  2.9222922935789730e-01  3.9324741413227393e-01  5.3299430571510864e-01  7.3306037890637832e-01  1.0180777493827922e+00  1.3793181362621907e+00  1.6207921009166737e+00  -1.1299224330586215e+00  -1.0349351081756164e+00  -8.0623144186466777e-01  -5.9145137585899488e-01  -4.2365385165874392e-01  -2.9708170133188222e-01  -2.0021238513976577e-01  -1.2340461169488731e-01  -5.9520957783966405e-02  -3.2911653550440454e-03  4.9406426491034515e-02  1.0216434036294993e-01  1.5859967662793106e-01  2.2291564848679268e-01  3.0053490262472998e-01  3.9877998711216428e-01  5.2719610631261826e-01  6.9575294819262157e-01  9.0516694113134533e-01  1.1156589997896635e+00  1.1889306191994424e+00  -8.0327792532148623e-01  -7.6655592887099577e-01  -6.4881474991629606e-01  -5.1174026428150243e-01  -3.8692151277662507e-01  -2.8216733600369565e-01  -1.9566972399084601e-01  -1.2322484869997916e-01  -6.0615376676605166e-02  -4.1412333911869069e-03  4.9429558687981753e-02  1.0308416883719064e-01  1.5983660967360758e-01  2.2300020921205937e-01  2.9639801175385327e-01  3.8432167613743667e-01  4.9069402037774162e-01  6.1610308829943095e-01  7.5026235106016348e-01  8.5859860205817828e-01  8.7826304201733685e-01  -5.7176292647112437e-01  -5.5821602804384207e-01  -5.0069490053623067e-01  -4.1896160776574487e-01  -3.3271974704591301e-01  -2.5184755096202410e-01  -1.7932609360972634e-01  -1.1478105678738301e-01  -5.6527474970522296e-02  -2.4816251613101309e-03  4.9507598693378681e-02  1.0158605334441098e-01  1.5591850737299798e-01  2.1470752214086550e-01  2.8009311847246360e-01  3.5373545574245102e-01  4.3571892520235200e-01  5.2226019480825947e-01  6.0208076654327514e-01  6.5395227074172380e-01  6.5672375713250541e-01  -4.0650029874727611e-01  -4.0296049584978128e-01  -3.7710772801384174e-01  -3.3051298026286990e-01  -2.7338252143696168e-01  -2.1361190916687106e-01  -1.5542481375906397e-01  -1.0036122366792412e-01  -4.8419139435333144e-02  1.1838710967613378e-03  4.9587798448809957e-02  9.8071243269537076e-02  1.4792142401927388e-01  2.0029726509942744e-01  2.5598421653451864e-01  3.1491278258576400e-01  3.7530109789757365e-01  4.3241802997688861e-01  4.7760413654270234e-01  5.0001145519692602e-01  4.9719056113998294e-01  -2.8696349679959021e-01  -2.8791428607635117e-01  -2.7868331529575840e-01  -2.5349849004922592e-01  -2.1670862207415534e-01  -1.7369429214825272e-01  -1.2833144013921904e-01  -8.2784962000190462e-02  -3.7948951816747678e-02  6.0776639681331002e-03  4.9634555221351739e-02  9.3253003795546172e-02  1.3746511324800478e-01  1.8260743911856703e-01  2.2855576752600915e-01  2.7433583416055485e-01  3.1760675635649382e-01  3.5419882789048490e-01  3.7837938517751940e-01  3.8556875503404675e-01  3.8090780354797060e-01  -1.9942668392201388e-01  -2.0235748590227923e-01  -2.0182700710989834e-01  -1.8948648774020305e-01  -1.6642466946893941e-01  -1.3599920315816189e-01  -1.0127625425428108e-01  -6.4391921517334041e-02  -2.6601728605086125e-02  1.1481102553356284e-02  4.9639215292245048e-02  8.7839381626402965e-02  1.2604501455460362e-01  1.6402525434421936e-01  2.0113326160775721e-01  2.3604557032989001e-01  2.6651339457475459e-01  2.8932347668683733e-01  3.0098939809631198e-01  3.0034239533843038e-01  2.9522875386426894e-01  -1.3475218533398250e-01  -1.3846541480554506e-01  -1.4241282632636890e-01  -1.3772328586728463e-01  -1.2378323914940685e-01  -1.0254282530015181e-01  -7.6266238441986170e-02  -4.6807357672393961e-02  -1.5482412746264516e-02  1.6843509519985658e-02  4.9608655155032780e-02  8.2399023215960113e-02  1.1479591517889352e-01  1.4622189865803137e-01  1.7578129355000588e-01  2.0210909712766026e-01  2.2328806213625277e-01  2.3699448530077613e-01  2.4125125287089688e-01  2.3663815066271077e-01  2.3162188479850904e-01  -8.6785951658167229e-02  -9.0704550408941223e-02  -9.6857112237583448e-02  -9.6695384863676653e-02  -8.8773047323079959e-02  -7.4124973310835868e-02  -5.4366923206947956e-02  -3.1018490129934111e-02  -5.3144481739724686e-03  2.1792278512500006e-02  4.9554545566531494e-02  7.7329562373226829e-02  1.0447013612032198e-01  1.3021551590227246e-01  1.5358953172350773e-01  1.7332645637807031e-01  1.8787608695853375e-01  1.9560848403861206e-01  1.9550102363862232e-01  1.8897858991339928e-01  1.8427108290759361e-01  -5.1316785854413099e-02  -5.5173976429903036e-02  -6.2312200426139941e-02  -6.4802551037531256e-02  -6.0831154738224619e-02  -5.0859302077933058e-02  -3.6023311157834588e-02  -1.7541073141190442e-02  3.4844342949199346e-03  2.6102935814977472e-02  4.9487578505136735e-02  7.2876865321563636e-02  9.5505853839413984e-02  1.1653755159187934e-01  1.3500598163006844e-01  1.4979052785496147e-01  1.5966174206569064e-01  1.6348921460627122e-01  1.6083503569866162e-01  1.5349544054331268e-01  1.4915580067777343e-01  -2.5423553169343527e-02  -2.9114533387640446e-02  -3.6602633003380701e-02  -4.0620192900341745e-02  -3.9223374728250361e-02  -3.2522574475045134e-02  -2.1317216312041892e-02  -6.5833201350711064e-03  1.0710513122430878e-02  2.9658209774128995e-02  4.9415429220698540e-02  6.9172768704072740e-02  8.8118422101786234e-02  1.0540123863671079e-01  1.2010546131006174e-01  1.3125349845523337e-01  1.3786744000801848e-01  1.3916041996364595e-01  1.3504511454288579e-01  1.2745044628504287e-01  1.2346399262816908e-01  -7.0706977262975654e-03  -1.0578260690174831e-02  -1.8111312713553505e-02  -2.2984968004884497e-02  -2.3236610562928271e-02  -1.8766801770984047e-02  -1.0147819904183454e-02  1.8234843863418945e-03  1.6292869450373306e-02  3.2409704794063333e-02  4.9342654582489993e-02  6.6273797416776317e-02  8.2383684427306994e-02  9.6836787325425222e-02  1.0877697625933097e-01  1.1734601019046052e-01  1.2174907720292835e-01  1.2142646338192034e-01  1.1649613729350920e-01  1.0890900619577328e-01  1.0522348593458966e-01  5.1408899255496292e-03  1.7852168642799261e-03  -5.6778302968807527e-03  -1.1010068174672405e-02  -1.2271592750657175e-02  -9.2421215894934947e-03  -2.3494059515575439e-03  7.7314561976114188e-03  2.0230950627651397e-02  3.4347322905076659e-02  4.9271328830687106e-02  6.4193309076301025e-02  7.8302733656412160e-02  9.0788031425978508e-02  1.0084461744051766e-01  1.0770150371003746e-01  1.1068631445820298e-01  1.0938075847466433e-01  1.0401772911077244e-01  9.6529118734508507e-02  9.3072819791747502e-02  1.2125752968151134e-02  8.8628899879401365e-03  1.4771454760320614e-03  -4.0766601977887751e-03  -5.8852440969173756e-03  -3.6653667086717439e-03  2.2358758341097912e-03  1.1213951683588368e-02  2.2550875120212227e-02  3.5477294071636974e-02  4.9201815070245750e-02  6.2925094521964597e-02  7.5847399997954423e-02  8.7176318211447404e-02  9.6141327547876243e-02  1.0202403773694269e-01  1.0422163379161312e-01  1.0239200464976631e-01  9.6824724338522475e-02  8.9429021795841640e-02  8.6120756804312235e-02  1.4403473258219220e-02  1.1158981490458474e-02  3.8019780923746289e-03  -1.8210067201782619e-03  -3.8087682803644158e-03  -1.8566604581184308e-03  3.7156643137939262e-03  1.2327336131611879e-02  2.3277552615381246e-02  3.5807921480323947e-02  4.9133445612191282e-02  6.2458969744058290e-02  7.4989338609002462e-02  8.5939555092773484e-02  9.4551226910592728e-02  1.0012355168250775e-01  1.0207565950475539e-01  1.0008789794457061e-01  9.4464913132017922e-02  8.7107909733934008e-02  8.3863417966173623e-02  1.2146134420081502e-02  8.8378694285520323e-03  1.4421668858714926e-03  -4.1251134253731730e-03  -5.9547425672207433e-03  -3.7571465125526716e-03  2.1255636765120339e-03  1.1090573012939000e-02  2.2419491226428931e-02  3.5341796702417438e-02  4.9065076154136189e-02  6.2789597152744972e-02  7.5716016104170322e-02  8.7052939540794627e-02  9.6031015390274935e-02  1.0193225793305846e-01  1.0415213532130699e-01  1.0234355142217932e-01  9.6789745748359773e-02  8.9404001236451855e-02  8.6141138256241381e-02  5.1940714326460854e-03  1.7377724898852370e-03  -5.7508378863783604e-03  -1.1113867250270046e-02  -1.2419423233810125e-02  -9.4346124856474929e-03  -2.5777262161292146e-03  7.4788597984074556e-03  1.9964157567971468e-02  3.4073582148080921e-02  4.8995562393693695e-02  6.3919568319303857e-02  7.8035940596729012e-02  9.0535435026769834e-02  1.0061629717594120e-01  1.0750901281387926e-01  1.1053848397504526e-01  1.0927695939906083e-01  1.0394472152127177e-01  9.6481674360112318e-02  9.3126001298842589e-02  -6.9565947101946817e-03  -1.0642114971377936e-02  -1.8229246069113275e-02  -2.3159572157524424e-02  -2.3482185978534367e-02  -1.9079118966069997e-02  -1.0510085034942591e-02  1.4301038989599100e-03  1.5883206797075652e-02  3.1993093807603901e-02  4.8924236641889295e-02  6.5857186430315906e-02  8.1974021774005382e-02  9.6443406838036635e-02  1.0841471112856436e-01  1.1703369299536698e-01  1.2150350178731453e-01  1.2125185922927237e-01  1.1637820393794192e-01  1.0884515191456387e-01  1.0533758895068711e-01  -2.5197101403773736e-02  -2.9183555060647334e-02  -3.6778223318489095e-02  -4.0893528739250305e-02  -3.9600548783624401e-02  -3.2986607230842888e-02  -2.1838570085673952e-02  -7.1343474123271413e-03  1.0148469122594388e-02  2.9094122520305042e-02  4.8851462003677598e-02  6.8608681450246803e-02  8.7556378101944651e-02  1.0485021135944611e-01  1.1958410753641874e-01  1.3078946569942401e-01  1.3749026595263378e-01  1.3888708412472645e-01  1.3486952422776607e-01  1.2738142461202637e-01  1.2369044439373011e-01  -5.0888909453376367e-02  -5.5228549318915569e-02  -6.2568144474263551e-02  -6.5222323381874656e-02  -6.1394850841295548e-02  -5.1523636630569733e-02  -3.6739090405681428e-02  -1.8270660367497468e-02  2.7610373849645989e-03  2.5390025902811260e-02  4.8779312719235808e-02  7.2163955409394118e-02  9.4782456929451489e-02  1.1580796436556272e-01  1.3429020238220929e-01  1.4912619330231036e-01  1.5909804596260460e-01  1.6306944226191264e-01  1.6057909165052356e-01  1.5344086765428747e-01  1.4958367707879791e-01  -8.6004191683193940e-02  -9.0711698689000364e-02  -9.7234132414222074e-02  -9.7341592814213590e-02  -8.9609195734138336e-02  -7.5059565153678856e-02  -5.5322640499122257e-02  -3.1948624677892966e-02  -6.2032448959465185e-03  2.0937328851145357e-02  4.8712345657837455e-02  7.6474612711868076e-02  1.0358133939833991e-01  1.2928538135430329e-01  1.5263381443132032e-01  1.7239186453521027e-01  1.8703993854745646e-01  1.9496227608805536e-01  1.9512400346196490e-01  1.8897144163332436e-01  1.8505284288254975e-01  -1.3335499357410796e-01  -1.3837125943830955e-01  -1.4298436164649542e-01  -1.3872759407637653e-01  -1.2502117091185733e-01  -1.0384220590327006e-01  -7.7514402325622359e-02  -4.7955007433653843e-02  -1.6529023954520869e-02  1.5867868008408139e-02  4.8658236069332124e-02  8.1423381704378531e-02  1.1374930397062882e-01  1.4507424889675954e-01  1.7453312966635429e-01  2.0080971652452201e-01  2.2205013037377985e-01  2.3599017709166120e-01  2.4067971755074813e-01  2.3673230602992656e-01  2.3301907655836512e-01  -1.9696186263986520e-01  -2.0207550411402486e-01  -2.0272250687190749e-01  -1.9105658546243801e-01  -1.6824650335035898e-01  -1.3777867910550018e-01  -1.0286637038337518e-01  -6.5758363119844163e-02  -2.7778123330234814e-02  1.0427509597961501e-02  4.8627675932115942e-02  8.6785788671003769e-02  1.2486861982944615e-01  1.6265881274169536e-01  1.9954314547864452e-01  2.3426609438252793e-01  2.6469156069331007e-01  2.8775337896457709e-01  3.0009389833427669e-01  3.0062437712666112e-01  2.9769357514639672e-01  -2.8264091232356153e-01  -2.8730186380963757e-01  -2.8011249395311272e-01  -2.5593193666608299e-01  -2.1933986513209644e-01  -1.7606894293616515e-01  -1.3028887630162717e-01  -8.4340547894192333e-02  -3.9198222023636688e-02  5.0138874288164622e-03  4.8632336003007030e-02  9.2189227256224582e-02  1.3621584304110490e-01  1.8105185322454789e-01  2.2659833136357913e-01  2.7196118337261616e-01  3.1497551329852541e-01  3.5176538127360207e-01  3.7695020652013916e-01  3.8618117730073565e-01  3.8523038802397624e-01  -3.9892366991556649e-01  -4.0174456397250935e-01  -3.7933724531828772e-01  -3.3415113875248098e-01  -2.7703420667317286e-01  -2.1664589136137463e-01  -1.5771732531013691e-01  -1.0203037387505162e-01  -4.9654532794905649e-02  1.9564795482519592e-04  4.8679092775549257e-02  9.7083020127596717e-02  1.4668603065969157e-01  1.9862811489228260e-01  2.5369170498342414e-01  3.1187880039123728e-01  3.7164941266133422e-01  4.2877987148724928e-01  4.7537461923822466e-01  5.0122738707417092e-01  5.0476718997166758e-01  -5.5845686590807408e-01  -5.5568537951729347e-01  -5.0381387531884791e-01  -4.2399330358384402e-01  -3.3745203397794538e-01  -2.5546856451805655e-01  -1.8182622724807759e-01  -1.1644063091648635e-01  -5.7651616148626239e-02  -3.3191621200450621e-03  4.8759292530984183e-02  1.0074851638567170e-01  1.5479436619488374e-01  2.1304794801174495e-01  2.7759298483409134e-01  3.5011444218639665e-01  4.3098663827029005e-01  5.1722849899012824e-01  5.9896179176062325e-01  6.5648291926824220e-01  6.7002981769552694e-01  -7.7999615079288720e-01  -7.6033171083372952e-01  -6.5199545983572438e-01  -5.1783619707500439e-01  -3.9242712915332745e-01  -2.8605478491303371e-01  -1.9813112052945911e-01  -1.2473331798767365e-01  -6.1569718449228643e-02  -4.8172776128170619e-03  4.8837332536388230e-02  1.0240812461555653e-01  1.5888226790097423e-01  2.2149173992434984e-01  2.9393661521522230e-01  3.8043422722807824e-01  4.8518840400101426e-01  6.1000715550589779e-01  7.4708164114070097e-01  8.6482282009540923e-01  9.0154481654590324e-01  -1.0906637279749720e+00  -1.0173921085651902e+00  -8.0690004990689101e-01  -5.9748605696818069e-01  -4.2892921508819376e-01  -3.0051309588775005e-01  -2.0226801140032535e-01  -1.2464875726239595e-01  -6.0332785403542442e-02  -3.8974491385657560e-03  4.8860464733347035e-02  1.0155805657942474e-01  1.5778784900834777e-01  2.2167150291926965e-01  2.9847927636415428e-01  3.9534859255627858e-01  5.2192074288314705e-01  6.8971826708340722e-01  9.0449833308908956e-01  1.1332019994000473e+00  1.2281893242830646e+00  -1.5225252096921913e+00  -1.2810512450377101e+00  -9.1981085815833163e-01  -6.3479348768192845e-01  -4.3472741449067165e-01  -2.9498052290784782e-01  -1.9396233813348071e-01  -1.1708714890363754e-01  -5.4910390522450045e-02  -1.1265202097694347e-03  4.8835639128271748e-02  9.8780102936463221e-02  1.5250454477177286e-01  2.1455380753534870e-01  2.9116252137975790e-01  3.9162652235026585e-01  5.3039757055793657e-01  7.2993965354284363e-01  1.0217063863972340e+00  1.4213194565701834e+00  1.6768651178969221e+00  -1.8391829839621088e+00  -1.3781359047425037e+00  -9.2615669460428918e-01  -6.2194063413223477e-01  -4.2102196860986235e-01  -2.8398070904549672e-01  -1.8585156337240197e-01  -1.1146283253396448e-01  -5.1374477703528862e-02  6.0954867818911816e-04  4.8947578309637065e-02  9.7351537696034107e-02  1.4956345011350700e-01  2.1014021062923791e-01  2.8546718488554268e-01  3.8528254402722856e-01  5.2509476355948559e-01  7.2983564743987650e-01  1.0375869288602824e+00  1.4902958322963213e+00  2.1372890748901532e+00  </DataArray> 
</PointData> 
</Piece>
</UnstructuredGrid>
</VTKFile>