<?xml version="1.0"?>
<VTKFile type="UnstructuredGrid"  version="0.1"  >
<UnstructuredGrid>
<Piece  NumberOfPoints="651" NumberOfCells="1200">
<Points>
<DataArray  type="Float64"  NumberOfComponents="3"  format="ascii">0 0 0  50000 0 0  100000 0 0  150000 0 0  200000 0 0  250000 0 0  300000 0 0  350000 0 0  400000 0 0  450000 0 0  500000 0 0  550000 0 0  600000 0 0  650000 0 0  700000 0 0  750000 0 0  800000 0 0  850000 0 0  900000 0 0  950000 0 0  1000000 0 0  0 50000 0  50000 50000 0  100000 50000 0  150000 50000 0  200000 50000 0  250000 50000 0  300000 50000 0  350000 50000 0  400000 50000 0  450000 50000 0  500000 50000 0  550000 50000 0  600000 50000 0  650000 50000 0  700000 50000 0  750000 50000 0  800000 50000 0  850000 50000 0  900000 50000 0  950000 50000 0  1000000 50000 0  0 100000 0  50000 100000 0  100000 100000 0  150000 100000 0  200000 100000 0  250000 100000 0  300000 100000 0  350000 100000 0  400000 100000 0  450000 100000 0  500000 100000 0  550000 100000 0  600000 100000 0  650000 100000 0  700000 100000 0  750000 100000 0  800000 100000 0  850000 100000 0  900000 100000 0  950000 100000 0  1000000 100000 0  0 150000 0  50000 150000 0  100000 150000 0  150000 150000 0  200000 150000 0  250000 150000 0  300000 150000 0  350000 150000 0  400000 150000 0  450000 150000 0  500000 150000 0  550000 150000 0  600000 150000 0  650000 150000 0  700000 150000 0  750000 150000 0  800000 150000 0  850000 150000 0  900000 150000 0  950000 150000 0  1000000 150000 0  0 200000 0  50000 200000 0  100000 200000 0  150000 200000 0  200000 200000 0  250000 200000 0  300000 200000 0  350000 200000 0  400000 200000 0  450000 200000 0  500000 200000 0  550000 200000 0  600000 200000 0  650000 200000 0  700000 200000 0  750000 200000 0  800000 200000 0  850000 200000 0  900000 200000 0  950000 200000 0  1000000 200000 0  0 250000 0  50000 250000 0  100000 250000 0  150000 250000 0  200000 250000 0  250000 250000 0  300000 250000 0  350000 250000 0  400000 250000 0  450000 250000 0  500000 250000 0  550000 250000 0  600000 250000 0  650000 250000 0  700000 250000 0  750000 250000 0  800000 250000 0  850000 250000 0  900000 250000 0  950000 250000 0  1000000 250000 0  0 300000 0  50000 300000 0  100000 300000 0  150000 300000 0  200000 300000 0  250000 300000 0  300000 300000 0  350000 300000 0  400000 300000 0  450000 300000 0  500000 300000 0  550000 300000 0  600000 300000 0  650000 300000 0  700000 300000 0  750000 300000 0  800000 300000 0  850000 300000 0  900000 300000 0  950000 300000 0  1000000 300000 0  0 350000 0  50000 350000 0  100000 350000 0  150000 350000 0  200000 350000 0  250000 350000 0  300000 350000 0  350000 350000 0  400000 350000 0  450000 350000 0  500000 350000 0  550000 350000 0  600000 350000 0  650000 350000 0  700000 350000 0  750000 350000 0  800000 350000 0  850000 350000 0  900000 350000 0  950000 350000 0  1000000 350000 0  0 400000 0  50000 400000 0  100000 400000 0  150000 400000 0  200000 400000 0  250000 400000 0  300000 400000 0  350000 400000 0  400000 400000 0  450000 400000 0  500000 400000 0  550000 400000 0  600000 400000 0  650000 400000 0  700000 400000 0  750000 400000 0  800000 400000 0  850000 400000 0  900000 400000 0  950000 400000 0  1000000 400000 0  0 450000 0  50000 450000 0  100000 450000 0  150000 450000 0  200000 450000 0  250000 450000 0  300000 450000 0  350000 450000 0  400000 450000 0  450000 450000 0  500000 450000 0  550000 450000 0  600000 450000 0  650000 450000 0  700000 450000 0  750000 450000 0  800000 450000 0  850000 450000 0  900000 450000 0  950000 450000 0  1000000 450000 0  0 500000 0  50000 500000 0  100000 500000 0  150000 500000 0  200000 500000 0  250000 500000 0  300000 500000 0  350000 500000 0  400000 500000 0  450000 500000 0  500000 500000 0  550000 500000 0  600000 500000 0  650000 500000 0  700000 500000 0  750000 500000 0  800000 500000 0  850000 500000 0  900000 500000 0  950000 500000 0  1000000 500000 0  0 550000 0  50000 550000 0  100000 550000 0  150000 550000 0  200000 550000 0  250000 550000 0  300000 550000 0  350000 550000 0  400000 550000 0  450000 550000 0  500000 550000 0  550000 550000 0  600000 550000 0  650000 550000 0  700000 550000 0  750000 550000 0  800000 550000 0  850000 550000 0  900000 550000 0  950000 550000 0  1000000 550000 0  0 600000 0  50000 600000 0  100000 600000 0  150000 600000 0  200000 600000 0  250000 600000 0  300000 600000 0  350000 600000 0  400000 600000 0  450000 600000 0  500000 600000 0  550000 600000 0  600000 600000 0  650000 600000 0  700000 600000 0  750000 600000 0  800000 600000 0  850000 600000 0  900000 600000 0  950000 600000 0  1000000 600000 0  0 650000 0  50000 650000 0  100000 650000 0  150000 650000 0  200000 650000 0  250000 650000 0  300000 650000 0  350000 650000 0  400000 650000 0  450000 650000 0  500000 650000 0  550000 650000 0  600000 650000 0  650000 650000 0  700000 650000 0  750000 650000 0  800000 650000 0  850000 650000 0  900000 650000 0  950000 650000 0  1000000 650000 0  0 700000 0  50000 700000 0  100000 700000 0  150000 700000 0  200000 700000 0  250000 700000 0  300000 700000 0  350000 700000 0  400000 700000 0  450000 700000 0  500000 700000 0  550000 700000 0  600000 700000 0  650000 700000 0  700000 700000 0  750000 700000 0  800000 700000 0  850000 700000 0  900000 700000 0  950000 700000 0  1000000 700000 0  0 750000 0  50000 750000 0  100000 750000 0  150000 750000 0  200000 750000 0  250000 750000 0  300000 750000 0  350000 750000 0  400000 750000 0  450000 750000 0  500000 750000 0  550000 750000 0  600000 750000 0  650000 750000 0  700000 750000 0  750000 750000 0  800000 750000 0  850000 750000 0  900000 750000 0  950000 750000 0  1000000 750000 0  0 800000 0  50000 800000 0  100000 800000 0  150000 800000 0  200000 800000 0  250000 800000 0  300000 800000 0  350000 800000 0  400000 800000 0  450000 800000 0  500000 800000 0  550000 800000 0  600000 800000 0  650000 800000 0  700000 800000 0  750000 800000 0  800000 800000 0  850000 800000 0  900000 800000 0  950000 800000 0  1000000 800000 0  0 850000 0  50000 850000 0  100000 850000 0  150000 850000 0  200000 850000 0  250000 850000 0  300000 850000 0  350000 850000 0  400000 850000 0  450000 850000 0  500000 850000 0  550000 850000 0  600000 850000 0  650000 850000 0  700000 850000 0  750000 850000 0  800000 850000 0  850000 850000 0  900000 850000 0  950000 850000 0  1000000 850000 0  0 900000 0  50000 900000 0  100000 900000 0  150000 900000 0  200000 900000 0  250000 900000 0  300000 900000 0  350000 900000 0  400000 900000 0  450000 900000 0  500000 900000 0  550000 900000 0  600000 900000 0  650000 900000 0  700000 900000 0  750000 900000 0  800000 900000 0  850000 900000 0  900000 900000 0  950000 900000 0  1000000 900000 0  0 950000 0  50000 950000 0  100000 950000 0  150000 950000 0  200000 950000 0  250000 950000 0  300000 950000 0  350000 950000 0  400000 950000 0  450000 950000 0  500000 950000 0  550000 950000 0  600000 950000 0  650000 950000 0  700000 950000 0  750000 950000 0  800000 950000 0  850000 950000 0  900000 950000 0  950000 950000 0  1000000 950000 0  0 1000000 0  50000 1000000 0  100000 1000000 0  150000 1000000 0  200000 1000000 0  250000 1000000 0  300000 1000000 0  350000 1000000 0  400000 1000000 0  450000 1000000 0  500000 1000000 0  550000 1000000 0  600000 1000000 0  650000 1000000 0  700000 1000000 0  750000 1000000 0  800000 1000000 0  850000 1000000 0  900000 1000000 0  950000 1000000 0  1000000 1000000 0  0 1050000 0  50000 1050000 0  100000 1050000 0  150000 1050000 0  200000 1050000 0  250000 1050000 0  300000 1050000 0  350000 1050000 0  400000 1050000 0  450000 1050000 0  500000 1050000 0  550000 1050000 0  600000 1050000 0  650000 1050000 0  700000 1050000 0  750000 1050000 0  800000 1050000 0  850000 1050000 0  900000 1050000 0  950000 1050000 0  1000000 1050000 0  0 1100000 0  50000 1100000 0  100000 1100000 0  150000 1100000 0  200000 1100000 0  250000 1100000 0  300000 1100000 0  350000 1100000 0  400000 1100000 0  450000 1100000 0  500000 1100000 0  550000 1100000 0  600000 1100000 0  650000 1100000 0  700000 1100000 0  750000 1100000 0  800000 1100000 0  850000 1100000 0  900000 1100000 0  950000 1100000 0  1000000 1100000 0  0 1150000 0  50000 1150000 0  100000 1150000 0  150000 1150000 0  200000 1150000 0  250000 1150000 0  300000 1150000 0  350000 1150000 0  400000 1150000 0  450000 1150000 0  500000 1150000 0  550000 1150000 0  600000 1150000 0  650000 1150000 0  700000 1150000 0  750000 1150000 0  800000 1150000 0  850000 1150000 0  900000 1150000 0  950000 1150000 0  1000000 1150000 0  0 1200000 0  50000 1200000 0  100000 1200000 0  150000 1200000 0  200000 1200000 0  250000 1200000 0  300000 1200000 0  350000 1200000 0  400000 1200000 0  450000 1200000 0  500000 1200000 0  550000 1200000 0  600000 1200000 0  650000 1200000 0  700000 1200000 0  750000 1200000 0  800000 1200000 0  850000 1200000 0  900000 1200000 0  950000 1200000 0  1000000 1200000 0  0 1250000 0  50000 1250000 0  100000 1250000 0  150000 1250000 0  200000 1250000 0  250000 1250000 0  300000 1250000 0  350000 1250000 0  400000 1250000 0  450000 1250000 0  500000 1250000 0  550000 1250000 0  600000 1250000 0  650000 1250000 0  700000 1250000 0  750000 1250000 0  800000 1250000 0  850000 1250000 0  900000 1250000 0  950000 1250000 0  1000000 1250000 0  0 1300000 0  50000 1300000 0  100000 1300000 0  150000 1300000 0  200000 1300000 0  250000 1300000 0  300000 1300000 0  350000 1300000 0  400000 1300000 0  450000 1300000 0  500000 1300000 0  550000 1300000 0  600000 1300000 0  650000 1300000 0  700000 1300000 0  750000 1300000 0  800000 1300000 0  850000 1300000 0  900000 1300000 0  950000 1300000 0  1000000 1300000 0  0 1350000 0  50000 1350000 0  100000 1350000 0  150000 1350000 0  200000 1350000 0  250000 1350000 0  300000 1350000 0  350000 1350000 0  400000 1350000 0  450000 1350000 0  500000 1350000 0  550000 1350000 0  600000 1350000 0  650000 1350000 0  700000 135
[...]
<PointData  Scalars="f_3013"> 
<DataArray  type="Float64"  Name="f_3013"  format="ascii">-5.7274698402870217e-01  -3.8578895311693262e-01  -2.5559169763936279e-01  -1.6619265401771441e-01  -1.0515652876123396e-01  -6.1620899335216708e-02  -2.8644442061050081e-02  -2.0126665840647811e-03  2.0856076514005770e-02  4.1614515659430154e-02  6.1418322329555713e-02  8.1204641014857665e-02  1.0190242226767433e-01  1.2464022850615117e-01  1.5101775287655048e-01  1.8353100268051409e-01  2.2629396344885397e-01  2.8625150753856166e-01  3.7467844892002933e-01  5.0491985277685048e-01  6.3861823100212090e-01  -4.3752798286458838e-01  -3.6405871268953566e-01  -2.4951246393297216e-01  -1.6487322012738390e-01  -1.0547795953364467e-01  -6.2410101263128799e-02  -2.9436313681179480e-02  -2.6362217192350233e-03  2.0452151737283805e-02  4.1441662821494675e-02  6.1484729667169044e-02  8.1532845140395827e-02  1.0253938333333504e-01  1.2566433852163816e-01  1.5254027547984195e-01  1.8566922162401214e-01  2.2900390607454216e-01  2.8852170871224692e-01  3.7121252925710779e-01  4.7495722106213079e-01  5.4500422680935134e-01  -3.0498705231660955e-01  -2.7788321529058430e-01  -2.1241428279715152e-01  -1.4999695726925233e-01  -9.9958052826752880e-02  -6.0764214756465415e-02  -2.9290418443151445e-02  -2.9588049147362735e-03  2.0101820831433730e-02  4.1244464832600483e-02  6.1507973837153222e-02  8.1787968086536419e-02  1.0298671881532033e-01  1.2616509552564545e-01  1.5271700773275187e-01  1.8456223791634846e-01  2.2424716972012915e-01  2.7446059555767388e-01  3.3534442348102794e-01  3.9574822117396413e-01  4.1707908024756862e-01  -2.0831956667872989e-01  -1.9790104489236610e-01  -1.6408049995471960e-01  -1.2391761163706075e-01  -8.6365374552346066e-02  -5.3749353837458422e-02  -2.5689842133977736e-02  -1.1287759295993589e-03  2.0999548119965170e-02  4.1620118147061222e-02  6.1531036262569172e-02  8.1464359487929391e-02  1.0215921776211957e-01  1.2443511549629321e-01  1.4924915005660710e-01  1.7768516052347558e-01  2.1072227175899499e-01  2.4840780495841666e-01  2.8774865185055865e-01  3.1898843103939362e-01  3.2473948166904443e-01  -1.3989866044828622e-01  -1.3601850551848571e-01  -1.1918970132966156e-01  -9.4758691933302885e-02  -6.8320403719299164e-02  -4.2767597727386267e-02  -1.9053745642127615e-02  2.8177859115710619e-03  2.3216589283940294e-02  4.2627369325309070e-02  6.1555994993723315e-02  8.0507969642060820e-02  9.9993657028159155e-02  1.2053208842977967e-01  1.4262203128721376e-01  1.6662522923150783e-01  1.9246009807187017e-01  2.1895997103791376e-01  2.4286005644364808e-01  2.5814500742385055e-01  2.5903469641102900e-01  -9.1235277239664375e-02  -9.0102157532648428e-02  -8.2056636702660848e-02  -6.7512590971822620e-02  -4.9397617200716740e-02  -3.0018915079109872e-02  -1.0654019090749992e-02  8.1759687053165626e-03  2.6384726250890628e-02  4.4105895737789474e-02  6.1573935830200023e-02  7.9062321615623876e-02  9.6846640632803974e-02  1.1516587235333368e-01  1.3415373589987770e-01  1.5370435794625556e-01  1.7323284515655574e-01  1.9132916298332767e-01  2.0548452711520512e-01  2.1258793787270230e-01  2.1194254158019299e-01  -5.6188816588005071e-02  -5.6230816924067249e-02  -5.2679832601880021e-02  -4.4079344103434941e-02  -3.1733532926212074e-02  -1.7220526656347625e-02  -1.6947196505268571e-03  1.4168284717375140e-02  3.0047619268179969e-02  4.5843929571158168e-02  6.1579816464536578e-02  7.7331029542975563e-02  9.3173398480983924e-02  1.0912832497988377e-01  1.2508930427488557e-01  1.4071410079680549e-01  1.5528137998113634e-01  1.6756128626972475e-01  1.7588403362802760e-01  1.7887582927820589e-01  1.7779350035752231e-01  -3.0608066512028818e-02  -3.1127015612999978e-02  -2.9849638292091446e-02  -2.4760087565289329e-02  -1.6277677515483278e-02  -5.3998529884102140e-03  6.9665075436052366e-03  2.0172281478417538e-02  3.3810764238577602e-02  4.7651785181616141e-02  6.1573865631447178e-02  7.5506017125396147e-02  8.9376271770193499e-02  1.0305934632065387e-01  1.1631595040908854e-01  1.2872150825263204e-01  1.3959803180439034e-01  1.4800183850715701e-01  1.5290326803947649e-01  1.5385709234787370e-01  1.5272649279486694e-01  -1.1721363331069013e-02  -1.2399699019367770e-02  -1.2244936125692715e-02  -9.2165559445390732e-03  -3.2861624625419640e-03  4.9483161778788439e-03  1.4818506218490067e-02  2.5768594055694150e-02  3.7387778437264416e-02  4.9386975738801075e-02  6.1559042704932759e-02  7.3736764880657585e-02  8.5751636687385988e-02  9.7392255338236033e-02  1.0836138345859971e-01  1.1823554003126341e-01  1.2644300169549744e-01  1.3230135417240663e-01  1.3520716990578335e-01  1.3517748690570858e-01  1.3413497909470171e-01  2.3251035260399328e-03  1.6281192840111101e-03  1.2539593454442158e-03  3.0731918956764569e-03  7.3229186848682345e-03  1.3661140506060590e-02  2.1608844619692563e-02  3.0713606779725695e-02  4.0597280048891557e-02  5.0955657803794484e-02  6.1538820749742401e-02  7.2124458462382718e-02  8.2489079105237201e-02  9.2379137272962319e-02  1.0148431883508707e-01  1.0941854563274347e-01  1.1572196962132858e-01  1.1991301387726111e-01  1.2165403746203086e-01  1.2117535967268053e-01  1.2025840248116035e-01  1.2777918650869545e-02  1.2118360919007509e-02  1.1516131652800025e-02  1.2624679965249106e-02  1.5765965303290871e-02  2.0755174492620716e-02  2.7250739012084878e-02  3.4890596660534970e-02  4.3340388000296964e-02  5.2303858045846793e-02  6.1516060405983994e-02  7.0728752358367550e-02  7.9692783101090611e-02  8.8140549327337392e-02  9.5771736729472520e-02  1.0224756022565765e-01  1.0720336979603053e-01  1.1029984766023057e-01  1.1135892479754286e-01  1.1069749028823599e-01  1.0990335480028821e-01  2.0478824813261742e-02  1.9872128638827334e-02  1.9188311508575702e-02  1.9878331061224219e-02  2.2288729692770851e-02  2.6328392803827622e-02  3.1750335791870095e-02  3.8263188709107207e-02  4.5574625352881169e-02  5.3405906654925332e-02  6.1492679041381337e-02  6.9578913490204508e-02  7.7407959013716207e-02  8.4713710559189373e-02  9.1214977189332289e-02  9.6617250958541068e-02  1.0062894686421264e-01  1.0300669669637716e-01  1.0366561165359506e-01  1.0294823679464238e-01  1.0225871127531568e-01  2.5995202303335324e-02  2.5437697527563266e-02  2.4737785192939659e-02  2.5182239620912608e-02  2.7116070972660937e-02  3.0502484741940263e-02  3.5156832137786968e-02  4.0838994093138729e-02  4.7291229636952779e-02  5.4253748807031779e-02  6.1469721866660519e-02  6.8684809259127108e-02  7.5644284000093834e-02  8.2090261297960029e-02  8.7761596023331404e-02  9.2399632444236032e-02  9.5764936904264616e-02  9.7676230295078381e-02  9.8101490579806994e-02  9.7382724025343342e-02  9.6774855880129518e-02  2.9703610556124214e-02  2.9182993721380210e-02  2.8490598933375424e-02  2.8794548661884953e-02  3.0430147297648244e-02  3.3390859271215684e-02  3.7530818531539160e-02  4.2644090036524557e-02  4.8497992031125967e-02  5.4848524090288689e-02  6.1447572954004631e-02  6.8045826005370041e-02  7.4393754296312425e-02  8.0242672433614909e-02  8.5347904759837570e-02  8.9476470459741428e-02  9.2423214500572115e-02  9.4044712490849225e-02  9.4337563992926907e-02  9.3635071247541224e-02  9.3085639315469162e-02  3.1842487312996361e-02  3.1342687156854558e-02  3.0660407769344356e-02  3.0891453602450478e-02  3.2362346967214947e-02  3.5081855203796093e-02  3.8925352802009212e-02  4.3706437762982296e-02  4.9207455500097842e-02  5.5194600832450792e-02  6.1426175078238360e-02  6.7657294955893468e-02  7.3642982161674475e-02  7.9141292081561843e-02  8.3918148808264828e-02  8.7755834173595421e-02  9.0468418001363612e-02  9.1932534118892018e-02  9.2158489136830141e-02  9.1471806575013720e-02  9.0958876349287746e-02  3.2544065354161877e-02  3.2047236339881491e-02  3.1367918055404849e-02  3.1574938560751671e-02  3.2991157809629405e-02  3.5630457494808088e-02  3.9375346890142618e-02  4.4045920882453321e-02  4.9429514957559595e-02  5.5295759152802715e-02  6.1405211660004309e-02  6.7514664167205515e-02  7.3380908362448885e-02  7.8764502437555409e-02  8.3435076429866126e-02  8.7179965825201253e-02  8.9819265510380261e-02  9.1235484759258120e-02  9.1442505264604984e-02  9.0763186980128141e-02  9.0266357965847879e-02  3.1851546970722455e-02  3.1338616744996453e-02  3.0651934183180143e-02  3.0877889201117982e-02  3.2342005318646443e-02  3.5054589146414128e-02  3.8892274511744554e-02  4.3669131238447310e-02  4.9167441158333963e-02  5.5153128364114783e-02  6.1384248241770058e-02  6.7615822487557528e-02  7.3602967819910409e-02  7.9103985557025830e-02  8.3885070517999080e-02  8.7728568116212380e-02  9.0448076352794310e-02  9.1918969717558835e-02  9.2150015550665210e-02  9.1467736163154872e-02  9.0967936007013209e-02  2.9724784004541177e-02  2.9175352072469098e-02  2.8472859327083537e-02  2.8765710829161319e-02  3.0387208819438176e-02  3.3333952860268364e-02  3.7462518560172048e-02  4.2567750886394196e-02  4.8416669023696207e-02  5.4764597314638452e-02  6.1362850366003634e-02  6.7961899229719402e-02  7.4312431288881903e-02  8.0166333283483354e-02  8.5279604788469188e-02  8.9419564048792879e-02  9.2380276022360777e-02  9.4015874658123957e-02  9.4319824386634013e-02  9.3627429598629505e-02  9.3106812763885438e-02  2.6035567439881557e-02  2.5427699294667754e-02  2.4708932740204203e-02  2.5134193024932760e-02  2.7045486415746198e-02  3.0410790875774057e-02  3.5048827296678464e-02  4.0720162022049214e-02  4.7166139319914889e-02  5.4125614060881372e-02  6.1340701453347760e-02  6.8556674512976451e-02  7.5519193683055083e-02  8.1971429226868675e-02  8.7653591182220963e-02  9.2307938578067808e-02  9.5694352347347689e-02  9.7628183699096344e-02  9.8072638127069275e-02  9.7372725792445811e-02  9.6815221016673919e-02  2.0551712044695882e-02  1.9862186525369131e-02  1.9144811666416611e-02  1.9803726623634391e-02  2.2181476455798575e-02  2.6193172361469480e-02  3.1595446130677926e-02  3.8096712760819967e-02  4.5402464306292474e-02  5.3231509829803625e-02  6.1317744278626442e-02  6.9404516665082364e-02  7.7235797967126277e-02  8.4547234610899899e-02  9.1060087528137060e-02  9.6482030516179748e-02  1.0052169362723742e-01  1.0293209225878426e-01  1.0362211181143277e-01  1.0293829468118117e-01  1.0233159850674689e-01  1.2907068519724205e-02  1.2112933031776340e-02  1.1451498522469673e-02  1.2510575659781496e-02  1.5607053523981337e-02  2.0562863094353508e-02  2.7038686590537913e-02  3.4669873992671983e-02  4.3117640218918153e-02  5.2081670961640417e-02  6.1294362914023508e-02  7.0506565274160313e-02  7.9470035319709920e-02  8.7919826659472011e-02  9.5559684307922291e-02  1.0205524882738673e-01  1.0704445801671701e-01  1.1018574335475879e-01  1.1129429166720811e-01  1.1069206240100085e-01  1.1003250466913897e-01  2.5520208388531583e-03  1.6350636473327757e-03  1.1563858579826658e-03  2.8974094427521540e-03  7.0884536986839403e-03  1.3391877687268123e-02  2.1326104484923388e-02  3.0431286047047049e-02  4.0321344214771432e-02  5.0685964857625131e-02  6.1271602570264816e-02  7.1854765516212366e-02  8.2213143271115049e-02  9.2096816540281026e-02  1.0120157870031435e-01  1.0914928281394638e-01  1.1548750463513908e-01  1.1973723142433114e-01  1.2155646397456381e-01  1.2118230403599711e-01  1.2048531979396837e-01  -1.1324555774687326e-02  -1.2367063585694284e-02  -1.2396746585769038e-02  -9.4909308523928246e-03  -3.6325783754844426e-03  4.5748832887484809e-03  1.4449039861410780e-02  2.5418167981773432e-02  3.7058786632622590e-02  4.9073658439349986e-02  6.1251380615074097e-02  7.3423447581205573e-02  8.5422644882742288e-02  9.7041829264312193e-02  1.0799191710151615e-01  1.1786210714212760e-01  1.2609658578254890e-01  1.3202697926454651e-01  1.3505535944570043e-01  1.3521012233937577e-01  1.3453178665107735e-01  -2.9916069474851460e-02  -3.1046669027857958e-02  -3.0092844719461172e-02  -2.5191415187142813e-02  -1.6787608484376913e-02  -5.9110849326198863e-03  6.4944729109220134e-03  1.9751076999355473e-02  3.3434151549814689e-02  4.7304406194610980e-02  6.1236557688559255e-02  7.5158638138389924e-02  8.8999659081428553e-02  1.0263814184158830e-01  1.1584391577640051e-01  1.2821027630841603e-01  1.3908810083548978e-01  1.4757051088529652e-01  1.5266006161209941e-01  1.5393743893300840e-01  1.5341848983203740e-01  -5.4983077037505323e-02  -5.6065405958189027e-02  -5.3073610308011186e-02  -4.4750862949709425e-02  -3.2470956661122229e-02  -1.7903677476792990e-02  -2.2788809548747024e-03  1.3682098340125768e-02  2.9637024839024362e-02  4.5479393777031613e-02  6.1230606855469709e-02  7.6966493748847689e-02  9.2762804051825645e-02  1.0864213860263001e-01  1.2450514297053214e-01  1.4003094997635318e-01  1.5454395624621850e-01  1.6688976742344219e-01  1.7549025592188836e-01  1.7904124024407639e-01  1.7899923990801453e-01  -8.9132118260173809e-02  -8.9777514552683249e-02  -8.2674103795186540e-02  -6.8518739663310693e-02  -5.0422421836540651e-02  -3.0893934626242892e-02  -1.1343312579866547e-02  7.6445509666764021e-03  2.5963782687204770e-02  4.3748101704383563e-02  6.1236487489806625e-02  7.8704527582216702e-02  9.6425697069115551e-02  1.1463445461468885e-01  1.3346444241075536e-01  1.5282933839911589e-01  1.7220804052072350e-01  1.9032301429183052e-01  2.0486706002266983e-01  2.1291258085265855e-01  2.1404570055967490e-01  -1.3622427309100660e-01  -1.3533458410382840e-01  -1.2004963312362708e-01  -9.6149547717895120e-02  -6.9649674751853560e-02  -4.3814805911494052e-02  -1.9811607967201612e-02  2.2783348902312762e-03  2.2816766291850487e-02  4.2302453677947549e-02  6.1254428326284291e-02  8.0183053994698064e-02  9.9593834036066420e-02  1.1999263740843520e-01  1.4186416896213400e-01  1.6557802104739347e-01  1.9113082703930698e-01  2.1756911525331180e-01  2.4200012464967213e-01  2.5882892883849773e-01  2.6270908376829893e-01  -2.0192905834901770e-01  -1.9617800771936733e-01  -1.6493822853053428e-01  -1.2559738163839526e-01  -8.7911848438976453e-02  -5.4874737203459610e-02  -2.6438726736593209e-02  -1.6246921762806039e-03  2.0651205557891787e-02  4.1346063832080879e-02  6.1279387057440210e-02  8.1190305172947910e-02  1.0181087520004334e-01  1.2393919924960758e-01  1.4850026545398645e-01  1.7655977715746765e-01  2.0917579787235629e-01  2.4672803495707213e-01  2.8689092327473265e-01  3.2071146821238128e-01  3.3112998999874599e-01  -2.9426865692753690e-01  -2.7293779785393252e-01  -2.1253400016099944e-01  -1.5165017223764871e-01  -1.0143674640010777e-01  -6.1751814596329578e-02  -2.9906584412735034e-02  -3.3546722056299076e-03  1.9823704504693652e-02  4.1022455233476765e-02  6.1302449482859157e-02  8.1565958487411605e-02  1.0270860248857794e-01  1.2576922823474754e-01  1.5210084176316335e-01  1.8357463807647825e-01  2.2276847614676654e-01  2.7280738058926757e-01  3.3522470611716898e-01  4.0069363861060403e-01  4.2779747563663112e-01  -4.2219380348931501e-01  -3.5214679774209517e-01  -2.4840210593707610e-01  -1.6571128539221880e-01  -1.0619348275451726e-01  -6.2858798303989785e-02  -2.9729852159821716e-02  -2.8539152016195612e-03  2.0271039986682268e-02  4.1277578179620474e-02  6.1325693652846375e-02  8.1368760498520487e-02  1.0235827158273110e-01  1.2544664503924996e-01  1.5224673700119512e-01  1.8522052458314536e-01  2.2828838285366271e-01  2.8768364344740399e-01  3.7232288725299567e-01  4.8686913600956105e-01  5.6033840618461506e-01  -5.1580780768208279e-01  -3.8210942945681309e-01  -2.5186802559999549e-01  -1.6344108421853173e-01  -1.0348354012882732e-01  -6.0720579360490447e-02  -2.8207329556528903e-02  -1.8298051861315309e-03  2.0908001052344215e-02  4.1605782305159836e-02  6.1392100990461003e-02  8.1195907660585973e-02  1.0195434680601047e-01  1.2482308990408114e-01  1.5145486538106720e-01  1.8443132265523479e-01  2.2796695208125384e-01  2.8900307733773678e-01  3.7840212095938786e-01  5.0859937643696096e-01  6.9555740734873239e-01  </DataArray> 
</PointData> 
</Piece>
</UnstructuredGrid>
</VTKFile>