<?xml version="1.0"?>
<VTKFile type="UnstructuredGrid"  version="0.1"  >
<UnstructuredGrid>
<Piece  NumberOfPoints="651" NumberOfCells="1200">
<Points>
<DataArray  type="Float64"  NumberOfComponents="3"  format="ascii">0 0 0  50000 0 0  100000 0 0  150000 0 0  200000 0 0  250000 0 0  300000 0 0  350000 0 0  400000 0 0  450000 0 0  500000 0 0  550000 0 0  600000 0 0  650000 0 0  700000 0 0  750000 0 0  800000 0 0  850000 0 0  900000 0 0  950000 0 0  1000000 0 0  0 50000 0  50000 50000 0  100000 50000 0  150000 50000 0  200000 50000 0  250000 50000 0  300000 50000 0  350000 50000 0  400000 50000 0  450000 50000 0  500000 50000 0  550000 50000 0  600000 50000 0  650000 50000 0  700000 50000 0  750000 50000 0  800000 50000 0  850000 50000 0  900000 50000 0  950000 50000 0  1000000 50000 0  0 100000 0  50000 100000 0  100000 100000 0  150000 100000 0  200000 100000 0  250000 100000 0  300000 100000 0  350000 100000 0  400000 100000 0  450000 100000 0  500000 100000 0  550000 100000 0  600000 100000 0  650000 100000 0  700000 100000 0  750000 100000 0  800000 100000 0  850000 100000 0  900000 100000 0  950000 100000 0  1000000 100000 0  0 150000 0  50000 150000 0  100000 150000 0  150000 150000 0  200000 150000 0  250000 150000 0  300000 150000 0  350000 150000 0  400000 150000 0  450000 150000 0  500000 150000 0  550000 150000 0  600000 150000 0  650000 150000 0  700000 150000 0  750000 150000 0  800000 150000 0  850000 150000 0  900000 150000 0  950000 150000 0  1000000 150000 0  0 200000 0  50000 200000 0  100000 200000 0  150000 200000 0  200000 200000 0  250000 200000 0  300000 200000 0  350000 200000 0  400000 200000 0  450000 200000 0  500000 200000 0  550000 200000 0  600000 200000 0  650000 200000 0  700000 200000 0  750000 200000 0  800000 200000 0  850000 200000 0  900000 200000 0  950000 200000 0  1000000 200000 0  0 250000 0  50000 250000 0  100000 250000 0  150000 250000 0  200000 250000 0  250000 250000 0  300000 250000 0  350000 250000 0  400000 250000 0  450000 250000 0  500000 250000 0  550000 250000 0  600000 250000 0  650000 250000 0  700000 250000 0  750000 250000 0  800000 250000 0  850000 250000 0  900000 250000 0  950000 250000 0  1000000 250000 0  0 300000 0  50000 300000 0  100000 300000 0  150000 300000 0  200000 300000 0  250000 300000 0  300000 300000 0  350000 300000 0  400000 300000 0  450000 300000 0  500000 300000 0  550000 300000 0  600000 300000 0  650000 300000 0  700000 300000 0  750000 300000 0  800000 300000 0  850000 300000 0  900000 300000 0  950000 300000 0  1000000 300000 0  0 350000 0  50000 350000 0  100000 350000 0  150000 350000 0  200000 350000 0  250000 350000 0  300000 350000 0  350000 350000 0  400000 350000 0  450000 350000 0  500000 350000 0  550000 350000 0  600000 350000 0  650000 350000 0  700000 350000 0  750000 350000 0  800000 350000 0  850000 350000 0  900000 350000 0  950000 350000 0  1000000 350000 0  0 400000 0  50000 400000 0  100000 400000 0  150000 400000 0  200000 400000 0  250000 400000 0  300000 400000 0  350000 400000 0  400000 400000 0  450000 400000 0  500000 400000 0  550000 400000 0  600000 400000 0  650000 400000 0  700000 400000 0  750000 400000 0  800000 400000 0  850000 400000 0  900000 400000 0  950000 400000 0  1000000 400000 0  0 450000 0  50000 450000 0  100000 450000 0  150000 450000 0  200000 450000 0  250000 450000 0  300000 450000 0  350000 450000 0  400000 450000 0  450000 450000 0  500000 450000 0  550000 450000 0  600000 450000 0  650000 450000 0  700000 450000 0  750000 450000 0  800000 450000 0  850000 450000 0  900000 450000 0  950000 450000 0  1000000 450000 0  0 500000 0  50000 500000 0  100000 500000 0  150000 500000 0  200000 500000 0  250000 500000 0  300000 500000 0  350000 500000 0  400000 500000 0  450000 500000 0  500000 500000 0  550000 500000 0  600000 500000 0  650000 500000 0  700000 500000 0  750000 500000 0  800000 500000 0  850000 500000 0  900000 500000 0  950000 500000 0  1000000 500000 0  0 550000 0  50000 550000 0  100000 550000 0  150000 550000 0  200000 550000 0  250000 550000 0  300000 550000 0  350000 550000 0  400000 550000 0  450000 550000 0  500000 550000 0  550000 550000 0  600000 550000 0  650000 550000 0  700000 550000 0  750000 550000 0  800000 550000 0  850000 550000 0  900000 550000 0  950000 550000 0  1000000 550000 0  0 600000 0  50000 600000 0  100000 600000 0  150000 600000 0  200000 600000 0  250000 600000 0  300000 600000 0  350000 600000 0  400000 600000 0  450000 600000 0  500000 600000 0  550000 600000 0  600000 600000 0  650000 600000 0  700000 600000 0  750000 600000 0  800000 600000 0  850000 600000 0  900000 600000 0  950000 600000 0  1000000 600000 0  0 650000 0  50000 650000 0  100000 650000 0  150000 650000 0  200000 650000 0  250000 650000 0  300000 650000 0  350000 650000 0  400000 650000 0  450000 650000 0  500000 650000 0  550000 650000 0  600000 650000 0  650000 650000 0  700000 650000 0  750000 650000 0  800000 650000 0  850000 650000 0  900000 650000 0  950000 650000 0  1000000 650000 0  0 700000 0  50000 700000 0  100000 700000 0  150000 700000 0  200000 700000 0  250000 700000 0  300000 700000 0  350000 700000 0  400000 700000 0  450000 700000 0  500000 700000 0  550000 700000 0  600000 700000 0  650000 700000 0  700000 700000 0  750000 700000 0  800000 700000 0  850000 700000 0  900000 700000 0  950000 700000 0  1000000 700000 0  0 750000 0  50000 750000 0  100000 750000 0  150000 750000 0  200000 750000 0  250000 750000 0  300000 750000 0  350000 750000 0  400000 750000 0  450000 750000 0  500000 750000 0  550000 750000 0  600000 750000 0  650000 750000 0  700000 750000 0  750000 750000 0  800000 750000 0  850000 750000 0  900000 750000 0  950000 750000 0  1000000 750000 0  0 800000 0  50000 800000 0  100000 800000 0  150000 800000 0  200000 800000 0  250000 800000 0  300000 800000 0  350000 800000 0  400000 800000 0  450000 800000 0  500000 800000 0  550000 800000 0  600000 800000 0  650000 800000 0  700000 800000 0  750000 800000 0  800000 800000 0  850000 800000 0  900000 800000 0  950000 800000 0  1000000 800000 0  0 850000 0  50000 850000 0  100000 850000 0  150000 850000 0  200000 850000 0  250000 850000 0  300000 850000 0  350000 850000 0  400000 850000 0  450000 850000 0  500000 850000 0  550000 850000 0  600000 850000 0  650000 850000 0  700000 850000 0  750000 850000 0  800000 850000 0  850000 850000 0  900000 850000 0  950000 850000 0  1000000 850000 0  0 900000 0  50000 900000 0  100000 900000 0  150000 900000 0  200000 900000 0  250000 900000 0  300000 900000 0  350000 900000 0  400000 900000 0  450000 900000 0  500000 900000 0  550000 900000 0  600000 900000 0  650000 900000 0  700000 900000 0  750000 900000 0  800000 900000 0  850000 900000 0  900000 900000 0  950000 900000 0  1000000 900000 0  0 950000 0  50000 950000 0  100000 950000 0  150000 950000 0  200000 950000 0  250000 950000 0  300000 950000 0  350000 950000 0  400000 950000 0  450000 950000 0  500000 950000 0  550000 950000 0  600000 950000 0  650000 950000 0  700000 950000 0  750000 950000 0  800000 950000 0  850000 950000 0  900000 950000 0  950000 950000 0  1000000 950000 0  0 1000000 0  50000 1000000 0  100000 1000000 0  150000 1000000 0  200000 1000000 0  250000 1000000 0  300000 1000000 0  350000 1000000 0  400000 1000000 0  450000 1000000 0  500000 1000000 0  550000 1000000 0  600000 1000000 0  650000 1000000 0  700000 1000000 0  750000 1000000 0  800000 1000000 0  850000 1000000 0  900000 1000000 0  950000 1000000 0  1000000 1000000 0  0 1050000 0  50000 1050000 0  100000 1050000 0  150000 1050000 0  200000 1050000 0  250000 1050000 0  300000 1050000 0  350000 1050000 0  400000 1050000 0  450000 1050000 0  500000 1050000 0  550000 1050000 0  600000 1050000 0  650000 1050000 0  700000 1050000 0  750000 1050000 0  800000 1050000 0  850000 1050000 0  900000 1050000 0  950000 1050000 0  1000000 1050000 0  0 1100000 0  50000 1100000 0  100000 1100000 0  150000 1100000 0  200000 1100000 0  250000 1100000 0  300000 1100000 0  350000 1100000 0  400000 1100000 0  450000 1100000 0  500000 1100000 0  550000 1100000 0  600000 1100000 0  650000 1100000 0  700000 1100000 0  750000 1100000 0  800000 1100000 0  850000 1100000 0  900000 1100000 0  950000 1100000 0  1000000 1100000 0  0 1150000 0  50000 1150000 0  100000 1150000 0  150000 1150000 0  200000 1150000 0  250000 1150000 0  300000 1150000 0  350000 1150000 0  400000 1150000 0  450000 1150000 0  500000 1150000 0  550000 1150000 0  600000 1150000 0  650000 1150000 0  700000 1150000 0  750000 1150000 0  800000 1150000 0  850000 1150000 0  900000 1150000 0  950000 1150000 0  1000000 1150000 0  0 1200000 0  50000 1200000 0  100000 1200000 0  150000 1200000 0  200000 1200000 0  250000 1200000 0  300000 1200000 0  350000 1200000 0  400000 1200000 0  450000 1200000 0  500000 1200000 0  550000 1200000 0  600000 1200000 0  650000 1200000 0  700000 1200000 0  750000 1200000 0  800000 1200000 0  850000 1200000 0  900000 1200000 0  950000 1200000 0  1000000 1200000 0  0 1250000 0  50000 1250000 0  100000 1250000 0  150000 1250000 0  200000 1250000 0  250000 1250000 0  300000 1250000 0  350000 1250000 0  400000 1250000 0  450000 1250000 0  500000 1250000 0  550000 1250000 0  600000 1250000 0  650000 1250000 0  700000 1250000 0  750000 1250000 0  800000 1250000 0  850000 1250000 0  900000 1250000 0  950000 1250000 0  1000000 1250000 0  0 1300000 0  50000 1300000 0  100000 1300000 0  150000 1300000 0  200000 1300000 0  250000 1300000 0  300000 1300000 0  350000 1300000 0  400000 1300000 0  450000 1300000 0  500000 1300000 0  550000 1300000 0  600000 1300000 0  650000 1300000 0  700000 1300000 0  750000 1300000 0  800000 1300000 0  850000 1300000 0  900000 1300000 0  950000 1300000 0  1000000 1300000 0  0 1350000 0  50000 1350000 0  100000 1350000 0  150000 1350000 0  200000 1350000 0  250000 1350000 0  300000 1350000 0  350000 1350000 0  400000 1350000 0  450000 1350000 0  500000 1350000 0  550000 1350000 0  600000 1350000 0  650000 1350000 0  700000 135
[...]
<PointData  Scalars="f_3013"> 
<DataArray  type="Float64"  Name="f_3013"  format="ascii">-9.6099326188579182e-01  -6.5218106960560351e-01  -4.3646721801717048e-01  -2.8910606692504343e-01  -1.8985516869393482e-01  -1.2062673186060367e-01  -6.9697357244779878e-02  -2.9853994457131487e-02  3.3760887035972778e-03  3.2884919955300788e-02  6.0708049020815238e-02  8.8501096379165561e-02  1.1790561578189904e-01  1.5091090692503895e-01  1.9031949665328740e-01  2.4046159878420115e-01  3.0838603509575113e-01  4.0582504891798749e-01  5.5151813579999187e-01  7.6703065072007381e-01  9.8738801786964059e-01  -7.3956912383098861e-01  -6.1786448687519979e-01  -4.2771410557029066e-01  -2.8807886426047108e-01  -1.9140841959566174e-01  -1.2280197333964764e-01  -7.1710516464157339e-02  -3.1416957899691261e-02  2.3469619286056206e-03  3.2405206215588622e-02  6.0789307851990222e-02  8.9181973921480404e-02  1.1926895467984698e-01  1.5309425211375077e-01  1.9351488856147772e-01  2.4486734907025237e-01  3.1392628689226498e-01  4.1081715192982315e-01  5.4721120166475867e-01  7.1922402857925860e-01  8.3467544790871406e-01  -5.2298390494816416e-01  -4.7790273195310162e-01  -3.6913343039435709e-01  -2.6624711602144291e-01  -1.8487670105073231e-01  -1.2236452384723989e-01  -7.3350973047780835e-02  -3.3382800071314077e-02  8.0240032207191318e-04  3.1584422588327374e-02  6.0802899247750952e-02  9.0049497321602598e-02  1.2092730140853297e-01  1.5531375386419694e-01  1.9565895049244045e-01  2.4530935548033134e-01  3.0866755415955094e-01  3.9035703787627973e-01  4.9067415076550347e-01  5.9087683995118312e-01  6.2597174678329803e-01  -3.6500247757185539e-01  -3.4763790040188669e-01  -2.9158197266005070e-01  -2.2568779114747722e-01  -1.6491422011216003e-01  -1.1304286846430255e-01  -6.9314679197385570e-02  -3.1839012747073674e-02  1.2795963780893400e-03  3.1691757085444132e-02  6.0827534843010324e-02  9.0001902987609503e-02  1.2054217913370228e-01  1.5391577070823573e-01  1.9182938312654668e-01  2.3621090814283519e-01  2.8881690595910514e-01  3.4983650655050874e-01  4.1434085053611430e-01  4.6599811916513922e-01  4.7541837865151709e-01  -2.5303048812967111e-01  -2.4662455419896845e-01  -2.1905684950638088e-01  -1.7943300075935606e-01  -1.3708341760627135e-01  -9.6758296349480355e-02  -5.9953890814211180e-02  -2.6578847325441170e-02  4.0780654841496540e-03  3.2916236749758278e-02  6.0866687988847118e-02  8.8857814271972285e-02  1.1782662617333751e-01  1.4872751186195141e-01  1.8248506866693601e-01  2.1979780908638291e-01  2.6062189152953630e-01  3.0309079793546390e-01  3.4181031007347068e-01  3.6674074449785138e-01  3.6809426578647736e-01  -1.7324589096541113e-01  -1.7151494149635213e-01  -1.5881456870445623e-01  -1.3579312942081939e-01  -1.0729710428822736e-01  -7.7121127460256941e-02  -4.7331841359255319e-02  -1.8728187482791769e-02  8.6190435511330401e-03  3.5006898323590670e-02  6.0900527997489760e-02  8.6830039192162797e-02  1.1332939675570006e-01  1.4087213250390238e-01  1.6975613336073522e-01  1.9987712312044001e-01  2.3032484875432926e-01  2.5880059157413798e-01  2.8115960547442537e-01  2.9225187440693695e-01  2.9098899669874617e-01  -1.1571533445567746e-01  -1.1603329403047186e-01  -1.1103623928315046e-01  -9.8057893578102989e-02  -7.9197470643204163e-02  -5.7046221588635551e-02  -3.3488417834876702e-02  -9.6026576701264185e-03  1.4130453982718904e-02  3.7603914139002319e-02  6.0916415354967925e-02  8.4256342059869593e-02  1.0781236655319762e-01  1.3168149642445273e-01  1.5574477595310673e-01  1.7948462509960864e-01  2.0174221748355828e-01  2.2050022369845260e-01  2.3300731576946518e-01  2.3705215349319483e-01  2.3498555496784895e-01  -7.3740014182366143e-02  -7.4920914789118095e-02  -7.3874797659271019e-02  -6.6861137359694636e-02  -5.4467207510843135e-02  -3.8320060257678798e-02  -1.9906137896813402e-02  -2.7597087426984088e-04  1.9931913619122544e-02  4.0379213069293027e-02  6.0912469815156210e-02  8.1464112382190701e-02  1.0196496293284595e-01  1.2225519809652075e-01  1.4198092217684136e-01  1.6047253822748381e-01  1.7662867900675602e-01  1.8889744236635006e-01  1.9559474541616334e-01  1.9609282849607268e-01  1.9388429140341701e-01  -4.2835234328480715e-02  -4.4323308971467017e-02  -4.5248758032344058e-02  -4.1742919844853510e-02  -3.3618323810051226e-02  -2.1834307905991123e-02  -7.4874018187749249e-03  8.5170818772520827e-03  2.5523090030716320e-02  4.3083736666580129e-02  6.0892789853956228e-02  7.8712516793163545e-02  9.6302990590412640e-02  1.1335069751624621e-01  1.2939468287375344e-01  1.4375677979938356e-01  1.5550356252774444e-01  1.6351316948212785e-01  1.6681596876757029e-01  1.6558173827429201e-01  1.6348235209322645e-01  -1.9975345633829963e-02  -2.1511967397586079e-02  -2.3362993457183852e-02  -2.1902526266183643e-02  -1.6576298293630599e-02  -7.9123808168879185e-03  3.3059891120168113e-03  1.6340288648121280e-02  3.0581932891253091e-02  4.5551284288180761e-02  6.0863058129129483e-02  7.6179863954622618e-02  9.1162275065929471e-02  1.0541873992199428e-01  1.1845901465814843e-01  1.2966064661990093e-01  1.3827197679055253e-01  1.4350494968714400e-01  1.4483886753904024e-01  1.4281690832039437e-01  1.4091216619547201e-01  -3.0959163329678106e-03  -4.5693077197352036e-03  -6.8006055394491784e-03  -6.5196285901161456e-03  -3.0203292987954059e-03  3.4368715069358112e-03  1.2298904607149412e-02  2.2975817026987207e-02  3.4928051524967765e-02  4.7684172245084845e-02  6.0828218635071152e-02  7.3973700621705274e-02  8.6732546907094560e-02  9.8684164117798928e-02  1.0935002203715373e-01  1.1818281034835727e-01  1.2458804254725360e-01  1.2801665897544287e-01  1.2822025068634021e-01  1.2589607963302235e-01  1.2419903489213184e-01  9.2241895826319434e-03  7.8512122596057551e-03  5.5118354260252902e-03  5.1235042373458540e-03  7.4370502620544386e-03  1.2353632763092827e-02  1.9480696499031207e-02  2.8346293620370156e-02  3.8479121547596813e-02  4.9433855930852186e-02  6.0791706075801311e-02  7.2149057761607183e-02  8.3101203030473733e-02  9.3226268877023441e-02  1.0207461418928203e-01  1.0917111332101627e-01  1.1404354479158933e-01  1.1630602342606938e-01  1.1587112631766598e-01  1.1348247998007920e-01  1.1197344343356998e-01  1.7964042966457251e-02  1.6690245649094174e-02  1.4364335979536276e-02  1.3605254073003054e-02  1.5160980715923625e-02  1.9027711148357714e-02  2.4920182918469848e-02  3.2453164762830618e-02  4.1212529345341968e-02  5.0782852908030349e-02  6.0755476386664141e-02  7.0726862852708003e-02  8.0292786932783577e-02  8.9042713661081671e-02  9.6558811888905277e-02  1.0242535787328416e-01  1.0625847329859223e-01  1.0777923700908819e-01  1.0699282127403661e-01  1.0464166340154404e-01  1.0328640528333966e-01  2.3787665468277500e-02  2.2591923956239400e-02  2.0317815888688931e-02  1.9361606769976818e-02  2.0452989793635322e-02  2.3641908234421735e-02  2.8710776338520618e-02  3.5332886040324696e-02  4.3136055558734267e-02  5.1730379861466981e-02  6.0720333526975381e-02  6.9709091318545316e-02  7.8299439539941562e-02  8.6094824520416766e-02  9.2704129297137491e-02  9.7754658425598370e-02  1.0092121240986807e-01  1.0199087059999976e-01  1.0101959682940570e-01  9.8733338341332508e-02  9.7491740182677783e-02  2.7123504275549278e-02  2.5974350581477335e-02  2.3745314134139293e-02  2.2694036329360609e-02  2.3533479734857598e-02  2.6341162757916640e-02  3.0937007146196280e-02  3.7028056288559957e-02  4.4267491782351405e-02  5.2282084907825085e-02  6.0686298127098970e-02  6.9089810551306099e-02  7.7102129229681515e-02  8.4337270687714003e-02  9.0421515704722358e-02  9.5007942074087748e-02  9.7804503927695380e-02  9.8633552741995326e-02  9.7575603674349864e-02  9.5341736927956874e-02  9.4171948500615887e-02  2.8212477975432096e-02  2.7072973641222600e-02  2.4859840053650464e-02  2.3778606823866393e-02  2.4535226157682187e-02  2.7216576717415411e-02  3.1655324810939474e-02  3.7569825725871371e-02  4.4621721522744934e-02  5.2443420201269110e-02  6.0652923698754732e-02  6.8862427196239875e-02  7.6684125874764600e-02  8.3736021671638697e-02  8.9650522586570872e-02  9.4089270680095899e-02  9.6770621239829838e-02  9.7527240573646048e-02  9.6446007343861995e-02  9.4232873756289637e-02  9.3093369422080338e-02  2.7133898896897199e-02  2.5964110469556174e-02  2.3730243723163371e-02  2.2672294655517459e-02  2.3501343469817339e-02  2.6297905323424055e-02  3.0884331692788945e-02  3.6968576709796669e-02  4.4203718167827900e-02  5.2216036846202865e-02  6.0619549270410127e-02  6.9023762489683907e-02  7.7038355615157608e-02  8.4277791108948966e-02  9.0368840251313282e-02  9.4964684639593511e-02  9.7772367662653764e-02  9.8611811068150979e-02  9.7560533263372856e-02  9.5331496816034644e-02  9.4182343121962941e-02  2.3814107214835421e-02  2.2572509056180832e-02  2.0286250568107716e-02  1.9314976797513789e-02  2.0384634987645003e-02  2.3551188971913540e-02  2.8601718100374096e-02  3.5211022877093746e-02  4.3006407857568131e-02  5.1596756078963843e-02  6.0585513870533340e-02  6.9575467536041519e-02  7.8169791838773914e-02  8.5972961357183728e-02  9.2595071058988718e-02  9.7663939163088270e-02  1.0085285760387551e-01  1.0194424062753395e-01  1.0098803150882282e-01  9.8713923441272874e-02  9.7518181929234726e-02  1.8019442114174489e-02  1.6664183995970205e-02  1.4313026123477856e-02  1.3526610388426208e-02  1.5047374098921529e-02  1.8880489524228276e-02  2.4747035508606477e-02  3.2263133736428841e-02  4.1013060464725984e-02  5.0578984544800795e-02  6.0550371010844227e-02  7.0522994489477880e-02  8.0093318052165852e-02  8.8852682634676813e-02  9.6385664479038596e-02  1.0227813624915118e-01  1.0614486668158638e-01  1.0770059332450767e-01  1.0694151141797452e-01  1.0461560174841686e-01  1.0334180443105404e-01  9.3324039639447066e-03  7.8233674174355474e-03  5.4347210798491403e-03  4.9998239714453795e-03  7.2623026059248572e-03  1.2134734076496493e-02  1.9231233208229954e-02  2.8079578520486863e-02  3.8204644367035336e-02  4.9156789635900783e-02  6.0514141321705968e-02  7.1871991466654891e-02  8.2826725849909952e-02  9.2959553777136161e-02  1.0182515089847567e-01  1.0895221463441454e-01  1.1386879713545466e-01  1.1618234316016378e-01  1.1579401197148448e-01  1.1345463513790410e-01  1.1208165781487822e-01  -2.8931874946159894e-03  -4.5902322355065679e-03  -6.9144032888240050e-03  -6.7108115779274382e-03  -3.2821951497385938e-03  3.1230370491562858e-03  1.1955825360358229e-02  2.2621683279711070e-02  3.4573300490414169e-02  4.7332146775801859e-02  6.0477628762435058e-02  7.3621675152420837e-02  8.6377795872537660e-02  9.8330030370518490e-02  1.0900694279035684e-01  1.1786897589057121e-01  1.2432617669630347e-01  1.2782547598762459e-01  1.2810645293695835e-01  1.2587515511724470e-01  1.2440176373047755e-01  -1.9606318797954658e-02  -2.1511060922877318e-02  -2.3533020141522507e-02  -2.2199102289626904e-02  -1.6966129393036700e-02  -8.3547992223870510e-03  2.8468327393632183e-03  1.5887107475515073e-02  3.0143572331578432e-02  4.5125983442883821e-02  6.0442789268375707e-02  7.5754563109323936e-02  9.0723914506251252e-02  1.0496555874938342e-01  1.1799985828548873e-01  1.2921822821439394e-01  1.3788214569113744e-01  1.4320837366369124e-01  1.4466884085469248e-01  1.4281781479509506e-01  1.4128119303133901e-01  -4.2176504695708036e-02  -4.4275890876773701e-02  -4.5510121370051636e-02  -4.2207322084610109e-02  -3.4197715130228255e-02  -2.2450932401869655e-02  -8.0888354762422288e-03  7.9551498812627935e-03  2.5002856807094520e-02  4.2593330604341756e-02  6.0413057543547651e-02  7.8222110730923458e-02  9.5782757366787305e-02  1.1278876552025140e-01  1.2879324921627891e-01  1.4314015530349575e-01  1.5492417120755694e-01  1.6304876724236053e-01  1.6655460542985190e-01  1.6562915636897554e-01  1.6414108172598982e-01  -7.2578444005896928e-02  -7.4786981098551947e-02  -7.4288898018643232e-02  -6.7591594968831867e-02  -5.5322831609239495e-02  -3.9166690829969854e-02  -2.0675074779330612e-02  -9.4935069901251872e-04  1.9340884464659851e-02  3.9841735015313240e-02  6.0393377582346280e-02  8.0926634328208999e-02  1.0137393377837958e-01  1.2158181827177192e-01  1.4121198529431592e-01  1.5962590765518192e-01  1.7577305490834802e-01  1.8816698475720101e-01  1.9518064505677890e-01  1.9622676218662716e-01  1.9504586157987561e-01  -1.1367970757032639e-01  -1.1574630609567237e-01  -1.1170146837194361e-01  -9.9194376300932946e-02  -8.0436370086040987e-02  -5.8178777702094439e-02  -3.4438928555595827e-02  -1.0375649026944475e-02  1.3493480844308153e-02  3.7049505337633959e-02  6.0389432042533914e-02  8.3701933258498937e-02  1.0717539341478198e-01  1.3090850506762700e-01  1.5479426523237799e-01  1.7835206898613790e-01  2.0050331804070864e-01  2.1936374097560962e-01  2.3234208668065892e-01  2.3733914142798196e-01  2.3702118185318824e-01  -1.6968314930121978e-01  -1.7094602700941072e-01  -1.5985375807690014e-01  -1.3749474417661581e-01  -1.0901900135681047e-01  -7.8571275722925688e-02  -4.8450285963224135e-02  -1.9566285106393518e-02  7.9764506418060228e-03  3.4475808205340845e-02  6.0405319400012425e-02  8.6298949073910794e-02  1.1268680384636846e-01  1.4003403488029267e-01  1.6863768875675675e-01  1.9842697485776006e-01  2.2860295168573241e-01  2.5709897681832689e-01  2.8012041610196592e-01  2.9282078889386420e-01  2.9455173836292420e-01  -2.4678841838894516e-01  -2.4543489710031963e-01  -2.2050446267594082e-01  -1.8178495053793861e-01  -1.3931604413201495e-01  -9.8491961688866633e-02  -6.1179221269422990e-02  -2.7421664464441144e-02  3.4792212241699190e-03  3.2448033125532925e-02  6.0439159408656649e-02  8.8389610647744823e-02  1.1722778191335298e-01  1.4788469472294363e-01  1.8125973821171440e-01  2.1806414374698585e-01  2.5838926500377823e-01  3.0073884815686569e-01  3.4036269690389404e-01  3.6793040159648466e-01  3.7433633552718854e-01  -3.5411253125397740e-01  -3.4469227176760009e-01  -2.9303500313857850e-01  -2.2853065915297840e-01  -1.6751105856158011e-01  -1.1490506074531517e-01  -7.0523535729030362e-02  -3.2609923310722454e-02  7.6366826380824750e-04  3.1303944409899018e-02  6.0478312554496531e-02  8.9614090312062536e-02  1.2002625101941659e-01  1.5314486014457984e-01  1.9062052659489337e-01  2.3434871586181194e-01  2.8622006750967188e-01  3.4699363854499182e-01  4.1288782005756902e-01  4.6894374779940845e-01  4.8630832496937865e-01  -5.0466589938574880e-01  -4.6957099255363421e-01  -3.6936830336796073e-01  -2.6905119047874287e-01  -1.8736170676202096e-01  -1.2400350808280616e-01  -7.4353103094919257e-02  -3.4007906466678742e-02  3.7854598898210887e-04  3.1256350075910828e-02  6.0502948149761149e-02  8.9721424809184380e-02  1.2050344707543952e-01  1.5468864746882549e-01  1.9465682044529420e-01  2.4367037124475555e-01  3.0618254844825032e-01  3.8755296341896472e-01  4.9043927779188301e-01  5.9920857935063132e-01  6.4428975234569796e-01  -7.1336960051115761e-01  -5.9791818118170315e-01  -4.2590535426721116e-01  -2.8951130453228141e-01  -1.9262043949472921e-01  -1.2356150167272130e-01  -7.2209041163950799e-02  -3.1788404716227299e-02  2.0368927176736351e-03  3.2123873476038338e-02  6.0516539545526979e-02  8.8900641181928391e-02  1.1895888546891138e-01  1.5272280529720897e-01  1.9301636386167711e-01  2.4410782073716930e-01  3.1271426699318744e-01  4.0938471165800128e-01  5.4901995296782713e-01  7.3917033427273993e-01  8.6087497122853029e-01  -8.6608217047208114e-01  -6.4572480332251536e-01  -4.3021228840244019e-01  -2.8451920152044291e-01  -1.8708018769821250e-01  -1.1915575138666799e-01  -6.9013649255758425e-02  -2.9605059527513938e-02  3.4002316156235913e-03  3.2804751018355158e-02  6.0597798376704079e-02  8.8420927442217814e-02  1.1792975869392183e-01  1.5115984185465148e-01  1.9100320464230205e-01  2.4193257925812789e-01  3.1116101609146352e-01  4.1041191432257729e-01  5.5777306541470939e-01  7.7348691700314931e-01  1.0822991092833401e+00  </DataArray> 
</PointData> 
</Piece>
</UnstructuredGrid>
</VTKFile>