<?xml version="1.0"?>
<VTKFile type="UnstructuredGrid"  version="0.1"  >
<UnstructuredGrid>
<Piece  NumberOfPoints="651" NumberOfCells="1200">
<Points>
<DataArray  type="Float64"  NumberOfComponents="3"  format="ascii">0 0 0  50000 0 0  100000 0 0  150000 0 0  200000 0 0  250000 0 0  300000 0 0  350000 0 0  400000 0 0  450000 0 0  500000 0 0  550000 0 0  600000 0 0  650000 0 0  700000 0 0  750000 0 0  800000 0 0  850000 0 0  900000 0 0  950000 0 0  1000000 0 0  0 50000 0  50000 50000 0  100000 50000 0  150000 50000 0  200000 50000 0  250000 50000 0  300000 50000 0  350000 50000 0  400000 50000 0  450000 50000 0  500000 50000 0  550000 50000 0  600000 50000 0  650000 50000 0  700000 50000 0  750000 50000 0  800000 50000 0  850000 50000 0  900000 50000 0  950000 50000 0  1000000 50000 0  0 100000 0  50000 100000 0  100000 100000 0  150000 100000 0  200000 100000 0  250000 100000 0  300000 100000 0  350000 100000 0  400000 100000 0  450000 100000 0  500000 100000 0  550000 100000 0  600000 100000 0  650000 100000 0  700000 100000 0  750000 100000 0  800000 100000 0  850000 100000 0  900000 100000 0  950000 100000 0  1000000 100000 0  0 150000 0  50000 150000 0  100000 150000 0  150000 150000 0  200000 150000 0  250000 150000 0  300000 150000 0  350000 150000 0  400000 150000 0  450000 150000 0  500000 150000 0  550000 150000 0  600000 150000 0  650000 150000 0  700000 150000 0  750000 150000 0  800000 150000 0  850000 150000 0  900000 150000 0  950000 150000 0  1000000 150000 0  0 200000 0  50000 200000 0  100000 200000 0  150000 200000 0  200000 200000 0  250000 200000 0  300000 200000 0  350000 200000 0  400000 200000 0  450000 200000 0  500000 200000 0  550000 200000 0  600000 200000 0  650000 200000 0  700000 200000 0  750000 200000 0  800000 200000 0  850000 200000 0  900000 200000 0  950000 200000 0  1000000 200000 0  0 250000 0  50000 250000 0  100000 250000 0  150000 250000 0  200000 250000 0  250000 250000 0  300000 250000 0  350000 250000 0  400000 250000 0  450000 250000 0  500000 250000 0  550000 250000 0  600000 250000 0  650000 250000 0  700000 250000 0  750000 250000 0  800000 250000 0  850000 250000 0  900000 250000 0  950000 250000 0  1000000 250000 0  0 300000 0  50000 300000 0  100000 300000 0  150000 300000 0  200000 300000 0  250000 300000 0  300000 300000 0  350000 300000 0  400000 300000 0  450000 300000 0  500000 300000 0  550000 300000 0  600000 300000 0  650000 300000 0  700000 300000 0  750000 300000 0  800000 300000 0  850000 300000 0  900000 300000 0  950000 300000 0  1000000 300000 0  0 350000 0  50000 350000 0  100000 350000 0  150000 350000 0  200000 350000 0  250000 350000 0  300000 350000 0  350000 350000 0  400000 350000 0  450000 350000 0  500000 350000 0  550000 350000 0  600000 350000 0  650000 350000 0  700000 350000 0  750000 350000 0  800000 350000 0  850000 350000 0  900000 350000 0  950000 350000 0  1000000 350000 0  0 400000 0  50000 400000 0  100000 400000 0  150000 400000 0  200000 400000 0  250000 400000 0  300000 400000 0  350000 400000 0  400000 400000 0  450000 400000 0  500000 400000 0  550000 400000 0  600000 400000 0  650000 400000 0  700000 400000 0  750000 400000 0  800000 400000 0  850000 400000 0  900000 400000 0  950000 400000 0  1000000 400000 0  0 450000 0  50000 450000 0  100000 450000 0  150000 450000 0  200000 450000 0  250000 450000 0  300000 450000 0  350000 450000 0  400000 450000 0  450000 450000 0  500000 450000 0  550000 450000 0  600000 450000 0  650000 450000 0  700000 450000 0  750000 450000 0  800000 450000 0  850000 450000 0  900000 450000 0  950000 450000 0  1000000 450000 0  0 500000 0  50000 500000 0  100000 500000 0  150000 500000 0  200000 500000 0  250000 500000 0  300000 500000 0  350000 500000 0  400000 500000 0  450000 500000 0  500000 500000 0  550000 500000 0  600000 500000 0  650000 500000 0  700000 500000 0  750000 500000 0  800000 500000 0  850000 500000 0  900000 500000 0  950000 500000 0  1000000 500000 0  0 550000 0  50000 550000 0  100000 550000 0  150000 550000 0  200000 550000 0  250000 550000 0  300000 550000 0  350000 550000 0  400000 550000 0  450000 550000 0  500000 550000 0  550000 550000 0  600000 550000 0  650000 550000 0  700000 550000 0  750000 550000 0  800000 550000 0  850000 550000 0  900000 550000 0  950000 550000 0  1000000 550000 0  0 600000 0  50000 600000 0  100000 600000 0  150000 600000 0  200000 600000 0  250000 600000 0  300000 600000 0  350000 600000 0  400000 600000 0  450000 600000 0  500000 600000 0  550000 600000 0  600000 600000 0  650000 600000 0  700000 600000 0  750000 600000 0  800000 600000 0  850000 600000 0  900000 600000 0  950000 600000 0  1000000 600000 0  0 650000 0  50000 650000 0  100000 650000 0  150000 650000 0  200000 650000 0  250000 650000 0  300000 650000 0  350000 650000 0  400000 650000 0  450000 650000 0  500000 650000 0  550000 650000 0  600000 650000 0  650000 650000 0  700000 650000 0  750000 650000 0  800000 650000 0  850000 650000 0  900000 650000 0  950000 650000 0  1000000 650000 0  0 700000 0  50000 700000 0  100000 700000 0  150000 700000 0  200000 700000 0  250000 700000 0  300000 700000 0  350000 700000 0  400000 700000 0  450000 700000 0  500000 700000 0  550000 700000 0  600000 700000 0  650000 700000 0  700000 700000 0  750000 700000 0  800000 700000 0  850000 700000 0  900000 700000 0  950000 700000 0  1000000 700000 0  0 750000 0  50000 750000 0  100000 750000 0  150000 750000 0  200000 750000 0  250000 750000 0  300000 750000 0  350000 750000 0  400000 750000 0  450000 750000 0  500000 750000 0  550000 750000 0  600000 750000 0  650000 750000 0  700000 750000 0  750000 750000 0  800000 750000 0  850000 750000 0  900000 750000 0  950000 750000 0  1000000 750000 0  0 800000 0  50000 800000 0  100000 800000 0  150000 800000 0  200000 800000 0  250000 800000 0  300000 800000 0  350000 800000 0  400000 800000 0  450000 800000 0  500000 800000 0  550000 800000 0  600000 800000 0  650000 800000 0  700000 800000 0  750000 800000 0  800000 800000 0  850000 800000 0  900000 800000 0  950000 800000 0  1000000 800000 0  0 850000 0  50000 850000 0  100000 850000 0  150000 850000 0  200000 850000 0  250000 850000 0  300000 850000 0  350000 850000 0  400000 850000 0  450000 850000 0  500000 850000 0  550000 850000 0  600000 850000 0  650000 850000 0  700000 850000 0  750000 850000 0  800000 850000 0  850000 850000 0  900000 850000 0  950000 850000 0  1000000 850000 0  0 900000 0  50000 900000 0  100000 900000 0  150000 900000 0  200000 900000 0  250000 900000 0  300000 900000 0  350000 900000 0  400000 900000 0  450000 900000 0  500000 900000 0  550000 900000 0  600000 900000 0  650000 900000 0  700000 900000 0  750000 900000 0  800000 900000 0  850000 900000 0  900000 900000 0  950000 900000 0  1000000 900000 0  0 950000 0  50000 950000 0  100000 950000 0  150000 950000 0  200000 950000 0  250000 950000 0  300000 950000 0  350000 950000 0  400000 950000 0  450000 950000 0  500000 950000 0  550000 950000 0  600000 950000 0  650000 950000 0  700000 950000 0  750000 950000 0  800000 950000 0  850000 950000 0  900000 950000 0  950000 950000 0  1000000 950000 0  0 1000000 0  50000 1000000 0  100000 1000000 0  150000 1000000 0  200000 1000000 0  250000 1000000 0  300000 1000000 0  350000 1000000 0  400000 1000000 0  450000 1000000 0  500000 1000000 0  550000 1000000 0  600000 1000000 0  650000 1000000 0  700000 1000000 0  750000 1000000 0  800000 1000000 0  850000 1000000 0  900000 1000000 0  950000 1000000 0  1000000 1000000 0  0 1050000 0  50000 1050000 0  100000 1050000 0  150000 1050000 0  200000 1050000 0  250000 1050000 0  300000 1050000 0  350000 1050000 0  400000 1050000 0  450000 1050000 0  500000 1050000 0  550000 1050000 0  600000 1050000 0  650000 1050000 0  700000 1050000 0  750000 1050000 0  800000 1050000 0  850000 1050000 0  900000 1050000 0  950000 1050000 0  1000000 1050000 0  0 1100000 0  50000 1100000 0  100000 1100000 0  150000 1100000 0  200000 1100000 0  250000 1100000 0  300000 1100000 0  350000 1100000 0  400000 1100000 0  450000 1100000 0  500000 1100000 0  550000 1100000 0  600000 1100000 0  650000 1100000 0  700000 1100000 0  750000 1100000 0  800000 1100000 0  850000 1100000 0  900000 1100000 0  950000 1100000 0  1000000 1100000 0  0 1150000 0  50000 1150000 0  100000 1150000 0  150000 1150000 0  200000 1150000 0  250000 1150000 0  300000 1150000 0  350000 1150000 0  400000 1150000 0  450000 1150000 0  500000 1150000 0  550000 1150000 0  600000 1150000 0  650000 1150000 0  700000 1150000 0  750000 1150000 0  800000 1150000 0  850000 1150000 0  900000 1150000 0  950000 1150000 0  1000000 1150000 0  0 1200000 0  50000 1200000 0  100000 1200000 0  150000 1200000 0  200000 1200000 0  250000 1200000 0  300000 1200000 0  350000 1200000 0  400000 1200000 0  450000 1200000 0  500000 1200000 0  550000 1200000 0  600000 1200000 0  650000 1200000 0  700000 1200000 0  750000 1200000 0  800000 1200000 0  850000 1200000 0  900000 1200000 0  950000 1200000 0  1000000 1200000 0  0 1250000 0  50000 1250000 0  100000 1250000 0  150000 1250000 0  200000 1250000 0  250000 1250000 0  300000 1250000 0  350000 1250000 0  400000 1250000 0  450000 1250000 0  500000 1250000 0  550000 1250000 0  600000 1250000 0  650000 1250000 0  700000 1250000 0  750000 1250000 0  800000 1250000 0  850000 1250000 0  900000 1250000 0  950000 1250000 0  1000000 1250000 0  0 1300000 0  50000 1300000 0  100000 1300000 0  150000 1300000 0  200000 1300000 0  250000 1300000 0  300000 1300000 0  350000 1300000 0  400000 1300000 0  450000 1300000 0  500000 1300000 0  550000 1300000 0  600000 1300000 0  650000 1300000 0  700000 1300000 0  750000 1300000 0  800000 1300000 0  850000 1300000 0  900000 1300000 0  950000 1300000 0  1000000 1300000 0  0 1350000 0  50000 1350000 0  100000 1350000 0  150000 1350000 0  200000 1350000 0  250000 1350000 0  300000 1350000 0  350000 1350000 0  400000 1350000 0  450000 1350000 0  500000 1350000 0  550000 1350000 0  600000 1350000 0  650000 1350000 0  700000 135
[...]
<PointData  Scalars="f_3013"> 
<DataArray  type="Float64"  Name="f_3013"  format="ascii">-2.0850488684509259e+00  -1.4245438218621282e+00  -9.6238635354486002e-01  -6.4825245276750598e-01  -4.3932143784675226e-01  -2.9671148868219777e-01  -1.9496358383182841e-01  -1.1823863261261049e-01  -5.6588720831264996e-02  -3.4892289214164874e-03  4.5717428170748198e-02  9.4856737553116813e-02  1.4772345182835867e-01  2.0887450650840589e-01  2.8464120658872050e-01  3.8466708040548714e-01  5.2444752214204715e-01  7.2947625205268718e-01  1.0400018325278977e+00  1.5014133571793917e+00  1.9720797853651248e+00  -1.6150757428057458e+00  -1.3541860038140512e+00  -9.4622458707810153e-01  -6.4840553982427029e-01  -4.4477785966102001e-01  -3.0322540375492107e-01  -2.0080884066980581e-01  -1.2276829853535247e-01  -5.9607723875775842e-02  -4.9565403743576011e-03  4.5830448359166609e-02  9.6635492835292602e-02  1.5134731637513490e-01  2.1463800120151835e-01  2.9295055113475743e-01  3.9593300778997492e-01  5.3848244758575392e-01  7.4264728965126414e-01  1.0335795776290257e+00  1.4023638724466987e+00  1.6488703143798420e+00  -1.1571461389755708e+00  -1.0601683053979125e+00  -8.2669011057518416e-01  -6.0746210781750154e-01  -4.3623345424131965e-01  -3.0712181511747527e-01  -2.0835886721711336e-01  -1.3009675907050733e-01  -6.5043777589656834e-02  -7.8144553766387997e-03  4.5803968698686838e-02  9.9483988770698931e-02  1.5692320102302190e-01  2.2241766607938770e-01  3.0150853853921949e-01  4.0167678592868639e-01  5.3267263270330489e-01  7.0467946018924510e-01  9.1843221333141201e-01  1.1333158349715382e+00  1.2081085810394583e+00  -8.2379232689732063e-01  -7.8629929890016304e-01  -6.6610527335942848e-01  -5.2620347217562835e-01  -3.9884334247737074e-01  -2.9199314190614728e-01  -2.0380285617255456e-01  -1.2997653178239596e-01  -6.6204340462113903e-02  -8.7044733086496413e-03  4.5827002994233597e-02  1.0044409292180112e-01  1.5822822261336283e-01  2.2256643548449739e-01  2.9736620293659499e-01  3.8701343590379172e-01  4.9551741716540382e-01  6.2348253640019269e-01  7.6040973428238234e-01  8.7100008783661931e-01  8.9107139137626468e-01  -5.8753071579265748e-01  -5.7369970378794688e-01  -5.1498842320398563e-01  -4.3158343190749093e-01  -3.4360062504551442e-01  -2.6112183176177367e-01  -1.8718697411536331e-01  -1.2141032773705313e-01  -6.2068021868771799e-02  -7.0290066756161611e-03  4.5906610770413317e-02  9.8933391200512033e-02  1.5426521761058498e-01  2.1415456072374700e-01  2.8079002434976735e-01  3.5587024604642897e-01  4.3948496724014896e-01  5.2777490276646266e-01  6.0922773161156751e-01  6.6216984560215653e-01  6.6499729449312495e-01  -4.1887761488817488e-01  -4.1526580613001235e-01  -3.8889049132446590e-01  -3.4136018686116548e-01  -2.8309446534017768e-01  -2.2215178462095198e-01  -1.6284137559807135e-01  -1.0673248748502526e-01  -5.3820009616381267e-02  -3.3019736743383887e-03  4.5988695882926013e-02  9.5360621865918191e-02  1.4613123409305243e-01  1.9948696294595777e-01  2.5623288982948295e-01  3.1630114467476506e-01  3.7787545264277778e-01  4.3612819351898380e-01  4.8222050388985949e-01  5.0507753246107401e-01  5.0219475775775702e-01  -2.9688148334087255e-01  -2.9785729210894335e-01  -2.8845799395676913e-01  -2.6278896294554221e-01  -2.2528880731041984e-01  -1.8144892770412990e-01  -1.3522423396035574e-01  -8.8822577351806972e-02  -4.3154259629851296e-02  1.6823455356735676e-03  4.6036721654925790e-02  9.0454017026435379e-02  1.3548022232210252e-01  1.8146164916898100e-01  2.2827410863518452e-01  2.7492542078182297e-01  3.1902795428854347e-01  3.5632664700011585e-01  3.8097036473595736e-01  3.8828491395499432e-01  3.8352109679007529e-01  -2.0753572624913780e-01  -2.1053606339814579e-01  -2.1002625107445827e-01  -1.9747505318515901e-01  -1.7399151121630782e-01  -1.4300204424517649e-01  -1.0763542635130352e-01  -7.0070687166454412e-02  -3.1587658462926181e-02  7.1897202352774036e-03  4.6041758088035942e-02  8.4936795640400381e-02  1.2383974413259788e-01  1.6251712459053475e-01  2.0031066285996921e-01  2.3587111976025338e-01  2.6690431903326489e-01  2.9013114305415161e-01  3.0199355010716350e-01  3.0130093736632446e-01  2.9607195741629783e-01  -1.4151764596293359e-01  -1.4531962289533745e-01  -1.4938809487224883e-01  -1.4465320703830983e-01  -1.3048471650414598e-01  -1.0887214651299176e-01  -8.2125964085284484e-02  -5.2137571464904456e-02  -2.0249257403083792e-02  1.2657443693974244e-02  4.6010791107278716e-02  7.9389944475605670e-02  1.1236926585152424e-01  1.4436100107476427e-01  1.7445236383395574e-01  2.0125122941127713e-01  2.2280141805677484e-01  2.3673158114022638e-01  2.4102455018235158e-01  2.3627619628142019e-01  2.3114374048320907e-01  -9.2549477518702378e-02  -9.6563547112822487e-02  -1.0288924819650228e-01  -1.0278194838785540e-01  -9.4759915652967847e-02  -7.9878183856736715e-02  -5.9785526986645340e-02  -3.6032464519102796e-02  -9.8785307100334660e-03  1.7704667487639457e-02  4.5955730259047076e-02  7.4219854580245104e-02  1.0183774086975129e-01  1.2803409008982797e-01  1.5181354506196021e-01  1.7188493430969989e-01  1.8666642223460425e-01  1.9449466356354198e-01  1.9432705228369646e-01  1.8762350448527576e-01  1.8280379212203501e-01  -5.6335645937051239e-02  -6.0288964277102959e-02  -6.7625863607589778e-02  -7.0230547243996896e-02  -6.6244904999321216e-02  -5.6138234368403622e-02  -4.1070028655166096e-02  -2.2283090693622602e-02  -9.0272472927486211e-04  2.2101838746423446e-02  4.5887497047822391e-02  6.9677931688501601e-02  9.2693304542281446e-02  1.1408015388426115e-01  1.3285320364479916e-01  1.4786911269214198e-01  1.5787322849522323e-01  1.6171201798410545e-01  1.5893999522935442e-01  1.5139730794171880e-01  1.4695120201054740e-01  -2.9896434919881747e-02  -3.3681528923878927e-02  -4.1379440628401293e-02  -4.5546879369197664e-02  -4.4192122247178271e-02  -3.7426048335792723e-02  -2.6064314674486312e-02  -1.1103002144281148e-02  6.4695276621342295e-03  2.5728913062515183e-02  4.5813936255410394e-02  6.5899108206559129e-02  8.5156484404468116e-02  1.0271788833623798e-01  1.1764906009798753e-01  1.2895243658259223e-01  1.3562996909416392e-01  1.3687876898900520e-01  1.3261147034555137e-01  1.2480459684580580e-01  1.2071762079529189e-01  -1.1155282169030540e-02  -1.4754159106834652e-02  -2.2500740674785431e-02  -2.7544902351302379e-02  -2.7875041516704099e-02  -2.3387636910009751e-02  -1.4666495965810308e-02  -2.5249207231204948e-03  1.2165303302142612e-02  2.8536226209765023e-02  4.5739709060520523e-02  6.2941365670752356e-02  7.9305249033897990e-02  9.3978935476449282e-02  1.0608885154919707e-01  1.1475911219984078e-01  1.1917846972694990e-01  1.1877590765735588e-01  1.1367383711959621e-01  1.0587192491429670e-01  1.0209118239190956e-01  1.3152980766394417e-03  -2.1291931029198039e-03  -9.8061608884386642e-03  -1.5320370947489410e-02  -1.6682913547612341e-02  -1.3666753123925008e-02  -6.7081626927870995e-03  3.5037701309444200e-03  1.6183643348074546e-02  3.0513274658943636e-02  4.5666941200897128e-02  6.0818551462461193e-02  7.5141124125120792e-02  8.7806557652534409e-02  9.7993773982892260e-02  1.0491585579578605e-01  1.0788647733864015e-01  1.0647900102712236e-01  1.0093332069749179e-01  9.3230177224195979e-02  8.9682825703125926e-02  8.4485320049001722e-03  5.0984006231829934e-03  -2.5007064904951528e-03  -8.2422094424259469e-03  -1.0164085920365407e-02  -7.9749351915193254e-03  -2.0286913087516701e-03  7.0575539976922728e-03  1.8550938623542408e-02  3.1666284083111063e-02  4.5596010566799697e-02  5.9524475244567984e-02  7.2635637848954354e-02  8.4120875894200794e-02  9.3193813884812141e-02  9.9121171413684858e-02  1.0128760112747907e-01  9.9344247603125976e-02  9.3588971050458769e-02  8.5979659750325843e-02  8.2583110439301957e-02  1.0774679569886302e-02  7.4431562150013633e-03  -1.2696283410253451e-04  -5.9394541133651014e-03  -8.0445291993870953e-03  -6.1289037903941683e-03  -5.1849732392283455e-04  8.1937382818034078e-03  1.9292460546318158e-02  3.2003654077250650e-02  4.5526242013641881e-02  5.9048829950032758e-02  7.1760023480966773e-02  8.2858745745483214e-02  9.1570981351210792e-02  9.7181387817684831e-02  9.9097013226679465e-02  9.6991938140658887e-02  9.1179446861396535e-02  8.3609327812292564e-02  8.0277804457407981e-02  8.4693735879932345e-03  5.0728242769692965e-03  -2.5364870231633333e-03  -8.2917635758313988e-03  -1.0235117100185291e-02  -8.0686873863934847e-03  -2.1413298575225343e-03  6.9316081330868745e-03  1.8416846178330209e-02  3.1528008782715236e-02  4.5456473460483419e-02  5.9386199944172061e-02  7.2501545403741333e-02  8.3994930029591935e-02  9.3081175336037672e-02  9.9027419218807339e-02  1.0121656994765639e-01  9.9294693469717907e-02  9.3553190517788432e-02  8.5954083404110454e-02  8.2603952022393803e-02  1.3696583241691090e-03  -2.1776931969007575e-03  -9.8808366701962479e-03  -1.5426516999826599e-02  -1.6833993311345885e-02  -1.3863371768494717e-02  -6.9412899556024902e-03  3.2459263747527918e-03  1.5911359902164027e-02  3.0233932564821923e-02  4.5385542826384823e-02  6.0539209368338044e-02  7.4868840679207030e-02  8.7548713896338004e-02  9.7760646720071967e-02  1.0471923715121205e-01  1.0773539757490178e-01  1.0637285497477922e-01  1.0085864491573110e-01  9.3181677130213511e-02  8.9737185950654247e-02  -1.1038698364613140e-02  -1.4819440886999892e-02  -2.2621353092298797e-02  -2.7723423630058468e-02  -2.8125985699654507e-02  -2.3706628172548917e-02  -1.5036367521907405e-02  -2.9264514491629634e-03  1.1747234993385820e-02  2.8111118356528991e-02  4.5312774966759867e-02  6.2516257817515325e-02  7.8887180725137188e-02  9.3577404750400148e-02  1.0571897999309238e-01  1.1444012093729390e-01  1.1892752554399168e-01  1.1859738637859160e-01  1.1355322470207523e-01  1.0580664313412509e-01  1.0220776619632149e-01  -2.9665136767995096e-02  -3.3752112818508817e-02  -4.1558986318253222e-02  -4.5826284961708118e-02  -4.4577485066868455e-02  -3.7899952555300410e-02  -2.6596576070698482e-02  -1.1665404308953185e-02  5.8959996228136009e-03  2.5153375820719685e-02  4.5238547771866762e-02  6.5323570964761629e-02  8.4582956365142334e-02  1.0215548617155716e-01  1.1711679870176421e-01  1.2847853236307274e-01  1.3524460627446294e-01  1.3659936339648365e-01  1.3243192465568798e-01  1.2473401295116616e-01  1.2094891894716968e-01  -5.5898717983248900e-02  -6.0344823914420254e-02  -6.7887511202054884e-02  -7.0659533956807435e-02  -6.6820744467926754e-02  -5.6816628664848878e-02  -4.1800719617510911e-02  -2.3027669856978187e-02  -1.6408205150018509e-03  2.1374552338774229e-02  4.5164986979451059e-02  6.8950645280849043e-02  9.1955208756547210e-02  1.1333557472089582e-01  1.3212251268244182e-01  1.4719071839568204e-01  1.5729738902660237e-01  1.6128303127127949e-01  1.5867834763487468e-01  1.5134144830438870e-01  1.4738812996433737e-01  -9.1751308094733836e-02  -9.6571020457975387e-02  -1.0327456825639472e-01  -1.0344217953624210e-01  -9.5613938207307445e-02  -8.0832450282407126e-02  -6.0761061034673582e-02  -3.6981606062547460e-02  -1.0785256842474972e-02  1.6832629447027916e-02  4.5096753768222669e-02  7.3347816539629393e-02  1.0093101473730168e-01  1.2708494854637281e-01  1.5083801101391861e-01  1.7093066788401215e-01  1.8581239968024546e-01  1.9383443241513520e-01  1.9394173222378497e-01  1.8761603114010689e-01  1.8360196154598618e-01  -1.4009125645590656e-01  -1.4522371225411754e-01  -1.4997206615504874e-01  -1.4567909711292537e-01  -1.3174893402947813e-01  -1.1019874538398573e-01  -8.3399879806671184e-02  -5.3308517047485800e-02  -2.1316781824250782e-02  1.1662539551663298e-02  4.5041692919986845e-02  7.8395040333290603e-02  1.1130174143034877e-01  1.4319005549217084e-01  1.7317844811255342e-01  1.9992463054026285e-01  2.2153720053141995e-01  2.3570569106558745e-01  2.4044057889952927e-01  2.3637210692262017e-01  2.3257012999021745e-01  -2.0501947338899265e-01  -2.1024845333901740e-01  -2.1094106607985741e-01  -1.9907865902685085e-01  -1.7585183500596815e-01  -1.4481863573296247e-01  -1.0925817883268625e-01  -7.1464640563258783e-02  -3.2787260105328384e-02  6.1156883868646863e-03  4.5010725939225581e-02  8.3862763791983194e-02  1.2264014249018676e-01  1.6112317119371639e-01  1.9868791037856767e-01  2.3405452827244333e-01  2.6504399524357941e-01  2.8852753721243402e-01  3.0107873510173777e-01  3.0158854742542901e-01  2.9858821027642191e-01  -2.9246861276276476e-01  -2.9723242992768367e-01  -2.8991788070864921e-01  -2.6527416297281248e-01  -2.2797547026124479e-01  -1.8387293675453226e-01  -1.3722162460790163e-01  -9.0409165141705550e-02  -4.4427738294833839e-02  5.9846700082779442e-04  4.5015762372333464e-02  8.9370138491584580e-02  1.3420674365710902e-01  1.7987506137906492e-01  2.2627671798761639e-01  2.7250141173139403e-01  3.1634129133769090e-01  3.5384144697281950e-01  3.7951047798405108e-01  3.8890977613622907e-01  3.8793396736815988e-01  -4.1114227373043888e-01  -4.1402504843375570e-01  -3.9116801986254313e-01  -3.4507570949167471e-01  -2.8682296861547574e-01  -2.2524866064747467e-01  -1.6518040580220034e-01  -1.0843447891868116e-01  -5.5078750065783583e-02  -4.3081378386553865e-03  4.5063788144333677e-02  9.4354457701596894e-02  1.4487249364364019e-01  1.9778497151228427e-01  2.5389385962533212e-01  3.1320426864821904e-01  3.7414694936745119e-01  4.3241267088844593e-01  4.7994297535175012e-01  5.0631829015730345e-01  5.0993009891546781e-01  -5.7394481046579182e-01  -5.7111736157482429e-01  -5.1817524758423827e-01  -4.3672241873914541e-01  -3.4843248321284087e-01  -2.6481776201913332e-01  -1.8973754032248033e-01  -1.2310207669646701e-01  -6.3212733583312544e-02  -7.8809071732455320e-03  4.5145873256850114e-02  9.8081490702878277e-02  1.5312050589603382e-01  2.1246281176431570e-01  2.7823945814262907e-01  3.5217431578904723e-01  4.3465310907279242e-01  5.2263591593477565e-01  6.0604090723127968e-01  6.6475218781524881e-01  6.7858319981996185e-01  -8.0001890734891268e-01  -7.7994760380926809e-01  -6.6935725025504123e-01  -5.3243005237286423e-01  -4.0446493313808796e-01  -2.9596095187648747e-01  -2.0631371890929956e-01  -1.3151395145721068e-01  -6.7175738586083028e-02  -9.3916088945267939e-03  4.5225481033037113e-02  9.9756957335919980e-02  1.5725682448938372e-01  2.2102901580966741e-01  2.9485534019983189e-01  3.8304562593343106e-01  4.8989582650466135e-01  6.1725595620292539e-01  7.5715775738673485e-01  8.7735178292747851e-01  9.1484481092463987e-01  -1.1170560970120851e+00  -1.0422633509441617e+00  -8.2737972930405523e-01  -6.1362697616190220e-01  -4.4162014867597865e-01  -3.1062430190137069e-01  -2.1045605451191340e-01  -1.3136518205208972e-01  -6.5870716995732159e-02  -8.4315047434137605e-03  4.5248515328595688e-02  9.8866939403920454e-02  1.5609626161693921e-01  2.2114924309779072e-01  2.9941135124440316e-01  3.9817429914477315e-01  5.2728593826862469e-01  6.9851459184481601e-01  9.1774259460250840e-01  1.1512207894252464e+00  1.2481986230029170e+00  -1.5578178303524566e+00  -1.3113113884193150e+00  -9.4252709360166298e-01  -6.5159480562391214e-01  -4.4742996355841497e-01  -3.0488052376264702e-01  -2.0189806710743913e-01  -1.2358551717420899e-01  -6.0294832347832818e-02  -5.5830088079956456e-03  4.5222035668127103e-02  9.6009024401651155e-02  1.5066020790307066e-01  2.1382078256265041e-01  2.9186132469710985e-01  3.9427788778223100e-01  5.3583034368834126e-01  7.3945802385160386e-01  1.0372770711054518e+00  1.4452384878414095e+00  1.7061282268331064e+00  -1.8810273013377325e+00  -1.4103608731520001e+00  -9.4894934850052359e-01  -6.3842376802532896e-01  -4.3339503811470209e-01  -2.9361459637815440e-01  -1.9358872256139806e-01  -1.1782202248109314e-01  -5.6670967801052366e-02  -3.8042535258156294e-03  4.5335055856549983e-02  9.4541712948713497e-02  1.4764120485856433e-01  2.0929111663991304e-01  2.8601606785913736e-01  3.8776397270951285e-01  5.3037392187407961e-01  7.3930493679484766e-01  1.0534388375722135e+00  1.5155963058894961e+00  2.1761013524782986e+00  </DataArray> 
</PointData> 
</Piece>
</UnstructuredGrid>
</VTKFile>