<?xml version="1.0"?>
<VTKFile type="UnstructuredGrid"  version="0.1"  >
<UnstructuredGrid>
<Piece  NumberOfPoints="651" NumberOfCells="1200">
<Points>
<DataArray  type="Float64"  NumberOfComponents="3"  format="ascii">0 0 0  50000 0 0  100000 0 0  150000 0 0  200000 0 0  250000 0 0  300000 0 0  350000 0 0  400000 0 0  450000 0 0  500000 0 0  550000 0 0  600000 0 0  650000 0 0  700000 0 0  750000 0 0  800000 0 0  850000 0 0  900000 0 0  950000 0 0  1000000 0 0  0 50000 0  50000 50000 0  100000 50000 0  150000 50000 0  200000 50000 0  250000 50000 0  300000 50000 0  350000 50000 0  400000 50000 0  450000 50000 0  500000 50000 0  550000 50000 0  600000 50000 0  650000 50000 0  700000 50000 0  750000 50000 0  800000 50000 0  850000 50000 0  900000 50000 0  950000 50000 0  1000000 50000 0  0 100000 0  50000 100000 0  100000 100000 0  150000 100000 0  200000 100000 0  250000 100000 0  300000 100000 0  350000 100000 0  400000 100000 0  450000 100000 0  500000 100000 0  550000 100000 0  600000 100000 0  650000 100000 0  700000 100000 0  750000 100000 0  800000 100000 0  850000 100000 0  900000 100000 0  950000 100000 0  1000000 100000 0  0 150000 0  50000 150000 0  100000 150000 0  150000 150000 0  200000 150000 0  250000 150000 0  300000 150000 0  350000 150000 0  400000 150000 0  450000 150000 0  500000 150000 0  550000 150000 0  600000 150000 0  650000 150000 0  700000 150000 0  750000 150000 0  800000 150000 0  850000 150000 0  900000 150000 0  950000 150000 0  1000000 150000 0  0 200000 0  50000 200000 0  100000 200000 0  150000 200000 0  200000 200000 0  250000 200000 0  300000 200000 0  350000 200000 0  400000 200000 0  450000 200000 0  500000 200000 0  550000 200000 0  600000 200000 0  650000 200000 0  700000 200000 0  750000 200000 0  800000 200000 0  850000 200000 0  900000 200000 0  950000 200000 0  1000000 200000 0  0 250000 0  50000 250000 0  100000 250000 0  150000 250000 0  200000 250000 0  250000 250000 0  300000 250000 0  350000 250000 0  400000 250000 0  450000 250000 0  500000 250000 0  550000 250000 0  600000 250000 0  650000 250000 0  700000 250000 0  750000 250000 0  800000 250000 0  850000 250000 0  900000 250000 0  950000 250000 0  1000000 250000 0  0 300000 0  50000 300000 0  100000 300000 0  150000 300000 0  200000 300000 0  250000 300000 0  300000 300000 0  350000 300000 0  400000 300000 0  450000 300000 0  500000 300000 0  550000 300000 0  600000 300000 0  650000 300000 0  700000 300000 0  750000 300000 0  800000 300000 0  850000 300000 0  900000 300000 0  950000 300000 0  1000000 300000 0  0 350000 0  50000 350000 0  100000 350000 0  150000 350000 0  200000 350000 0  250000 350000 0  300000 350000 0  350000 350000 0  400000 350000 0  450000 350000 0  500000 350000 0  550000 350000 0  600000 350000 0  650000 350000 0  700000 350000 0  750000 350000 0  800000 350000 0  850000 350000 0  900000 350000 0  950000 350000 0  1000000 350000 0  0 400000 0  50000 400000 0  100000 400000 0  150000 400000 0  200000 400000 0  250000 400000 0  300000 400000 0  350000 400000 0  400000 400000 0  450000 400000 0  500000 400000 0  550000 400000 0  600000 400000 0  650000 400000 0  700000 400000 0  750000 400000 0  800000 400000 0  850000 400000 0  900000 400000 0  950000 400000 0  1000000 400000 0  0 450000 0  50000 450000 0  100000 450000 0  150000 450000 0  200000 450000 0  250000 450000 0  300000 450000 0  350000 450000 0  400000 450000 0  450000 450000 0  500000 450000 0  550000 450000 0  600000 450000 0  650000 450000 0  700000 450000 0  750000 450000 0  800000 450000 0  850000 450000 0  900000 450000 0  950000 450000 0  1000000 450000 0  0 500000 0  50000 500000 0  100000 500000 0  150000 500000 0  200000 500000 0  250000 500000 0  300000 500000 0  350000 500000 0  400000 500000 0  450000 500000 0  500000 500000 0  550000 500000 0  600000 500000 0  650000 500000 0  700000 500000 0  750000 500000 0  800000 500000 0  850000 500000 0  900000 500000 0  950000 500000 0  1000000 500000 0  0 550000 0  50000 550000 0  100000 550000 0  150000 550000 0  200000 550000 0  250000 550000 0  300000 550000 0  350000 550000 0  400000 550000 0  450000 550000 0  500000 550000 0  550000 550000 0  600000 550000 0  650000 550000 0  700000 550000 0  750000 550000 0  800000 550000 0  850000 550000 0  900000 550000 0  950000 550000 0  1000000 550000 0  0 600000 0  50000 600000 0  100000 600000 0  150000 600000 0  200000 600000 0  250000 600000 0  300000 600000 0  350000 600000 0  400000 600000 0  450000 600000 0  500000 600000 0  550000 600000 0  600000 600000 0  650000 600000 0  700000 600000 0  750000 600000 0  800000 600000 0  850000 600000 0  900000 600000 0  950000 600000 0  1000000 600000 0  0 650000 0  50000 650000 0  100000 650000 0  150000 650000 0  200000 650000 0  250000 650000 0  300000 650000 0  350000 650000 0  400000 650000 0  450000 650000 0  500000 650000 0  550000 650000 0  600000 650000 0  650000 650000 0  700000 650000 0  750000 650000 0  800000 650000 0  850000 650000 0  900000 650000 0  950000 650000 0  1000000 650000 0  0 700000 0  50000 700000 0  100000 700000 0  150000 700000 0  200000 700000 0  250000 700000 0  300000 700000 0  350000 700000 0  400000 700000 0  450000 700000 0  500000 700000 0  550000 700000 0  600000 700000 0  650000 700000 0  700000 700000 0  750000 700000 0  800000 700000 0  850000 700000 0  900000 700000 0  950000 700000 0  1000000 700000 0  0 750000 0  50000 750000 0  100000 750000 0  150000 750000 0  200000 750000 0  250000 750000 0  300000 750000 0  350000 750000 0  400000 750000 0  450000 750000 0  500000 750000 0  550000 750000 0  600000 750000 0  650000 750000 0  700000 750000 0  750000 750000 0  800000 750000 0  850000 750000 0  900000 750000 0  950000 750000 0  1000000 750000 0  0 800000 0  50000 800000 0  100000 800000 0  150000 800000 0  200000 800000 0  250000 800000 0  300000 800000 0  350000 800000 0  400000 800000 0  450000 800000 0  500000 800000 0  550000 800000 0  600000 800000 0  650000 800000 0  700000 800000 0  750000 800000 0  800000 800000 0  850000 800000 0  900000 800000 0  950000 800000 0  1000000 800000 0  0 850000 0  50000 850000 0  100000 850000 0  150000 850000 0  200000 850000 0  250000 850000 0  300000 850000 0  350000 850000 0  400000 850000 0  450000 850000 0  500000 850000 0  550000 850000 0  600000 850000 0  650000 850000 0  700000 850000 0  750000 850000 0  800000 850000 0  850000 850000 0  900000 850000 0  950000 850000 0  1000000 850000 0  0 900000 0  50000 900000 0  100000 900000 0  150000 900000 0  200000 900000 0  250000 900000 0  300000 900000 0  350000 900000 0  400000 900000 0  450000 900000 0  500000 900000 0  550000 900000 0  600000 900000 0  650000 900000 0  700000 900000 0  750000 900000 0  800000 900000 0  850000 900000 0  900000 900000 0  950000 900000 0  1000000 900000 0  0 950000 0  50000 950000 0  100000 950000 0  150000 950000 0  200000 950000 0  250000 950000 0  300000 950000 0  350000 950000 0  400000 950000 0  450000 950000 0  500000 950000 0  550000 950000 0  600000 950000 0  650000 950000 0  700000 950000 0  750000 950000 0  800000 950000 0  850000 950000 0  900000 950000 0  950000 950000 0  1000000 950000 0  0 1000000 0  50000 1000000 0  100000 1000000 0  150000 1000000 0  200000 1000000 0  250000 1000000 0  300000 1000000 0  350000 1000000 0  400000 1000000 0  450000 1000000 0  500000 1000000 0  550000 1000000 0  600000 1000000 0  650000 1000000 0  700000 1000000 0  750000 1000000 0  800000 1000000 0  850000 1000000 0  900000 1000000 0  950000 1000000 0  1000000 1000000 0  0 1050000 0  50000 1050000 0  100000 1050000 0  150000 1050000 0  200000 1050000 0  250000 1050000 0  300000 1050000 0  350000 1050000 0  400000 1050000 0  450000 1050000 0  500000 1050000 0  550000 1050000 0  600000 1050000 0  650000 1050000 0  700000 1050000 0  750000 1050000 0  800000 1050000 0  850000 1050000 0  900000 1050000 0  950000 1050000 0  1000000 1050000 0  0 1100000 0  50000 1100000 0  100000 1100000 0  150000 1100000 0  200000 1100000 0  250000 1100000 0  300000 1100000 0  350000 1100000 0  400000 1100000 0  450000 1100000 0  500000 1100000 0  550000 1100000 0  600000 1100000 0  650000 1100000 0  700000 1100000 0  750000 1100000 0  800000 1100000 0  850000 1100000 0  900000 1100000 0  950000 1100000 0  1000000 1100000 0  0 1150000 0  50000 1150000 0  100000 1150000 0  150000 1150000 0  200000 1150000 0  250000 1150000 0  300000 1150000 0  350000 1150000 0  400000 1150000 0  450000 1150000 0  500000 1150000 0  550000 1150000 0  600000 1150000 0  650000 1150000 0  700000 1150000 0  750000 1150000 0  800000 1150000 0  850000 1150000 0  900000 1150000 0  950000 1150000 0  1000000 1150000 0  0 1200000 0  50000 1200000 0  100000 1200000 0  150000 1200000 0  200000 1200000 0  250000 1200000 0  300000 1200000 0  350000 1200000 0  400000 1200000 0  450000 1200000 0  500000 1200000 0  550000 1200000 0  600000 1200000 0  650000 1200000 0  700000 1200000 0  750000 1200000 0  800000 1200000 0  850000 1200000 0  900000 1200000 0  950000 1200000 0  1000000 1200000 0  0 1250000 0  50000 1250000 0  100000 1250000 0  150000 1250000 0  200000 1250000 0  250000 1250000 0  300000 1250000 0  350000 1250000 0  400000 1250000 0  450000 1250000 0  500000 1250000 0  550000 1250000 0  600000 1250000 0  650000 1250000 0  700000 1250000 0  750000 1250000 0  800000 1250000 0  850000 1250000 0  900000 1250000 0  950000 1250000 0  1000000 1250000 0  0 1300000 0  50000 1300000 0  100000 1300000 0  150000 1300000 0  200000 1300000 0  250000 1300000 0  300000 1300000 0  350000 1300000 0  400000 1300000 0  450000 1300000 0  500000 1300000 0  550000 1300000 0  600000 1300000 0  650000 1300000 0  700000 1300000 0  750000 1300000 0  800000 1300000 0  850000 1300000 0  900000 1300000 0  950000 1300000 0  1000000 1300000 0  0 1350000 0  50000 1350000 0  100000 1350000 0  150000 1350000 0  200000 1350000 0  250000 1350000 0  300000 1350000 0  350000 1350000 0  400000 1350000 0  450000 1350000 0  500000 1350000 0  550000 1350000 0  600000 1350000 0  650000 1350000 0  700000 135
[...]
<PointData  Scalars="f_3013"> 
<DataArray  type="Float64"  Name="f_3013"  format="ascii">-1.5621194813412316e+00  -1.0638414396363878e+00  -7.1524045515105017e-01  -4.7787798093302153e-01  -3.1938544460325685e-01  -2.1047978627236555e-01  -1.3203349528637345e-01  -7.2180717679207182e-02  -2.3495653598443432e-02  1.8871240896354551e-02  5.8366334121509919e-02  9.7811245707375025e-02  1.4000452310691236e-01  1.8831690835546744e-01  2.4745242685143926e-01  3.2460705561607600e-01  4.3138545216366320e-01  5.8693643907038484e-01  8.2157393236655696e-01  1.1696438891808443e+00  1.5248078378269074e+00  -1.2067908702908257e+00  -1.0100823593816066e+00  -7.0246669772448245e-01  -4.7745528028348727e-01  -3.2301137680301256e-01  -2.1496543476140145e-01  -1.3608816203285171e-01  -7.5323655601950742e-02  -2.5583824774912837e-02  1.7866605311221976e-02  5.8465721400448430e-02  9.9078554465978741e-02  1.4257501796195862e-01  1.9241340102464660e-01  2.5338314138202161e-01  3.3268532967137232e-01  4.4147522051226562e-01  5.9630377547922586e-01  8.1609369326854275e-01  1.0942107197341795e+00  1.2802712652389665e+00  -8.6004962235497484e-01  -7.8699011743080094e-01  -6.1093259373279529e-01  -4.4523176635556017e-01  -3.1531564043875093e-01  -2.1679609431618199e-01  -1.4085745989175130e-01  -8.0135728192353720e-02  -2.9195082468668764e-02  1.5964061295919065e-02  5.8458711011560416e-02  1.0099958125682988e-01  1.4631618094282073e-01  1.9758782158972030e-01  2.5893024608490228e-01  3.3591943100402483e-01  4.3584183068648741e-01  5.6631658706188759e-01  7.2786695667106449e-01  8.8994015800586057e-01  9.4644347079260249e-01  -6.0738431223468026e-01  -5.7916433249707600e-01  -4.8848865057802504e-01  -3.8262543974260965e-01  -2.8587192506492271e-01  -2.0427374105553009e-01  -1.3648446262412847e-01  -7.9315979636869219e-02  -2.9571032064665312e-02  1.5549078996433440e-02  5.8482895244054006e-02  1.0148069817706173e-01  1.4681324325606107e-01  1.9698105885329845e-01  2.5487626325209500e-01  3.2375150081703058e-01  4.0657728131693244e-01  5.0376416589794593e-01  6.0737363621437024e-01  6.9083813760656909e-01  7.0600843613771302e-01  -4.2825107946839047e-01  -4.1784215321924756e-01  -3.7346383455321791e-01  -3.1019289874728290e-01  -2.4318202405043624e-01  -1.8006154114897058e-01  -1.2316253175963698e-01  -7.2236117934603314e-02  -2.6026157409048505e-02  1.7029381973958653e-02  5.8543832521053940e-02  1.0012620959104243e-01  1.4339991625851095e-01  1.9001737263528190e-01  2.4158311437311272e-01  2.9933341300924621e-01  3.6329450616267694e-01  4.3052214170623371e-01  4.9231837341218848e-01  5.3236675143216405e-01  5.3451504996244770e-01  -3.0042656820511260e-01  -2.9768563484001431e-01  -2.7760909609585865e-01  -2.4135127998155301e-01  -1.9676481908840282e-01  -1.4994738451194428e-01  -1.0417812306985912e-01  -6.0673717422468271e-02  -1.9465983559729692e-02  2.0012511940339855e-02  5.8603472141839690e-02  9.7254793899593170e-02  1.3692089845612293e-01  1.7845776316297329e-01  2.2243479195035187e-01  2.6876515338287493e-01  3.1604729035662577e-01  3.6061525675483019e-01  3.9578946372753770e-01  4.1322516286184957e-01  4.1108347664224826e-01  -2.0805392475061363e-01  -2.0873231809305584e-01  -2.0136670142905430e-01  -1.8153521755992771e-01  -1.5259660648926096e-01  -1.1870865424016462e-01  -8.2875484368573976e-02  -4.6787458402007501e-02  -1.1159243538973466e-02  2.3904730599327208e-02  5.8636429104712867e-02  9.3414689310102619e-02  1.2861893219058551e-01  1.6447861787267640e-01  2.0086983308530038e-01  2.3701660574023653e-01  2.7109449835322325e-01  2.9987610900774608e-01  3.1893601887799772e-01  3.2473708670557760e-01  3.2120904920449511e-01  -1.4049672886956924e-01  -1.4266334090248631e-01  -1.4191134580105680e-01  -1.3190405455365356e-01  -1.1350724303366810e-01  -8.9319983658952593e-02  -6.1717194365717085e-02  -3.2360664897264656e-02  -2.2370842158507729e-03  2.8159176395154206e-02  5.8637076596549050e-02  8.9146616679282475e-02  1.1963520397862407e-01  1.4990141627569914e-01  1.7942515329859920e-01  2.0716793859825020e-01  2.3138243312628859e-01  2.4958252162186725e-01  2.5907200435178501e-01  2.5892246125286944e-01  2.5507973187545646e-01  -9.0656601536448223e-02  -9.3393712030519369e-02  -9.6012103074322300e-02  -9.1831370148574162e-02  -8.0423030316763539e-02  -6.3302985453488503e-02  -4.2224546310326475e-02  -1.8627019679393803e-02  6.4614681733544503e-03  3.2357854694174217e-02  5.8611090236854693e-02  8.4883127908582559e-02  1.1083231934031962e-01  1.3599561459888701e-01  1.5966660389509174e-01  1.8078009869310438e-01  1.9784895857879159e-01  2.0907551667078428e-01  2.1292440770955851e-01  2.0979729785176512e-01  2.0606081687758027e-01  -5.3745541844852071e-02  -5.6614547030891166e-02  -6.0865314031263634e-02  -6.0112965144408066e-02  -5.3302464503775869e-02  -4.1246633851871779e-02  -2.5196821544845715e-02  -6.3309873037611132e-03  1.4389750126380463e-02  3.6219059152367790e-02  5.8567519762292575e-02  8.0925302249023584e-02  1.0277921099211557e-01  1.2352943676434336e-01  1.4241195285506045e-01  1.5844221904624980e-01  1.7041943759212586e-01  1.7708239618114274e-01  1.7762860690252658e-01  1.7309605759490240e-01  1.6962325217593521e-01  -2.6485832380685193e-02  -2.9287333510566647e-02  -3.4244966782099408e-02  -3.5486325330597514e-02  -3.1685649429934230e-02  -2.3216317844235512e-02  -1.0958987710242533e-02  4.1435242484634928e-03  2.1234887313348327e-02  3.9574300092743445e-02  5.8514537535383541e-02  7.7457968796549467e-02  9.5804334282351064e-02  1.1289868459943748e-01  1.2798830357280522e-01  1.4020360521977537e-01  1.4859341919110036e-01  1.5228239051262421e-01  1.5091576760954700e-01  1.4580539575940152e-01  1.4263569361783826e-01  -6.6056991891749652e-03  -9.2645599943565020e-03  -1.4452650058498382e-02  -1.6832178584915661e-02  -1.4987036294128838e-02  -9.0227488248777240e-03  4.4012278666589826e-04  1.2646907888138666e-02  2.6847172488855538e-02  4.2336822069909699e-02  5.8457957642491398e-02  7.4578902383164794e-02  9.0066149910286317e-02  1.0425662721370238e-01  1.1643892357818182e-01  1.2585592922153593e-01  1.3175191231343999e-01  1.3351650313354343e-01  1.3106235566468824e-01  1.2579389972964181e-01  1.2291028538734823e-01  7.4750066321434116e-03  4.9673545201182395e-03  -2.2804791328511891e-04  -3.2392176433614075e-03  -2.6428094520377907e-03  1.6150968874917293e-03  9.0890080629384088e-03  1.9163407997457613e-02  3.1177606054902066e-02  4.4472138848791601e-02  5.8401191921065930e-02  7.2328655180677145e-02  8.5617258769167370e-02  9.7618013428789951e-02  1.0766732502652770e-01  1.1510159994981430e-01  1.1930716259396436e-01  1.1984853625424055e-01  1.1679416484306725e-01  1.1155827042041835e-01  1.0891571552880024e-01  1.6839714771054594e-02  1.4455319812325951e-02  9.3314350451725418e-03  5.9855579698219561e-03  5.8186249231818562e-03  8.9759298628663362e-03  1.5123180674228574e-02  2.3739301395238152e-02  3.4229930116733240e-02  4.5974541696126268e-02  5.8345750200358301e-02  7.0715273560053124e-02  8.2454170435350652e-02  9.2933299048444135e-02  1.0153002319793131e-01  1.0764895957406383e-01  1.1077129636676430e-01  1.1057022893454523e-01  1.0720090324097106e-01  1.0205803192427255e-01  9.9597585142215936e-02  2.2194831975309953e-02  1.9885418955434244e-02  1.4830822453255125e-02  1.1324793145621020e-02  1.0744926818201902e-02  1.3283934297405722e-02  1.8669504455345560e-02  2.6435253028522329e-02  3.6027105622823449e-02  4.6850238011350909e-02  5.8291835572524819e-02  6.9732416588670840e-02  8.0552205562228585e-02  9.0137620638383542e-02  9.7892971025426198e-02  1.0326392620362333e-01  1.0578550409040557e-01  1.0518932587393477e-01  1.0167304149528136e-01  9.6611102616977265e-02  9.4267446578149658e-02  2.3940861808331822e-02  2.1646934782515392e-02  1.6617673856161242e-02  1.3061788963279846e-02  1.2346642368919369e-02  1.4681082303826778e-02  1.9813902278893059e-02  2.7297069454618482e-02  3.6589953007890211e-02  4.7106422762862372e-02  5.8238865772055545e-02  6.9371308781248239e-02  7.9887778536221435e-02  8.9180662089494309e-02  9.6663829265220477e-02  1.0179664924028869e-01  1.0413108917519735e-01  1.0341594258083786e-01  9.9860057687956555e-02  9.4830796761602151e-02  9.2536869735786023e-02  2.2210284965969020e-02  1.9866628927141371e-02  1.4804690048837577e-02  1.1288405670183481e-02  1.0692227453712269e-02  1.3213805340492817e-02  1.8584760518688823e-02  2.6340110905730123e-02  3.5925525981882818e-02  4.6745314955439675e-02  5.8185895971585695e-02  6.9627493532759474e-02  8.0450625921287364e-02  9.0042478515588692e-02  9.7808227088766617e-02  1.0319379724670777e-01  1.0573280472591380e-01  1.0515293839849527e-01  1.0164690909086213e-01  9.6592312588682977e-02  9.4282899568807671e-02  1.6880146401902652e-02  1.4419699619846255e-02  9.2768283031479382e-03  5.9075026095740208e-03  5.7064351773540752e-03  8.8287719700522963e-03  1.4947708346183917e-02  2.3544432495669246e-02  3.4023561108761050e-02  4.5762457984057446e-02  5.8131981343751436e-02  7.0503189847983108e-02  8.2247801427376005e-02  9.2738430148871703e-02  1.0135455086988295e-01  1.0750180168124662e-01  1.1065910662093285e-01  1.1049217357429292e-01  1.0714629649894417e-01  1.0202241173179157e-01  9.9638016773062874e-02  7.5620160153196652e-03  4.9194611237018014e-03  -3.1643329894664654e-04  -3.3708047101200698e-03  -2.8294310498451674e-03  1.3761315943023945e-03  8.8104065175874987e-03  1.8859718115322919e-02  3.0860472774943713e-02  4.4149076363432335e-02  5.8076539623042815e-02  7.2005592695316964e-02  8.5300125489206166e-02  9.7314323546650289e-02  1.0738872348117122e-01  1.1486263465661922e-01  1.1912054099615110e-01  1.1971694918747591e-01  1.1670577945739995e-01  1.1151037702399705e-01  1.0900272491197227e-01  -6.4325538432278753e-03  -9.3161681855213063e-03  -1.4584624120566943e-02  -1.7038771589422876e-02  -1.5274180769320533e-02  -9.3781976774191308e-03  3.8807965933233047e-05  1.2221104330409589e-02  2.6411581633823428e-02  4.1898829160942848e-02  5.8019773901615099e-02  7.4140909474196506e-02  8.9630559055250525e-02  1.0383082365596681e-01  1.1603760875744074e-01  1.2550048036898581e-01  1.3146476783824018e-01  1.3330991012902799e-01  1.3093038160261111e-01  1.2574229153846955e-01  1.2308343073328851e-01  -2.6157962073716449e-02  -2.9327664215279669e-02  -3.4438036065424456e-02  -3.5804658968502871e-02  -3.2115687646979980e-02  -2.3725873675657594e-02  -1.1510572028690621e-02  3.5790469446734092e-03  2.0673397261757504e-02  3.9019762747556343e-02  5.7963194008720534e-02  7.6903431451359902e-02  9.5242844230754797e-02  1.1233420729564018e-01  1.2743671925434777e-01  1.3969404938834259e-01  1.4816338097404325e-01  1.5196405687470746e-01  1.5072269832621091e-01  1.4576506505467876e-01  1.4296356392479759e-01  -5.3145520631811258e-02  -5.6618326050778982e-02  -6.1150875358402135e-02  -6.0604664637019495e-02  -5.3941706048004669e-02  -4.1964487502131914e-02  -2.5934221310946824e-02  -7.0517052202339562e-03  1.3698520551990886e-02  3.5552429295080408e-02  5.7910211781809093e-02  8.0258672391733191e-02  1.0208798141771999e-01  1.2280871884786262e-01  1.4167455308894933e-01  1.5772436539597681e-01  1.6978019604788258e-01  1.7659069668851635e-01  1.7734304557537389e-01  1.7309227857500234e-01  1.7022327338896304e-01  -8.9583085333455034e-02  -9.3319566307639851e-02  -9.6446676165433051e-02  -9.2597785126660143e-02  -8.1371227034670299e-02  -6.4302367148987072e-02  -4.3188872350979339e-02  -1.9517883054778907e-02  5.6454122037849696e-03  3.1594603635518810e-02  5.7866641307244102e-02  8.4119876849924113e-02  1.1001626337074391e-01  1.3510475122349277e-01  1.5870227785442712e-01  1.7978071699759066e-01  1.9690076186086783e-01  2.0830910169268099e-01  2.1248983461843085e-01  2.0987144357462945e-01  2.0713433308055920e-01  -1.3860200033132891e-01  -1.4244472970874081e-01  -1.4259427280765716e-01  -1.3310479007774301e-01  -1.1490470158216716e-01  -9.0690207054133193e-02  -6.2947421754487837e-02  -3.3423684731592712e-02  -3.1574724345223241e-03  2.7331114864816059e-02  5.7840654947546907e-02  8.8318555148941089e-02  1.1871481575994612e-01  1.4883839644136065e-01  1.7819492590981462e-01  2.0579771520305179e-01  2.2998497457777051e-01  2.4838178609775866e-01  2.5838907734516492e-01  2.5914107244659695e-01  2.5697446041368049e-01  -2.0473131766036368e-01  -2.0825935516144606e-01  -2.0245828733386795e-01  -1.8339837746361984e-01  -1.5461676680910075e-01  -1.2053887419611958e-01  -8.4392101541189132e-02  -4.8000886328570219e-02  -1.2141200646484281e-02  2.3063042233994642e-02  5.7841302439381528e-02  9.2573000944766351e-02  1.2763697508306665e-01  1.6326518994610065e-01  1.9935321591266911e-01  2.3518638578426207e-01  2.6907433803336300e-01  2.9801294910403364e-01  3.1784443297316378e-01  3.2521004963716849e-01  3.2453165629472747e-01  -2.9460574509811061e-01  -2.9674743131771192e-01  -2.7931173218340150e-01  -2.4413752521069948e-01  -1.9956955881250055e-01  -1.5228742183875785e-01  -1.0595706040624056e-01  -6.1980031618866040e-02  -2.0443166912021325e-02  1.9222937644503946e-02  5.7874259402255115e-02  9.6465219603753954e-02  1.3594371510382378e-01  1.7715144896656218e-01  2.2065585461395409e-01  2.6642511605604335e-01  3.1324255063250628e-01  3.5782901152566171e-01  3.9408682763997083e-01  4.1416336638413082e-01  4.1690429974923071e-01  -4.1803731841829972e-01  -4.1588901988801724e-01  -3.7584064186804383e-01  -3.1404441016209722e-01  -2.4681677461854692e-01  -1.8285568146512582e-01  -1.2510538282899830e-01  -7.3539641091172336e-02  -2.6922184714406855e-02  1.6351521953057425e-02  5.7933899023043620e-02  9.9448349570137942e-02  1.4250388895314473e-01  1.8871384947869987e-01  2.3964026330373547e-01  2.9653927269307429e-01  3.5965975559454355e-01  4.2667063029139474e-01  4.8994156609733586e-01  5.3431988476337111e-01  5.4472881101251580e-01  -5.8953070459355073e-01  -5.7436040606240790e-01  -4.9089590467021621e-01  -3.8728643435380156e-01  -2.9009954977279651e-01  -2.0727376927290347e-01  -1.3839853170797470e-01  -8.0503327309183872e-02  -3.0335511711951663e-02  1.4997033367043881e-02  5.7994836300048903e-02  1.0092865254766924e-01  1.4604876360876728e-01  1.9579371118097230e-01  2.5296219416823534e-01  3.2075147259964115e-01  4.0234965660903887e-01  4.9910317128673004e-01  6.0496638212215237e-01  6.9564206404120998e-01  7.2386204377881691e-01  -8.2996573924842476e-01  -7.7346242646168217e-01  -6.1138922512689831e-01  -4.4983885551773217e-01  -3.1936409914234370e-01  -2.1944169945988876e-01  -1.4245251454077387e-01  -8.1110090045597411e-02  -2.9838449398703806e-02  1.5478150287283846e-02  5.8019020532551202e-02  1.0051367024819202e-01  1.4567281401278004e-01  1.9661345973646566e-01  2.5733519143586719e-01  3.3327382586030346e-01  4.3179337198287748e-01  5.6170949789969316e-01  7.2741032527693650e-01  9.0346784897494792e-01  9.7652735389913037e-01  -1.1637935336947773e+00  -9.7773298818999332e-01  -6.9961596172437079e-01  -4.7982604393506295e-01  -3.2499748896811226e-01  -2.1620759812722717e-01  -1.3690540983788405e-01  -7.5935669480515056e-02  -2.6097286417832488e-02  1.7399177078143757e-02  5.8012010143671570e-02  9.8611126232897944e-02  1.4206155631903336e-01  1.9180138714607337e-01  2.5256589357697834e-01  3.3144316630553255e-01  4.3948910834715149e-01  5.9393301182763458e-01  8.1894442926864142e-01  1.1265600909257718e+00  1.3232686018349928e+00  -1.4083301062827140e+00  -1.0531661576366529e+00  -7.0509620082237756e-01  -4.7045870752621721e-01  -3.1490772061950539e-01  -2.0812932407192755e-01  -1.3097469530729847e-01  -7.1839176811333547e-02  -2.3526791562783055e-02  1.8666485836750676e-02  5.8111397422613495e-02  9.7606490647767913e-02  1.3997338514256732e-01  1.8865844922333336e-01  2.4851122683050386e-01  3.2695751781650062e-01  4.3586317614740033e-01  5.9435571247717489e-01  8.3171818669521180e-01  1.1803191711805603e+00  1.6785972128854079e+00  </DataArray> 
</PointData> 
</Piece>
</UnstructuredGrid>
</VTKFile>