<?xml version="1.0"?>
<VTKFile type="UnstructuredGrid"  version="0.1"  >
<UnstructuredGrid>
<Piece  NumberOfPoints="651" NumberOfCells="1200">
<Points>
<DataArray  type="Float64"  NumberOfComponents="3"  format="ascii">0 0 0  50000 0 0  100000 0 0  150000 0 0  200000 0 0  250000 0 0  300000 0 0  350000 0 0  400000 0 0  450000 0 0  500000 0 0  550000 0 0  600000 0 0  650000 0 0  700000 0 0  750000 0 0  800000 0 0  850000 0 0  900000 0 0  950000 0 0  1000000 0 0  0 50000 0  50000 50000 0  100000 50000 0  150000 50000 0  200000 50000 0  250000 50000 0  300000 50000 0  350000 50000 0  400000 50000 0  450000 50000 0  500000 50000 0  550000 50000 0  600000 50000 0  650000 50000 0  700000 50000 0  750000 50000 0  800000 50000 0  850000 50000 0  900000 50000 0  950000 50000 0  1000000 50000 0  0 100000 0  50000 100000 0  100000 100000 0  150000 100000 0  200000 100000 0  250000 100000 0  300000 100000 0  350000 100000 0  400000 100000 0  450000 100000 0  500000 100000 0  550000 100000 0  600000 100000 0  650000 100000 0  700000 100000 0  750000 100000 0  800000 100000 0  850000 100000 0  900000 100000 0  950000 100000 0  1000000 100000 0  0 150000 0  50000 150000 0  100000 150000 0  150000 150000 0  200000 150000 0  250000 150000 0  300000 150000 0  350000 150000 0  400000 150000 0  450000 150000 0  500000 150000 0  550000 150000 0  600000 150000 0  650000 150000 0  700000 150000 0  750000 150000 0  800000 150000 0  850000 150000 0  900000 150000 0  950000 150000 0  1000000 150000 0  0 200000 0  50000 200000 0  100000 200000 0  150000 200000 0  200000 200000 0  250000 200000 0  300000 200000 0  350000 200000 0  400000 200000 0  450000 200000 0  500000 200000 0  550000 200000 0  600000 200000 0  650000 200000 0  700000 200000 0  750000 200000 0  800000 200000 0  850000 200000 0  900000 200000 0  950000 200000 0  1000000 200000 0  0 250000 0  50000 250000 0  100000 250000 0  150000 250000 0  200000 250000 0  250000 250000 0  300000 250000 0  350000 250000 0  400000 250000 0  450000 250000 0  500000 250000 0  550000 250000 0  600000 250000 0  650000 250000 0  700000 250000 0  750000 250000 0  800000 250000 0  850000 250000 0  900000 250000 0  950000 250000 0  1000000 250000 0  0 300000 0  50000 300000 0  100000 300000 0  150000 300000 0  200000 300000 0  250000 300000 0  300000 300000 0  350000 300000 0  400000 300000 0  450000 300000 0  500000 300000 0  550000 300000 0  600000 300000 0  650000 300000 0  700000 300000 0  750000 300000 0  800000 300000 0  850000 300000 0  900000 300000 0  950000 300000 0  1000000 300000 0  0 350000 0  50000 350000 0  100000 350000 0  150000 350000 0  200000 350000 0  250000 350000 0  300000 350000 0  350000 350000 0  400000 350000 0  450000 350000 0  500000 350000 0  550000 350000 0  600000 350000 0  650000 350000 0  700000 350000 0  750000 350000 0  800000 350000 0  850000 350000 0  900000 350000 0  950000 350000 0  1000000 350000 0  0 400000 0  50000 400000 0  100000 400000 0  150000 400000 0  200000 400000 0  250000 400000 0  300000 400000 0  350000 400000 0  400000 400000 0  450000 400000 0  500000 400000 0  550000 400000 0  600000 400000 0  650000 400000 0  700000 400000 0  750000 400000 0  800000 400000 0  850000 400000 0  900000 400000 0  950000 400000 0  1000000 400000 0  0 450000 0  50000 450000 0  100000 450000 0  150000 450000 0  200000 450000 0  250000 450000 0  300000 450000 0  350000 450000 0  400000 450000 0  450000 450000 0  500000 450000 0  550000 450000 0  600000 450000 0  650000 450000 0  700000 450000 0  750000 450000 0  800000 450000 0  850000 450000 0  900000 450000 0  950000 450000 0  1000000 450000 0  0 500000 0  50000 500000 0  100000 500000 0  150000 500000 0  200000 500000 0  250000 500000 0  300000 500000 0  350000 500000 0  400000 500000 0  450000 500000 0  500000 500000 0  550000 500000 0  600000 500000 0  650000 500000 0  700000 500000 0  750000 500000 0  800000 500000 0  850000 500000 0  900000 500000 0  950000 500000 0  1000000 500000 0  0 550000 0  50000 550000 0  100000 550000 0  150000 550000 0  200000 550000 0  250000 550000 0  300000 550000 0  350000 550000 0  400000 550000 0  450000 550000 0  500000 550000 0  550000 550000 0  600000 550000 0  650000 550000 0  700000 550000 0  750000 550000 0  800000 550000 0  850000 550000 0  900000 550000 0  950000 550000 0  1000000 550000 0  0 600000 0  50000 600000 0  100000 600000 0  150000 600000 0  200000 600000 0  250000 600000 0  300000 600000 0  350000 600000 0  400000 600000 0  450000 600000 0  500000 600000 0  550000 600000 0  600000 600000 0  650000 600000 0  700000 600000 0  750000 600000 0  800000 600000 0  850000 600000 0  900000 600000 0  950000 600000 0  1000000 600000 0  0 650000 0  50000 650000 0  100000 650000 0  150000 650000 0  200000 650000 0  250000 650000 0  300000 650000 0  350000 650000 0  400000 650000 0  450000 650000 0  500000 650000 0  550000 650000 0  600000 650000 0  650000 650000 0  700000 650000 0  750000 650000 0  800000 650000 0  850000 650000 0  900000 650000 0  950000 650000 0  1000000 650000 0  0 700000 0  50000 700000 0  100000 700000 0  150000 700000 0  200000 700000 0  250000 700000 0  300000 700000 0  350000 700000 0  400000 700000 0  450000 700000 0  500000 700000 0  550000 700000 0  600000 700000 0  650000 700000 0  700000 700000 0  750000 700000 0  800000 700000 0  850000 700000 0  900000 700000 0  950000 700000 0  1000000 700000 0  0 750000 0  50000 750000 0  100000 750000 0  150000 750000 0  200000 750000 0  250000 750000 0  300000 750000 0  350000 750000 0  400000 750000 0  450000 750000 0  500000 750000 0  550000 750000 0  600000 750000 0  650000 750000 0  700000 750000 0  750000 750000 0  800000 750000 0  850000 750000 0  900000 750000 0  950000 750000 0  1000000 750000 0  0 800000 0  50000 800000 0  100000 800000 0  150000 800000 0  200000 800000 0  250000 800000 0  300000 800000 0  350000 800000 0  400000 800000 0  450000 800000 0  500000 800000 0  550000 800000 0  600000 800000 0  650000 800000 0  700000 800000 0  750000 800000 0  800000 800000 0  850000 800000 0  900000 800000 0  950000 800000 0  1000000 800000 0  0 850000 0  50000 850000 0  100000 850000 0  150000 850000 0  200000 850000 0  250000 850000 0  300000 850000 0  350000 850000 0  400000 850000 0  450000 850000 0  500000 850000 0  550000 850000 0  600000 850000 0  650000 850000 0  700000 850000 0  750000 850000 0  800000 850000 0  850000 850000 0  900000 850000 0  950000 850000 0  1000000 850000 0  0 900000 0  50000 900000 0  100000 900000 0  150000 900000 0  200000 900000 0  250000 900000 0  300000 900000 0  350000 900000 0  400000 900000 0  450000 900000 0  500000 900000 0  550000 900000 0  600000 900000 0  650000 900000 0  700000 900000 0  750000 900000 0  800000 900000 0  850000 900000 0  900000 900000 0  950000 900000 0  1000000 900000 0  0 950000 0  50000 950000 0  100000 950000 0  150000 950000 0  200000 950000 0  250000 950000 0  300000 950000 0  350000 950000 0  400000 950000 0  450000 950000 0  500000 950000 0  550000 950000 0  600000 950000 0  650000 950000 0  700000 950000 0  750000 950000 0  800000 950000 0  850000 950000 0  900000 950000 0  950000 950000 0  1000000 950000 0  0 1000000 0  50000 1000000 0  100000 1000000 0  150000 1000000 0  200000 1000000 0  250000 1000000 0  300000 1000000 0  350000 1000000 0  400000 1000000 0  450000 1000000 0  500000 1000000 0  550000 1000000 0  600000 1000000 0  650000 1000000 0  700000 1000000 0  750000 1000000 0  800000 1000000 0  850000 1000000 0  900000 1000000 0  950000 1000000 0  1000000 1000000 0  0 1050000 0  50000 1050000 0  100000 1050000 0  150000 1050000 0  200000 1050000 0  250000 1050000 0  300000 1050000 0  350000 1050000 0  400000 1050000 0  450000 1050000 0  500000 1050000 0  550000 1050000 0  600000 1050000 0  650000 1050000 0  700000 1050000 0  750000 1050000 0  800000 1050000 0  850000 1050000 0  900000 1050000 0  950000 1050000 0  1000000 1050000 0  0 1100000 0  50000 1100000 0  100000 1100000 0  150000 1100000 0  200000 1100000 0  250000 1100000 0  300000 1100000 0  350000 1100000 0  400000 1100000 0  450000 1100000 0  500000 1100000 0  550000 1100000 0  600000 1100000 0  650000 1100000 0  700000 1100000 0  750000 1100000 0  800000 1100000 0  850000 1100000 0  900000 1100000 0  950000 1100000 0  1000000 1100000 0  0 1150000 0  50000 1150000 0  100000 1150000 0  150000 1150000 0  200000 1150000 0  250000 1150000 0  300000 1150000 0  350000 1150000 0  400000 1150000 0  450000 1150000 0  500000 1150000 0  550000 1150000 0  600000 1150000 0  650000 1150000 0  700000 1150000 0  750000 1150000 0  800000 1150000 0  850000 1150000 0  900000 1150000 0  950000 1150000 0  1000000 1150000 0  0 1200000 0  50000 1200000 0  100000 1200000 0  150000 1200000 0  200000 1200000 0  250000 1200000 0  300000 1200000 0  350000 1200000 0  400000 1200000 0  450000 1200000 0  500000 1200000 0  550000 1200000 0  600000 1200000 0  650000 1200000 0  700000 1200000 0  750000 1200000 0  800000 1200000 0  850000 1200000 0  900000 1200000 0  950000 1200000 0  1000000 1200000 0  0 1250000 0  50000 1250000 0  100000 1250000 0  150000 1250000 0  200000 1250000 0  250000 1250000 0  300000 1250000 0  350000 1250000 0  400000 1250000 0  450000 1250000 0  500000 1250000 0  550000 1250000 0  600000 1250000 0  650000 1250000 0  700000 1250000 0  750000 1250000 0  800000 1250000 0  850000 1250000 0  900000 1250000 0  950000 1250000 0  1000000 1250000 0  0 1300000 0  50000 1300000 0  100000 1300000 0  150000 1300000 0  200000 1300000 0  250000 1300000 0  300000 1300000 0  350000 1300000 0  400000 1300000 0  450000 1300000 0  500000 1300000 0  550000 1300000 0  600000 1300000 0  650000 1300000 0  700000 1300000 0  750000 1300000 0  800000 1300000 0  850000 1300000 0  900000 1300000 0  950000 1300000 0  1000000 1300000 0  0 1350000 0  50000 1350000 0  100000 1350000 0  150000 1350000 0  200000 1350000 0  250000 1350000 0  300000 1350000 0  350000 1350000 0  400000 1350000 0  450000 1350000 0  500000 1350000 0  550000 1350000 0  600000 1350000 0  650000 1350000 0  700000 135
[...]
<PointData  Scalars="f_3013"> 
<DataArray  type="Float64"  Name="f_3013"  format="ascii">-1.6600690920907337e+00  -1.1347414080825287e+00  -7.6718978271966165e-01  -5.1700562090593871e-01  -3.5008306206598727e-01  -2.3554000912944015e-01  -1.5319298679083623e-01  -9.0512960926017225e-02  -3.9652977538355977e-02  4.5162295948919873e-03  4.5643231997007414e-02  8.6717181535557297e-02  1.3070287836865394e-01  1.8116909084341562e-01  2.4309159343024245e-01  3.2407508366681520e-01  4.3637362383891665e-01  6.0019406930876307e-01  8.4750464191567088e-01  1.2144850803162219e+00  1.5889031133099243e+00  -1.2856255459985904e+00  -1.0782124615181088e+00  -7.5384851555882704e-01  -5.1667622203588359e-01  -3.5401177342733608e-01  -2.4036182688809415e-01  -1.5754461137460557e-01  -9.3885911094580832e-02  -4.1895523617437001e-02  3.4349059849051703e-03  4.5744981749625435e-02  8.8069499657292993e-02  1.3344840269278951e-01  1.8554260879324036e-01  2.4941767068295467e-01  3.3268325297359808e-01  4.4711910591003989e-01  6.1019287268845124e-01  8.4186407644704597e-01  1.1351124906294208e+00  1.3312529322834921e+00  -9.2033140874191977e-01  -8.4328061763508844e-01  -6.5763439925047829e-01  -4.8299004396501899e-01  -3.4616791869980446e-01  -2.4253193046678809e-01  -1.6277381398978946e-01  -9.9114834671232568e-02  -4.5809231236462862e-02  1.3740036100291740e-03  4.5734800008067761e-02  9.0144389538911199e-02  1.3749385012322610e-01  1.9114891398810838e-01  2.5546331996982652e-01  3.3633110582293602e-01  4.4144991490174768e-01  5.7886635347273729e-01  7.4913749889362224e-01  9.2002885788406297e-01  9.7958499362734464e-01  -6.5419062154053731e-01  -6.2442215275916169e-01  -5.2881444570970104e-01  -4.1726187574246965e-01  -3.1539096633040753e-01  -2.2956915612612946e-01  -1.5836613902066085e-01  -9.8408819538260500e-02  -4.6314140617292707e-02  8.8074131003325438e-04  4.5758816962906755e-02  9.0704496586115055e-02  1.3812382306130172e-01  1.9066529261209908e-01  2.5139052303758774e-01  3.2374133662645904e-01  4.1086155212302100e-01  5.1319373384366906e-01  6.2237116316275010e-01  7.1036775261568641e-01  7.2635749306126107e-01  -4.6550974080909602e-01  -4.5452886775035822e-01  -4.0775448762481348e-01  -3.4111719667463097e-01  -2.7059912459373969e-01  -2.0424039386382095e-01  -1.4449062791079631e-01  -9.1078160237510933e-02  -4.2668786979955367e-02  2.3944856924115483e-03  4.5822862788478344e-02  8.9323051502800968e-02  1.3461696933628736e-01  1.8345715448499386e-01  2.3754559494383143e-01  2.9819567661300400e-01  3.6544409392071991e-01  4.3619355470158949e-01  5.0127582616836586e-01  5.4347962438102404e-01  5.4574219247444355e-01  -3.3085856679872128e-01  -3.2797183330907720e-01  -3.0684177890666392e-01  -2.6869872227404712e-01  -2.2182416403867308e-01  -1.7264345879894721e-01  -1.2460795080398653e-01  -7.8993323918890038e-02  -3.5825327564632373e-02  5.5025432379885502e-03  4.5886230733065525e-02  8.6333772322456509e-02  1.2786010981422860e-01  1.7137630286927349e-01  2.1749100324239412e-01  2.6612041612014520e-01  3.1579356093530248e-01  3.6265028964217766e-01  3.9965022976899239e-01  4.1799266852303685e-01  4.1572761745926629e-01  -2.3353204749646655e-01  -2.3425991021698855e-01  -2.2655376801978100e-01  -2.0574562635574820e-01  -1.7537451278859376e-01  -1.3982106237732994e-01  -1.0224835525301290e-01  -6.4433331291773435e-02  -2.7123462359859660e-02  9.5777155696024959e-03  4.5921683651297125e-02  8.2314946616659543e-02  1.1916463517984073e-01  1.5671961068166160e-01  1.9485578776165330e-01  2.3276093851345828e-01  2.6851639395861870e-01  2.9872294391723753e-01  3.1871695444972703e-01  3.2477149330972405e-01  3.2103719465474501e-01  -1.6233185099278760e-01  -1.6463754578213910e-01  -1.6392539417331156e-01  -1.5349195657496081e-01  -1.3424347346409662e-01  -1.0891725178357684e-01  -8.0014259534487223e-02  -4.9282827432189667e-02  -1.7758742604576484e-02  1.4041860989847874e-02  4.5923045681083630e-02  7.7837767304330466e-02  1.0973624844392817e-01  1.4141159850745991e-01  1.7232051289960196e-01  2.0137246735914316e-01  2.2672863113721672e-01  2.4577029791429625e-01  2.5565727815179085e-01  2.5541753424235397e-01  2.5134335986415701e-01  -1.0978816097982455e-01  -1.1270285830798663e-01  -1.1556267356174756e-01  -1.1128809177667308e-01  -9.9416767793261654e-02  -8.1543716963932603e-02  -5.9515414340030146e-02  -3.4846807715753318e-02  -8.6186203406639680e-03  1.8452823204936266e-02  4.5896211605871554e-02  7.3359570498757659e-02  1.0048712384057745e-01  1.2679488844648287e-01  1.5154187019824711e-01  1.7360814806806157e-01  1.9142811074762656e-01  2.0310817183214969e-01  2.0703249264822629e-01  2.0363533090077135e-01  1.9966590999998246e-01  -7.0863777029802386e-02  -7.3923546148462610e-02  -7.8519605520052660e-02  -7.7873317191392052e-02  -7.0858286160780312e-02  -5.8327768417509890e-02  -4.1599554621783157e-02  -2.1913925760306187e-02  -2.8194143338234207e-04  2.2512347483827109e-02  4.5850708867345373e-02  6.9199014522313612e-02  9.2019581196748412e-02  1.1368320052940856e-01  1.3338711449052987e-01  1.5009547054462952e-01  1.6254373831507474e-01  1.6940348730578639e-01  1.6983215470160226e-01  1.6493827668404007e-01  1.6124097860667688e-01  -4.2110400897345787e-02  -4.5103503695340233e-02  -5.0456556170409665e-02  -5.1923332713234294e-02  -4.8089184124601413e-02  -3.9343470762614567e-02  -2.6613437678410890e-02  -1.0892057842043777e-02  6.9193486011450579e-03  2.6041760176189324e-02  4.5795169127697093e-02  6.5552033618382272e-02  8.4682034056967809e-02  1.0249699787204666e-01  1.1820529897327978e-01  1.3089156558373408e-01  1.3955389423445266e-01  1.4327046517679240e-01  1.4167142288199217e-01  1.3615681032331667e-01  1.3277470809634298e-01  -2.1137381182890207e-02  -2.3983255237521348e-02  -2.9587788338953553e-02  -3.2262941508976670e-02  -3.0496624665571688e-02  -2.4395208169691859e-02  -1.4611808941899136e-02  -1.9414256022351032e-03  1.2825739897071481e-02  2.8948764266652931e-02  4.5735745709748407e-02  6.2522590450906607e-02  7.8643270481179028e-02  9.3400411712681139e-02  1.0604534392858619e-01  1.1578077040002949e-01  1.2181048757882315e-01  1.2349201394005085e-01  1.2073806166944231e-01  1.1504843899711492e-01  1.1196495508992971e-01  -6.2810483123197734e-03  -8.9695694655863890e-03  -1.4587579229580563e-02  -1.7934619481642270e-02  -1.7489382643402690e-02  -1.3189609417245243e-02  -5.5038254618046444e-03  4.9194519425186222e-03  1.7384279210588875e-02  3.1196358124295668e-02  4.5676058970542631e-02  6.0154128268095096e-02  7.3960085704515927e-02  8.6410941335597943e-02  9.6808017519253081e-02  1.0445227059708825e-01  1.0869706641180336e-01  1.0908437131895476e-01  1.0569170828743402e-01  1.0003078004259586e-01  9.7199542553780938e-02  3.6000173837203863e-03  1.0401949228663310e-03  -4.5060074546639283e-03  -8.2097910154399732e-03  -8.5724118899625449e-03  -5.4348664688372251e-03  8.5162022217503042e-04  9.7379761947008672e-03  2.0597962943197313e-02  3.2778050511878938e-02  4.5617721199503351e-02  5.8455643109717050e-02  7.0629786529555344e-02  8.1477773901230857e-02  9.0343833708369820e-02  9.6600625671329168e-02  9.9701430253128082e-02  9.9302877525017569e-02  9.5574333177107326e-02  9.0007984095255678e-02  8.7367657726159551e-02  9.2505086719078707e-03  6.7690649122681490e-03  1.2939820982317571e-03  -2.5807921960830601e-03  -3.3805179668936745e-03  -8.9594244778353209e-04  4.5871108981188425e-03  1.2577173001298901e-02  2.2490356701515956e-02  3.3700066532594969e-02  4.5560964038320648e-02  5.7420803168402278e-02  6.8627026762357005e-02  7.8533483147220529e-02  8.6512655418739814e-02  9.1980374349920319e-02  9.4446632955282439e-02  9.3629736234493513e-02  8.9744134227337027e-02  8.4261253147502602e-02  8.1743547288085208e-02  1.1092854245558620e-02  8.6274784760812188e-03  3.1784873109597105e-03  -7.4953655212862871e-04  -1.6924467821593306e-03  5.7610837515858484e-04  5.7925727408998729e-03  1.3484803611376887e-02  2.3083044578390065e-02  3.3969811502269159e-02  4.5505188893387047e-02  5.7040566284504504e-02  6.7927333208384677e-02  7.7525574175399098e-02  8.5217805045876949e-02  9.0434269411620249e-02  9.2702824568939537e-02  9.1759914338909898e-02  8.7831890475821670e-02  8.2382899310699906e-02  7.9917523541222821e-02  9.2668304986970734e-03  6.7491246392796470e-03  1.2662435594455350e-03  -2.6193584477116724e-03  -3.4362551685010751e-03  -9.6999656314070018e-04  4.4977223680385450e-03  1.2476894639556374e-02  2.2383351024417481e-02  3.3589574618371247e-02  4.5449413748452849e-02  5.7310311254178417e-02  6.8520021085257884e-02  7.8433204785475191e-02  8.6423266888656522e-02  9.1906320234560301e-02  9.4390895753672779e-02  9.3591169982862835e-02  8.9716395688549042e-02  8.4241312874512628e-02  8.1759869114873332e-02  3.6427200606226383e-03  1.0023936915266912e-03  -4.5639553903247219e-03  -8.2924997382347061e-03  -8.6910524663462250e-03  -5.5902478845496640e-03  6.6654407840870155e-04  9.5326038855456877e-03  2.0380591257219440e-02  3.2554734677056496e-02  4.5392656587269320e-02  5.8232327274893352e-02  7.0412414843574855e-02  8.1272401592071983e-02  9.0158757564599595e-02  9.6445244255613405e-02  9.9582789676740571e-02  9.9220168802218220e-02  9.5516385241444124e-02  8.9970182863914769e-02  8.7410360403060647e-02  -6.1891647669974504e-03  -9.0204022558120697e-03  -1.4681330500649781e-02  -1.8073993532170624e-02  -1.7686688625020631e-02  -1.3441892810308191e-02  -5.7976397324746229e-03  4.5994364511780491e-03  1.7050292082258143e-02  3.0856249518677204e-02  4.5334318816228951e-02  5.9814019662475779e-02  7.3626098576182158e-02  8.6090925844252139e-02  9.6514203248577207e-02  1.0419998720401925e-01  1.0849976043017925e-01  1.0894499726842008e-01  1.0559795701635874e-01  9.9979947252365045e-02  9.7291426099098841e-02  -2.0954577303145774e-02  -2.4038061210330808e-02  -2.9727683882657362e-02  -3.2481636153266671e-02  -3.0800109792040176e-02  -2.4770392613249356e-02  -1.5034966141807927e-02  -2.3900339259061766e-03  1.2367107305593586e-02  2.8487787335863754e-02  4.5274632077020774e-02  6.2061613520115917e-02  7.8184637889697206e-02  9.2951803389003204e-02  1.0562218672866848e-01  1.1540558595646280e-01  1.2150700245234609e-01  1.2327331929575208e-01  1.2059816612572943e-01  1.1499363302429760e-01  1.1214775896966697e-01  -4.1764330309557542e-02  -4.5146432536531216e-02  -5.0661045095205956e-02  -5.2260087390007454e-02  -4.8543516447668744e-02  -3.9881187796952891e-02  -2.7194921186502040e-02  -1.1486620085272880e-02  6.3283437298034817e-03  2.5458344168386077e-02  4.5215208659069417e-02  6.4968617610576415e-02  8.4091029185620489e-02  1.0190243562880989e-01  1.1762381546517868e-01  1.3035384854938437e-01  1.3909956191137327e-01  1.4293371050000711e-01  1.4146693395718424e-01  1.3611388148211545e-01  1.3312077868412125e-01  -7.0230600819889188e-02  -7.3927898897252986e-02  -7.8821776914814082e-02  -7.8393109518999513e-02  -7.1533360528290083e-02  -5.9085092757848325e-02  -4.2376736703753214e-02  -2.2672822742636423e-02  -1.0092034099794275e-03  2.1811363264452741e-02  4.5159668919418521e-02  6.8498030302936025e-02  9.1292319220144941e-02  1.1292430354706995e-01  1.3260993240854918e-01  1.4933814620427746e-01  1.6186866394754967e-01  1.6888369497816316e-01  1.6952998330682587e-01  1.6493392393523684e-01  1.6187415481657630e-01  -1.0865553221319353e-01  -1.1262495311398241e-01  -1.1602211486143707e-01  -1.1209779404536196e-01  -1.0041773296084189e-01  -8.2597770281281027e-02  -6.0531492411471807e-02  -3.5784510659712214e-02  -9.4767460538105613e-03  1.7650807288005825e-02  4.5114166180889204e-02  7.2557554581823988e-02  9.9628998127424262e-02  1.2585718550251437e-01  1.5052579212679296e-01  1.7255409475069705e-01  1.9042714558002832e-01  2.0229846956344250e-01  2.0657305134851886e-01  2.0371323609475961e-01  2.0079853876659851e-01  -1.6033298207736571e-01  -1.6440715645556150e-01  -1.6464690036499927e-01  -1.5475992012750842e-01  -1.3571825335043194e-01  -1.1036208957236296e-01  -8.1310135112827808e-02  -5.0401220720691101e-02  -1.8725870657164315e-02  1.3172610482429988e-02  4.5087332105674074e-02  7.6968516796909123e-02  1.0876912039133350e-01  1.4029320521894742e-01  1.7102463732124670e-01  1.9992762957033802e-01  2.2525385125086128e-01  2.4450233436172830e-01  2.5493577196008232e-01  2.5564792356891264e-01  2.5334222877956181e-01  -2.3002681686794954e-01  -2.3376111552292847e-01  -2.2770657666293337e-01  -2.0771256613044764e-01  -1.7750601617183279e-01  -1.4175056072667824e-01  -1.0384540997487937e-01  -6.5709232894893069e-02  -2.8154257393077413e-02  8.6954311700995299e-03  4.5088694135458886e-02  8.1432662217152646e-02  1.1813384014661436e-01  1.5544370907852817e-01  1.9325873303976979e-01  2.3083144016408924e-01  2.6638489057535802e-01  2.9675600414251679e-01  3.1756414580655340e-01  3.2527028800376417e-01  3.2454242528324345e-01  -3.2471723967246452e-01  -3.2698229073623503e-01  -3.0863985198219213e-01  -2.7163991185538311e-01  -2.2478318314851375e-01  -1.7511003833336514e-01  -1.2648062545562025e-01  -8.0365925082503870e-02  -3.6849732027464908e-02  4.6766054643024102e-03  4.5124147053690916e-02  8.5507834548766856e-02  1.2683570535138805e-01  1.7000370170564563e-01  2.1561832859074323e-01  2.6365383658570835e-01  3.1283454182543913e-01  3.5970910006081874e-01  3.9785215669343871e-01  4.1898221109585682e-01  4.2186894458550256e-01  -4.5473181468763063e-01  -4.5246924659421223e-01  -4.1026544838155643e-01  -3.4518317691478895e-01  -2.7443371613392598e-01  -2.0718529882622022e-01  -1.4653521715705414e-01  -9.2446776698221669e-02  -4.3606591549521047e-02  1.6873262839608007e-03  4.5187514998280977e-02  8.8615892094346768e-02  1.3367916476671332e-01  1.8208853802426928e-01  2.3550100569755683e-01  2.9525077165058711e-01  3.6160950238050976e-01  4.3212757446140576e-01  4.9876486541159482e-01  5.4553924553714550e-01  5.5652011859588535e-01  -6.3534711527443311e-01  -6.1935737482885966e-01  -5.3136078537593101e-01  -4.2218335605685997e-01  -3.1985117433622101e-01  -2.3273095883966827e-01  -1.6038014525080418e-01  -9.9654914825321697e-02  -4.7113445274529722e-02  3.0588120065283894e-04  4.5251560823858249e-02  9.0129636476731514e-02  1.3732451840405677e-01  1.8941919732502571e-01  2.4937651680743034e-01  3.2057953391290345e-01  4.0640134411718687e-01  5.0827225352925354e-01  6.1982482349649237e-01  7.1543253054596001e-01  7.4520099932733841e-01  -8.8857461584050057e-01  -8.2901848009721746e-01  -6.5812712110679006e-01  -4.8785597568591665e-01  -3.5043953711493953e-01  -2.4532072803613569e-01  -1.6445294218303444e-01  -1.0013853620132222e-01  -4.6483472336446209e-02  8.6598824786527110e-04  4.5275577778706479e-02  8.9636374176744485e-02  1.3681960902323678e-01  1.9012521245800712e-01  2.5378419177656836e-01  3.3354230825357295e-01  4.3717829648659473e-01  5.7400042175181609e-01  7.4864477703728427e-01  9.3429099542190053e-01  1.0113417865287408e+00  -1.2402425544966358e+00  -1.0441021128425676e+00  -7.5085369866020824e-01  -5.1918249490162272e-01  -3.5610872812322159e-01  -2.4167287518678821e-01  -1.5840729289615280e-01  -9.4532231006445033e-02  -4.2438024905999898e-02  2.9408781294927655e-03  4.5265396037157658e-02  8.7575471801877830e-02  1.3290590140422071e-01  1.8489628888136680e-01  2.4855498916139573e-01  3.3137220467488887e-01  4.4502215121413924e-01  6.0768659982269602e-01  8.4485889334565178e-01  1.1692228393049400e+00  1.3766359237854235e+00  -1.4978927355230638e+00  -1.1234747025293632e+00  -7.5649426412882492e-01  -5.0918369152192944e-01  -3.4536324605209351e-01  -2.3306470588000194e-01  -1.5208121564343716e-01  -9.0158713056617684e-02  -3.9692500581860996e-02  4.2931962512318496e-03  4.5367145789779253e-02  8.6494148191893702e-02  1.3066335532514320e-01  1.8152333871280688e-01  2.4420336457763034e-01  3.2655038691623922e-01  4.4109343985279525e-01  6.0801599869275746e-01  8.5820016050648940e-01  1.2257517858693678e+00  1.7510794698775765e+00  </DataArray> 
</PointData> 
</Piece>
</UnstructuredGrid>
</VTKFile>