<?xml version="1.0"?>
<VTKFile type="UnstructuredGrid"  version="0.1"  >
<UnstructuredGrid>
<Piece  NumberOfPoints="651" NumberOfCells="1200">
<Points>
<DataArray  type="Float64"  NumberOfComponents="3"  format="ascii">0 0 0  50000 0 0  100000 0 0  150000 0 0  200000 0 0  250000 0 0  300000 0 0  350000 0 0  400000 0 0  450000 0 0  500000 0 0  550000 0 0  600000 0 0  650000 0 0  700000 0 0  750000 0 0  800000 0 0  850000 0 0  900000 0 0  950000 0 0  1000000 0 0  0 50000 0  50000 50000 0  100000 50000 0  150000 50000 0  200000 50000 0  250000 50000 0  300000 50000 0  350000 50000 0  400000 50000 0  450000 50000 0  500000 50000 0  550000 50000 0  600000 50000 0  650000 50000 0  700000 50000 0  750000 50000 0  800000 50000 0  850000 50000 0  900000 50000 0  950000 50000 0  1000000 50000 0  0 100000 0  50000 100000 0  100000 100000 0  150000 100000 0  200000 100000 0  250000 100000 0  300000 100000 0  350000 100000 0  400000 100000 0  450000 100000 0  500000 100000 0  550000 100000 0  600000 100000 0  650000 100000 0  700000 100000 0  750000 100000 0  800000 100000 0  850000 100000 0  900000 100000 0  950000 100000 0  1000000 100000 0  0 150000 0  50000 150000 0  100000 150000 0  150000 150000 0  200000 150000 0  250000 150000 0  300000 150000 0  350000 150000 0  400000 150000 0  450000 150000 0  500000 150000 0  550000 150000 0  600000 150000 0  650000 150000 0  700000 150000 0  750000 150000 0  800000 150000 0  850000 150000 0  900000 150000 0  950000 150000 0  1000000 150000 0  0 200000 0  50000 200000 0  100000 200000 0  150000 200000 0  200000 200000 0  250000 200000 0  300000 200000 0  350000 200000 0  400000 200000 0  450000 200000 0  500000 200000 0  550000 200000 0  600000 200000 0  650000 200000 0  700000 200000 0  750000 200000 0  800000 200000 0  850000 200000 0  900000 200000 0  950000 200000 0  1000000 200000 0  0 250000 0  50000 250000 0  100000 250000 0  150000 250000 0  200000 250000 0  250000 250000 0  300000 250000 0  350000 250000 0  400000 250000 0  450000 250000 0  500000 250000 0  550000 250000 0  600000 250000 0  650000 250000 0  700000 250000 0  750000 250000 0  800000 250000 0  850000 250000 0  900000 250000 0  950000 250000 0  1000000 250000 0  0 300000 0  50000 300000 0  100000 300000 0  150000 300000 0  200000 300000 0  250000 300000 0  300000 300000 0  350000 300000 0  400000 300000 0  450000 300000 0  500000 300000 0  550000 300000 0  600000 300000 0  650000 300000 0  700000 300000 0  750000 300000 0  800000 300000 0  850000 300000 0  900000 300000 0  950000 300000 0  1000000 300000 0  0 350000 0  50000 350000 0  100000 350000 0  150000 350000 0  200000 350000 0  250000 350000 0  300000 350000 0  350000 350000 0  400000 350000 0  450000 350000 0  500000 350000 0  550000 350000 0  600000 350000 0  650000 350000 0  700000 350000 0  750000 350000 0  800000 350000 0  850000 350000 0  900000 350000 0  950000 350000 0  1000000 350000 0  0 400000 0  50000 400000 0  100000 400000 0  150000 400000 0  200000 400000 0  250000 400000 0  300000 400000 0  350000 400000 0  400000 400000 0  450000 400000 0  500000 400000 0  550000 400000 0  600000 400000 0  650000 400000 0  700000 400000 0  750000 400000 0  800000 400000 0  850000 400000 0  900000 400000 0  950000 400000 0  1000000 400000 0  0 450000 0  50000 450000 0  100000 450000 0  150000 450000 0  200000 450000 0  250000 450000 0  300000 450000 0  350000 450000 0  400000 450000 0  450000 450000 0  500000 450000 0  550000 450000 0  600000 450000 0  650000 450000 0  700000 450000 0  750000 450000 0  800000 450000 0  850000 450000 0  900000 450000 0  950000 450000 0  1000000 450000 0  0 500000 0  50000 500000 0  100000 500000 0  150000 500000 0  200000 500000 0  250000 500000 0  300000 500000 0  350000 500000 0  400000 500000 0  450000 500000 0  500000 500000 0  550000 500000 0  600000 500000 0  650000 500000 0  700000 500000 0  750000 500000 0  800000 500000 0  850000 500000 0  900000 500000 0  950000 500000 0  1000000 500000 0  0 550000 0  50000 550000 0  100000 550000 0  150000 550000 0  200000 550000 0  250000 550000 0  300000 550000 0  350000 550000 0  400000 550000 0  450000 550000 0  500000 550000 0  550000 550000 0  600000 550000 0  650000 550000 0  700000 550000 0  750000 550000 0  800000 550000 0  850000 550000 0  900000 550000 0  950000 550000 0  1000000 550000 0  0 600000 0  50000 600000 0  100000 600000 0  150000 600000 0  200000 600000 0  250000 600000 0  300000 600000 0  350000 600000 0  400000 600000 0  450000 600000 0  500000 600000 0  550000 600000 0  600000 600000 0  650000 600000 0  700000 600000 0  750000 600000 0  800000 600000 0  850000 600000 0  900000 600000 0  950000 600000 0  1000000 600000 0  0 650000 0  50000 650000 0  100000 650000 0  150000 650000 0  200000 650000 0  250000 650000 0  300000 650000 0  350000 650000 0  400000 650000 0  450000 650000 0  500000 650000 0  550000 650000 0  600000 650000 0  650000 650000 0  700000 650000 0  750000 650000 0  800000 650000 0  850000 650000 0  900000 650000 0  950000 650000 0  1000000 650000 0  0 700000 0  50000 700000 0  100000 700000 0  150000 700000 0  200000 700000 0  250000 700000 0  300000 700000 0  350000 700000 0  400000 700000 0  450000 700000 0  500000 700000 0  550000 700000 0  600000 700000 0  650000 700000 0  700000 700000 0  750000 700000 0  800000 700000 0  850000 700000 0  900000 700000 0  950000 700000 0  1000000 700000 0  0 750000 0  50000 750000 0  100000 750000 0  150000 750000 0  200000 750000 0  250000 750000 0  300000 750000 0  350000 750000 0  400000 750000 0  450000 750000 0  500000 750000 0  550000 750000 0  600000 750000 0  650000 750000 0  700000 750000 0  750000 750000 0  800000 750000 0  850000 750000 0  900000 750000 0  950000 750000 0  1000000 750000 0  0 800000 0  50000 800000 0  100000 800000 0  150000 800000 0  200000 800000 0  250000 800000 0  300000 800000 0  350000 800000 0  400000 800000 0  450000 800000 0  500000 800000 0  550000 800000 0  600000 800000 0  650000 800000 0  700000 800000 0  750000 800000 0  800000 800000 0  850000 800000 0  900000 800000 0  950000 800000 0  1000000 800000 0  0 850000 0  50000 850000 0  100000 850000 0  150000 850000 0  200000 850000 0  250000 850000 0  300000 850000 0  350000 850000 0  400000 850000 0  450000 850000 0  500000 850000 0  550000 850000 0  600000 850000 0  650000 850000 0  700000 850000 0  750000 850000 0  800000 850000 0  850000 850000 0  900000 850000 0  950000 850000 0  1000000 850000 0  0 900000 0  50000 900000 0  100000 900000 0  150000 900000 0  200000 900000 0  250000 900000 0  300000 900000 0  350000 900000 0  400000 900000 0  450000 900000 0  500000 900000 0  550000 900000 0  600000 900000 0  650000 900000 0  700000 900000 0  750000 900000 0  800000 900000 0  850000 900000 0  900000 900000 0  950000 900000 0  1000000 900000 0  0 950000 0  50000 950000 0  100000 950000 0  150000 950000 0  200000 950000 0  250000 950000 0  300000 950000 0  350000 950000 0  400000 950000 0  450000 950000 0  500000 950000 0  550000 950000 0  600000 950000 0  650000 950000 0  700000 950000 0  750000 950000 0  800000 950000 0  850000 950000 0  900000 950000 0  950000 950000 0  1000000 950000 0  0 1000000 0  50000 1000000 0  100000 1000000 0  150000 1000000 0  200000 1000000 0  250000 1000000 0  300000 1000000 0  350000 1000000 0  400000 1000000 0  450000 1000000 0  500000 1000000 0  550000 1000000 0  600000 1000000 0  650000 1000000 0  700000 1000000 0  750000 1000000 0  800000 1000000 0  850000 1000000 0  900000 1000000 0  950000 1000000 0  1000000 1000000 0  0 1050000 0  50000 1050000 0  100000 1050000 0  150000 1050000 0  200000 1050000 0  250000 1050000 0  300000 1050000 0  350000 1050000 0  400000 1050000 0  450000 1050000 0  500000 1050000 0  550000 1050000 0  600000 1050000 0  650000 1050000 0  700000 1050000 0  750000 1050000 0  800000 1050000 0  850000 1050000 0  900000 1050000 0  950000 1050000 0  1000000 1050000 0  0 1100000 0  50000 1100000 0  100000 1100000 0  150000 1100000 0  200000 1100000 0  250000 1100000 0  300000 1100000 0  350000 1100000 0  400000 1100000 0  450000 1100000 0  500000 1100000 0  550000 1100000 0  600000 1100000 0  650000 1100000 0  700000 1100000 0  750000 1100000 0  800000 1100000 0  850000 1100000 0  900000 1100000 0  950000 1100000 0  1000000 1100000 0  0 1150000 0  50000 1150000 0  100000 1150000 0  150000 1150000 0  200000 1150000 0  250000 1150000 0  300000 1150000 0  350000 1150000 0  400000 1150000 0  450000 1150000 0  500000 1150000 0  550000 1150000 0  600000 1150000 0  650000 1150000 0  700000 1150000 0  750000 1150000 0  800000 1150000 0  850000 1150000 0  900000 1150000 0  950000 1150000 0  1000000 1150000 0  0 1200000 0  50000 1200000 0  100000 1200000 0  150000 1200000 0  200000 1200000 0  250000 1200000 0  300000 1200000 0  350000 1200000 0  400000 1200000 0  450000 1200000 0  500000 1200000 0  550000 1200000 0  600000 1200000 0  650000 1200000 0  700000 1200000 0  750000 1200000 0  800000 1200000 0  850000 1200000 0  900000 1200000 0  950000 1200000 0  1000000 1200000 0  0 1250000 0  50000 1250000 0  100000 1250000 0  150000 1250000 0  200000 1250000 0  250000 1250000 0  300000 1250000 0  350000 1250000 0  400000 1250000 0  450000 1250000 0  500000 1250000 0  550000 1250000 0  600000 1250000 0  650000 1250000 0  700000 1250000 0  750000 1250000 0  800000 1250000 0  850000 1250000 0  900000 1250000 0  950000 1250000 0  1000000 1250000 0  0 1300000 0  50000 1300000 0  100000 1300000 0  150000 1300000 0  200000 1300000 0  250000 1300000 0  300000 1300000 0  350000 1300000 0  400000 1300000 0  450000 1300000 0  500000 1300000 0  550000 1300000 0  600000 1300000 0  650000 1300000 0  700000 1300000 0  750000 1300000 0  800000 1300000 0  850000 1300000 0  900000 1300000 0  950000 1300000 0  1000000 1300000 0  0 1350000 0  50000 1350000 0  100000 1350000 0  150000 1350000 0  200000 1350000 0  250000 1350000 0  300000 1350000 0  350000 1350000 0  400000 1350000 0  450000 1350000 0  500000 1350000 0  550000 1350000 0  600000 1350000 0  650000 1350000 0  700000 135
[...]
<PointData  Scalars="f_3013"> 
<DataArray  type="Float64"  Name="f_3013"  format="ascii">-4.8764093664056352e-01  -3.2775485911236080e-01  -2.1653949558810298e-01  -1.4000046854424322e-01  -8.7452459760531107e-02  -4.9648982532669944e-02  -2.0715708013317759e-02  2.8962475862569599e-03  2.3352861798513050e-02  4.2038674720067719e-02  5.9922647984955710e-02  7.7791836247647003e-02  9.6426424476295181e-02  1.1677258030817757e-01  1.4017002609026039e-01  1.6871191382066536e-01  2.0586104113823481e-01  2.5749456306445384e-01  3.3321897954152224e-01  4.4453712798249051e-01  5.5898875817947746e-01  -3.7160267156903476e-01  -3.0884209479372132e-01  -2.1107610933886597e-01  -1.3864081450639107e-01  -8.7527130718204518e-02  -5.0157427938178074e-02  -2.1261478116178296e-02  2.4601938883955505e-03  2.3072370332575993e-02  4.1925486831260801e-02  5.9984857359140970e-02  7.8048457588495726e-02  9.6915886270410700e-02  1.1755894914262073e-01  1.4134483982729895e-01  1.7037218842324006e-01  2.0796741419138573e-01  2.5918259272247829e-01  3.2995921843604797e-01  4.1855767636133839e-01  4.7852355155433179e-01  -2.5780934202255829e-01  -2.3468742615470167e-01  -1.7881704939969675e-01  -1.2537712978425442e-01  -8.2301358244571673e-02  -4.8311649507137656e-02  -2.0781887507064965e-02  2.4498751758499858e-03  2.2949200234324462e-02  4.1846431372974190e-02  6.0009250756151364e-02  7.8186000636272721e-02  9.7130606708786330e-02  1.1772924328825438e-01  1.4114660146313079e-01  1.6898896573536890e-01  2.0339123306075643e-01  2.4661037883258125e-01  2.9874903891336774e-01  3.5033411244500584e-01  3.6861629263562978e-01  -1.7484485843868794e-01  -1.6595434590252889e-01  -1.3704625457606293e-01  -1.0258389599661955e-01  -7.0192291567241993e-02  -4.1875601941909299e-02  -1.7338668404267930e-02  4.2930581900490960e-03  2.3904030072480938e-02  4.2262462041203125e-02  6.0031411715982363e-02  7.7819246783729534e-02  9.6240225206466912e-02  1.1597523310717367e-01  1.3781922239111485e-01  1.6267158442805185e-01  1.9134024295701282e-01  2.2384093355415230e-01  2.5760855867419807e-01  2.8434032832717898e-01  2.8928964616133479e-01  -1.1615799522746142e-01  -1.1282304513915517e-01  -9.8350312932687048e-02  -7.7277432997673715e-02  -5.4375203888048500e-02  -3.2123937429680269e-02  -1.1355300089619358e-02  7.9083418889628870e-03  2.5963565282899947e-02  4.3206611105798133e-02  6.0053143507793172e-02  7.6919268069435762e-02  9.4225105331712827e-02  1.1239718213234337e-01  1.3184327705810614e-01  1.5285314938004588e-01  1.7533884366908786e-01  1.9829037301089297e-01  2.1891569164602218e-01  2.3208743832248852e-01  2.3288943103827719e-01  -7.4433239960397857e-02  -7.3418992385589535e-02  -6.6381744727151512e-02  -5.3707232962569525e-02  -3.7901765894932056e-02  -2.0941550625419303e-02  -3.9269985538358887e-03  1.2684735713355978e-02  2.8806490739392576e-02  4.4538633094354199e-02  6.0067740860549355e-02  7.5613834265611343e-02  9.1398649013741284e-02  1.0761239904156300e-01  1.2435531250431063e-01  1.4152370791584551e-01  1.5860710665314703e-01  1.7439457459200472e-01  1.8674111769156301e-01  1.9298371849481608e-01  1.9248929407850032e-01  -4.4373126102885803e-02  -4.4344244848433030e-02  -4.1098260788487391e-02  -3.3464710832394245e-02  -2.2574849962626087e-02  -9.7810629422791853e-03  3.9261301109401875e-03  1.7962645861436036e-02  3.2045299010793289e-02  4.6078862703682187e-02  6.0071668650698684e-02  7.4077196459907999e-02  8.8148953101738037e-02  1.0229415851363516e-01  1.1641146396743156e-01  1.3019971568168753e-01  1.4303664045026823e-01  1.5386883622359424e-01  1.6126720393667010e-01  1.6404044308942234e-01  1.6318613463313231e-01  -2.2399941061388425e-02  -2.2768074142280343e-02  -2.1436480322338410e-02  -1.6780492884292612e-02  -9.1839399521340542e-03  4.9615501083406820e-04  1.1482920897682292e-02  2.3217898323860973e-02  3.5347545029888731e-02  4.7667550878041198e-02  6.0065529745256391e-02  7.2471806498441108e-02  8.4815861486955885e-02  9.6982058391157117e-02  1.0875837427593638e-01  1.1977626284486062e-01  1.2945314501532768e-01  1.3698146361952271e-01  1.4147720648278114e-01  1.4253400765636412e-01  1.4164617038946517e-01  -6.1330067075922520e-03  -6.6338783919910604e-03  -6.2511091720057902e-03  -3.3483099369870746e-03  2.0679616171604843e-03  9.4805007799185388e-03  1.8316713834615535e-02  2.8099308994212042e-02  3.8473053454724113e-02  4.9185188922455138e-02  6.0051993822237623e-02  7.0923402993671544e-02  8.1648257789468506e-02  9.2039237798897652e-02  1.0183671910706939e-01  1.1067482462416117e-01  1.1806293110207970e-01  1.2341666863565767e-01  1.2621412022742839e-01  1.2643889608070072e-01  1.2562804991256490e-01  6.0109602699460977e-03  5.4924322170339570e-03  5.4203559417092097e-03  7.2866035610124882e-03  1.1260491945066420e-02  1.7041811346790638e-02  2.4219274504962838e-02  3.2404317126192676e-02  4.1270525328547393e-02  5.0553414571957681e-02  6.0034035364276851e-02  6.9516616452864124e-02  7.8804392766863129e-02  8.7675366570865415e-02  9.5859922739387760e-02  1.0302498100351146e-01  1.0877570399534350e-01  1.1269852875212756e-01  1.1449669779417661e-01  1.1433378740125200e-01  1.1362735196556407e-01  1.5088799622347363e-02  1.4597404252127171e-02  1.4319259713209583e-02  1.5567416113449658e-02  1.8583307134031130e-02  2.3199555110057658e-02  2.9121360774556564e-02  3.6037130580559122e-02  4.3658173925419985e-02  5.1727460429255800e-02  6.0014056648266909e-02  6.8300975469872627e-02  7.6370469130843527e-02  8.3989378250330718e-02  9.0897267378993549e-02  9.6801713330573053e-02  1.0138887057519656e-01  1.0436563494635108e-01  1.0557002636306148e-01  1.0523928399344791e-01  1.0463223140734895e-01  2.1808384020112651e-02  2.1355999705948904e-02  2.0993218952108247e-02  2.1869378446086617e-02  2.4247802888791321e-02  2.8040051280561282e-02  3.3031087557812665e-02  3.8969186471425839e-02  4.5601520670708558e-02  5.2686317057636364e-02  5.9993646819746047e-02  6.7300462826869190e-02  7.4383198748820462e-02  8.1010462534964023e-02  8.6938426125166918e-02  9.1912407900946055e-02  9.5680408656991747e-02  9.8030215712674243e-02  9.8878345076515162e-02  9.8484858950314128e-02  9.7960683713439606e-02  2.6643220981244546e-02  2.6226806493920132e-02  2.5835270330365583e-02  2.6487040074932022e-02  2.8445583305042366e-02  3.1668109144922178e-02  3.5991901248012860e-02  4.1208427286076862e-02  4.7094192506227386e-02  5.3423685286382264e-02  5.9973658726316263e-02  6.6522847970249432e-02  7.2849665758583801e-02  7.8729986042514008e-02  8.3937161685316189e-02  8.8246906973148298e-02  9.1451177907381512e-02  9.3389896766372951e-02  9.4024045845987975e-02  9.3614656807016208e-02  9.3154154422172675e-02  2.9905599783729558e-02  2.9515711228999715e-02  2.9118140800852479e-02  2.9637670700648201e-02  3.1330923070190031e-02  3.4180493823681761e-02  3.8056081122790318e-02  4.2777847005190876e-02  4.8143462441842103e-02  5.3940875140224075e-02  5.9954392815343496e-02  6.5967218385112353e-02  7.1762375249674631e-02  7.7123695491232477e-02  8.1838560828152981e-02  8.5704372712613178e-02  8.8541882112283823e-02  9.0222696710737765e-02  9.0731875536050860e-02  9.0324421578321212e-02  8.9909066738693394e-02  3.1792383546325811e-02  3.1416966220170608e-02  3.1019817094163904e-02  3.1468991303893461e-02  3.3014644376403626e-02  3.5652189731873174e-02  3.9269014058068936e-02  4.3701624229267641e-02  4.8760348056480995e-02  5.4241793308145804e-02  5.9935783379700729e-02  6.5629380972485066e-02  7.1109570101142355e-02  7.6165970067713237e-02  8.0594961556299763e-02  8.4206808792928647e-02  8.6838379523170653e-02  8.8378043788025190e-02  8.8822419212248205e-02  8.8420854392738793e-02  8.8033752427047626e-02  3.2412457103860690e-02  3.2038274302432605e-02  3.1640594917444483e-02  3.2066293817610239e-02  3.3562784731738675e-02  3.6129735794809152e-02  3.9660444367087058e-02  4.3996834616259750e-02  4.8953428225005424e-02  5.4329746858755058e-02  5.9917550653080069e-02  6.5505354447404740e-02  7.0881673081154520e-02  7.5838266689900416e-02  8.0174656939073122e-02  8.3705365511351520e-02  8.6272316574422206e-02  8.7768807488550760e-02  8.8194506388716551e-02  8.7796827003728234e-02  8.7422644202300240e-02  3.1801348879113678e-02  3.1414246913422525e-02  3.1012682093913189e-02  3.1457057518135975e-02  3.2996721782990561e-02  3.5628292513232136e-02  3.9240139749860944e-02  4.3669131238447310e-02  4.8725531205017589e-02  5.4205720333674746e-02  5.9899317926459250e-02  6.5593307998014078e-02  7.1074753249678796e-02  7.6133477076891998e-02  8.0566087248090820e-02  8.4182911574286742e-02  8.6820456929756928e-02  8.8366110002267115e-02  8.8815284211996873e-02  8.8418135085990057e-02  8.8042717759834951e-02  2.9926034567468032e-02  2.9510679727840196e-02  2.9103225770110704e-02  2.9612404595423924e-02  3.1293219193877619e-02  3.4130728593547856e-02  3.7996540478007955e-02  4.2711405814928036e-02  4.8072726056485479e-02  5.3867882921047709e-02  5.9880708490816351e-02  6.5894226165935585e-02  7.1691638864317356e-02  7.7057254300968603e-02  8.1779020183369522e-02  8.5654607482478246e-02  8.8504178235970357e-02  9.0197430605512038e-02  9.0716960505308211e-02  9.0319390077161221e-02  8.9929501522431274e-02  2.6680946883989476e-02  2.6220444499145932e-02  2.5811055460174297e-02  2.6445204539789269e-02  2.8383923398780445e-02  3.1588194333013075e-02  3.5897939620845011e-02  4.1105115263646692e-02  4.6985435547576469e-02  5.3312253335910685e-02  5.9861442579843653e-02  6.6411416019777597e-02  7.2740908799932141e-02  7.8626674020082207e-02  8.3843200058146661e-02  8.8166992161237426e-02  9.1389518001117678e-02  9.3348061231228283e-02  9.3999830975794701e-02  9.3608294812240270e-02  9.3191880324915974e-02  2.1874417592723020e-02  2.1350242355848439e-02  2.0956756229647530e-02  2.1804885593488376e-02  2.4154692649170570e-02  2.7922693405215727e-02  3.2896675180994650e-02  3.8824638771196830e-02  4.5451902557339829e-02  5.2534638479290678e-02  5.9841454486413488e-02  6.7148784248523108e-02  7.4233580635450699e-02  8.0865914834733071e-02  8.6804013748346259e-02  9.1795050025597763e-02  9.5587298417368502e-02  9.7965722860073323e-02  9.8841882354051669e-02  9.8479101600211005e-02  9.8026717286047393e-02  1.5202869898814432e-02  1.4595817312715397e-02  1.4265074943101972e-02  1.5469466359811980e-02  1.8446230730966354e-02  2.3033387975589289e-02  2.8937833927168262e-02  3.5845723055830211e-02  4.3464632175316945e-02  5.1534125836287144e-02  5.9821044657892494e-02  6.8107640876903255e-02  7.6176927380738849e-02  8.3797970725599760e-02  9.0713740531602458e-02  9.6635546196101541e-02  1.0125179417212840e-01  1.0426768519270982e-01  1.0551584159295005e-01  1.0523769705403266e-01  1.0474630168381260e-01  6.2077493406002878e-03  5.5013139049121841e-03  5.3384035119877372e-03  7.1365725540365674e-03  1.1059397310820019e-02  1.6810120302651360e-02  2.3975178566774110e-02  3.2159734735295639e-02  4.1030708539297314e-02  5.0318484853295695e-02  5.9801065941882399e-02  6.9281686734201278e-02  7.8564575977611295e-02  8.7430784179966081e-02  9.5615826801196083e-02  1.0279328995936823e-01  1.0857460936109266e-01  1.1254849774514677e-01  1.1441474536445037e-01  1.1434266908912577e-01  1.1382414103621373e-01  -5.7929486063997768e-03  -6.6037947745356618e-03  -6.3790189212632941e-03  -3.5815673294929979e-03  1.7721702040843382e-03  9.1602766820019811e-03  1.7998382199092604e-02  2.7795863507263575e-02  3.8186843516692014e-02  4.8911698312488129e-02  5.9783107483921440e-02  7.0649912383703786e-02  8.1362047851434804e-02  9.1735792311946521e-02  1.0151838747154286e-01  1.1035460052623992e-01  1.1776713968899832e-01  1.2318341124314627e-01  1.2608621047816518e-01  1.2646897969815063e-01  1.2596810801375211e-01  -2.1811069083299064e-02  -2.2698906350197830e-02  -2.1642105176615210e-02  -1.7146362313357658e-02  -9.6180437091632418e-03  5.8838461302809165e-05  1.1076727030225771e-02  2.2853042915004108e-02  3.5019239819204385e-02  4.7363294807718295e-02  5.9769571560902415e-02  7.2167550428117316e-02  8.4487556276269804e-02  9.6617202982297271e-02  1.0835218040847577e-01  1.1933894629532395e-01  1.2901904125829258e-01  1.3661559419045166e-01  1.4127158162849796e-01  1.4260317544844028e-01  1.4223504236754850e-01  -4.3351033326964931e-02  -4.4205341783255060e-02  -4.1432102630503204e-02  -3.4033734917428247e-02  -2.3201539144103205e-02  -1.0364614375523776e-02  3.4236373387309012e-03  1.7540942792526312e-02  3.1686148204422428e-02  4.5757904846251550e-02  5.9763432655460136e-02  7.3756238602476251e-02  8.7789802295364899e-02  1.0187245544472169e-01  1.1590897119521758e-01  1.2961616424843711e-01  1.4240995126878461e-01  1.5329981213855334e-01  1.6093336209464731e-01  1.6417934615459356e-01  1.6420822740904661e-01  -7.2654192772331011e-02  -7.3148617188646917e-02  -6.6906016385394215e-02  -5.4559473285837157e-02  -3.8772005346981130e-02  -2.1688606609681558e-02  -4.5202111981478667e-03  1.2222702264598973e-02  2.8436452292419652e-02  4.4221267040548483e-02  5.9767360445609805e-02  7.5296468211804538e-02  9.1028610566766199e-02  1.0715036559280201e-01  1.2376209985999373e-01  1.4077665193157757e-01  1.5773686720109087e-01  1.7354233426872928e-01  1.8621684603331212e-01  1.9325409369175098e-01  1.9426834126655962e-01  -1.1305432973210530e-01  -1.1225233701631680e-01  -9.9080590339851449e-02  -7.8455271704724119e-02  -5.5503742362920654e-02  -3.3018048073881034e-02  -1.2008175751942490e-02  7.4379191738193568e-03  2.5609995974448935e-02  4.2915833236724876e-02  5.9781957798366848e-02  7.6628490200361443e-02  9.3871536023259289e-02  1.1192675941719582e-01  1.3119040139577803e-01  1.5195903873583949e-01  1.7421030519420821e-01  1.9711253430383432e-01  2.1818541423884882e-01  2.3265814644531813e-01  2.3599309653362494e-01  -1.6945454485515940e-01  -1.6450522702100390e-01  -1.3777345736802452e-01  -1.0400583224798123e-01  -7.1505141650844053e-02  -4.2836483121885122e-02  -1.7984121084949744e-02  3.8598681989904628e-03  2.3594876099696280e-02  4.2015854522432720e-02  5.9803689590179156e-02  7.7572639264958138e-02  9.5931071233679777e-02  1.1554204311611124e-01  1.3717376971042855e-01  1.6171070324807019e-01  1.9002739287340364e-01  2.2241899730278197e-01  2.5688135588222671e-01  2.8578944720869437e-01  2.9467995974485411e-01  -2.4878119132945009e-01  -2.3049901113882632e-01  -1.7891393760719085e-01  -1.2677527752640708e-01  -8.3556131754585233e-02  -4.9153864429199792e-02  -2.1311500156963259e-02  2.1058580179122372e-03  2.2704494597379041e-02  4.1649100669891997e-02  5.9825850550012695e-02  7.7988669933189550e-02  9.6885901071838892e-02  1.1738522613031292e-01  1.4061698881322829e-01  1.6814675081330152e-01  2.0213645955073614e-01  2.4521223109041995e-01  2.9865215070586409e-01  3.5452252746087093e-01  3.7764444332872893e-01  -3.5868845024814833e-01  -2.9872257505515548e-01  -2.1012411712986828e-01  -1.3934749141630159e-01  -8.8132312885211561e-02  -5.0537087117068009e-02  -2.1509738521128571e-02  2.2761521635484088e-03  2.2919215035757480e-02  4.1786643717671615e-02  5.9850243947025643e-02  7.7909614474905534e-02  9.6762730973590061e-02  1.1737490741777040e-01  1.4109657942234471e-01  1.6999252924434510e-01  2.0736223202437265e-01  2.5847591581256074e-01  3.3091121064503826e-01  4.2867719609989530e-01  4.9143777287520973e-01  -4.3915365687329244e-01  -3.2470202667630604e-01  -2.1338387823534077e-01  -1.3765946175827559e-01  -8.6025939832059181e-02  -4.8876812514492142e-02  -2.0334924784088867e-02  3.0625209979924487e-03  2.3408676829874065e-02  4.2043265058521379e-02  5.9912453321212013e-02  7.7796426586099476e-02  9.6482239507654166e-02  1.1693885371991021e-01  1.4055080931948546e-01  1.6948408383883831e-01  2.0728756106670082e-01  2.5983556985041478e-01  3.3637459689427668e-01  4.4758996041853716e-01  6.0747603794674154e-01  </DataArray> 
</PointData> 
</Piece>
</UnstructuredGrid>
</VTKFile>