<?xml version="1.0"?>
<VTKFile type="UnstructuredGrid"  version="0.1"  >
<UnstructuredGrid>
<Piece  NumberOfPoints="651" NumberOfCells="1200">
<Points>
<DataArray  type="Float64"  NumberOfComponents="3"  format="ascii">0 0 0  50000 0 0  100000 0 0  150000 0 0  200000 0 0  250000 0 0  300000 0 0  350000 0 0  400000 0 0  450000 0 0  500000 0 0  550000 0 0  600000 0 0  650000 0 0  700000 0 0  750000 0 0  800000 0 0  850000 0 0  900000 0 0  950000 0 0  1000000 0 0  0 50000 0  50000 50000 0  100000 50000 0  150000 50000 0  200000 50000 0  250000 50000 0  300000 50000 0  350000 50000 0  400000 50000 0  450000 50000 0  500000 50000 0  550000 50000 0  600000 50000 0  650000 50000 0  700000 50000 0  750000 50000 0  800000 50000 0  850000 50000 0  900000 50000 0  950000 50000 0  1000000 50000 0  0 100000 0  50000 100000 0  100000 100000 0  150000 100000 0  200000 100000 0  250000 100000 0  300000 100000 0  350000 100000 0  400000 100000 0  450000 100000 0  500000 100000 0  550000 100000 0  600000 100000 0  650000 100000 0  700000 100000 0  750000 100000 0  800000 100000 0  850000 100000 0  900000 100000 0  950000 100000 0  1000000 100000 0  0 150000 0  50000 150000 0  100000 150000 0  150000 150000 0  200000 150000 0  250000 150000 0  300000 150000 0  350000 150000 0  400000 150000 0  450000 150000 0  500000 150000 0  550000 150000 0  600000 150000 0  650000 150000 0  700000 150000 0  750000 150000 0  800000 150000 0  850000 150000 0  900000 150000 0  950000 150000 0  1000000 150000 0  0 200000 0  50000 200000 0  100000 200000 0  150000 200000 0  200000 200000 0  250000 200000 0  300000 200000 0  350000 200000 0  400000 200000 0  450000 200000 0  500000 200000 0  550000 200000 0  600000 200000 0  650000 200000 0  700000 200000 0  750000 200000 0  800000 200000 0  850000 200000 0  900000 200000 0  950000 200000 0  1000000 200000 0  0 250000 0  50000 250000 0  100000 250000 0  150000 250000 0  200000 250000 0  250000 250000 0  300000 250000 0  350000 250000 0  400000 250000 0  450000 250000 0  500000 250000 0  550000 250000 0  600000 250000 0  650000 250000 0  700000 250000 0  750000 250000 0  800000 250000 0  850000 250000 0  900000 250000 0  950000 250000 0  1000000 250000 0  0 300000 0  50000 300000 0  100000 300000 0  150000 300000 0  200000 300000 0  250000 300000 0  300000 300000 0  350000 300000 0  400000 300000 0  450000 300000 0  500000 300000 0  550000 300000 0  600000 300000 0  650000 300000 0  700000 300000 0  750000 300000 0  800000 300000 0  850000 300000 0  900000 300000 0  950000 300000 0  1000000 300000 0  0 350000 0  50000 350000 0  100000 350000 0  150000 350000 0  200000 350000 0  250000 350000 0  300000 350000 0  350000 350000 0  400000 350000 0  450000 350000 0  500000 350000 0  550000 350000 0  600000 350000 0  650000 350000 0  700000 350000 0  750000 350000 0  800000 350000 0  850000 350000 0  900000 350000 0  950000 350000 0  1000000 350000 0  0 400000 0  50000 400000 0  100000 400000 0  150000 400000 0  200000 400000 0  250000 400000 0  300000 400000 0  350000 400000 0  400000 400000 0  450000 400000 0  500000 400000 0  550000 400000 0  600000 400000 0  650000 400000 0  700000 400000 0  750000 400000 0  800000 400000 0  850000 400000 0  900000 400000 0  950000 400000 0  1000000 400000 0  0 450000 0  50000 450000 0  100000 450000 0  150000 450000 0  200000 450000 0  250000 450000 0  300000 450000 0  350000 450000 0  400000 450000 0  450000 450000 0  500000 450000 0  550000 450000 0  600000 450000 0  650000 450000 0  700000 450000 0  750000 450000 0  800000 450000 0  850000 450000 0  900000 450000 0  950000 450000 0  1000000 450000 0  0 500000 0  50000 500000 0  100000 500000 0  150000 500000 0  200000 500000 0  250000 500000 0  300000 500000 0  350000 500000 0  400000 500000 0  450000 500000 0  500000 500000 0  550000 500000 0  600000 500000 0  650000 500000 0  700000 500000 0  750000 500000 0  800000 500000 0  850000 500000 0  900000 500000 0  950000 500000 0  1000000 500000 0  0 550000 0  50000 550000 0  100000 550000 0  150000 550000 0  200000 550000 0  250000 550000 0  300000 550000 0  350000 550000 0  400000 550000 0  450000 550000 0  500000 550000 0  550000 550000 0  600000 550000 0  650000 550000 0  700000 550000 0  750000 550000 0  800000 550000 0  850000 550000 0  900000 550000 0  950000 550000 0  1000000 550000 0  0 600000 0  50000 600000 0  100000 600000 0  150000 600000 0  200000 600000 0  250000 600000 0  300000 600000 0  350000 600000 0  400000 600000 0  450000 600000 0  500000 600000 0  550000 600000 0  600000 600000 0  650000 600000 0  700000 600000 0  750000 600000 0  800000 600000 0  850000 600000 0  900000 600000 0  950000 600000 0  1000000 600000 0  0 650000 0  50000 650000 0  100000 650000 0  150000 650000 0  200000 650000 0  250000 650000 0  300000 650000 0  350000 650000 0  400000 650000 0  450000 650000 0  500000 650000 0  550000 650000 0  600000 650000 0  650000 650000 0  700000 650000 0  750000 650000 0  800000 650000 0  850000 650000 0  900000 650000 0  950000 650000 0  1000000 650000 0  0 700000 0  50000 700000 0  100000 700000 0  150000 700000 0  200000 700000 0  250000 700000 0  300000 700000 0  350000 700000 0  400000 700000 0  450000 700000 0  500000 700000 0  550000 700000 0  600000 700000 0  650000 700000 0  700000 700000 0  750000 700000 0  800000 700000 0  850000 700000 0  900000 700000 0  950000 700000 0  1000000 700000 0  0 750000 0  50000 750000 0  100000 750000 0  150000 750000 0  200000 750000 0  250000 750000 0  300000 750000 0  350000 750000 0  400000 750000 0  450000 750000 0  500000 750000 0  550000 750000 0  600000 750000 0  650000 750000 0  700000 750000 0  750000 750000 0  800000 750000 0  850000 750000 0  900000 750000 0  950000 750000 0  1000000 750000 0  0 800000 0  50000 800000 0  100000 800000 0  150000 800000 0  200000 800000 0  250000 800000 0  300000 800000 0  350000 800000 0  400000 800000 0  450000 800000 0  500000 800000 0  550000 800000 0  600000 800000 0  650000 800000 0  700000 800000 0  750000 800000 0  800000 800000 0  850000 800000 0  900000 800000 0  950000 800000 0  1000000 800000 0  0 850000 0  50000 850000 0  100000 850000 0  150000 850000 0  200000 850000 0  250000 850000 0  300000 850000 0  350000 850000 0  400000 850000 0  450000 850000 0  500000 850000 0  550000 850000 0  600000 850000 0  650000 850000 0  700000 850000 0  750000 850000 0  800000 850000 0  850000 850000 0  900000 850000 0  950000 850000 0  1000000 850000 0  0 900000 0  50000 900000 0  100000 900000 0  150000 900000 0  200000 900000 0  250000 900000 0  300000 900000 0  350000 900000 0  400000 900000 0  450000 900000 0  500000 900000 0  550000 900000 0  600000 900000 0  650000 900000 0  700000 900000 0  750000 900000 0  800000 900000 0  850000 900000 0  900000 900000 0  950000 900000 0  1000000 900000 0  0 950000 0  50000 950000 0  100000 950000 0  150000 950000 0  200000 950000 0  250000 950000 0  300000 950000 0  350000 950000 0  400000 950000 0  450000 950000 0  500000 950000 0  550000 950000 0  600000 950000 0  650000 950000 0  700000 950000 0  750000 950000 0  800000 950000 0  850000 950000 0  900000 950000 0  950000 950000 0  1000000 950000 0  0 1000000 0  50000 1000000 0  100000 1000000 0  150000 1000000 0  200000 1000000 0  250000 1000000 0  300000 1000000 0  350000 1000000 0  400000 1000000 0  450000 1000000 0  500000 1000000 0  550000 1000000 0  600000 1000000 0  650000 1000000 0  700000 1000000 0  750000 1000000 0  800000 1000000 0  850000 1000000 0  900000 1000000 0  950000 1000000 0  1000000 1000000 0  0 1050000 0  50000 1050000 0  100000 1050000 0  150000 1050000 0  200000 1050000 0  250000 1050000 0  300000 1050000 0  350000 1050000 0  400000 1050000 0  450000 1050000 0  500000 1050000 0  550000 1050000 0  600000 1050000 0  650000 1050000 0  700000 1050000 0  750000 1050000 0  800000 1050000 0  850000 1050000 0  900000 1050000 0  950000 1050000 0  1000000 1050000 0  0 1100000 0  50000 1100000 0  100000 1100000 0  150000 1100000 0  200000 1100000 0  250000 1100000 0  300000 1100000 0  350000 1100000 0  400000 1100000 0  450000 1100000 0  500000 1100000 0  550000 1100000 0  600000 1100000 0  650000 1100000 0  700000 1100000 0  750000 1100000 0  800000 1100000 0  850000 1100000 0  900000 1100000 0  950000 1100000 0  1000000 1100000 0  0 1150000 0  50000 1150000 0  100000 1150000 0  150000 1150000 0  200000 1150000 0  250000 1150000 0  300000 1150000 0  350000 1150000 0  400000 1150000 0  450000 1150000 0  500000 1150000 0  550000 1150000 0  600000 1150000 0  650000 1150000 0  700000 1150000 0  750000 1150000 0  800000 1150000 0  850000 1150000 0  900000 1150000 0  950000 1150000 0  1000000 1150000 0  0 1200000 0  50000 1200000 0  100000 1200000 0  150000 1200000 0  200000 1200000 0  250000 1200000 0  300000 1200000 0  350000 1200000 0  400000 1200000 0  450000 1200000 0  500000 1200000 0  550000 1200000 0  600000 1200000 0  650000 1200000 0  700000 1200000 0  750000 1200000 0  800000 1200000 0  850000 1200000 0  900000 1200000 0  950000 1200000 0  1000000 1200000 0  0 1250000 0  50000 1250000 0  100000 1250000 0  150000 1250000 0  200000 1250000 0  250000 1250000 0  300000 1250000 0  350000 1250000 0  400000 1250000 0  450000 1250000 0  500000 1250000 0  550000 1250000 0  600000 1250000 0  650000 1250000 0  700000 1250000 0  750000 1250000 0  800000 1250000 0  850000 1250000 0  900000 1250000 0  950000 1250000 0  1000000 1250000 0  0 1300000 0  50000 1300000 0  100000 1300000 0  150000 1300000 0  200000 1300000 0  250000 1300000 0  300000 1300000 0  350000 1300000 0  400000 1300000 0  450000 1300000 0  500000 1300000 0  550000 1300000 0  600000 1300000 0  650000 1300000 0  700000 1300000 0  750000 1300000 0  800000 1300000 0  850000 1300000 0  900000 1300000 0  950000 1300000 0  1000000 1300000 0  0 1350000 0  50000 1350000 0  100000 1350000 0  150000 1350000 0  200000 1350000 0  250000 1350000 0  300000 1350000 0  350000 1350000 0  400000 1350000 0  450000 1350000 0  500000 1350000 0  550000 1350000 0  600000 1350000 0  650000 1350000 0  700000 135
[...]
<PointData  Scalars="f_3013"> 
<DataArray  type="Float64"  Name="f_3013"  format="ascii">-1.7823786534399311e+00  -1.2164844750032400e+00  -8.2052402405035973e-01  -5.5112660466919172e-01  -3.7157659115353148e-01  -2.4859247261625736e-01  -1.6040736702255870e-01  -9.3498267587461312e-02  -3.9387096209711890e-02  7.4746390509605768e-03  5.1038641271128560e-02  9.4545281958873698e-02  1.4120866369139892e-01  1.9489442940049004e-01  2.6098564259258172e-01  3.4769952852410979e-01  4.6826355036358663e-01  6.4447117615410399e-01  9.1077324941450688e-01  1.3061058430861714e+00  1.7094057429507663e+00  -1.3792677527021315e+00  -1.1558033745442089e+00  -8.0633418709639215e-01  -5.5093958339548066e-01  -3.7596141128857097e-01  -2.5392008607973326e-01  -1.6520566467621026e-01  -9.7217194713188959e-02  -4.1861877661734985e-02  6.2779119505151377e-03  5.1143875393241861e-02  9.6025366584996732e-02  1.4421728580544299e-01  1.9968432517529366e-01  2.6790588302399027e-01  3.5710395600422562e-01  4.7999437021126745e-01  6.5541936544863066e-01  9.0489464193639302e-01  1.2208255273014768e+00  1.4320830872989021e+00  -9.8616026240375776e-01  -9.0312618637729791e-01  -7.0311045231282010e-01  -5.1506705608150838e-01  -3.6790101702504707e-01  -2.5660355943897595e-01  -1.7112788243665897e-01  -1.0307371318403692e-01  -4.6230817968447462e-02  3.9786602965043967e-03  5.1128874142052846e-02  9.8331734339030266e-02  1.4872057673307659e-01  2.0594060823401400e-01  2.7470229398399898e-01  3.6137636899612152e-01  4.7427682267047178e-01  6.2209131183798094e-01  8.0542862697655615e-01  9.8953517031645921e-01  1.0536674270760289e+00  -6.9982716716052196e-01  -6.6773807196842172e-01  -5.6474122232926816e-01  -4.4466642839642062e-01  -3.3513136225915541e-01  -2.4298520405039686e-01  -1.6667180131974996e-01  -1.0254083466198451e-01  -4.6930808513912653e-02  3.3671563636172228e-03  5.1152612567197504e-02  9.9011088850955872e-02  1.4955148434872015e-01  2.0564413852836039e-01  2.7060475712014459e-01  3.4815873202242864e-01  4.4170971083434235e-01  5.5174845051348331e-01  6.6926693659531777e-01  7.6405364280425236e-01  7.8127062463867714e-01  -4.9684490327758468e-01  -4.8500707186213809e-01  -4.3464366056377174e-01  -3.6296449983553136e-01  -2.8719429311335060e-01  -2.1598698084896986e-01  -1.5196969911182159e-01  -9.4836575804371270e-02  -4.3136379230209014e-02  4.9302612094710681e-03  5.1221314668463844e-02  9.7589995303806978e-02  1.4590596193352806e-01  1.9807189056753699e-01  2.5593590449900910e-01  3.2092704949728418e-01  3.9309781387349196e-01  4.6912173584184719e-01  5.3912602192359915e-01  5.8455848406745059e-01  5.8699165166949252e-01  -3.5197029013175296e-01  -3.4886508678029493e-01  -3.2615716011543688e-01  -2.8519079345147313e-01  -2.3489004836822380e-01  -1.8217115507918138e-01  -1.3074336087837429e-01  -8.1970657095671390e-02  -3.5869610733750695e-02  8.2249261263069307e-03  5.1290276495113106e-02  9.4424708482334016e-02  1.3873396620855577e-01  1.8521176235655221e-01  2.3452567606145722e-01  2.8659658725481568e-01  3.3984962711063699e-01  3.9013379086945904e-01  4.2986817979750774e-01  4.4956872439453804e-01  4.4711854347494223e-01  -2.4722521462274527e-01  -2.4802713448461691e-01  -2.3981103854909852e-01  -2.1754044859917243e-01  -1.8502462117615090e-01  -1.4697802569334692e-01  -1.0680179767095532e-01  -6.6402481538111832e-02  -2.6576590130320630e-02  1.2573786673551118e-02  5.1329479617316633e-02  9.0138558931063706e-02  1.2944978638165661e-01  1.6954120805300402e-01  2.1028860125245238e-01  2.5082554410916275e-01  2.8909231417334574e-01  3.2143239703375892e-01  3.4282526679016273e-01  3.4925942185316494e-01  3.4521600396562840e-01  -1.7056867811762755e-01  -1.7308274292255127e-01  -1.7243049901924370e-01  -1.6135930179830216e-01  -1.4083617032950235e-01  -1.1380549331298745e-01  -8.2956994731390440e-02  -5.0168551823668153e-02  -1.6549403473507873e-02  1.7351813591815864e-02  5.1331924424159701e-02  8.5348413156736594e-02  1.1935582217882652e-01  1.5313917322025841e-01  1.8612050698477225e-01  2.1713143701987261e-01  2.4419617527734078e-01  2.6449745646234701e-01  2.7497936086725350e-01  2.7460430243452327e-01  2.7018330637110843e-01  -1.1397431676683996e-01  -1.1715522879886259e-01  -1.2037727307185896e-01  -1.1596301397186511e-01  -1.0339949676807549e-01  -8.4400260847814254e-02  -6.0951286392569318e-02  -3.4680752661691336e-02  -6.7480899100312783e-03  2.2080632849189277e-02  5.1303833469839105e-02  8.0548755827961421e-02  1.0943854341428212e-01  1.3745793943075993e-01  1.6381422853821281e-01  1.8730558632411787e-01  2.0624892906734493e-01  2.1860702704941076e-01  2.2264345934234686e-01  2.1884117502537170e-01  2.1452256319045351e-01  -7.2031890775627216e-02  -7.5377860455515824e-02  -8.0492333658451695e-02  -8.0006369170732700e-02  -7.2686699591710716e-02  -5.9447170295414818e-02  -4.1705073871290237e-02  -2.0793995968890415e-02  2.2002524600185686e-03  2.6437178019777869e-02  5.1255448787882386e-02  7.6084598536203918e-02  1.0035032343365360e-01  1.2337943785808665e-01  1.4431122680074673e-01  1.6203303099299324e-01  1.7518489489430414e-01  1.8233770948073205e-01  1.8258884317731763e-01  1.7715249139214514e-01  1.7311841842069384e-01  -4.1038022247205160e-02  -4.4318876520778649e-02  -5.0266166900538645e-02  -5.2072750636478315e-02  -4.8190723749977016e-02  -3.9033410479774849e-02  -2.5597849729663280e-02  -8.9521300484979461e-03  9.9350652916065773e-03  3.0227497474947792e-02  5.1196088900240251e-02  7.2168530961466373e-02  9.2469514558004770e-02  1.1136113836775557e-01  1.2799352561568861e-01  1.4138274554063654e-01  1.5045090661428828e-01  1.5420656447097572e-01  1.5225719894260439e-01  1.4613507965488493e-01  1.4243402126920510e-01  -1.8424499373656877e-02  -2.1551559525308260e-02  -2.7782598604551151e-02  -3.0903462984524017e-02  -2.9258053031200461e-02  -2.2954029567500377e-02  -1.2693318377636065e-02  6.6865274439763841e-04  1.6282109760146418e-02  3.3350970817338156e-02  5.1132414499657192e-02  6.8913805688275598e-02  8.5980418465274905e-02  1.0158351261239131e-01  1.1491861331537764e-01  1.2512822051221772e-01  1.3135547767311737e-01  1.3290974541030659e-01  1.2970378458157222e-01  1.2338052041249284e-01  1.1999654381174754e-01  -2.4030459329315071e-03  -5.3638333349138988e-03  -1.1618300701665911e-02  -1.5472027031416313e-02  -1.5256603062313773e-02  -1.0897302258027481e-02  -2.8972245111343986e-03  8.0456255970821396e-03  2.1182467396025816e-02  3.5766807669376566e-02  5.1068358075826589e-02  6.6368217144173319e-02  8.0946156204076525e-02  9.4068248866244264e-02  1.0498324891102645e-01  1.1293897695181830e-01  1.1723936811884147e-01  1.1739251483212211e-01  1.1348950480889455e-01  1.0718842972849815e-01  1.0407317881582438e-01  8.2541835216091933e-03  5.4300167479267875e-03  -7.5278781815511623e-04  -4.9968234279127279e-03  -5.6563761068145549e-03  -2.5519289409485454e-03  3.9398305568474415e-03  1.3227813788919913e-02  2.4637979956799647e-02  3.7467326709733871e-02  5.1005685676122819e-02  6.4542202543864391e-02  7.7365267462336809e-02  8.8762696239522390e-02  9.8029048554047371e-02  1.0448905887313852e-01  1.0755411803597123e-01  1.0685593584440375e-01  1.0258514753868625e-01  9.6380417327494805e-02  9.3469045545601634e-02  1.4348892212179380e-02  1.1608041187206498e-02  5.4987217776164962e-03  1.0670964350661522e-03  -6.6052774408928609e-05  2.3332832209625987e-03  7.9589256853247105e-03  1.6281732089343505e-02  2.6673089534087202e-02  3.8458765846884201e-02  5.0944672324163040e-02  6.3429458816693041e-02  7.5211438101302555e-02  8.5595639258870912e-02  9.3906825957972964e-02  9.9516063008730921e-02  1.0189575693726713e-01  1.0074414688056028e-01  9.6300821809852249e-02  9.0182999233172093e-02  8.7402844441352504e-02  1.6336136755412914e-02  1.3612167461771824e-02  7.5299343683666803e-03  3.0398448836318290e-03  1.7515717131538150e-03  3.9176621300905040e-03  9.2559390847239201e-03  1.7258039804080211e-02  2.7310505880147756e-02  3.8748837149169754e-02  5.0884695784701901e-02  6.3020554420233674e-02  7.4458885689256862e-02  8.4511351765325801e-02  9.2513452484683067e-02  9.7851729439318691e-02  1.0001781985625685e-01  9.8729546685780004e-02  9.4239457201045290e-02  8.8157224107639945e-02  8.5433254813999215e-02  1.4366547128060472e-02  1.1586392336240849e-02  5.4685697595610204e-03  1.0252446888522437e-03  -1.2636536785519883e-04  2.2533285606790936e-03  7.8625656114355898e-03  1.6173752310536041e-02  2.6557953468101778e-02  3.8339932752710214e-02  5.0824719245240145e-02  6.3310625722518915e-02  7.5096302035316406e-02  8.5487659480060416e-02  9.3810465884080665e-02  9.9436108348444380e-02  1.0183544434381842e-01  1.0070229513434410e-01  9.6270669791794883e-02  9.0161350382204922e-02  8.7420499357232492e-02  8.3003460238112586e-03  5.3889742419181942e-03  -8.1575596927294233e-04  -5.0865442749901775e-03  -5.7847264665588146e-03  -2.7196673037286245e-03  3.7403430153613066e-03  1.3006695329884204e-02  2.4404124107067791e-02  3.7227189025538843e-02  5.0763705893279450e-02  6.4302064859668037e-02  7.7131411612602160e-02  8.8541577780482647e-02  9.7829561012557104e-02  1.0432132051035485e-01  1.0742576767622286e-01  1.0676621499732131e-01  1.0252217938756586e-01  9.6339374821484969e-02  9.3515208047802501e-02  -2.3037872464101903e-03  -5.4190381590836370e-03  -1.1720113239479531e-02  -1.5623123262707147e-02  -1.5469976549428104e-02  -1.1169585382407865e-02  -3.2138573416178422e-03  7.7011427031616619e-03  2.0823235365327313e-02  3.5401174425228520e-02  5.0701033493574459e-02  6.6002583900024378e-02  8.0586924173374680e-02  9.3723765972318143e-02  1.0466661608053668e-01  1.1266669382743140e-01  1.1702599463172050e-01  1.1724141860082440e-01  1.1338769227107443e-01  1.0713322490432299e-01  1.0417243750234104e-01  -1.8227152242332942e-02  -2.1611128843078059e-02  -2.7934393012156507e-02  -3.1140353840891664e-02  -2.9586086103703828e-02  -2.3358828942807330e-02  -1.3149221745969372e-02  1.8587895701336997e-04  1.5788973104127243e-02  3.2855585881124118e-02  5.0636977069741199e-02  6.8418420752059936e-02  8.5487281809251484e-02  1.0110073882499970e-01  1.1446270994703486e-01  1.2472342113690092e-01  1.3102744460060484e-01  1.3267285455392952e-01  1.2955199017395716e-01  1.2332095109471468e-01  1.2019389094306387e-01  -4.0664629699788957e-02  -4.4365688085468737e-02  -5.0487807373187379e-02  -5.2437172901560053e-02  -4.8681515044873766e-02  -3.9613353971224924e-02  -2.6224134046280989e-02  -9.5917467983522488e-03  9.2998770113958459e-03  2.9600860607930997e-02  5.0573302669155162e-02  7.1541894094446820e-02  9.1834326277787912e-02  1.1072152161789305e-01  1.2736724129906035e-01  1.4080280204917411e-01  1.4996011531937856e-01  1.5384214220588099e-01  1.5203555846994321e-01  1.4608826809018391e-01  1.4280741381661075e-01  -7.1349026851275310e-02  -7.5383099822727284e-02  -8.0819451607898496e-02  -8.0568317911314441e-02  -7.3415503324889025e-02  -6.0263639423581733e-02  -4.2541835231340461e-02  -2.1610046288685229e-02  1.4190681357443985e-03  2.5684793033191253e-02  5.0513942781510085e-02  7.5332213549613822e-02  9.9569139109372568e-02  1.2256338753828296e-01  1.4347446544068546e-01  1.6121656186481173e-01  1.7445609116110952e-01  1.8177576074013338e-01  1.8226172522785469e-01  1.7714725202492013e-01  1.7380128234503106e-01  -1.1275317162103377e-01  -1.1707178345595194e-01  -1.2087406777292668e-01  -1.1683763547999231e-01  -1.0447953749792986e-01  -8.5536194754707195e-02  -6.2044836968807915e-02  -3.5688547861360137e-02  -7.6691518448864368e-03  2.1220635741430571e-02  5.0465558099549931e-02  7.9688758720199232e-02  1.0851748147941985e-01  1.3645014423108084e-01  1.6272067796196094e-01  1.8616965241720770e-01  2.0516888833747127e-01  2.1773240554126400e-01  2.2214666464125998e-01  2.1892462036826546e-01  2.1574370833624390e-01  -1.6841391480168619e-01  -1.7283491086509969e-01  -1.7320996929783095e-01  -1.6272806489292876e-01  -1.4242678370792553e-01  -1.1536204545046233e-01  -8.4351115415368577e-02  -5.1369781650860535e-02  -1.7586430609434125e-02  1.6420978412652110e-02  5.0437467145226005e-02  8.4417577977569089e-02  1.1831879504289285e-01  1.5193794339305405e-01  1.8472638630077826e-01  2.1557488488237730e-01  2.4260556189889609e-01  2.6312869336769895e-01  2.7419989058864402e-01  2.7485213449195472e-01  2.7233806968703189e-01  -2.4344661239620161e-01  -2.4749003028373789e-01  -2.4105587522073793e-01  -2.1966300546433834e-01  -1.8732292260392927e-01  -1.4905615253975260e-01  -1.0851920968304890e-01  -6.7771816483606542e-02  -2.7680394812264895e-02  1.1630832638323435e-02  5.0439911952067214e-02  8.9195604895831823e-02  1.2834598169970315e-01  1.6817187310749457e-01  2.0857118924034035e-01  2.4874741726273472e-01  2.8679401274554411e-01  3.1930984016857072e-01  3.4158043011850092e-01  3.4979652605402289e-01  3.4899460619215256e-01  -3.4534915190550891e-01  -3.4779933282510445e-01  -3.2809878822807581e-01  -2.8836439930003344e-01  -2.3808023554121743e-01  -1.8482719568540573e-01  -1.3275628449205384e-01  -8.3442370787153622e-02  -3.6964574639163694e-02  7.3446830870529519e-03  5.0479115074271150e-02  9.3544465443076333e-02  1.3763900230313431e-01  1.8374004866505497e-01  2.3251275244775932e-01  2.8394054664857127e-01  3.3665943993761926e-01  3.8696018502087443e-01  4.2792655168484134e-01  4.5063447834970510e-01  4.5373968170116485e-01  -4.8522226010004654e-01  -4.8278909249800567e-01  -4.3735663035415695e-01  -3.6735234427241514e-01  -2.9132842230406714e-01  -2.1915765792787006e-01  -1.5416651292960204e-01  -9.6302498998135699e-02  -4.4136570364133057e-02  4.1793962655830809e-03  5.0548076900923576e-02  9.6839130359915260e-02  1.4490577079959513e-01  1.9660596737375788e-01  2.5373909068121070e-01  3.1775637241836535e-01  3.8896368468275017e-01  4.6473389140493604e-01  5.3641305213318402e-01  5.8677646343155720e-01  5.9861429484700579e-01  -6.7950123306921495e-01  -6.6228425123479118e-01  -5.6749754502586502e-01  -4.4997905894404155e-01  -3.3994031926491070e-01  -2.4638934045300684e-01  -1.6883536555073056e-01  -1.0387474695895331e-01  -4.7782092779318934e-02  2.7583027184408279e-03  5.0616779002196105e-02  9.8402235205776123e-02  1.4870020008330539e-01  2.0431022623137868e-01  2.6844119288914881e-01  3.4475459561980093e-01  4.3690075382856525e-01  5.4643581996583568e-01  6.6651061389869126e-01  7.6950746353785249e-01  8.0159655872995539e-01  -9.5189803550654950e-01  -8.8776577874697771e-01  -7.0365923540708974e-01  -5.2032192026852675e-01  -3.7250743110103152e-01  -2.5960697742668964e-01  -1.7293290241457587e-01  -1.0417121666459742e-01  -4.6951185163666878e-02  3.4376572303756580e-03  5.0640517427350776e-02  9.7790731272898626e-02  1.4800020953785087e-01  2.0484310475344117e-01  2.7289727400606811e-01  3.5837295100839184e-01  4.6967040859446874e-01  6.1683644765093792e-01  8.0487984388225864e-01  1.0048955779467437e+00  1.0879296539732131e+00  -1.3303136957294102e+00  -1.1190561357319877e+00  -8.0312525036692084e-01  -5.5364997387916826e-01  -3.7822497864181631e-01  -2.5533456443478336e-01  -1.6613649145455658e-01  -9.7914933605867227e-02  -4.2447894236022736e-02  5.7440249844192635e-03  5.0625516176171323e-02  9.5491479618898034e-02  1.4363126923114899e-01  1.9898658628260554e-01  2.6697505624563167e-01  3.5568947764915992e-01  4.7773080285800673e-01  6.5270897496492652e-01  9.0810357866585201e-01  1.2575727661136753e+00  1.4810371442716004e+00  -1.6076363513812690e+00  -1.2043364515166759e+00  -8.0900385784502582e-01  -5.4270178458463614e-01  -3.6649415879413028e-01  -2.4593013695466370e-01  -1.5921625102314443e-01  -9.3125037831060853e-02  -3.9439272121975129e-02  7.2241096105459682e-03  5.0730750298288489e-02  9.4294752518455482e-02  1.4115648777912973e-01  1.9526765915688185e-01  2.6217675859198430e-01  3.5036186418568854e-01  4.7334598272297235e-01  6.5289599623864447e-01  9.2229341561982248e-01  1.3182538665727146e+00  1.8841480450094092e+00  </DataArray> 
</PointData> 
</Piece>
</UnstructuredGrid>
</VTKFile>