<?xml version="1.0"?>
<VTKFile type="UnstructuredGrid"  version="0.1"  >
<UnstructuredGrid>
<Piece  NumberOfPoints="651" NumberOfCells="1200">
<Points>
<DataArray  type="Float64"  NumberOfComponents="3"  format="ascii">0 0 0  50000 0 0  100000 0 0  150000 0 0  200000 0 0  250000 0 0  300000 0 0  350000 0 0  400000 0 0  450000 0 0  500000 0 0  550000 0 0  600000 0 0  650000 0 0  700000 0 0  750000 0 0  800000 0 0  850000 0 0  900000 0 0  950000 0 0  1000000 0 0  0 50000 0  50000 50000 0  100000 50000 0  150000 50000 0  200000 50000 0  250000 50000 0  300000 50000 0  350000 50000 0  400000 50000 0  450000 50000 0  500000 50000 0  550000 50000 0  600000 50000 0  650000 50000 0  700000 50000 0  750000 50000 0  800000 50000 0  850000 50000 0  900000 50000 0  950000 50000 0  1000000 50000 0  0 100000 0  50000 100000 0  100000 100000 0  150000 100000 0  200000 100000 0  250000 100000 0  300000 100000 0  350000 100000 0  400000 100000 0  450000 100000 0  500000 100000 0  550000 100000 0  600000 100000 0  650000 100000 0  700000 100000 0  750000 100000 0  800000 100000 0  850000 100000 0  900000 100000 0  950000 100000 0  1000000 100000 0  0 150000 0  50000 150000 0  100000 150000 0  150000 150000 0  200000 150000 0  250000 150000 0  300000 150000 0  350000 150000 0  400000 150000 0  450000 150000 0  500000 150000 0  550000 150000 0  600000 150000 0  650000 150000 0  700000 150000 0  750000 150000 0  800000 150000 0  850000 150000 0  900000 150000 0  950000 150000 0  1000000 150000 0  0 200000 0  50000 200000 0  100000 200000 0  150000 200000 0  200000 200000 0  250000 200000 0  300000 200000 0  350000 200000 0  400000 200000 0  450000 200000 0  500000 200000 0  550000 200000 0  600000 200000 0  650000 200000 0  700000 200000 0  750000 200000 0  800000 200000 0  850000 200000 0  900000 200000 0  950000 200000 0  1000000 200000 0  0 250000 0  50000 250000 0  100000 250000 0  150000 250000 0  200000 250000 0  250000 250000 0  300000 250000 0  350000 250000 0  400000 250000 0  450000 250000 0  500000 250000 0  550000 250000 0  600000 250000 0  650000 250000 0  700000 250000 0  750000 250000 0  800000 250000 0  850000 250000 0  900000 250000 0  950000 250000 0  1000000 250000 0  0 300000 0  50000 300000 0  100000 300000 0  150000 300000 0  200000 300000 0  250000 300000 0  300000 300000 0  350000 300000 0  400000 300000 0  450000 300000 0  500000 300000 0  550000 300000 0  600000 300000 0  650000 300000 0  700000 300000 0  750000 300000 0  800000 300000 0  850000 300000 0  900000 300000 0  950000 300000 0  1000000 300000 0  0 350000 0  50000 350000 0  100000 350000 0  150000 350000 0  200000 350000 0  250000 350000 0  300000 350000 0  350000 350000 0  400000 350000 0  450000 350000 0  500000 350000 0  550000 350000 0  600000 350000 0  650000 350000 0  700000 350000 0  750000 350000 0  800000 350000 0  850000 350000 0  900000 350000 0  950000 350000 0  1000000 350000 0  0 400000 0  50000 400000 0  100000 400000 0  150000 400000 0  200000 400000 0  250000 400000 0  300000 400000 0  350000 400000 0  400000 400000 0  450000 400000 0  500000 400000 0  550000 400000 0  600000 400000 0  650000 400000 0  700000 400000 0  750000 400000 0  800000 400000 0  850000 400000 0  900000 400000 0  950000 400000 0  1000000 400000 0  0 450000 0  50000 450000 0  100000 450000 0  150000 450000 0  200000 450000 0  250000 450000 0  300000 450000 0  350000 450000 0  400000 450000 0  450000 450000 0  500000 450000 0  550000 450000 0  600000 450000 0  650000 450000 0  700000 450000 0  750000 450000 0  800000 450000 0  850000 450000 0  900000 450000 0  950000 450000 0  1000000 450000 0  0 500000 0  50000 500000 0  100000 500000 0  150000 500000 0  200000 500000 0  250000 500000 0  300000 500000 0  350000 500000 0  400000 500000 0  450000 500000 0  500000 500000 0  550000 500000 0  600000 500000 0  650000 500000 0  700000 500000 0  750000 500000 0  800000 500000 0  850000 500000 0  900000 500000 0  950000 500000 0  1000000 500000 0  0 550000 0  50000 550000 0  100000 550000 0  150000 550000 0  200000 550000 0  250000 550000 0  300000 550000 0  350000 550000 0  400000 550000 0  450000 550000 0  500000 550000 0  550000 550000 0  600000 550000 0  650000 550000 0  700000 550000 0  750000 550000 0  800000 550000 0  850000 550000 0  900000 550000 0  950000 550000 0  1000000 550000 0  0 600000 0  50000 600000 0  100000 600000 0  150000 600000 0  200000 600000 0  250000 600000 0  300000 600000 0  350000 600000 0  400000 600000 0  450000 600000 0  500000 600000 0  550000 600000 0  600000 600000 0  650000 600000 0  700000 600000 0  750000 600000 0  800000 600000 0  850000 600000 0  900000 600000 0  950000 600000 0  1000000 600000 0  0 650000 0  50000 650000 0  100000 650000 0  150000 650000 0  200000 650000 0  250000 650000 0  300000 650000 0  350000 650000 0  400000 650000 0  450000 650000 0  500000 650000 0  550000 650000 0  600000 650000 0  650000 650000 0  700000 650000 0  750000 650000 0  800000 650000 0  850000 650000 0  900000 650000 0  950000 650000 0  1000000 650000 0  0 700000 0  50000 700000 0  100000 700000 0  150000 700000 0  200000 700000 0  250000 700000 0  300000 700000 0  350000 700000 0  400000 700000 0  450000 700000 0  500000 700000 0  550000 700000 0  600000 700000 0  650000 700000 0  700000 700000 0  750000 700000 0  800000 700000 0  850000 700000 0  900000 700000 0  950000 700000 0  1000000 700000 0  0 750000 0  50000 750000 0  100000 750000 0  150000 750000 0  200000 750000 0  250000 750000 0  300000 750000 0  350000 750000 0  400000 750000 0  450000 750000 0  500000 750000 0  550000 750000 0  600000 750000 0  650000 750000 0  700000 750000 0  750000 750000 0  800000 750000 0  850000 750000 0  900000 750000 0  950000 750000 0  1000000 750000 0  0 800000 0  50000 800000 0  100000 800000 0  150000 800000 0  200000 800000 0  250000 800000 0  300000 800000 0  350000 800000 0  400000 800000 0  450000 800000 0  500000 800000 0  550000 800000 0  600000 800000 0  650000 800000 0  700000 800000 0  750000 800000 0  800000 800000 0  850000 800000 0  900000 800000 0  950000 800000 0  1000000 800000 0  0 850000 0  50000 850000 0  100000 850000 0  150000 850000 0  200000 850000 0  250000 850000 0  300000 850000 0  350000 850000 0  400000 850000 0  450000 850000 0  500000 850000 0  550000 850000 0  600000 850000 0  650000 850000 0  700000 850000 0  750000 850000 0  800000 850000 0  850000 850000 0  900000 850000 0  950000 850000 0  1000000 850000 0  0 900000 0  50000 900000 0  100000 900000 0  150000 900000 0  200000 900000 0  250000 900000 0  300000 900000 0  350000 900000 0  400000 900000 0  450000 900000 0  500000 900000 0  550000 900000 0  600000 900000 0  650000 900000 0  700000 900000 0  750000 900000 0  800000 900000 0  850000 900000 0  900000 900000 0  950000 900000 0  1000000 900000 0  0 950000 0  50000 950000 0  100000 950000 0  150000 950000 0  200000 950000 0  250000 950000 0  300000 950000 0  350000 950000 0  400000 950000 0  450000 950000 0  500000 950000 0  550000 950000 0  600000 950000 0  650000 950000 0  700000 950000 0  750000 950000 0  800000 950000 0  850000 950000 0  900000 950000 0  950000 950000 0  1000000 950000 0  0 1000000 0  50000 1000000 0  100000 1000000 0  150000 1000000 0  200000 1000000 0  250000 1000000 0  300000 1000000 0  350000 1000000 0  400000 1000000 0  450000 1000000 0  500000 1000000 0  550000 1000000 0  600000 1000000 0  650000 1000000 0  700000 1000000 0  750000 1000000 0  800000 1000000 0  850000 1000000 0  900000 1000000 0  950000 1000000 0  1000000 1000000 0  0 1050000 0  50000 1050000 0  100000 1050000 0  150000 1050000 0  200000 1050000 0  250000 1050000 0  300000 1050000 0  350000 1050000 0  400000 1050000 0  450000 1050000 0  500000 1050000 0  550000 1050000 0  600000 1050000 0  650000 1050000 0  700000 1050000 0  750000 1050000 0  800000 1050000 0  850000 1050000 0  900000 1050000 0  950000 1050000 0  1000000 1050000 0  0 1100000 0  50000 1100000 0  100000 1100000 0  150000 1100000 0  200000 1100000 0  250000 1100000 0  300000 1100000 0  350000 1100000 0  400000 1100000 0  450000 1100000 0  500000 1100000 0  550000 1100000 0  600000 1100000 0  650000 1100000 0  700000 1100000 0  750000 1100000 0  800000 1100000 0  850000 1100000 0  900000 1100000 0  950000 1100000 0  1000000 1100000 0  0 1150000 0  50000 1150000 0  100000 1150000 0  150000 1150000 0  200000 1150000 0  250000 1150000 0  300000 1150000 0  350000 1150000 0  400000 1150000 0  450000 1150000 0  500000 1150000 0  550000 1150000 0  600000 1150000 0  650000 1150000 0  700000 1150000 0  750000 1150000 0  800000 1150000 0  850000 1150000 0  900000 1150000 0  950000 1150000 0  1000000 1150000 0  0 1200000 0  50000 1200000 0  100000 1200000 0  150000 1200000 0  200000 1200000 0  250000 1200000 0  300000 1200000 0  350000 1200000 0  400000 1200000 0  450000 1200000 0  500000 1200000 0  550000 1200000 0  600000 1200000 0  650000 1200000 0  700000 1200000 0  750000 1200000 0  800000 1200000 0  850000 1200000 0  900000 1200000 0  950000 1200000 0  1000000 1200000 0  0 1250000 0  50000 1250000 0  100000 1250000 0  150000 1250000 0  200000 1250000 0  250000 1250000 0  300000 1250000 0  350000 1250000 0  400000 1250000 0  450000 1250000 0  500000 1250000 0  550000 1250000 0  600000 1250000 0  650000 1250000 0  700000 1250000 0  750000 1250000 0  800000 1250000 0  850000 1250000 0  900000 1250000 0  950000 1250000 0  1000000 1250000 0  0 1300000 0  50000 1300000 0  100000 1300000 0  150000 1300000 0  200000 1300000 0  250000 1300000 0  300000 1300000 0  350000 1300000 0  400000 1300000 0  450000 1300000 0  500000 1300000 0  550000 1300000 0  600000 1300000 0  650000 1300000 0  700000 1300000 0  750000 1300000 0  800000 1300000 0  850000 1300000 0  900000 1300000 0  950000 1300000 0  1000000 1300000 0  0 1350000 0  50000 1350000 0  100000 1350000 0  150000 1350000 0  200000 1350000 0  250000 1350000 0  300000 1350000 0  350000 1350000 0  400000 1350000 0  450000 1350000 0  500000 1350000 0  550000 1350000 0  600000 1350000 0  650000 1350000 0  700000 135
[...]
<PointData  Scalars="f_3013"> 
<DataArray  type="Float64"  Name="f_3013"  format="ascii">-1.2479574157710027e-01  -7.2894351443587233e-02  -3.7087568131557232e-02  -1.1587719164762677e-02  7.0707213591518631e-03  2.1593007842731736e-02  3.3606042697598225e-02  4.4069516276583419e-02  5.3577155040359002e-02  6.2527343545168271e-02  7.1217963974773965e-02  7.9903543604144242e-02  8.8836933907317922e-02  9.8310344107046602e-02  1.0871054753930157e-01  1.2061132432165776e-01  1.3494759227179509e-01  1.5335159796996778e-01  1.7868249722479052e-01  2.1482412445330243e-01  2.5247397770595831e-01  -8.5636597435473527e-02  -6.5455023046824948e-02  -3.4328336911429010e-02  -1.0348971802856552e-02  7.6812803257707129e-03  2.1915231791327337e-02  3.3787316182864020e-02  4.4178341337827588e-02  5.3646956952427993e-02  6.2575358899771019e-02  7.1253774538322850e-02  7.9933140582198622e-02  8.8864860713705099e-02  9.8340969463370995e-02  1.0874813976438596e-01  1.2065368939355858e-01  1.3494397833426577e-01  1.5298805280200825e-01  1.7646733819385085e-01  2.0495962386377514e-01  2.2478883413140849e-01  -4.7441296744890664e-02  -4.0013944727842650e-02  -2.2108563858779812e-02  -4.2942243751885713e-03  1.0932570524575727e-02  2.3788141976462597e-02  3.4918521559314332e-02  4.4871077921308740e-02  5.4053083067295900e-02  6.2771262069961559e-02  7.1272897959692244e-02  7.9778639253694758e-02  8.8510447508659648e-02  9.7719919238315092e-02  1.0772164604420341e-01  1.1893158375567667e-01  1.3188698731645374e-01  1.4713265815820986e-01  1.6457224786090766e-01  1.8129671891320034e-01  1.8755236948980239e-01  -1.9836910722743104e-02  -1.6851714537352666e-02  -7.2290095980348896e-03  4.6404537150811559e-03  1.6351213562780676e-02  2.7169034281944431e-02  3.7069231842660894e-02  4.6230323634368693e-02  5.4860454261451606e-02  6.3153548884790717e-02  7.1285740989996696e-02  7.9423387077481117e-02  8.7734081586173948e-02  9.6397638699450255e-02  1.0561319716912691e-01  1.1559048097713215e-01  1.2648920350824414e-01  1.3821460362795171e-01  1.4989382872188303e-01  1.5894002861086756e-01  1.6084510928169571e-01  -3.4151245806093676e-04  9.6904902094503047e-04  6.2743360617636863e-03  1.4026617782600939e-02  2.2689267828592017e-02  3.1428874072643435e-02  3.9919223251237979e-02  4.8091467930235547e-02  5.5986797684167859e-02  6.3688340008055067e-02  7.1293520764969018e-02  7.8904069960721773e-02  8.6622436472587716e-02  9.4547880562333125e-02  1.0276495682606039e-01  1.1131152272379612e-01  1.2010179117837456e-01  1.2876711918124248e-01  1.3639862233070649e-01  1.4135696807737169e-01  1.4193975403681927e-01  1.3680719026936452e-02  1.4305818897844885e-02  1.7416631501006873e-02  2.2598367509443891e-02  2.8992936053067343e-02  3.5948257668834735e-02  4.3085964768250079e-02  5.0225794688429533e-02  5.7303884225239882e-02  6.4318078744837373e-02  7.1296396899146797e-02  7.8279114699717531e-02  8.5306696596011145e-02  9.2407368367448964e-02  9.9577908063313680e-02  1.0674938419038814e-01  1.1372815392491398e-01  1.2010946072700483e-01  1.2519883332260195e-01  1.2808861068774777e-01  1.2826944123326076e-01  2.4050774505364685e-02  2.4374432336263220e-02  2.6340723252921718e-02  2.9951590052879267e-02  3.4754984738937157e-02  4.0300381552575607e-02  4.6259233582944655e-02  5.2426258801936937e-02  5.8686970714454716e-02  6.4984629584714182e-02  7.1295098186848260e-02  7.7608683864430261e-02  8.3915541448574771e-02  9.0190811376457791e-02  9.6375619248882660e-02  1.0235046984237575e-01  1.0790035194793292e-01  1.1268086487106138e-01  1.1622050007947572e-01  1.1804606267480397e-01  1.1810362456085101e-01  3.1917470608511488e-02  3.2099108243151653e-02  3.3437961050184033e-02  3.6074236515620708e-02  3.9777027648421691e-02  4.4248867223096192e-02  4.9232915202748133e-02  5.4538839622027324e-02  6.0036512551965196e-02  6.5639949911808007e-02  7.1290751708090100e-02  7.6943465938156333e-02  8.2552341713865066e-02  8.8057927789395876e-02  9.3371989789029566e-02  9.8360309325837600e-02  1.0282608834897590e-01  1.0650382620652001e-01  1.0908704961130435e-01  1.1033611010532503e-01  1.1035563167109690e-01  3.7992061049862698e-02  3.8101862857084327e-02  3.9075325992514100e-02  4.1087694601024079e-02  4.4024172378410845e-02  4.7689644445403002e-02  5.1890701764411025e-02  5.6464489716519586e-02  6.1283420125013560e-02  6.6249418461095305e-02  7.1284496294960878e-02  7.6320544199070237e-02  8.1289137714468954e-02  8.6111273189674362e-02  9.0686982179216585e-02  9.4885731416256516e-02  9.8540740208790362e-02  1.0145436093529335e-01  1.0342818113338914e-01  1.0434353646135162e-01  1.0435129768081688e-01  4.2721036546954826e-02  4.2791747885688340e-02  4.3539372276809735e-02  4.5138187239940113e-02  4.7533757901276563e-02  5.0595849067717143e-02  5.4179182212059675e-02  5.8148294470829170e-02  6.2385603977803530e-02  6.6790988194735557e-02  7.1277254701566303e-02  7.5763849823933388e-02  8.0169953296764754e-02  8.4407554399411291e-02  8.8375132298123493e-02  9.1953175398864564e-02  9.5004030347175972e-02  9.7380588101974697e-02  9.8951717732154928e-02  9.9660961927857991e-02  9.9665147894573425e-02  4.6392828776230466e-02  4.6440683571775540e-02  4.7041706418468096e-02  4.8358402474252743e-02  5.0367779110217697e-02  5.2979857275326517e-02  5.6083424303182236e-02  5.9565841867862394e-02  6.3321237334387062e-02  6.7252478468150800e-02  7.1269667125196653e-02  7.5286806616058605e-02  7.9217701572189339e-02  8.2971864578279625e-02  8.6451221825336683e-02  8.9548728875762582e-02  9.2150621760639886e-02  9.4145039852665230e-02  9.5441993922150484e-02  9.6017209288074029e-02  9.6020484122576966e-02  4.9199380334233586e-02  4.9232953929838695e-02  4.9735815222373018e-02  5.0857149119222685e-02  5.2590412922952363e-02  5.4870408763868332e-02  5.7609126036075715e-02  6.0711338398448784e-02  6.4081876276132127e-02  6.7628496840013638e-02  7.1262115484680505e-02  7.4895507500228095e-02  7.8441313009849148e-02  8.1810057251304524e-02  8.4908908159965199e-02  8.7642030581482303e-02  8.9913670859625386e-02  9.1635691470162636e-02  9.2743137970679054e-02  9.3228554360637511e-02  9.3231942432670467e-02  5.1270889314179086e-02  5.1295016118073557e-02  5.1731801500383548e-02  5.2718850094218644e-02  5.4258208317709847e-02  5.6299792755563842e-02  5.8770893172937801e-02  6.1588749620717885e-02  6.4666794453086041e-02  6.7917745198557991e-02  7.1254781793545233e-02  7.4591552288912372e-02  7.7841619864842448e-02  8.0917924932970189e-02  8.3732840691638041e-02  8.6199445781714748e-02  8.8234761883762100e-02  8.9766142116000702e-02  9.0743759280273797e-02  9.1169001333896452e-02  9.1173082370936895e-02  5.2695421080257043e-02  5.2713010696739511e-02  5.3106847264241371e-02  5.4005774310906821e-02  5.5416215477048218e-02  5.7297012909919988e-02  5.9585030928421850e-02  6.2205777312821467e-02  6.5078841264000750e-02  6.8120965073602019e-02  7.1247709039679558e-02  7.4374234864883038e-02  7.7415656111400721e-02  8.0287399656488720e-02  8.2906023857289041e-02  8.5190945379409716e-02  8.7067596830512642e-02  8.8472939752222313e-02  8.9366003716227924e-02  8.9752778096014216e-02  8.9758060362100420e-02  5.3530034829842837e-02  5.3542954736159179e-02  5.3912040981585481e-02  5.4760481734203448e-02  5.6096713311628715e-02  5.7884290412768553e-02  6.0065328439031625e-02  6.2570034549011125e-02  6.5321661007837359e-02  6.8239514660364278e-02  7.1240851654278001e-02  7.4242068393401014e-02  7.7159539809537367e-02  7.9910463273752078e-02  8.2414066987336707e-02  8.4593534602398171e-02  8.6379054173044437e-02  8.7712802711527330e-02  8.8558430819635450e-02  8.8924158131948192e-02  8.8931210169158628e-02  5.3807007668863920e-02  5.3816532723124255e-02  5.4176541072098822e-02  5.5007696752001463e-02  5.6318950217692072e-02  5.8075357319604670e-02  6.0220726006566382e-02  6.2686783631972484e-02  6.5397978416033911e-02  6.8274472696750091e-02  7.1234113337430544e-02  7.4193753978110816e-02  7.7070248258827009e-02  7.9781443042888492e-02  8.2247500668294476e-02  8.4392869355256389e-02  8.6149276457169008e-02  8.7460529922859589e-02  8.8291685602762307e-02  8.8651693951736790e-02  8.8661219005997147e-02  5.3537016505702605e-02  5.3544068542913041e-02  5.3909795855225776e-02  5.4755423963333841e-02  5.6089172501816775e-02  5.7874692072462909e-02  6.0054159687524415e-02  6.2557763401109037e-02  6.5308686865323581e-02  6.8226158281459920e-02  7.1227375020583003e-02  7.4228712014496656e-02  7.7146565667023492e-02  7.9898192125849601e-02  8.2402898235829122e-02  8.4583936262092235e-02  8.6371513363232302e-02  8.7707744940657556e-02  8.8556185693275544e-02  8.8925271938701797e-02  8.8938191845018166e-02  5.2710166312760882e-02  5.2715448578847086e-02  5.3102222958633379e-02  5.3995286922639045e-02  5.5400629844348702e-02  5.7277281295451558e-02  5.9562202817572345e-02  6.2180827018372388e-02  6.5052570563460310e-02  6.8093991809978036e-02  7.1220517635181460e-02  7.4347261601258888e-02  7.7389385410860073e-02  8.0262449362039329e-02  8.2883195746439028e-02  8.5171213764940940e-02  8.7052011197812820e-02  8.8462452363954100e-02  8.9361379410619640e-02  8.9755215978121583e-02  8.9772805594604016e-02  5.1295144303924733e-02  5.1299225340965121e-02  5.1724467394587789e-02  5.2702084558860919e-02  5.4233464791099431e-02  5.6268780893146589e-02  5.8735385983223351e-02  6.1550301741891127e-02  6.4626606810018764e-02  6.7876674385948826e-02  7.1213444881315938e-02  7.4550481476303207e-02  7.7801432221774977e-02  8.0879477054142862e-02  8.3697333501923085e-02  8.6168433919297016e-02  8.8210018357151102e-02  8.9749376580642387e-02  9.0736425174477400e-02  9.1173210556787385e-02  9.1197337360681904e-02  4.9236284242191425e-02  4.9239672314224360e-02  4.9725088704182775e-02  5.0832535204699228e-02  5.2554555815236388e-02  5.4826196093379326e-02  5.7559318514896471e-02  6.0658169423556903e-02  6.4026913665012189e-02  6.7572719174633186e-02  7.1206111190180679e-02  7.4839729834847532e-02  7.8386350398728932e-02  8.1756888276412129e-02  8.4859100638785046e-02  8.7597817910992401e-02  8.9877813751908661e-02  9.1611077555638326e-02  9.2732411452487853e-02  9.3235272745022191e-02  9.3268846340627362e-02  4.6447742552285294e-02  4.6451017386788182e-02  4.7026232752711762e-02  4.8323186822196884e-02  5.0317604914222214e-02  5.2919497799099338e-02  5.6017004849525175e-02  5.9496362096582017e-02  6.3250525102672220e-02  6.7181420058802815e-02  7.1198559549664656e-02  7.5215748206710384e-02  7.9146989340474025e-02  8.2902384806998700e-02  8.6384802371678795e-02  8.9488369399534515e-02  9.2100447564643417e-02  9.4109824200608275e-02  9.5426520256392866e-02  9.6027543103085422e-02  9.6075397898630580e-02  4.2803078780289286e-02  4.2807264747004685e-02  4.3516508942707775e-02  4.5087638572887903e-02  4.7464196327686524e-02  5.0515051275997758e-02  5.4093094376738537e-02  5.8060672275450600e-02  6.2298273378097034e-02  6.6704376850928240e-02  7.1190971973295158e-02  7.5677238480125905e-02  8.0082622697057779e-02  8.4319932204032069e-02  8.8289044462801586e-02  9.1872377607143937e-02  9.4934468773584565e-02  9.7330039434921009e-02  9.8928854398051366e-02  9.9676478789172740e-02  9.9747190127906338e-02  3.8116928994046229e-02  3.8124690213511461e-02  3.9040045541473910e-02  4.1013865739569590e-02  4.3927486466072467e-02  4.7582495258606167e-02  5.1781244495645792e-02  5.6356953485187905e-02  6.1179088960393188e-02  6.6147682475791642e-02  7.1183730379900861e-02  7.6218808213766420e-02  8.1184806549848165e-02  8.6003736958341903e-02  9.0577524910450291e-02  9.4778582229458216e-02  9.8444054296450423e-02  1.0138053207383718e-01  1.0339290068234709e-01  1.0436636381777681e-01  1.0447616562499851e-01  3.2112595003766675e-02  3.2132116569538564e-02  3.3381177063559087e-02  3.5964400468343233e-02  3.9642138325887248e-02  4.4107917349025368e-02  4.9096236885833165e-02  5.4410298885466682e-02  5.9915884960997333e-02  6.5524760736705823e-02  7.1177474966771861e-02  7.6828276763053940e-02  8.2431714122896724e-02  8.7929387052834415e-02  9.3235311472113405e-02  9.8219359451765201e-02  1.0269119902643968e-01  1.0639399015924071e-01  1.0903026562467730e-01  1.1036911843170971e-01  1.1055075606634987e-01  2.4364602114013072e-02  2.4422164000060038e-02  2.6247726595388168e-02  2.9787361803802329e-02  3.4567874726930549e-02  4.0117756832487562e-02  4.6092607425980522e-02  5.2277415298405183e-02  5.8552685226287933e-02  6.4859542810432269e-02  7.1173128488014062e-02  7.7483597090148043e-02  8.3781255960407391e-02  9.0041967872924969e-02  9.6208993091917147e-02  1.0216784512228602e-01  1.0771324193592446e-01  1.1251663662198227e-01  1.1612750342193989e-01  1.1809379433859847e-01  1.1841745216949701e-01  1.4198785441604070e-02  1.4379615987116963e-02  1.7269393352262640e-02  2.2358765947859568e-02  2.8740072749950055e-02  3.5718842484475551e-02  4.2890318611549808e-02  5.0060858307414385e-02  5.7161530078851996e-02  6.4189111975145374e-02  7.1171829775715914e-02  7.8150147930025241e-02  8.5164342449622746e-02  9.2242431986432713e-02  9.9382261906611993e-02  1.0651996900602724e-01  1.1347529062179451e-01  1.1986985916541804e-01  1.2505159517385500e-01  1.2816240777701718e-01  1.2878750764792557e-01  5.2847263804624972e-04  1.1112585974937469e-03  6.0696043441587615e-03  1.3701107493622477e-02  2.2366435496490034e-02  3.1156703951068097e-02  3.9703269848803617e-02  4.7920346112530710e-02  5.5845790202275952e-02  6.3564156714141590e-02  7.1174705909894179e-02  7.8779886666807991e-02  8.6481428990695081e-02  9.4376758744627059e-02  1.0254900342362448e-01  1.1103935260221898e-01  1.1977895884627023e-01  1.2844160889226125e-01  1.3619389061309856e-01  1.4149917765391734e-01  1.4280973913292341e-01  -1.8376882606829230e-02  -1.6471801936001198e-02  -7.4256020470169371e-03  4.2536230469139534e-03  1.5979023166621049e-02  2.6877745697732748e-02  3.6855029505737623e-02  4.6070587975414183e-02  5.4734145088690254e-02  6.3044839597382829e-02  7.1182485684867042e-02  7.9314677790072938e-02  8.7607772413411847e-02  9.6237903040494510e-02  1.0539899483220223e-01  1.1529919239291850e-01  1.2611701311208215e-01  1.3782777295978152e-01  1.4969723627289760e-01  1.5931994121221552e-01  1.6230513739760613e-01  -4.5084142814934829e-02  -3.8828492238332839e-02  -2.2104021186040566e-02  -4.6644314833432536e-03  1.0581239358412290e-02  2.3536642919189020e-02  3.4746580630661945e-02  4.4748307436550151e-02  5.3957779166205311e-02  6.2689587421170048e-02  7.1195328715172326e-02  7.9696964604902887e-02  8.8415143607568386e-02  9.7597148753555255e-02  1.0754970511554957e-01  1.1868008469840111e-01  1.3153565615028781e-01  1.4676245105005201e-01  1.6457679053364341e-01  1.8248217140270645e-01  1.8990952341975464e-01  -8.2320607456539754e-02  -6.2491397188906624e-02  -3.3999111518982959e-02  -1.0519826127140926e-02  7.5242483406012112e-03  2.1814537281307968e-02  3.3720086910480271e-02  4.4127257211495068e-02  5.3603365961160845e-02  6.2535086092667058e-02  7.1214452136542580e-02  7.9892867775094273e-02  8.8821269722437160e-02  9.8289885337037336e-02  1.0868091049200081e-01  1.2055299488353734e-01  1.3478694634909380e-01  1.5281719847772104e-01  1.7679656358629384e-01  2.0792324972169005e-01  2.2810482411033872e-01  -1.1000575103108913e-01  -7.2355897778433390e-02  -3.6214270549922128e-02  -1.0883371295099973e-02  7.5206344030723082e-03  2.1856902353209185e-02  3.3757679135565120e-02  4.4157882567819801e-02  5.3631292767548376e-02  6.2564683070721813e-02  7.1250262700091882e-02  7.9940883129697354e-02  8.8891071634506560e-02  9.8398710398281949e-02  1.0886218397726700e-01  1.2087521883213337e-01  1.3539750531571315e-01  1.5405594583962770e-01  1.7955579480642250e-01  2.1536257811845300e-01  2.6726396825196641e-01  </DataArray> 
</PointData> 
</Piece>
</UnstructuredGrid>
</VTKFile>