<?xml version="1.0"?>
<VTKFile type="UnstructuredGrid"  version="0.1"  >
<UnstructuredGrid>
<Piece  NumberOfPoints="651" NumberOfCells="1200">
<Points>
<DataArray  type="Float64"  NumberOfComponents="3"  format="ascii">0 0 0  50000 0 0  100000 0 0  150000 0 0  200000 0 0  250000 0 0  300000 0 0  350000 0 0  400000 0 0  450000 0 0  500000 0 0  550000 0 0  600000 0 0  650000 0 0  700000 0 0  750000 0 0  800000 0 0  850000 0 0  900000 0 0  950000 0 0  1000000 0 0  0 50000 0  50000 50000 0  100000 50000 0  150000 50000 0  200000 50000 0  250000 50000 0  300000 50000 0  350000 50000 0  400000 50000 0  450000 50000 0  500000 50000 0  550000 50000 0  600000 50000 0  650000 50000 0  700000 50000 0  750000 50000 0  800000 50000 0  850000 50000 0  900000 50000 0  950000 50000 0  1000000 50000 0  0 100000 0  50000 100000 0  100000 100000 0  150000 100000 0  200000 100000 0  250000 100000 0  300000 100000 0  350000 100000 0  400000 100000 0  450000 100000 0  500000 100000 0  550000 100000 0  600000 100000 0  650000 100000 0  700000 100000 0  750000 100000 0  800000 100000 0  850000 100000 0  900000 100000 0  950000 100000 0  1000000 100000 0  0 150000 0  50000 150000 0  100000 150000 0  150000 150000 0  200000 150000 0  250000 150000 0  300000 150000 0  350000 150000 0  400000 150000 0  450000 150000 0  500000 150000 0  550000 150000 0  600000 150000 0  650000 150000 0  700000 150000 0  750000 150000 0  800000 150000 0  850000 150000 0  900000 150000 0  950000 150000 0  1000000 150000 0  0 200000 0  50000 200000 0  100000 200000 0  150000 200000 0  200000 200000 0  250000 200000 0  300000 200000 0  350000 200000 0  400000 200000 0  450000 200000 0  500000 200000 0  550000 200000 0  600000 200000 0  650000 200000 0  700000 200000 0  750000 200000 0  800000 200000 0  850000 200000 0  900000 200000 0  950000 200000 0  1000000 200000 0  0 250000 0  50000 250000 0  100000 250000 0  150000 250000 0  200000 250000 0  250000 250000 0  300000 250000 0  350000 250000 0  400000 250000 0  450000 250000 0  500000 250000 0  550000 250000 0  600000 250000 0  650000 250000 0  700000 250000 0  750000 250000 0  800000 250000 0  850000 250000 0  900000 250000 0  950000 250000 0  1000000 250000 0  0 300000 0  50000 300000 0  100000 300000 0  150000 300000 0  200000 300000 0  250000 300000 0  300000 300000 0  350000 300000 0  400000 300000 0  450000 300000 0  500000 300000 0  550000 300000 0  600000 300000 0  650000 300000 0  700000 300000 0  750000 300000 0  800000 300000 0  850000 300000 0  900000 300000 0  950000 300000 0  1000000 300000 0  0 350000 0  50000 350000 0  100000 350000 0  150000 350000 0  200000 350000 0  250000 350000 0  300000 350000 0  350000 350000 0  400000 350000 0  450000 350000 0  500000 350000 0  550000 350000 0  600000 350000 0  650000 350000 0  700000 350000 0  750000 350000 0  800000 350000 0  850000 350000 0  900000 350000 0  950000 350000 0  1000000 350000 0  0 400000 0  50000 400000 0  100000 400000 0  150000 400000 0  200000 400000 0  250000 400000 0  300000 400000 0  350000 400000 0  400000 400000 0  450000 400000 0  500000 400000 0  550000 400000 0  600000 400000 0  650000 400000 0  700000 400000 0  750000 400000 0  800000 400000 0  850000 400000 0  900000 400000 0  950000 400000 0  1000000 400000 0  0 450000 0  50000 450000 0  100000 450000 0  150000 450000 0  200000 450000 0  250000 450000 0  300000 450000 0  350000 450000 0  400000 450000 0  450000 450000 0  500000 450000 0  550000 450000 0  600000 450000 0  650000 450000 0  700000 450000 0  750000 450000 0  800000 450000 0  850000 450000 0  900000 450000 0  950000 450000 0  1000000 450000 0  0 500000 0  50000 500000 0  100000 500000 0  150000 500000 0  200000 500000 0  250000 500000 0  300000 500000 0  350000 500000 0  400000 500000 0  450000 500000 0  500000 500000 0  550000 500000 0  600000 500000 0  650000 500000 0  700000 500000 0  750000 500000 0  800000 500000 0  850000 500000 0  900000 500000 0  950000 500000 0  1000000 500000 0  0 550000 0  50000 550000 0  100000 550000 0  150000 550000 0  200000 550000 0  250000 550000 0  300000 550000 0  350000 550000 0  400000 550000 0  450000 550000 0  500000 550000 0  550000 550000 0  600000 550000 0  650000 550000 0  700000 550000 0  750000 550000 0  800000 550000 0  850000 550000 0  900000 550000 0  950000 550000 0  1000000 550000 0  0 600000 0  50000 600000 0  100000 600000 0  150000 600000 0  200000 600000 0  250000 600000 0  300000 600000 0  350000 600000 0  400000 600000 0  450000 600000 0  500000 600000 0  550000 600000 0  600000 600000 0  650000 600000 0  700000 600000 0  750000 600000 0  800000 600000 0  850000 600000 0  900000 600000 0  950000 600000 0  1000000 600000 0  0 650000 0  50000 650000 0  100000 650000 0  150000 650000 0  200000 650000 0  250000 650000 0  300000 650000 0  350000 650000 0  400000 650000 0  450000 650000 0  500000 650000 0  550000 650000 0  600000 650000 0  650000 650000 0  700000 650000 0  750000 650000 0  800000 650000 0  850000 650000 0  900000 650000 0  950000 650000 0  1000000 650000 0  0 700000 0  50000 700000 0  100000 700000 0  150000 700000 0  200000 700000 0  250000 700000 0  300000 700000 0  350000 700000 0  400000 700000 0  450000 700000 0  500000 700000 0  550000 700000 0  600000 700000 0  650000 700000 0  700000 700000 0  750000 700000 0  800000 700000 0  850000 700000 0  900000 700000 0  950000 700000 0  1000000 700000 0  0 750000 0  50000 750000 0  100000 750000 0  150000 750000 0  200000 750000 0  250000 750000 0  300000 750000 0  350000 750000 0  400000 750000 0  450000 750000 0  500000 750000 0  550000 750000 0  600000 750000 0  650000 750000 0  700000 750000 0  750000 750000 0  800000 750000 0  850000 750000 0  900000 750000 0  950000 750000 0  1000000 750000 0  0 800000 0  50000 800000 0  100000 800000 0  150000 800000 0  200000 800000 0  250000 800000 0  300000 800000 0  350000 800000 0  400000 800000 0  450000 800000 0  500000 800000 0  550000 800000 0  600000 800000 0  650000 800000 0  700000 800000 0  750000 800000 0  800000 800000 0  850000 800000 0  900000 800000 0  950000 800000 0  1000000 800000 0  0 850000 0  50000 850000 0  100000 850000 0  150000 850000 0  200000 850000 0  250000 850000 0  300000 850000 0  350000 850000 0  400000 850000 0  450000 850000 0  500000 850000 0  550000 850000 0  600000 850000 0  650000 850000 0  700000 850000 0  750000 850000 0  800000 850000 0  850000 850000 0  900000 850000 0  950000 850000 0  1000000 850000 0  0 900000 0  50000 900000 0  100000 900000 0  150000 900000 0  200000 900000 0  250000 900000 0  300000 900000 0  350000 900000 0  400000 900000 0  450000 900000 0  500000 900000 0  550000 900000 0  600000 900000 0  650000 900000 0  700000 900000 0  750000 900000 0  800000 900000 0  850000 900000 0  900000 900000 0  950000 900000 0  1000000 900000 0  0 950000 0  50000 950000 0  100000 950000 0  150000 950000 0  200000 950000 0  250000 950000 0  300000 950000 0  350000 950000 0  400000 950000 0  450000 950000 0  500000 950000 0  550000 950000 0  600000 950000 0  650000 950000 0  700000 950000 0  750000 950000 0  800000 950000 0  850000 950000 0  900000 950000 0  950000 950000 0  1000000 950000 0  0 1000000 0  50000 1000000 0  100000 1000000 0  150000 1000000 0  200000 1000000 0  250000 1000000 0  300000 1000000 0  350000 1000000 0  400000 1000000 0  450000 1000000 0  500000 1000000 0  550000 1000000 0  600000 1000000 0  650000 1000000 0  700000 1000000 0  750000 1000000 0  800000 1000000 0  850000 1000000 0  900000 1000000 0  950000 1000000 0  1000000 1000000 0  0 1050000 0  50000 1050000 0  100000 1050000 0  150000 1050000 0  200000 1050000 0  250000 1050000 0  300000 1050000 0  350000 1050000 0  400000 1050000 0  450000 1050000 0  500000 1050000 0  550000 1050000 0  600000 1050000 0  650000 1050000 0  700000 1050000 0  750000 1050000 0  800000 1050000 0  850000 1050000 0  900000 1050000 0  950000 1050000 0  1000000 1050000 0  0 1100000 0  50000 1100000 0  100000 1100000 0  150000 1100000 0  200000 1100000 0  250000 1100000 0  300000 1100000 0  350000 1100000 0  400000 1100000 0  450000 1100000 0  500000 1100000 0  550000 1100000 0  600000 1100000 0  650000 1100000 0  700000 1100000 0  750000 1100000 0  800000 1100000 0  850000 1100000 0  900000 1100000 0  950000 1100000 0  1000000 1100000 0  0 1150000 0  50000 1150000 0  100000 1150000 0  150000 1150000 0  200000 1150000 0  250000 1150000 0  300000 1150000 0  350000 1150000 0  400000 1150000 0  450000 1150000 0  500000 1150000 0  550000 1150000 0  600000 1150000 0  650000 1150000 0  700000 1150000 0  750000 1150000 0  800000 1150000 0  850000 1150000 0  900000 1150000 0  950000 1150000 0  1000000 1150000 0  0 1200000 0  50000 1200000 0  100000 1200000 0  150000 1200000 0  200000 1200000 0  250000 1200000 0  300000 1200000 0  350000 1200000 0  400000 1200000 0  450000 1200000 0  500000 1200000 0  550000 1200000 0  600000 1200000 0  650000 1200000 0  700000 1200000 0  750000 1200000 0  800000 1200000 0  850000 1200000 0  900000 1200000 0  950000 1200000 0  1000000 1200000 0  0 1250000 0  50000 1250000 0  100000 1250000 0  150000 1250000 0  200000 1250000 0  250000 1250000 0  300000 1250000 0  350000 1250000 0  400000 1250000 0  450000 1250000 0  500000 1250000 0  550000 1250000 0  600000 1250000 0  650000 1250000 0  700000 1250000 0  750000 1250000 0  800000 1250000 0  850000 1250000 0  900000 1250000 0  950000 1250000 0  1000000 1250000 0  0 1300000 0  50000 1300000 0  100000 1300000 0  150000 1300000 0  200000 1300000 0  250000 1300000 0  300000 1300000 0  350000 1300000 0  400000 1300000 0  450000 1300000 0  500000 1300000 0  550000 1300000 0  600000 1300000 0  650000 1300000 0  700000 1300000 0  750000 1300000 0  800000 1300000 0  850000 1300000 0  900000 1300000 0  950000 1300000 0  1000000 1300000 0  0 1350000 0  50000 1350000 0  100000 1350000 0  150000 1350000 0  200000 1350000 0  250000 1350000 0  300000 1350000 0  350000 1350000 0  400000 1350000 0  450000 1350000 0  500000 1350000 0  550000 1350000 0  600000 1350000 0  650000 1350000 0  700000 135
[...]
<PointData  Scalars="f_3013"> 
<DataArray  type="Float64"  Name="f_3013"  format="ascii">-6.6071485061395252e-01  -4.4667886048686539e-01  -2.9748487053810457e-01  -1.9521219056874070e-01  -1.2568343277101349e-01  -7.6425212392958866e-02  -3.9431021925813110e-02  -9.8200555728931351e-03  1.5407519900597735e-02  3.8176293937737298e-02  5.9832976594895039e-02  8.1469419891175537e-02  1.0416796538554078e-01  1.2924392495628365e-01  1.5856068741339818e-01  1.9501971692537931e-01  2.4338703237204007e-01  3.1167361192956961e-01  4.1281780102417676e-01  5.6199819033311949e-01  7.1494910795366640e-01  -5.0632531007592185e-01  -4.2214069428349627e-01  -2.9080022635610558e-01  -1.9394493281190336e-01  -1.2626469392419876e-01  -7.7508387396301809e-02  -4.0481252702076607e-02  -1.0641391643418043e-02  1.4872680194439394e-02  3.7939662296066941e-02  5.9903139727392613e-02  8.1872469081817917e-02  1.0495914547473827e-01  1.3051541384030527e-01  1.6044263871882655e-01  1.9764858270674424e-01  2.4671298230057312e-01  3.1453702884376461e-01  4.0915491291981454e-01  5.2806076420151882e-01  6.0819407921216218e-01  -3.5506829802510032e-01  -3.2397520503809124e-01  -2.4889337442974702e-01  -1.7748813673751640e-01  -1.2048427638840423e-01  -7.6095874708553238e-02  -4.0699930819879986e-02  -1.1302021242038310e-02  1.4276597271536809e-02  3.7614400207258390e-02  5.9924753994236156e-02  8.2254166125740144e-02  1.0565685889362791e-01  1.3137174166847668e-01  1.6102473686479432e-01  1.9685103939890058e-01  2.4180921808785330e-01  2.9901908553178569e-01  3.6865924437977154e-01  4.3789648974572887e-01  4.6228164859068488e-01  -2.4473146618121924e-01  -2.3277683121951881e-01  -1.9402833736604638e-01  -1.4815469996325059e-01  -1.0544064682167750e-01  -6.8534317789543969e-02  -3.6971502359142552e-02  -9.5097645512026551e-03  1.5099494764540937e-02  3.7940295509707810e-02  5.9948450330829545e-02  8.1982570212654773e-02  1.0490951694260958e-01  1.2969006516588541e-01  1.5744569513740722e-01  1.8944631981755214e-01  2.2684312606524287e-01  2.6971500757101480e-01  3.1463963678086532e-01  3.5040290199079088e-01  3.5696269672085329e-01  -1.6659933232759111e-01  -1.6216604706022697e-01  -1.4296609807730715e-01  -1.1516766958897728e-01  -8.5192918972601797e-02  -5.6347324119904181e-02  -2.9705605546047453e-02  -5.2511067113279785e-03  1.7460232793995039e-02  3.9003409958533554e-02  5.9976599245319562e-02  8.0976941989186577e-02  1.0260728072569730e-01  1.2548123774655737e-01  1.5019037439550850e-01  1.7716984115777831e-01  2.0634541412983901e-01  2.3639425413094967e-01  2.6357845801958918e-01  2.8099146183361651e-01  2.8197630204103502e-01  -1.1100439835801013e-01  -1.0974591393963309e-01  -1.0068013319137800e-01  -8.4260081590888852e-02  -6.3837101509915437e-02  -4.2049266916959052e-02  -2.0350462250453828e-02  6.7528866770591672e-04  2.0943753627421506e-02  4.0623320815074630e-02  5.9997973400244722e-02  7.9396378341547919e-02  9.9149708228173400e-02  1.1954734015843768e-01  1.4075793321556865e-01  1.6267463797759452e-01  1.8463911458142776e-01  2.0504290411349496e-01  2.2101342513511943e-01  2.2898924520738859e-01  2.2819916229744167e-01  -7.0963782115686186e-02  -7.1072637069522937e-02  -6.7210178739264978e-02  -5.7641081375588966e-02  -4.3844096302521174e-02  -2.7622894841969607e-02  -1.0295054148219785e-02  7.3731647829077939e-03  2.5024215923270480e-02  4.2555762393939905e-02  6.0005935980664740e-02  7.7474082271187114e-02  9.5059676929071080e-02  1.1279955638376954e-01  1.3058318707616481e-01  1.4802821991431664e-01  1.6431505317171605e-01  1.7803794716134308e-01  1.8728648427125011e-01  1.9050279404443959e-01  1.8919628483680015e-01  -4.1756886491575676e-02  -4.2425619225404484e-02  -4.1202917356418546e-02  -3.5684252784171450e-02  -2.6325076770687864e-02  -1.4263098989523337e-02  -5.3475580557520760e-04  1.4120763431856221e-02  2.9244314085298578e-02  4.4580704659784837e-02  6.0000295923982518e-02  7.5431768170756530e-02  9.0802685502135883e-02  1.0597904333642749e-01  1.2069510889133075e-01  1.3447096662004041e-01  1.4653374631377089e-01  1.5580396205908856e-01  1.6110631510109572e-01  1.6195612891631953e-01  1.6058353477887502e-01  -2.0226309822243639e-02  -2.1084051794008817e-02  -2.1164891004524657e-02  -1.8021862702741399e-02  -1.1591184941592246e-02  -2.5513913595594791e-03  8.3335386734733306e-03  2.0429574903967920e-02  3.3270789119363320e-02  4.6532332072485978e-02  5.9984284879001933e-02  7.3442974920362711e-02  8.6723239477065686e-02  9.9590234489630919e-02  1.1170965650354858e-01  1.2260083286070261e-01  1.3161118131826957e-01  1.3796030172113474e-01  1.4096324272789446e-01  1.4067095482375269e-01  1.3939449703056797e-01  -4.2525111948440051e-03  -5.1324275267569421e-03  -5.8225981955346293e-03  -4.0672905075268004e-03  4.3987236521669012e-04  7.3152521104788608e-03  1.6012064509943729e-02  2.6014076131461901e-02  3.6891600960493820e-02  4.8301027764034200e-02  5.9961871237352804e-02  7.1625729268882637e-02  8.3042829585132663e-02  9.3928478577619642e-02  1.0393196976691309e-01  1.1261439594141261e-01  1.1945089595231971e-01  1.2389174014876053e-01  1.2555845287736955e-01  1.2474962014175943e-01  1.2361727762946832e-01  7.5973907058984845e-03  6.7633213813953538e-03  5.8181502102679049e-03  6.7652853012504614e-03  1.0009633700535151e-02  1.5349215349319061e-02  2.2395521532202558e-02  3.0735889405427333e-02  3.9990291769001284e-02  4.9823371606920949e-02  5.9936376679168679e-02  7.0050058015252908e-02  7.9884109995419311e-02  8.9136688367351113e-02  9.7467712917652716e-02  1.0449201716716916e-01  1.0979397452337294e-01  1.1298781767995490e-01  1.1387959017834284e-01  1.1286826804356324e-01  1.1188032111364701e-01  1.6297172791351587e-02  1.5528624223832738e-02  1.4501539747118387e-02  1.4980024549117456e-02  1.7397004610355832e-02  2.1659142717379558e-02  2.7487305444483995e-02  3.4550241820589828e-02  4.2515995563650356e-02  5.1068839560004339e-02  5.9910051502170970e-02  6.8750715768546300e-02  7.7301190869460856e-02  8.5260710874113257e-02  9.2310691574003803e-02  9.8116651645137318e-02  1.0234715672820563e-01  1.0472744373434453e-01  1.0517163394505638e-01  1.0410792266934145e-01  1.0324517658678420e-01  2.2507649012123532e-02  2.1800882707441006e-02  2.0768358745360177e-02  2.0977748808573841e-02  2.2859310249132667e-02  2.6382901877687586e-02  3.1341781169118781e-02  3.7463965831880386e-02  4.4457258773286025e-02  5.2027471268584397e-02  5.9884138295011678e-02  6.7739828036858699e-02  7.5306655190955266e-02  8.2292920362010649e-02  8.8402853319851857e-02  9.3343207162980696e-02  9.6842865588443391e-02  9.8699167478440625e-02  9.8887729598769777e-02  9.7835231368671838e-02  9.7071571155225231e-02  2.6670122617842178e-02  2.6010345341338295e-02  2.4997883317635663e-02  2.5057138455350760e-02  2.6606150680161027e-02  2.9650095565536945e-02  3.4027449588214499e-02  3.9505902978240248e-02  4.5822171771138655e-02  5.2700126542043320e-02  5.9859109335459779e-02  6.7017198619652593e-02  7.3892218921661396e-02  8.0202841104363168e-02  8.5672146576353816e-02  9.0036515678171281e-02  9.3064601019027235e-02  9.4597845625122801e-02  9.4645230391848703e-02  9.3622402334773425e-02  9.2930290944057234e-02  2.9065438379557183e-02  2.8432741782379159e-02  2.7439681217809479e-02  2.7422816207841406e-02  2.8789278377584552e-02  3.1562160079802004e-02  3.5604789379906264e-02  4.0707589434431084e-02  4.6624657406513136e-02  5.3091562349943222e-02  5.9834919780525284e-02  6.6577763770467702e-02  7.3043016600601016e-02  7.8957004651436846e-02  8.4054980190205936e-02  8.8090973401958303e-02  9.0855986638934544e-02  9.2214881536498899e-02  9.2192626292737431e-02  9.1195156832955815e-02  9.0547800420302013e-02  2.9849891032140773e-02  2.9221863651865229e-02  2.8235151338900893e-02  2.8193514858635242e-02  2.9499560442338889e-02  3.2182401113834129e-02  3.6113746599171756e-02  4.1091601747328017e-02  4.6875844902202021e-02  5.3205991067567744e-02  5.9811219516106268e-02  6.6416447964644340e-02  7.2746594130010361e-02  7.8530837284884678e-02  8.3508692433041015e-02  8.7440037918379315e-02  9.0122878589874986e-02  9.1428924173578785e-02  9.1387287693313168e-02  9.0400575380348624e-02  8.9772548000073213e-02  2.9074638611912472e-02  2.8427282199258653e-02  2.7429812739477172e-02  2.7407557495715384e-02  2.8766452393279768e-02  3.1531465630255412e-02  3.5567458842007536e-02  4.0665434380776334e-02  4.6579422431611325e-02  5.3044675261744410e-02  5.9787519251687002e-02  6.6530876682268966e-02  7.2997781625698990e-02  7.8914849597780903e-02  8.4017649652305945e-02  8.8060278952410517e-02  9.0833160654628847e-02  9.2199622824372079e-02  9.2182757814404312e-02  9.1189697249834473e-02  9.0557000652656608e-02  2.6692148088157393e-02  2.6000036697441220e-02  2.4977208640366053e-02  2.5024593407092059e-02  2.6557838013187347e-02  2.9585923354042677e-02  3.3950292455859926e-02  3.9419597927849943e-02  4.5730220110551160e-02  5.2605240412559748e-02  5.9763329696752313e-02  6.6922312490168584e-02  7.3800267261072985e-02  8.0116536053971441e-02  8.5594989443997724e-02  8.9972343466675597e-02  9.3016288352052057e-02  9.4565300576862216e-02  9.4624555714577924e-02  9.3612093690875628e-02  9.2952316414371683e-02  2.2550867876990201e-02  2.1787207663543633e-02  2.0734709433445811e-02  2.0923271553774922e-02  2.2779573443771774e-02  2.6279231869233591e-02  3.1219585712362115e-02  3.7329518670202566e-02  4.4315783841257367e-02  5.1882610995353587e-02  5.9738300737200371e-02  6.7594967763627570e-02  7.5165180258925532e-02  8.2158473200330720e-02  8.8280657863092957e-02  9.3239537154524349e-02  9.6763128783079924e-02  9.8644690223639170e-02  9.8854080286852802e-02  9.7821556324772130e-02  9.7114790020089797e-02  1.6377262445431768e-02  1.5514516362874504e-02  1.4450805087159754e-02  1.4894995297871449e-02  1.7275282304009949e-02  2.1505787387077455e-02  2.7311747458210533e-02  3.4361728158099993e-02  4.2321248162751623e-02  5.0871723263665541e-02  5.9712387530040434e-02  6.8553599472206961e-02  7.7106443468560645e-02  8.5072197211620793e-02  9.2135133587726806e-02  9.7963296314831499e-02  1.0222543442185628e-01  1.0464241448309494e-01  1.0512089928509402e-01  1.0409381480837972e-01  1.0332526624086102e-01  7.7421179185698840e-03  6.7541709886535534e-03  5.7428488538742240e-03  6.6346213522616351e-03  9.8284645088433566e-03  1.5130421865046272e-02  2.2154726114561811e-02  3.0485750664862168e-02  3.9738329036793196e-02  4.9572381016958648e-02  5.9686062353042295e-02  6.9799067425289588e-02  7.9632147263209024e-02  8.8886549626783107e-02  9.7226917500008128e-02  1.0427322368289201e-01  1.0961280533167644e-01  1.1285715373096122e-01  1.1380428882194414e-01  1.1285911765081694e-01  1.1202504832631396e-01  -3.9948385972502177e-03  -5.1271811095415440e-03  -5.9360138451513443e-03  -4.2693011165427066e-03  1.7154307989727922e-04  7.0080430908032679e-03  1.5690469265301401e-02  2.5693960454593483e-02  3.6579609447079539e-02  4.7996709763328670e-02  5.9660567794857761e-02  7.1321411268175913e-02  8.2730838071716037e-02  9.3608362900748143e-02  1.0361037452226658e-01  1.1230718692173161e-01  1.1918256666699423e-01  1.2368972953973807e-01  1.2544503722774644e-01  1.2475486655896902e-01  1.2387495022705614e-01  -1.9772057998348937e-02  -2.1048515791533728e-02  -2.1340803695675453e-02  -1.8337862688916337e-02  -1.1988742286052154e-02  -2.9783938284865539e-03  7.9127825286658005e-03  2.0032204542582213e-02  3.2899199555146363e-02  4.6179464111848131e-02  5.9638154153208056e-02  7.3090106959723775e-02  8.6351649912846468e-02  9.9192864128241534e-02  1.1128890035873613e-01  1.2217383039176925e-01  1.3121362397380260e-01  1.3764430173495243e-01  1.4078733003673602e-01  1.4070649082622055e-01  1.3984874885445578e-01  -4.0961095746654762e-02  -4.2333689884098892e-02  -4.1483876068875568e-02  -3.6181523026869764e-02  -2.6911307281553068e-02  -1.4848527587824135e-02  -1.0726698591164029e-03  1.3643395695785361e-02  2.8819753530075556e-02  4.4190670861453681e-02  5.9622143108226833e-02  7.5041734372424132e-02  9.0378124946910485e-02  1.0550167560035252e-01  1.2015719483778396e-01  1.3388553802173228e-01  1.4594751580289769e-01  1.5530669181638215e-01  1.6082535638863013e-01  1.6204805825761667e-01  1.6137932552378811e-01  -6.9573845804578163e-02  -7.0880355012217705e-02  -6.7664045239028747e-02  -5.8415508129123064e-02  -4.4692614139497482e-02  -2.8405780882100030e-02  -1.0960748043950213e-02  6.8228826484434619e-03  2.4562762103140422e-02  4.2148356761023020e-02  5.9616503051544346e-02  7.7066676638268716e-02  9.4598223108937854e-02  1.1224927424930006e-01  1.2991749318042789e-01  1.4724533387417812e-01  1.6346653533473085e-01  1.7726352040779975e-01  1.8683261777147703e-01  1.9069507610173592e-01  1.9058622114789955e-01  -1.0857672326521722e-01  -1.0936680617516421e-01  -1.0139098610289562e-01  -8.5420465081273142e-02  -6.5016675549208133e-02  -4.3052198945377811e-02  -2.1135494183353802e-02  7.5098873775837700e-05  2.0472730804038494e-02  4.0226060690662438e-02  5.9624465631964697e-02  7.8999118217134262e-02  9.8678685404787386e-02  1.1894715036450219e-01  1.3997290128266202e-01  1.6167170594916810e-01  1.8345954054212552e-01  2.0388252062310028e-01  2.2030257222359073e-01  2.2936835297184727e-01  2.3062683739022483e-01  -1.6235386300880680e-01  -1.6136902280138860e-01  -1.4395601898736260e-01  -1.1677181509872581e-01  -8.6722975097617699e-02  -5.7547402125560282e-02  -3.0567935363292480e-02  -5.8587987143428879e-03  1.7015158306515586e-02  3.8645497043024828e-02  5.9645839786890933e-02  8.0619029073676435e-02  1.0216220623821451e-01  1.2487354574353707e-01  1.4932804457825685e-01  1.7596976315211468e-01  2.0481535800481290e-01  2.3479010862118982e-01  2.6258853710952174e-01  2.8178848609244339e-01  2.8622177135980842e-01  -2.3734025768861999e-01  -2.3078046295855806e-01  -1.9501719774863480e-01  -1.5009256853878775e-01  -1.0722068703301925e-01  -6.9823880785331582e-02  -3.7823256105189107e-02  -1.0067626133668971e-02  1.4712922089605287e-02  3.7639868819558803e-02  5.9673988701382977e-02  8.1682143522504469e-02  1.0452294426767067e-01  1.2913220358341404e-01  1.5659394139135471e-01  1.8815675682175678e-01  2.2506308585389165e-01  2.6777713899546618e-01  3.1365077639826416e-01  3.5239927025173912e-01  3.6435390521344058e-01  -3.4265920955844581e-01  -3.1827405071348985e-01  -2.4903680534753614e-01  -1.7939664649955428e-01  -1.2218677905562632e-01  -7.7228600366676683e-02  -4.1402297832572876e-02  -1.1749302636256904e-02  1.3965580138590006e-02  3.7368272906476777e-02  5.9697685037979835e-02  8.2008038824957302e-02  1.0534584176067846e-01  1.3092446027425322e-01  1.6032236985209583e-01  1.9571831374077023e-01  2.4010671542062234e-01  2.9711057576973660e-01  3.6851581346196999e-01  4.4359764407031654e-01  4.7469073705732789e-01  -4.8857164017991739e-01  -4.0843832516927514e-01  -2.8953247388757569e-01  -1.9491458981152981e-01  -1.2709054326834215e-01  -7.8026143674516338e-02  -4.0820199686601194e-02  -1.0892974808081978e-02  1.4663293557483435e-02  3.7749969950402591e-02  5.9719299304826862e-02  8.1682776736152277e-02  1.0474975883777961e-01  1.3026383067563721e-01  1.6010369173429673e-01  1.9713082642852309e-01  2.4588713295642195e-01  3.1356737184412914e-01  4.1042266538833533e-01  5.4176313331572856e-01  6.2594774910815565e-01  -5.9532666892141972e-01  -4.4237575130087370e-01  -2.9319536199193535e-01  -1.9205117289733287e-01  -1.2376459333980712e-01  -7.5397277893149928e-02  -3.8938248381171332e-02  -9.6214859240591859e-03  1.5454473646682353e-02  3.8153019141046345e-02  5.9789462437325913e-02  8.1446145094483030e-02  1.0421491913162277e-01  1.2944249460511392e-01  1.5905346095803488e-01  1.9604765142518180e-01  2.4530587180323887e-01  3.1483462960096914e-01  4.1710730957033620e-01  5.6630129951910124e-01  7.8033728964619020e-01  </DataArray> 
</PointData> 
</Piece>
</UnstructuredGrid>
</VTKFile>