<?xml version="1.0"?>
<VTKFile type="UnstructuredGrid"  version="0.1"  >
<UnstructuredGrid>
<Piece  NumberOfPoints="651" NumberOfCells="1200">
<Points>
<DataArray  type="Float64"  NumberOfComponents="3"  format="ascii">0 0 0  50000 0 0  100000 0 0  150000 0 0  200000 0 0  250000 0 0  300000 0 0  350000 0 0  400000 0 0  450000 0 0  500000 0 0  550000 0 0  600000 0 0  650000 0 0  700000 0 0  750000 0 0  800000 0 0  850000 0 0  900000 0 0  950000 0 0  1000000 0 0  0 50000 0  50000 50000 0  100000 50000 0  150000 50000 0  200000 50000 0  250000 50000 0  300000 50000 0  350000 50000 0  400000 50000 0  450000 50000 0  500000 50000 0  550000 50000 0  600000 50000 0  650000 50000 0  700000 50000 0  750000 50000 0  800000 50000 0  850000 50000 0  900000 50000 0  950000 50000 0  1000000 50000 0  0 100000 0  50000 100000 0  100000 100000 0  150000 100000 0  200000 100000 0  250000 100000 0  300000 100000 0  350000 100000 0  400000 100000 0  450000 100000 0  500000 100000 0  550000 100000 0  600000 100000 0  650000 100000 0  700000 100000 0  750000 100000 0  800000 100000 0  850000 100000 0  900000 100000 0  950000 100000 0  1000000 100000 0  0 150000 0  50000 150000 0  100000 150000 0  150000 150000 0  200000 150000 0  250000 150000 0  300000 150000 0  350000 150000 0  400000 150000 0  450000 150000 0  500000 150000 0  550000 150000 0  600000 150000 0  650000 150000 0  700000 150000 0  750000 150000 0  800000 150000 0  850000 150000 0  900000 150000 0  950000 150000 0  1000000 150000 0  0 200000 0  50000 200000 0  100000 200000 0  150000 200000 0  200000 200000 0  250000 200000 0  300000 200000 0  350000 200000 0  400000 200000 0  450000 200000 0  500000 200000 0  550000 200000 0  600000 200000 0  650000 200000 0  700000 200000 0  750000 200000 0  800000 200000 0  850000 200000 0  900000 200000 0  950000 200000 0  1000000 200000 0  0 250000 0  50000 250000 0  100000 250000 0  150000 250000 0  200000 250000 0  250000 250000 0  300000 250000 0  350000 250000 0  400000 250000 0  450000 250000 0  500000 250000 0  550000 250000 0  600000 250000 0  650000 250000 0  700000 250000 0  750000 250000 0  800000 250000 0  850000 250000 0  900000 250000 0  950000 250000 0  1000000 250000 0  0 300000 0  50000 300000 0  100000 300000 0  150000 300000 0  200000 300000 0  250000 300000 0  300000 300000 0  350000 300000 0  400000 300000 0  450000 300000 0  500000 300000 0  550000 300000 0  600000 300000 0  650000 300000 0  700000 300000 0  750000 300000 0  800000 300000 0  850000 300000 0  900000 300000 0  950000 300000 0  1000000 300000 0  0 350000 0  50000 350000 0  100000 350000 0  150000 350000 0  200000 350000 0  250000 350000 0  300000 350000 0  350000 350000 0  400000 350000 0  450000 350000 0  500000 350000 0  550000 350000 0  600000 350000 0  650000 350000 0  700000 350000 0  750000 350000 0  800000 350000 0  850000 350000 0  900000 350000 0  950000 350000 0  1000000 350000 0  0 400000 0  50000 400000 0  100000 400000 0  150000 400000 0  200000 400000 0  250000 400000 0  300000 400000 0  350000 400000 0  400000 400000 0  450000 400000 0  500000 400000 0  550000 400000 0  600000 400000 0  650000 400000 0  700000 400000 0  750000 400000 0  800000 400000 0  850000 400000 0  900000 400000 0  950000 400000 0  1000000 400000 0  0 450000 0  50000 450000 0  100000 450000 0  150000 450000 0  200000 450000 0  250000 450000 0  300000 450000 0  350000 450000 0  400000 450000 0  450000 450000 0  500000 450000 0  550000 450000 0  600000 450000 0  650000 450000 0  700000 450000 0  750000 450000 0  800000 450000 0  850000 450000 0  900000 450000 0  950000 450000 0  1000000 450000 0  0 500000 0  50000 500000 0  100000 500000 0  150000 500000 0  200000 500000 0  250000 500000 0  300000 500000 0  350000 500000 0  400000 500000 0  450000 500000 0  500000 500000 0  550000 500000 0  600000 500000 0  650000 500000 0  700000 500000 0  750000 500000 0  800000 500000 0  850000 500000 0  900000 500000 0  950000 500000 0  1000000 500000 0  0 550000 0  50000 550000 0  100000 550000 0  150000 550000 0  200000 550000 0  250000 550000 0  300000 550000 0  350000 550000 0  400000 550000 0  450000 550000 0  500000 550000 0  550000 550000 0  600000 550000 0  650000 550000 0  700000 550000 0  750000 550000 0  800000 550000 0  850000 550000 0  900000 550000 0  950000 550000 0  1000000 550000 0  0 600000 0  50000 600000 0  100000 600000 0  150000 600000 0  200000 600000 0  250000 600000 0  300000 600000 0  350000 600000 0  400000 600000 0  450000 600000 0  500000 600000 0  550000 600000 0  600000 600000 0  650000 600000 0  700000 600000 0  750000 600000 0  800000 600000 0  850000 600000 0  900000 600000 0  950000 600000 0  1000000 600000 0  0 650000 0  50000 650000 0  100000 650000 0  150000 650000 0  200000 650000 0  250000 650000 0  300000 650000 0  350000 650000 0  400000 650000 0  450000 650000 0  500000 650000 0  550000 650000 0  600000 650000 0  650000 650000 0  700000 650000 0  750000 650000 0  800000 650000 0  850000 650000 0  900000 650000 0  950000 650000 0  1000000 650000 0  0 700000 0  50000 700000 0  100000 700000 0  150000 700000 0  200000 700000 0  250000 700000 0  300000 700000 0  350000 700000 0  400000 700000 0  450000 700000 0  500000 700000 0  550000 700000 0  600000 700000 0  650000 700000 0  700000 700000 0  750000 700000 0  800000 700000 0  850000 700000 0  900000 700000 0  950000 700000 0  1000000 700000 0  0 750000 0  50000 750000 0  100000 750000 0  150000 750000 0  200000 750000 0  250000 750000 0  300000 750000 0  350000 750000 0  400000 750000 0  450000 750000 0  500000 750000 0  550000 750000 0  600000 750000 0  650000 750000 0  700000 750000 0  750000 750000 0  800000 750000 0  850000 750000 0  900000 750000 0  950000 750000 0  1000000 750000 0  0 800000 0  50000 800000 0  100000 800000 0  150000 800000 0  200000 800000 0  250000 800000 0  300000 800000 0  350000 800000 0  400000 800000 0  450000 800000 0  500000 800000 0  550000 800000 0  600000 800000 0  650000 800000 0  700000 800000 0  750000 800000 0  800000 800000 0  850000 800000 0  900000 800000 0  950000 800000 0  1000000 800000 0  0 850000 0  50000 850000 0  100000 850000 0  150000 850000 0  200000 850000 0  250000 850000 0  300000 850000 0  350000 850000 0  400000 850000 0  450000 850000 0  500000 850000 0  550000 850000 0  600000 850000 0  650000 850000 0  700000 850000 0  750000 850000 0  800000 850000 0  850000 850000 0  900000 850000 0  950000 850000 0  1000000 850000 0  0 900000 0  50000 900000 0  100000 900000 0  150000 900000 0  200000 900000 0  250000 900000 0  300000 900000 0  350000 900000 0  400000 900000 0  450000 900000 0  500000 900000 0  550000 900000 0  600000 900000 0  650000 900000 0  700000 900000 0  750000 900000 0  800000 900000 0  850000 900000 0  900000 900000 0  950000 900000 0  1000000 900000 0  0 950000 0  50000 950000 0  100000 950000 0  150000 950000 0  200000 950000 0  250000 950000 0  300000 950000 0  350000 950000 0  400000 950000 0  450000 950000 0  500000 950000 0  550000 950000 0  600000 950000 0  650000 950000 0  700000 950000 0  750000 950000 0  800000 950000 0  850000 950000 0  900000 950000 0  950000 950000 0  1000000 950000 0  0 1000000 0  50000 1000000 0  100000 1000000 0  150000 1000000 0  200000 1000000 0  250000 1000000 0  300000 1000000 0  350000 1000000 0  400000 1000000 0  450000 1000000 0  500000 1000000 0  550000 1000000 0  600000 1000000 0  650000 1000000 0  700000 1000000 0  750000 1000000 0  800000 1000000 0  850000 1000000 0  900000 1000000 0  950000 1000000 0  1000000 1000000 0  0 1050000 0  50000 1050000 0  100000 1050000 0  150000 1050000 0  200000 1050000 0  250000 1050000 0  300000 1050000 0  350000 1050000 0  400000 1050000 0  450000 1050000 0  500000 1050000 0  550000 1050000 0  600000 1050000 0  650000 1050000 0  700000 1050000 0  750000 1050000 0  800000 1050000 0  850000 1050000 0  900000 1050000 0  950000 1050000 0  1000000 1050000 0  0 1100000 0  50000 1100000 0  100000 1100000 0  150000 1100000 0  200000 1100000 0  250000 1100000 0  300000 1100000 0  350000 1100000 0  400000 1100000 0  450000 1100000 0  500000 1100000 0  550000 1100000 0  600000 1100000 0  650000 1100000 0  700000 1100000 0  750000 1100000 0  800000 1100000 0  850000 1100000 0  900000 1100000 0  950000 1100000 0  1000000 1100000 0  0 1150000 0  50000 1150000 0  100000 1150000 0  150000 1150000 0  200000 1150000 0  250000 1150000 0  300000 1150000 0  350000 1150000 0  400000 1150000 0  450000 1150000 0  500000 1150000 0  550000 1150000 0  600000 1150000 0  650000 1150000 0  700000 1150000 0  750000 1150000 0  800000 1150000 0  850000 1150000 0  900000 1150000 0  950000 1150000 0  1000000 1150000 0  0 1200000 0  50000 1200000 0  100000 1200000 0  150000 1200000 0  200000 1200000 0  250000 1200000 0  300000 1200000 0  350000 1200000 0  400000 1200000 0  450000 1200000 0  500000 1200000 0  550000 1200000 0  600000 1200000 0  650000 1200000 0  700000 1200000 0  750000 1200000 0  800000 1200000 0  850000 1200000 0  900000 1200000 0  950000 1200000 0  1000000 1200000 0  0 1250000 0  50000 1250000 0  100000 1250000 0  150000 1250000 0  200000 1250000 0  250000 1250000 0  300000 1250000 0  350000 1250000 0  400000 1250000 0  450000 1250000 0  500000 1250000 0  550000 1250000 0  600000 1250000 0  650000 1250000 0  700000 1250000 0  750000 1250000 0  800000 1250000 0  850000 1250000 0  900000 1250000 0  950000 1250000 0  1000000 1250000 0  0 1300000 0  50000 1300000 0  100000 1300000 0  150000 1300000 0  200000 1300000 0  250000 1300000 0  300000 1300000 0  350000 1300000 0  400000 1300000 0  450000 1300000 0  500000 1300000 0  550000 1300000 0  600000 1300000 0  650000 1300000 0  700000 1300000 0  750000 1300000 0  800000 1300000 0  850000 1300000 0  900000 1300000 0  950000 1300000 0  1000000 1300000 0  0 1350000 0  50000 1350000 0  100000 1350000 0  150000 1350000 0  200000 1350000 0  250000 1350000 0  300000 1350000 0  350000 1350000 0  400000 1350000 0  450000 1350000 0  500000 1350000 0  550000 1350000 0  600000 1350000 0  650000 1350000 0  700000 135
[...]
<PointData  Scalars="f_3013"> 
<DataArray  type="Float64"  Name="f_3013"  format="ascii">-1.1699689348210482e+00  -7.9346609775852184e-01  -5.3024972987927022e-01  -3.5070148253192113e-01  -2.3025109190788934e-01  -1.4680983619096971e-01  -8.6006934135093235e-02  -3.8965693279422314e-02  -1.5835352310819385e-04  3.4005129960008852e-02  6.6062013717724119e-02  9.8081635593523148e-02  1.3211603529382496e-01  1.7064568661274387e-01  2.1715107677525364e-01  2.7698624008087297e-01  3.5882898535228297e-01  4.7706293944845019e-01  6.5456162580165700e-01  9.1744700335997553e-01  1.1859537498076000e+00  -9.0069724671646056e-01  -7.5219238540524025e-01  -5.2004920741953198e-01  -3.4987785220451012e-01  -2.3253196155089373e-01  -1.4979822860444489e-01  -8.8738540059894011e-02  -4.1084187282958123e-02  -1.5593990819877733e-03  3.3341422775904149e-02  6.6150181506488812e-02  9.8969363620089706e-02  1.3390515451055274e-01  1.7350468535769620e-01  2.2131414095467855e-01  2.8269344788025941e-01  3.6598348874487657e-01  4.8360670802696448e-01  6.4982400308683141e-01  8.5976172546200358e-01  1.0004390650569159e+00  -6.3756193037617170e-01  -5.8248273678226725e-01  -4.4965387969439669e-01  -3.2429698889265607e-01  -2.2555127943154282e-01  -1.5014114117910785e-01  -9.1470680720913314e-02  -4.4045666710756444e-02  -3.8271988184457170e-03  3.2142220441868583e-02  6.6156867366874456e-02  1.0020611513852529e-01  1.3629339465860235e-01  1.7675955037440214e-01  2.2464874518381192e-01  2.8410384780284637e-01  3.6055836954451181e-01  4.5970658811056764e-01  5.8192466297858114e-01  7.0424656286852116e-01  7.4699275115251196e-01  -4.4568568989016272e-01  -4.2444337441698959e-01  -3.5601005731101820e-01  -2.7581766231814331e-01  -2.0216540783924436e-01  -1.3964524447441587e-01  -8.7288205963889642e-02  -4.2739969462254536e-02  -3.6403407483287260e-03  3.2070518694209793e-02  6.6181563868882562e-02  1.0034027333509485e-01  1.3620937953355919e-01  1.7562399164506484e-01  2.2071335892451385e-01  2.7387818725858964e-01  3.3730854915164293e-01  4.1127217760013768e-01  4.8976330660589723e-01  5.5279078372413892e-01  5.6426478267352309e-01  -3.0965673415095613e-01  -3.0182373318855105e-01  -2.6825059425071157e-01  -2.2016980911440218e-01  -1.6899310808931578e-01  -1.2050139562329483e-01  -7.6490186387124001e-02  -3.6812552634911878e-02  -5.6337320320746706e-04  3.3392463988000422e-02  6.6228509507338898e-02  9.9114956914421834e-02  1.3323268186029011e-01  1.6978422590822922e-01  2.0993607993337260e-01  2.5457802388542783e-01  3.0369036307058828e-01  3.5502026630648453e-01  4.0199145246727302e-01  4.3232115874512711e-01  4.3395471306277400e-01  -2.1266294922581053e-01  -2.1057574450646319e-01  -1.9524620374337429e-01  -1.6749391627981133e-01  -1.3323869520360337e-01  -9.7099473798122116e-02  -6.1577567661843392e-02  -2.7622370108722517e-02  4.7081683017045654e-03  3.5806603491209288e-02  6.6271469888340886e-02  9.6780948639786743e-02  1.2801803535475451e-01  1.6059175889700789e-01  1.9489592095036659e-01  2.3083136438556573e-01  2.6731101583570410e-01  3.0154609105109725e-01  3.2848470960914739e-01  3.4183627211541318e-01  3.4025385800967217e-01  -1.4265861384448353e-01  -1.4311007702765727e-01  -1.3727446172473262e-01  -1.2184845381111478e-01  -9.9379745895331550e-02  -7.3020407502507712e-02  -4.5056332599615244e-02  -1.6786046289610078e-02  1.1225038928320713e-02  3.8869748046180201e-02  6.6293327718873835e-02  9.3751151249143114e-02  1.2149898834082874e-01  1.4968011492158720e-01  1.7817271873507412e-01  2.0636571356073316e-01  2.3286108214372675e-01  2.5520761455326474e-01  2.7005474103088284e-01  2.7471892567673994e-01  2.7212475991979562e-01  -9.1537450724321748e-02  -9.3074111372800528e-02  -9.2138651761985796e-02  -8.4055186587660174e-02  -6.9508973172241681e-02  -5.0475164016484012e-02  -2.8758959059533854e-02  -5.6305352922733209e-03  1.8146083490883490e-02  4.2175837262448765e-02  6.6290901239677513e-02  9.0429065868818034e-02  1.1452616462685440e-01  1.3840657737887510e-01  1.6165603659628164e-01  1.8347205369282393e-01  2.0252122604857994e-01  2.1691659123677887e-01  2.2461169190058033e-01  2.2487279254399878e-01  2.2207648684096701e-01  -5.3877685722032685e-02  -5.5813475275143423e-02  -5.7344511588703066e-02  -5.3593382067197000e-02  -4.4285586443333746e-02  -3.0579897687187982e-02  -1.3808499521564939e-02  4.9315132499113392e-03  2.4850249139403688e-02  4.5415616515980632e-02  6.6268867016792174e-02  8.7135673571170622e-02  1.0773901320085810e-01  1.2771117321852310e-01  1.4650268493154014e-01  1.6329621730600266e-01  1.7695955534293847e-01  1.8612846987899215e-01  1.8963071533825943e-01  1.8771975938848828e-01  1.8503402713472034e-01  -2.6019476182058458e-02  -2.8030861375612039e-02  -3.0733430897748274e-02  -2.9515979766897682e-02  -2.3645385284919045e-02  -1.3751892454373875e-02  -7.8661634103611294e-04  1.4354260058207830e-02  3.0935567997298664e-02  4.8381785538369276e-02  6.6234115013268632e-02  8.4092986997106184e-02  1.0155632117776558e-01  1.1815758213659747e-01  1.3330811532796272e-01  1.4625549087056183e-01  1.5608697748256814e-01  1.6184494922755449e-01  1.6290771746010441e-01  1.5999510919534410e-01  1.5753165385571624e-01  -5.4599727858210718e-03  -7.4036403543251052e-03  -1.0595858738535266e-02  -1.0842069363367098e-02  -7.2160436572531288e-03  -1.8923190637495486e-05  1.0078912138288538e-02  2.2361139418406208e-02  3.6174693671112368e-02  5.0951546391525764e-02  6.6192742866003240e-02  8.1435981767983001e-02  9.6217006379994821e-02  1.1003112582191013e-01  1.2230150123852847e-01  1.3236537108629592e-01  1.3950057453554715e-01  1.4304132201517608e-01  1.4270097983594485e-01  1.3939508769216943e-01  1.3717651339243556e-01  9.5306214988010955e-03  7.7053181120521341e-03  4.3684686188020421e-03  3.2921959399304177e-03  5.4625991149961743e-03  1.0778106077108511e-02  1.8764751696308028e-02  2.8849616327728745e-02  4.0461627481189595e-02  5.3062893662859101e-02  6.6149033827991921e-02  7.9234766287479552e-02  9.1833452682206398e-02  1.0343688319722034e-01  1.1350178388799281e-01  1.2145226197808535e-01  1.2671490130410817e-01  1.2882377697069880e-01  1.2769127343414152e-01  1.2429462524851974e-01  1.2230200696921262e-01  2.0150307057484208e-02  1.8445275601314249e-02  1.5120783533016401e-02  1.3586592262100452e-02  1.4828477950218973e-02  1.8862904235599096e-02  2.5347677732214614e-02  3.3815618673293114e-02  4.3764716605699881e-02  5.4692454052837555e-02  6.6105461193208800e-02  7.7517089624137420e-02  8.8439834037552095e-02  9.8377985338233928e-02  1.0682600813218146e-01  1.1327984784280216e-01  1.1727390153856189e-01  1.1847372359132577e-01  1.1690683739925628e-01  1.1355214887546838e-01  1.1174695921075395e-01  2.7216330275190014e-02  2.5607450208274936e-02  2.2346715856611517e-02  2.0570986079866193e-02  2.1245428119525206e-02  2.4453673368093388e-02  2.9936952682431014e-02  3.7299661492954383e-02  4.6090639531330628e-02  5.5837845673645393e-02  6.6063077119796629e-02  7.6286926825524209e-02  8.6029502480659686e-02  9.4811313606646047e-02  1.0215878978559856e-01  1.0762008970132356e-01  1.1080142316602516e-01  1.1144976089062618e-01  1.0965619493465914e-01  1.0638122853672448e-01  1.0471600238127808e-01  3.1258907989188976e-02  2.9708014790252504e-02  2.6504137044854915e-02  2.4613118306028837e-02  2.4980489853119948e-02  2.7724532472599751e-02  3.2632854496836505e-02  3.9351223984958376e-02  4.7459298379352866e-02  5.6505040383615854e-02  6.6021962391897296e-02  7.5538065073416011e-02  8.4581133522834417e-02  9.2684119693948797e-02  9.9394363505548047e-02  1.0429137158082000e-01  1.0702201703088111e-01  1.0737690912961463e-01  1.0547805606565609e-01  1.0226863930865930e-01  1.0069240916232143e-01  3.2577466709676567e-02  3.1038790537492526e-02  2.7855318791301292e-02  2.5928312736660998e-02  2.6194949725845733e-02  2.8785298191517750e-02  3.3502751705662810e-02  4.0006958890996418e-02  4.7887862108450231e-02  5.6700189038250075e-02  6.5981616224053088e-02  7.5263043409855596e-02  8.4075370339656078e-02  9.1956273557110627e-02  9.8460480742444637e-02  1.0317793425659103e-01  1.0576828272226393e-01  1.0603491971144929e-01  1.0410791365680905e-01  1.0092444191061760e-01  9.9385765738433773e-02  3.1270823285789652e-02  2.9694593139451754e-02  2.6485176382455178e-02  2.4586323318496101e-02  2.4941215417229434e-02  2.7671860867289337e-02  3.2568868942560607e-02  3.9279112754158955e-02  4.7382098925271711e-02  5.6425167374689576e-02  6.5941270056208381e-02  7.5458192064489699e-02  8.4503934068752840e-02  9.2612008463147322e-02  9.9330377951270032e-02  1.0423869997550760e-01  1.0698274259498897e-01  1.0735011414208040e-01  1.0545909540325499e-01  1.0225521765785733e-01  1.0070432445892119e-01  2.7247230066833078e-02  2.5582003911386868e-02  2.2307037513452234e-02  2.0513471557485365e-02  2.1161809282085772e-02  2.4343142746785854e-02  2.9804442662510346e-02  3.7151918841461469e-02  4.5933729967446775e-02  5.5676305622581537e-02  6.5900155328308549e-02  7.6125386774459486e-02  8.5872592916773974e-02  9.4663570955150586e-02  1.0202627976567517e-01  1.0750955908001369e-01  1.1071780432858302e-01  1.1139224636824205e-01  1.0961651659149799e-01  1.0635578223983518e-01  1.0474690217292013e-01  2.0216273237358324e-02  1.8411083572644052e-02  1.5056395048856353e-02  1.3489508856786772e-02  1.4689330909549792e-02  1.8683384605307815e-02  2.5137224315927530e-02  3.3585247109873456e-02  4.3523398410554075e-02  5.4446142823967723e-02  6.5857771254895794e-02  7.7270778395266831e-02  8.8198515842404124e-02  9.8147613774810558e-02  1.0661555471589031e-01  1.1310032821250655e-01  1.1713475449788821e-01  1.1837664018600759e-01  1.1684244891509184e-01  1.1351795684679430e-01  1.1181292539062465e-01  9.6612254789002015e-03  7.6686071995931242e-03  4.2719590139718659e-03  3.1394554774140065e-03  5.2483311440038810e-03  1.0510970470024901e-02  1.8461448560116309e-02  2.8526349250886616e-02  4.0129779765898980e-02  5.2728466160624418e-02  6.5814198620111175e-02  7.8900338785243690e-02  9.1501604966912953e-02  1.0311361612037341e-01  1.1319848075179488e-01  1.2118512637099516e-01  1.2650063333310979e-01  1.2867103650817621e-01  1.2759476382930482e-01  1.2425791433605486e-01  1.2243261094930628e-01  -5.2132809443215166e-03  -7.4318552440554332e-03  -1.0737747387830329e-02  -1.1078089567062461e-02  -7.5373420874341622e-03  -4.0213863818478271e-04  9.6617312095804500e-03  2.1932106626196223e-02  3.5746226068109933e-02  5.0527250680119692e-02  6.5770489582098246e-02  8.1011686056575105e-02  9.5788538776988286e-02  1.0960209302969487e-01  1.2188432030981342e-01  1.3198215563874061e-01  1.3917927610535760e-01  1.4280530181147211e-01  1.4255909118664128e-01  1.3936687280243160e-01  1.3742320523392779e-01  -2.5568421407600468e-02  -2.8031876747228745e-02  -3.0944485011988154e-02  -2.9881716779439051e-02  -2.4123745034454323e-02  -1.4292258422450549e-02  -1.3448828798543406e-03  1.3805650311507857e-02  3.0406911270337914e-02  4.7870245450995469e-02  6.5729117434831369e-02  8.3581446909730114e-02  1.0102766445080034e-01  1.1760897238989181e-01  1.3274984878913698e-01  1.4571512490247557e-01  1.5560861773302184e-01  1.6147921221500150e-01  1.6269666334585348e-01  1.5999409382371779e-01  1.5798270863016420e-01  -5.3070794686603417e-02  -5.5756526940371497e-02  -5.7667482890142063e-02  -5.4165237430875902e-02  -4.4996322894824338e-02  -3.1332984857891502e-02  -1.4539452483432483e-02  4.2520592295816131e-03  2.4224219247244175e-02  4.4827558876929373e-02  6.5694365431305954e-02  8.6547615932117128e-02  1.0711298330869412e-01  1.2703171919818657e-01  1.4577173196966375e-01  1.6254313013528771e-01  1.7624881889143504e-01  1.8555661451530006e-01  1.8930774403680720e-01  1.8777670772324856e-01  1.8584091817013856e-01  -9.0113254392848174e-02  -9.2909560095879126e-02  -9.2648459452461349e-02  -8.4953358788662434e-02  -7.0557993600465496e-02  -5.1508821244712670e-02  -2.9692804148174608e-02  -6.4433449307714306e-03  1.7437067821246054e-02  4.1534166579280052e-02  6.5672331208418699e-02  8.9787395185646948e-02  1.1381714895721229e-01  1.3759376774036930e-01  1.6072219150763062e-01  1.8243839646458185e-01  2.0147220562034179e-01  2.1601841903576202e-01  2.2410188421008981e-01  2.2503734382090618e-01  2.2350068317242791e-01  -1.4016152747167374e-01  -1.4275569322861811e-01  -1.3809150858276220e-01  -1.2324438210514663e-01  -1.0089784969561157e-01  -7.4402481112621793e-02  -4.6209486286966979e-02  -1.7716882473483585e-02  1.0464244107271517e-02  3.8212081198954292e-02  6.5669904729221434e-02  9.3093484401914409e-02  1.2073819351977350e-01  1.4874927873770402e-01  1.7701956504771041e-01  2.0498363995060431e-01  2.3134297834343104e-01  2.5381168625921707e-01  2.6923769417283749e-01  2.7507330947576430e-01  2.7462184629259145e-01  -2.0829062556154540e-01  -2.0987303966728654e-01  -1.9652147716102197e-01  -1.6958285860297567e-01  -1.3534778338758693e-01  -9.8868131937454307e-02  -6.2932688502259235e-02  -2.8628526448903614e-02  3.9451970933460263e-03  3.5182283808310628e-02  6.5691762559754729e-02  9.6156628956885537e-02  1.2725506414639040e-01  1.5958560255681692e-01  1.9354080010993865e-01  2.2906270624621972e-01  2.6520192765170375e-01  2.9945714872791507e-01  3.2720943619148074e-01  3.4253897695457297e-01  3.4462618167392162e-01  -3.0199148061463998e-01  -3.0035792629699376e-01  -2.7002822001914140e-01  -2.2305703385835898e-01  -1.7172713062246783e-01  -1.2261479143731392e-01  -7.7972847485262911e-02  -3.7820993460123138e-02  -1.2694494121878138e-03  3.2848275533677564e-02  6.5734722940758730e-02  9.8570768460096436e-02  1.3252660565130381e-01  1.6877578508300825e-01  2.0845341883522145e-01  2.5246462807139575e-01  3.0095634053741860e-01  3.5213304156250858e-01  4.0021382669882238e-01  4.3378696563666569e-01  4.4161996659907232e-01  -4.3230155022537942e-01  -4.2082755127599597e-01  -3.5780007415775905e-01  -2.7930894515200588e-01  -2.0534531670351791e-01  -1.4191495481047101e-01  -8.8750126476400057e-02  -4.3660759196954974e-02  -4.2461470854529542e-03  3.1622959113008706e-02  6.5781668579218938e-02  9.9892713753891554e-02  1.3560357319642927e-01  1.7470320191035568e-01  2.1925143841199299e-01  2.7160847692252177e-01  3.3412864028735351e-01  4.0778089476625595e-01  4.8797328975913529e-01  5.5640660686511167e-01  5.7764892233828691e-01  -6.1502951870435629e-01  -5.7228333042036528e-01  -4.4996143053043369e-01  -3.2774335566242818e-01  -2.2859513709638046e-01  -1.5214061535472104e-01  -9.2685512735692019e-02  -4.4796317926286196e-02  -4.3301622104904743e-03  3.1757117309584297e-02  6.5806365081233553e-02  9.9821012006238996e-02  1.3579043126655307e-01  1.7600889915886411e-01  2.2343391316902345e-01  2.8210437362722129e-01  3.5751451187965994e-01  4.5626022134077748e-01  5.8161711214252410e-01  7.1444596923039894e-01  7.6952516282430872e-01  -8.6847583260875194e-01  -7.2779849301384114e-01  -5.1786077063867864e-01  -3.5164347557881931e-01  -2.3402025629673814e-01  -1.5073021543212720e-01  -8.9350908506551807e-02  -4.1541452909573826e-02  -1.9419220624341230e-03  3.2993868828026469e-02  6.5813050941625428e-02  9.8621809672210015e-02  1.3352263153010205e-01  1.7304741973107365e-01  2.2070177250801212e-01  2.8176146105256572e-01  3.6449519399902025e-01  4.8184108465264197e-01  6.5201243986767266e-01  8.8415561785338403e-01  1.0326604791646070e+00  -1.0539905173594322e+00  -7.8548377091180910e-01  -5.2259839335349889e-01  -3.4509970700030129e-01  -2.2686575290414115e-01  -1.4502300763273832e-01  -8.5187844327124410e-02  -3.8682454164619642e-02  -1.5280284570391015e-04  3.3881596854595457e-02  6.5901218730392716e-02  9.7958102488107213e-02  1.3212158597122506e-01  1.7092892572754056e-01  2.1797016658321428e-01  2.7877306863909368e-01  3.6221432435601930e-01  4.8266471498005764e-01  6.6221296232741345e-01  9.2542933020667228e-01  1.3019321672692017e+00  </DataArray> 
</PointData> 
</Piece>
</UnstructuredGrid>
</VTKFile>