<?xml version="1.0"?>
<VTKFile type="UnstructuredGrid"  version="0.1"  >
<UnstructuredGrid>
<Piece  NumberOfPoints="651" NumberOfCells="1200">
<Points>
<DataArray  type="Float64"  NumberOfComponents="3"  format="ascii">0 0 0  50000 0 0  100000 0 0  150000 0 0  200000 0 0  250000 0 0  300000 0 0  350000 0 0  400000 0 0  450000 0 0  500000 0 0  550000 0 0  600000 0 0  650000 0 0  700000 0 0  750000 0 0  800000 0 0  850000 0 0  900000 0 0  950000 0 0  1000000 0 0  0 50000 0  50000 50000 0  100000 50000 0  150000 50000 0  200000 50000 0  250000 50000 0  300000 50000 0  350000 50000 0  400000 50000 0  450000 50000 0  500000 50000 0  550000 50000 0  600000 50000 0  650000 50000 0  700000 50000 0  750000 50000 0  800000 50000 0  850000 50000 0  900000 50000 0  950000 50000 0  1000000 50000 0  0 100000 0  50000 100000 0  100000 100000 0  150000 100000 0  200000 100000 0  250000 100000 0  300000 100000 0  350000 100000 0  400000 100000 0  450000 100000 0  500000 100000 0  550000 100000 0  600000 100000 0  650000 100000 0  700000 100000 0  750000 100000 0  800000 100000 0  850000 100000 0  900000 100000 0  950000 100000 0  1000000 100000 0  0 150000 0  50000 150000 0  100000 150000 0  150000 150000 0  200000 150000 0  250000 150000 0  300000 150000 0  350000 150000 0  400000 150000 0  450000 150000 0  500000 150000 0  550000 150000 0  600000 150000 0  650000 150000 0  700000 150000 0  750000 150000 0  800000 150000 0  850000 150000 0  900000 150000 0  950000 150000 0  1000000 150000 0  0 200000 0  50000 200000 0  100000 200000 0  150000 200000 0  200000 200000 0  250000 200000 0  300000 200000 0  350000 200000 0  400000 200000 0  450000 200000 0  500000 200000 0  550000 200000 0  600000 200000 0  650000 200000 0  700000 200000 0  750000 200000 0  800000 200000 0  850000 200000 0  900000 200000 0  950000 200000 0  1000000 200000 0  0 250000 0  50000 250000 0  100000 250000 0  150000 250000 0  200000 250000 0  250000 250000 0  300000 250000 0  350000 250000 0  400000 250000 0  450000 250000 0  500000 250000 0  550000 250000 0  600000 250000 0  650000 250000 0  700000 250000 0  750000 250000 0  800000 250000 0  850000 250000 0  900000 250000 0  950000 250000 0  1000000 250000 0  0 300000 0  50000 300000 0  100000 300000 0  150000 300000 0  200000 300000 0  250000 300000 0  300000 300000 0  350000 300000 0  400000 300000 0  450000 300000 0  500000 300000 0  550000 300000 0  600000 300000 0  650000 300000 0  700000 300000 0  750000 300000 0  800000 300000 0  850000 300000 0  900000 300000 0  950000 300000 0  1000000 300000 0  0 350000 0  50000 350000 0  100000 350000 0  150000 350000 0  200000 350000 0  250000 350000 0  300000 350000 0  350000 350000 0  400000 350000 0  450000 350000 0  500000 350000 0  550000 350000 0  600000 350000 0  650000 350000 0  700000 350000 0  750000 350000 0  800000 350000 0  850000 350000 0  900000 350000 0  950000 350000 0  1000000 350000 0  0 400000 0  50000 400000 0  100000 400000 0  150000 400000 0  200000 400000 0  250000 400000 0  300000 400000 0  350000 400000 0  400000 400000 0  450000 400000 0  500000 400000 0  550000 400000 0  600000 400000 0  650000 400000 0  700000 400000 0  750000 400000 0  800000 400000 0  850000 400000 0  900000 400000 0  950000 400000 0  1000000 400000 0  0 450000 0  50000 450000 0  100000 450000 0  150000 450000 0  200000 450000 0  250000 450000 0  300000 450000 0  350000 450000 0  400000 450000 0  450000 450000 0  500000 450000 0  550000 450000 0  600000 450000 0  650000 450000 0  700000 450000 0  750000 450000 0  800000 450000 0  850000 450000 0  900000 450000 0  950000 450000 0  1000000 450000 0  0 500000 0  50000 500000 0  100000 500000 0  150000 500000 0  200000 500000 0  250000 500000 0  300000 500000 0  350000 500000 0  400000 500000 0  450000 500000 0  500000 500000 0  550000 500000 0  600000 500000 0  650000 500000 0  700000 500000 0  750000 500000 0  800000 500000 0  850000 500000 0  900000 500000 0  950000 500000 0  1000000 500000 0  0 550000 0  50000 550000 0  100000 550000 0  150000 550000 0  200000 550000 0  250000 550000 0  300000 550000 0  350000 550000 0  400000 550000 0  450000 550000 0  500000 550000 0  550000 550000 0  600000 550000 0  650000 550000 0  700000 550000 0  750000 550000 0  800000 550000 0  850000 550000 0  900000 550000 0  950000 550000 0  1000000 550000 0  0 600000 0  50000 600000 0  100000 600000 0  150000 600000 0  200000 600000 0  250000 600000 0  300000 600000 0  350000 600000 0  400000 600000 0  450000 600000 0  500000 600000 0  550000 600000 0  600000 600000 0  650000 600000 0  700000 600000 0  750000 600000 0  800000 600000 0  850000 600000 0  900000 600000 0  950000 600000 0  1000000 600000 0  0 650000 0  50000 650000 0  100000 650000 0  150000 650000 0  200000 650000 0  250000 650000 0  300000 650000 0  350000 650000 0  400000 650000 0  450000 650000 0  500000 650000 0  550000 650000 0  600000 650000 0  650000 650000 0  700000 650000 0  750000 650000 0  800000 650000 0  850000 650000 0  900000 650000 0  950000 650000 0  1000000 650000 0  0 700000 0  50000 700000 0  100000 700000 0  150000 700000 0  200000 700000 0  250000 700000 0  300000 700000 0  350000 700000 0  400000 700000 0  450000 700000 0  500000 700000 0  550000 700000 0  600000 700000 0  650000 700000 0  700000 700000 0  750000 700000 0  800000 700000 0  850000 700000 0  900000 700000 0  950000 700000 0  1000000 700000 0  0 750000 0  50000 750000 0  100000 750000 0  150000 750000 0  200000 750000 0  250000 750000 0  300000 750000 0  350000 750000 0  400000 750000 0  450000 750000 0  500000 750000 0  550000 750000 0  600000 750000 0  650000 750000 0  700000 750000 0  750000 750000 0  800000 750000 0  850000 750000 0  900000 750000 0  950000 750000 0  1000000 750000 0  0 800000 0  50000 800000 0  100000 800000 0  150000 800000 0  200000 800000 0  250000 800000 0  300000 800000 0  350000 800000 0  400000 800000 0  450000 800000 0  500000 800000 0  550000 800000 0  600000 800000 0  650000 800000 0  700000 800000 0  750000 800000 0  800000 800000 0  850000 800000 0  900000 800000 0  950000 800000 0  1000000 800000 0  0 850000 0  50000 850000 0  100000 850000 0  150000 850000 0  200000 850000 0  250000 850000 0  300000 850000 0  350000 850000 0  400000 850000 0  450000 850000 0  500000 850000 0  550000 850000 0  600000 850000 0  650000 850000 0  700000 850000 0  750000 850000 0  800000 850000 0  850000 850000 0  900000 850000 0  950000 850000 0  1000000 850000 0  0 900000 0  50000 900000 0  100000 900000 0  150000 900000 0  200000 900000 0  250000 900000 0  300000 900000 0  350000 900000 0  400000 900000 0  450000 900000 0  500000 900000 0  550000 900000 0  600000 900000 0  650000 900000 0  700000 900000 0  750000 900000 0  800000 900000 0  850000 900000 0  900000 900000 0  950000 900000 0  1000000 900000 0  0 950000 0  50000 950000 0  100000 950000 0  150000 950000 0  200000 950000 0  250000 950000 0  300000 950000 0  350000 950000 0  400000 950000 0  450000 950000 0  500000 950000 0  550000 950000 0  600000 950000 0  650000 950000 0  700000 950000 0  750000 950000 0  800000 950000 0  850000 950000 0  900000 950000 0  950000 950000 0  1000000 950000 0  0 1000000 0  50000 1000000 0  100000 1000000 0  150000 1000000 0  200000 1000000 0  250000 1000000 0  300000 1000000 0  350000 1000000 0  400000 1000000 0  450000 1000000 0  500000 1000000 0  550000 1000000 0  600000 1000000 0  650000 1000000 0  700000 1000000 0  750000 1000000 0  800000 1000000 0  850000 1000000 0  900000 1000000 0  950000 1000000 0  1000000 1000000 0  0 1050000 0  50000 1050000 0  100000 1050000 0  150000 1050000 0  200000 1050000 0  250000 1050000 0  300000 1050000 0  350000 1050000 0  400000 1050000 0  450000 1050000 0  500000 1050000 0  550000 1050000 0  600000 1050000 0  650000 1050000 0  700000 1050000 0  750000 1050000 0  800000 1050000 0  850000 1050000 0  900000 1050000 0  950000 1050000 0  1000000 1050000 0  0 1100000 0  50000 1100000 0  100000 1100000 0  150000 1100000 0  200000 1100000 0  250000 1100000 0  300000 1100000 0  350000 1100000 0  400000 1100000 0  450000 1100000 0  500000 1100000 0  550000 1100000 0  600000 1100000 0  650000 1100000 0  700000 1100000 0  750000 1100000 0  800000 1100000 0  850000 1100000 0  900000 1100000 0  950000 1100000 0  1000000 1100000 0  0 1150000 0  50000 1150000 0  100000 1150000 0  150000 1150000 0  200000 1150000 0  250000 1150000 0  300000 1150000 0  350000 1150000 0  400000 1150000 0  450000 1150000 0  500000 1150000 0  550000 1150000 0  600000 1150000 0  650000 1150000 0  700000 1150000 0  750000 1150000 0  800000 1150000 0  850000 1150000 0  900000 1150000 0  950000 1150000 0  1000000 1150000 0  0 1200000 0  50000 1200000 0  100000 1200000 0  150000 1200000 0  200000 1200000 0  250000 1200000 0  300000 1200000 0  350000 1200000 0  400000 1200000 0  450000 1200000 0  500000 1200000 0  550000 1200000 0  600000 1200000 0  650000 1200000 0  700000 1200000 0  750000 1200000 0  800000 1200000 0  850000 1200000 0  900000 1200000 0  950000 1200000 0  1000000 1200000 0  0 1250000 0  50000 1250000 0  100000 1250000 0  150000 1250000 0  200000 1250000 0  250000 1250000 0  300000 1250000 0  350000 1250000 0  400000 1250000 0  450000 1250000 0  500000 1250000 0  550000 1250000 0  600000 1250000 0  650000 1250000 0  700000 1250000 0  750000 1250000 0  800000 1250000 0  850000 1250000 0  900000 1250000 0  950000 1250000 0  1000000 1250000 0  0 1300000 0  50000 1300000 0  100000 1300000 0  150000 1300000 0  200000 1300000 0  250000 1300000 0  300000 1300000 0  350000 1300000 0  400000 1300000 0  450000 1300000 0  500000 1300000 0  550000 1300000 0  600000 1300000 0  650000 1300000 0  700000 1300000 0  750000 1300000 0  800000 1300000 0  850000 1300000 0  900000 1300000 0  950000 1300000 0  1000000 1300000 0  0 1350000 0  50000 1350000 0  100000 1350000 0  150000 1350000 0  200000 1350000 0  250000 1350000 0  300000 1350000 0  350000 1350000 0  400000 1350000 0  450000 1350000 0  500000 1350000 0  550000 1350000 0  600000 1350000 0  650000 1350000 0  700000 135
[...]
<PointData  Scalars="f_3013"> 
<DataArray  type="Float64"  Name="f_3013"  format="ascii">-8.3702630422151114e-01  -5.6882884037327552e-01  -3.8162222680003854e-01  -2.5358455476045477e-01  -1.6706802001513446e-01  -1.0638736579891317e-01  -6.1410397595324691e-02  -2.5923403243376806e-02  3.9140135827895606e-03  3.0577160971858447e-02  5.5803586871405610e-02  8.1004168818903002e-02  1.0757766034227451e-01  1.3722169541436380e-01  1.7233416763648585e-01  2.1663183987768073e-01  2.7618536771066160e-01  3.6113373995940351e-01  4.8773290658965313e-01  6.7481417148419076e-01  8.6627988658330524e-01  -6.4431974505597123e-01  -5.3869522399008285e-01  -3.7374840739896142e-01  -2.5244615541804749e-01  -1.6819557341624289e-01  -1.0808541150218691e-01  -6.3002403668028825e-02  -2.7161414773397639e-02  3.1019160838916269e-03  3.0204484067597084e-02  5.5880393293643679e-02  8.1563717665901730e-02  1.0869118605800809e-01  1.3900773854255616e-01  1.7495887540601021e-01  2.2026776964251138e-01  2.8076857850622422e-01  3.6520629782366881e-01  4.8369560767759345e-01  6.3294533314138046e-01  7.3325896985461314e-01  -4.5570252969966979e-01  -4.1661875505339663e-01  -3.2228960177910648e-01  -2.3289479651069275e-01  -1.6196263192861796e-01  -1.0720741717108528e-01  -6.4012744909916944e-02  -2.8550504109017608e-02  1.9764251029375213e-03  2.9602809348248407e-02  5.5897766957067621e-02  8.2216956730935570e-02  1.0992587218117048e-01  1.4062619505378124e-01  1.7641320897392651e-01  2.2015624577435206e-01  2.7563898601154974e-01  3.4684119593126123e-01  4.3400994052897934e-01  5.2093739655766835e-01  5.5144015031440885e-01  -3.1810713115446526e-01  -3.0306519395186310e-01  -2.5443328322833936e-01  -1.9712163473965094e-01  -1.4408471476609019e-01  -9.8617924237284244e-02  -6.0088411438410726e-02  -2.6883662385801442e-02  2.6137017172091362e-03  2.9810131924830386e-02  5.5922190469024420e-02  8.2067407977866075e-02  1.0937390982581330e-01  1.3909030728440069e-01  1.7267117527212048e-01  2.1176155513975298e-01  2.5785817803873312e-01  3.1110291801979822e-01  3.6721289626269238e-01  4.1205126164975242e-01  4.2024162565315176e-01  -2.2061186341935790e-01  -2.1505625148478721e-01  -1.9108373099061679e-01  -1.5653237009073931e-01  -1.1948462899443187e-01  -8.4071688683024559e-02  -5.1609604160040373e-02  -2.2039689721393141e-02  5.2338824126296739e-03  3.0970322929300111e-02  5.5956649897705588e-02  8.0977828884835637e-02  1.0682619643488378e-01  1.3430875635460948e-01  1.6420624201746845e-01  1.9710341101543263e-01  2.3294273324426118e-01  2.7009018045764149e-01  3.0386121708268876e-01  3.2556060767859729e-01  3.2675099749434539e-01  -1.5117990505184947e-01  -1.4965627584270239e-01  -1.3852280530416841e-01  -1.1833538980988413e-01  -9.3298054882946138e-02  -6.6710116290292512e-02  -4.0376341541461136e-02  -1.5004376039312732e-02  9.3283319311978814e-03  3.2862682945564436e-02  5.5985077525190018e-02  7.9138125910573467e-02  1.0276772087315367e-01  1.2726737580768588e-01  1.5287860798792599e-01  1.7949516515785913e-01  2.0631395980339248e-01  2.3133136751010211e-01  2.5094751738369880e-01  2.6069486316623125e-01  2.5962949706184224e-01  -1.0114325175357305e-01  -1.0137547206479595e-01  -9.6871838222182691e-02  -8.5357843669922370e-02  -6.8665327413888810e-02  -4.9048371621149896e-02  -2.8149133396200125e-02  -6.9131486977389621e-03  1.4230902401040251e-02  3.5177162522828910e-02  5.5997470799681481e-02  7.6841125617185035e-02  9.7857648910379402e-02  1.1911737223348642e-01  1.4050411342775268e-01  1.6155745852429731e-01  1.8126319603095092e-01  1.9786539294690925e-01  2.0897278725382565e-01  2.1265548942777421e-01  2.1091062826534401e-01  -6.4649209589313153e-02  -6.5612829588055852e-02  -6.4494345613964096e-02  -5.8121313110027224e-02  -4.7023569221977680e-02  -3.2618762298850003e-02  -1.6201093400551297e-02  1.3116815227585579e-03  1.9357248938113306e-02  3.7632242592712667e-02  5.5992707255619077e-02  7.4368745107009374e-02  9.2689064504874616e-02  1.1080420972490281e-01  1.2839740099756689e-01  1.4487969185640537e-01  1.5928988003725833e-01  1.7027797409315878e-01  1.7637769743242618e-01  1.7702348873911414e-01  1.7517103755045144e-01  -3.7778852843760390e-02  -3.8996957197888489e-02  -3.9558807604228259e-02  -3.6203918932694652e-02  -2.8797618948799016e-02  -1.8179164886773260e-02  -5.3029787037886088e-03  9.0414393484960168e-03  2.4279044836351665e-02  4.0014755818879033e-02  5.5974527007412074e-02  7.1943263101178226e-02  8.7703978114418171e-02  1.0297636055074319e-01  1.1735324856342809e-01  1.3024066323173658e-01  1.4082513078016828e-01  1.4813079445461430e-01  1.5130985305783967e-01  1.5048131780993138e-01  1.4873463962486699e-01  -1.7891379381864636e-02  -1.9144599392814769e-02  -2.0491215130927460e-02  -1.8894923058424596e-02  -1.3908319833070601e-02  -5.9978245216282706e-03  4.1544602923348660e-03  1.5905050434571587e-02  2.8721761568607656e-02  4.2182942204946262e-02  5.5947880610460687e-02  6.9716967628330115e-02  8.3188844466779766e-02  9.6017418724704609e-02  1.0777194602806534e-01  1.1790838465759264e-01  1.2577208871170337e-01  1.3067702007755458e-01  1.3216327742022999e-01  1.3066854806366782e-01  1.2909708548322751e-01  -3.1897932385358428e-03  -4.3852663612628136e-03  -6.0534625303677817e-03  -5.4727157346337735e-03  -2.0675094590882847e-03  3.9265048883743566e-03  1.2026762041659592e-02  2.1719268314083672e-02  3.2532756974158951e-02  4.4053974734344976e-02  5.5917015153284816e-02  6.7781149996488821e-02  7.9304295425552895e-02  9.0116575418796557e-02  9.9798665554673940e-02  1.0787268311680963e-01  1.1382081264526955e-01  1.1716402811364256e-01  1.1767706304957887e-01  1.1592784195010641e-01  1.1453895506987546e-01  7.5579085700703029e-03  6.4495466184984361e-03  4.6887913187288032e-03  4.6904840239293749e-03  7.0669661135572531e-03  1.1721410855773794e-02  1.8309983290807186e-02  2.6421181168779562e-02  3.5643505137596655e-02  4.5587186185851468e-02  5.5884854774027055e-02  6.6181991168594093e-02  7.6123140159886166e-02  8.5338297294302895e-02  9.3434008125048318e-02  9.9995520908485624e-02  1.0461113144870102e-01  1.0694274948553296e-01  1.0690333521713777e-01  1.0509906495304615e-01  1.0387291114676049e-01  1.5196228631244438e-02  1.4172289118590947e-02  1.2420280971596235e-02  1.2098226404302297e-02  1.3815049748049263e-02  1.7555225848945404e-02  2.3067339685724466e-02  3.0014967635691153e-02  3.8036448558721042e-02  4.6768450514674181e-02  5.5853046347337697e-02  6.4936507011113781e-02  7.3664516173557792e-02  8.1677547463214845e-02  8.8610220051782776e-02  9.4099521983923781e-02  9.7810199240432577e-02  9.9496254279571608e-02  9.9149806869448145e-02  9.7375067514646002e-02  9.6280473550313939e-02  2.0294861319360286e-02  1.9336549489821896e-02  1.7625130455324628e-02  1.7128573903487553e-02  1.8439640020732985e-02  2.1588567002390015e-02  2.6382039235102340e-02  3.2534161124977194e-02  3.9719720967781966e-02  4.7597795322658121e-02  5.5822248230191246e-02  6.4045628566186244e-02  7.1920154723561530e-02  7.9098816756249732e-02  8.5239663680556507e-02  9.0017054223786905e-02  9.3146384252643280e-02  9.4438304288353717e-02  9.3928153624930108e-02  9.2205519427964497e-02  9.1207346380509591e-02  2.3219585248152291e-02  2.2300033029119624e-02  2.0624103109365643e-02  2.0042096375848164e-02  2.1132245126192176e-02  2.3948163761753932e-02  2.8328643764124035e-02  3.4016866762787534e-02  4.0709616336786325e-02  4.8080564202458709e-02  5.5792449526008758e-02  6.3503711223067374e-02  7.0872642148813197e-02  7.7561603379941405e-02  8.3243852244515512e-02  8.7616088289611510e-02  9.0422270254133408e-02  9.1503249394058087e-02  9.0915170746221810e-02  8.9234675582485670e-02  8.8297153657933697e-02  2.4175303918277827e-02  2.3263475429982822e-02  2.1599847316876971e-02  2.0990620667734387e-02  2.2007983355155619e-02  2.4713461516714861e-02  2.8956732398374867e-02  3.4490708908290861e-02  4.1019505481423323e-02  4.8221723845932145e-02  5.5763241616033084e-02  6.3304759386133530e-02  7.0506977750642796e-02  7.7035774323775688e-02  8.2569750833691849e-02  8.6813021715352684e-02  8.9518499876912516e-02  9.0535862564334046e-02  8.9926635915191497e-02  8.8263007802085416e-02  8.7351179313790578e-02  2.3229329574135319e-02  2.2291807649583308e-02  2.0611312485847348e-02  2.0023233838010648e-02  2.1104212977935320e-02  2.3910394942456385e-02  2.8282630987552040e-02  3.3964879852125686e-02  4.0653841083252817e-02  4.8022772008998300e-02  5.5734033706057069e-02  6.3445919029607042e-02  7.0816866895279398e-02  7.7509616469278050e-02  8.3197839467942000e-02  8.7578319470312541e-02  9.0394238105875394e-02  9.1484386856219554e-02  9.0902380122702506e-02  8.9226450202948351e-02  8.8306897983915902e-02  2.0319136851559543e-02  1.9320963804104758e-02  1.7598329607139224e-02  1.7088178943715733e-02  1.8380098979425798e-02  2.1509429008281223e-02  2.6286819551511287e-02  3.2427666475817206e-02  3.9606328508504665e-02  4.7480854665879590e-02  5.5704235001874276e-02  6.3928687909407214e-02  7.1806762264283050e-02  7.8992322107087967e-02  8.5144443996963567e-02  8.9937916229676437e-02  9.3086843211334133e-02  9.4397909328579471e-02  9.3901352776743205e-02  9.2189933742246377e-02  9.1231621912707936e-02  1.5246009681756097e-02  1.4151415717424124e-02  1.2376676362622154e-02  1.2030228952498598e-02  1.3716283991637081e-02  1.7426961248144746e-02  2.2916263180285234e-02  2.9848935768852142e-02  3.7861967058508403e-02  4.6589976220951866e-02  5.5673436884727590e-02  6.4758032717391015e-02  7.3490034673343752e-02  8.1511515596373221e-02  8.8459143546340727e-02  9.3971257383120135e-02  9.7711433484017146e-02  9.9428256827764738e-02  9.9106202260470788e-02  9.7354194113476275e-02  9.6330254600823007e-02  7.6535720853100914e-03  6.4274182790244622e-03  4.6231480149331178e-03  4.5837337465376386e-03  6.9153517833690651e-03  1.1530962323583294e-02  1.8092475107019976e-02  2.6188185937763991e-02  3.5403343072179703e-02  4.5344492063470909e-02  5.5641628458037357e-02  6.5939297046212791e-02  7.5882978094467299e-02  8.5105302063283941e-02  9.3216499941256678e-02  9.9805072376290466e-02  1.0445951711850844e-01  1.0683599920813676e-01  1.0683769191333739e-01  1.0507693661356782e-01  1.0396857466199617e-01  -3.0124718378038346e-03  -4.4013587180348757e-03  -6.1505798175069950e-03  -5.6375448815713719e-03  -2.2943294131986640e-03  3.6538001152600272e-03  1.1727817677394434e-02  2.1409907813270249e-02  3.2222187806512821e-02  4.3745333235575577e-02  5.5609468078778770e-02  6.7472508497718145e-02  7.8993726257903948e-02  8.9807214917979439e-02  9.9499721190403886e-02  1.0759997834368971e-01  1.1359399269115317e-01  1.1699919896669891e-01  1.1757994576243348e-01  1.1591174959332881e-01  1.1471627647060205e-01  -1.7570602251154543e-02  -1.9142064831595071e-02  -2.0636794188156789e-02  -1.9150536845481934e-02  -1.4245605479631704e-02  -6.3819014255225900e-03  3.7545372040028394e-03  1.5509064507361682e-02  2.8337638765285382e-02  4.1809515603733798e-02  5.5578602621602170e-02  6.9343541027116096e-02  8.2804721663454414e-02  9.5621432797490774e-02  1.0737202293972807e-01  1.1752430775369153e-01  1.2543480306513452e-01  1.3042140629048907e-01  1.3201769836299276e-01  1.3067108262488039e-01  1.2941786261393032e-01  -3.7208156392792888e-02  -3.8954834577857284e-02  -3.9783369825765455e-02  -3.6604311222540965e-02  -2.9298647548096236e-02  -1.8714179999666448e-02  -5.8267653313602060e-03  8.5501226813229254e-03  2.3822505117646459e-02  3.9583220130884826e-02  5.5551956224649798e-02  7.1511727413182541e-02  8.7247438395709961e-02  1.0248504388356534e-01  1.1682946193585028e-01  1.2970564811883545e-01  1.4032410218086200e-01  1.4773040216475866e-01  1.5108529083629293e-01  1.5052344042995366e-01  1.4930533607582608e-01  -6.3644554318375790e-02  -6.5497005507037964e-02  -6.4851214200350601e-02  -5.8751490861084991e-02  -4.7763396805186015e-02  -3.3353208624335093e-02  -1.6870917765499219e-02  7.2227350716277028e-04  1.8837418727188974e-02  3.7157738125052631e-02  5.5533775976441734e-02  7.3894240639347714e-02  9.2169234293947161e-02  1.1021480170930167e-01  1.2772757663261178e-01  1.4414524553091090e-01  1.5855005245403994e-01  1.6964779634209068e-01  1.7602082884602890e-01  1.7713931282012157e-01  1.7617569282137921e-01  -9.9384145033266341e-02  -1.0112900619569663e-01  -9.7446304021748809e-02  -8.6338909714834058e-02  -6.9736712798877706e-02  -5.0030975292226748e-02  -2.8977630195684785e-02  -7.5908890014207680e-03  1.3668834321684168e-02  3.4685357614876705e-02  5.5529012432378816e-02  7.6349320709230853e-02  9.7295580831019177e-02  1.1843963192979795e-01  1.3967561662825959e-01  1.6057485485321016e-01  1.8019181064595088e-01  1.9688432690198607e-01  2.0839832145424794e-01  2.1290195529686248e-01  2.1266973498564012e-01  -1.4810301382976140e-01  -1.4916837993415039e-01  -1.3942103415161880e-01  -1.1980488427802469e-01  -9.4787476571318030e-02  -6.7968681925788338e-02  -4.1352124755857957e-02  -1.5740892575619631e-02  8.7587623589102728e-03  3.2388357321488474e-02  5.5541405706870654e-02  7.8663800286495569e-02  1.0219815130086213e-01  1.2653085927137195e-01  1.5190282477352068e-01  1.7823659952235349e-01  2.0482453811500861e-01  2.2986187304194855e-01  2.5004928853623465e-01  2.6118275907477057e-01  2.6270638828391840e-01  -2.1522451426225953e-01  -2.1403412444651179e-01  -1.9233473385060501e-01  -1.5856369722556146e-01  -1.2141625001218462e-01  -8.5576927783360235e-02  -5.2679758785398823e-02  -2.2782273122542017e-02  4.7002867971813606e-03  3.0548654347227568e-02  5.5569833334356430e-02  8.0556160302761276e-02  1.0629260081943122e-01  1.3356617295345366e-01  1.6313608739210142e-01  1.9559817191508749e-01  2.3101111222649587e-01  2.6805885332280549e-01  3.0261021422268569e-01  3.2658273471685872e-01  3.3213834665143044e-01  -3.0871514242105935e-01  -3.0052477841766062e-01  -2.5568641303060335e-01  -1.9957643478771403e-01  -1.4633169480665337e-01  -1.0023507190767744e-01  -6.1144692040048111e-02  -2.7563824052330786e-02  2.1525734062544408e-03  2.9459075254199971e-02  5.5604292763040200e-02  8.1716351307233995e-02  1.0891278151485452e-01  1.3841014561786510e-01  1.7161489467047558e-01  2.1014440746935026e-01  2.5561119799815818e-01  3.0864811797172109e-01  3.6595976646041278e-01  4.1459167718393941e-01  4.2963361438654279e-01  -4.3991366708230867e-01  -4.0941091332556850e-01  -3.2248345729688449e-01  -2.3531471269917123e-01  -1.6411250277946574e-01  -1.0862976254227213e-01  -6.4886725741849852e-02  -2.9099711821707043e-02  1.6006110509012065e-03  2.9309526501134713e-02  5.5628716275001502e-02  8.1923673883820367e-02  1.0955005812913085e-01  1.4007698734108576e-01  1.7553922814198669e-01  2.1873390040315677e-01  2.7348911516069119e-01  3.4442127974276909e-01  4.3381608501118629e-01  5.2814523828547955e-01  5.6722901293175598e-01  -6.2173248662250613e-01  -5.2141884990927490e-01  -3.7216912444549444e-01  -2.5367981459157463e-01  -1.6924209527413522e-01  -1.0874128641042638e-01  -6.3432392173928653e-02  -2.7481255310477390e-02  2.8352971740683653e-03  2.9962765566173138e-02  5.5646089938429844e-02  8.1321999164476202e-02  1.0842456714818152e-01  1.3868789800547124e-01  1.7452888690010399e-01  2.1961189473426365e-01  2.7972205664832267e-01  3.6397263865013102e-01  4.8527489063105000e-01  6.5022170722217476e-01  7.5584622828806480e-01  -7.5475340335119590e-01  -5.6328768825208242e-01  -3.7620642335755061e-01  -2.4960725672730691e-01  -1.6465888447857013e-01  -1.0510535664559388e-01  -6.0807684404402429e-02  -2.5695212182283631e-02  3.9488228898037110e-03  3.0522314413173587e-02  5.5722896360669766e-02  8.0949322260216242e-02  1.0761246964928545e-01  1.3744988647545242e-01  1.7293688082740194e-01  2.1791384903099198e-01  2.7859450324721691e-01  3.6511103799254158e-01  4.9314871003212934e-01  6.8035532360537210e-01  9.4855278745360971e-01  </DataArray> 
</PointData> 
</Piece>
</UnstructuredGrid>
</VTKFile>