<?xml version="1.0"?>
<VTKFile type="UnstructuredGrid"  version="0.1"  >
<UnstructuredGrid>
<Piece  NumberOfPoints="651" NumberOfCells="1200">
<Points>
<DataArray  type="Float64"  NumberOfComponents="3"  format="ascii">0 0 0  50000 0 0  100000 0 0  150000 0 0  200000 0 0  250000 0 0  300000 0 0  350000 0 0  400000 0 0  450000 0 0  500000 0 0  550000 0 0  600000 0 0  650000 0 0  700000 0 0  750000 0 0  800000 0 0  850000 0 0  900000 0 0  950000 0 0  1000000 0 0  0 50000 0  50000 50000 0  100000 50000 0  150000 50000 0  200000 50000 0  250000 50000 0  300000 50000 0  350000 50000 0  400000 50000 0  450000 50000 0  500000 50000 0  550000 50000 0  600000 50000 0  650000 50000 0  700000 50000 0  750000 50000 0  800000 50000 0  850000 50000 0  900000 50000 0  950000 50000 0  1000000 50000 0  0 100000 0  50000 100000 0  100000 100000 0  150000 100000 0  200000 100000 0  250000 100000 0  300000 100000 0  350000 100000 0  400000 100000 0  450000 100000 0  500000 100000 0  550000 100000 0  600000 100000 0  650000 100000 0  700000 100000 0  750000 100000 0  800000 100000 0  850000 100000 0  900000 100000 0  950000 100000 0  1000000 100000 0  0 150000 0  50000 150000 0  100000 150000 0  150000 150000 0  200000 150000 0  250000 150000 0  300000 150000 0  350000 150000 0  400000 150000 0  450000 150000 0  500000 150000 0  550000 150000 0  600000 150000 0  650000 150000 0  700000 150000 0  750000 150000 0  800000 150000 0  850000 150000 0  900000 150000 0  950000 150000 0  1000000 150000 0  0 200000 0  50000 200000 0  100000 200000 0  150000 200000 0  200000 200000 0  250000 200000 0  300000 200000 0  350000 200000 0  400000 200000 0  450000 200000 0  500000 200000 0  550000 200000 0  600000 200000 0  650000 200000 0  700000 200000 0  750000 200000 0  800000 200000 0  850000 200000 0  900000 200000 0  950000 200000 0  1000000 200000 0  0 250000 0  50000 250000 0  100000 250000 0  150000 250000 0  200000 250000 0  250000 250000 0  300000 250000 0  350000 250000 0  400000 250000 0  450000 250000 0  500000 250000 0  550000 250000 0  600000 250000 0  650000 250000 0  700000 250000 0  750000 250000 0  800000 250000 0  850000 250000 0  900000 250000 0  950000 250000 0  1000000 250000 0  0 300000 0  50000 300000 0  100000 300000 0  150000 300000 0  200000 300000 0  250000 300000 0  300000 300000 0  350000 300000 0  400000 300000 0  450000 300000 0  500000 300000 0  550000 300000 0  600000 300000 0  650000 300000 0  700000 300000 0  750000 300000 0  800000 300000 0  850000 300000 0  900000 300000 0  950000 300000 0  1000000 300000 0  0 350000 0  50000 350000 0  100000 350000 0  150000 350000 0  200000 350000 0  250000 350000 0  300000 350000 0  350000 350000 0  400000 350000 0  450000 350000 0  500000 350000 0  550000 350000 0  600000 350000 0  650000 350000 0  700000 350000 0  750000 350000 0  800000 350000 0  850000 350000 0  900000 350000 0  950000 350000 0  1000000 350000 0  0 400000 0  50000 400000 0  100000 400000 0  150000 400000 0  200000 400000 0  250000 400000 0  300000 400000 0  350000 400000 0  400000 400000 0  450000 400000 0  500000 400000 0  550000 400000 0  600000 400000 0  650000 400000 0  700000 400000 0  750000 400000 0  800000 400000 0  850000 400000 0  900000 400000 0  950000 400000 0  1000000 400000 0  0 450000 0  50000 450000 0  100000 450000 0  150000 450000 0  200000 450000 0  250000 450000 0  300000 450000 0  350000 450000 0  400000 450000 0  450000 450000 0  500000 450000 0  550000 450000 0  600000 450000 0  650000 450000 0  700000 450000 0  750000 450000 0  800000 450000 0  850000 450000 0  900000 450000 0  950000 450000 0  1000000 450000 0  0 500000 0  50000 500000 0  100000 500000 0  150000 500000 0  200000 500000 0  250000 500000 0  300000 500000 0  350000 500000 0  400000 500000 0  450000 500000 0  500000 500000 0  550000 500000 0  600000 500000 0  650000 500000 0  700000 500000 0  750000 500000 0  800000 500000 0  850000 500000 0  900000 500000 0  950000 500000 0  1000000 500000 0  0 550000 0  50000 550000 0  100000 550000 0  150000 550000 0  200000 550000 0  250000 550000 0  300000 550000 0  350000 550000 0  400000 550000 0  450000 550000 0  500000 550000 0  550000 550000 0  600000 550000 0  650000 550000 0  700000 550000 0  750000 550000 0  800000 550000 0  850000 550000 0  900000 550000 0  950000 550000 0  1000000 550000 0  0 600000 0  50000 600000 0  100000 600000 0  150000 600000 0  200000 600000 0  250000 600000 0  300000 600000 0  350000 600000 0  400000 600000 0  450000 600000 0  500000 600000 0  550000 600000 0  600000 600000 0  650000 600000 0  700000 600000 0  750000 600000 0  800000 600000 0  850000 600000 0  900000 600000 0  950000 600000 0  1000000 600000 0  0 650000 0  50000 650000 0  100000 650000 0  150000 650000 0  200000 650000 0  250000 650000 0  300000 650000 0  350000 650000 0  400000 650000 0  450000 650000 0  500000 650000 0  550000 650000 0  600000 650000 0  650000 650000 0  700000 650000 0  750000 650000 0  800000 650000 0  850000 650000 0  900000 650000 0  950000 650000 0  1000000 650000 0  0 700000 0  50000 700000 0  100000 700000 0  150000 700000 0  200000 700000 0  250000 700000 0  300000 700000 0  350000 700000 0  400000 700000 0  450000 700000 0  500000 700000 0  550000 700000 0  600000 700000 0  650000 700000 0  700000 700000 0  750000 700000 0  800000 700000 0  850000 700000 0  900000 700000 0  950000 700000 0  1000000 700000 0  0 750000 0  50000 750000 0  100000 750000 0  150000 750000 0  200000 750000 0  250000 750000 0  300000 750000 0  350000 750000 0  400000 750000 0  450000 750000 0  500000 750000 0  550000 750000 0  600000 750000 0  650000 750000 0  700000 750000 0  750000 750000 0  800000 750000 0  850000 750000 0  900000 750000 0  950000 750000 0  1000000 750000 0  0 800000 0  50000 800000 0  100000 800000 0  150000 800000 0  200000 800000 0  250000 800000 0  300000 800000 0  350000 800000 0  400000 800000 0  450000 800000 0  500000 800000 0  550000 800000 0  600000 800000 0  650000 800000 0  700000 800000 0  750000 800000 0  800000 800000 0  850000 800000 0  900000 800000 0  950000 800000 0  1000000 800000 0  0 850000 0  50000 850000 0  100000 850000 0  150000 850000 0  200000 850000 0  250000 850000 0  300000 850000 0  350000 850000 0  400000 850000 0  450000 850000 0  500000 850000 0  550000 850000 0  600000 850000 0  650000 850000 0  700000 850000 0  750000 850000 0  800000 850000 0  850000 850000 0  900000 850000 0  950000 850000 0  1000000 850000 0  0 900000 0  50000 900000 0  100000 900000 0  150000 900000 0  200000 900000 0  250000 900000 0  300000 900000 0  350000 900000 0  400000 900000 0  450000 900000 0  500000 900000 0  550000 900000 0  600000 900000 0  650000 900000 0  700000 900000 0  750000 900000 0  800000 900000 0  850000 900000 0  900000 900000 0  950000 900000 0  1000000 900000 0  0 950000 0  50000 950000 0  100000 950000 0  150000 950000 0  200000 950000 0  250000 950000 0  300000 950000 0  350000 950000 0  400000 950000 0  450000 950000 0  500000 950000 0  550000 950000 0  600000 950000 0  650000 950000 0  700000 950000 0  750000 950000 0  800000 950000 0  850000 950000 0  900000 950000 0  950000 950000 0  1000000 950000 0  0 1000000 0  50000 1000000 0  100000 1000000 0  150000 1000000 0  200000 1000000 0  250000 1000000 0  300000 1000000 0  350000 1000000 0  400000 1000000 0  450000 1000000 0  500000 1000000 0  550000 1000000 0  600000 1000000 0  650000 1000000 0  700000 1000000 0  750000 1000000 0  800000 1000000 0  850000 1000000 0  900000 1000000 0  950000 1000000 0  1000000 1000000 0  0 1050000 0  50000 1050000 0  100000 1050000 0  150000 1050000 0  200000 1050000 0  250000 1050000 0  300000 1050000 0  350000 1050000 0  400000 1050000 0  450000 1050000 0  500000 1050000 0  550000 1050000 0  600000 1050000 0  650000 1050000 0  700000 1050000 0  750000 1050000 0  800000 1050000 0  850000 1050000 0  900000 1050000 0  950000 1050000 0  1000000 1050000 0  0 1100000 0  50000 1100000 0  100000 1100000 0  150000 1100000 0  200000 1100000 0  250000 1100000 0  300000 1100000 0  350000 1100000 0  400000 1100000 0  450000 1100000 0  500000 1100000 0  550000 1100000 0  600000 1100000 0  650000 1100000 0  700000 1100000 0  750000 1100000 0  800000 1100000 0  850000 1100000 0  900000 1100000 0  950000 1100000 0  1000000 1100000 0  0 1150000 0  50000 1150000 0  100000 1150000 0  150000 1150000 0  200000 1150000 0  250000 1150000 0  300000 1150000 0  350000 1150000 0  400000 1150000 0  450000 1150000 0  500000 1150000 0  550000 1150000 0  600000 1150000 0  650000 1150000 0  700000 1150000 0  750000 1150000 0  800000 1150000 0  850000 1150000 0  900000 1150000 0  950000 1150000 0  1000000 1150000 0  0 1200000 0  50000 1200000 0  100000 1200000 0  150000 1200000 0  200000 1200000 0  250000 1200000 0  300000 1200000 0  350000 1200000 0  400000 1200000 0  450000 1200000 0  500000 1200000 0  550000 1200000 0  600000 1200000 0  650000 1200000 0  700000 1200000 0  750000 1200000 0  800000 1200000 0  850000 1200000 0  900000 1200000 0  950000 1200000 0  1000000 1200000 0  0 1250000 0  50000 1250000 0  100000 1250000 0  150000 1250000 0  200000 1250000 0  250000 1250000 0  300000 1250000 0  350000 1250000 0  400000 1250000 0  450000 1250000 0  500000 1250000 0  550000 1250000 0  600000 1250000 0  650000 1250000 0  700000 1250000 0  750000 1250000 0  800000 1250000 0  850000 1250000 0  900000 1250000 0  950000 1250000 0  1000000 1250000 0  0 1300000 0  50000 1300000 0  100000 1300000 0  150000 1300000 0  200000 1300000 0  250000 1300000 0  300000 1300000 0  350000 1300000 0  400000 1300000 0  450000 1300000 0  500000 1300000 0  550000 1300000 0  600000 1300000 0  650000 1300000 0  700000 1300000 0  750000 1300000 0  800000 1300000 0  850000 1300000 0  900000 1300000 0  950000 1300000 0  1000000 1300000 0  0 1350000 0  50000 1350000 0  100000 1350000 0  150000 1350000 0  200000 1350000 0  250000 1350000 0  300000 1350000 0  350000 1350000 0  400000 1350000 0  450000 1350000 0  500000 1350000 0  550000 1350000 0  600000 1350000 0  650000 1350000 0  700000 135
[...]
<PointData  Scalars="f_3013"> 
<DataArray  type="Float64"  Name="f_3013"  format="ascii">-1.2190966497580289e+00  -8.2906136183882395e-01  -5.5635188997696483e-01  -3.7037169541866016e-01  -2.4568638354422140e-01  -1.5940831567905847e-01  -9.6637657199193122e-02  -4.8165100344908764e-02  -8.2518043499545113e-03  2.6832155352895751e-02  5.9724819006156706e-02  9.2578802082779979e-02  1.2752878060804723e-01  1.6715391643705899e-01  2.1507056483720660e-01  2.7683754723106363e-01  3.6145823368573254e-01  4.8384619125228612e-01  6.6770163789796588e-01  9.4005808769742805e-01  1.2181939087060141e+00  -9.4026127641812174e-01  -7.8639871612739198e-01  -5.4586308612934775e-01  -3.6959054012329789e-01  -2.4811498921145014e-01  -1.6256154010135962e-01  -9.9514903240823377e-02  -5.0396285963467811e-02  -9.7283733024604632e-03  2.6131016139484445e-02  5.9814269603565083e-02  9.3508319275063034e-02  1.2940392532893033e-01  1.7014924564167622e-01  2.1942853008955809e-01  2.8280640131552864e-01  3.6893679393980849e-01  4.9070134371472029e-01  6.6287900326639249e-01  8.8039887639678760e-01  1.0261202993517913e+00  -6.6782748312623574e-01  -6.1074931226095264e-01  -4.7311193629963194e-01  -3.4326564948655780e-01  -2.4104985901484410e-01  -1.6306551776981715e-01  -1.0246983351897297e-01  -5.3560552308132107e-02  -1.2143446667034308e-02  2.4854721552959196e-02  5.9819481911816241e-02  9.4820136595925933e-02  1.3194057024630171e-01  1.7361462261330188e-01  2.2300545730838389e-01  2.8441525417063745e-01  3.6348362342573204e-01  4.6611895912822476e-01  5.9271364494588408e-01  7.1945744976800607e-01  7.6373393508427889e-01  -4.6918447963261900e-01  -4.4716654148632817e-01  -3.7625882660709270e-01  -2.9320950674875695e-01  -2.1698526389201317e-01  -1.5233991133492286e-01  -9.8262517721650275e-02  -5.2306014105165347e-02  -1.2017168374248252e-02  2.4745885955266889e-02  5.9844140431442427e-02  9.4991875705326231e-02  1.3191920644699356e-01  1.7253503556849822e-01  2.1905329459510189e-01  2.7396933873674123e-01  3.3955998920056890e-01  4.1610882685678874e-01  4.9739504752221853e-01  5.6269601869814190e-01  5.7458149780357148e-01  -3.2835444285458548e-01  -3.2023557540874109e-01  -2.8546087294389189e-01  -2.3568975874728465e-01  -1.8275012867799426e-01  -1.3262874286928969e-01  -8.7180790250851639e-02  -4.6248077734510416e-02  -8.8865398281457245e-03  2.6086273568218812e-02  5.9892643256230588e-02  9.3751367291301513e-02  1.2889233776130291e-01  1.6656794565331898e-01  2.0799324018998072e-01  2.5409640264457650e-01  3.0486272695704530e-01  3.5796236521722019e-01  4.0658297480113054e-01  4.3799329527838532e-01  4.3968403535401490e-01  -2.2792614460604160e-01  -2.2576699159417901e-01  -2.0991033114231192e-01  -1.8121192520549873e-01  -1.4580646826847057e-01  -1.0847750265601133e-01  -7.1813017745829447e-02  -3.6792274694358883e-02  -3.4704484662178600e-03  2.8564322110260634e-02  5.9937454478043724e-02  9.1356955228605222e-02  1.2353583460063375e-01  1.5711041929193428e-01  1.9249388073925680e-01  2.2958827422258613e-01  2.6727138577304482e-01  3.0265671064252453e-01  3.3051124317518082e-01  3.4431616616131833e-01  3.4267115742496829e-01  -1.5543096604932558e-01  -1.5590839182251726e-01  -1.4990365033426803e-01  -1.3398784643005560e-01  -1.1079868624867394e-01  -8.3600215115279791e-02  -5.4758386333112447e-02  -2.5615471670058787e-02  3.2463688108959302e-03  3.1720123770652378e-02  5.9960539730661164e-02  8.8236572814997152e-02  1.1681759476959186e-01  1.4585631579524802e-01  1.7523053562307564e-01  2.0431066621721444e-01  2.3165108890089450e-01  2.5471409757343483e-01  2.7002950303896150e-01  2.7481911362488409e-01  2.7212058319773130e-01  -1.0248129484427701e-01  -1.0408855248179229e-01  -1.0317426145661925e-01  -9.4876858486010365e-02  -7.9901475744345682e-02  -6.0292747661852164e-02  -3.7919399685576109e-02  -1.4095324258456016e-02  1.0390547956706752e-02  3.5131981922013854e-02  5.9958444962143941e-02  8.4808959309699630e-02  1.0962051781036170e-01  1.3421449936616789e-01  1.5816472764118336e-01  1.8064231857308266e-01  2.0026767363698722e-01  2.1508704919903288e-01  2.2298167265483293e-01  2.2319639808050193e-01  2.2028331808917326e-01  -6.3468522411924952e-02  -6.5493657344041806e-02  -6.7145731071691431e-02  -6.3346306830321289e-02  -5.3803629106316996e-02  -3.9716251875361958e-02  -2.2463320240604025e-02  -3.1801203721582233e-03  1.7316840758134697e-02  3.8478572644401937e-02  5.9935958452967161e-02  8.1407482341513945e-02  1.0260883043307253e-01  1.2316157996408060e-01  1.4249869476645363e-01  1.5977515757702901e-01  1.7381915735791970e-01  1.8321815683618489e-01  1.8675949485952426e-01  1.8471326103551702e-01  1.8191054880305976e-01  -3.4606757665652306e-02  -3.6713357865761090e-02  -3.9587302351519006e-02  -3.8420246787032666e-02  -3.2443268936210287e-02  -2.2306961220200112e-02  -8.9959056434326286e-03  6.5622889435697634e-03  2.3607239408562630e-02  4.1544347600622929e-02  5.9900212269095879e-02  7.8262925458724694e-02  9.6217972220790982e-02  1.1328391621892743e-01  1.2885251766219230e-01  1.4214545056725669e-01  1.5221787091382280e-01  1.5807833609711025e-01  1.5908503403059360e-01  1.5599316995648987e-01  1.5341771778924387e-01  -1.3306308065814077e-02  -1.5344787738321992e-02  -1.8731502358621206e-02  -1.9086099280502831e-02  -1.5438082212880186e-02  -8.0966579081178987e-03  2.2443822059633896e-03  1.4843487544011732e-02  2.9024942128986288e-02  4.4201455916987938e-02  5.9857536811329257e-02  7.5515784283055665e-02  9.0696766892007050e-02  1.0487903403259108e-01  1.1746614039509337e-01  1.2777228293751974e-01  1.3504980659947155e-01  1.3860961110089881e-01  1.3815747801513784e-01  1.3465284704903321e-01  1.3232917190393520e-01  2.2235656027035002e-03  3.0656697163141002e-04  -3.2332917811545843e-03  -4.4512422050396634e-03  -2.3136980890385082e-03  3.0773006278697907e-03  1.1231506353950177e-02  2.1555796528369146e-02  3.3459146864587765e-02  4.6385168145968124e-02  5.9812386851751470e-02  7.3239218025558037e-02  8.6162667114321634e-02  9.8057281820076919e-02  1.0836107675203938e-01  1.1647800657367301e-01  1.2181440142064190e-01  1.2388831193190013e-01  1.2261214313315616e-01  1.1901029409835855e-01  1.1691967199598109e-01  1.3223969657734608e-02  1.1431052165825101e-02  7.9022832823429211e-03  6.2079739807410815e-03  7.3820731528254253e-03  1.1445180713710389e-02  1.8043675104170577e-02  2.6693932333292598e-02  3.6876326503838507e-02  4.8070901700149278e-02  5.9767340449572590e-02  7.1462373599851331e-02  8.2651841273176693e-02  9.2822993861602324e-02  1.0145273535353000e-01  1.0801930508677768e-01  1.1204069493743907e-01  1.1317129836795353e-01  1.1144317517817587e-01  1.0788314528666312e-01  1.0598627222847957e-01  2.0542257148909223e-02  1.8848795001931751e-02  1.5385369691497199e-02  1.3439856708858246e-02  1.4025272620129646e-02  1.7232074549712990e-02  2.2793184038925791e-02  3.0299128113339839e-02  3.9282880975285893e-02  4.9255927626020324e-02  5.9723500386440247e-02  7.0189655185341926e-02  8.0157943300293660e-02  8.9132257520543712e-02  9.6622490166815678e-02  1.0216090007026789e-01  1.0533988543077627e-01  1.0589831238964294e-01  1.0393437507478531e-01  1.0045624678689670e-01  9.8704295330156316e-02  2.4728614487121249e-02  2.3095217318674848e-02  1.9690495730174864e-02  1.7625152440135405e-02  1.7892076679489274e-02  2.0617793405635441e-02  2.5583356171297401e-02  3.2422167124565242e-02  4.0699089711940806e-02  4.9946261458832873e-02  5.9680960349141270e-02  6.9414816681680661e-02  7.8659236484558082e-02  8.6930914461743836e-02  9.3761338971961969e-02  9.8715212770148289e-02  1.0142707957079487e-01  1.0168110277632258e-01  9.9607674848682937e-02  9.6197243879676125e-02  9.4537544682598493e-02  2.6093940247897181e-02  2.4473196596779392e-02  2.1089598526010063e-02  1.8986885815644432e-02  1.9149356455970937e-02  2.1715807950092637e-02  2.6483678936500762e-02  3.3100757720792733e-02  4.1142550846686575e-02  5.0148180790352770e-02  5.9639209541407119e-02  6.9130238292460941e-02  7.8135868236127837e-02  8.6177661362022442e-02  9.2794740146314864e-02  9.7562611132724394e-02  1.0012906262684702e-01  1.0029153326717419e-01  9.8188820556808595e-02  9.4805222486039051e-02  9.3184478834921494e-02  2.4740874400220908e-02  2.3081175203143248e-02  1.9670744234136690e-02  1.7597316306496490e-02  1.7851339512023990e-02  2.0563206312669304e-02  2.5517080110854896e-02  3.2347504621072082e-02  4.0619182598256129e-02  4.9863602401132974e-02  5.9597458733672448e-02  6.9332157623980678e-02  7.8579329370872961e-02  8.6856251958248545e-02  9.3695062911517288e-02  9.8660625677180092e-02  1.0138634240332792e-01  1.0165326664268212e-01  9.9587923352643354e-02  9.6183201764143300e-02  9.4549804595697243e-02  2.0574123752663143e-02  1.8822172295922965e-02  1.5344044008034397e-02  1.3380106693176944e-02  1.3938533652042982e-02  1.7117519012549782e-02  2.2655928916001426e-02  3.0146161562271963e-02  3.9120475782520897e-02  4.9088763897471847e-02  5.9554918696372937e-02  7.0022491456792527e-02  7.9995538107526715e-02  8.8979290969473171e-02  9.6485235043888506e-02  1.0204634453310227e-01  1.0525314646268684e-01  1.0583856237395828e-01  1.0389304939132064e-01  1.0042962408088670e-01  9.8736161933909244e-02  1.3292146854341007e-02  1.1395273796157639e-02  7.8352439046451370e-03  6.1071207148673682e-03  7.2377241453809331e-03  1.1259113996040526e-02  1.7825683729287167e-02  2.6455425221213181e-02  3.6626577809637524e-02  4.7816045482961776e-02  5.9511078633239990e-02  7.1207517382663066e-02  8.2402092578973476e-02  9.2584486749519065e-02  1.0123474397864239e-01  1.0783323836910338e-01  1.1189634592998998e-01  1.1307044510207523e-01  1.1137613580047359e-01  1.0784736691699173e-01  1.0605444942508255e-01  2.3587470868400209e-03  2.6812498446263160e-04  -3.3337240503344264e-03  -4.6098928490790015e-03  -2.5359823378215489e-03  2.8004125091454488e-03  1.0917342330777896e-02  2.1221137262738093e-02  3.3115751968491730e-02  4.6039201057253849e-02  5.9466032231059521e-02  7.2893250936842555e-02  8.5819272218222692e-02  9.7722622554440905e-02  1.0804691272886069e-01  1.1620111845494192e-01  1.2159211717185264e-01  1.2372966128785448e-01  1.2251171086396964e-01  1.1897185211118380e-01  1.1705485348011212e-01  -1.3050752821112861e-02  -1.5374427966210868e-02  -1.8879058932314972e-02  -1.9331192018076850e-02  -1.5771387516650266e-02  -8.4938638547004258e-03  1.8122786877236624e-03  1.4399385050223260e-02  2.8581652190805634e-02  4.3762634799754882e-02  5.9420882271480027e-02  7.5076963165820729e-02  9.0253476953822173e-02  1.0443493153879718e-01  1.1703403687684649e-01  1.2737507699092901e-01  1.3471650129569271e-01  1.3836451836331592e-01  1.3800992144143542e-01  1.3462320682113668e-01  1.3258472714862898e-01  -3.4139298706419775e-02  -3.6714750873666172e-02  -3.9806614947768972e-02  -3.8799917014286492e-02  -3.2939451831000700e-02  -2.2867031484437222e-02  -9.5740985793758594e-03  5.9945028638858210e-03  2.3060446862020349e-02  4.1015493624084728e-02  5.9378206813711816e-02  7.7734071482184169e-02  9.5671179674244072e-02  1.1271613013923762e-01  1.2827432472624137e-01  1.4158538030300971e-01  1.5172168801902106e-01  1.5769866586984452e-01  1.5886572143433234e-01  1.5599177694857502e-01  1.5388517674846622e-01  -6.2632129720234436e-02  -6.5434841952691808e-02  -6.7481075776698513e-02  -6.3939737753360260e-02  -5.4540738275097270e-02  -4.0496738494209719e-02  -2.3220275683637933e-02  -3.8831608812679923e-03  1.6669588649737520e-02  3.7870936741293715e-02  5.9342460629838556e-02  8.0799846438403419e-02  1.0196157832467069e-01  1.2245853945496375e-01  1.4174173932341058e-01  1.5899467095816947e-01  1.7308204818912618e-01  1.8262472591313234e-01  1.8642415015450370e-01  1.8477207642685509e-01  1.8274694149473900e-01  -1.0100489900634599e-01  -1.0391797899767380e-01  -1.0370325357200545e-01  -9.5808630116208091e-02  -8.0989254554164516e-02  -6.1363899490263274e-02  -3.8886308558368332e-02  -1.4936080283356397e-02  9.6579012724464109e-03  3.4469459773106031e-02  5.9319974120659757e-02  8.4146437160789331e-02  1.0888787112609651e-01  1.3337374334125951e-01  1.5719781876838049e-01  1.7957116674465770e-01  1.9917989482715359e-01  2.1415527756882011e-01  2.2245268053943132e-01  2.2336697156460605e-01  2.2175971392709135e-01  -1.5284216411490092e-01  -1.5554069454205374e-01  -1.5075108395613240e-01  -1.3543567849060831e-01  -1.1237266981807102e-01  -8.5032247134395000e-02  -5.5952116540260548e-02  -2.6577896712436641e-02  2.4608243132160017e-03  3.1041846267807746e-02  5.9317879352141521e-02  8.7558295312149662e-02  1.1603205027190569e-01  1.4489389075286016e-01  1.7403680541591512e-01  2.0287863419808397e-01  2.3007710533148126e-01  2.5326626551286585e-01  2.6918206941708106e-01  2.7518681090533254e-01  2.7470938513214177e-01  -2.2339273834213280e-01  -2.2503774707848304e-01  -2.1123282409234667e-01  -1.8337829155969443e-01  -1.4799296669021927e-01  -1.1030985513976664e-01  -7.3215461656441522e-02  -3.7832000209122224e-02  -4.2574155178256015e-03  2.7921463854199635e-02  5.9340964604759301e-02  9.0714096972541611e-02  1.2274886754902024e-01  1.5607069377716076e-01  1.9109143682863217e-01  2.2775592173881659e-01  2.6508488735127883e-01  3.0049034428831067e-01  3.2918875022512667e-01  3.4504541067699718e-01  3.4720456368886110e-01  -3.2040561627117198e-01  -3.1871487619554312e-01  -2.8730455571829011e-01  -2.3868394613438595e-01  -1.8558430787421631e-01  -1.3481798356175440e-01  -8.8714821107163042e-02  -4.7289526570505031e-02  -9.6139186784929206e-03  2.5527051791505436e-02  5.9385775826574554e-02  9.3192145514585559e-02  1.2816495891094959e-01  1.6552649681731441e-01  2.0645920933365675e-01  2.5190716195209845e-01  3.0202854776080512e-01  3.5496817783009937e-01  4.0473929202671116e-01  4.3951399449156436e-01  4.4763286193741036e-01  -4.5530307872071846e-01  -4.4341759961528970e-01  -3.7811662843937127e-01  -2.9683040777394820e-01  -2.2028157011773519e-01  -1.5469091965391424e-01  -9.9774875512279912e-02  -5.3256616485680391e-02  -1.2640787364179484e-02  2.4286543377485058e-02  5.9434278651366766e-02  9.4532533127542118e-02  1.3129558745705647e-01  1.7158443318797426e-01  2.1754093680446157e-01  2.7161833041773692e-01  3.3626368297483061e-01  4.1248792583157806e-01  4.9553724568991864e-01  5.6644496056915938e-01  5.8846289871545243e-01  -6.4445551600141371e-01  -6.0017903068514034e-01  -4.7343522586302722e-01  -3.4684054004537623e-01  -2.4420520434289197e-01  -1.6513683508780352e-01  -1.0372703822555558e-01  -5.4336203530477717e-02  -1.2662151163481759e-02  2.4458282486891619e-02  5.9458937170999704e-02  9.4423697529856271e-02  1.3142186574984963e-01  1.7283897139094781e-01  2.2174825260179135e-01  2.8234393685263903e-01  3.6032827809766993e-01  4.6254406856938807e-01  5.9239035538246865e-01  7.3002773134379406e-01  7.8710590220908272e-01  -9.0684188026891777e-01  -7.6112045731391564e-01  -5.4360058418353030e-01  -3.7142292463186583e-01  -2.4965837485696099e-01  -1.6352798223268761e-01  -1.0015011100672269e-01  -5.0870826558845353e-02  -1.0125506246103389e-02  2.5770099807761362e-02  5.9464149479257329e-02  9.3147402943337870e-02  1.2900679238528295e-01  1.6967470504629170e-01  2.1879332232365004e-01  2.8183995918418914e-01  3.6739340829428568e-01  4.8886895920613904e-01  6.6514150521219839e-01  9.0567713521024606e-01  1.0595396955009784e+00  -1.0989154896231363e+00  -8.2077966861455187e-01  -5.4842321881509815e-01  -3.6456777216942793e-01  -2.4217981460288157e-01  -1.5755912814822001e-01  -9.5792145754368618e-02  -4.7875497354226186e-02  -8.2503615252177646e-03  2.6699617000046950e-02  5.9553600076668392e-02  9.2446263729928549e-02  1.2753022343277970e-01  1.6744351942773547e-01  2.1591607628202281e-01  2.7868673476189132e-01  3.6496480262706055e-01  4.8965011450150620e-01  6.7563030905981802e-01  9.4833978092168492e-01  1.3383750688408929e+00  </DataArray> 
</PointData> 
</Piece>
</UnstructuredGrid>
</VTKFile>