<?xml version="1.0"?>
<VTKFile type="UnstructuredGrid"  version="0.1"  >
<UnstructuredGrid>
<Piece  NumberOfPoints="651" NumberOfCells="1200">
<Points>
<DataArray  type="Float64"  NumberOfComponents="3"  format="ascii">0 0 0  50000 0 0  100000 0 0  150000 0 0  200000 0 0  250000 0 0  300000 0 0  350000 0 0  400000 0 0  450000 0 0  500000 0 0  550000 0 0  600000 0 0  650000 0 0  700000 0 0  750000 0 0  800000 0 0  850000 0 0  900000 0 0  950000 0 0  1000000 0 0  0 50000 0  50000 50000 0  100000 50000 0  150000 50000 0  200000 50000 0  250000 50000 0  300000 50000 0  350000 50000 0  400000 50000 0  450000 50000 0  500000 50000 0  550000 50000 0  600000 50000 0  650000 50000 0  700000 50000 0  750000 50000 0  800000 50000 0  850000 50000 0  900000 50000 0  950000 50000 0  1000000 50000 0  0 100000 0  50000 100000 0  100000 100000 0  150000 100000 0  200000 100000 0  250000 100000 0  300000 100000 0  350000 100000 0  400000 100000 0  450000 100000 0  500000 100000 0  550000 100000 0  600000 100000 0  650000 100000 0  700000 100000 0  750000 100000 0  800000 100000 0  850000 100000 0  900000 100000 0  950000 100000 0  1000000 100000 0  0 150000 0  50000 150000 0  100000 150000 0  150000 150000 0  200000 150000 0  250000 150000 0  300000 150000 0  350000 150000 0  400000 150000 0  450000 150000 0  500000 150000 0  550000 150000 0  600000 150000 0  650000 150000 0  700000 150000 0  750000 150000 0  800000 150000 0  850000 150000 0  900000 150000 0  950000 150000 0  1000000 150000 0  0 200000 0  50000 200000 0  100000 200000 0  150000 200000 0  200000 200000 0  250000 200000 0  300000 200000 0  350000 200000 0  400000 200000 0  450000 200000 0  500000 200000 0  550000 200000 0  600000 200000 0  650000 200000 0  700000 200000 0  750000 200000 0  800000 200000 0  850000 200000 0  900000 200000 0  950000 200000 0  1000000 200000 0  0 250000 0  50000 250000 0  100000 250000 0  150000 250000 0  200000 250000 0  250000 250000 0  300000 250000 0  350000 250000 0  400000 250000 0  450000 250000 0  500000 250000 0  550000 250000 0  600000 250000 0  650000 250000 0  700000 250000 0  750000 250000 0  800000 250000 0  850000 250000 0  900000 250000 0  950000 250000 0  1000000 250000 0  0 300000 0  50000 300000 0  100000 300000 0  150000 300000 0  200000 300000 0  250000 300000 0  300000 300000 0  350000 300000 0  400000 300000 0  450000 300000 0  500000 300000 0  550000 300000 0  600000 300000 0  650000 300000 0  700000 300000 0  750000 300000 0  800000 300000 0  850000 300000 0  900000 300000 0  950000 300000 0  1000000 300000 0  0 350000 0  50000 350000 0  100000 350000 0  150000 350000 0  200000 350000 0  250000 350000 0  300000 350000 0  350000 350000 0  400000 350000 0  450000 350000 0  500000 350000 0  550000 350000 0  600000 350000 0  650000 350000 0  700000 350000 0  750000 350000 0  800000 350000 0  850000 350000 0  900000 350000 0  950000 350000 0  1000000 350000 0  0 400000 0  50000 400000 0  100000 400000 0  150000 400000 0  200000 400000 0  250000 400000 0  300000 400000 0  350000 400000 0  400000 400000 0  450000 400000 0  500000 400000 0  550000 400000 0  600000 400000 0  650000 400000 0  700000 400000 0  750000 400000 0  800000 400000 0  850000 400000 0  900000 400000 0  950000 400000 0  1000000 400000 0  0 450000 0  50000 450000 0  100000 450000 0  150000 450000 0  200000 450000 0  250000 450000 0  300000 450000 0  350000 450000 0  400000 450000 0  450000 450000 0  500000 450000 0  550000 450000 0  600000 450000 0  650000 450000 0  700000 450000 0  750000 450000 0  800000 450000 0  850000 450000 0  900000 450000 0  950000 450000 0  1000000 450000 0  0 500000 0  50000 500000 0  100000 500000 0  150000 500000 0  200000 500000 0  250000 500000 0  300000 500000 0  350000 500000 0  400000 500000 0  450000 500000 0  500000 500000 0  550000 500000 0  600000 500000 0  650000 500000 0  700000 500000 0  750000 500000 0  800000 500000 0  850000 500000 0  900000 500000 0  950000 500000 0  1000000 500000 0  0 550000 0  50000 550000 0  100000 550000 0  150000 550000 0  200000 550000 0  250000 550000 0  300000 550000 0  350000 550000 0  400000 550000 0  450000 550000 0  500000 550000 0  550000 550000 0  600000 550000 0  650000 550000 0  700000 550000 0  750000 550000 0  800000 550000 0  850000 550000 0  900000 550000 0  950000 550000 0  1000000 550000 0  0 600000 0  50000 600000 0  100000 600000 0  150000 600000 0  200000 600000 0  250000 600000 0  300000 600000 0  350000 600000 0  400000 600000 0  450000 600000 0  500000 600000 0  550000 600000 0  600000 600000 0  650000 600000 0  700000 600000 0  750000 600000 0  800000 600000 0  850000 600000 0  900000 600000 0  950000 600000 0  1000000 600000 0  0 650000 0  50000 650000 0  100000 650000 0  150000 650000 0  200000 650000 0  250000 650000 0  300000 650000 0  350000 650000 0  400000 650000 0  450000 650000 0  500000 650000 0  550000 650000 0  600000 650000 0  650000 650000 0  700000 650000 0  750000 650000 0  800000 650000 0  850000 650000 0  900000 650000 0  950000 650000 0  1000000 650000 0  0 700000 0  50000 700000 0  100000 700000 0  150000 700000 0  200000 700000 0  250000 700000 0  300000 700000 0  350000 700000 0  400000 700000 0  450000 700000 0  500000 700000 0  550000 700000 0  600000 700000 0  650000 700000 0  700000 700000 0  750000 700000 0  800000 700000 0  850000 700000 0  900000 700000 0  950000 700000 0  1000000 700000 0  0 750000 0  50000 750000 0  100000 750000 0  150000 750000 0  200000 750000 0  250000 750000 0  300000 750000 0  350000 750000 0  400000 750000 0  450000 750000 0  500000 750000 0  550000 750000 0  600000 750000 0  650000 750000 0  700000 750000 0  750000 750000 0  800000 750000 0  850000 750000 0  900000 750000 0  950000 750000 0  1000000 750000 0  0 800000 0  50000 800000 0  100000 800000 0  150000 800000 0  200000 800000 0  250000 800000 0  300000 800000 0  350000 800000 0  400000 800000 0  450000 800000 0  500000 800000 0  550000 800000 0  600000 800000 0  650000 800000 0  700000 800000 0  750000 800000 0  800000 800000 0  850000 800000 0  900000 800000 0  950000 800000 0  1000000 800000 0  0 850000 0  50000 850000 0  100000 850000 0  150000 850000 0  200000 850000 0  250000 850000 0  300000 850000 0  350000 850000 0  400000 850000 0  450000 850000 0  500000 850000 0  550000 850000 0  600000 850000 0  650000 850000 0  700000 850000 0  750000 850000 0  800000 850000 0  850000 850000 0  900000 850000 0  950000 850000 0  1000000 850000 0  0 900000 0  50000 900000 0  100000 900000 0  150000 900000 0  200000 900000 0  250000 900000 0  300000 900000 0  350000 900000 0  400000 900000 0  450000 900000 0  500000 900000 0  550000 900000 0  600000 900000 0  650000 900000 0  700000 900000 0  750000 900000 0  800000 900000 0  850000 900000 0  900000 900000 0  950000 900000 0  1000000 900000 0  0 950000 0  50000 950000 0  100000 950000 0  150000 950000 0  200000 950000 0  250000 950000 0  300000 950000 0  350000 950000 0  400000 950000 0  450000 950000 0  500000 950000 0  550000 950000 0  600000 950000 0  650000 950000 0  700000 950000 0  750000 950000 0  800000 950000 0  850000 950000 0  900000 950000 0  950000 950000 0  1000000 950000 0  0 1000000 0  50000 1000000 0  100000 1000000 0  150000 1000000 0  200000 1000000 0  250000 1000000 0  300000 1000000 0  350000 1000000 0  400000 1000000 0  450000 1000000 0  500000 1000000 0  550000 1000000 0  600000 1000000 0  650000 1000000 0  700000 1000000 0  750000 1000000 0  800000 1000000 0  850000 1000000 0  900000 1000000 0  950000 1000000 0  1000000 1000000 0  0 1050000 0  50000 1050000 0  100000 1050000 0  150000 1050000 0  200000 1050000 0  250000 1050000 0  300000 1050000 0  350000 1050000 0  400000 1050000 0  450000 1050000 0  500000 1050000 0  550000 1050000 0  600000 1050000 0  650000 1050000 0  700000 1050000 0  750000 1050000 0  800000 1050000 0  850000 1050000 0  900000 1050000 0  950000 1050000 0  1000000 1050000 0  0 1100000 0  50000 1100000 0  100000 1100000 0  150000 1100000 0  200000 1100000 0  250000 1100000 0  300000 1100000 0  350000 1100000 0  400000 1100000 0  450000 1100000 0  500000 1100000 0  550000 1100000 0  600000 1100000 0  650000 1100000 0  700000 1100000 0  750000 1100000 0  800000 1100000 0  850000 1100000 0  900000 1100000 0  950000 1100000 0  1000000 1100000 0  0 1150000 0  50000 1150000 0  100000 1150000 0  150000 1150000 0  200000 1150000 0  250000 1150000 0  300000 1150000 0  350000 1150000 0  400000 1150000 0  450000 1150000 0  500000 1150000 0  550000 1150000 0  600000 1150000 0  650000 1150000 0  700000 1150000 0  750000 1150000 0  800000 1150000 0  850000 1150000 0  900000 1150000 0  950000 1150000 0  1000000 1150000 0  0 1200000 0  50000 1200000 0  100000 1200000 0  150000 1200000 0  200000 1200000 0  250000 1200000 0  300000 1200000 0  350000 1200000 0  400000 1200000 0  450000 1200000 0  500000 1200000 0  550000 1200000 0  600000 1200000 0  650000 1200000 0  700000 1200000 0  750000 1200000 0  800000 1200000 0  850000 1200000 0  900000 1200000 0  950000 1200000 0  1000000 1200000 0  0 1250000 0  50000 1250000 0  100000 1250000 0  150000 1250000 0  200000 1250000 0  250000 1250000 0  300000 1250000 0  350000 1250000 0  400000 1250000 0  450000 1250000 0  500000 1250000 0  550000 1250000 0  600000 1250000 0  650000 1250000 0  700000 1250000 0  750000 1250000 0  800000 1250000 0  850000 1250000 0  900000 1250000 0  950000 1250000 0  1000000 1250000 0  0 1300000 0  50000 1300000 0  100000 1300000 0  150000 1300000 0  200000 1300000 0  250000 1300000 0  300000 1300000 0  350000 1300000 0  400000 1300000 0  450000 1300000 0  500000 1300000 0  550000 1300000 0  600000 1300000 0  650000 1300000 0  700000 1300000 0  750000 1300000 0  800000 1300000 0  850000 1300000 0  900000 1300000 0  950000 1300000 0  1000000 1300000 0  0 1350000 0  50000 1350000 0  100000 1350000 0  150000 1350000 0  200000 1350000 0  250000 1350000 0  300000 1350000 0  350000 1350000 0  400000 1350000 0  450000 1350000 0  500000 1350000 0  550000 1350000 0  600000 1350000 0  650000 1350000 0  700000 135
[...]
<PointData  Scalars="f_3013"> 
<DataArray  type="Float64"  Name="f_3013"  format="ascii">-1.5149709973427270e+00  -1.0302182980682104e+00  -6.9109487062071151e-01  -4.6014683111768440e-01  -3.0587289264329887e-01  -1.9978894723385632e-01  -1.2329558279817752e-01  -6.4858773694118577e-02  -1.7263447663809529e-02  2.4200012878122637e-02  6.2876858365070773e-02  1.0150494715062058e-01  1.4279970495134736e-01  1.9003284671688009e-01  2.4777247489527771e-01  3.2301010989590040e-01  4.2702556098610867e-01  5.7843851167135851e-01  8.0673598431028193e-01  1.1453487047190336e+00  1.4908876652557994e+00  -1.1691999522904710e+00  -9.7784459976693050e-01  -6.7860586209926099e-01  -4.5967822209655279e-01  -3.0934784731710180e-01  -2.0410678007655314e-01  -1.2720199359592269e-01  -6.7886893435505413e-02  -1.9274569541329983e-02  2.3233648207761578e-02  6.2975067755301650e-02  1.0272983980752293e-01  1.4528286767670434e-01  1.9399111514165265e-01  2.5350591854392057e-01  3.3082398652789019e-01  4.3678816801178000e-01  5.8749090895023948e-01  8.0133657230640076e-01  1.0718849542883768e+00  1.2529057560984842e+00  -8.3173769011559839e-01  -7.6067457160786744e-01  -5.8941391882136085e-01  -4.2818783530591281e-01  -3.0172752366475003e-01  -2.0576871447313877e-01  -1.3174208344820934e-01  -7.2491089558703342e-02  -2.2734973724674142e-02  2.1410090474053609e-02  6.2969633677928488e-02  1.0457411116294728e-01  1.4887224810303967e-01  1.9895013494002525e-01  2.5880448166589781e-01  3.3385216356756248e-01  4.3117393226317813e-01  5.5817509702933743e-01  7.1536209889187397e-01  8.7302370196329793e-01  9.2799991422442563e-01  -5.8581418806263386e-01  -5.5836883166617191e-01  -4.7016088332824169e-01  -3.6714457551104523e-01  -2.7295199831134875e-01  -1.9346772300909804e-01  -1.2738726788062787e-01  -7.1615074494361969e-02  -2.3046834339087240e-02  2.1034052422064253e-02  6.2993895841374214e-02  1.0501591485019125e-01  1.4930322330999773e-01  1.9828236107430117e-01  2.5476068000338925e-01  3.2189620498116711e-01  4.0257275558646105e-01  4.9718488888491352e-01  5.9800831893130513e-01  6.7920517032449967e-01  6.9396516071442660e-01  -4.1145886347023675e-01  -4.0133597760431605e-01  -3.5815663123921537e-01  -2.9657030564744152e-01  -2.3131464928076972e-01  -1.6981494691650606e-01  -1.1434295623400634e-01  -6.4661197056540623e-02  -1.9552576494089546e-02  2.2497447487997434e-02  6.3053272971078600e-02  1.0367507700058182e-01  1.4593701356515418e-01  1.9144144986504480e-01  2.4174419971480862e-01  2.9804298428990678e-01  3.6035883344519826e-01  4.2582407258518490e-01  4.8597602671459400e-01  5.2494586175737346e-01  5.2703668827580852e-01  -2.8705098655234734e-01  -2.8438286310419320e-01  -2.6483346292378890e-01  -2.2951908930624657e-01  -1.8607777823928165e-01  -1.4044324069217604e-01  -9.5808452053627258e-02  -5.3360558815448600e-02  -1.3134397474296631e-02  2.5417937625379784e-02  6.3111041098285262e-02  1.0086275351267683e-01  1.3959725117402416e-01  1.8014298733041462e-01  2.2304976370838336e-01  2.6822926282975523e-01  3.1431469061066086e-01  3.5773727995196231e-01  3.9199793222978430e-01  4.0897993611488087e-01  4.0689979150373617e-01  -1.9715761030168563e-01  -1.9781113233708650e-01  -1.9061584412367022e-01  -1.7127311969241266e-01  -1.4305150028551561e-01  -1.0999725871315912e-01  -7.5034967810848341e-02  -3.9811648453028863e-02  -5.0255334953571811e-03  2.9218522127388260e-02  6.3142744453400249e-02  9.7112156665959681e-02  1.3149234616969568e-01  1.6650309751277828e-01  2.0202061587354547e-01  2.3728710175444817e-01  2.7052529438925987e-01  2.9859377061950176e-01  3.1718628390452586e-01  3.2286056508649746e-01  3.1943563694513560e-01  -1.3142334676678188e-01  -1.3352029408343744e-01  -1.3274832775097545e-01  -1.2295434538736284e-01  -1.0498389957053601e-01  -8.1366886598822338e-02  -5.4415135692913105e-02  -2.5747112831679929e-02  3.6750814793828305e-03  3.3367986047965641e-02  6.3143033141398464e-02  9.2948768412550745e-02  1.2273121634925473e-01  1.5229171787476833e-01  1.8112181120566112e-01  2.0820909051563449e-01  2.3185201998139210e-01  2.4963084014323730e-01  2.5892138291948730e-01  2.5881698360928862e-01  2.5509000423476835e-01  -8.2935689683640165e-02  -8.5583931667424770e-02  -8.8081589678668096e-02  -8.3947976630111110e-02  -7.2771573203049153e-02  -5.6028691561447706e-02  -3.5426011181171328e-02  -1.2364971323346623e-02  1.2152638895117730e-02  3.7460418234216947e-02  6.3117473343275873e-02  8.8792745226710365e-02  1.1415167481462546e-01  1.3874170786664278e-01  1.6187376164957848e-01  1.8251005575857279e-01  1.9920273194417276e-01  2.1020212552714221e-01  2.1401312445190843e-01  2.1102104655013604e-01  2.0740105376130419e-01  -4.7031412396124191e-02  -4.9805031015778378e-02  -5.3883253294719491e-02  -5.3078138032132190e-02  -4.6370355536829402e-02  -3.4552496395852478e-02  -1.8842655811449376e-02  -3.8759686679549121e-04  1.9876564984948594e-02  4.1222385458211878e-02  6.3074874581984255e-02  8.4936374688491550e-02  1.0630595766951807e-01  1.2659854010976637e-01  1.4506949086634668e-01  1.6075995911897628e-01  1.7250104655094575e-01  1.7906517469794453e-01  1.7966989612632278e-01  1.7531789119255375e-01  1.7195730085493033e-01  -2.0518266038335706e-02  -2.3224044001804490e-02  -2.7984243458761385e-02  -2.9113290994300677e-02  -2.5329875245049007e-02  -1.6999382126745271e-02  -4.9791595483687561e-03  9.8130767830983297e-03  2.6543515156068863e-02  4.4490486627436987e-02  6.3023177890893234e-02  8.1558933257441110e-02  9.9512543338210260e-02  1.1624569191620231e-01  1.3102514082800995e-01  1.4300422006010416e-01  1.5125714492659373e-01  1.5493180171443188e-01  1.5368098560714646e-01  1.4877243872923671e-01  1.4570883388144537e-01  -1.1840860238007068e-03  -3.7496017908716442e-03  -8.7299374967201721e-03  -1.0962213863143645e-02  -9.0782855276578533e-03  -3.1832604571007984e-03  6.1185789424638651e-03  1.8092735878454905e-02  3.2008675182472503e-02  4.7180732688461277e-02  6.2968026516438583e-02  7.8755103897405171e-02  9.3924735124199271e-02  1.0783101390360016e-01  1.1978117498903018e-01  1.2903821509345320e-01  1.3486664449811381e-01  1.3667214494178334e-01  1.3436733160826872e-01  1.2930897312151168e-01  1.2652511295159963e-01  1.2509363018698087e-02  1.0091907479919570e-02  5.1071617083155068e-03  2.2632078377235374e-03  2.9344664368202338e-03  7.1706800610320306e-03  1.4537860564000046e-02  2.4436990952943553e-02  3.6225013070711749e-02  4.9259890541541451e-02  6.2912727438628302e-02  7.6563996759682895e-02  8.9593045380436193e-02  1.0136789535708043e-01  1.1124250330240606e-01  1.1857100487271037e-01  1.2275619929458950e-01  1.2337387349355569e-01  1.2048792019037975e-01  1.1546387958477078e-01  1.1291541353215795e-01  2.1616388225277769e-02  1.9319407932088199e-02  1.4405889144462329e-02  1.1238113956070179e-02  1.1168196416881741e-02  1.4334565853057275e-02  2.0411377016801173e-02  2.8891541628366473e-02  3.9196634951571982e-02  5.0722638525569755e-02  6.2858739123281562e-02  7.4993187427434785e-02  8.6513594149924072e-02  9.6807442131958216e-02  1.0526866651967359e-01  1.1131786004160167e-01  1.1445015240820103e-01  1.1434699947482752e-01  1.1115642521042449e-01  1.0622448817877589e-01  1.0385367204556993e-01  2.6824157648176496e-02  2.4600420746644546e-02  1.9755179106741717e-02  1.6432583855953347e-02  1.5961756618570470e-02  1.8527126563006781e-02  2.3863113723774303e-02  3.1515860228904957e-02  4.0946192245416811e-02  5.1575171883829804e-02  6.2806250525081930e-02  7.4036334088072489e-02  8.4662043375139287e-02  9.4086085438290931e-02  1.0172868291627300e-01  1.0705041812344378e-01  1.0959880439923265e-01  1.0911209473654092e-01  1.0577952716892693e-01  1.0092716488232484e-01  9.8670189309012696e-02  2.8522152884159869e-02  2.6313595407204248e-02  2.1493276217128605e-02  1.8122490895958288e-02  1.7520313626784943e-02  1.9886829559118292e-02  2.4976979806540602e-02  3.2354768186399964e-02  4.1494118997167088e-02  5.1824578403935562e-02  6.2754687820807828e-02  7.3684797237679622e-02  8.4015256644449060e-02  9.3154607455217267e-02  1.0053239583507735e-01  1.0562254608250152e-01  1.0798906201483609e-01  1.0738688474566367e-01  1.0401609942449346e-01  9.9195780234417566e-02  9.6987222757462244e-02  2.6839186332610239e-02  2.4582210759298055e-02  1.9729848472696269e-02  1.6397280905081600e-02  1.5910571242389475e-02  1.8458957518176677e-02  2.3780692725346417e-02  3.1423290203327167e-02  4.0847332266476605e-02  5.1473041553542598e-02  6.2703125116533184e-02  7.3934203757785172e-02  8.4563183396198532e-02  9.3993515412710560e-02  1.0164626191784235e-01  1.0698224907861111e-01  1.0954761902304956e-01  1.0907679178566723e-01  1.0575419653487982e-01  1.0090895489497696e-01  9.8685217993445401e-02  2.1655703596052924e-02  1.9284887462847188e-02  1.4352950431198778e-02  1.1162376166795973e-02  1.1059223233421624e-02  1.4191515600018818e-02  2.0240709121946067e-02  2.8701933509659609e-02  3.8995781491692125e-02  5.0516188214180371e-02  6.2650636518332803e-02  7.4786737116044236e-02  8.6312740690041842e-02  9.6617834013247930e-02  1.0509799862481484e-01  1.1117480978856012e-01  1.1434117922473734e-01  1.1427126168554905e-01  1.1110348649715869e-01  1.0618996770953358e-01  1.0389298741634397e-01  1.2593962109466219e-02  1.0045496056853629e-02  5.0214554512450736e-03  2.1355021480690098e-03  2.7531763470339545e-03  6.9383707689106757e-03  1.4266872339213586e-02  2.4141480284536967e-02  3.5916330261179477e-02  4.8945378881931262e-02  6.2596648202985120e-02  7.6249485100071762e-02  8.9284362570901124e-02  1.0107238468866897e-01  1.1097151507761413e-01  1.1833869558058344e-01  1.2257490920479749e-01  1.2324616780389533e-01  1.2040221393330368e-01  1.1541746816170005e-01  1.1300001262292192e-01  -1.0157373099749622e-03  -3.7995974798869059e-03  -8.8579559666431846e-03  -1.1162769300158543e-02  -9.3572688564900613e-03  -3.5288394518320169e-03  5.7282006525893429e-03  1.7678361738016391e-02  3.1584640517415136e-02  4.6754271744207182e-02  6.2541349125172660e-02  7.8328642953149674e-02  9.3500700459138289e-02  1.0741663976315530e-01  1.1939079669914743e-01  1.2869263609871348e-01  1.3458766116927370e-01  1.3647158950476043e-01  1.3423931313833734e-01  1.2925897743248912e-01  1.2669346166541864e-01  -2.0199458239819224e-02  -2.3263063087610544e-02  -2.8171609965519647e-02  -2.9422426072806252e-02  -2.5747769284969031e-02  -1.7494844418482029e-02  -5.5157651863908730e-03  9.2636837254131948e-03  2.5996832303403015e-02  4.3950442384169487e-02  6.2486197750715677e-02  8.1018889014171203e-02  9.8965860485539112e-02  1.1569629885851015e-01  1.3048853518997869e-01  1.4250875776835700e-01  1.5083925088666258e-01  1.5462266663591515e-01  1.5349361910037737e-01  1.4873341964342104e-01  1.4602764167995255e-01  -4.6447925213302078e-02  -4.9808515550926025e-02  -5.4160520484694087e-02  -5.3555799056316952e-02  -4.6991670909320250e-02  -3.5250583477354006e-02  -1.9560115224728485e-02  -1.0891644681522894e-03  1.9203417972093188e-02  4.0573000953117298e-02  6.2434501059622338e-02  8.4286990183394070e-02  1.0563281065665685e-01  1.2589697250840190e-01  1.4435203145305778e-01  1.6006187203746222e-01  1.7187973117844074e-01  1.7858751367374501e-01  1.7939262893633429e-01  1.7531440665739398e-01  1.7254078803773967e-01  -8.1891678119674613e-02  -8.5511670908506449e-02  -8.8503748810278671e-02  -8.4692749885513730e-02  -7.3693356302547086e-02  -5.7000680116951016e-02  -3.6364386007961394e-02  -1.3232332225029897e-02  1.1357700826984016e-02  3.6716630414895993e-02  6.2391902298327979e-02  8.8048957407386455e-02  1.1335673674648571e-01  1.3787434696495060e-01  1.6093538682277689e-01  1.8153806720305468e-01  1.9828094884465822e-01  2.0945735227172260e-01  2.1359096532028124e-01  2.1109330730903936e-01  2.0844506532525564e-01  -1.2958062859313652e-01  -1.3330760796765567e-01  -1.3341200727785515e-01  -1.2412146450160877e-01  -1.0634264433976627e-01  -8.2699714874012897e-02  -5.5612435564045069e-02  -2.6782342233157046e-02  2.7781592923520663e-03  3.2560607229052893e-02  6.2366342500202676e-02  9.2141389593634854e-02  1.2183429416221771e-01  1.5125648847328105e-01  1.7992451133451567e-01  2.0687626224042649e-01  2.3049327521214324e-01  2.4846372102897268e-01  2.5825770339258819e-01  2.5902966972505259e-01  2.5693272240839765e-01  -1.9392626130349994e-01  -1.9735118944486169e-01  -1.9167690826289185e-01  -1.7308439497787112e-01  -1.4501591874763295e-01  -1.1177772611282660e-01  -7.6511240231929456e-02  -4.0993721871167212e-02  -5.9829705280894322e-03  2.8397218975642742e-02  6.2366631188199406e-02  9.6290853514210573e-02  1.3053490913695562e-01  1.6532102409462723e-01  2.0054434345244862e-01  2.3550663435476157e-01  2.6856087592712247e-01  2.9678249533402323e-01  3.1612521976528418e-01  3.2332050797870354e-01  3.2266698594330384e-01  -2.8139041586209435e-01  -2.8347056047323899e-01  -2.6648855658814380e-01  -2.3222790431032730e-01  -1.8880531496903133e-01  -1.4271988718813355e-01  -9.7540388066767250e-02  -5.4633611688802527e-02  -1.4087875532417506e-02  2.4646622128925478e-02  6.2398334543314810e-02  1.0009143801621931e-01  1.3864377311589596e-01  1.7886993445704766e-01  2.2131782769522734e-01  2.6595261633378003e-01  3.1158715388088981e-01  3.5502846494785978e-01  3.9034283856540547e-01  4.0989223874581393e-01  4.1256036219396969e-01  -4.0152731263415686e-01  -3.9943648611572286e-01  -3.6046665107294551e-01  -3.0031469694354429e-01  -2.3484945780356403e-01  -1.7253360864828182e-01  -1.1623482407318952e-01  -6.5932074223430406e-02  -2.0427637923545086e-02  2.1834298641023188e-02  6.2456102670524150e-02  1.0301192815360435e-01  1.4506195213569092e-01  1.9017057269814228e-01  2.3985233187560978e-01  2.9532432255811458e-01  3.5682402492238158e-01  4.2207968128905787e-01  4.8366600688083755e-01  5.2684535324594350e-01  5.3696823911186597e-01  -5.6845578507276096e-01  -5.5369579468283525e-01  -4.7249894328964753e-01  -3.7167551324326525e-01  -2.7706337994482094e-01  -1.9638682933953569e-01  -1.2925130436176438e-01  -7.2772985432681875e-02  -2.3793847668383446e-02  2.0493460791419359e-02  6.2515479800233711e-02  1.0447532321954345e-01  1.4855620998069419e-01  1.9712445013596999e-01  2.5289664352223939e-01  3.1897709865071355e-01  3.9846137395296916e-01  4.9265395115266974e-01  5.9567025896987269e-01  6.8387820730780946e-01  7.1132356370427396e-01  -8.0249053858274499e-01  -7.4751432632161674e-01  -5.8985272325020455e-01  -4.3266572138767856e-01  -3.0566455662153041e-01  -2.0834278792592226e-01  -1.3329510602426506e-01  -7.3440759298397829e-02  -2.3362872461418046e-02  2.0935264478671223e-02  6.2539741963687917e-02  1.0409928516756226e-01  1.4824434936629013e-01  1.9800046520031997e-01  2.5725145908982971e-01  3.3127809011476439e-01  4.2723689930638048e-01  5.5369721094754931e-01  7.1492329446300529e-01  8.8618394724951732e-01  9.5724706575725649e-01  -1.1273963804567924e+00  -9.4637557864668775e-01  -6.7582719666472546e-01  -4.6198153330857311e-01  -3.1127879237012285e-01  -2.0531461088624114e-01  -1.2799654290227888e-01  -6.8481739500016778e-02  -1.9773492035073767e-02  2.2779535834104095e-02  6.2534307886322901e-02  1.0227572743386290e-01  1.4478394518295495e-01  1.9339626907713239e-01  2.5271136923755350e-01  3.2961615571818820e-01  4.3485722295874435e-01  5.8518759773820328e-01  8.0411523774092286e-01  1.1033539754085979e+00  1.2947093279321404e+00  -1.3653782896141031e+00  -1.0198393290773395e+00  -6.8122660866859941e-01  -4.5292913602968743e-01  -3.0151618534444719e-01  -1.9750073425424813e-01  -1.2226309925363289e-01  -6.4523471075241978e-02  -1.7290329309713727e-02  2.4004428491009554e-02  6.2632517276557095e-02  1.0130936276350430e-01  1.4277282330543778e-01  1.9036814933574897e-01  2.4880495843981204e-01  3.2529832287549526e-01  4.3138226828494586e-01  5.8565620675934082e-01  8.1660424626237593e-01  1.1557276737098852e+00  1.6404803729844051e+00  </DataArray> 
</PointData> 
</Piece>
</UnstructuredGrid>
</VTKFile>