<?xml version="1.0"?>
<VTKFile type="UnstructuredGrid"  version="0.1"  >
<UnstructuredGrid>
<Piece  NumberOfPoints="651" NumberOfCells="1200">
<Points>
<DataArray  type="Float64"  NumberOfComponents="3"  format="ascii">0 0 0  50000 0 0  100000 0 0  150000 0 0  200000 0 0  250000 0 0  300000 0 0  350000 0 0  400000 0 0  450000 0 0  500000 0 0  550000 0 0  600000 0 0  650000 0 0  700000 0 0  750000 0 0  800000 0 0  850000 0 0  900000 0 0  950000 0 0  1000000 0 0  0 50000 0  50000 50000 0  100000 50000 0  150000 50000 0  200000 50000 0  250000 50000 0  300000 50000 0  350000 50000 0  400000 50000 0  450000 50000 0  500000 50000 0  550000 50000 0  600000 50000 0  650000 50000 0  700000 50000 0  750000 50000 0  800000 50000 0  850000 50000 0  900000 50000 0  950000 50000 0  1000000 50000 0  0 100000 0  50000 100000 0  100000 100000 0  150000 100000 0  200000 100000 0  250000 100000 0  300000 100000 0  350000 100000 0  400000 100000 0  450000 100000 0  500000 100000 0  550000 100000 0  600000 100000 0  650000 100000 0  700000 100000 0  750000 100000 0  800000 100000 0  850000 100000 0  900000 100000 0  950000 100000 0  1000000 100000 0  0 150000 0  50000 150000 0  100000 150000 0  150000 150000 0  200000 150000 0  250000 150000 0  300000 150000 0  350000 150000 0  400000 150000 0  450000 150000 0  500000 150000 0  550000 150000 0  600000 150000 0  650000 150000 0  700000 150000 0  750000 150000 0  800000 150000 0  850000 150000 0  900000 150000 0  950000 150000 0  1000000 150000 0  0 200000 0  50000 200000 0  100000 200000 0  150000 200000 0  200000 200000 0  250000 200000 0  300000 200000 0  350000 200000 0  400000 200000 0  450000 200000 0  500000 200000 0  550000 200000 0  600000 200000 0  650000 200000 0  700000 200000 0  750000 200000 0  800000 200000 0  850000 200000 0  900000 200000 0  950000 200000 0  1000000 200000 0  0 250000 0  50000 250000 0  100000 250000 0  150000 250000 0  200000 250000 0  250000 250000 0  300000 250000 0  350000 250000 0  400000 250000 0  450000 250000 0  500000 250000 0  550000 250000 0  600000 250000 0  650000 250000 0  700000 250000 0  750000 250000 0  800000 250000 0  850000 250000 0  900000 250000 0  950000 250000 0  1000000 250000 0  0 300000 0  50000 300000 0  100000 300000 0  150000 300000 0  200000 300000 0  250000 300000 0  300000 300000 0  350000 300000 0  400000 300000 0  450000 300000 0  500000 300000 0  550000 300000 0  600000 300000 0  650000 300000 0  700000 300000 0  750000 300000 0  800000 300000 0  850000 300000 0  900000 300000 0  950000 300000 0  1000000 300000 0  0 350000 0  50000 350000 0  100000 350000 0  150000 350000 0  200000 350000 0  250000 350000 0  300000 350000 0  350000 350000 0  400000 350000 0  450000 350000 0  500000 350000 0  550000 350000 0  600000 350000 0  650000 350000 0  700000 350000 0  750000 350000 0  800000 350000 0  850000 350000 0  900000 350000 0  950000 350000 0  1000000 350000 0  0 400000 0  50000 400000 0  100000 400000 0  150000 400000 0  200000 400000 0  250000 400000 0  300000 400000 0  350000 400000 0  400000 400000 0  450000 400000 0  500000 400000 0  550000 400000 0  600000 400000 0  650000 400000 0  700000 400000 0  750000 400000 0  800000 400000 0  850000 400000 0  900000 400000 0  950000 400000 0  1000000 400000 0  0 450000 0  50000 450000 0  100000 450000 0  150000 450000 0  200000 450000 0  250000 450000 0  300000 450000 0  350000 450000 0  400000 450000 0  450000 450000 0  500000 450000 0  550000 450000 0  600000 450000 0  650000 450000 0  700000 450000 0  750000 450000 0  800000 450000 0  850000 450000 0  900000 450000 0  950000 450000 0  1000000 450000 0  0 500000 0  50000 500000 0  100000 500000 0  150000 500000 0  200000 500000 0  250000 500000 0  300000 500000 0  350000 500000 0  400000 500000 0  450000 500000 0  500000 500000 0  550000 500000 0  600000 500000 0  650000 500000 0  700000 500000 0  750000 500000 0  800000 500000 0  850000 500000 0  900000 500000 0  950000 500000 0  1000000 500000 0  0 550000 0  50000 550000 0  100000 550000 0  150000 550000 0  200000 550000 0  250000 550000 0  300000 550000 0  350000 550000 0  400000 550000 0  450000 550000 0  500000 550000 0  550000 550000 0  600000 550000 0  650000 550000 0  700000 550000 0  750000 550000 0  800000 550000 0  850000 550000 0  900000 550000 0  950000 550000 0  1000000 550000 0  0 600000 0  50000 600000 0  100000 600000 0  150000 600000 0  200000 600000 0  250000 600000 0  300000 600000 0  350000 600000 0  400000 600000 0  450000 600000 0  500000 600000 0  550000 600000 0  600000 600000 0  650000 600000 0  700000 600000 0  750000 600000 0  800000 600000 0  850000 600000 0  900000 600000 0  950000 600000 0  1000000 600000 0  0 650000 0  50000 650000 0  100000 650000 0  150000 650000 0  200000 650000 0  250000 650000 0  300000 650000 0  350000 650000 0  400000 650000 0  450000 650000 0  500000 650000 0  550000 650000 0  600000 650000 0  650000 650000 0  700000 650000 0  750000 650000 0  800000 650000 0  850000 650000 0  900000 650000 0  950000 650000 0  1000000 650000 0  0 700000 0  50000 700000 0  100000 700000 0  150000 700000 0  200000 700000 0  250000 700000 0  300000 700000 0  350000 700000 0  400000 700000 0  450000 700000 0  500000 700000 0  550000 700000 0  600000 700000 0  650000 700000 0  700000 700000 0  750000 700000 0  800000 700000 0  850000 700000 0  900000 700000 0  950000 700000 0  1000000 700000 0  0 750000 0  50000 750000 0  100000 750000 0  150000 750000 0  200000 750000 0  250000 750000 0  300000 750000 0  350000 750000 0  400000 750000 0  450000 750000 0  500000 750000 0  550000 750000 0  600000 750000 0  650000 750000 0  700000 750000 0  750000 750000 0  800000 750000 0  850000 750000 0  900000 750000 0  950000 750000 0  1000000 750000 0  0 800000 0  50000 800000 0  100000 800000 0  150000 800000 0  200000 800000 0  250000 800000 0  300000 800000 0  350000 800000 0  400000 800000 0  450000 800000 0  500000 800000 0  550000 800000 0  600000 800000 0  650000 800000 0  700000 800000 0  750000 800000 0  800000 800000 0  850000 800000 0  900000 800000 0  950000 800000 0  1000000 800000 0  0 850000 0  50000 850000 0  100000 850000 0  150000 850000 0  200000 850000 0  250000 850000 0  300000 850000 0  350000 850000 0  400000 850000 0  450000 850000 0  500000 850000 0  550000 850000 0  600000 850000 0  650000 850000 0  700000 850000 0  750000 850000 0  800000 850000 0  850000 850000 0  900000 850000 0  950000 850000 0  1000000 850000 0  0 900000 0  50000 900000 0  100000 900000 0  150000 900000 0  200000 900000 0  250000 900000 0  300000 900000 0  350000 900000 0  400000 900000 0  450000 900000 0  500000 900000 0  550000 900000 0  600000 900000 0  650000 900000 0  700000 900000 0  750000 900000 0  800000 900000 0  850000 900000 0  900000 900000 0  950000 900000 0  1000000 900000 0  0 950000 0  50000 950000 0  100000 950000 0  150000 950000 0  200000 950000 0  250000 950000 0  300000 950000 0  350000 950000 0  400000 950000 0  450000 950000 0  500000 950000 0  550000 950000 0  600000 950000 0  650000 950000 0  700000 950000 0  750000 950000 0  800000 950000 0  850000 950000 0  900000 950000 0  950000 950000 0  1000000 950000 0  0 1000000 0  50000 1000000 0  100000 1000000 0  150000 1000000 0  200000 1000000 0  250000 1000000 0  300000 1000000 0  350000 1000000 0  400000 1000000 0  450000 1000000 0  500000 1000000 0  550000 1000000 0  600000 1000000 0  650000 1000000 0  700000 1000000 0  750000 1000000 0  800000 1000000 0  850000 1000000 0  900000 1000000 0  950000 1000000 0  1000000 1000000 0  0 1050000 0  50000 1050000 0  100000 1050000 0  150000 1050000 0  200000 1050000 0  250000 1050000 0  300000 1050000 0  350000 1050000 0  400000 1050000 0  450000 1050000 0  500000 1050000 0  550000 1050000 0  600000 1050000 0  650000 1050000 0  700000 1050000 0  750000 1050000 0  800000 1050000 0  850000 1050000 0  900000 1050000 0  950000 1050000 0  1000000 1050000 0  0 1100000 0  50000 1100000 0  100000 1100000 0  150000 1100000 0  200000 1100000 0  250000 1100000 0  300000 1100000 0  350000 1100000 0  400000 1100000 0  450000 1100000 0  500000 1100000 0  550000 1100000 0  600000 1100000 0  650000 1100000 0  700000 1100000 0  750000 1100000 0  800000 1100000 0  850000 1100000 0  900000 1100000 0  950000 1100000 0  1000000 1100000 0  0 1150000 0  50000 1150000 0  100000 1150000 0  150000 1150000 0  200000 1150000 0  250000 1150000 0  300000 1150000 0  350000 1150000 0  400000 1150000 0  450000 1150000 0  500000 1150000 0  550000 1150000 0  600000 1150000 0  650000 1150000 0  700000 1150000 0  750000 1150000 0  800000 1150000 0  850000 1150000 0  900000 1150000 0  950000 1150000 0  1000000 1150000 0  0 1200000 0  50000 1200000 0  100000 1200000 0  150000 1200000 0  200000 1200000 0  250000 1200000 0  300000 1200000 0  350000 1200000 0  400000 1200000 0  450000 1200000 0  500000 1200000 0  550000 1200000 0  600000 1200000 0  650000 1200000 0  700000 1200000 0  750000 1200000 0  800000 1200000 0  850000 1200000 0  900000 1200000 0  950000 1200000 0  1000000 1200000 0  0 1250000 0  50000 1250000 0  100000 1250000 0  150000 1250000 0  200000 1250000 0  250000 1250000 0  300000 1250000 0  350000 1250000 0  400000 1250000 0  450000 1250000 0  500000 1250000 0  550000 1250000 0  600000 1250000 0  650000 1250000 0  700000 1250000 0  750000 1250000 0  800000 1250000 0  850000 1250000 0  900000 1250000 0  950000 1250000 0  1000000 1250000 0  0 1300000 0  50000 1300000 0  100000 1300000 0  150000 1300000 0  200000 1300000 0  250000 1300000 0  300000 1300000 0  350000 1300000 0  400000 1300000 0  450000 1300000 0  500000 1300000 0  550000 1300000 0  600000 1300000 0  650000 1300000 0  700000 1300000 0  750000 1300000 0  800000 1300000 0  850000 1300000 0  900000 1300000 0  950000 1300000 0  1000000 1300000 0  0 1350000 0  50000 1350000 0  100000 1350000 0  150000 1350000 0  200000 1350000 0  250000 1350000 0  300000 1350000 0  350000 1350000 0  400000 1350000 0  450000 1350000 0  500000 1350000 0  550000 1350000 0  600000 1350000 0  650000 1350000 0  700000 135
[...]
<PointData  Vectors="f_3007"> 
<DataArray  type="Float64"  Name="f_3007"  NumberOfComponents="3" format="ascii">-1.5248353722968209e-08 -8.4764024050387361e-09 0.0000000000000000e+00  6.3971717170891482e-08 -5.3013789198648258e-09 0.0000000000000000e+00  6.7268833475017329e-08 -1.4696697133255118e-09 0.0000000000000000e+00  7.1017463947915794e-08 -2.4076728316250222e-10 0.0000000000000000e+00  7.3829997153429784e-08 1.5627206483287629e-10 0.0000000000000000e+00  7.5658534750941963e-08 2.6529677215622265e-10 0.0000000000000000e+00  7.6805428967083889e-08 2.5676737840002745e-10 0.0000000000000000e+00  7.7506000723072077e-08 2.0031872443468993e-10 0.0000000000000000e+00  7.7908154937894504e-08 1.2595676887242118e-10 0.0000000000000000e+00  7.8096147830156905e-08 4.5746347633025420e-11 0.0000000000000000e+00  7.8109166424506835e-08 -3.6263175578755821e-11 0.0000000000000000e+00  7.7950695641457098e-08 -1.1877008798774973e-10 0.0000000000000000e+00  7.7589738899887073e-08 -1.9943498732252263e-10 0.0000000000000000e+00  7.6954868443800478e-08 -2.7017962523471180e-10 0.0000000000000000e+00  7.5923370660216671e-08 -3.0793287253398127e-10 0.0000000000000000e+00  7.4318102565291568e-08 -2.5193842347280102e-10 0.0000000000000000e+00  7.1966927926022831e-08 5.6877338237996797e-11 0.0000000000000000e+00  6.9000461116285422e-08 1.0325448552707638e-09 0.0000000000000000e+00  6.6493654372092589e-08 3.6589809662621980e-09 0.0000000000000000e+00  6.5158959099321924e-08 8.5516785844094367e-09 0.0000000000000000e+00  -1.3292734761727586e-08 7.3247406133969397e-09 0.0000000000000000e+00  -1.0818892960528628e-08 -1.1669728815283618e-08 0.0000000000000000e+00  7.2321690190394403e-09 -1.7637073250111380e-08 0.0000000000000000e+00  2.1042670617331329e-08 -1.2436327290252669e-08 0.0000000000000000e+00  3.1777500652030870e-08 -8.3431827011958792e-09 0.0000000000000000e+00  3.9679421527444954e-08 -5.6076463962499629e-09 0.0000000000000000e+00  4.5373666654254706e-08 -3.7667511861488813e-09 0.0000000000000000e+00  4.9370059758275316e-08 -2.5087443635318178e-09 0.0000000000000000e+00  5.2090136521108396e-08 -1.6263664864615328e-09 0.0000000000000000e+00  5.3838269676992061e-08 -9.7956561032390619e-10 0.0000000000000000e+00  5.4813142206898115e-08 -4.7031053818572587e-10 0.0000000000000000e+00  5.5126283496827395e-08 -2.4794482947901860e-11 0.0000000000000000e+00  5.4814552013096083e-08 4.2005851862889909e-10 0.0000000000000000e+00  5.3844774219425398e-08 9.2820270257560209e-10 0.0000000000000000e+00  5.2110845437966289e-08 1.5770410941514994e-09 0.0000000000000000e+00  4.9424278914388070e-08 2.4749121067993708e-09 0.0000000000000000e+00  4.5501601574818066e-08 3.7901724677653042e-09 0.0000000000000000e+00  3.9958165695960508e-08 5.8026669335612648e-09 0.0000000000000000e+00  3.2315625093645758e-08 8.9771693822505993e-09 0.0000000000000000e+00  2.1920860782406408e-08 1.3892453148410176e-08 0.0000000000000000e+00  7.4202458426858534e-09 1.9790721508211006e-08 0.0000000000000000e+00  -1.2965055167156890e-08 9.9775612650232427e-09 0.0000000000000000e+00  -5.0399774665042271e-09 -1.1524486070485731e-08 0.0000000000000000e+00  -2.9634806753509946e-09 -2.5720932946203493e-08 0.0000000000000000e+00  1.8368735873676128e-09 -2.2389171476863632e-08 0.0000000000000000e+00  9.1218349115369436e-09 -1.7027454378724273e-08 0.0000000000000000e+00  1.6492729344086135e-08 -1.2404294335815507e-08 0.0000000000000000e+00  2.2627623049734491e-08 -8.8411043524279560e-09 0.0000000000000000e+00  2.7336160001809443e-08 -6.1571257794861463e-09 0.0000000000000000e+00  3.0745916547142993e-08 -4.1187711797046830e-09 0.0000000000000000e+00  3.3033765111035191e-08 -2.5209296817714091e-09 0.0000000000000000e+00  3.4346447121881710e-08 -1.1944473047255361e-09 0.0000000000000000e+00  3.4776930427471209e-08 3.5558776075515647e-12 0.0000000000000000e+00  3.4358329852363628e-08 1.2030563934946574e-09 0.0000000000000000e+00  3.3063458242673685e-08 2.5352083599313383e-09 0.0000000000000000e+00  3.0807612380351320e-08 4.1472882624024259e-09 0.0000000000000000e+00  2.7457925993526147e-08 6.2189411340343144e-09 0.0000000000000000e+00  2.2860577175757179e-08 8.9764615802529194e-09 0.0000000000000000e+00  1.6913348094609946e-08 1.2683531835631757e-08 0.0000000000000000e+00  9.7449476710078328e-09 1.7508707618789366e-08 0.0000000000000000e+00  2.1234021649125926e-09 2.2876389421608592e-08 0.0000000000000000e+00  -3.8340758017297099e-09 2.5074422148911726e-08 0.0000000000000000e+00  -7.3926963864672644e-09 1.0543023765263079e-08 0.0000000000000000e+00  -2.1271666898360087e-09 -9.1797279112449375e-09 0.0000000000000000e+00  -4.1693289052372756e-09 -2.5141245791813329e-08 0.0000000000000000e+00  -4.4925698325972154e-09 -2.6724097934772563e-08 0.0000000000000000e+00  -1.7867290737847530e-09 -2.2888362528075556e-08 0.0000000000000000e+00  2.5443264618460235e-09 -1.8062510980710695e-08 0.0000000000000000e+00  7.0529766834571450e-09 -1.3623467040978909e-08 0.0000000000000000e+00  1.0985358667404638e-08 -9.8867591327333554e-09 0.0000000000000000e+00  1.4068701984973190e-08 -6.8123929824926740e-09 0.0000000000000000e+00  1.6246551949239664e-08 -4.2520478879782005e-09 0.0000000000000000e+00  1.7536537003792148e-08 -2.0326558811819916e-09 0.0000000000000000e+00  1.7967433575594103e-08 1.8967041026380019e-11 0.0000000000000000e+00  1.7552952211475155e-08 2.0728535759562446e-09 0.0000000000000000e+00  1.6285009279263000e-08 4.2997901750052122e-09 0.0000000000000000e+00  1.4142150769635275e-08 6.8752976559639665e-09 0.0000000000000000e+00  1.1116940693283540e-08 9.9758512005695172e-09 0.0000000000000000e+00  7.2746316840947138e-09 1.3749461948846576e-08 0.0000000000000000e+00  2.8656243682240045e-09 1.8212381979491394e-08 0.0000000000000000e+00  -1.4835211731918277e-09 2.2947485508227391e-08 0.0000000000000000e+00  -4.5482339812508121e-09 2.6348974365616109e-08 0.0000000000000000e+00  -4.7626169603816937e-09 2.4265380172444577e-08 0.0000000000000000e+00  -3.2848178036996583e-09 9.8342904810476069e-09 0.0000000000000000e+00  -8.5021161718413821e-10 -6.8924643988719669e-09 0.0000000000000000e+00  -3.7513630201564335e-09 -2.2140447348892790e-08 0.0000000000000000e+00  -6.1206129841268124e-09 -2.6607742893247736e-08 0.0000000000000000e+00  -6.4549160078410347e-09 -2.5156837070654167e-08 0.0000000000000000e+00  -5.0146937584966087e-09 -2.1334409113993240e-08 0.0000000000000000e+00  -2.6911198143655858e-09 -1.6963969087203996e-08 0.0000000000000000e+00  -2.2502950068146222e-10 -1.2799813305328260e-08 0.0000000000000000e+00  1.9404039247959362e-09 -9.0717940461808457e-09 0.0000000000000000e+00  3.5797033139271227e-09 -5.7725165930366162e-09 0.0000000000000000e+00  4.5917069279343516e-09 -2.7915721995043314e-09 0.0000000000000000e+00  4.9375925514016792e-09 2.3655081748688390e-11 0.0000000000000000e+00  4.6089152732000029e-09 2.8405238261041430e-09 0.0000000000000000e+00  3.6181113386077436e-09 5.8263898404503609e-09 0.0000000000000000e+00  2.0084076913715477e-09 9.1332936920524213e-09 0.0000000000000000e+00  -1.1547617431706789e-10 1.2867993956562403e-08 0.0000000000000000e+00  -2.5324553989231526e-09 1.7024190442488283e-08 0.0000000000000000e+00  -4.8287429709231975e-09 2.1334561737584245e-08 0.0000000000000000e+00  -6.3351604919594174e-09 2.4978089662603142e-08 0.0000000000000000e+00  -6.2147426753560674e-09 2.6116372305462838e-08 0.0000000000000000e+00  -4.0531404922612300e-09 2.1545243232674998e-08 0.0000000000000000e+00  -1.4231579374545465e-09 8.0926457716647177e-09 0.0000000000000000e+00  -2.6960054137486605e-10 -5.1009464053878640e-09 0.0000000000000000e+00  -3.1178283161554293e-09 -1.8740106101665591e-08 0.0000000000000000e+00  -6.1478436059442941e-09 -2.4392791931171888e-08 0.0000000000000000e+00  -8.1238590240452522e-09 -2.4783006126635968e-08 0.0000000000000000e+00  -8.7313446516411234e-09 -2.2281699098493180e-08 0.0000000000000000e+00  -8.3134701810211638e-09 -1.8544330786545424e-08 0.0000000000000000e+00  -7.3637941340655132e-09 -1.4487264407917215e-08 0.0000000000000000e+00  -6.2908388649911206e-09 -1.0534824078239252e-08 0.0000000000000000e+00  -5.3685509813233437e-09 -6.8242441392019608e-09 0.0000000000000000e+00  -4.7583944237256893e-09 -3.3374938195551901e-09 0.0000000000000000e+00  -4.5418620385395566e-09 2.1562002515536481e-11 0.0000000000000000e+00  -4.7428409381522139e-09 3.3811071065314901e-09 0.0000000000000000e+00  -5.3352754069085359e-09 6.8687515396646127e-09 0.0000000000000000e+00  -6.2359370521774936e-09 1.0578258852934701e-08 0.0000000000000000e+00  -7.2837810965622181e-09 1.4521275477052655e-08 0.0000000000000000e+00  -8.2118594037737494e-09 1.8546314748643926e-08 0.0000000000000000e+00  -8.6312663891182722e-09 2.2205095223502534e-08 0.0000000000000000e+00  -8.0769750027650684e-09 2.4561681792743736e-08 0.0000000000000000e+00  -6.2091140168095114e-09 2.4015145756607075e-08 0.0000000000000000e+00  -3.2626712020230694e-09 1.8386096866453428e-08 0.0000000000000000e+00  -5.5954370236576928e-10 6.2391167522299735e-09 0.0000000000000000e+00  4.7535285594009507e-12 -3.7713402054433832e-09 0.0000000000000000e+00  -2.5483644981734842e-09 -1.5536196336521949e-08 0.0000000000000000e+00  -5.6459721612331375e-09 -2.1384729478596262e-08 0.0000000000000000e+00  -8.3832229978573587e-09 -2.2874635286791450e-08 0.0000000000000000e+00  -1.0236106251576106e-08 -2.1515091813956026e-08 0.0000000000000000e+00  -1.1193873834451004e-08 -1.8586795426845016e-08 0.0000000000000000e+00  -1.1492029888560265e-08 -1.4956561557701231e-08 0.0000000000000000e+00  -1.1413488115933258e-08 -1.1122761104353827e-08 0.0000000000000000e+00  -1.1194652960412821e-08 -7.3202280696599212e-09 0.0000000000000000e+00  -1.0999175172952785e-08 -3.6163654959757599e-09 0.0000000000000000e+00  -1.0919884189539834e-08 1.6700261273259206e-11 0.0000000000000000e+00  -1.0986289810453185e-08 3.6492299036228403e-09 0.0000000000000000e+00  -1.1168051704011442e-08 7.3507287296268272e-09 0.0000000000000000e+00  -1.1372155900862398e-08 1.1146407566864205e-08 0.0000000000000000e+00  -1.1436673995156726e-08 1.4963246433430526e-08 0.0000000000000000e+00  -1.1130741010027362e-08 1.8557116437686054e-08 0.0000000000000000e+00  -1.0181539512687263e-08 2.1419788615786412e-08 0.0000000000000000e+00  -8.3630092252546544e-09 2.2687996116913086e-08 0.0000000000000000e+00  -5.6797787490846353e-09 2.1128077337058812e-08 0.0000000000000000e+00  -2.6155616716951692e-09 1.5331879929478849e-08 0.0000000000000000e+00  -1.4264841553966128e-10 4.6969502945160139e-09 0.0000000000000000e+00  1.3409012677643606e-10 -2.7912943004172042e-09 0.0000000000000000e+00  -2.0825590343035096e-09 -1.2688759839077711e-08 0.0000000000000000e+00  -5.0010143029797114e-09 -1.8196187233884947e-08 0.0000000000000000e+00  -7.9914116146792074e-09 -2.0210804153411453e-08 0.0000000000000000e+00  -1.0499753555834829e-08 -1.9673730805496749e-08 0.0000000000000000e+00  -1.2326409374873238e-08 -1.7507750843894670e-08 0.0000000000000000e+00  -1.3513420872270663e-08 -1.4435816486647315e-08 0.0000000000000000e+00  -1.4208083636903006e-08 -1.0940786209586664e-08 0.0000000000000000e+00  -1.4571711831839249e-08 -7.2991479363466897e-09 0.0000000000000000e+00  -1.4734026182130255e-08 -3.6375160376762468e-09 0.0000000000000000e+00  -1.4775722024463169e-08 1.1358958322782631e-11 0.0000000000000000e+00  -1.4723847362469185e-08 3.6590664804804818e-09 0.0000000000000000e+00  -1.4551307849455592e-08 7.3165417112571834e-09 0.0000000000000000e+00  -1.4177917873356241e-08 1.0948945322580317e-08 0.0000000000000000e+00  -1.3475736762082901e-08 1.4425993646806163e-08 0.0000000000000000e+00  -1.2287059189479196e-08 1.7466700702339580e-08 0.0000000000000000e+00  -1.0469277494111776e-08 1.9586359899366864e-08 0.0000000000000000e+00  -7.9825023900030670e-09 2.0070893222410031e-08 0.0000000000000000e+00  -5.0188888868292327e-09 1.8027727582721507e-08 0.0000000000000000e+00  -2.1108279112866689e-09 1.2571357776458169e-08 0.0000000000000000e+00  6.1772055935818121e-11 3.5097527351657112e-09 0.0000000000000000e+00  1.9100359772870718e-10 -2.0630701950738752e-09 0.0000000000000000e+00  -1.7089819710040648e-09 -1.0216580107408671e-08 0.0000000000000000e+00  -4.3547077728276333e-09 -1.5112501172383660e-08 0.0000000000000000e+00  -7.3199639790071632e-09 -1.7265608585232240e-08 0.0000000000000000e+00  -1.0093949958129899e-08 -1.7253107734737925e-08 0.0000000000000000e+00  -1.2393983832904153e-08 -1.5715574122951676e-08 0.0000000000000000e+00  -1.4138449337368518e-08 -1.3215346017791785e-08 0.0000000000000000e+00  -1.5363626460882969e-08 -1.0173331810174816e-08 0.0000000000000000e+00  -1.6151885069558357e-08 -6.8648518855360932e-09 0.0000000000000000e+00  -1.6585275991488415e-08 -3.4463261107243644e-09 0.0000000000000000e+00  -1.6720465434835675e-08 6.5071531435880335e-12 0.0000000000000000e+00  -1.6577457477391885e-08 3.4579272570301698e-09 0.0000000000000000e+00  -1.6136596430072510e-08 6.8717690583148934e-09 0.0000000000000000e+00  -1.5341956167865706e-08 1.0170994731361781e-08 0.0000000000000000e+00  -1.4112964527959433e-08 1.3197303298927029e-08 0.0000000000000000e+00  -1.2369463261010435e-08 1.5673934374631956e-08 0.0000000000000000e+00  -1.0077154124496093e-08 1.7181401005163939e-08 0.0000000000000000e+00  -7.3169015723684282e-09 1.7165288202763605e-08 0.0000000000000000e+00  -4.3640577106644860e-09 1.5003103996732070e-08 0.0000000000000000e+00  -1.7173670622167168e-09 1.0149663414983130e-08 0.0000000000000000e+00  1.5942358734169038e-10 2.6147509074673368e-09 0.0000000000000000e+00  2.1099531273927887e-10 -1.5151112250570251e-09 0.0000000000000000e+00  -1.4101220971535498e-09 -8.0920181575246294e-09 0.0000000000000000e+00  -3.7613726932094480e-09 -1.2259997616072010e-08 0.0000000000000000e+00  -6.5605556117734070e-09 -1.4310561315111876e-08 0.0000000000000000e+00  -9.3624829456773103e-09 -1.4590707494312668e-08 0.0000000000000000e+00  -1.1860684518050029e-08 -1.3534377862406218e-08 0.0000000000000000e+00  -1.3903555246303280e-08 -1.1560448939963204e-08 0.0000000000000000e+00  -1.5448505186367213e-08 -9.0122991119438636e-09 0.0000000000000000e+00  -1.6511371893357603e-08 -6.1383351947328119e-09 0.0000000000000000e+00  -1.7127570566699490e-08 -3.1004343903228028e-09 0.0000000000000000e+00  -1.7327173352801001e-08 2.4734370277595330e-12 0.0000000000000000e+00  -1.7121702904067954e-08 3.1039956335537187e-09 0.0000000000000000e+00  -1.6500146840790982e-08 6.1375008483086454e-09 0.0000000000000000e+00  -1.5433189020871955e-08 9.0034343605934092e-09 0.0000000000000000e+00  -1.3886554493951969e-08 1.1539266202883886e-08 0.0000000000000000e+00  -1.1845728179603515e-08 1.3496725046634562e-08 0.0000000000000000e+00  -9.3539195875230175e-09 1.4534705401670248e-08 0.0000000000000000e+00  -6.5607907005831320e-09 1.4240101015402629e-08 0.0000000000000000e+00  -3.7661515357562798e-09 1.2189508500608731e-08 0.0000000000000000e+00  -1.4084804637953003e-09 8.0549775290339116e-09 0.0000000000000000e+00  2.0148991830748840e-10 1.9400334057976409e-09 0.0000000000000000e+00  2.1265492291982799e-10 -1.0966725810264052e-09 0.0000000000000000e+00  -1.1721456933290884e-09 -6.2719832905260882e-09 0.0000000000000000e+00  -3.2436515673858717e-09 -9.6817803976371087e-09 0.0000000000000000e+00  -5.8190681083705749e-09 -1.1488735576665630e-08 0.0000000000000000e+00  -8.5189966888038745e-09 -1.1895925461645616e-08 0.0000000000000000e+00  -1.1042762165296551e-08 -1.1191285586299933e-08 0.0000000000000000e+00  -1.3204362340212869e-08 -9.6769347976102159e-09 0.0000000000000000e+00  -1.4910482596281318e-08 -7.6197711804666836e-09 0.0000000000000000e+00  -1.6127498674864057e-08 -5.2288128493813971e-09 0.0000000000000000e+00  -1.6852301676696436e-08 -2.6542477045812866e-09 0.0000000000000000e+00  -1.7091268781082744e-08 -6.9101569475544405e-13 0.0000000000000000e+00  -1.6848015656729196e-08 2.6516611670178058e-09 0.0000000000000000e+00  -1.6119464473622320e-08 5.2225298264022276e-09 0.0000000000000000e+00  -1.4899914717918835e-08 7.6071402744251371e-09 0.0000000000000000e+00  -1.3193320202684162e-08 9.6553619892014440e-09 0.0000000000000000e+00  -1.1034069548620353e-08 1.1158969914031221e-08 0.0000000000000000e+00  -8.5154102534693292e-09 1.1853226169243011e-08 0.0000000000000000e+00  -5.8210389363429814e-09 1.1439872043244092e-08 0.0000000000000000e+00  -3.2459355920568066e-09 9.6369523529168632e-09 0.0000000000000000e+00  -1.1659293985473883e-09 6.2529721406529336e-09 0.0000000000000000e+00  2.1449798073589090e-10 1.4272274930854569e-09 0.0000000000000000e+00  2.0624911090407887e-10 -7.7116890186763640e-10 0.0000000000000000e+00  -9.8574657830604257e-10 -4.7080606960225700e-09 0.0000000000000000e+00  -2.8123173000608363e-09 -7.3740939578860163e-09 0.0000000000000000e+00  -5.1579021282051871e-09 -8.8610142456837777e-09 0.0000000000000000e+00  -7.7000436193222510e-09 -9.2834399738901457e-09 0.0000000000000000e+00  -1.0156063151157788e-08 -8.8279634198322603e-09 0.0000000000000000e+00  -1.2326782362563394e-08 -7.7056121586014650e-09 0.0000000000000000e+00  -1.4089029124857964e-08 -6.1147225736756509e-09 0.0000000000000000e+00  -1.5375573003331335e-08 -4.2206807470018295e-09 0.0000000000000000e+00  -1.6154764752937595e-08 -2.1512017035709585e-09 0.0000000000000000e+00  -1.6414415517140144e-08 -3.0497855834718808e-12 0.0000000000000000e+00  -1.6151745469996337e-08 2.1441373221503297e-09 0.0000000000000000e+00  -1.5370021591600446e-08 4.2107387981555542e-09 0.0000000000000000e+00  -1.4081988326004649e-08 6.1001063459581978e-09 0.0000000000000000e+00  -1.2319897175877695e-08 7.6849322611893463e-09 0.0000000000000000e+00  -1.0151394206534551e-08 8.8008046709777473e-09 0.0000000000000000e+00  -7.6992792451445843e-09 9.2511515256431746e-09 0.0000000000000000e+00  -5.1605324066784070e-09 8.8273980754655101e-09 0.0000000000000000e+00  -2.8132516104027699e-09 7.3461950872003241e-09 0.0000000000000000e+00  -9.7815808206571586e-10 4.7000688682232252e-09 0.0000000000000000e+00  2.1300877581437619e-10 1.0325414251696056e-09 0.0000000000000000e+00  1.9765593912258210e-10 -5.1115522399442295e-10 0.0000000000000000e+00  -8.4500863905622073e-10 -3.3498625984970305e-09 0.0000000000000000e+00  -2.4731391501909176e-09 -5.3053750457897249e-09 0.0000000000000000e+00  -4.6152873743950684e-09 -6.4351422353048652e-09 0.0000000000000000e+00  -6.9938535297902655e-09 -6.8007562160691663e-09 0.0000000000000000e+00  -9.3465652432631868e-09 -6.5187397772685508e-09 0.0000000000000000e+00  -1.1472216886505703e-08 -5.7298946695903238e-09 0.0000000000000000e+00  -1.3231647735573818e-08 -4.5733473197172905e-09 0.0000000000000000e+00  -1.4536499170718818e-08 -3.1708550548875133e-09 0.0000000000000000e+00  -1.5335730437576369e-08 -1.6215095248305324e-09 0.0000000000000000e+00  -1.5603950892622172e-08 -4.7119956097142177e-12 0.0000000000000000e+00  -1.5333714749297735e-08 1.6113536428703880e-09 0.0000000000000000e+00  -1.4532859004326547e-08 3.1585760131737963e-09 0.0000000000000000e+00  -1.3227192603134677e-08 4.5578109482011778e-09 0.0000000000000000e+00  -1.1468162931124750e-08 5.7105130591720575e-09 0.0000000000000000e+00  -9.3443343923021082e-09 6.4958738426411674e-09 0.0000000000000000e+00  -6.9944257167345376e-09 6.7761287236048572e-09 0.0000000000000000e+00  -4.6178274350821475e-09 6.4119755797336335e-09 0.0000000000000000e+00  -2.4733943285505396e-09 5.2885043095809173e-09 0.0000000000000000e+00  -8.3800107725701507e-10 3.3485933912197398e-09 0.0000000000000000e+00  2.0538386849044451e-10 7.2321063221273320e-10 0.0000000000000000e+00  1.9027660883670076e-10 -2.9494187440850470e-10 0.0000000000000000e+00  -7.4623686959523169e-10 -2.1462424070114486e-09 0.0000000000000000e+00  -2.2293134560269243e-09 -3.4271777784670641e-09 0.0000000000000000e+00  -4.2146746299903584e-09 -4.1846401829953340e-09 0.0000000000000000e+00  -6.4566449397738429e-09 -4.4493393537842128e-09 0.0000000000000000e+00  -8.7103821689549266e-09 -4.2885290073405314e-09 0.0000000000000000e+00  -1.0777218869610650e-08 -3.7