<?xml version="1.0"?>
<VTKFile type="UnstructuredGrid"  version="0.1"  >
<UnstructuredGrid>
<Piece  NumberOfPoints="651" NumberOfCells="1200">
<Points>
<DataArray  type="Float64"  NumberOfComponents="3"  format="ascii">0 0 0  50000 0 0  100000 0 0  150000 0 0  200000 0 0  250000 0 0  300000 0 0  350000 0 0  400000 0 0  450000 0 0  500000 0 0  550000 0 0  600000 0 0  650000 0 0  700000 0 0  750000 0 0  800000 0 0  850000 0 0  900000 0 0  950000 0 0  1000000 0 0  0 50000 0  50000 50000 0  100000 50000 0  150000 50000 0  200000 50000 0  250000 50000 0  300000 50000 0  350000 50000 0  400000 50000 0  450000 50000 0  500000 50000 0  550000 50000 0  600000 50000 0  650000 50000 0  700000 50000 0  750000 50000 0  800000 50000 0  850000 50000 0  900000 50000 0  950000 50000 0  1000000 50000 0  0 100000 0  50000 100000 0  100000 100000 0  150000 100000 0  200000 100000 0  250000 100000 0  300000 100000 0  350000 100000 0  400000 100000 0  450000 100000 0  500000 100000 0  550000 100000 0  600000 100000 0  650000 100000 0  700000 100000 0  750000 100000 0  800000 100000 0  850000 100000 0  900000 100000 0  950000 100000 0  1000000 100000 0  0 150000 0  50000 150000 0  100000 150000 0  150000 150000 0  200000 150000 0  250000 150000 0  300000 150000 0  350000 150000 0  400000 150000 0  450000 150000 0  500000 150000 0  550000 150000 0  600000 150000 0  650000 150000 0  700000 150000 0  750000 150000 0  800000 150000 0  850000 150000 0  900000 150000 0  950000 150000 0  1000000 150000 0  0 200000 0  50000 200000 0  100000 200000 0  150000 200000 0  200000 200000 0  250000 200000 0  300000 200000 0  350000 200000 0  400000 200000 0  450000 200000 0  500000 200000 0  550000 200000 0  600000 200000 0  650000 200000 0  700000 200000 0  750000 200000 0  800000 200000 0  850000 200000 0  900000 200000 0  950000 200000 0  1000000 200000 0  0 250000 0  50000 250000 0  100000 250000 0  150000 250000 0  200000 250000 0  250000 250000 0  300000 250000 0  350000 250000 0  400000 250000 0  450000 250000 0  500000 250000 0  550000 250000 0  600000 250000 0  650000 250000 0  700000 250000 0  750000 250000 0  800000 250000 0  850000 250000 0  900000 250000 0  950000 250000 0  1000000 250000 0  0 300000 0  50000 300000 0  100000 300000 0  150000 300000 0  200000 300000 0  250000 300000 0  300000 300000 0  350000 300000 0  400000 300000 0  450000 300000 0  500000 300000 0  550000 300000 0  600000 300000 0  650000 300000 0  700000 300000 0  750000 300000 0  800000 300000 0  850000 300000 0  900000 300000 0  950000 300000 0  1000000 300000 0  0 350000 0  50000 350000 0  100000 350000 0  150000 350000 0  200000 350000 0  250000 350000 0  300000 350000 0  350000 350000 0  400000 350000 0  450000 350000 0  500000 350000 0  550000 350000 0  600000 350000 0  650000 350000 0  700000 350000 0  750000 350000 0  800000 350000 0  850000 350000 0  900000 350000 0  950000 350000 0  1000000 350000 0  0 400000 0  50000 400000 0  100000 400000 0  150000 400000 0  200000 400000 0  250000 400000 0  300000 400000 0  350000 400000 0  400000 400000 0  450000 400000 0  500000 400000 0  550000 400000 0  600000 400000 0  650000 400000 0  700000 400000 0  750000 400000 0  800000 400000 0  850000 400000 0  900000 400000 0  950000 400000 0  1000000 400000 0  0 450000 0  50000 450000 0  100000 450000 0  150000 450000 0  200000 450000 0  250000 450000 0  300000 450000 0  350000 450000 0  400000 450000 0  450000 450000 0  500000 450000 0  550000 450000 0  600000 450000 0  650000 450000 0  700000 450000 0  750000 450000 0  800000 450000 0  850000 450000 0  900000 450000 0  950000 450000 0  1000000 450000 0  0 500000 0  50000 500000 0  100000 500000 0  150000 500000 0  200000 500000 0  250000 500000 0  300000 500000 0  350000 500000 0  400000 500000 0  450000 500000 0  500000 500000 0  550000 500000 0  600000 500000 0  650000 500000 0  700000 500000 0  750000 500000 0  800000 500000 0  850000 500000 0  900000 500000 0  950000 500000 0  1000000 500000 0  0 550000 0  50000 550000 0  100000 550000 0  150000 550000 0  200000 550000 0  250000 550000 0  300000 550000 0  350000 550000 0  400000 550000 0  450000 550000 0  500000 550000 0  550000 550000 0  600000 550000 0  650000 550000 0  700000 550000 0  750000 550000 0  800000 550000 0  850000 550000 0  900000 550000 0  950000 550000 0  1000000 550000 0  0 600000 0  50000 600000 0  100000 600000 0  150000 600000 0  200000 600000 0  250000 600000 0  300000 600000 0  350000 600000 0  400000 600000 0  450000 600000 0  500000 600000 0  550000 600000 0  600000 600000 0  650000 600000 0  700000 600000 0  750000 600000 0  800000 600000 0  850000 600000 0  900000 600000 0  950000 600000 0  1000000 600000 0  0 650000 0  50000 650000 0  100000 650000 0  150000 650000 0  200000 650000 0  250000 650000 0  300000 650000 0  350000 650000 0  400000 650000 0  450000 650000 0  500000 650000 0  550000 650000 0  600000 650000 0  650000 650000 0  700000 650000 0  750000 650000 0  800000 650000 0  850000 650000 0  900000 650000 0  950000 650000 0  1000000 650000 0  0 700000 0  50000 700000 0  100000 700000 0  150000 700000 0  200000 700000 0  250000 700000 0  300000 700000 0  350000 700000 0  400000 700000 0  450000 700000 0  500000 700000 0  550000 700000 0  600000 700000 0  650000 700000 0  700000 700000 0  750000 700000 0  800000 700000 0  850000 700000 0  900000 700000 0  950000 700000 0  1000000 700000 0  0 750000 0  50000 750000 0  100000 750000 0  150000 750000 0  200000 750000 0  250000 750000 0  300000 750000 0  350000 750000 0  400000 750000 0  450000 750000 0  500000 750000 0  550000 750000 0  600000 750000 0  650000 750000 0  700000 750000 0  750000 750000 0  800000 750000 0  850000 750000 0  900000 750000 0  950000 750000 0  1000000 750000 0  0 800000 0  50000 800000 0  100000 800000 0  150000 800000 0  200000 800000 0  250000 800000 0  300000 800000 0  350000 800000 0  400000 800000 0  450000 800000 0  500000 800000 0  550000 800000 0  600000 800000 0  650000 800000 0  700000 800000 0  750000 800000 0  800000 800000 0  850000 800000 0  900000 800000 0  950000 800000 0  1000000 800000 0  0 850000 0  50000 850000 0  100000 850000 0  150000 850000 0  200000 850000 0  250000 850000 0  300000 850000 0  350000 850000 0  400000 850000 0  450000 850000 0  500000 850000 0  550000 850000 0  600000 850000 0  650000 850000 0  700000 850000 0  750000 850000 0  800000 850000 0  850000 850000 0  900000 850000 0  950000 850000 0  1000000 850000 0  0 900000 0  50000 900000 0  100000 900000 0  150000 900000 0  200000 900000 0  250000 900000 0  300000 900000 0  350000 900000 0  400000 900000 0  450000 900000 0  500000 900000 0  550000 900000 0  600000 900000 0  650000 900000 0  700000 900000 0  750000 900000 0  800000 900000 0  850000 900000 0  900000 900000 0  950000 900000 0  1000000 900000 0  0 950000 0  50000 950000 0  100000 950000 0  150000 950000 0  200000 950000 0  250000 950000 0  300000 950000 0  350000 950000 0  400000 950000 0  450000 950000 0  500000 950000 0  550000 950000 0  600000 950000 0  650000 950000 0  700000 950000 0  750000 950000 0  800000 950000 0  850000 950000 0  900000 950000 0  950000 950000 0  1000000 950000 0  0 1000000 0  50000 1000000 0  100000 1000000 0  150000 1000000 0  200000 1000000 0  250000 1000000 0  300000 1000000 0  350000 1000000 0  400000 1000000 0  450000 1000000 0  500000 1000000 0  550000 1000000 0  600000 1000000 0  650000 1000000 0  700000 1000000 0  750000 1000000 0  800000 1000000 0  850000 1000000 0  900000 1000000 0  950000 1000000 0  1000000 1000000 0  0 1050000 0  50000 1050000 0  100000 1050000 0  150000 1050000 0  200000 1050000 0  250000 1050000 0  300000 1050000 0  350000 1050000 0  400000 1050000 0  450000 1050000 0  500000 1050000 0  550000 1050000 0  600000 1050000 0  650000 1050000 0  700000 1050000 0  750000 1050000 0  800000 1050000 0  850000 1050000 0  900000 1050000 0  950000 1050000 0  1000000 1050000 0  0 1100000 0  50000 1100000 0  100000 1100000 0  150000 1100000 0  200000 1100000 0  250000 1100000 0  300000 1100000 0  350000 1100000 0  400000 1100000 0  450000 1100000 0  500000 1100000 0  550000 1100000 0  600000 1100000 0  650000 1100000 0  700000 1100000 0  750000 1100000 0  800000 1100000 0  850000 1100000 0  900000 1100000 0  950000 1100000 0  1000000 1100000 0  0 1150000 0  50000 1150000 0  100000 1150000 0  150000 1150000 0  200000 1150000 0  250000 1150000 0  300000 1150000 0  350000 1150000 0  400000 1150000 0  450000 1150000 0  500000 1150000 0  550000 1150000 0  600000 1150000 0  650000 1150000 0  700000 1150000 0  750000 1150000 0  800000 1150000 0  850000 1150000 0  900000 1150000 0  950000 1150000 0  1000000 1150000 0  0 1200000 0  50000 1200000 0  100000 1200000 0  150000 1200000 0  200000 1200000 0  250000 1200000 0  300000 1200000 0  350000 1200000 0  400000 1200000 0  450000 1200000 0  500000 1200000 0  550000 1200000 0  600000 1200000 0  650000 1200000 0  700000 1200000 0  750000 1200000 0  800000 1200000 0  850000 1200000 0  900000 1200000 0  950000 1200000 0  1000000 1200000 0  0 1250000 0  50000 1250000 0  100000 1250000 0  150000 1250000 0  200000 1250000 0  250000 1250000 0  300000 1250000 0  350000 1250000 0  400000 1250000 0  450000 1250000 0  500000 1250000 0  550000 1250000 0  600000 1250000 0  650000 1250000 0  700000 1250000 0  750000 1250000 0  800000 1250000 0  850000 1250000 0  900000 1250000 0  950000 1250000 0  1000000 1250000 0  0 1300000 0  50000 1300000 0  100000 1300000 0  150000 1300000 0  200000 1300000 0  250000 1300000 0  300000 1300000 0  350000 1300000 0  400000 1300000 0  450000 1300000 0  500000 1300000 0  550000 1300000 0  600000 1300000 0  650000 1300000 0  700000 1300000 0  750000 1300000 0  800000 1300000 0  850000 1300000 0  900000 1300000 0  950000 1300000 0  1000000 1300000 0  0 1350000 0  50000 1350000 0  100000 1350000 0  150000 1350000 0  200000 1350000 0  250000 1350000 0  300000 1350000 0  350000 1350000 0  400000 1350000 0  450000 1350000 0  500000 1350000 0  550000 1350000 0  600000 1350000 0  650000 1350000 0  700000 135
[...]
<PointData  Vectors="f_3007"> 
<DataArray  type="Float64"  Name="f_3007"  NumberOfComponents="3" format="ascii">-1.5227867050411473e-08 -8.4279794736268875e-09 0.0000000000000000e+00  6.4006344108738068e-08 -5.2611492056918731e-09 0.0000000000000000e+00  6.7320066539230159e-08 -1.4320432007760256e-09 0.0000000000000000e+00  7.1076602995310651e-08 -2.0430156032090620e-10 0.0000000000000000e+00  7.3896759072908535e-08 1.9084204958110658e-10 0.0000000000000000e+00  7.5737271831291438e-08 2.9697743842689941e-10 0.0000000000000000e+00  7.6899431605032320e-08 2.8408675222862955e-10 0.0000000000000000e+00  7.7615361542863690e-08 2.2156370700769886e-10 0.0000000000000000e+00  7.8029900850167154e-08 1.3960336994382550e-10 0.0000000000000000e+00  7.8225097893616988e-08 5.0758662164775267e-11 0.0000000000000000e+00  7.8238957551849542e-08 -4.0278231508138862e-11 0.0000000000000000e+00  7.8074832684967356e-08 -1.3152116903925272e-10 0.0000000000000000e+00  7.7702626489700277e-08 -2.2000997733353828e-10 0.0000000000000000e+00  7.7052777439473390e-08 -2.9721971976448671e-10 0.0000000000000000e+00  7.6005216605150937e-08 -3.3992187951691887e-10 0.0000000000000000e+00  7.4385718925764089e-08 -2.8759309864782263e-10 0.0000000000000000e+00  7.2024116471111011e-08 1.8203111981157190e-11 0.0000000000000000e+00  6.9049685696788515e-08 9.9080937030790464e-10 0.0000000000000000e+00  6.6530826276183384e-08 3.6151999839013787e-09 0.0000000000000000e+00  6.5177514345442416e-08 8.5103745224727321e-09 0.0000000000000000e+00  -1.3284256687721175e-08 7.2991450449661482e-09 0.0000000000000000e+00  -1.0806506509161990e-08 -1.1588437717775564e-08 0.0000000000000000e+00  7.0755940447777412e-09 -1.7650861677994581e-08 0.0000000000000000e+00  2.0884451323008936e-08 -1.2451403722746671e-08 0.0000000000000000e+00  3.1769069371149248e-08 -8.3963291549724584e-09 0.0000000000000000e+00  3.9844041814304937e-08 -5.6856033912112156e-09 0.0000000000000000e+00  4.5715360387037383e-08 -3.8596000794868839e-09 0.0000000000000000e+00  4.9885794983611770e-08 -2.6033007822607798e-09 0.0000000000000000e+00  5.2761537380017203e-08 -1.7099162435455737e-09 0.0000000000000000e+00  5.4632223547394623e-08 -1.0419281891190160e-09 0.0000000000000000e+00  5.5685547228360563e-08 -5.0455485305599507e-10 0.0000000000000000e+00  5.6026341597079706e-08 -2.7495329093468447e-11 0.0000000000000000e+00  5.5689303718999223e-08 4.4866025552181554e-10 0.0000000000000000e+00  5.4643820073616406e-08 9.8406856183515053e-10 0.0000000000000000e+00  5.2791179840268092e-08 1.6522264989832173e-09 0.0000000000000000e+00  4.9955302817228687e-08 2.5574871223211755e-09 0.0000000000000000e+00  4.5870632615985126e-08 3.8641659175325239e-09 0.0000000000000000e+00  4.0176765113833126e-08 5.8478645974837599e-09 0.0000000000000000e+00  3.2426079588144484e-08 8.9678226227834949e-09 0.0000000000000000e+00  2.1999294120325237e-08 1.3789517030683270e-08 0.0000000000000000e+00  7.5279711674342736e-09 1.9565733923391441e-08 0.0000000000000000e+00  -1.2951482781798592e-08 9.9260504490667808e-09 0.0000000000000000e+00  -5.0370476479625749e-09 -1.1408003232854418e-08 0.0000000000000000e+00  -2.9310378101943082e-09 -2.5850031544145417e-08 0.0000000000000000e+00  1.8834008483422575e-09 -2.2574398105930085e-08 0.0000000000000000e+00  9.3772502001267114e-09 -1.7298847197281166e-08 0.0000000000000000e+00  1.7016998132596518e-08 -1.2728927288536992e-08 0.0000000000000000e+00  2.3431270449885509e-08 -9.1821443776878573e-09 0.0000000000000000e+00  2.8409443121288483e-08 -6.4798249161960173e-09 0.0000000000000000e+00  3.2059429081851775e-08 -4.3925410057069003e-09 0.0000000000000000e+00  3.4536498874845372e-08 -2.7207067905372006e-09 0.0000000000000000e+00  3.5970035222686350e-08 -1.3025629327335620e-09 0.0000000000000000e+00  3.6442205426336569e-08 -3.9135041879985741e-12 0.0000000000000000e+00  3.5982445966442819e-08 1.2958646486030695e-09 0.0000000000000000e+00  3.4567123919969681e-08 2.7184050768490899e-09 0.0000000000000000e+00  3.2122267665266887e-08 4.4017157050598984e-09 0.0000000000000000e+00  2.8532825684915128e-08 6.5167842391004425e-09 0.0000000000000000e+00  2.3669956493862962e-08 9.2820944152965236e-09 0.0000000000000000e+00  1.7463945663068643e-08 1.2954147336971126e-08 0.0000000000000000e+00  1.0082951440991899e-08 1.7693951239817868e-08 0.0000000000000000e+00  2.3321077773780246e-09 2.2915941104955180e-08 0.0000000000000000e+00  -3.7162532543125579e-09 2.4942483044733598e-08 0.0000000000000000e+00  -7.3795869838793116e-09 1.0446893615738739e-08 0.0000000000000000e+00  -2.1326192290595069e-09 -9.0665138971913727e-09 0.0000000000000000e+00  -4.0717028795061921e-09 -2.5316933061721474e-08 0.0000000000000000e+00  -4.2551436395885309e-09 -2.7106127844141493e-08 0.0000000000000000e+00  -1.3153482098666135e-09 -2.3419572130404074e-08 0.0000000000000000e+00  3.3268523114885282e-09 -1.8689214963990355e-08 0.0000000000000000e+00  8.1690597500393823e-09 -1.4275740381382633e-08 0.0000000000000000e+00  1.2422784113828662e-08 -1.0498554070177841e-08 0.0000000000000000e+00  1.5789247779995993e-08 -7.3263714991851831e-09 0.0000000000000000e+00  1.8188732470856548e-08 -4.6225092163951169e-09 0.0000000000000000e+00  1.9619751836915873e-08 -2.2276820096020905e-09 0.0000000000000000e+00  2.0098742390573153e-08 1.5718960511797408e-11 0.0000000000000000e+00  1.9635057099478784e-08 2.2611409434749965e-09 0.0000000000000000e+00  1.8224552758038205e-08 4.6626920289814461e-09 0.0000000000000000e+00  1.5857892351600687e-08 7.3800270142187757e-09 0.0000000000000000e+00  1.2547602475863733e-08 1.0575396460751285e-08 0.0000000000000000e+00  8.3864001531735437e-09 1.4384856360060744e-08 0.0000000000000000e+00  3.6592884800728812e-09 1.8815057900841018e-08 0.0000000000000000e+00  -9.6726072751010216e-10 2.3440967933847694e-08 0.0000000000000000e+00  -4.2337681052435026e-09 2.6649749700594943e-08 0.0000000000000000e+00  -4.6031939996430432e-09 2.4318419415301757e-08 0.0000000000000000e+00  -3.2786178980259187e-09 9.7184541439128372e-09 0.0000000000000000e+00  -8.6116497947168099e-10 -6.8080177338194923e-09 0.0000000000000000e+00  -3.6317557433517589e-09 -2.2430305998858396e-08 0.0000000000000000e+00  -5.8244691661816434e-09 -2.7199409550876982e-08 0.0000000000000000e+00  -5.8989935877548475e-09 -2.5979686208875900e-08 0.0000000000000000e+00  -4.1417137725224536e-09 -2.2291353368706306e-08 0.0000000000000000e+00  -1.4783238145533442e-09 -1.7954157983770978e-08 0.0000000000000000e+00  1.3152875492859561e-09 -1.3725794038863376e-08 0.0000000000000000e+00  3.7679483779990143e-09 -9.8479304456958203e-09 0.0000000000000000e+00  5.6309258560086950e-09 -6.3303586454428052e-09 0.0000000000000000e+00  6.7847233985922176e-09 -3.0834383085499036e-09 0.0000000000000000e+00  7.1786841932576975e-09 2.2214911911517926e-11 0.0000000000000000e+00  6.8001907485729531e-09 3.1294340070970579e-09 0.0000000000000000e+00  5.6655950753720828e-09 6.3810690788471040e-09 0.0000000000000000e+00  3.8300179859703883e-09 9.9060338612773648e-09 0.0000000000000000e+00  1.4175897405885315e-09 1.3790624534603558e-08 0.0000000000000000e+00  -1.3243461494594597e-09 1.8011789818799316e-08 0.0000000000000000e+00  -3.9498452252786338e-09 2.2289689866822658e-08 0.0000000000000000e+00  -5.7540572191350473e-09 2.5794873127114830e-08 0.0000000000000000e+00  -5.8693109358823209e-09 2.6684733485308779e-08 0.0000000000000000e+00  -3.8915307397473647e-09 2.1780330305227545e-08 0.0000000000000000e+00  -1.4263865327240002e-09 7.9893151599169343e-09 0.0000000000000000e+00  -2.8202017025267551e-10 -5.0544943496837785e-09 0.0000000000000000e+00  -2.9967015558702203e-09 -1.9171684495148882e-08 0.0000000000000000e+00  -5.8474425875946059e-09 -2.5215307845549435e-08 0.0000000000000000e+00  -7.5791111395824157e-09 -2.5895489347580018e-08 0.0000000000000000e+00  -7.8970881618792552e-09 -2.3559926899341497e-08 0.0000000000000000e+00  -7.1729363530087052e-09 -1.9858215673343287e-08 0.0000000000000000e+00  -5.9292983054809356e-09 -1.5711798722713191e-08 0.0000000000000000e+00  -4.5995941373748957e-09 -1.1559324243623992e-08 0.0000000000000000e+00  -3.4781079113195141e-09 -7.5596137216385721e-09 0.0000000000000000e+00  -2.7420195336621058e-09 -3.7214304882876257e-09 0.0000000000000000e+00  -2.4828818183379165e-09 2.1114373022049988e-11 0.0000000000000000e+00  -2.7280718730104816e-09 3.7642403350473641e-09 0.0000000000000000e+00  -3.4480760379007092e-09 7.6036719346772272e-09 0.0000000000000000e+00  -4.5493776877929437e-09 1.1603181359051074e-08 0.0000000000000000e+00  -5.8543097839049018e-09 1.5748040231664900e-08 0.0000000000000000e+00  -7.0737495381983898e-09 1.9865468654475005e-08 0.0000000000000000e+00  -7.7921761800124307e-09 2.3491951822109556e-08 0.0000000000000000e+00  -7.5156357891900884e-09 2.5682779810795992e-08 0.0000000000000000e+00  -5.8788341539618867e-09 2.4835344025006730e-08 0.0000000000000000e+00  -3.1161463924123235e-09 1.8792516565235842e-08 0.0000000000000000e+00  -5.6906534426906705e-10 6.1665937836135532e-09 0.0000000000000000e+00  -5.2783614977677750e-12 -3.7618630294969548e-09 0.0000000000000000e+00  -2.4432492534239503e-09 -1.6103663815096243e-08 0.0000000000000000e+00  -5.3878651817690924e-09 -2.2417637880779834e-08 0.0000000000000000e+00  -7.9265783876627369e-09 -2.4242439063805011e-08 0.0000000000000000e+00  -9.5502281364439543e-09 -2.3069390099912090e-08 0.0000000000000000e+00  -1.0268450305150511e-08 -2.0174598483004307e-08 0.0000000000000000e+00  -1.0338203037784925e-08 -1.6431268761198046e-08 0.0000000000000000e+00  -1.0061150431665446e-08 -1.2354134784535998e-08 0.0000000000000000e+00  -9.6889150625047906e-09 -8.2029717053861104e-09 0.0000000000000000e+00  -9.3967112562974760e-09 -4.0766032063282228e-09 0.0000000000000000e+00  -9.2847273097109689e-09 1.7079724258761411e-11 0.0000000000000000e+00  -9.3849939672505141e-09 4.1104030262723815e-09 0.0000000000000000e+00  -9.6645612350204994e-09 8.2350068438130930e-09 0.0000000000000000e+00  -1.0022778769805736e-08 1.2380540257995895e-08 0.0000000000000000e+00  -1.0285481662516829e-08 1.6442833044006045e-08 0.0000000000000000e+00  -1.0205635892002305e-08 2.0152835299800471e-08 0.0000000000000000e+00  -9.4912220870664174e-09 2.2984941223287591e-08 0.0000000000000000e+00  -7.8954312670340409e-09 2.4066717654581939e-08 0.0000000000000000e+00  -5.4041409391233262e-09 2.2163946290036262e-08 0.0000000000000000e+00  -2.4963231771772743e-09 1.5886560699627645e-08 0.0000000000000000e+00  -1.5412310318675600e-10 4.6612512819598710e-09 0.0000000000000000e+00  1.2941105575432646e-10 -2.8123100721664674e-09 0.0000000000000000e+00  -2.0051455444170897e-09 -1.3363220461620682e-08 0.0000000000000000e+00  -4.8193645812890261e-09 -1.9387958992406298e-08 0.0000000000000000e+00  -7.6808879910402643e-09 -2.1766864576789807e-08 0.0000000000000000e+00  -1.0044945279078355e-08 -2.1427514661796499e-08 0.0000000000000000e+00  -1.1723315473560401e-08 -1.9290526732438871e-08 0.0000000000000000e+00  -1.2770466217503333e-08 -1.6086678753195263e-08 0.0000000000000000e+00  -1.3344592938217599e-08 -1.2316767122787989e-08 0.0000000000000000e+00  -1.3615676185941270e-08 -8.2844231466073518e-09 0.0000000000000000e+00  -1.3719893139038475e-08 -4.1506667197546851e-09 0.0000000000000000e+00  -1.3742012607939882e-08 1.2379529045318196e-11 0.0000000000000000e+00  -1.3710456458818133e-08 4.1744277967324229e-09 0.0000000000000000e+00  -1.3596622460737516e-08 8.3045798812133658e-09 0.0000000000000000e+00  -1.3315992498250659e-08 1.2328744217451681e-08 0.0000000000000000e+00  -1.2733729519557640e-08 1.6082347725498658e-08 0.0000000000000000e+00  -1.1683059402235122e-08 1.9257119944210294e-08 0.0000000000000000e+00  -1.0010620555916613e-08 2.1349543266945642e-08 0.0000000000000000e+00  -7.6648673920909939e-09 2.1635854937520381e-08 0.0000000000000000e+00  -4.8273113911364528e-09 1.9222760644534186e-08 0.0000000000000000e+00  -2.0268799770692539e-09 1.3238261975017566e-08 0.0000000000000000e+00  5.2430729933741684e-11 3.5087436660052107e-09 0.0000000000000000e+00  1.9354319483173466e-10 -2.1056156314672966e-09 0.0000000000000000e+00  -1.6656584382171072e-09 -1.0954972435054989e-08 0.0000000000000000e+00  -4.2694244387791764e-09 -1.6392273706259476e-08 0.0000000000000000e+00  -7.1905649639510272e-09 -1.8920910232000656e-08 0.0000000000000000e+00  -9.9202169284960695e-09 -1.9108081043576200e-08 0.0000000000000000e+00  -1.2177684933273872e-08 -1.7594333393773030e-08 0.0000000000000000e+00  -1.3884055872968744e-08 -1.4951042964962369e-08 0.0000000000000000e+00  -1.5077836652853505e-08 -1.1617903256255376e-08 0.0000000000000000e+00  -1.5842834104008756e-08 -7.8982637234916171e-09 0.0000000000000000e+00  -1.6261999828056451e-08 -3.9841217100517543e-09 0.0000000000000000e+00  -1.6392536976466508e-08 7.9537859247014745e-12 0.0000000000000000e+00  -1.6254602049846795e-08 3.9987357143708644e-09 0.0000000000000000e+00  -1.5828245456765147e-08 7.9085782196740387e-09 0.0000000000000000e+00  -1.5056793545196311e-08 1.1619674764305681e-08 0.0000000000000000e+00  -1.3858513725406815e-08 1.4938171819143977e-08 0.0000000000000000e+00  -1.2151713902938349e-08 1.7559086653003500e-08 0.0000000000000000e+00  -9.9002107172776411e-09 1.9043501182182346e-08 0.0000000000000000e+00  -7.1828053406299244e-09 1.8826858695868670e-08 0.0000000000000000e+00  -4.2734227502251689e-09 1.6285148802799352e-08 0.0000000000000000e+00  -1.6723452612059329e-09 1.0882601185346950e-08 0.0000000000000000e+00  1.5535562710338500e-10 2.6416337867758425e-09 0.0000000000000000e+00  2.2154217097274433e-10 -1.5696350272158374e-09 0.0000000000000000e+00  -1.4026112168081137e-09 -8.8443290675735161e-09 0.0000000000000000e+00  -3.7788804117828307e-09 -1.3547729985193867e-08 0.0000000000000000e+00  -6.6241304699098110e-09 -1.5965717686279773e-08 0.0000000000000000e+00  -9.4866754362276487e-09 -1.6438234967315460e-08 0.0000000000000000e+00  -1.2052350589353517e-08 -1.5400701146350267e-08 0.0000000000000000e+00  -1.4162544503626060e-08 -1.3281665444825116e-08 0.0000000000000000e+00  -1.5768139414523320e-08 -1.0443200400132230e-08 0.0000000000000000e+00  -1.6879105343947193e-08 -7.1612082764266179e-09 0.0000000000000000e+00  -1.7526198087117409e-08 -3.6324219580447537e-09 0.0000000000000000e+00  -1.7736514970373623e-08 4.1691435399081600e-12 0.0000000000000000e+00  -1.7520527626375220e-08 3.6394400666322285e-09 0.0000000000000000e+00  -1.6868145263046190e-08 7.1640411031805503e-09 0.0000000000000000e+00  -1.5752869541181242e-08 1.0438383627280113e-08 0.0000000000000000e+00  -1.4144948808542601e-08 1.3265057315128162e-08 0.0000000000000000e+00  -1.2035778031391729e-08 1.5368109629434631e-08 0.0000000000000000e+00  -9.4754499730477491e-09 1.6387300819368450e-08 0.0000000000000000e+00  -6.6211714998482631e-09 1.5899263197207498e-08 0.0000000000000000e+00  -3.7810166818965911e-09 1.3478250550879698e-08 0.0000000000000000e+00  -1.4020526510852173e-09 8.8025649081965407e-09 0.0000000000000000e+00  2.0464499353776160e-10 1.9858854522580586e-09 0.0000000000000000e+00  2.3106485140295301e-10 -1.1542544590042609e-09 0.0000000000000000e+00  -1.1984766964486059e-09 -6.9874912378535196e-09 0.0000000000000000e+00  -3.3594323394997219e-09 -1.0896854459997847e-08 0.0000000000000000e+00  -6.0677953931690741e-09 -1.3044071889914043e-08 0.0000000000000000e+00  -8.9291240587771894e-09 -1.3627442188085691e-08 0.0000000000000000e+00  -1.1625635043920854e-08 -1.2937232320080888e-08 0.0000000000000000e+00  -1.3955162534094178e-08 -1.1285112001852796e-08 0.0000000000000000e+00  -1.5809619436012832e-08 -8.9555644189359983e-09 0.0000000000000000e+00  -1.7142632393465831e-08 -6.1831422607325333e-09 0.0000000000000000e+00  -1.7941222582834976e-08 -3.1503266328644656e-09 0.0000000000000000e+00  -1.8205523050097242e-08 1.1358751951362354e-12 0.0000000000000000e+00  -1.7936985481770988e-08 3.1514138225704179e-09 0.0000000000000000e+00  -1.7134588823817444e-08 6.1805980846225918e-09 0.0000000000000000e+00  -1.5798767447969881e-08 8.9467838820116237e-09 0.0000000000000000e+00  -1.3943283135548587e-08 1.1267499336372226e-08 0.0000000000000000e+00  -1.1615363017282965e-08 1.2908829825250162e-08 0.0000000000000000e+00  -8.9233359407052761e-09 1.3588176186827161e-08 0.0000000000000000e+00  -6.0675307400165308e-09 1.2997442417369316e-08 0.0000000000000000e+00  -3.3606083307580753e-09 1.0851838000852979e-08 0.0000000000000000e+00  -1.1946517952643333e-09 6.9639345755775125e-09 0.0000000000000000e+00  2.2567088285241431e-10 1.4827577571136952e-09 0.0000000000000000e+00  2.3165212085211742e-10 -8.2423770735397854e-10 0.0000000000000000e+00  -1.0413968732413764e-09 -5.3402057835943222e-09 0.0000000000000000e+00  -3.0140673718002988e-09 -8.4422696642560967e-09 0.0000000000000000e+00  -5.5694540654700940e-09 -1.0224706931131965e-08 0.0000000000000000e+00  -8.3623038287600160e-09 -1.0798966348852579e-08 0.0000000000000000e+00  -1.1084315613665207e-08 -1.0354232271331228e-08 0.0000000000000000e+00  -1.3512017283973595e-08 -9.1101984108220508e-09 0.0000000000000000e+00  -1.5500185976329575e-08 -7.2806696330165466e-09 0.0000000000000000e+00  -1.6962770855019837e-08 -5.0532696622855087e-09 0.0000000000000000e+00  -1.7853669808521498e-08 -2.5837636730900488e-09 0.0000000000000000e+00  -1.8151587535757312e-08 -1.1648608149820786e-12 0.0000000000000000e+00  -1.7850611192926524e-08 2.5804530053197071e-09 0.0000000000000000e+00  -1.6957059401342504e-08 5.0470321009914164e-09 0.0000000000000000e+00  -1.5492711359837144e-08 7.2696616611714477e-09 0.0000000000000000e+00  -1.3504248951049269e-08 9.0929294482277446e-09 0.0000000000000000e+00  -1.1078230329453123e-08 1.0330069070808081e-08 0.0000000000000000e+00  -8.3597551934616251e-09 1.0768878245506191e-08 0.0000000000000000e+00  -5.5704964977144816e-09 1.0191993884837865e-08 0.0000000000000000e+00  -3.0146904816796354e-09 8.4131925227937434e-09 0.0000000000000000e+00  -1.0365163536828990e-09 5.3276653393817793e-09 0.0000000000000000e+00  2.3201970908426344e-10 1.0892232289522889e-09 0.0000000000000000e+00  2.2867349236688254e-10 -5.5382217328917990e-10 0.0000000000000000e+00  -9.2400474358086574e-10 -3.8595024259285095e-09 0.0000000000000000e+00  -2.7438457794011283e-09 -6.1637565479263293e-09 0.0000000000000000e+00  -5.1581737400485570e-09 -7.5291394311821901e-09 0.0000000000000000e+00  -7.8602300022703472e-09 -8.0151720331954143e-09 0.0000000000000000e+00  -1.0555042419771942e-08 -7.7407386358346543e-09 0.0000000000000000e+00  -1.3010406336677772e-08 -6.8537566795967133e-09 0.0000000000000000e+00  -1.5059139029697565e-08 -5.5058043270503871e-09 0.0000000000000000e+00  -1.6589087196471855e-08 -3.8364136858689815e-09 0.0000000000000000e+00  -1.7531009088003907e-08 -1.9670462726719248e-09 0.0000000000000000e+00  -1.7848073804651590e-08 -2.8127496311053663e-12 0.0000000000000000e+00  -1.7528915789998659e-08 1.9606451531289566e-09 0.0000000000000000e+00  -1.6585235244359266e-08 3.8277536298157720e-09 0.0000000000000000e+00  -1.5054237030258442e-08 5.4936386438280118e-09 0.0000000000000000e+00  -1.3005565133418654e-08 6.8373344071298868e-09 0.0000000000000000e+00  -1.0551654109170048e-08 7.7201751896971878e-09 0.0000000000000000e+00  -7.8594325822244726e-09 7.9918548253268672e-09 0.0000000000000000e+00  -5.1596054756713314e-09 7.5059226817793830e-09 0.0000000000000000e+00  -2.7441385956510632e-09 6.1449733472032456e-09 0.0000000000000000e+00  -9.1940198116551845e-10 3.8536523793431777e-09 0.0000000000000000e+00  2.3131464287369795e-10 7.7391965255846575e-10 0.0000000000000000e+00  2.2521069701287282e-10 -3.2306714216129098e-10 0.0000000000000000e+00  -8.4202036475173676e-10 -2.5034390841047765e-09 0.0000000000000000e+00  -2.5497262948822461e-09 -4.0272144662996494e-09 0.0000000000000000e+00  -4.8526870937852151e-09 -4.9484104697726433e-09 0.0000000000000000e+00  -7.4714140125264634e-09 -5.2964619372982826e-09 0.0000000000000000e+00  -1.0123092844553750e-08 -5.1403931292584210e-09 0.0000000000000000e+00  -1.2573070677553313e-08 -4.57