<?xml version="1.0"?>
<VTKFile type="UnstructuredGrid"  version="0.1"  >
<UnstructuredGrid>
<Piece  NumberOfPoints="651" NumberOfCells="1200">
<Points>
<DataArray  type="Float64"  NumberOfComponents="3"  format="ascii">0 0 0  50000 0 0  100000 0 0  150000 0 0  200000 0 0  250000 0 0  300000 0 0  350000 0 0  400000 0 0  450000 0 0  500000 0 0  550000 0 0  600000 0 0  650000 0 0  700000 0 0  750000 0 0  800000 0 0  850000 0 0  900000 0 0  950000 0 0  1000000 0 0  0 50000 0  50000 50000 0  100000 50000 0  150000 50000 0  200000 50000 0  250000 50000 0  300000 50000 0  350000 50000 0  400000 50000 0  450000 50000 0  500000 50000 0  550000 50000 0  600000 50000 0  650000 50000 0  700000 50000 0  750000 50000 0  800000 50000 0  850000 50000 0  900000 50000 0  950000 50000 0  1000000 50000 0  0 100000 0  50000 100000 0  100000 100000 0  150000 100000 0  200000 100000 0  250000 100000 0  300000 100000 0  350000 100000 0  400000 100000 0  450000 100000 0  500000 100000 0  550000 100000 0  600000 100000 0  650000 100000 0  700000 100000 0  750000 100000 0  800000 100000 0  850000 100000 0  900000 100000 0  950000 100000 0  1000000 100000 0  0 150000 0  50000 150000 0  100000 150000 0  150000 150000 0  200000 150000 0  250000 150000 0  300000 150000 0  350000 150000 0  400000 150000 0  450000 150000 0  500000 150000 0  550000 150000 0  600000 150000 0  650000 150000 0  700000 150000 0  750000 150000 0  800000 150000 0  850000 150000 0  900000 150000 0  950000 150000 0  1000000 150000 0  0 200000 0  50000 200000 0  100000 200000 0  150000 200000 0  200000 200000 0  250000 200000 0  300000 200000 0  350000 200000 0  400000 200000 0  450000 200000 0  500000 200000 0  550000 200000 0  600000 200000 0  650000 200000 0  700000 200000 0  750000 200000 0  800000 200000 0  850000 200000 0  900000 200000 0  950000 200000 0  1000000 200000 0  0 250000 0  50000 250000 0  100000 250000 0  150000 250000 0  200000 250000 0  250000 250000 0  300000 250000 0  350000 250000 0  400000 250000 0  450000 250000 0  500000 250000 0  550000 250000 0  600000 250000 0  650000 250000 0  700000 250000 0  750000 250000 0  800000 250000 0  850000 250000 0  900000 250000 0  950000 250000 0  1000000 250000 0  0 300000 0  50000 300000 0  100000 300000 0  150000 300000 0  200000 300000 0  250000 300000 0  300000 300000 0  350000 300000 0  400000 300000 0  450000 300000 0  500000 300000 0  550000 300000 0  600000 300000 0  650000 300000 0  700000 300000 0  750000 300000 0  800000 300000 0  850000 300000 0  900000 300000 0  950000 300000 0  1000000 300000 0  0 350000 0  50000 350000 0  100000 350000 0  150000 350000 0  200000 350000 0  250000 350000 0  300000 350000 0  350000 350000 0  400000 350000 0  450000 350000 0  500000 350000 0  550000 350000 0  600000 350000 0  650000 350000 0  700000 350000 0  750000 350000 0  800000 350000 0  850000 350000 0  900000 350000 0  950000 350000 0  1000000 350000 0  0 400000 0  50000 400000 0  100000 400000 0  150000 400000 0  200000 400000 0  250000 400000 0  300000 400000 0  350000 400000 0  400000 400000 0  450000 400000 0  500000 400000 0  550000 400000 0  600000 400000 0  650000 400000 0  700000 400000 0  750000 400000 0  800000 400000 0  850000 400000 0  900000 400000 0  950000 400000 0  1000000 400000 0  0 450000 0  50000 450000 0  100000 450000 0  150000 450000 0  200000 450000 0  250000 450000 0  300000 450000 0  350000 450000 0  400000 450000 0  450000 450000 0  500000 450000 0  550000 450000 0  600000 450000 0  650000 450000 0  700000 450000 0  750000 450000 0  800000 450000 0  850000 450000 0  900000 450000 0  950000 450000 0  1000000 450000 0  0 500000 0  50000 500000 0  100000 500000 0  150000 500000 0  200000 500000 0  250000 500000 0  300000 500000 0  350000 500000 0  400000 500000 0  450000 500000 0  500000 500000 0  550000 500000 0  600000 500000 0  650000 500000 0  700000 500000 0  750000 500000 0  800000 500000 0  850000 500000 0  900000 500000 0  950000 500000 0  1000000 500000 0  0 550000 0  50000 550000 0  100000 550000 0  150000 550000 0  200000 550000 0  250000 550000 0  300000 550000 0  350000 550000 0  400000 550000 0  450000 550000 0  500000 550000 0  550000 550000 0  600000 550000 0  650000 550000 0  700000 550000 0  750000 550000 0  800000 550000 0  850000 550000 0  900000 550000 0  950000 550000 0  1000000 550000 0  0 600000 0  50000 600000 0  100000 600000 0  150000 600000 0  200000 600000 0  250000 600000 0  300000 600000 0  350000 600000 0  400000 600000 0  450000 600000 0  500000 600000 0  550000 600000 0  600000 600000 0  650000 600000 0  700000 600000 0  750000 600000 0  800000 600000 0  850000 600000 0  900000 600000 0  950000 600000 0  1000000 600000 0  0 650000 0  50000 650000 0  100000 650000 0  150000 650000 0  200000 650000 0  250000 650000 0  300000 650000 0  350000 650000 0  400000 650000 0  450000 650000 0  500000 650000 0  550000 650000 0  600000 650000 0  650000 650000 0  700000 650000 0  750000 650000 0  800000 650000 0  850000 650000 0  900000 650000 0  950000 650000 0  1000000 650000 0  0 700000 0  50000 700000 0  100000 700000 0  150000 700000 0  200000 700000 0  250000 700000 0  300000 700000 0  350000 700000 0  400000 700000 0  450000 700000 0  500000 700000 0  550000 700000 0  600000 700000 0  650000 700000 0  700000 700000 0  750000 700000 0  800000 700000 0  850000 700000 0  900000 700000 0  950000 700000 0  1000000 700000 0  0 750000 0  50000 750000 0  100000 750000 0  150000 750000 0  200000 750000 0  250000 750000 0  300000 750000 0  350000 750000 0  400000 750000 0  450000 750000 0  500000 750000 0  550000 750000 0  600000 750000 0  650000 750000 0  700000 750000 0  750000 750000 0  800000 750000 0  850000 750000 0  900000 750000 0  950000 750000 0  1000000 750000 0  0 800000 0  50000 800000 0  100000 800000 0  150000 800000 0  200000 800000 0  250000 800000 0  300000 800000 0  350000 800000 0  400000 800000 0  450000 800000 0  500000 800000 0  550000 800000 0  600000 800000 0  650000 800000 0  700000 800000 0  750000 800000 0  800000 800000 0  850000 800000 0  900000 800000 0  950000 800000 0  1000000 800000 0  0 850000 0  50000 850000 0  100000 850000 0  150000 850000 0  200000 850000 0  250000 850000 0  300000 850000 0  350000 850000 0  400000 850000 0  450000 850000 0  500000 850000 0  550000 850000 0  600000 850000 0  650000 850000 0  700000 850000 0  750000 850000 0  800000 850000 0  850000 850000 0  900000 850000 0  950000 850000 0  1000000 850000 0  0 900000 0  50000 900000 0  100000 900000 0  150000 900000 0  200000 900000 0  250000 900000 0  300000 900000 0  350000 900000 0  400000 900000 0  450000 900000 0  500000 900000 0  550000 900000 0  600000 900000 0  650000 900000 0  700000 900000 0  750000 900000 0  800000 900000 0  850000 900000 0  900000 900000 0  950000 900000 0  1000000 900000 0  0 950000 0  50000 950000 0  100000 950000 0  150000 950000 0  200000 950000 0  250000 950000 0  300000 950000 0  350000 950000 0  400000 950000 0  450000 950000 0  500000 950000 0  550000 950000 0  600000 950000 0  650000 950000 0  700000 950000 0  750000 950000 0  800000 950000 0  850000 950000 0  900000 950000 0  950000 950000 0  1000000 950000 0  0 1000000 0  50000 1000000 0  100000 1000000 0  150000 1000000 0  200000 1000000 0  250000 1000000 0  300000 1000000 0  350000 1000000 0  400000 1000000 0  450000 1000000 0  500000 1000000 0  550000 1000000 0  600000 1000000 0  650000 1000000 0  700000 1000000 0  750000 1000000 0  800000 1000000 0  850000 1000000 0  900000 1000000 0  950000 1000000 0  1000000 1000000 0  0 1050000 0  50000 1050000 0  100000 1050000 0  150000 1050000 0  200000 1050000 0  250000 1050000 0  300000 1050000 0  350000 1050000 0  400000 1050000 0  450000 1050000 0  500000 1050000 0  550000 1050000 0  600000 1050000 0  650000 1050000 0  700000 1050000 0  750000 1050000 0  800000 1050000 0  850000 1050000 0  900000 1050000 0  950000 1050000 0  1000000 1050000 0  0 1100000 0  50000 1100000 0  100000 1100000 0  150000 1100000 0  200000 1100000 0  250000 1100000 0  300000 1100000 0  350000 1100000 0  400000 1100000 0  450000 1100000 0  500000 1100000 0  550000 1100000 0  600000 1100000 0  650000 1100000 0  700000 1100000 0  750000 1100000 0  800000 1100000 0  850000 1100000 0  900000 1100000 0  950000 1100000 0  1000000 1100000 0  0 1150000 0  50000 1150000 0  100000 1150000 0  150000 1150000 0  200000 1150000 0  250000 1150000 0  300000 1150000 0  350000 1150000 0  400000 1150000 0  450000 1150000 0  500000 1150000 0  550000 1150000 0  600000 1150000 0  650000 1150000 0  700000 1150000 0  750000 1150000 0  800000 1150000 0  850000 1150000 0  900000 1150000 0  950000 1150000 0  1000000 1150000 0  0 1200000 0  50000 1200000 0  100000 1200000 0  150000 1200000 0  200000 1200000 0  250000 1200000 0  300000 1200000 0  350000 1200000 0  400000 1200000 0  450000 1200000 0  500000 1200000 0  550000 1200000 0  600000 1200000 0  650000 1200000 0  700000 1200000 0  750000 1200000 0  800000 1200000 0  850000 1200000 0  900000 1200000 0  950000 1200000 0  1000000 1200000 0  0 1250000 0  50000 1250000 0  100000 1250000 0  150000 1250000 0  200000 1250000 0  250000 1250000 0  300000 1250000 0  350000 1250000 0  400000 1250000 0  450000 1250000 0  500000 1250000 0  550000 1250000 0  600000 1250000 0  650000 1250000 0  700000 1250000 0  750000 1250000 0  800000 1250000 0  850000 1250000 0  900000 1250000 0  950000 1250000 0  1000000 1250000 0  0 1300000 0  50000 1300000 0  100000 1300000 0  150000 1300000 0  200000 1300000 0  250000 1300000 0  300000 1300000 0  350000 1300000 0  400000 1300000 0  450000 1300000 0  500000 1300000 0  550000 1300000 0  600000 1300000 0  650000 1300000 0  700000 1300000 0  750000 1300000 0  800000 1300000 0  850000 1300000 0  900000 1300000 0  950000 1300000 0  1000000 1300000 0  0 1350000 0  50000 1350000 0  100000 1350000 0  150000 1350000 0  200000 1350000 0  250000 1350000 0  300000 1350000 0  350000 1350000 0  400000 1350000 0  450000 1350000 0  500000 1350000 0  550000 1350000 0  600000 1350000 0  650000 1350000 0  700000 135
[...]
<PointData  Vectors="f_3007"> 
<DataArray  type="Float64"  Name="f_3007"  NumberOfComponents="3" format="ascii">-1.5241789565532096e-08 -8.4407265840094091e-09 0.0000000000000000e+00  6.3985591970365378e-08 -5.2716313299859895e-09 0.0000000000000000e+00  6.7291969408302264e-08 -1.4413428412496697e-09 0.0000000000000000e+00  7.1047693253012434e-08 -2.1234014133142936e-10 0.0000000000000000e+00  7.3869865199201753e-08 1.8426765500164464e-10 0.0000000000000000e+00  7.5712164511613680e-08 2.9161493412009438e-10 0.0000000000000000e+00  7.6874915634930287e-08 2.7975365632803189e-10 0.0000000000000000e+00  7.7590530651907856e-08 2.1829625938188287e-10 0.0000000000000000e+00  7.8004434915138090e-08 1.3753595071883461e-10 0.0000000000000000e+00  7.8199145099824601e-08 5.0014282980030989e-11 0.0000000000000000e+00  7.8212920931655113e-08 -3.9634800805343699e-11 0.0000000000000000e+00  7.8049150436793875e-08 -1.2948949481956684e-10 0.0000000000000000e+00  7.7677563069502209e-08 -2.1663371978112585e-10 0.0000000000000000e+00  7.7028238465985021e-08 -2.9254524484672468e-10 0.0000000000000000e+00  7.5980629332232714e-08 -3.3394124997158544e-10 0.0000000000000000e+00  7.4360115801274843e-08 -2.8018757603368340e-10 0.0000000000000000e+00  7.1996792830449980e-08 2.7251704539442797e-11 0.0000000000000000e+00  6.9022049371838716e-08 1.0014736657092407e-09 0.0000000000000000e+00  6.6509067754729578e-08 3.6258377926174379e-09 0.0000000000000000e+00  6.5169196747779191e-08 8.5171240192103161e-09 0.0000000000000000e+00  -1.3285513475071593e-08 7.3005117872619920e-09 0.0000000000000000e+00  -1.0816931956682315e-08 -1.1611011721396136e-08 0.0000000000000000e+00  7.1089569425655898e-09 -1.7637505837822718e-08 0.0000000000000000e+00  2.0963571654868631e-08 -1.2485301416179357e-08 0.0000000000000000e+00  3.1817557954095657e-08 -8.4168408585364062e-09 0.0000000000000000e+00  3.9855200845294895e-08 -5.6949101071234455e-09 0.0000000000000000e+00  4.5696871120514952e-08 -3.8615386798577396e-09 0.0000000000000000e+00  4.9840370961705803e-08 -2.6007603076310473e-09 0.0000000000000000e+00  5.2691855962866744e-08 -1.7058898323155232e-09 0.0000000000000000e+00  5.4543231477646331e-08 -1.0388360145216640e-09 0.0000000000000000e+00  5.5584008996115424e-08 -5.0392263393511943e-10 0.0000000000000000e+00  5.5919973087640800e-08 -2.9940848813529173e-11 0.0000000000000000e+00  5.5585981995680039e-08 4.4341837159776799e-10 0.0000000000000000e+00  5.4550740726845814e-08 9.7725612262044002e-10 0.0000000000000000e+00  5.2713791623265300e-08 1.6461181182800959e-09 0.0000000000000000e+00  4.9895796598514606e-08 2.5556088333821207e-09 0.0000000000000000e+00  4.5825795385482471e-08 3.8717576704573374e-09 0.0000000000000000e+00  4.0135613773482206e-08 5.8730201861916736e-09 0.0000000000000000e+00  3.2368754872948891e-08 9.0238674584817894e-09 0.0000000000000000e+00  2.1895830210932246e-08 1.3898887091701859e-08 0.0000000000000000e+00  7.3768064888582113e-09 1.9726726707476845e-08 0.0000000000000000e+00  -1.2957017252487424e-08 9.9356798723706233e-09 0.0000000000000000e+00  -5.0437960312123881e-09 -1.1442256175732618e-08 0.0000000000000000e+00  -2.9528409363047426e-09 -2.5795768717737454e-08 0.0000000000000000e+00  1.9090772595703293e-09 -2.2545015362667525e-08 0.0000000000000000e+00  9.3748279994092054e-09 -1.7269144704188448e-08 0.0000000000000000e+00  1.6963466433748047e-08 -1.2686347989073505e-08 0.0000000000000000e+00  2.3330858478317381e-08 -9.1348093250809491e-09 0.0000000000000000e+00  2.8268703994441867e-08 -6.4341161063306445e-09 0.0000000000000000e+00  3.1882905785372709e-08 -4.3529248377557634e-09 0.0000000000000000e+00  3.4331133440100569e-08 -2.6908848702041115e-09 0.0000000000000000e+00  3.5745933415070433e-08 -1.2852287016790304e-09 0.0000000000000000e+00  3.6211503010826587e-08 -3.4968226275211578e-13 0.0000000000000000e+00  3.5757909877677536e-08 1.2860330909191127e-09 0.0000000000000000e+00  3.4360788245131319e-08 2.6973441381276754e-09 0.0000000000000000e+00  3.1943980508796834e-08 4.3734840848523577e-09 0.0000000000000000e+00  2.8388504217640111e-08 6.4875083608871547e-09 0.0000000000000000e+00  2.3559342443319610e-08 9.2604122725128567e-09 0.0000000000000000e+00  1.7377916968227273e-08 1.2952298960066612e-08 0.0000000000000000e+00  1.0001456573610382e-08 1.7729838018739117e-08 0.0000000000000000e+00  2.2288335590998767e-09 2.3012433225925369e-08 0.0000000000000000e+00  -3.8099553962933132e-09 2.5084734224957125e-08 0.0000000000000000e+00  -7.3883072304535369e-09 1.0473119712082208e-08 0.0000000000000000e+00  -2.1359211007245661e-09 -9.1023365122922901e-09 0.0000000000000000e+00  -4.1075534097422001e-09 -2.5274212239039663e-08 0.0000000000000000e+00  -4.2902761665260167e-09 -2.7039855072321036e-08 0.0000000000000000e+00  -1.3767301032081626e-09 -2.3340465478842471e-08 0.0000000000000000e+00  3.2153900651661125e-09 -1.8595538626588012e-08 0.0000000000000000e+00  8.0022339746722636e-09 -1.4176261753724064e-08 0.0000000000000000e+00  1.2205199071842520e-08 -1.0404594156814430e-08 0.0000000000000000e+00  1.5528227310783765e-08 -7.2471762022924552e-09 0.0000000000000000e+00  1.7893659453377232e-08 -4.5650018309491458e-09 0.0000000000000000e+00  1.9302907305650020e-08 -2.1966171300867816e-09 0.0000000000000000e+00  1.9774640300478471e-08 1.7961617930947081e-11 0.0000000000000000e+00  1.9319075786885336e-08 2.2347920144716300e-09 0.0000000000000000e+00  1.7931416447561936e-08 4.6106852644025252e-09 0.0000000000000000e+00  1.5600091082733258e-08 7.3079514500938497e-09 0.0000000000000000e+00  1.2333644934563849e-08 1.0491402171789171e-08 0.0000000000000000e+00  8.2187353814948620e-09 1.4299716923746962e-08 0.0000000000000000e+00  3.5319519135058545e-09 1.8742760561588427e-08 0.0000000000000000e+00  -1.0699965116273525e-09 2.3400089979483089e-08 0.0000000000000000e+00  -4.3318113353214912e-09 2.6662705379716096e-08 0.0000000000000000e+00  -4.6742424980179021e-09 2.4384916255973905e-08 0.0000000000000000e+00  -3.2861961619916329e-09 9.7532272874639812e-09 0.0000000000000000e+00  -8.6183905230860577e-10 -6.8381049392202577e-09 0.0000000000000000e+00  -3.6664297909729437e-09 -2.2382061782216419e-08 0.0000000000000000e+00  -5.8789571304873582e-09 -2.7108252683773959e-08 0.0000000000000000e+00  -5.9896724446900729e-09 -2.5852931803136227e-08 0.0000000000000000e+00  -4.2818440687645391e-09 -2.2143374028401622e-08 0.0000000000000000e+00  -1.6744564958956592e-09 -1.7799418270835070e-08 0.0000000000000000e+00  1.0657211021150684e-09 -1.3580220162760751e-08 0.0000000000000000e+00  3.4723430277804007e-09 -9.7255675361080881e-09 0.0000000000000000e+00  5.2997666465823672e-09 -6.2421589286692098e-09 0.0000000000000000e+00  6.4311474159034014e-09 -3.0368587784659780e-09 0.0000000000000000e+00  6.8178121177332534e-09 2.3413475518940219e-11 0.0000000000000000e+00  6.4479235190443377e-09 3.0853403665433874e-09 0.0000000000000000e+00  5.3371893138860506e-09 6.2956236580689051e-09 0.0000000000000000e+00  3.5385817367515280e-09 9.7868398665030254e-09 0.0000000000000000e+00  1.1724894482455342e-09 1.3648629981632257e-08 0.0000000000000000e+00  -1.5192210432516750e-09 1.7861019049825346e-08 0.0000000000000000e+00  -4.0978075784279936e-09 2.2147352516059534e-08 0.0000000000000000e+00  -5.8662494730776975e-09 2.5682121235142060e-08 0.0000000000000000e+00  -5.9604226211384831e-09 2.6626300469967637e-08 0.0000000000000000e+00  -3.9499853111879355e-09 2.1786991934675419e-08 0.0000000000000000e+00  -1.4306934233727910e-09 8.0227892230018322e-09 0.0000000000000000e+00  -2.8121117725481925e-10 -5.0759137863981655e-09 0.0000000000000000e+00  -3.0282816159022606e-09 -1.9104601376033070e-08 0.0000000000000000e+00  -5.9042605106813673e-09 -2.5088816425102584e-08 0.0000000000000000e+00  -7.6739100399840555e-09 -2.5722062948449532e-08 0.0000000000000000e+00  -8.0388624509053112e-09 -2.3358435398603332e-08 0.0000000000000000e+00  -7.3661070703770689e-09 -1.9649574628979936e-08 0.0000000000000000e+00  -6.1722220810450664e-09 -1.5516387084894809e-08 0.0000000000000000e+00  -4.8855420443856327e-09 -1.1395398781876648e-08 0.0000000000000000e+00  -3.7971499310283734e-09 -7.4417131509722037e-09 0.0000000000000000e+00  -3.0818104085234852e-09 -3.6596129550406063e-09 0.0000000000000000e+00  -2.8294138167271806e-09 2.1700757990983203e-11 0.0000000000000000e+00  -3.0667215528997329e-09 3.7035497712708213e-09 0.0000000000000000e+00  -3.7648326932725696e-09 7.4867143583168563e-09 0.0000000000000000e+00  -4.8321314085277767e-09 1.1439724011733430e-08 0.0000000000000000e+00  -6.0941666557676269e-09 1.5552110692186614e-08 0.0000000000000000e+00  -7.2663577659857702e-09 1.9654805629144720e-08 0.0000000000000000e+00  -7.9388875086544414e-09 2.3287663203005738e-08 0.0000000000000000e+00  -7.6237475887848718e-09 2.5509416266024558e-08 0.0000000000000000e+00  -5.9586373368307635e-09 2.4720164865829646e-08 0.0000000000000000e+00  -3.1628067816880456e-09 1.8753174626528081e-08 0.0000000000000000e+00  -5.7059453592387402e-10 6.1934992660482501e-09 0.0000000000000000e+00  -4.0436185774123548e-12 -3.7744172021400042e-09 0.0000000000000000e+00  -2.4702245155429412e-09 -1.6014265223079158e-08 0.0000000000000000e+00  -5.4399263665865842e-09 -2.2253788018028064e-08 0.0000000000000000e+00  -8.0116932079462500e-09 -2.4023886225457712e-08 0.0000000000000000e+00  -9.6744842643824565e-09 -2.2819428082819088e-08 0.0000000000000000e+00  -1.0434804982006530e-08 -1.9918108161970386e-08 0.0000000000000000e+00  -1.0545209596558418e-08 -1.6192358617340146e-08 0.0000000000000000e+00  -1.0303395437077752e-08 -1.2154306002405500e-08 0.0000000000000000e+00  -9.9581802304872106e-09 -8.0595706181963037e-09 0.0000000000000000e+00  -9.6828673158025896e-09 -4.0017401519314700e-09 0.0000000000000000e+00  -9.5764026101810698e-09 1.7146970975602627e-11 0.0000000000000000e+00  -9.6703799899228294e-09 4.0355537208197089e-09 0.0000000000000000e+00  -9.9323507207612657e-09 8.0912139032293195e-09 0.0000000000000000e+00  -1.0263145611681391e-08 1.2179504820253449e-08 0.0000000000000000e+00  -1.0491053310202578e-08 1.6201349576549886e-08 0.0000000000000000e+00  -1.0372419961000859e-08 1.9892007562835195e-08 0.0000000000000000e+00  -9.6193420108973169e-09 2.2729445285902519e-08 0.0000000000000000e+00  -7.9891860725092159e-09 2.3844257262486525e-08 0.0000000000000000e+00  -5.4700684514275150e-09 2.2004067898036293e-08 0.0000000000000000e+00  -2.5326226470009317e-09 1.5812156028572932e-08 0.0000000000000000e+00  -1.5397329168551645e-10 4.6797802528315061e-09 0.0000000000000000e+00  1.3026708787472800e-10 -2.8171428945139125e-09 0.0000000000000000e+00  -2.0262579264661803e-09 -1.3254210801126592e-08 0.0000000000000000e+00  -4.8603753195478759e-09 -1.9193337098489557e-08 0.0000000000000000e+00  -7.7458968932167440e-09 -2.1511773102111527e-08 0.0000000000000000e+00  -1.0136861783565394e-08 -2.1139303794716542e-08 0.0000000000000000e+00  -1.1843674036010605e-08 -1.8997115697111634e-08 0.0000000000000000e+00  -1.2918178202953797e-08 -1.5814724996221745e-08 0.0000000000000000e+00  -1.3515946308543794e-08 -1.2089998760274481e-08 0.0000000000000000e+00  -1.3805072941746289e-08 -8.1220492987482051e-09 0.0000000000000000e+00  -1.3920516269149228e-08 -4.0661663030412833e-09 0.0000000000000000e+00  -1.3946310635961736e-08 1.2023779743270692e-11 0.0000000000000000e+00  -1.3910636851092374e-08 4.0890888982737854e-09 0.0000000000000000e+00  -1.3785221952227713e-08 8.1409594194290335e-09 0.0000000000000000e+00  -1.3486481476976116e-08 1.2099969049941773e-08 0.0000000000000000e+00  -1.2881109888473322e-08 1.5807239138284485e-08 0.0000000000000000e+00  -1.1804421629080889e-08 1.8959236777949943e-08 0.0000000000000000e+00  -1.0105556276501245e-08 2.1056156784390517e-08 0.0000000000000000e+00  -7.7354267554443132e-09 2.1376982507096428e-08 0.0000000000000000e+00  -4.8767470671088554e-09 1.9029769250439947e-08 0.0000000000000000e+00  -2.0536684298243580e-09 1.3138151743495425e-08 0.0000000000000000e+00  5.3205347072125224e-11 3.5190188341443983e-09 0.0000000000000000e+00  1.9347091537931256e-10 -2.1044470454902063e-09 0.0000000000000000e+00  -1.6801249808453600e-09 -1.0832303084400596e-08 0.0000000000000000e+00  -4.2948562537147261e-09 -1.6177975658334342e-08 0.0000000000000000e+00  -7.2274291464954461e-09 -1.8643196419434317e-08 0.0000000000000000e+00  -9.9685440580539607e-09 -1.8796831520367440e-08 0.0000000000000000e+00  -1.2237665484893789e-08 -1.7279238848755748e-08 0.0000000000000000e+00  -1.3955096255165781e-08 -1.4660106262917211e-08 0.0000000000000000e+00  -1.5158289557000930e-08 -1.1375917890301521e-08 0.0000000000000000e+00  -1.5930322987576215e-08 -7.7253081317804962e-09 0.0000000000000000e+00  -1.6353777021414443e-08 -3.8943073068312168e-09 0.0000000000000000e+00  -1.6485680920105811e-08 7.3185402060669281e-12 0.0000000000000000e+00  -1.6346155021251765e-08 3.9075515299166820e-09 0.0000000000000000e+00  -1.5915376308658099e-08 7.7339397946719334e-09 0.0000000000000000e+00  -1.5136991289505130e-08 1.1375449162633056e-08 0.0000000000000000e+00  -1.3929798125697826e-08 1.4644215937218909e-08 0.0000000000000000e+00  -1.2212846358575454e-08 1.7240194360597609e-08 0.0000000000000000e+00  -9.9508354864422134e-09 1.8728220764774244e-08 0.0000000000000000e+00  -7.2233097916621558e-09 1.8546316840519126e-08 0.0000000000000000e+00  -4.3040807887336513e-09 1.6071650593213067e-08 0.0000000000000000e+00  -1.6900745265011634e-09 1.0765804224825183e-08 0.0000000000000000e+00  1.5590211651753179e-10 2.6448031371540513e-09 0.0000000000000000e+00  2.2021726185562421e-10 -1.5643832319985600e-09 0.0000000000000000e+00  -1.4100808092206931e-09 -8.7158668532836306e-09 0.0000000000000000e+00  -3.7862515653919708e-09 -1.3327091862681302e-08 0.0000000000000000e+00  -6.6280673198201274e-09 -1.5682130579806661e-08 0.0000000000000000e+00  -9.4845931554771636e-09 -1.6122154863430238e-08 0.0000000000000000e+00  -1.2043327880606225e-08 -1.5081988040824919e-08 0.0000000000000000e+00  -1.4146652997157173e-08 -1.2988216200575974e-08 0.0000000000000000e+00  -1.5746018913581434e-08 -1.0199600296483047e-08 0.0000000000000000e+00  -1.6851934272903566e-08 -6.9873416283823342e-09 0.0000000000000000e+00  -1.7495700380775449e-08 -3.5422685065609608e-09 0.0000000000000000e+00  -1.7704820968230591e-08 3.3756209135478151e-12 0.0000000000000000e+00  -1.7489934748078815e-08 3.5476317282791584e-09 0.0000000000000000e+00  -1.6840865846770068e-08 6.9883088532318868e-09 0.0000000000000000e+00  -1.5730809292633345e-08 1.0192558144357078e-08 0.0000000000000000e+00  -1.4129534394609281e-08 1.2968922986237795e-08 0.0000000000000000e+00  -1.2027838773115578e-08 1.5046336590672006e-08 0.0000000000000000e+00  -9.4751064363897411e-09 1.6068228228576713e-08 0.0000000000000000e+00  -6.6275719000285732e-09 1.5613681672257847e-08 0.0000000000000000e+00  -3.7916703241807526e-09 1.3258117534723785e-08 0.0000000000000000e+00  -1.4112068588642060e-09 8.6784179977859643e-09 0.0000000000000000e+00  2.0435324265879957e-10 1.9836140144094267e-09 0.0000000000000000e+00  2.2836325620072261e-10 -1.1468188912791478e-09 0.0000000000000000e+00  -1.1990449067261591e-09 -6.8620770073033301e-09 0.0000000000000000e+00  -3.3481528422764210e-09 -1.0684175765363729e-08 0.0000000000000000e+00  -6.0374189028202343e-09 -1.2772418787438364e-08 0.0000000000000000e+00  -8.8746377859372848e-09 -1.3325880653583808e-08 0.0000000000000000e+00  -1.1545239682595765e-08 -1.2634045689404768e-08 0.0000000000000000e+00  -1.3849723352426045e-08 -1.1006555318452227e-08 0.0000000000000000e+00  -1.5682128584471222e-08 -8.7246815453168878e-09 0.0000000000000000e+00  -1.6997878600282871e-08 -6.0185404548143689e-09 0.0000000000000000e+00  -1.7785452678654019e-08 -3.0650844591517089e-09 0.0000000000000000e+00  -1.8045953880720923e-08 2.5625339711543580e-13 0.0000000000000000e+00  -1.7781192315114660e-08 3.0643697856916984e-09 0.0000000000000000e+00  -1.6989856542712104e-08 6.0140654889386202e-09 0.0000000000000000e+00  -1.5671474962157537e-08 8.7137647958157290e-09 0.0000000000000000e+00  -1.3838368939470223e-08 1.0986581935620331e-08 0.0000000000000000e+00  -1.1535896936952426e-08 1.2603181057227318e-08 0.0000000000000000e+00  -8.8701638262561704e-09 1.3284392666360194e-08 0.0000000000000000e+00  -6.0388591583718810e-09 1.2724409180058361e-08 0.0000000000000000e+00  -3.3513900786673917e-09 1.0639619068888800e-08 0.0000000000000000e+00  -1.1959304228464468e-09 6.8420022187933707e-09 0.0000000000000000e+00  2.2417513658606747e-10 1.4769074413084159e-09 0.0000000000000000e+00  2.2762471414736221e-10 -8.1635077138728931e-10 0.0000000000000000e+00  -1.0356071792220676e-09 -5.2267389377751264e-09 0.0000000000000000e+00  -2.9852046014233688e-09 -8.2516781384893029e-09 0.0000000000000000e+00  -5.5065103817437189e-09 -9.9824254481963381e-09 0.0000000000000000e+00  -8.2580515244019688e-09 -1.0530824755213686e-08 0.0000000000000000e+00  -1.0936264774781812e-08 -1.0085236875963720e-08 0.0000000000000000e+00  -1.3321864062285701e-08 -8.8634660790381260e-09 0.0000000000000000e+00  -1.5273160456415880e-08 -7.0764226464893155e-09 0.0000000000000000e+00  -1.6707054914631688e-08 -4.9078087610320369e-09 0.0000000000000000e+00  -1.7579745994782080e-08 -2.5085395599715423e-09 0.0000000000000000e+00  -1.7871422536449273e-08 -2.0934460514576597e-12 0.0000000000000000e+00  -1.7576700641381245e-08 2.5033485986164097e-09 0.0000000000000000e+00  -1.6701421848276104e-08 4.8996250116559216e-09 0.0000000000000000e+00  -1.5265920268049390e-08 7.0633791508752698e-09 0.0000000000000000e+00  -1.3314573625581601e-08 8.8441045005909079e-09 0.0000000000000000e+00  -1.0930926799032667e-08 1.0059058537063154e-08 0.0000000000000000e+00  -8.2564818917620100e-09 1.0499059871855235e-08 0.0000000000000000e+00  -5.5087351685188061e-09 9.9487807934747922e-09 0.0000000000000000e+00  -2.9871062353752413e-09 8.2231298055334283e-09 0.0000000000000000e+00  -1.0308914290617318e-09 5.2172169486121516e-09 0.0000000000000000e+00  2.2917692235111674e-10 1.0816333527281988e-09 0.0000000000000000e+00  2.2351620724816714e-10 -5.4694168421089465e-10 0.0000000000000000e+00  -9.1280571254358741e-10 -3.7661103719121468e-09 0.0000000000000000e+00  -2.6998582263186773e-09 -6.0080875387257918e-09 0.0000000000000000e+00  -5.0670844249209224e-09 -7.3319894877224533e-09 0.0000000000000000e+00  -7.7129075118526177e-09 -7.7974893834917124e-09 0.0000000000000000e+00  -1.0348459938766859e-08 -7.5227328466768935e-09 0.0000000000000000e+00  -1.2747024709280162e-08 -6.6540606075801713e-09 0.0000000000000000e+00  -1.4746136353962102e-08 -5.3406781187058645e-09 0.0000000000000000e+00  -1.6237571158819434e-08 -3.7189439040831070e-09 0.0000000000000000e+00  -1.7155104809076793e-08 -1.9064190548015897e-09 0.0000000000000000e+00  -1.7463825418581058e-08 -3.7698127091785823e-12 0.0000000000000000e+00  -1.7153038324905275e-08 1.8980959194731591e-09 0.0000000000000000e+00  -1.6233809023572471e-08 3.7083443122928686e-09 0.0000000000000000e+00  -1.4741446030286460e-08 5.3265689799603877e-09 0.0000000000000000e+00  -1.2742566420760894e-08 6.6357531081453845e-09 0.0000000000000000e+00  -1.0345630661655470e-08 7.5004749772603254e-09 0.0000000000000000e+00  -7.7128087726595181e-09 7.7728734170616843e-09 0.0000000000000000e+00  -5.0693134186894391e-09 7.3081662798641964e-09 0.0000000000000000e+00  -2.7009211804091195e-09 5.9899377143191079e-09 0.0000000000000000e+00  -9.0811430728632466e-10 3.7630162808612531e-09 0.0000000000000000e+00  2.2717140540541583e-10 7.6625210298497209e-10 0.0000000000000000e+00  2.1923075393486683e-10 -3.1829965129213110e-10 0.0000000000000000e+00  -8.2669205457584569e-10 -2.4367992206757891e-09 0.0000000000000000e+00  -2.4941698868045814e-09 -3.9170164540236587e-09 0.0000000000000000e+00  -4.7399974306025664e-09 -4.8093159267717642e-09 0.0000000000000000e+00  -7.2909848205916140e-09 -5.1431864118012965e-09 0.0000000000000000e+00  -9.8715036605962717e-09 -4.9871122384115996e-09 0.0000000000000000e+00  -1.2253391058077967e-08 -4.43