<?xml version="1.0"?>
<VTKFile type="UnstructuredGrid"  version="0.1"  >
<UnstructuredGrid>
<Piece  NumberOfPoints="651" NumberOfCells="1200">
<Points>
<DataArray  type="Float64"  NumberOfComponents="3"  format="ascii">0 0 0  50000 0 0  100000 0 0  150000 0 0  200000 0 0  250000 0 0  300000 0 0  350000 0 0  400000 0 0  450000 0 0  500000 0 0  550000 0 0  600000 0 0  650000 0 0  700000 0 0  750000 0 0  800000 0 0  850000 0 0  900000 0 0  950000 0 0  1000000 0 0  0 50000 0  50000 50000 0  100000 50000 0  150000 50000 0  200000 50000 0  250000 50000 0  300000 50000 0  350000 50000 0  400000 50000 0  450000 50000 0  500000 50000 0  550000 50000 0  600000 50000 0  650000 50000 0  700000 50000 0  750000 50000 0  800000 50000 0  850000 50000 0  900000 50000 0  950000 50000 0  1000000 50000 0  0 100000 0  50000 100000 0  100000 100000 0  150000 100000 0  200000 100000 0  250000 100000 0  300000 100000 0  350000 100000 0  400000 100000 0  450000 100000 0  500000 100000 0  550000 100000 0  600000 100000 0  650000 100000 0  700000 100000 0  750000 100000 0  800000 100000 0  850000 100000 0  900000 100000 0  950000 100000 0  1000000 100000 0  0 150000 0  50000 150000 0  100000 150000 0  150000 150000 0  200000 150000 0  250000 150000 0  300000 150000 0  350000 150000 0  400000 150000 0  450000 150000 0  500000 150000 0  550000 150000 0  600000 150000 0  650000 150000 0  700000 150000 0  750000 150000 0  800000 150000 0  850000 150000 0  900000 150000 0  950000 150000 0  1000000 150000 0  0 200000 0  50000 200000 0  100000 200000 0  150000 200000 0  200000 200000 0  250000 200000 0  300000 200000 0  350000 200000 0  400000 200000 0  450000 200000 0  500000 200000 0  550000 200000 0  600000 200000 0  650000 200000 0  700000 200000 0  750000 200000 0  800000 200000 0  850000 200000 0  900000 200000 0  950000 200000 0  1000000 200000 0  0 250000 0  50000 250000 0  100000 250000 0  150000 250000 0  200000 250000 0  250000 250000 0  300000 250000 0  350000 250000 0  400000 250000 0  450000 250000 0  500000 250000 0  550000 250000 0  600000 250000 0  650000 250000 0  700000 250000 0  750000 250000 0  800000 250000 0  850000 250000 0  900000 250000 0  950000 250000 0  1000000 250000 0  0 300000 0  50000 300000 0  100000 300000 0  150000 300000 0  200000 300000 0  250000 300000 0  300000 300000 0  350000 300000 0  400000 300000 0  450000 300000 0  500000 300000 0  550000 300000 0  600000 300000 0  650000 300000 0  700000 300000 0  750000 300000 0  800000 300000 0  850000 300000 0  900000 300000 0  950000 300000 0  1000000 300000 0  0 350000 0  50000 350000 0  100000 350000 0  150000 350000 0  200000 350000 0  250000 350000 0  300000 350000 0  350000 350000 0  400000 350000 0  450000 350000 0  500000 350000 0  550000 350000 0  600000 350000 0  650000 350000 0  700000 350000 0  750000 350000 0  800000 350000 0  850000 350000 0  900000 350000 0  950000 350000 0  1000000 350000 0  0 400000 0  50000 400000 0  100000 400000 0  150000 400000 0  200000 400000 0  250000 400000 0  300000 400000 0  350000 400000 0  400000 400000 0  450000 400000 0  500000 400000 0  550000 400000 0  600000 400000 0  650000 400000 0  700000 400000 0  750000 400000 0  800000 400000 0  850000 400000 0  900000 400000 0  950000 400000 0  1000000 400000 0  0 450000 0  50000 450000 0  100000 450000 0  150000 450000 0  200000 450000 0  250000 450000 0  300000 450000 0  350000 450000 0  400000 450000 0  450000 450000 0  500000 450000 0  550000 450000 0  600000 450000 0  650000 450000 0  700000 450000 0  750000 450000 0  800000 450000 0  850000 450000 0  900000 450000 0  950000 450000 0  1000000 450000 0  0 500000 0  50000 500000 0  100000 500000 0  150000 500000 0  200000 500000 0  250000 500000 0  300000 500000 0  350000 500000 0  400000 500000 0  450000 500000 0  500000 500000 0  550000 500000 0  600000 500000 0  650000 500000 0  700000 500000 0  750000 500000 0  800000 500000 0  850000 500000 0  900000 500000 0  950000 500000 0  1000000 500000 0  0 550000 0  50000 550000 0  100000 550000 0  150000 550000 0  200000 550000 0  250000 550000 0  300000 550000 0  350000 550000 0  400000 550000 0  450000 550000 0  500000 550000 0  550000 550000 0  600000 550000 0  650000 550000 0  700000 550000 0  750000 550000 0  800000 550000 0  850000 550000 0  900000 550000 0  950000 550000 0  1000000 550000 0  0 600000 0  50000 600000 0  100000 600000 0  150000 600000 0  200000 600000 0  250000 600000 0  300000 600000 0  350000 600000 0  400000 600000 0  450000 600000 0  500000 600000 0  550000 600000 0  600000 600000 0  650000 600000 0  700000 600000 0  750000 600000 0  800000 600000 0  850000 600000 0  900000 600000 0  950000 600000 0  1000000 600000 0  0 650000 0  50000 650000 0  100000 650000 0  150000 650000 0  200000 650000 0  250000 650000 0  300000 650000 0  350000 650000 0  400000 650000 0  450000 650000 0  500000 650000 0  550000 650000 0  600000 650000 0  650000 650000 0  700000 650000 0  750000 650000 0  800000 650000 0  850000 650000 0  900000 650000 0  950000 650000 0  1000000 650000 0  0 700000 0  50000 700000 0  100000 700000 0  150000 700000 0  200000 700000 0  250000 700000 0  300000 700000 0  350000 700000 0  400000 700000 0  450000 700000 0  500000 700000 0  550000 700000 0  600000 700000 0  650000 700000 0  700000 700000 0  750000 700000 0  800000 700000 0  850000 700000 0  900000 700000 0  950000 700000 0  1000000 700000 0  0 750000 0  50000 750000 0  100000 750000 0  150000 750000 0  200000 750000 0  250000 750000 0  300000 750000 0  350000 750000 0  400000 750000 0  450000 750000 0  500000 750000 0  550000 750000 0  600000 750000 0  650000 750000 0  700000 750000 0  750000 750000 0  800000 750000 0  850000 750000 0  900000 750000 0  950000 750000 0  1000000 750000 0  0 800000 0  50000 800000 0  100000 800000 0  150000 800000 0  200000 800000 0  250000 800000 0  300000 800000 0  350000 800000 0  400000 800000 0  450000 800000 0  500000 800000 0  550000 800000 0  600000 800000 0  650000 800000 0  700000 800000 0  750000 800000 0  800000 800000 0  850000 800000 0  900000 800000 0  950000 800000 0  1000000 800000 0  0 850000 0  50000 850000 0  100000 850000 0  150000 850000 0  200000 850000 0  250000 850000 0  300000 850000 0  350000 850000 0  400000 850000 0  450000 850000 0  500000 850000 0  550000 850000 0  600000 850000 0  650000 850000 0  700000 850000 0  750000 850000 0  800000 850000 0  850000 850000 0  900000 850000 0  950000 850000 0  1000000 850000 0  0 900000 0  50000 900000 0  100000 900000 0  150000 900000 0  200000 900000 0  250000 900000 0  300000 900000 0  350000 900000 0  400000 900000 0  450000 900000 0  500000 900000 0  550000 900000 0  600000 900000 0  650000 900000 0  700000 900000 0  750000 900000 0  800000 900000 0  850000 900000 0  900000 900000 0  950000 900000 0  1000000 900000 0  0 950000 0  50000 950000 0  100000 950000 0  150000 950000 0  200000 950000 0  250000 950000 0  300000 950000 0  350000 950000 0  400000 950000 0  450000 950000 0  500000 950000 0  550000 950000 0  600000 950000 0  650000 950000 0  700000 950000 0  750000 950000 0  800000 950000 0  850000 950000 0  900000 950000 0  950000 950000 0  1000000 950000 0  0 1000000 0  50000 1000000 0  100000 1000000 0  150000 1000000 0  200000 1000000 0  250000 1000000 0  300000 1000000 0  350000 1000000 0  400000 1000000 0  450000 1000000 0  500000 1000000 0  550000 1000000 0  600000 1000000 0  650000 1000000 0  700000 1000000 0  750000 1000000 0  800000 1000000 0  850000 1000000 0  900000 1000000 0  950000 1000000 0  1000000 1000000 0  0 1050000 0  50000 1050000 0  100000 1050000 0  150000 1050000 0  200000 1050000 0  250000 1050000 0  300000 1050000 0  350000 1050000 0  400000 1050000 0  450000 1050000 0  500000 1050000 0  550000 1050000 0  600000 1050000 0  650000 1050000 0  700000 1050000 0  750000 1050000 0  800000 1050000 0  850000 1050000 0  900000 1050000 0  950000 1050000 0  1000000 1050000 0  0 1100000 0  50000 1100000 0  100000 1100000 0  150000 1100000 0  200000 1100000 0  250000 1100000 0  300000 1100000 0  350000 1100000 0  400000 1100000 0  450000 1100000 0  500000 1100000 0  550000 1100000 0  600000 1100000 0  650000 1100000 0  700000 1100000 0  750000 1100000 0  800000 1100000 0  850000 1100000 0  900000 1100000 0  950000 1100000 0  1000000 1100000 0  0 1150000 0  50000 1150000 0  100000 1150000 0  150000 1150000 0  200000 1150000 0  250000 1150000 0  300000 1150000 0  350000 1150000 0  400000 1150000 0  450000 1150000 0  500000 1150000 0  550000 1150000 0  600000 1150000 0  650000 1150000 0  700000 1150000 0  750000 1150000 0  800000 1150000 0  850000 1150000 0  900000 1150000 0  950000 1150000 0  1000000 1150000 0  0 1200000 0  50000 1200000 0  100000 1200000 0  150000 1200000 0  200000 1200000 0  250000 1200000 0  300000 1200000 0  350000 1200000 0  400000 1200000 0  450000 1200000 0  500000 1200000 0  550000 1200000 0  600000 1200000 0  650000 1200000 0  700000 1200000 0  750000 1200000 0  800000 1200000 0  850000 1200000 0  900000 1200000 0  950000 1200000 0  1000000 1200000 0  0 1250000 0  50000 1250000 0  100000 1250000 0  150000 1250000 0  200000 1250000 0  250000 1250000 0  300000 1250000 0  350000 1250000 0  400000 1250000 0  450000 1250000 0  500000 1250000 0  550000 1250000 0  600000 1250000 0  650000 1250000 0  700000 1250000 0  750000 1250000 0  800000 1250000 0  850000 1250000 0  900000 1250000 0  950000 1250000 0  1000000 1250000 0  0 1300000 0  50000 1300000 0  100000 1300000 0  150000 1300000 0  200000 1300000 0  250000 1300000 0  300000 1300000 0  350000 1300000 0  400000 1300000 0  450000 1300000 0  500000 1300000 0  550000 1300000 0  600000 1300000 0  650000 1300000 0  700000 1300000 0  750000 1300000 0  800000 1300000 0  850000 1300000 0  900000 1300000 0  950000 1300000 0  1000000 1300000 0  0 1350000 0  50000 1350000 0  100000 1350000 0  150000 1350000 0  200000 1350000 0  250000 1350000 0  300000 1350000 0  350000 1350000 0  400000 1350000 0  450000 1350000 0  500000 1350000 0  550000 1350000 0  600000 1350000 0  650000 1350000 0  700000 135
[...]
<PointData  Vectors="f_3007"> 
<DataArray  type="Float64"  Name="f_3007"  NumberOfComponents="3" format="ascii">-1.5273965917848098e-08 -8.6077761828079723e-09 0.0000000000000000e+00  6.3962699360522973e-08 -5.4116789715421805e-09 0.0000000000000000e+00  6.7278706442118332e-08 -1.5650245717960837e-09 0.0000000000000000e+00  7.0999865553201295e-08 -3.3410046092053885e-10 0.0000000000000000e+00  7.3754563321443105e-08 6.3742521736132874e-11 0.0000000000000000e+00  7.5514831410854516e-08 1.7890996105848576e-10 0.0000000000000000e+00  7.6595500990525761e-08 1.8248865414316521e-10 0.0000000000000000e+00  7.7240241047200709e-08 1.4321917554649884e-10 0.0000000000000000e+00  7.7602200456457658e-08 8.9819138686559391e-11 0.0000000000000000e+00  7.7768455701477649e-08 3.2897252376101616e-11 0.0000000000000000e+00  7.7779362864725785e-08 -2.5001522891538570e-11 0.0000000000000000e+00  7.7638472645994960e-08 -8.4106595392222822e-11 0.0000000000000000e+00  7.7313839016161334e-08 -1.4367330193589003e-10 0.0000000000000000e+00  7.6731673092461488e-08 -1.9726966217087779e-10 0.0000000000000000e+00  7.5764794362863764e-08 -2.2334461866248933e-10 0.0000000000000000e+00  7.4228892665445562e-08 -1.6208638829433523e-10 0.0000000000000000e+00  7.1942007966230582e-08 1.4600001077586329e-10 0.0000000000000000e+00  6.9023324762371481e-08 1.1173280705825889e-09 0.0000000000000000e+00  6.6536794832892344e-08 3.7393210664924803e-09 0.0000000000000000e+00  6.5203008693636400e-08 8.6159075692517705e-09 0.0000000000000000e+00  -1.3257624315298485e-08 7.3671659669899927e-09 0.0000000000000000e+00  -1.0829391591157781e-08 -1.1840629096798866e-08 0.0000000000000000e+00  6.6512256093003666e-09 -1.7557976285245369e-08 0.0000000000000000e+00  2.0193458402916412e-08 -1.2265619659919918e-08 0.0000000000000000e+00  3.0621575891176726e-08 -8.0570867126166187e-09 0.0000000000000000e+00  3.8077721514823005e-08 -5.2769652317195189e-09 0.0000000000000000e+00  4.3286457623805472e-08 -3.4366547414011941e-09 0.0000000000000000e+00  4.6820728407610530e-08 -2.2118778819155738e-09 0.0000000000000000e+00  4.9142631571007730e-08 -1.3863978430371404e-09 0.0000000000000000e+00  5.0586856053355838e-08 -8.1264010876989327e-10 0.0000000000000000e+00  5.1372240577942189e-08 -3.8617604318363200e-10 0.0000000000000000e+00  5.1621237546773117e-08 -2.8488557889214018e-11 0.0000000000000000e+00  5.1374196933365824e-08 3.2684643691032969e-10 0.0000000000000000e+00  5.0594923196674627e-08 7.4681737468516338e-10 0.0000000000000000e+00  4.9167288512034889e-08 1.3126385223123720e-09 0.0000000000000000e+00  4.6884592554050228e-08 2.1377294713848324e-09 0.0000000000000000e+00  4.3436933774136573e-08 3.3963662984476909e-09 0.0000000000000000e+00  3.8408732462476043e-08 5.3737679506713078e-09 0.0000000000000000e+00  3.1295561668824442e-08 8.5347474234602754e-09 0.0000000000000000e+00  2.1426800660968426e-08 1.3442295948837427e-08 0.0000000000000000e+00  7.3074724406666512e-09 1.9253509846705540e-08 0.0000000000000000e+00  -1.2928061305422104e-08 1.0056565363325820e-08 0.0000000000000000e+00  -5.0242369647622228e-09 -1.1708530454817638e-08 0.0000000000000000e+00  -3.0327329588147053e-09 -2.5573941550708363e-08 0.0000000000000000e+00  1.2630683661589250e-09 -2.1831222578363989e-08 0.0000000000000000e+00  8.0117929026380157e-09 -1.6240537003010733e-08 0.0000000000000000e+00  1.4717806394330940e-08 -1.1491994776942664e-08 0.0000000000000000e+00  2.0121583635492850e-08 -7.9140171517604639e-09 0.0000000000000000e+00  2.4130003320788314e-08 -5.3133226658984912e-09 0.0000000000000000e+00  2.6937137614394183e-08 -3.4321736560427960e-09 0.0000000000000000e+00  2.8764761656062265e-08 -2.0415879566245478e-09 0.0000000000000000e+00  2.9789422564103077e-08 -9.5213918032689170e-10 0.0000000000000000e+00  3.0120876839192005e-08 -5.0819959961487954e-12 0.0000000000000000e+00  2.9797519237019997e-08 9.4240095055533005e-10 0.0000000000000000e+00  2.8786626479631392e-08 2.0340912017134400e-09 0.0000000000000000e+00  2.6986548600756920e-08 3.4324444312336211e-09 0.0000000000000000e+00  2.4234848233796306e-08 5.3360183773861293e-09 0.0000000000000000e+00  2.0335455506994551e-08 7.9923894880160420e-09 0.0000000000000000e+00  1.5134343731229410e-08 1.1684607373499804e-08 0.0000000000000000e+00  8.7049908241038739e-09 1.6587897707384263e-08 0.0000000000000000e+00  1.7533191330592826e-09 2.2113471901211298e-08 0.0000000000000000e+00  -3.7854286747331046e-09 2.4539135637220926e-08 0.0000000000000000e+00  -7.3689035277252035e-09 1.0687909576121809e-08 0.0000000000000000e+00  -2.1001564881645092e-09 -9.3176191877931870e-09 0.0000000000000000e+00  -4.3467777565930566e-09 -2.4638202869677791e-08 0.0000000000000000e+00  -5.1464841987676298e-09 -2.5639029395993304e-08 0.0000000000000000e+00  -3.0854627581786464e-09 -2.1414431678753591e-08 0.0000000000000000e+00  4.9559700340835501e-10 -1.6391889969897812e-08 0.0000000000000000e+00  4.2052865045661600e-09 -1.1940340309574704e-08 0.0000000000000000e+00  7.3686292529389584e-09 -8.3552214653058817e-09 0.0000000000000000e+00  9.7852989342907514e-09 -5.5622101659074099e-09 0.0000000000000000e+00  1.1451729458728108e-08 -3.3745224367269962e-09 0.0000000000000000e+00  1.2420679127774739e-08 -1.5835085946938008e-09 0.0000000000000000e+00  1.2740851118743023e-08 1.3805052863828795e-11 0.0000000000000000e+00  1.2432235996338734e-08 1.6130283799206380e-09 0.0000000000000000e+00  1.1479949271451017e-08 3.4104418080644669e-09 0.0000000000000000e+00  9.8422680842776796e-09 5.6110808916628755e-09 0.0000000000000000e+00  7.4773450928187692e-09 8.4265365813646857e-09 0.0000000000000000e+00  4.4023458538679318e-09 1.2043040337623597e-08 0.0000000000000000e+00  8.0903671533259865e-10 1.6511471698616423e-08 0.0000000000000000e+00  -2.7403460310347507e-09 2.1432456933447536e-08 0.0000000000000000e+00  -5.0940981005374530e-09 2.5192024075917173e-08 0.0000000000000000e+00  -4.8177116388236232e-09 2.3613638707158138e-08 0.0000000000000000e+00  -3.2627301755018203e-09 9.9920007548497902e-09 0.0000000000000000e+00  -8.2480905417717511e-10 -6.9612632270384164e-09 0.0000000000000000e+00  -3.9575930986356590e-09 -2.1296258782086898e-08 0.0000000000000000e+00  -6.7865107807780814e-09 -2.4967576702445614e-08 0.0000000000000000e+00  -7.7299435687150604e-09 -2.2981336175968359e-08 0.0000000000000000e+00  -6.9872034987537568e-09 -1.8890518679305606e-08 0.0000000000000000e+00  -5.3945078189084785e-09 -1.4512962010513199e-08 0.0000000000000000e+00  -3.6300640976398128e-09 -1.0571951705588457e-08 0.0000000000000000e+00  -2.0756090985041214e-09 -7.2514199594938585e-09 0.0000000000000000e+00  -9.0743736351917968e-10 -4.4922597078547374e-09 0.0000000000000000e+00  -1.9234107485693408e-10 -2.1343037536392418e-09 0.0000000000000000e+00  5.0936786084672017e-11 1.8880267318857187e-11 0.0000000000000000e+00  -1.7956982686708344e-10 2.1738526488261392e-09 0.0000000000000000e+00  -8.7819894344103336e-10 4.5372147329925207e-09 0.0000000000000000e+00  -2.0217499416855043e-09 7.3049915740578811e-09 0.0000000000000000e+00  -3.5386316667828704e-09 1.0634131627057083e-08 0.0000000000000000e+00  -5.2527430706271630e-09 1.4570960483868513e-08 0.0000000000000000e+00  -6.8038338273705926e-09 1.8894400348414865e-08 0.0000000000000000e+00  -7.5803767627713105e-09 2.2808939890454543e-08 0.0000000000000000e+00  -6.8085606373932783e-09 2.4469793018530408e-08 0.0000000000000000e+00  -4.1731194173663306e-09 2.0637502129906580e-08 0.0000000000000000e+00  -1.3970585483836294e-09 8.2077233722151084e-09 0.0000000000000000e+00  -2.5406673429966833e-10 -5.1026460315037021e-09 0.0000000000000000e+00  -3.2960014671185423e-09 -1.7589188172287762e-08 0.0000000000000000e+00  -6.6831782180955511e-09 -2.2281819714198761e-08 0.0000000000000000e+00  -9.1322635233436010e-09 -2.2017298520400602e-08 0.0000000000000000e+00  -1.0274785374974912e-08 -1.9188343699503005e-08 0.0000000000000000e+00  -1.0413457232988997e-08 -1.5445032075419411e-08 0.0000000000000000e+00  -9.9984812031422928e-09 -1.1668252894704952e-08 0.0000000000000000e+00  -9.3937129612874303e-09 -8.2278927582164138e-09 0.0000000000000000e+00  -8.8347610865821703e-09 -5.1986482164621708e-09 0.0000000000000000e+00  -8.4547524600387350e-09 -2.5007919797516532e-09 0.0000000000000000e+00  -8.3179547379819426e-09 1.8060790249368382e-11 0.0000000000000000e+00  -8.4425009940881597e-09 2.5378704152921283e-09 0.0000000000000000e+00  -8.8080861240117855e-09 5.2381208923385895e-09 0.0000000000000000e+00  -9.3484132816895579e-09 8.2691240788845168e-09 0.0000000000000000e+00  -9.9296218152258792e-09 1.1704691158982574e-08 0.0000000000000000e+00  -1.0320259649893896e-08 1.5456240656195676e-08 0.0000000000000000e+00  -1.0171967375613327e-08 1.9128935606352242e-08 0.0000000000000000e+00  -9.0617240486348667e-09 2.1816416808922687e-08 0.0000000000000000e+00  -6.6945788234614456e-09 2.1912804671467601e-08 0.0000000000000000e+00  -3.3757051949194214e-09 1.7202514436816022e-08 0.0000000000000000e+00  -5.3564404790580893e-10 6.2885390621671870e-09 0.0000000000000000e+00  5.5076545084517054e-12 -3.7228116130204730e-09 0.0000000000000000e+00  -2.6568980209922818e-09 -1.4166336532279427e-08 0.0000000000000000e+00  -5.9573034462906384e-09 -1.8951409563533981e-08 0.0000000000000000e+00  -8.9657339413640585e-09 -1.9712723566923910e-08 0.0000000000000000e+00  -1.1125255473591449e-08 -1.7985485392058760e-08 0.0000000000000000e+00  -1.2402446508623872e-08 -1.5048330827018220e-08 0.0000000000000000e+00  -1.3010599566848399e-08 -1.1732744735074835e-08 0.0000000000000000e+00  -1.3207402681921862e-08 -8.4790978725709431e-09 0.0000000000000000e+00  -1.3205170261636981e-08 -5.4534891407456080e-09 0.0000000000000000e+00  -1.3148327063260588e-08 -2.6534599393346624e-09 0.0000000000000000e+00  -1.3117404438426598e-08 1.4551105772555158e-11 0.0000000000000000e+00  -1.3137654890339102e-08 2.6826220720559569e-09 0.0000000000000000e+00  -1.3182850879119270e-08 5.4821420577684176e-09 0.0000000000000000e+00  -1.3171926081239036e-08 8.5041828432301313e-09 0.0000000000000000e+00  -1.2961276304578658e-08 1.1745748513887423e-08 0.0000000000000000e+00  -1.2342398230215713e-08 1.5031254397716931e-08 0.0000000000000000e+00  -1.1065886552985904e-08 1.7908856303515134e-08 0.0000000000000000e+00  -8.9276344640916627e-09 1.9545939438954111e-08 0.0000000000000000e+00  -5.9550248979679769e-09 1.8704804175836537e-08 0.0000000000000000e+00  -2.6735165292594667e-09 1.3943963631886657e-08 0.0000000000000000e+00  -1.2867516997839076e-10 4.6846327586321837e-09 0.0000000000000000e+00  1.1847694293378839e-10 -2.7149229629151254e-09 0.0000000000000000e+00  -2.1081113279068401e-09 -1.1220510217221680e-08 0.0000000000000000e+00  -5.0633950315282560e-09 -1.5625907057434737e-08 0.0000000000000000e+00  -8.1060115670648464e-09 -1.6883074981883574e-08 0.0000000000000000e+00  -1.0673746780119950e-08 -1.5958884525698555e-08 0.0000000000000000e+00  -1.2565650249023086e-08 -1.3777429729447447e-08 0.0000000000000000e+00  -1.3822497539028214e-08 -1.1029380081954050e-08 0.0000000000000000e+00  -1.4585732545540053e-08 -8.1406524322409194e-09 0.0000000000000000e+00  -1.5007845817154162e-08 -5.3176381553004597e-09 0.0000000000000000e+00  -1.5209796730684816e-08 -2.6134533629437426e-09 0.0000000000000000e+00  -1.5265980064475218e-08 1.0297739009778896e-11 0.0000000000000000e+00  -1.5201116151090513e-08 2.6334631887685275e-09 0.0000000000000000e+00  -1.4990252829278069e-08 5.3352593709120278e-09 0.0000000000000000e+00  -1.4559174018486788e-08 8.1520345044399649e-09 0.0000000000000000e+00  -1.3788046457348102e-08 1.1026955240575774e-08 0.0000000000000000e+00  -1.2527030857482849e-08 1.3748704991005011e-08 0.0000000000000000e+00  -1.0638643611510426e-08 1.5888038354743174e-08 0.0000000000000000e+00  -8.0838927143008480e-09 1.6759947715704538e-08 0.0000000000000000e+00  -5.0546063549623217e-09 1.5467427979469681e-08 0.0000000000000000e+00  -2.0975850455094752e-09 1.1093501107154928e-08 0.0000000000000000e+00  6.0766509063552954e-11 3.4538100085636173e-09 0.0000000000000000e+00  1.6033902635117284e-10 -1.9794260663034251e-09 0.0000000000000000e+00  -1.6597688321610169e-09 -8.7710120448356576e-09 0.0000000000000000e+00  -4.1952882748857574e-09 -1.2590835315302628e-08 0.0000000000000000e+00  -7.0156235529619010e-09 -1.3999082017233358e-08 0.0000000000000000e+00  -9.6237114316097588e-09 -1.3599223261057334e-08 0.0000000000000000e+00  -1.1756341779035227e-08 -1.2036542630470960e-08 0.0000000000000000e+00  -1.3349833648618024e-08 -9.8461154467969885e-09 0.0000000000000000e+00  -1.4452278752633028e-08 -7.3963663318062301e-09 0.0000000000000000e+00  -1.5151813476539382e-08 -4.8953257781415279e-09 0.0000000000000000e+00  -1.5532262633279952e-08 -2.4266494117114368e-09 0.0000000000000000e+00  -1.5650265807775154e-08 6.2592559711641557e-12 0.0000000000000000e+00  -1.5525572145403418e-08 2.4382639090675661e-09 0.0000000000000000e+00  -1.5138589390726229e-08 4.9037807450193015e-09 0.0000000000000000e+00  -1.4433130240295329e-08 7.3980768260931444e-09 0.0000000000000000e+00  -1.3326399905547667e-08 9.8354721630531309e-09 0.0000000000000000e+00  -1.1731969566655202e-08 1.2006033601147287e-08 0.0000000000000000e+00  -9.6034086082461763e-09 1.3541613191707743e-08 0.0000000000000000e+00  -7.0030814492527236e-09 1.3913053157677923e-08 0.0000000000000000e+00  -4.1851280131952796e-09 1.2491416388955416e-08 0.0000000000000000e+00  -1.6393575496175376e-09 8.6995357026309731e-09 0.0000000000000000e+00  1.4196248522215641e-10 2.5369532606911636e-09 0.0000000000000000e+00  1.6842425261630071e-10 -1.4389600354898365e-09 0.0000000000000000e+00  -1.3064549796904082e-09 -6.7681801460368637e-09 0.0000000000000000e+00  -3.4374525657606001e-09 -9.9425220083638580e-09 0.0000000000000000e+00  -5.9397460818011430e-09 -1.1297242951225705e-08 0.0000000000000000e+00  -8.3979968062649162e-09 -1.1207558799705206e-08 0.0000000000000000e+00  -1.0542236809232201e-08 -1.0115632611312315e-08 0.0000000000000000e+00  -1.2254857683358101e-08 -8.4191147645185022e-09 0.0000000000000000e+00  -1.3520043635999266e-08 -6.4156616758564482e-09 0.0000000000000000e+00  -1.4372240931228924e-08 -4.2924448744204570e-09 0.0000000000000000e+00  -1.4858321290506727e-08 -2.1431123474280274e-09 0.0000000000000000e+00  -1.5014287469774223e-08 2.8733885710050578e-12 0.0000000000000000e+00  -1.4853412359374781e-08 2.1479013496801351e-09 0.0000000000000000e+00  -1.4362749794034245e-08 4.2941050496724917e-09 0.0000000000000000e+00  -1.3506813488403369e-08 6.4113294975111917e-09 0.0000000000000000e+00  -1.2239568512061733e-08 8.4050900759727876e-09 0.0000000000000000e+00  -1.0527618831246396e-08 1.0087928055685787e-08 0.0000000000000000e+00  -8.3872133247967814e-09 1.1163650111425660e-08 0.0000000000000000e+00  -5.9334740346307822e-09 1.1239160975136488e-08 0.0000000000000000e+00  -3.4284581234940980e-09 9.8816318056951506e-09 0.0000000000000000e+00  -1.2845125269917594e-09 6.7292783217633581e-09 0.0000000000000000e+00  1.6907438750108065e-10 1.8591638925771006e-09 0.0000000000000000e+00  1.6193500983992960e-10 -1.0359332575482379e-09 0.0000000000000000e+00  -1.0373473942446081e-09 -5.1368718234397604e-09 0.0000000000000000e+00  -2.8202504460456678e-09 -7.6787934028320918e-09 0.0000000000000000e+00  -4.9989793948959125e-09 -8.8689094707517910e-09 0.0000000000000000e+00  -7.2335740238822001e-09 -8.9402159793409462e-09 0.0000000000000000e+00  -9.2718256070040783e-09 -8.1918807953842378e-09 0.0000000000000000e+00  -1.0973855924670763e-08 -6.9109119353734018e-09 0.0000000000000000e+00  -1.2284899984283092e-08 -5.3264983106037301e-09 0.0000000000000000e+00  -1.3200470551671616e-08 -3.5947821047097221e-09 0.0000000000000000e+00  -1.3737172759816629e-08 -1.8053315507441427e-09 0.0000000000000000e+00  -1.3912546824354637e-08 2.7549251837002275e-13 0.0000000000000000e+00  -1.3733749767066332e-08 1.8050304235750142e-09 0.0000000000000000e+00  -1.3193996262271582e-08 3.5918150423923254e-09 0.0000000000000000e+00  -1.2276228111129363e-08 5.3187995523571373e-09 0.0000000000000000e+00  -1.0964473578317444e-08 6.8962729227292344e-09 0.0000000000000000e+00  -9.2638187636945313e-09 8.1685255259627191e-09 0.0000000000000000e+00  -7.2288334993764700e-09 8.9079758691362916e-09 0.0000000000000000e+00  -4.9967096222548643e-09 8.8307052168352978e-09 0.0000000000000000e+00  -2.8132811347956506e-09 7.6425727459630092e-09 0.0000000000000000e+00  -1.0177305181449614e-09 5.1169957387970429e-09 0.0000000000000000e+00  1.7042653539159314e-10 1.3559436819796356e-09 0.0000000000000000e+00  1.5078568960890545e-10 -7.2794022768127467e-10 0.0000000000000000e+00  -8.3957780367698774e-10 -3.7972221406953544e-09 0.0000000000000000e+00  -2.3452391074686040e-09 -5.7499868603591684e-09 0.0000000000000000e+00  -4.2407569691987570e-09 -6.7218441704135748e-09 0.0000000000000000e+00  -6.2470970080140334e-09 -6.8569527018068855e-09 0.0000000000000000e+00  -8.1371288165689621e-09 -6.3547416958341630e-09 0.0000000000000000e+00  -9.7659971606338331e-09 -5.4165309076754188e-09 0.0000000000000000e+00  -1.1057651593155632e-08 -4.2113140409445441e-09 0.0000000000000000e+00  -1.1982057159515325e-08 -2.8613935273234776e-09 0.0000000000000000e+00  -1.2533848408611668e-08 -1.4437861988839388e-09 0.0000000000000000e+00  -1.2716277058823067e-08 -1.5745673700626986e-12 0.0000000000000000e+00  -1.2531592332119579e-08 1.4399574028443942e-09 0.0000000000000000e+00  -1.1977890580787542e-08 2.8555082168450812e-09 0.0000000000000000e+00  -1.1052321121821250e-08 4.2020012962008866e-09 0.0000000000000000e+00  -9.7606979421540639e-09 5.4026225712447321e-09 0.0000000000000000e+00  -8.1333572414665778e-09 6.3357394974076260e-09 0.0000000000000000e+00  -6.2458932423527062e-09 6.8337330391140594e-09 0.0000000000000000e+00  -4.2407681499708297e-09 6.6972024532470275e-09 0.0000000000000000e+00  -2.3403043902852344e-09 5.7292111070013583e-09 0.0000000000000000e+00  -8.2380900898675577e-10 3.7882470187016792e-09 0.0000000000000000e+00  1.6112209968402839e-10 9.7697878994590886e-10 0.0000000000000000e+00  1.3995198417072413e-10 -4.8378061468637706e-10 0.0000000000000000e+00  -7.0040565252512828e-10 -2.6746830971898494e-09 0.0000000000000000e+00  -2.0001823112683299e-09 -4.0878377837329303e-09 0.0000000000000000e+00  -3.6723834225408726e-09 -4.8201441178146711e-09 0.0000000000000000e+00  -5.4830024091075019e-09 -4.9592072606808256e-09 0.0000000000000000e+00  -7.2286055802720879e-09 -4.6339390192530737e-09 0.0000000000000000e+00  -8.7672131211829061e-09 -3.9796084687566885e-09 0.0000000000000000e+00  -1.0012520214406744e-08 -3.1140997474146389e-09 0.0000000000000000e+00  -1.0919095541931670e-08 -2.1266152582298226e-09 0.0000000000000000e+00  -1.1467040808485034e-08 -1.0770765255709508e-09 0.0000000000000000e+00  -1.1649649523696471e-08 -2.8008707240695191e-12 0.0000000000000000e+00  -1.1465650422288212e-08 1.0709709560462448e-09 0.0000000000000000e+00  -1.0916594414503334e-08 2.1190306123884827e-09 0.0000000000000000e+00  -1.0009489270403277e-08 3.1041960438639110e-09 0.0000000000000000e+00  -8.7645279585246441e-09 3.9668875984693757e-09 0.0000000000000000e+00  -7.2272653529149623e-09 4.6185857003229927e-09 0.0000000000000000e+00  -5.4835176379108808e-09 4.9424684395913300e-09 0.0000000000000000e+00  -3.6733946422239845e-09 4.8043653042429909e-09 0.0000000000000000e+00  -1.9969559156450406e-09 4.0764284442975249e-09 0.0000000000000000e+00  -6.8884404621103574e-10 2.6717453318084953e-09 0.0000000000000000e+00  1.4909774480139302e-10 6.8433027219361414e-10 0.0000000000000000e+00  1.3179227610176755e-10 -2.8024447155087257e-10 0.0000000000000000e+00  -6.0881912237000995e-10 -1.7038313554987285e-09 0.0000000000000000e+00  -1.7686918899314738e-09 -2.6206608245212673e-09 0.0000000000000000e+00  -3.2829672639689421e-09 -3.1082414314726867e-09 0.0000000000000000e+00  -4.9479083494651670e-09 -3.2164786311975978e-09 0.0000000000000000e+00  -6.5784491399629295e-09 -3.0223859466131668e-09 0.0000000000000000e+00  -8.0376840846110880e-0