<?xml version="1.0"?>
<VTKFile type="UnstructuredGrid"  version="0.1"  >
<UnstructuredGrid>
<Piece  NumberOfPoints="651" NumberOfCells="1200">
<Points>
<DataArray  type="Float64"  NumberOfComponents="3"  format="ascii">0 0 0  50000 0 0  100000 0 0  150000 0 0  200000 0 0  250000 0 0  300000 0 0  350000 0 0  400000 0 0  450000 0 0  500000 0 0  550000 0 0  600000 0 0  650000 0 0  700000 0 0  750000 0 0  800000 0 0  850000 0 0  900000 0 0  950000 0 0  1000000 0 0  0 50000 0  50000 50000 0  100000 50000 0  150000 50000 0  200000 50000 0  250000 50000 0  300000 50000 0  350000 50000 0  400000 50000 0  450000 50000 0  500000 50000 0  550000 50000 0  600000 50000 0  650000 50000 0  700000 50000 0  750000 50000 0  800000 50000 0  850000 50000 0  900000 50000 0  950000 50000 0  1000000 50000 0  0 100000 0  50000 100000 0  100000 100000 0  150000 100000 0  200000 100000 0  250000 100000 0  300000 100000 0  350000 100000 0  400000 100000 0  450000 100000 0  500000 100000 0  550000 100000 0  600000 100000 0  650000 100000 0  700000 100000 0  750000 100000 0  800000 100000 0  850000 100000 0  900000 100000 0  950000 100000 0  1000000 100000 0  0 150000 0  50000 150000 0  100000 150000 0  150000 150000 0  200000 150000 0  250000 150000 0  300000 150000 0  350000 150000 0  400000 150000 0  450000 150000 0  500000 150000 0  550000 150000 0  600000 150000 0  650000 150000 0  700000 150000 0  750000 150000 0  800000 150000 0  850000 150000 0  900000 150000 0  950000 150000 0  1000000 150000 0  0 200000 0  50000 200000 0  100000 200000 0  150000 200000 0  200000 200000 0  250000 200000 0  300000 200000 0  350000 200000 0  400000 200000 0  450000 200000 0  500000 200000 0  550000 200000 0  600000 200000 0  650000 200000 0  700000 200000 0  750000 200000 0  800000 200000 0  850000 200000 0  900000 200000 0  950000 200000 0  1000000 200000 0  0 250000 0  50000 250000 0  100000 250000 0  150000 250000 0  200000 250000 0  250000 250000 0  300000 250000 0  350000 250000 0  400000 250000 0  450000 250000 0  500000 250000 0  550000 250000 0  600000 250000 0  650000 250000 0  700000 250000 0  750000 250000 0  800000 250000 0  850000 250000 0  900000 250000 0  950000 250000 0  1000000 250000 0  0 300000 0  50000 300000 0  100000 300000 0  150000 300000 0  200000 300000 0  250000 300000 0  300000 300000 0  350000 300000 0  400000 300000 0  450000 300000 0  500000 300000 0  550000 300000 0  600000 300000 0  650000 300000 0  700000 300000 0  750000 300000 0  800000 300000 0  850000 300000 0  900000 300000 0  950000 300000 0  1000000 300000 0  0 350000 0  50000 350000 0  100000 350000 0  150000 350000 0  200000 350000 0  250000 350000 0  300000 350000 0  350000 350000 0  400000 350000 0  450000 350000 0  500000 350000 0  550000 350000 0  600000 350000 0  650000 350000 0  700000 350000 0  750000 350000 0  800000 350000 0  850000 350000 0  900000 350000 0  950000 350000 0  1000000 350000 0  0 400000 0  50000 400000 0  100000 400000 0  150000 400000 0  200000 400000 0  250000 400000 0  300000 400000 0  350000 400000 0  400000 400000 0  450000 400000 0  500000 400000 0  550000 400000 0  600000 400000 0  650000 400000 0  700000 400000 0  750000 400000 0  800000 400000 0  850000 400000 0  900000 400000 0  950000 400000 0  1000000 400000 0  0 450000 0  50000 450000 0  100000 450000 0  150000 450000 0  200000 450000 0  250000 450000 0  300000 450000 0  350000 450000 0  400000 450000 0  450000 450000 0  500000 450000 0  550000 450000 0  600000 450000 0  650000 450000 0  700000 450000 0  750000 450000 0  800000 450000 0  850000 450000 0  900000 450000 0  950000 450000 0  1000000 450000 0  0 500000 0  50000 500000 0  100000 500000 0  150000 500000 0  200000 500000 0  250000 500000 0  300000 500000 0  350000 500000 0  400000 500000 0  450000 500000 0  500000 500000 0  550000 500000 0  600000 500000 0  650000 500000 0  700000 500000 0  750000 500000 0  800000 500000 0  850000 500000 0  900000 500000 0  950000 500000 0  1000000 500000 0  0 550000 0  50000 550000 0  100000 550000 0  150000 550000 0  200000 550000 0  250000 550000 0  300000 550000 0  350000 550000 0  400000 550000 0  450000 550000 0  500000 550000 0  550000 550000 0  600000 550000 0  650000 550000 0  700000 550000 0  750000 550000 0  800000 550000 0  850000 550000 0  900000 550000 0  950000 550000 0  1000000 550000 0  0 600000 0  50000 600000 0  100000 600000 0  150000 600000 0  200000 600000 0  250000 600000 0  300000 600000 0  350000 600000 0  400000 600000 0  450000 600000 0  500000 600000 0  550000 600000 0  600000 600000 0  650000 600000 0  700000 600000 0  750000 600000 0  800000 600000 0  850000 600000 0  900000 600000 0  950000 600000 0  1000000 600000 0  0 650000 0  50000 650000 0  100000 650000 0  150000 650000 0  200000 650000 0  250000 650000 0  300000 650000 0  350000 650000 0  400000 650000 0  450000 650000 0  500000 650000 0  550000 650000 0  600000 650000 0  650000 650000 0  700000 650000 0  750000 650000 0  800000 650000 0  850000 650000 0  900000 650000 0  950000 650000 0  1000000 650000 0  0 700000 0  50000 700000 0  100000 700000 0  150000 700000 0  200000 700000 0  250000 700000 0  300000 700000 0  350000 700000 0  400000 700000 0  450000 700000 0  500000 700000 0  550000 700000 0  600000 700000 0  650000 700000 0  700000 700000 0  750000 700000 0  800000 700000 0  850000 700000 0  900000 700000 0  950000 700000 0  1000000 700000 0  0 750000 0  50000 750000 0  100000 750000 0  150000 750000 0  200000 750000 0  250000 750000 0  300000 750000 0  350000 750000 0  400000 750000 0  450000 750000 0  500000 750000 0  550000 750000 0  600000 750000 0  650000 750000 0  700000 750000 0  750000 750000 0  800000 750000 0  850000 750000 0  900000 750000 0  950000 750000 0  1000000 750000 0  0 800000 0  50000 800000 0  100000 800000 0  150000 800000 0  200000 800000 0  250000 800000 0  300000 800000 0  350000 800000 0  400000 800000 0  450000 800000 0  500000 800000 0  550000 800000 0  600000 800000 0  650000 800000 0  700000 800000 0  750000 800000 0  800000 800000 0  850000 800000 0  900000 800000 0  950000 800000 0  1000000 800000 0  0 850000 0  50000 850000 0  100000 850000 0  150000 850000 0  200000 850000 0  250000 850000 0  300000 850000 0  350000 850000 0  400000 850000 0  450000 850000 0  500000 850000 0  550000 850000 0  600000 850000 0  650000 850000 0  700000 850000 0  750000 850000 0  800000 850000 0  850000 850000 0  900000 850000 0  950000 850000 0  1000000 850000 0  0 900000 0  50000 900000 0  100000 900000 0  150000 900000 0  200000 900000 0  250000 900000 0  300000 900000 0  350000 900000 0  400000 900000 0  450000 900000 0  500000 900000 0  550000 900000 0  600000 900000 0  650000 900000 0  700000 900000 0  750000 900000 0  800000 900000 0  850000 900000 0  900000 900000 0  950000 900000 0  1000000 900000 0  0 950000 0  50000 950000 0  100000 950000 0  150000 950000 0  200000 950000 0  250000 950000 0  300000 950000 0  350000 950000 0  400000 950000 0  450000 950000 0  500000 950000 0  550000 950000 0  600000 950000 0  650000 950000 0  700000 950000 0  750000 950000 0  800000 950000 0  850000 950000 0  900000 950000 0  950000 950000 0  1000000 950000 0  0 1000000 0  50000 1000000 0  100000 1000000 0  150000 1000000 0  200000 1000000 0  250000 1000000 0  300000 1000000 0  350000 1000000 0  400000 1000000 0  450000 1000000 0  500000 1000000 0  550000 1000000 0  600000 1000000 0  650000 1000000 0  700000 1000000 0  750000 1000000 0  800000 1000000 0  850000 1000000 0  900000 1000000 0  950000 1000000 0  1000000 1000000 0  0 1050000 0  50000 1050000 0  100000 1050000 0  150000 1050000 0  200000 1050000 0  250000 1050000 0  300000 1050000 0  350000 1050000 0  400000 1050000 0  450000 1050000 0  500000 1050000 0  550000 1050000 0  600000 1050000 0  650000 1050000 0  700000 1050000 0  750000 1050000 0  800000 1050000 0  850000 1050000 0  900000 1050000 0  950000 1050000 0  1000000 1050000 0  0 1100000 0  50000 1100000 0  100000 1100000 0  150000 1100000 0  200000 1100000 0  250000 1100000 0  300000 1100000 0  350000 1100000 0  400000 1100000 0  450000 1100000 0  500000 1100000 0  550000 1100000 0  600000 1100000 0  650000 1100000 0  700000 1100000 0  750000 1100000 0  800000 1100000 0  850000 1100000 0  900000 1100000 0  950000 1100000 0  1000000 1100000 0  0 1150000 0  50000 1150000 0  100000 1150000 0  150000 1150000 0  200000 1150000 0  250000 1150000 0  300000 1150000 0  350000 1150000 0  400000 1150000 0  450000 1150000 0  500000 1150000 0  550000 1150000 0  600000 1150000 0  650000 1150000 0  700000 1150000 0  750000 1150000 0  800000 1150000 0  850000 1150000 0  900000 1150000 0  950000 1150000 0  1000000 1150000 0  0 1200000 0  50000 1200000 0  100000 1200000 0  150000 1200000 0  200000 1200000 0  250000 1200000 0  300000 1200000 0  350000 1200000 0  400000 1200000 0  450000 1200000 0  500000 1200000 0  550000 1200000 0  600000 1200000 0  650000 1200000 0  700000 1200000 0  750000 1200000 0  800000 1200000 0  850000 1200000 0  900000 1200000 0  950000 1200000 0  1000000 1200000 0  0 1250000 0  50000 1250000 0  100000 1250000 0  150000 1250000 0  200000 1250000 0  250000 1250000 0  300000 1250000 0  350000 1250000 0  400000 1250000 0  450000 1250000 0  500000 1250000 0  550000 1250000 0  600000 1250000 0  650000 1250000 0  700000 1250000 0  750000 1250000 0  800000 1250000 0  850000 1250000 0  900000 1250000 0  950000 1250000 0  1000000 1250000 0  0 1300000 0  50000 1300000 0  100000 1300000 0  150000 1300000 0  200000 1300000 0  250000 1300000 0  300000 1300000 0  350000 1300000 0  400000 1300000 0  450000 1300000 0  500000 1300000 0  550000 1300000 0  600000 1300000 0  650000 1300000 0  700000 1300000 0  750000 1300000 0  800000 1300000 0  850000 1300000 0  900000 1300000 0  950000 1300000 0  1000000 1300000 0  0 1350000 0  50000 1350000 0  100000 1350000 0  150000 1350000 0  200000 1350000 0  250000 1350000 0  300000 1350000 0  350000 1350000 0  400000 1350000 0  450000 1350000 0  500000 1350000 0  550000 1350000 0  600000 1350000 0  650000 1350000 0  700000 135
[...]
<PointData  Vectors="f_3007"> 
<DataArray  type="Float64"  Name="f_3007"  NumberOfComponents="3" format="ascii">-1.5250440922642902e-08 -8.4558390122769217e-09 0.0000000000000000e+00  6.3971974926090420e-08 -5.2836873236310074e-09 0.0000000000000000e+00  6.7273327801632899e-08 -1.4520352970487805e-09 0.0000000000000000e+00  7.1027624685114240e-08 -2.2252529909890954e-10 0.0000000000000000e+00  7.3848580939489902e-08 1.7461362867481204e-10 0.0000000000000000e+00  7.5688305453332712e-08 2.8277654558124048e-10 0.0000000000000000e+00  7.6847403555071403e-08 2.7216129102881191e-10 0.0000000000000000e+00  7.7559185198531350e-08 2.1241501471014782e-10 0.0000000000000000e+00  7.7969933046299970e-08 1.3376501172728239e-10 0.0000000000000000e+00  7.8162786627687321e-08 4.8620790118825535e-11 0.0000000000000000e+00  7.8176342676452074e-08 -3.8554682881252808e-11 0.0000000000000000e+00  7.8014025912720628e-08 -1.2602305283040786e-10 0.0000000000000000e+00  7.7645305268651123e-08 -2.1103389978023874e-10 0.0000000000000000e+00  7.6999727372764394e-08 -2.8517874817848316e-10 0.0000000000000000e+00  7.5956009966502314e-08 -3.2520035254898749e-10 0.0000000000000000e+00  7.4338768623300941e-08 -2.7036777662644831e-10 0.0000000000000000e+00  7.1977682503116854e-08 3.8089265525917365e-11 0.0000000000000000e+00  6.9004730113667403e-08 1.0135555734918396e-09 0.0000000000000000e+00  6.6495056129399191e-08 3.6392708358151626e-09 0.0000000000000000e+00  6.5160450127409849e-08 8.5310514251746251e-09 0.0000000000000000e+00  -1.3291038180018291e-08 7.3100662133230832e-09 0.0000000000000000e+00  -1.0822486301712405e-08 -1.1636282687633546e-08 0.0000000000000000e+00  7.1489997384167351e-09 -1.7634064137839172e-08 0.0000000000000000e+00  2.0992276865235281e-08 -1.2470005854452774e-08 0.0000000000000000e+00  3.1804306543285420e-08 -8.3930444007498975e-09 0.0000000000000000e+00  3.9796154370187290e-08 -5.6676173340542370e-09 0.0000000000000000e+00  4.5589687100628787e-08 -3.8320976052809722e-09 0.0000000000000000e+00  4.9685522475620176e-08 -2.5720199733490525e-09 0.0000000000000000e+00  5.2494477678116740e-08 -1.6809179796069456e-09 0.0000000000000000e+00  5.4312452925792984e-08 -1.0201632537301701e-09 0.0000000000000000e+00  5.5331908312501635e-08 -4.9333322895260892e-10 0.0000000000000000e+00  5.5660487166181932e-08 -2.8361753809148583e-11 0.0000000000000000e+00  5.5333701026075815e-08 4.3599167287913634e-10 0.0000000000000000e+00  5.4319645850905028e-08 9.6179412204385017e-10 0.0000000000000000e+00  5.2516031126939063e-08 1.6245472308758445e-09 0.0000000000000000e+00  4.9740552216541251e-08 2.5307321702727003e-09 0.0000000000000000e+00  4.5718161691678543e-08 3.8470498057351466e-09 0.0000000000000000e+00  4.0075228498953122e-08 5.8522200318545028e-09 0.0000000000000000e+00  3.2348022461123585e-08 9.0109289101569814e-09 0.0000000000000000e+00  2.1900039180436312e-08 1.3899726319844011e-08 0.0000000000000000e+00  7.3840511620397097e-09 1.9749853415582334e-08 0.0000000000000000e+00  -1.2964027887770593e-08 9.9526714180399400e-09 0.0000000000000000e+00  -5.0458704774207546e-09 -1.1478189664525305e-08 0.0000000000000000e+00  -2.9511738759530290e-09 -2.5767858377022366e-08 0.0000000000000000e+00  1.8957974654394308e-09 -2.2492279003991047e-08 0.0000000000000000e+00  9.3011415921278930e-09 -1.7189465303972552e-08 0.0000000000000000e+00  1.6816792284507088e-08 -1.2594229400325213e-08 0.0000000000000000e+00  2.3107439497002889e-08 -9.0397451295423222e-09 0.0000000000000000e+00  2.7969984476891414e-08 -6.3446177628422483e-09 0.0000000000000000e+00  3.1517062499086328e-08 -4.2771923509288057e-09 0.0000000000000000e+00  3.3912639889877529e-08 -2.6357926103773556e-09 0.0000000000000000e+00  3.5293930197976087e-08 -1.2556648656154150e-09 0.0000000000000000e+00  3.5748004259100528e-08 1.1584670257770717e-12 0.0000000000000000e+00  3.5305930832078200e-08 1.2594963272347065e-09 0.0000000000000000e+00  3.3942425847998903e-08 2.6453257804435911e-09 0.0000000000000000e+00  3.1578540371857258e-08 4.3009529014883765e-09 0.0000000000000000e+00  2.8090747968628685e-08 6.4015188089297237e-09 0.0000000000000000e+00  2.3337834190276489e-08 9.1696146493550282e-09 0.0000000000000000e+00  1.7233308547092253e-08 1.2866320274915836e-08 0.0000000000000000e+00  9.9246753075690668e-09 1.7659134195621388e-08 0.0000000000000000e+00  2.2000934374546660e-09 2.2969336162658754e-08 0.0000000000000000e+00  -3.8150370377269351e-09 2.5085906375672341e-08 0.0000000000000000e+00  -7.3939540542047858e-09 1.0502527924000215e-08 0.0000000000000000e+00  -2.1351489162135396e-09 -9.1374621217011159e-09 0.0000000000000000e+00  -4.1261524825343765e-09 -2.5230940387163795e-08 0.0000000000000000e+00  -4.3522203572457992e-09 -2.6934618795100378e-08 0.0000000000000000e+00  -1.5056496278865499e-09 -2.3191922378772843e-08 0.0000000000000000e+00  2.9993324953892152e-09 -1.8420540581099677e-08 0.0000000000000000e+00  7.6936106299399587e-09 -1.3995345546113696e-08 0.0000000000000000e+00  1.1806681930998404e-08 -1.0235333373673131e-08 0.0000000000000000e+00  1.5050081298085567e-08 -7.1050711552780998e-09 0.0000000000000000e+00  1.7353174064550395e-08 -4.4626424211111383e-09 0.0000000000000000e+00  1.8722792710737039e-08 -2.1428943160283655e-09 0.0000000000000000e+00  1.9180977787871148e-08 1.8455540056976954e-11 0.0000000000000000e+00  1.8739114086692945e-08 2.1820646740810074e-09 0.0000000000000000e+00  1.7391319728940453e-08 4.5093465329738524e-09 0.0000000000000000e+00  1.5122745336904010e-08 7.1669217433203665e-09 0.0000000000000000e+00  1.1936613404198759e-08 1.0323337553688134e-08 0.0000000000000000e+00  7.9123890157412039e-09 1.4120197783091937e-08 0.0000000000000000e+00  3.3177149485187644e-09 1.8569353695189482e-08 0.0000000000000000e+00  -1.2011655700677525e-09 2.3251801718167335e-08 0.0000000000000000e+00  -4.3997042139537756e-09 2.6560402190445793e-08 0.0000000000000000e+00  -4.7024931906201935e-09 2.4349748048073509e-08 0.0000000000000000e+00  -3.2890401399096242e-09 9.7885100586346151e-09 0.0000000000000000e+00  -8.5918709052995928e-10 -6.8649185782953617e-09 0.0000000000000000e+00  -3.6945184105529309e-09 -2.2305580511100527e-08 0.0000000000000000e+00  -5.9583476221347364e-09 -2.6943994221079514e-08 0.0000000000000000e+00  -6.1436541958524230e-09 -2.5623300132754700e-08 0.0000000000000000e+00  -4.5254361510055862e-09 -2.1876571406445054e-08 0.0000000000000000e+00  -2.0138588866012734e-09 -1.7523882579670214e-08 0.0000000000000000e+00  6.3378518457573234e-10 -1.3322924998858233e-08 0.0000000000000000e+00  2.9589545703518420e-09 -9.5100171137755955e-09 0.0000000000000000e+00  4.7228249999131559e-09 -6.0872682654000471e-09 0.0000000000000000e+00  5.8138787553787273e-09 -2.9559030017179977e-09 0.0000000000000000e+00  6.1867860823736024e-09 2.3586032787212059e-11 0.0000000000000000e+00  5.8308627179582899e-09 3.0047217234798923e-09 0.0000000000000000e+00  4.7607150624112782e-09 6.1410391815293409e-09 0.0000000000000000e+00  3.0260184322781233e-09 9.5715175766164376e-09 0.0000000000000000e+00  7.4183334114708176e-10 1.3391374873627188e-08 0.0000000000000000e+00  -1.8571034458289533e-09 1.7585068385223272e-08 0.0000000000000000e+00  -4.3407185335319451e-09 2.1879037336489928e-08 0.0000000000000000e+00  -6.0217295322437516e-09 2.5449673003337556e-08 0.0000000000000000e+00  -6.0453485641371412e-09 2.6458903838492375e-08 0.0000000000000000e+00  -3.9855493389087772e-09 2.1711367820631585e-08 0.0000000000000000e+00  -1.4303665036199672e-09 8.0548175579944150e-09 0.0000000000000000e+00  -2.7785705547834348e-10 -5.0915899567029830e-09 0.0000000000000000e+00  -3.0594260695601398e-09 -1.8987391189289410e-08 0.0000000000000000e+00  -5.9877885242812607e-09 -2.4859111725940144e-08 0.0000000000000000e+00  -7.8280246172359891e-09 -2.5410489168178005e-08 0.0000000000000000e+00  -8.2764271340721166e-09 -2.3000525563143277e-08 0.0000000000000000e+00  -7.6916432318924141e-09 -1.9282048679965895e-08 0.0000000000000000e+00  -6.5821896480514519e-09 -1.5174127873829491e-08 0.0000000000000000e+00  -5.3694273434181807e-09 -1.1109150503923168e-08 0.0000000000000000e+00  -4.3384893120366370e-09 -7.2362746065609502e-09 0.0000000000000000e+00  -3.6595282120539438e-09 -3.5523856515957661e-09 0.0000000000000000e+00  -3.4195221438317548e-09 2.1736787097970267e-11 0.0000000000000000e+00  -3.6442358449276207e-09 3.5963688519321716e-09 0.0000000000000000e+00  -4.3057502802000403e-09 7.2812328471835846e-09 0.0000000000000000e+00  -5.3153551050751549e-09 1.1153239963813238e-08 0.0000000000000000e+00  -6.5032676887797008e-09 1.5209235647593636e-08 0.0000000000000000e+00  -7.5910969206699029e-09 1.9285976584943993e-08 0.0000000000000000e+00  -8.1764285286240747e-09 2.2927352012946045e-08 0.0000000000000000e+00  -7.7793797146169018e-09 2.5194268193331455e-08 0.0000000000000000e+00  -6.0453484312862181e-09 2.4486989625455973e-08 0.0000000000000000e+00  -3.1982903313060546e-09 1.8635137330456469e-08 0.0000000000000000e+00  -5.6813607291981204e-10 6.2167680891245950e-09 0.0000000000000000e+00  -1.1205931357485710e-12 -3.7790490877758226e-09 0.0000000000000000e+00  -2.4988051970002139e-09 -1.5857406393643380e-08 0.0000000000000000e+00  -5.5143721690548740e-09 -2.1963754175946748e-08 0.0000000000000000e+00  -8.1453203435567840e-09 -2.3638728570869614e-08 0.0000000000000000e+00  -9.8761195832160110e-09 -2.2381675773501716e-08 0.0000000000000000e+00  -1.0707259369943102e-08 -1.9471142147924330e-08 0.0000000000000000e+00  -1.0885078888464981e-08 -1.5777420105398667e-08 0.0000000000000000e+00  -1.0701882788045112e-08 -1.1807923301030903e-08 0.0000000000000000e+00  -1.0402026600589531e-08 -7.8112701490724548e-09 0.0000000000000000e+00  -1.0155356860088696e-08 -3.8722738142518235e-09 0.0000000000000000e+00  -1.0058632295255889e-08 1.7062098404050671e-11 0.0000000000000000e+00  -1.0142701896777165e-08 3.9058848203868746e-09 0.0000000000000000e+00  -1.0375868764742468e-08 7.8426025072525064e-09 0.0000000000000000e+00  -1.0661165981293334e-08 1.1832596967567383e-08 0.0000000000000000e+00  -1.0830402168160011e-08 1.5785515884823776e-08 0.0000000000000000e+00  -1.0644561326330800e-08 1.9443551689043579e-08 0.0000000000000000e+00  -9.8212466178300120e-09 2.2289425722621143e-08 0.0000000000000000e+00  -8.1238417143845646e-09 2.3456138896343625e-08 0.0000000000000000e+00  -5.5462713394452243e-09 2.1711213530789034e-08 0.0000000000000000e+00  -2.5634266903958333e-09 1.5654372261558164e-08 0.0000000000000000e+00  -1.5070039378689262e-10 4.6922591405767856e-09 0.0000000000000000e+00  1.3183978249906799e-10 -2.8124184297042882e-09 0.0000000000000000e+00  -2.0483540874700578e-09 -1.3064897687926849e-08 0.0000000000000000e+00  -4.9153066327605426e-09 -1.8856008465379151e-08 0.0000000000000000e+00  -7.8414650015168092e-09 -2.1070558207617412e-08 0.0000000000000000e+00  -1.0277778942487763e-08 -2.0641929571170911e-08 0.0000000000000000e+00  -1.2030931116347393e-08 -1.8491684833226852e-08 0.0000000000000000e+00  -1.3148967842054814e-08 -1.5346862685418344e-08 0.0000000000000000e+00  -1.3784209468097136e-08 -1.1700124731210064e-08 0.0000000000000000e+00  -1.4102122515274948e-08 -7.8428858569988797e-09 0.0000000000000000e+00  -1.4235661458593232e-08 -3.9207285142184939e-09 0.0000000000000000e+00  -1.4267588772244478e-08 1.1846254013530131e-11 0.0000000000000000e+00  -1.4225654223649269e-08 3.9432674917403396e-09 0.0000000000000000e+00  -1.4082032335882152e-08 7.8613209276590285e-09 0.0000000000000000e+00  -1.3754435685767524e-08 1.1709448381519663e-08 0.0000000000000000e+00  -1.3111623322683176e-08 1.5338448401833898e-08 0.0000000000000000e+00  -1.1991625466367537e-08 1.8452463428713786e-08 0.0000000000000000e+00  -1.0246817713580142e-08 2.0556941882362835e-08 0.0000000000000000e+00  -7.8316917795042177e-09 2.0933530985676603e-08 0.0000000000000000e+00  -4.9325212584581218e-09 1.8690344856489151e-08 0.0000000000000000e+00  -2.0764418782446599e-09 1.2948172567274181e-08 0.0000000000000000e+00  5.6068255659177013e-11 3.5210649422727055e-09 0.0000000000000000e+00  1.9306201248804266e-10 -2.0928505444281859e-09 0.0000000000000000e+00  -1.6933115219021036e-09 -1.0622065590028156e-08 0.0000000000000000e+00  -4.3235710133603343e-09 -1.5812187476537632e-08 0.0000000000000000e+00  -7.2732180857549581e-09 -1.8169894771710581e-08 0.0000000000000000e+00  -1.0031915423284801e-08 -1.8266591328803955e-08 0.0000000000000000e+00  -1.2317985757618040e-08 -1.6742477632109542e-08 0.0000000000000000e+00  -1.4050602294681585e-08 -1.4164446772910777e-08 0.0000000000000000e+00  -1.5266373035092799e-08 -1.0963516795892863e-08 0.0000000000000000e+00  -1.6047796954106243e-08 -7.4303049122007310e-09 0.0000000000000000e+00  -1.6477041705536777e-08 -3.7407230448035857e-09 0.0000000000000000e+00  -1.6610873557892707e-08 7.0752479225919001e-12 0.0000000000000000e+00  -1.6469327030030724e-08 3.7534612079684173e-09 0.0000000000000000e+00  -1.6032685116132284e-08 7.4383688395622110e-09 0.0000000000000000e+00  -1.5244885810706985e-08 1.0962366125575783e-08 0.0000000000000000e+00  -1.4025186832469666e-08 1.4147691680540766e-08 0.0000000000000000e+00  -1.2293252030425826e-08 1.6702313366254357e-08 0.0000000000000000e+00  -1.0014553490348255e-08 1.8196583796198960e-08 0.0000000000000000e+00  -7.2695556457266068e-09 1.8071426112779684e-08 0.0000000000000000e+00  -4.3330293281388912e-09 1.5704432153389307e-08 0.0000000000000000e+00  -1.7029194174008034e-09 1.0555229441413285e-08 0.0000000000000000e+00  1.5738550262066211e-10 2.6382030657044383e-09 0.0000000000000000e+00  2.1750013662300336e-10 -1.5486813379906247e-09 0.0000000000000000e+00  -1.4132590601871720e-09 -8.4988015963514322e-09 0.0000000000000000e+00  -3.7856251580399668e-09 -1.2955202547272516e-08 0.0000000000000000e+00  -6.6184957768314057e-09 -1.5204567123447912e-08 0.0000000000000000e+00  -9.4623733925250258e-09 -1.5589604034015806e-08 0.0000000000000000e+00  -1.2006409882281775e-08 -1.4544503072080094e-08 0.0000000000000000e+00  -1.4094615644222708e-08 -1.2492870163390508e-08 0.0000000000000000e+00  -1.5680085578958202e-08 -9.7879937480072890e-09 0.0000000000000000e+00  -1.6774848090992241e-08 -6.6931546635518170e-09 0.0000000000000000e+00  -1.7411403813304789e-08 -3.3892000630988763e-09 0.0000000000000000e+00  -1.7618012448318955e-08 3.0858130105003780e-12 0.0000000000000000e+00  -1.7405575281485847e-08 3.3939738964736993e-09 0.0000000000000000e+00  -1.6763674398770210e-08 6.6935013251342776e-09 0.0000000000000000e+00  -1.5664775365843889e-08 9.7802728481386077e-09 0.0000000000000000e+00  -1.4077480725672264e-08 1.2472806645117211e-08 0.0000000000000000e+00  -1.1991074432226914e-08 1.4507964033909093e-08 0.0000000000000000e+00  -9.4532087825103453e-09 1.5534686174646334e-08 0.0000000000000000e+00  -6.6182911655065001e-09 1.5135091334557998e-08 0.0000000000000000e+00  -3.7909028297832073e-09 1.2885394535710391e-08 0.0000000000000000e+00  -1.4134679314573834e-09 8.4613342333944504e-09 0.0000000000000000e+00  2.0381436659886175e-10 1.9708724357627321e-09 0.0000000000000000e+00  2.2329464243984105e-10 -1.1297106549668126e-09 0.0000000000000000e+00  -1.1922420662977471e-09 -6.6531126678401877e-09 0.0000000000000000e+00  -3.3182185202339355e-09 -1.0329722589002463e-08 0.0000000000000000e+00  -5.9725636175337903e-09 -1.2319616708383121e-08 0.0000000000000000e+00  -8.7670941564098782e-09 -1.2822628025214017e-08 0.0000000000000000e+00  -1.1391716518434589e-08 -1.2127281232519190e-08 0.0000000000000000e+00  -1.3651251956488846e-08 -1.0540247801187722e-08 0.0000000000000000e+00  -1.5443789295948648e-08 -8.3376130079449728e-09 0.0000000000000000e+00  -1.6728283892855484e-08 -5.7420876413119748e-09 0.0000000000000000e+00  -1.7495946772645054e-08 -2.9213207777904936e-09 0.0000000000000000e+00  -1.7749600867077467e-08 -6.5709047356046784e-14 0.0000000000000000e+00  -1.7491647507292699e-08 2.9199615031560468e-09 0.0000000000000000e+00  -1.6720202555506622e-08 5.7369652205853722e-09 0.0000000000000000e+00  -1.5433096618909462e-08 8.3260417652945601e-09 0.0000000000000000e+00  -1.3639940666625720e-08 1.0519608914674715e-08 0.0000000000000000e+00  -1.1382553541583620e-08 1.2095747706355002e-08 0.0000000000000000e+00  -8.7629061735680245e-09 1.2780502302710195e-08 0.0000000000000000e+00  -5.9741844930540555e-09 1.2271055985393455e-08 0.0000000000000000e+00  -3.3211217141910745e-09 1.0284840493381815e-08 0.0000000000000000e+00  -1.1879721178797435e-09 6.6332977489413275e-09 0.0000000000000000e+00  2.2129915842654219e-10 1.4607513536424195e-09 0.0000000000000000e+00  2.2040050447133559e-10 -8.0023502452092520e-10 0.0000000000000000e+00  -1.0197241554864819e-09 -5.0401465025686939e-09 0.0000000000000000e+00  -2.9285370922161248e-09 -7.9372144471516663e-09 0.0000000000000000e+00  -5.3911329799308591e-09 -9.5821294334398327e-09 0.0000000000000000e+00  -8.0724841171161419e-09 -1.0086981097808365e-08 0.0000000000000000e+00  -1.0676136103452011e-08 -9.6390408144437771e-09 0.0000000000000000e+00  -1.2989590274188053e-08 -8.4533780605539464e-09 0.0000000000000000e+00  -1.4877382724698224e-08 -6.7363043893254974e-09 0.0000000000000000e+00  -1.6261755297613303e-08 -4.6650332243418729e-09 0.0000000000000000e+00  -1.7103006650551674e-08 -2.3823560358248925e-09 0.0000000000000000e+00  -1.7383902125312070e-08 -2.4359252794446024e-12 0.0000000000000000e+00  -1.7099940194071727e-08 2.3764874083061713e-09 0.0000000000000000e+00  -1.6256095272533732e-08 4.6561936049013803e-09 0.0000000000000000e+00  -1.4870141995213394e-08 6.7226417568106180e-09 0.0000000000000000e+00  -1.2982371529782796e-08 8.4334527529261346e-09 0.0000000000000000e+00  -1.0670975703767160e-08 9.6123845103696259e-09 0.0000000000000000e+00  -8.0711570846047696e-09 1.0054871273124535e-08 0.0000000000000000e+00  -5.3934686386070764e-09 9.5483189382241845e-09 0.0000000000000000e+00  -2.9300453038973896e-09 7.9087497926542171e-09 0.0000000000000000e+00  -1.0138564346779502e-09 5.0311107290588411e-09 0.0000000000000000e+00  2.2394126973161210e-10 1.0646771334803392e-09 0.0000000000000000e+00  2.1451774096790928e-10 -5.3377500246286281e-10 0.0000000000000000e+00  -8.8935842492897003e-10 -3.6143643767067338e-09 0.0000000000000000e+00  -2.6208928497660945e-09 -5.7534276905015348e-09 0.0000000000000000e+00  -4.9094684544990253e-09 -7.0085958240990042e-09 0.0000000000000000e+00  -7.4620084728773386e-09 -7.4395087635392125e-09 0.0000000000000000e+00  -9.9990017849103740e-09 -7.1632894763359060e-09 0.0000000000000000e+00  -1.2302603958227694e-08 -6.3239985867378451e-09 0.0000000000000000e+00  -1.4218399829776514e-08 -5.0671120882989406e-09 0.0000000000000000e+00  -1.5645014672358369e-08 -3.5237750351896968e-09 0.0000000000000000e+00  -1.6521459403077195e-08 -1.8050416806612168e-09 0.0000000000000000e+00  -1.6816106516640302e-08 -4.1238715977832698e-12 0.0000000000000000e+00  -1.6519383564052908e-08 1.7960241368951879e-09 0.0000000000000000e+00  -1.5641245299613106e-08 3.5125225654875315e-09 0.0000000000000000e+00  -1.4213728054919328e-08 5.0524212972416097e-09 0.0000000000000000e+00  -1.2298221951608943e-08 6.3052156569594867e-09 0.0000000000000000e+00  -9.9963264020232561e-09 7.1407078749880977e-09 0.0000000000000000e+00  -7.4621017591505146e-09 7.4147758864738180e-09 0.0000000000000000e+00  -4.9117649199341767e-09 6.9849010544380093e-09 0.0000000000000000e+00  -2.6215951826374300e-09 5.7356706688468868e-09 0.0000000000000000e+00  -8.8368423448165434e-10 3.6119274332426232e-09 0.0000000000000000e+00  2.1979318216400467e-10 7.5078222378850233e-10 0.0000000000000000e+00  2.0897117157299363e-10 -3.0952152573704853e-10 0.0000000000000000e+00  -7.9758465710296134e-10 -2.3297896461862172e-09 0.0000000000000000e+00  -2.3985712521531841e-09 -3.7379566025383968e-09 0.0000000000000000e+00  -4.5508221896666903e-09 -4.5823135551578855e-09 0.0000000000000000e+00  -6.9911914992280901e-09 -4.8922103048165429e-09 0.0000000000000000e+00  -9.4551199872331136e-09 -4.7353397855342810e-09 0.0000000000000000e+00  -1.1724900053264668e-08 -4.19