<?xml version="1.0"?>
<VTKFile type="UnstructuredGrid"  version="0.1"  >
<UnstructuredGrid>
<Piece  NumberOfPoints="651" NumberOfCells="1200">
<Points>
<DataArray  type="Float64"  NumberOfComponents="3"  format="ascii">0 0 0  50000 0 0  100000 0 0  150000 0 0  200000 0 0  250000 0 0  300000 0 0  350000 0 0  400000 0 0  450000 0 0  500000 0 0  550000 0 0  600000 0 0  650000 0 0  700000 0 0  750000 0 0  800000 0 0  850000 0 0  900000 0 0  950000 0 0  1000000 0 0  0 50000 0  50000 50000 0  100000 50000 0  150000 50000 0  200000 50000 0  250000 50000 0  300000 50000 0  350000 50000 0  400000 50000 0  450000 50000 0  500000 50000 0  550000 50000 0  600000 50000 0  650000 50000 0  700000 50000 0  750000 50000 0  800000 50000 0  850000 50000 0  900000 50000 0  950000 50000 0  1000000 50000 0  0 100000 0  50000 100000 0  100000 100000 0  150000 100000 0  200000 100000 0  250000 100000 0  300000 100000 0  350000 100000 0  400000 100000 0  450000 100000 0  500000 100000 0  550000 100000 0  600000 100000 0  650000 100000 0  700000 100000 0  750000 100000 0  800000 100000 0  850000 100000 0  900000 100000 0  950000 100000 0  1000000 100000 0  0 150000 0  50000 150000 0  100000 150000 0  150000 150000 0  200000 150000 0  250000 150000 0  300000 150000 0  350000 150000 0  400000 150000 0  450000 150000 0  500000 150000 0  550000 150000 0  600000 150000 0  650000 150000 0  700000 150000 0  750000 150000 0  800000 150000 0  850000 150000 0  900000 150000 0  950000 150000 0  1000000 150000 0  0 200000 0  50000 200000 0  100000 200000 0  150000 200000 0  200000 200000 0  250000 200000 0  300000 200000 0  350000 200000 0  400000 200000 0  450000 200000 0  500000 200000 0  550000 200000 0  600000 200000 0  650000 200000 0  700000 200000 0  750000 200000 0  800000 200000 0  850000 200000 0  900000 200000 0  950000 200000 0  1000000 200000 0  0 250000 0  50000 250000 0  100000 250000 0  150000 250000 0  200000 250000 0  250000 250000 0  300000 250000 0  350000 250000 0  400000 250000 0  450000 250000 0  500000 250000 0  550000 250000 0  600000 250000 0  650000 250000 0  700000 250000 0  750000 250000 0  800000 250000 0  850000 250000 0  900000 250000 0  950000 250000 0  1000000 250000 0  0 300000 0  50000 300000 0  100000 300000 0  150000 300000 0  200000 300000 0  250000 300000 0  300000 300000 0  350000 300000 0  400000 300000 0  450000 300000 0  500000 300000 0  550000 300000 0  600000 300000 0  650000 300000 0  700000 300000 0  750000 300000 0  800000 300000 0  850000 300000 0  900000 300000 0  950000 300000 0  1000000 300000 0  0 350000 0  50000 350000 0  100000 350000 0  150000 350000 0  200000 350000 0  250000 350000 0  300000 350000 0  350000 350000 0  400000 350000 0  450000 350000 0  500000 350000 0  550000 350000 0  600000 350000 0  650000 350000 0  700000 350000 0  750000 350000 0  800000 350000 0  850000 350000 0  900000 350000 0  950000 350000 0  1000000 350000 0  0 400000 0  50000 400000 0  100000 400000 0  150000 400000 0  200000 400000 0  250000 400000 0  300000 400000 0  350000 400000 0  400000 400000 0  450000 400000 0  500000 400000 0  550000 400000 0  600000 400000 0  650000 400000 0  700000 400000 0  750000 400000 0  800000 400000 0  850000 400000 0  900000 400000 0  950000 400000 0  1000000 400000 0  0 450000 0  50000 450000 0  100000 450000 0  150000 450000 0  200000 450000 0  250000 450000 0  300000 450000 0  350000 450000 0  400000 450000 0  450000 450000 0  500000 450000 0  550000 450000 0  600000 450000 0  650000 450000 0  700000 450000 0  750000 450000 0  800000 450000 0  850000 450000 0  900000 450000 0  950000 450000 0  1000000 450000 0  0 500000 0  50000 500000 0  100000 500000 0  150000 500000 0  200000 500000 0  250000 500000 0  300000 500000 0  350000 500000 0  400000 500000 0  450000 500000 0  500000 500000 0  550000 500000 0  600000 500000 0  650000 500000 0  700000 500000 0  750000 500000 0  800000 500000 0  850000 500000 0  900000 500000 0  950000 500000 0  1000000 500000 0  0 550000 0  50000 550000 0  100000 550000 0  150000 550000 0  200000 550000 0  250000 550000 0  300000 550000 0  350000 550000 0  400000 550000 0  450000 550000 0  500000 550000 0  550000 550000 0  600000 550000 0  650000 550000 0  700000 550000 0  750000 550000 0  800000 550000 0  850000 550000 0  900000 550000 0  950000 550000 0  1000000 550000 0  0 600000 0  50000 600000 0  100000 600000 0  150000 600000 0  200000 600000 0  250000 600000 0  300000 600000 0  350000 600000 0  400000 600000 0  450000 600000 0  500000 600000 0  550000 600000 0  600000 600000 0  650000 600000 0  700000 600000 0  750000 600000 0  800000 600000 0  850000 600000 0  900000 600000 0  950000 600000 0  1000000 600000 0  0 650000 0  50000 650000 0  100000 650000 0  150000 650000 0  200000 650000 0  250000 650000 0  300000 650000 0  350000 650000 0  400000 650000 0  450000 650000 0  500000 650000 0  550000 650000 0  600000 650000 0  650000 650000 0  700000 650000 0  750000 650000 0  800000 650000 0  850000 650000 0  900000 650000 0  950000 650000 0  1000000 650000 0  0 700000 0  50000 700000 0  100000 700000 0  150000 700000 0  200000 700000 0  250000 700000 0  300000 700000 0  350000 700000 0  400000 700000 0  450000 700000 0  500000 700000 0  550000 700000 0  600000 700000 0  650000 700000 0  700000 700000 0  750000 700000 0  800000 700000 0  850000 700000 0  900000 700000 0  950000 700000 0  1000000 700000 0  0 750000 0  50000 750000 0  100000 750000 0  150000 750000 0  200000 750000 0  250000 750000 0  300000 750000 0  350000 750000 0  400000 750000 0  450000 750000 0  500000 750000 0  550000 750000 0  600000 750000 0  650000 750000 0  700000 750000 0  750000 750000 0  800000 750000 0  850000 750000 0  900000 750000 0  950000 750000 0  1000000 750000 0  0 800000 0  50000 800000 0  100000 800000 0  150000 800000 0  200000 800000 0  250000 800000 0  300000 800000 0  350000 800000 0  400000 800000 0  450000 800000 0  500000 800000 0  550000 800000 0  600000 800000 0  650000 800000 0  700000 800000 0  750000 800000 0  800000 800000 0  850000 800000 0  900000 800000 0  950000 800000 0  1000000 800000 0  0 850000 0  50000 850000 0  100000 850000 0  150000 850000 0  200000 850000 0  250000 850000 0  300000 850000 0  350000 850000 0  400000 850000 0  450000 850000 0  500000 850000 0  550000 850000 0  600000 850000 0  650000 850000 0  700000 850000 0  750000 850000 0  800000 850000 0  850000 850000 0  900000 850000 0  950000 850000 0  1000000 850000 0  0 900000 0  50000 900000 0  100000 900000 0  150000 900000 0  200000 900000 0  250000 900000 0  300000 900000 0  350000 900000 0  400000 900000 0  450000 900000 0  500000 900000 0  550000 900000 0  600000 900000 0  650000 900000 0  700000 900000 0  750000 900000 0  800000 900000 0  850000 900000 0  900000 900000 0  950000 900000 0  1000000 900000 0  0 950000 0  50000 950000 0  100000 950000 0  150000 950000 0  200000 950000 0  250000 950000 0  300000 950000 0  350000 950000 0  400000 950000 0  450000 950000 0  500000 950000 0  550000 950000 0  600000 950000 0  650000 950000 0  700000 950000 0  750000 950000 0  800000 950000 0  850000 950000 0  900000 950000 0  950000 950000 0  1000000 950000 0  0 1000000 0  50000 1000000 0  100000 1000000 0  150000 1000000 0  200000 1000000 0  250000 1000000 0  300000 1000000 0  350000 1000000 0  400000 1000000 0  450000 1000000 0  500000 1000000 0  550000 1000000 0  600000 1000000 0  650000 1000000 0  700000 1000000 0  750000 1000000 0  800000 1000000 0  850000 1000000 0  900000 1000000 0  950000 1000000 0  1000000 1000000 0  0 1050000 0  50000 1050000 0  100000 1050000 0  150000 1050000 0  200000 1050000 0  250000 1050000 0  300000 1050000 0  350000 1050000 0  400000 1050000 0  450000 1050000 0  500000 1050000 0  550000 1050000 0  600000 1050000 0  650000 1050000 0  700000 1050000 0  750000 1050000 0  800000 1050000 0  850000 1050000 0  900000 1050000 0  950000 1050000 0  1000000 1050000 0  0 1100000 0  50000 1100000 0  100000 1100000 0  150000 1100000 0  200000 1100000 0  250000 1100000 0  300000 1100000 0  350000 1100000 0  400000 1100000 0  450000 1100000 0  500000 1100000 0  550000 1100000 0  600000 1100000 0  650000 1100000 0  700000 1100000 0  750000 1100000 0  800000 1100000 0  850000 1100000 0  900000 1100000 0  950000 1100000 0  1000000 1100000 0  0 1150000 0  50000 1150000 0  100000 1150000 0  150000 1150000 0  200000 1150000 0  250000 1150000 0  300000 1150000 0  350000 1150000 0  400000 1150000 0  450000 1150000 0  500000 1150000 0  550000 1150000 0  600000 1150000 0  650000 1150000 0  700000 1150000 0  750000 1150000 0  800000 1150000 0  850000 1150000 0  900000 1150000 0  950000 1150000 0  1000000 1150000 0  0 1200000 0  50000 1200000 0  100000 1200000 0  150000 1200000 0  200000 1200000 0  250000 1200000 0  300000 1200000 0  350000 1200000 0  400000 1200000 0  450000 1200000 0  500000 1200000 0  550000 1200000 0  600000 1200000 0  650000 1200000 0  700000 1200000 0  750000 1200000 0  800000 1200000 0  850000 1200000 0  900000 1200000 0  950000 1200000 0  1000000 1200000 0  0 1250000 0  50000 1250000 0  100000 1250000 0  150000 1250000 0  200000 1250000 0  250000 1250000 0  300000 1250000 0  350000 1250000 0  400000 1250000 0  450000 1250000 0  500000 1250000 0  550000 1250000 0  600000 1250000 0  650000 1250000 0  700000 1250000 0  750000 1250000 0  800000 1250000 0  850000 1250000 0  900000 1250000 0  950000 1250000 0  1000000 1250000 0  0 1300000 0  50000 1300000 0  100000 1300000 0  150000 1300000 0  200000 1300000 0  250000 1300000 0  300000 1300000 0  350000 1300000 0  400000 1300000 0  450000 1300000 0  500000 1300000 0  550000 1300000 0  600000 1300000 0  650000 1300000 0  700000 1300000 0  750000 1300000 0  800000 1300000 0  850000 1300000 0  900000 1300000 0  950000 1300000 0  1000000 1300000 0  0 1350000 0  50000 1350000 0  100000 1350000 0  150000 1350000 0  200000 1350000 0  250000 1350000 0  300000 1350000 0  350000 1350000 0  400000 1350000 0  450000 1350000 0  500000 1350000 0  550000 1350000 0  600000 1350000 0  650000 1350000 0  700000 135
[...]
<PointData  Vectors="f_3007"> 
<DataArray  type="Float64"  Name="f_3007"  NumberOfComponents="3" format="ascii">-1.5247797920462981e-08 -8.4460821707547876e-09 0.0000000000000000e+00  6.3977991766223793e-08 -5.2743891739913055e-09 0.0000000000000000e+00  6.7285044807290979e-08 -1.4422232167948150e-09 0.0000000000000000e+00  7.1042702598660971e-08 -2.1318584033188494e-10 0.0000000000000000e+00  7.3865425231064116e-08 1.8290171767774949e-10 0.0000000000000000e+00  7.5707443037982529e-08 2.9010228578453362e-10 0.0000000000000000e+00  7.6869778702679040e-08 2.7844499080921618e-10 0.0000000000000000e+00  7.7585029839310722e-08 2.1731964792448421e-10 0.0000000000000000e+00  7.7998656105856029e-08 1.3691167063756033e-10 0.0000000000000000e+00  7.8193211486662716e-08 4.9730424865864985e-11 0.0000000000000000e+00  7.8206986186625415e-08 -3.9610510270987668e-11 0.0000000000000000e+00  7.8043366621249311e-08 -1.2921900217383475e-10 0.0000000000000000e+00  7.7672039076518632e-08 -2.1621718761580925e-10 0.0000000000000000e+00  7.7023008382285375e-08 -2.9211927484211293e-10 0.0000000000000000e+00  7.5975666913744347e-08 -3.3365735711289786e-10 0.0000000000000000e+00  7.4355444898409654e-08 -2.8016292604566687e-10 0.0000000000000000e+00  7.1992665395578988e-08 2.7015314748527023e-11 0.0000000000000000e+00  6.9018854630138796e-08 1.0012639178905530e-09 0.0000000000000000e+00  6.6506367805212821e-08 3.6267114416289804e-09 0.0000000000000000e+00  6.5166005358316186e-08 8.5200259753082744e-09 0.0000000000000000e+00  -1.3288651898232536e-08 7.3030884893928564e-09 0.0000000000000000e+00  -1.0820786165480267e-08 -1.1618629409350713e-08 0.0000000000000000e+00  7.0770448710567267e-09 -1.7635404665906729e-08 0.0000000000000000e+00  2.0862202509641222e-08 -1.2428311921908627e-08 0.0000000000000000e+00  3.1719499294901692e-08 -8.3765351528912636e-09 0.0000000000000000e+00  3.9760041519494045e-08 -5.6653963430929579e-09 0.0000000000000000e+00  4.5595380868374863e-08 -3.8394648499057674e-09 0.0000000000000000e+00  4.9732260673498146e-08 -2.5845517102836780e-09 0.0000000000000000e+00  5.2578922455170008e-08 -1.6939904262472864e-09 0.0000000000000000e+00  5.4426952553951308e-08 -1.0302777147957862e-09 0.0000000000000000e+00  5.5465847807890982e-08 -4.9835100360012117e-10 0.0000000000000000e+00  5.5801662132113188e-08 -2.7423272701847262e-11 0.0000000000000000e+00  5.5469523220088432e-08 4.4248514239977276e-10 0.0000000000000000e+00  5.4438416215734019e-08 9.7209980336231706e-10 0.0000000000000000e+00  5.2608471356383215e-08 1.6354173685851872e-09 0.0000000000000000e+00  4.9801933355396099e-08 2.5371423205055941e-09 0.0000000000000000e+00  4.5751567937871139e-08 3.8416556837265334e-09 0.0000000000000000e+00  4.0096019898334054e-08 5.8239925530494450e-09 0.0000000000000000e+00  3.2387474622505030e-08 8.9412142254003898e-09 0.0000000000000000e+00  2.2003070410571422e-08 1.3754659676555149e-08 0.0000000000000000e+00  7.5604291498244870e-09 1.9522377240792242e-08 0.0000000000000000e+00  -1.2959858475326385e-08 9.9391266290921402e-09 0.0000000000000000e+00  -5.0453904905521708e-09 -1.1450547419006250e-08 0.0000000000000000e+00  -2.9250432339166313e-09 -2.5833860206957132e-08 0.0000000000000000e+00  1.8587184516607546e-09 -2.2523149433219448e-08 0.0000000000000000e+00  9.3129162905616146e-09 -1.7238914594853103e-08 0.0000000000000000e+00  1.6900989422290165e-08 -1.2664851444166922e-08 0.0000000000000000e+00  2.3257659639634713e-08 -9.1173842933147792e-09 0.0000000000000000e+00  2.8180407045560124e-08 -6.4198224071592972e-09 0.0000000000000000e+00  3.1782365521431577e-08 -4.3424694337934283e-09 0.0000000000000000e+00  3.4222281083829971e-08 -2.6849173853962589e-09 0.0000000000000000e+00  3.5632252728902442e-08 -1.2842291138345357e-09 0.0000000000000000e+00  3.6096244715282259e-08 -4.7351859548718250e-12 0.0000000000000000e+00  3.5644322826558667e-08 1.2758231951925783e-09 0.0000000000000000e+00  3.4252238855625419e-08 2.6807211566894813e-09 0.0000000000000000e+00  3.1844229018559081e-08 4.3494547026394258e-09 0.0000000000000000e+00  2.8302468511513973e-08 6.4541696361969833e-09 0.0000000000000000e+00  2.3494664210530848e-08 9.2139625466928933e-09 0.0000000000000000e+00  1.7347210440786702e-08 1.2885155570159953e-08 0.0000000000000000e+00  1.0023484832807474e-08 1.7627543275472863e-08 0.0000000000000000e+00  2.3204603604740237e-09 2.2855152802966476e-08 0.0000000000000000e+00  -3.7072281762112171e-09 2.4897137060958154e-08 0.0000000000000000e+00  -7.3890154092113749e-09 1.0477091141877378e-08 0.0000000000000000e+00  -2.1366061721328354e-09 -9.1092212832665582e-09 0.0000000000000000e+00  -4.0773626774371248e-09 -2.5285653659287728e-08 0.0000000000000000e+00  -4.2885723302535599e-09 -2.7023957666462107e-08 0.0000000000000000e+00  -1.3989239495983740e-09 -2.3307318032231655e-08 0.0000000000000000e+00  3.1833738033925038e-09 -1.8564518399791028e-08 0.0000000000000000e+00  7.9591575244294403e-09 -1.4149477448331960e-08 0.0000000000000000e+00  1.2147574961227710e-08 -1.0381633616081462e-08 0.0000000000000000e+00  1.5456630013648561e-08 -7.2288579126320463e-09 0.0000000000000000e+00  1.7811525886099882e-08 -4.5526898135429383e-09 0.0000000000000000e+00  1.9214260078291109e-08 -2.1914399641148392e-09 0.0000000000000000e+00  1.9683444378843070e-08 1.5323515035466560e-11 0.0000000000000000e+00  1.9229176345583341e-08 2.2240912807051841e-09 0.0000000000000000e+00  1.7846563403808833e-08 4.5920175112563231e-09 0.0000000000000000e+00  1.5524069243090088e-08 7.2815788334509433e-09 0.0000000000000000e+00  1.2270704264314980e-08 1.0457404430989126e-08 0.0000000000000000e+00  8.1745364996704462e-09 1.4257303602018404e-08 0.0000000000000000e+00  3.5149332386917923e-09 1.8688981358989504e-08 0.0000000000000000e+00  -1.0483609374997146e-09 2.3327887128529741e-08 0.0000000000000000e+00  -4.2641647193755111e-09 2.6562358364844283e-08 0.0000000000000000e+00  -4.6072345706515010e-09 2.4274864211327087e-08 0.0000000000000000e+00  -3.2855345026603668e-09 9.7579925078127603e-09 0.0000000000000000e+00  -8.6222404674511077e-10 -6.8433368350587031e-09 0.0000000000000000e+00  -3.6480412641560987e-09 -2.2378576755365177e-08 0.0000000000000000e+00  -5.8746768346933678e-09 -2.7076546531355116e-08 0.0000000000000000e+00  -6.0000370266513013e-09 -2.5811834960755210e-08 0.0000000000000000e+00  -4.3057556704055850e-09 -2.2100178375877888e-08 0.0000000000000000e+00  -1.7099844454548519e-09 -1.7759829978703967e-08 0.0000000000000000e+00  1.0171775601263139e-09 -1.3545852793210047e-08 0.0000000000000000e+00  3.4110995623096670e-09 -9.6979506133120965e-09 0.0000000000000000e+00  5.2282929176312262e-09 -6.2229644154242664e-09 0.0000000000000000e+00  6.3530183412842526e-09 -3.0275247153654198e-09 0.0000000000000000e+00  6.7369178052600494e-09 2.2056198025247422e-11 0.0000000000000000e+00  6.3681537841665940e-09 3.0732102412416260e-09 0.0000000000000000e+00  5.2622998100747131e-09 6.2733889420018245e-09 0.0000000000000000e+00  3.4721781070870536e-09 9.7558168568498613e-09 0.0000000000000000e+00  1.1182126103497264e-09 1.3610549729441860e-08 0.0000000000000000e+00  -1.5571917590198289e-09 1.7817562127494864e-08 0.0000000000000000e+00  -4.1140310380085137e-09 2.2099255489749236e-08 0.0000000000000000e+00  -5.8541252447022358e-09 2.5627702209856698e-08 0.0000000000000000e+00  -5.9168142661779245e-09 2.6561515625888309e-08 0.0000000000000000e+00  -3.9056977124100517e-09 2.1723683765063605e-08 0.0000000000000000e+00  -1.4297904875405526e-09 8.0281142268215373e-09 0.0000000000000000e+00  -2.8141964830435159e-10 -5.0795421650180880e-09 0.0000000000000000e+00  -3.0176405433232025e-09 -1.9094102726561613e-08 0.0000000000000000e+00  -5.9047874964997388e-09 -2.5050611129504339e-08 0.0000000000000000e+00  -7.6865038233834945e-09 -2.5671328449675006e-08 0.0000000000000000e+00  -8.0633198016545798e-09 -2.3304396699930971e-08 0.0000000000000000e+00  -7.4017550083207392e-09 -1.9597716063007873e-08 0.0000000000000000e+00  -6.2188702108562320e-09 -1.5470557475433384e-08 0.0000000000000000e+00  -4.9427686370603697e-09 -1.1358315881654733e-08 0.0000000000000000e+00  -3.8630663384055914e-09 -7.4157050683915382e-09 0.0000000000000000e+00  -3.1535028721166457e-09 -3.6464405749906291e-09 0.0000000000000000e+00  -2.9035229135065959e-09 2.1103131390705429e-11 0.0000000000000000e+00  -3.1397855227203818e-09 3.6892478738913439e-09 0.0000000000000000e+00  -3.8334813603678420e-09 7.4598241643376221e-09 0.0000000000000000e+00  -4.8931842576328550e-09 1.1402352935912257e-08 0.0000000000000000e+00  -6.1445926507902021e-09 1.5507178745797732e-08 0.0000000000000000e+00  -7.3030314591865730e-09 1.9605683811020010e-08 0.0000000000000000e+00  -7.9582187658942443e-09 2.3237469415130707e-08 0.0000000000000000e+00  -7.6218440338365941e-09 2.5459767752337701e-08 0.0000000000000000e+00  -5.9342365859489052e-09 2.4670644565120592e-08 0.0000000000000000e+00  -3.1352993957809102e-09 1.8712370518590163e-08 0.0000000000000000e+00  -5.6965758649092974e-10 6.1981845403819206e-09 0.0000000000000000e+00  -4.1442333484443276e-12 -3.7764712372863058e-09 0.0000000000000000e+00  -2.4640676482018275e-09 -1.5998564176274481e-08 0.0000000000000000e+00  -5.4417842330261189e-09 -2.2212489251944386e-08 0.0000000000000000e+00  -8.0238362744847078e-09 -2.3967637164716624e-08 0.0000000000000000e+00  -9.6969809870522540e-09 -2.2757222616510639e-08 0.0000000000000000e+00  -1.0466579804882859e-08 -1.9856756984031651e-08 0.0000000000000000e+00  -1.0585622688838439e-08 -1.6137067849078710e-08 0.0000000000000000e+00  -1.0351782320469654e-08 -1.2109103996723855e-08 0.0000000000000000e+00  -1.0013139047867896e-08 -8.0275822098374572e-09 0.0000000000000000e+00  -9.7422229800876190e-09 -3.9851735393811083e-09 0.0000000000000000e+00  -9.6375661127890418e-09 1.7189317892155321e-11 0.0000000000000000e+00  -9.7306342824029555e-09 4.0192146681943745e-09 0.0000000000000000e+00  -9.9890279950070468e-09 8.0599251012827569e-09 0.0000000000000000e+00  -1.0313731669494965e-08 1.2135927901598907e-08 0.0000000000000000e+00  -1.0533198669158802e-08 1.6149203806716796e-08 0.0000000000000000e+00  -1.0403816572882948e-08 1.9835739215208621e-08 0.0000000000000000e+00  -9.6375271856068951e-09 2.2673617207830865e-08 0.0000000000000000e+00  -7.9917231560056058e-09 2.3792498185946405e-08 0.0000000000000000e+00  -5.4565319300406192e-09 2.1958443774133840e-08 0.0000000000000000e+00  -2.5152885546524780e-09 1.5779705905486391e-08 0.0000000000000000e+00  -1.5312758614421272e-10 4.6830334611316743e-09 0.0000000000000000e+00  1.3015353081109556e-10 -2.8177747960237397e-09 0.0000000000000000e+00  -2.0223420167214252e-09 -1.3233860808386023e-08 0.0000000000000000e+00  -4.8616367040387672e-09 -1.9149031137795153e-08 0.0000000000000000e+00  -7.7544537007683616e-09 -2.1451924160992169e-08 0.0000000000000000e+00  -1.0153143575051779e-08 -2.1072006068669607e-08 0.0000000000000000e+00  -1.1866587031876156e-08 -1.8929570554607759e-08 0.0000000000000000e+00  -1.2946783110354225e-08 -1.5753054754588178e-08 0.0000000000000000e+00  -1.3549586618035913e-08 -1.2039128396129027e-08 0.0000000000000000e+00  -1.3842840177062224e-08 -8.0857764880959018e-09 0.0000000000000000e+00  -1.3961059126273475e-08 -4.0471118410271830e-09 0.0000000000000000e+00  -1.3987980622813985e-08 1.2563554610123356e-11 0.0000000000000000e+00  -1.3951674852745834e-08 4.0712572652932161e-09 0.0000000000000000e+00  -1.3823881623043797e-08 8.1063633620639734e-09 0.0000000000000000e+00  -1.3521095218922923e-08 1.2051601861053321e-08 0.0000000000000000e+00  -1.2910088585151878e-08 1.5749293387705560e-08 0.0000000000000000e+00  -1.1826165789622183e-08 1.8896778063892250e-08 0.0000000000000000e+00  -1.0118337723244275e-08 2.0994576046446626e-08 0.0000000000000000e+00  -7.7375835543774017e-09 2.1321126533664171e-08 0.0000000000000000e+00  -4.8681365065858191e-09 1.8983362186645379e-08 0.0000000000000000e+00  -2.0421251938885774e-09 1.3107582494705142e-08 0.0000000000000000e+00  5.3834848321370451e-11 3.5206776721121247e-09 0.0000000000000000e+00  1.9322126664449790e-10 -2.1039525398164591e-09 0.0000000000000000e+00  -1.6769281536827937e-09 -1.0808566041919775e-08 0.0000000000000000e+00  -4.2941928218435922e-09 -1.6131287687647108e-08 0.0000000000000000e+00  -7.2305496175729193e-09 -1.8581312620644555e-08 0.0000000000000000e+00  -9.9757987267816695e-09 -1.8727119921012488e-08 0.0000000000000000e+00  -1.2248084563232328e-08 -1.7208807824697678e-08 0.0000000000000000e+00  -1.3967776472997273e-08 -1.4595372898472559e-08 0.0000000000000000e+00  -1.5172778531504716e-08 -1.1322241302085501e-08 0.0000000000000000e+00  -1.5946298309809872e-08 -7.6868532590323044e-09 0.0000000000000000e+00  -1.6370788739462387e-08 -3.8739413332910525e-09 0.0000000000000000e+00  -1.6503137718911041e-08 8.1657998280296755e-12 0.0000000000000000e+00  -1.6363394419587606e-08 3.8889892519655482e-09 0.0000000000000000e+00  -1.5931711002444177e-08 7.6976279101623450e-09 0.0000000000000000e+00  -1.5151713404232951e-08 1.1324506788061925e-08 0.0000000000000000e+00  -1.3942134975732380e-08 1.4583022659014324e-08 0.0000000000000000e+00  -1.2221859793567576e-08 1.7174069524226568e-08 0.0000000000000000e+00  -9.9553278740711295e-09 1.8662932795609879e-08 0.0000000000000000e+00  -7.2220172827798680e-09 1.8487371035238368e-08 0.0000000000000000e+00  -4.2967966573858560e-09 1.6023795892215395e-08 0.0000000000000000e+00  -1.6816465342591068e-09 1.0735228746307478e-08 0.0000000000000000e+00  1.5623750008283544e-10 2.6450744890260744e-09 0.0000000000000000e+00  2.1974770449404407e-10 -1.5631298507537796e-09 0.0000000000000000e+00  -1.4067121576648481e-09 -8.6905909159263802e-09 0.0000000000000000e+00  -3.7827882437216878e-09 -1.3279914986000516e-08 0.0000000000000000e+00  -6.6247398874894247e-09 -1.5620561188055416e-08 0.0000000000000000e+00  -9.4813567204824943e-09 -1.6053057448589158e-08 0.0000000000000000e+00  -1.2039300581508009e-08 -1.5012098519811286e-08 0.0000000000000000e+00  -1.4141140300258359e-08 -1.2923820048625636e-08 0.0000000000000000e+00  -1.5738939261606278e-08 -1.0146070970839532e-08 0.0000000000000000e+00  -1.6843629794056826e-08 -6.9488954140660157e-09 0.0000000000000000e+00  -1.7486665405660283e-08 -3.5218124331210014e-09 0.0000000000000000e+00  -1.7695572849089101e-08 4.3800807696925387e-12 0.0000000000000000e+00  -1.7480969680307303e-08 3.5292591023723681e-09 0.0000000000000000e+00  -1.6832616301510790e-08 6.9521744290252012e-09 0.0000000000000000e+00  -1.5723574747122306e-08 1.0141722336610804e-08 0.0000000000000000e+00  -1.4123378226349378e-08 1.2907694053549056e-08 0.0000000000000000e+00  -1.2022453079138613e-08 1.4979968005221467e-08 0.0000000000000000e+00  -9.4697116289617394e-09 1.6002487940502507e-08 0.0000000000000000e+00  -6.6210895494951566e-09 1.5554273601461482e-08 0.0000000000000000e+00  -3.7836189818417348e-09 1.3210274607393412e-08 0.0000000000000000e+00  -1.4042440519518798e-09 8.6481867079737273e-09 0.0000000000000000e+00  2.0435870677909368e-10 1.9828504986524250e-09 0.0000000000000000e+00  2.2763743075424862e-10 -1.1451811456233319e-09 0.0000000000000000e+00  -1.1950531420594798e-09 -6.8372900553564718e-09 0.0000000000000000e+00  -3.3414860006306299e-09 -1.0639139113843122e-08 0.0000000000000000e+00  -6.0273403466693177e-09 -1.2714220552167733e-08 0.0000000000000000e+00  -8.8605890821892302e-09 -1.3260847021063765e-08 0.0000000000000000e+00  -1.1526351368767476e-08 -1.2568324741897398e-08 0.0000000000000000e+00  -1.3825568812407305e-08 -1.0945958052005172e-08 0.0000000000000000e+00  -1.5653080734702231e-08 -8.6742502489370233e-09 0.0000000000000000e+00  -1.6964974775555256e-08 -5.9822614886261740e-09 0.0000000000000000e+00  -1.7750119013133866e-08 -3.0457116552533975e-09 0.0000000000000000e+00  -1.8009794268465677e-08 1.3316094261007776e-12 0.0000000000000000e+00  -1.7745842600880893e-08 3.0471965133925625e-09 0.0000000000000000e+00  -1.6956851872015271e-08 5.9801319750384994e-09 0.0000000000000000e+00  -1.5642103583612786e-08 8.6659073959100897e-09 0.0000000000000000e+00  -1.3813505402870729e-08 1.0928802279071584e-08 0.0000000000000000e+00  -1.1515822582354739e-08 1.2540375143352743e-08 0.0000000000000000e+00  -8.8544433143361171e-09 1.3221984712522582e-08 0.0000000000000000e+00  -6.0264802438206752e-09 1.2667887534353575e-08 0.0000000000000000e+00  -3.3414904420528680e-09 1.0594203298416878e-08 0.0000000000000000e+00  -1.1894597492242476e-09 6.8133900614032636e-09 0.0000000000000000e+00  2.2384297094759319e-10 1.4754942543107212e-09 0.0000000000000000e+00  2.2664725484957130e-10 -8.1466995313765656e-10 0.0000000000000000e+00  -1.0308215867518359e-09 -5.2043972384913343e-09 0.0000000000000000e+00  -2.9753547877069161e-09 -8.2115731596371188e-09 0.0000000000000000e+00  -5.4900119937777600e-09 -9.9308818973070111e-09 0.0000000000000000e+00  -8.2338365706882267e-09 -1.0473413564583230e-08 0.0000000000000000e+00  -1.0903426164222604e-08 -1.0027290063086368e-08 0.0000000000000000e+00  -1.3280235738161008e-08 -8.8100292960933519e-09 0.0000000000000000e+00  -1.5223578134628309e-08 -7.0319118594518659e-09 0.0000000000000000e+00  -1.6651221954991342e-08 -4.8757356942367583e-09 0.0000000000000000e+00  -1.7519948119630811e-08 -2.4913350962866736e-09 0.0000000000000000e+00  -1.7810257151883755e-08 -9.8969200855687621e-13 0.0000000000000000e+00  -1.7516847127730810e-08 2.4883818593900875e-09 0.0000000000000000e+00  -1.6645426632002071e-08 4.8698758639571939e-09 0.0000000000000000e+00  -1.5215977637671100e-08 7.0213119677107441e-09 0.0000000000000000e+00  -1.3272297282269500e-08 8.7932021463004683e-09 0.0000000000000000e+00  -1.0897124248765966e-08 1.0003594165147610e-08 0.0000000000000000e+00  -8.2310011072911171e-09 1.0443799274689706e-08 0.0000000000000000e+00  -5.4905671810909584e-09 9.8986184286844620e-09 0.0000000000000000e+00  -2.9749828617541324e-09 8.1828152190684919e-09 0.0000000000000000e+00  -1.0243999212123688e-09 5.1917681661712006e-09 0.0000000000000000e+00  2.2852176656788844e-10 1.0799376068342954e-09 0.0000000000000000e+00  2.2232355266569882e-10 -5.4550217006068370e-10 0.0000000000000000e+00  -9.0723287536504252e-10 -3.7479456988094860e-09 0.0000000000000000e+00  -2.6871805754023344e-09 -5.9754870068538683e-09 0.0000000000000000e+00  -5.0450293460279963e-09 -7.2901709991582976e-09 0.0000000000000000e+00  -7.6799642366521266e-09 -7.7509940591406501e-09 0.0000000000000000e+00  -1.0303664277308720e-08 -7.4758403321623462e-09 0.0000000000000000e+00  -1.2690431288470722e-08 -6.6108049044817409e-09 0.0000000000000000e+00  -1.4678993253184269e-08 -5.3046041551404169e-09 0.0000000000000000e+00  -1.6162161932498066e-08 -3.6928825566227576e-09 0.0000000000000000e+00  -1.7074446808341234e-08 -1.8923337046853307e-09 0.0000000000000000e+00  -1.7381354916572515e-08 -2.6582225289635593e-12 0.0000000000000000e+00  -1.7072315954130777e-08 1.8862501720167825e-09 0.0000000000000000e+00  -1.6158236555004552e-08 3.6845652198359461e-09 0.0000000000000000e+00  -1.4673984237782066e-08 5.2928213038480880e-09 0.0000000000000000e+00  -1.2685452398367990e-08 6.5948171058467608e-09 0.0000000000000000e+00  -1.0300110148565034e-08 7.4557689425643799e-09 0.0000000000000000e+00  -7.6789535501048234e-09 7.7282275812325354e-09 0.0000000000000000e+00  -5.0460902516621656e-09 7.2675494325131665e-09 0.0000000000000000e+00  -2.6866921058039064e-09 5.9572312818520909e-09 0.0000000000000000e+00  -9.0139662307724686e-10 3.7422099063704997e-09 0.0000000000000000e+00  2.2622846525722765e-10 7.6459705509182288e-10 0.0000000000000000e+00  2.1788241774397968e-10 -3.1731486493437400e-10 0.0000000000000000e+00  -8.2044930231795703e-10 -2.4242101714901882e-09 0.0000000000000000e+00  -2.4792590295200988e-09 -3.8940309701098078e-09 0.0000000000000000e+00  -4.7136532927085241e-09 -4.7797621131353881e-09 0.0000000000000000e+00  -7.2513551786636807e-09 -5.1103257412267830e-09 0.0000000000000000e+00  -9.8175688243619237e-09 -4.9539603250918992e-09 0.0000000000000000e+00  -1.2185371253553718e-08 -4.40