<?xml version="1.0"?>
<VTKFile type="UnstructuredGrid"  version="0.1"  >
<UnstructuredGrid>
<Piece  NumberOfPoints="651" NumberOfCells="1200">
<Points>
<DataArray  type="Float64"  NumberOfComponents="3"  format="ascii">0 0 0  50000 0 0  100000 0 0  150000 0 0  200000 0 0  250000 0 0  300000 0 0  350000 0 0  400000 0 0  450000 0 0  500000 0 0  550000 0 0  600000 0 0  650000 0 0  700000 0 0  750000 0 0  800000 0 0  850000 0 0  900000 0 0  950000 0 0  1000000 0 0  0 50000 0  50000 50000 0  100000 50000 0  150000 50000 0  200000 50000 0  250000 50000 0  300000 50000 0  350000 50000 0  400000 50000 0  450000 50000 0  500000 50000 0  550000 50000 0  600000 50000 0  650000 50000 0  700000 50000 0  750000 50000 0  800000 50000 0  850000 50000 0  900000 50000 0  950000 50000 0  1000000 50000 0  0 100000 0  50000 100000 0  100000 100000 0  150000 100000 0  200000 100000 0  250000 100000 0  300000 100000 0  350000 100000 0  400000 100000 0  450000 100000 0  500000 100000 0  550000 100000 0  600000 100000 0  650000 100000 0  700000 100000 0  750000 100000 0  800000 100000 0  850000 100000 0  900000 100000 0  950000 100000 0  1000000 100000 0  0 150000 0  50000 150000 0  100000 150000 0  150000 150000 0  200000 150000 0  250000 150000 0  300000 150000 0  350000 150000 0  400000 150000 0  450000 150000 0  500000 150000 0  550000 150000 0  600000 150000 0  650000 150000 0  700000 150000 0  750000 150000 0  800000 150000 0  850000 150000 0  900000 150000 0  950000 150000 0  1000000 150000 0  0 200000 0  50000 200000 0  100000 200000 0  150000 200000 0  200000 200000 0  250000 200000 0  300000 200000 0  350000 200000 0  400000 200000 0  450000 200000 0  500000 200000 0  550000 200000 0  600000 200000 0  650000 200000 0  700000 200000 0  750000 200000 0  800000 200000 0  850000 200000 0  900000 200000 0  950000 200000 0  1000000 200000 0  0 250000 0  50000 250000 0  100000 250000 0  150000 250000 0  200000 250000 0  250000 250000 0  300000 250000 0  350000 250000 0  400000 250000 0  450000 250000 0  500000 250000 0  550000 250000 0  600000 250000 0  650000 250000 0  700000 250000 0  750000 250000 0  800000 250000 0  850000 250000 0  900000 250000 0  950000 250000 0  1000000 250000 0  0 300000 0  50000 300000 0  100000 300000 0  150000 300000 0  200000 300000 0  250000 300000 0  300000 300000 0  350000 300000 0  400000 300000 0  450000 300000 0  500000 300000 0  550000 300000 0  600000 300000 0  650000 300000 0  700000 300000 0  750000 300000 0  800000 300000 0  850000 300000 0  900000 300000 0  950000 300000 0  1000000 300000 0  0 350000 0  50000 350000 0  100000 350000 0  150000 350000 0  200000 350000 0  250000 350000 0  300000 350000 0  350000 350000 0  400000 350000 0  450000 350000 0  500000 350000 0  550000 350000 0  600000 350000 0  650000 350000 0  700000 350000 0  750000 350000 0  800000 350000 0  850000 350000 0  900000 350000 0  950000 350000 0  1000000 350000 0  0 400000 0  50000 400000 0  100000 400000 0  150000 400000 0  200000 400000 0  250000 400000 0  300000 400000 0  350000 400000 0  400000 400000 0  450000 400000 0  500000 400000 0  550000 400000 0  600000 400000 0  650000 400000 0  700000 400000 0  750000 400000 0  800000 400000 0  850000 400000 0  900000 400000 0  950000 400000 0  1000000 400000 0  0 450000 0  50000 450000 0  100000 450000 0  150000 450000 0  200000 450000 0  250000 450000 0  300000 450000 0  350000 450000 0  400000 450000 0  450000 450000 0  500000 450000 0  550000 450000 0  600000 450000 0  650000 450000 0  700000 450000 0  750000 450000 0  800000 450000 0  850000 450000 0  900000 450000 0  950000 450000 0  1000000 450000 0  0 500000 0  50000 500000 0  100000 500000 0  150000 500000 0  200000 500000 0  250000 500000 0  300000 500000 0  350000 500000 0  400000 500000 0  450000 500000 0  500000 500000 0  550000 500000 0  600000 500000 0  650000 500000 0  700000 500000 0  750000 500000 0  800000 500000 0  850000 500000 0  900000 500000 0  950000 500000 0  1000000 500000 0  0 550000 0  50000 550000 0  100000 550000 0  150000 550000 0  200000 550000 0  250000 550000 0  300000 550000 0  350000 550000 0  400000 550000 0  450000 550000 0  500000 550000 0  550000 550000 0  600000 550000 0  650000 550000 0  700000 550000 0  750000 550000 0  800000 550000 0  850000 550000 0  900000 550000 0  950000 550000 0  1000000 550000 0  0 600000 0  50000 600000 0  100000 600000 0  150000 600000 0  200000 600000 0  250000 600000 0  300000 600000 0  350000 600000 0  400000 600000 0  450000 600000 0  500000 600000 0  550000 600000 0  600000 600000 0  650000 600000 0  700000 600000 0  750000 600000 0  800000 600000 0  850000 600000 0  900000 600000 0  950000 600000 0  1000000 600000 0  0 650000 0  50000 650000 0  100000 650000 0  150000 650000 0  200000 650000 0  250000 650000 0  300000 650000 0  350000 650000 0  400000 650000 0  450000 650000 0  500000 650000 0  550000 650000 0  600000 650000 0  650000 650000 0  700000 650000 0  750000 650000 0  800000 650000 0  850000 650000 0  900000 650000 0  950000 650000 0  1000000 650000 0  0 700000 0  50000 700000 0  100000 700000 0  150000 700000 0  200000 700000 0  250000 700000 0  300000 700000 0  350000 700000 0  400000 700000 0  450000 700000 0  500000 700000 0  550000 700000 0  600000 700000 0  650000 700000 0  700000 700000 0  750000 700000 0  800000 700000 0  850000 700000 0  900000 700000 0  950000 700000 0  1000000 700000 0  0 750000 0  50000 750000 0  100000 750000 0  150000 750000 0  200000 750000 0  250000 750000 0  300000 750000 0  350000 750000 0  400000 750000 0  450000 750000 0  500000 750000 0  550000 750000 0  600000 750000 0  650000 750000 0  700000 750000 0  750000 750000 0  800000 750000 0  850000 750000 0  900000 750000 0  950000 750000 0  1000000 750000 0  0 800000 0  50000 800000 0  100000 800000 0  150000 800000 0  200000 800000 0  250000 800000 0  300000 800000 0  350000 800000 0  400000 800000 0  450000 800000 0  500000 800000 0  550000 800000 0  600000 800000 0  650000 800000 0  700000 800000 0  750000 800000 0  800000 800000 0  850000 800000 0  900000 800000 0  950000 800000 0  1000000 800000 0  0 850000 0  50000 850000 0  100000 850000 0  150000 850000 0  200000 850000 0  250000 850000 0  300000 850000 0  350000 850000 0  400000 850000 0  450000 850000 0  500000 850000 0  550000 850000 0  600000 850000 0  650000 850000 0  700000 850000 0  750000 850000 0  800000 850000 0  850000 850000 0  900000 850000 0  950000 850000 0  1000000 850000 0  0 900000 0  50000 900000 0  100000 900000 0  150000 900000 0  200000 900000 0  250000 900000 0  300000 900000 0  350000 900000 0  400000 900000 0  450000 900000 0  500000 900000 0  550000 900000 0  600000 900000 0  650000 900000 0  700000 900000 0  750000 900000 0  800000 900000 0  850000 900000 0  900000 900000 0  950000 900000 0  1000000 900000 0  0 950000 0  50000 950000 0  100000 950000 0  150000 950000 0  200000 950000 0  250000 950000 0  300000 950000 0  350000 950000 0  400000 950000 0  450000 950000 0  500000 950000 0  550000 950000 0  600000 950000 0  650000 950000 0  700000 950000 0  750000 950000 0  800000 950000 0  850000 950000 0  900000 950000 0  950000 950000 0  1000000 950000 0  0 1000000 0  50000 1000000 0  100000 1000000 0  150000 1000000 0  200000 1000000 0  250000 1000000 0  300000 1000000 0  350000 1000000 0  400000 1000000 0  450000 1000000 0  500000 1000000 0  550000 1000000 0  600000 1000000 0  650000 1000000 0  700000 1000000 0  750000 1000000 0  800000 1000000 0  850000 1000000 0  900000 1000000 0  950000 1000000 0  1000000 1000000 0  0 1050000 0  50000 1050000 0  100000 1050000 0  150000 1050000 0  200000 1050000 0  250000 1050000 0  300000 1050000 0  350000 1050000 0  400000 1050000 0  450000 1050000 0  500000 1050000 0  550000 1050000 0  600000 1050000 0  650000 1050000 0  700000 1050000 0  750000 1050000 0  800000 1050000 0  850000 1050000 0  900000 1050000 0  950000 1050000 0  1000000 1050000 0  0 1100000 0  50000 1100000 0  100000 1100000 0  150000 1100000 0  200000 1100000 0  250000 1100000 0  300000 1100000 0  350000 1100000 0  400000 1100000 0  450000 1100000 0  500000 1100000 0  550000 1100000 0  600000 1100000 0  650000 1100000 0  700000 1100000 0  750000 1100000 0  800000 1100000 0  850000 1100000 0  900000 1100000 0  950000 1100000 0  1000000 1100000 0  0 1150000 0  50000 1150000 0  100000 1150000 0  150000 1150000 0  200000 1150000 0  250000 1150000 0  300000 1150000 0  350000 1150000 0  400000 1150000 0  450000 1150000 0  500000 1150000 0  550000 1150000 0  600000 1150000 0  650000 1150000 0  700000 1150000 0  750000 1150000 0  800000 1150000 0  850000 1150000 0  900000 1150000 0  950000 1150000 0  1000000 1150000 0  0 1200000 0  50000 1200000 0  100000 1200000 0  150000 1200000 0  200000 1200000 0  250000 1200000 0  300000 1200000 0  350000 1200000 0  400000 1200000 0  450000 1200000 0  500000 1200000 0  550000 1200000 0  600000 1200000 0  650000 1200000 0  700000 1200000 0  750000 1200000 0  800000 1200000 0  850000 1200000 0  900000 1200000 0  950000 1200000 0  1000000 1200000 0  0 1250000 0  50000 1250000 0  100000 1250000 0  150000 1250000 0  200000 1250000 0  250000 1250000 0  300000 1250000 0  350000 1250000 0  400000 1250000 0  450000 1250000 0  500000 1250000 0  550000 1250000 0  600000 1250000 0  650000 1250000 0  700000 1250000 0  750000 1250000 0  800000 1250000 0  850000 1250000 0  900000 1250000 0  950000 1250000 0  1000000 1250000 0  0 1300000 0  50000 1300000 0  100000 1300000 0  150000 1300000 0  200000 1300000 0  250000 1300000 0  300000 1300000 0  350000 1300000 0  400000 1300000 0  450000 1300000 0  500000 1300000 0  550000 1300000 0  600000 1300000 0  650000 1300000 0  700000 1300000 0  750000 1300000 0  800000 1300000 0  850000 1300000 0  900000 1300000 0  950000 1300000 0  1000000 1300000 0  0 1350000 0  50000 1350000 0  100000 1350000 0  150000 1350000 0  200000 1350000 0  250000 1350000 0  300000 1350000 0  350000 1350000 0  400000 1350000 0  450000 1350000 0  500000 1350000 0  550000 1350000 0  600000 1350000 0  650000 1350000 0  700000 135
[...]
<PointData  Vectors="f_3007"> 
<DataArray  type="Float64"  Name="f_3007"  NumberOfComponents="3" format="ascii">-1.5218497305000964e-08 -8.4209909152727106e-09 0.0000000000000000e+00  6.4019775559697777e-08 -5.2569853511961046e-09 0.0000000000000000e+00  6.7335773090491242e-08 -1.4298805434440216e-09 0.0000000000000000e+00  7.1090530439117590e-08 -2.0255660995804082e-10 0.0000000000000000e+00  7.3908681572282019e-08 1.9267975196678967e-10 0.0000000000000000e+00  7.5747871337959799e-08 2.9872300441507751e-10 0.0000000000000000e+00  7.6909225361309527e-08 2.8551881405326135e-10 0.0000000000000000e+00  7.7624691221237964e-08 2.2260380418314413e-10 0.0000000000000000e+00  7.8038997961653410e-08 1.4025254675172542e-10 0.0000000000000000e+00  7.8234103094206118e-08 5.1039084606526288e-11 0.0000000000000000e+00  7.8247953823602972e-08 -4.0336396908296315e-11 0.0000000000000000e+00  7.8083901350007882e-08 -1.3187564048126284e-10 0.0000000000000000e+00  7.7711909496945325e-08 -2.2060592446497681e-10 0.0000000000000000e+00  7.7062521159806691e-08 -2.9800306112735478e-10 0.0000000000000000e+00  7.6015755281824467e-08 -3.4087346553026973e-10 0.0000000000000000e+00  7.4397336891429083e-08 -2.8879091933121683e-10 0.0000000000000000e+00  7.2036756582746452e-08 1.6481608644236164e-11 0.0000000000000000e+00  6.9062656499253697e-08 9.8792419960355315e-10 0.0000000000000000e+00  6.6543117278478112e-08 3.6098558891112410e-09 0.0000000000000000e+00  6.5189104153735867e-08 8.5011199662797554e-09 0.0000000000000000e+00  -1.3274148219348239e-08 7.2905328537632918e-09 0.0000000000000000e+00  -1.0799993698418378e-08 -1.1576976738178257e-08 0.0000000000000000e+00  7.0752427573439834e-09 -1.7650563088946417e-08 0.0000000000000000e+00  2.0934716453143946e-08 -1.2497995403555971e-08 0.0000000000000000e+00  3.1826579074066909e-08 -8.4334993759062327e-09 0.0000000000000000e+00  3.9901978682357952e-08 -5.7120842858306357e-09 0.0000000000000000e+00  4.5779206707712282e-08 -3.8792343986284235e-09 0.0000000000000000e+00  4.9956304687379424e-08 -2.6181005398793067e-09 0.0000000000000000e+00  5.2837265218661291e-08 -1.7211430218074619e-09 0.0000000000000000e+00  5.4711596791586274e-08 -1.0503310155039192e-09 0.0000000000000000e+00  5.5766963927053292e-08 -5.1042865149842822e-10 0.0000000000000000e+00  5.6107970426383322e-08 -3.0822635754774598e-11 0.0000000000000000e+00  5.5769053700905942e-08 4.4811809028772870e-10 0.0000000000000000e+00  5.4719316050194315e-08 9.8678397444506211e-10 0.0000000000000000e+00  5.2859497982152126e-08 1.6590375688093463e-09 0.0000000000000000e+00  5.0012210913090849e-08 2.5699226014122469e-09 0.0000000000000000e+00  4.5909211611510422e-08 3.8851762182022860e-09 0.0000000000000000e+00  4.0185944624454389e-08 5.8833223595691618e-09 0.0000000000000000e+00  3.2390490519700835e-08 9.0287795969769611e-09 0.0000000000000000e+00  2.1898450404399860e-08 1.3894687196943698e-08 0.0000000000000000e+00  7.3800247021375217e-09 1.9708317252417723e-08 0.0000000000000000e+00  -1.2941164951911697e-08 9.9156717778501568e-09 0.0000000000000000e+00  -5.0332917650526290e-09 -1.1392667099835080e-08 0.0000000000000000e+00  -2.9631315445010108e-09 -2.5825668180420578e-08 0.0000000000000000e+00  1.9012728822884270e-09 -2.2592371672421410e-08 0.0000000000000000e+00  9.4127966281397722e-09 -1.7329912863632218e-08 0.0000000000000000e+00  1.7058760164115608e-08 -1.2753203328106306e-08 0.0000000000000000e+00  2.3483717588971065e-08 -9.2012305240440607e-09 0.0000000000000000e+00  2.8476347124759954e-08 -6.4955203898886220e-09 0.0000000000000000e+00  3.2138835252607259e-08 -4.4045943541075276e-09 0.0000000000000000e+00  3.4624710046177908e-08 -2.7284944781576881e-09 0.0000000000000000e+00  3.6063354660589895e-08 -1.3055676765636366e-09 0.0000000000000000e+00  3.6537044883817410e-08 -1.7382776254967484e-12 0.0000000000000000e+00  3.6075181512709571e-08 1.3035562061947163e-09 0.0000000000000000e+00  3.4653999484802401e-08 2.7320039485696907e-09 0.0000000000000000e+00  3.2199187461916387e-08 4.4219106965677848e-09 0.0000000000000000e+00  2.8594810734767903e-08 6.5450464415225394e-09 0.0000000000000000e+00  2.3710134651704107e-08 9.3215837532189497e-09 0.0000000000000000e+00  1.7472348758621945e-08 1.3011244698731242e-08 0.0000000000000000e+00  1.0046436652275235e-08 1.7779938502630007e-08 0.0000000000000000e+00  2.2409843856737769e-09 2.3044203117587628e-08 0.0000000000000000e+00  -3.8080134927852689e-09 2.5079131687761022e-08 0.0000000000000000e+00  -7.3734348363361349e-09 1.0435134440207048e-08 0.0000000000000000e+00  -2.1304201717913968e-09 -9.0514262511232175e-09 0.0000000000000000e+00  -4.0982625694443492e-09 -2.5306807951755281e-08 0.0000000000000000e+00  -4.2577709441708166e-09 -2.7123103537837907e-08 0.0000000000000000e+00  -1.2980638693668549e-09 -2.3452178421922302e-08 0.0000000000000000e+00  3.3583715130154813e-09 -1.8723349367738544e-08 0.0000000000000000e+00  8.2136802111635954e-09 -1.4306008064900518e-08 0.0000000000000000e+00  1.2482428523501458e-08 -1.0524459321630690e-08 0.0000000000000000e+00  1.5863379834954022e-08 -7.3471252783285038e-09 0.0000000000000000e+00  1.8274030493727794e-08 -4.6367978503034501e-09 0.0000000000000000e+00  1.9711946323427561e-08 -2.2343615050940067e-09 0.0000000000000000e+00  2.0193416896079908e-08 1.7339142866289596e-11 0.0000000000000000e+00  1.9727835109663397e-08 2.2712718778643477e-09 0.0000000000000000e+00  1.8311140398400017e-08 4.6811503578551435e-09 0.0000000000000000e+00  1.5934032741892947e-08 7.4064238874225771e-09 0.0000000000000000e+00  1.2608827354304885e-08 1.0609497274309845e-08 0.0000000000000000e+00  8.4274799754643200e-09 1.4427223029444793e-08 0.0000000000000000e+00  3.6735721068145348e-09 1.8868055377092356e-08 0.0000000000000000e+00  -9.8741490025763503e-10 2.3509627415014523e-08 0.0000000000000000e+00  -4.2907767609996527e-09 2.6738926876815441e-08 0.0000000000000000e+00  -4.6548997021153569e-09 2.4403569782808411e-08 0.0000000000000000e+00  -3.2754503585084046e-09 9.7051290562084145e-09 0.0000000000000000e+00  -8.5987539358555589e-10 -6.7951846443674302e-09 0.0000000000000000e+00  -3.6466094990126408e-09 -2.2431783584783777e-08 0.0000000000000000e+00  -5.8261795418342108e-09 -2.7228785613362368e-08 0.0000000000000000e+00  -5.8852117617772147e-09 -2.6022006223378650e-08 0.0000000000000000e+00  -4.1131899867957750e-09 -2.2337740206802212e-08 0.0000000000000000e+00  -1.4355702929990569e-09 -1.7998492068066616e-08 0.0000000000000000e+00  1.3725510723430619e-09 -1.3764805107404570e-08 0.0000000000000000e+00  3.8389579125812503e-09 -9.8794534997287535e-09 0.0000000000000000e+00  5.7130078978420045e-09 -6.3524342376054395e-09 0.0000000000000000e+00  6.8739446279718211e-09 -3.0944820723875689e-09 0.0000000000000000e+00  7.2706394630795199e-09 2.3109902861895396e-11 0.0000000000000000e+00  6.8904067210417259e-09 3.1423604627715049e-09 0.0000000000000000e+00  5.7497397167858032e-09 6.4053124190939561e-09 0.0000000000000000e+00  3.9040080490101318e-09 9.9401890336680632e-09 0.0000000000000000e+00  1.4775625429165745e-09 1.3832835937683956e-08 0.0000000000000000e+00  -1.2822442515942862e-09 1.8060167026995729e-08 0.0000000000000000e+00  -3.9297235110727032e-09 2.2342960454469341e-08 0.0000000000000000e+00  -5.7598484341233448e-09 2.5853087947588773e-08 0.0000000000000000e+00  -5.9010726042601160e-09 2.6748286561493321e-08 0.0000000000000000e+00  -3.9219271449009719e-09 2.1833335470366722e-08 0.0000000000000000e+00  -1.4249125394994320e-09 7.9759252849763445e-09 0.0000000000000000e+00  -2.8134636828856205e-10 -5.0445609480778147e-09 0.0000000000000000e+00  -3.0039861811032683e-09 -1.9181037261735116e-08 0.0000000000000000e+00  -5.8437427802424875e-09 -2.5253573593063682e-08 0.0000000000000000e+00  -7.5633381090336228e-09 -2.5948760757474525e-08 0.0000000000000000e+00  -7.8679171884374889e-09 -2.3618977281293617e-08 0.0000000000000000e+00  -7.1305888055334891e-09 -1.9916188438457511e-08 0.0000000000000000e+00  -5.8741076331967008e-09 -1.5763789390586328e-08 0.0000000000000000e+00  -4.5324749451512456e-09 -1.1601682677000427e-08 0.0000000000000000e+00  -3.4013075378028626e-09 -7.5894661590831974e-09 0.0000000000000000e+00  -2.6588781417041230e-09 -3.7366928245121296e-09 0.0000000000000000e+00  -2.3972908955749096e-09 2.1546912213196627e-11 0.0000000000000000e+00  -2.6440661615987393e-09 3.7803510950807553e-09 0.0000000000000000e+00  -3.3695675448245576e-09 7.6342898141403354e-09 0.0000000000000000e+00  -4.4799730773565171e-09 1.1646051069839873e-08 0.0000000000000000e+00  -5.7972231039593030e-09 1.5799995940472117e-08 0.0000000000000000e+00  -7.0318385899587796e-09 1.9922741730673384e-08 0.0000000000000000e+00  -7.7680326632589443e-09 2.3550689881082607e-08 0.0000000000000000e+00  -7.5113221133055496e-09 2.5739788818280777e-08 0.0000000000000000e+00  -5.8938460053477874e-09 2.4888154840457123e-08 0.0000000000000000e+00  -3.1333792934763168e-09 1.8829618179158683e-08 0.0000000000000000e+00  -5.6859464892727582e-10 6.1548789868412123e-09 0.0000000000000000e+00  -4.9897049665856640e-12 -3.7548703769235258e-09 0.0000000000000000e+00  -2.4464565199268066e-09 -1.6119544438044063e-08 0.0000000000000000e+00  -5.3822452099988908e-09 -2.2461765443206083e-08 0.0000000000000000e+00  -7.9106156864097687e-09 -2.4304038847017528e-08 0.0000000000000000e+00  -9.5231252280156947e-09 -2.3138777531747576e-08 0.0000000000000000e+00  -1.0230382984524228e-08 -2.0243950572988993e-08 0.0000000000000000e+00  -1.0289816020469030e-08 -1.6494279841683052e-08 0.0000000000000000e+00  -1.0003447930876792e-08 -1.2405870149561069e-08 0.0000000000000000e+00  -9.6236690324834201e-09 -8.2396481200806432e-09 0.0000000000000000e+00  -9.3265067246505907e-09 -4.0955862727607369e-09 0.0000000000000000e+00  -9.2126330088323566e-09 1.7127402765607539e-11 0.0000000000000000e+00  -9.3142316585107738e-09 4.1294032316046253e-09 0.0000000000000000e+00  -9.5982630983313820e-09 8.2714339529596690e-09 0.0000000000000000e+00  -9.9638114961155071e-09 1.2431484556745413e-08 0.0000000000000000e+00  -1.0236339867069077e-08 1.6504161398011576e-08 0.0000000000000000e+00  -1.0168424921004214e-08 2.0219475671525017e-08 0.0000000000000000e+00  -9.4676911959846006e-09 2.3051367995216313e-08 0.0000000000000000e+00  -7.8868144211230861e-09 2.4127695289945818e-08 0.0000000000000000e+00  -5.4099438463001423e-09 2.2214979837274384e-08 0.0000000000000000e+00  -2.5059860441527334e-09 1.5918192459795063e-08 0.0000000000000000e+00  -1.5418976514084921e-10 4.6521734606644773e-09 0.0000000000000000e+00  1.2955073469543070e-10 -2.8079682877157769e-09 0.0000000000000000e+00  -2.0065504385059643e-09 -1.3384951161333109e-08 0.0000000000000000e+00  -4.8144508544451502e-09 -1.9437077866526929e-08 0.0000000000000000e+00  -7.6683820603623130e-09 -2.1834324570336142e-08 0.0000000000000000e+00  -1.0024228469208481e-08 -2.1504101570682027e-08 0.0000000000000000e+00  -1.1694825700151294e-08 -1.9367866483274905e-08 0.0000000000000000e+00  -1.2734962543008951e-08 -1.6157560519391815e-08 0.0000000000000000e+00  -1.3302954593282147e-08 -1.2375320702881875e-08 0.0000000000000000e+00  -1.3569122733439243e-08 -8.3261329219762439e-09 0.0000000000000000e+00  -1.3670107683132746e-08 -4.1724320299755725e-09 0.0000000000000000e+00  -1.3691012817106452e-08 1.2118332381632053e-11 0.0000000000000000e+00  -1.3660383442718647e-08 4.1955843351231590e-09 0.0000000000000000e+00  -1.3549569099270920e-08 8.3454011559234661e-09 0.0000000000000000e+00  -1.3273883566288156e-08 1.2385886414124902e-08 0.0000000000000000e+00  -1.2698255854525527e-08 1.6151051589577604e-08 0.0000000000000000e+00  -1.1655674935665658e-08 1.9331506652744122e-08 0.0000000000000000e+00  -9.9925666186964620e-09 2.1423090014859719e-08 0.0000000000000000e+00  -7.6570493900772220e-09 2.1702091266438201e-08 0.0000000000000000e+00  -4.8294817849547372e-09 1.9275812042799350e-08 0.0000000000000000e+00  -2.0326613511261695e-09 1.3269603487408592e-08 0.0000000000000000e+00  5.2170912548293207e-11 3.5024815126925630e-09 0.0000000000000000e+00  1.9373974699784769e-10 -2.1034407805202342e-09 0.0000000000000000e+00  -1.6667487870054354e-09 -1.0981183249899604e-08 0.0000000000000000e+00  -4.2669337863000401e-09 -1.6445158144769220e-08 0.0000000000000000e+00  -7.1840518786612896e-09 -1.8991931385691827e-08 0.0000000000000000e+00  -9.9094102796880735e-09 -1.9188555019060231e-08 0.0000000000000000e+00  -1.2163128758230530e-08 -1.7675864913672171e-08 0.0000000000000000e+00  -1.3866454148223889e-08 -1.5026082341876707e-08 0.0000000000000000e+00  -1.5057746291321481e-08 -1.1680110948513562e-08 0.0000000000000000e+00  -1.5820781601879701e-08 -7.9427124501104722e-09 0.0000000000000000e+00  -1.6238645463186554e-08 -4.0074277363703521e-09 0.0000000000000000e+00  -1.6368687995778668e-08 7.4962470428403140e-12 0.0000000000000000e+00  -1.6231137063035615e-08 4.0210588586043871e-09 0.0000000000000000e+00  -1.5806042773686448e-08 7.9518290991631604e-09 0.0000000000000000e+00  -1.5036694951300790e-08 1.1680304008595755e-08 0.0000000000000000e+00  -1.3841328642726752e-08 1.5011125484494003e-08 0.0000000000000000e+00  -1.2138261911518730e-08 1.7638113623436189e-08 0.0000000000000000e+00  -9.8913596512878825e-09 1.9121611778093798e-08 0.0000000000000000e+00  -7.1793621072334063e-09 1.8896947134175955e-08 0.0000000000000000e+00  -4.2755293796376946e-09 1.6340515015943097e-08 0.0000000000000000e+00  -1.6764680911873980e-09 1.0915137836683516e-08 0.0000000000000000e+00  1.5514535043402386e-10 2.6378920921284460e-09 0.0000000000000000e+00  2.2193954953845875e-10 -1.5690617156042898e-09 0.0000000000000000e+00  -1.4042837269482899e-09 -8.8729565369072542e-09 0.0000000000000000e+00  -3.7799362926810829e-09 -1.3601998508543091e-08 0.0000000000000000e+00  -6.6251616093981250e-09 -1.6037260608766851e-08 0.0000000000000000e+00  -9.4879497697072489e-09 -1.6518841101878356e-08 0.0000000000000000e+00  -1.2054490603616496e-08 -1.5482315220572406e-08 0.0000000000000000e+00  -1.4166053044421314e-08 -1.3356863369594561e-08 0.0000000000000000e+00  -1.5773094781612551e-08 -1.0505631608422219e-08 0.0000000000000000e+00  -1.6885229005370955e-08 -7.2058848212015025e-09 0.0000000000000000e+00  -1.7533044276823592e-08 -3.6559081245145139e-09 0.0000000000000000e+00  -1.7743594787678413e-08 3.6130075528197048e-12 0.0000000000000000e+00  -1.7527361899941604e-08 3.6617676232905687e-09 0.0000000000000000e+00  -1.6874305087537302e-08 7.2074149014446663e-09 0.0000000000000000e+00  -1.5758036532458062e-08 1.0499269850256799e-08 0.0000000000000000e+00  -1.4149001026503406e-08 1.3338422731872909e-08 0.0000000000000000e+00  -1.2038891026184494e-08 1.5447725033617678e-08 0.0000000000000000e+00  -9.4781632460201153e-09 1.6466166189697955e-08 0.0000000000000000e+00  -6.6242989859219572e-09 1.5970144870322389e-08 0.0000000000000000e+00  -3.7851829745205898e-09 1.3534138373285648e-08 0.0000000000000000e+00  -1.4058384996109585e-09 8.8356690176846112e-09 0.0000000000000000e+00  2.0464152017888934e-10 1.9841568222628396e-09 0.0000000000000000e+00  2.3173960187093484e-10 -1.1547160246636962e-09 0.0000000000000000e+00  -1.2011950430231968e-09 -7.0161464800954728e-09 0.0000000000000000e+00  -3.3646014346213962e-09 -1.0949312190076350e-08 0.0000000000000000e+00  -6.0770452566934925e-09 -1.3112351586536792e-08 0.0000000000000000e+00  -8.9433387824980195e-09 -1.3703934565239825e-08 0.0000000000000000e+00  -1.1645531221224305e-08 -1.3014525806086630e-08 0.0000000000000000e+00  -1.3980973523155296e-08 -1.1356307913302669e-08 0.0000000000000000e+00  -1.5840860622905863e-08 -9.0146956755519067e-09 0.0000000000000000e+00  -1.7178168141796850e-08 -6.2254885503783480e-09 0.0000000000000000e+00  -1.7979485041512007e-08 -3.1726267700645502e-09 0.0000000000000000e+00  -1.8244724189526445e-08 5.3825021870369816e-13 0.0000000000000000e+00  -1.7975284943769584e-08 3.1724883079100663e-09 0.0000000000000000e+00  -1.7170245285187566e-08 6.2216270947992893e-09 0.0000000000000000e+00  -1.5830297266847995e-08 9.0044556742142380e-09 0.0000000000000000e+00  -1.3969629871989401e-08 1.1337095726344058e-08 0.0000000000000000e+00  -1.1636061163223167e-08 1.2984507082544562e-08 0.0000000000000000e+00  -8.9386154804550370e-09 1.3663340614359400e-08 0.0000000000000000e+00  -6.0782590975537058e-09 1.3065198871453691e-08 0.0000000000000000e+00  -3.3679357983904250e-09 1.0905371559108424e-08 0.0000000000000000e+00  -1.1988480606026436e-09 6.9959630226293190e-09 0.0000000000000000e+00  2.2596435251173086e-10 1.4824732937355246e-09 0.0000000000000000e+00  2.3262135404723337e-10 -8.2521681411196304e-10 0.0000000000000000e+00  -1.0453220381597112e-09 -5.3664803479001457e-09 0.0000000000000000e+00  -3.0233933251257150e-09 -8.4894611603613369e-09 0.0000000000000000e+00  -5.5867654975351610e-09 -1.0285639934746214e-08 0.0000000000000000e+00  -8.3890822930263972e-09 -1.0866926294419009e-08 0.0000000000000000e+00  -1.1121382467011071e-08 -1.0422760761868511e-08 0.0000000000000000e+00  -1.3559326698035751e-08 -9.1732778454607592e-09 0.0000000000000000e+00  -1.5556680211150999e-08 -7.3330629350070549e-09 0.0000000000000000e+00  -1.7026479820824229e-08 -5.0908138368035047e-09 0.0000000000000000e+00  -1.7921965135875399e-08 -2.6035758837900606e-09 0.0000000000000000e+00  -1.8221466644838574e-08 -1.7779936304857439e-12 0.0000000000000000e+00  -1.7918962409823022e-08 2.5990196315819471e-09 0.0000000000000000e+00  -1.7020913562989663e-08 5.0832756961692167e-09 0.0000000000000000e+00  -1.5549492215723893e-08 7.3206802946213636e-09 0.0000000000000000e+00  -1.3552021328834709e-08 9.1545876543156378e-09 0.0000000000000000e+00  -1.1115924838063605e-08 1.0397240090350079e-08 0.0000000000000000e+00  -8.3873149892748676e-09 1.0835757478713434e-08 0.0000000000000000e+00  -5.5888581393509669e-09 1.0252459325058780e-08 0.0000000000000000e+00  -3.0255206642684924e-09 8.4611137972069770e-09 0.0000000000000000e+00  -1.0414729129231660e-09 5.3566188091851398e-09 0.0000000000000000e+00  2.3264628049097397e-10 1.0898300214096105e-09 0.0000000000000000e+00  2.2990634709060252e-10 -5.5488343127798560e-10 0.0000000000000000e+00  -9.2908536384497191e-10 -3.8811914040005647e-09 0.0000000000000000e+00  -2.7569200537158567e-09 -6.2024166227781332e-09 0.0000000000000000e+00  -5.1826353404904765e-09 -7.5788398997683810e-09 0.0000000000000000e+00  -7.8980797656792536e-09 -8.0704425745950774e-09 0.0000000000000000e+00  -1.0607201102827212e-08 -7.7963836652445861e-09 0.0000000000000000e+00  -1.3076577991438045e-08 -6.9049501504037852e-09 0.0000000000000000e+00  -1.5137748449923667e-08 -5.5483346651881588e-09 0.0000000000000000e+00  -1.6677425822089701e-08 -3.8669222290815197e-09 0.0000000000000000e+00  -1.7625527161772913e-08 -1.9832030585317841e-09 0.0000000000000000e+00  -1.7944722439827450e-08 -3.4303178440898360e-12 0.0000000000000000e+00  -1.7623489591086645e-08 1.9755556027313802e-09 0.0000000000000000e+00  -1.6673707139770237e-08 3.8569870883652549e-09 0.0000000000000000e+00  -1.5133087098118664e-08 5.5348659763126375e-09 0.0000000000000000e+00  -1.3072096909151664e-08 6.8872355737284225e-09 0.0000000000000000e+00  -1.0604273357338873e-08 7.7746305269570500e-09 0.0000000000000000e+00  -7.8978340104895707e-09 8.0461875153316553e-09 0.0000000000000000e+00  -5.1847922024580380e-09 7.5551729814175193e-09 0.0000000000000000e+00  -2.7582344367039188e-09 6.1841418420795875e-09 0.0000000000000000e+00  -9.2518479835238390e-10 3.8775725553429526e-09 0.0000000000000000e+00  2.3226531065936904e-10 7.7492347594656565e-10 0.0000000000000000e+00  2.2664011475435812e-10 -3.2387955902176233e-10 0.0000000000000000e+00  -8.4805537104127048e-10 -2.5187162569749985e-09 0.0000000000000000e+00  -2.5657797824111360e-09 -4.0546029534882311e-09 0.0000000000000000e+00  -4.8827583668584724e-09 -4.9836020244076835e-09 0.0000000000000000e+00  -7.5179064739265754e-09 -5.3355505927935475e-09 0.0000000000000000e+00  -1.0187008918981591e-08 -5.1797205197647621e-09 0.0000000000000000e+00  -1.2653918782350703e-08 -4.60