<?xml version="1.0"?>
<VTKFile type="UnstructuredGrid"  version="0.1"  >
<UnstructuredGrid>
<Piece  NumberOfPoints="651" NumberOfCells="1200">
<Points>
<DataArray  type="Float64"  NumberOfComponents="3"  format="ascii">0 0 0  50000 0 0  100000 0 0  150000 0 0  200000 0 0  250000 0 0  300000 0 0  350000 0 0  400000 0 0  450000 0 0  500000 0 0  550000 0 0  600000 0 0  650000 0 0  700000 0 0  750000 0 0  800000 0 0  850000 0 0  900000 0 0  950000 0 0  1000000 0 0  0 50000 0  50000 50000 0  100000 50000 0  150000 50000 0  200000 50000 0  250000 50000 0  300000 50000 0  350000 50000 0  400000 50000 0  450000 50000 0  500000 50000 0  550000 50000 0  600000 50000 0  650000 50000 0  700000 50000 0  750000 50000 0  800000 50000 0  850000 50000 0  900000 50000 0  950000 50000 0  1000000 50000 0  0 100000 0  50000 100000 0  100000 100000 0  150000 100000 0  200000 100000 0  250000 100000 0  300000 100000 0  350000 100000 0  400000 100000 0  450000 100000 0  500000 100000 0  550000 100000 0  600000 100000 0  650000 100000 0  700000 100000 0  750000 100000 0  800000 100000 0  850000 100000 0  900000 100000 0  950000 100000 0  1000000 100000 0  0 150000 0  50000 150000 0  100000 150000 0  150000 150000 0  200000 150000 0  250000 150000 0  300000 150000 0  350000 150000 0  400000 150000 0  450000 150000 0  500000 150000 0  550000 150000 0  600000 150000 0  650000 150000 0  700000 150000 0  750000 150000 0  800000 150000 0  850000 150000 0  900000 150000 0  950000 150000 0  1000000 150000 0  0 200000 0  50000 200000 0  100000 200000 0  150000 200000 0  200000 200000 0  250000 200000 0  300000 200000 0  350000 200000 0  400000 200000 0  450000 200000 0  500000 200000 0  550000 200000 0  600000 200000 0  650000 200000 0  700000 200000 0  750000 200000 0  800000 200000 0  850000 200000 0  900000 200000 0  950000 200000 0  1000000 200000 0  0 250000 0  50000 250000 0  100000 250000 0  150000 250000 0  200000 250000 0  250000 250000 0  300000 250000 0  350000 250000 0  400000 250000 0  450000 250000 0  500000 250000 0  550000 250000 0  600000 250000 0  650000 250000 0  700000 250000 0  750000 250000 0  800000 250000 0  850000 250000 0  900000 250000 0  950000 250000 0  1000000 250000 0  0 300000 0  50000 300000 0  100000 300000 0  150000 300000 0  200000 300000 0  250000 300000 0  300000 300000 0  350000 300000 0  400000 300000 0  450000 300000 0  500000 300000 0  550000 300000 0  600000 300000 0  650000 300000 0  700000 300000 0  750000 300000 0  800000 300000 0  850000 300000 0  900000 300000 0  950000 300000 0  1000000 300000 0  0 350000 0  50000 350000 0  100000 350000 0  150000 350000 0  200000 350000 0  250000 350000 0  300000 350000 0  350000 350000 0  400000 350000 0  450000 350000 0  500000 350000 0  550000 350000 0  600000 350000 0  650000 350000 0  700000 350000 0  750000 350000 0  800000 350000 0  850000 350000 0  900000 350000 0  950000 350000 0  1000000 350000 0  0 400000 0  50000 400000 0  100000 400000 0  150000 400000 0  200000 400000 0  250000 400000 0  300000 400000 0  350000 400000 0  400000 400000 0  450000 400000 0  500000 400000 0  550000 400000 0  600000 400000 0  650000 400000 0  700000 400000 0  750000 400000 0  800000 400000 0  850000 400000 0  900000 400000 0  950000 400000 0  1000000 400000 0  0 450000 0  50000 450000 0  100000 450000 0  150000 450000 0  200000 450000 0  250000 450000 0  300000 450000 0  350000 450000 0  400000 450000 0  450000 450000 0  500000 450000 0  550000 450000 0  600000 450000 0  650000 450000 0  700000 450000 0  750000 450000 0  800000 450000 0  850000 450000 0  900000 450000 0  950000 450000 0  1000000 450000 0  0 500000 0  50000 500000 0  100000 500000 0  150000 500000 0  200000 500000 0  250000 500000 0  300000 500000 0  350000 500000 0  400000 500000 0  450000 500000 0  500000 500000 0  550000 500000 0  600000 500000 0  650000 500000 0  700000 500000 0  750000 500000 0  800000 500000 0  850000 500000 0  900000 500000 0  950000 500000 0  1000000 500000 0  0 550000 0  50000 550000 0  100000 550000 0  150000 550000 0  200000 550000 0  250000 550000 0  300000 550000 0  350000 550000 0  400000 550000 0  450000 550000 0  500000 550000 0  550000 550000 0  600000 550000 0  650000 550000 0  700000 550000 0  750000 550000 0  800000 550000 0  850000 550000 0  900000 550000 0  950000 550000 0  1000000 550000 0  0 600000 0  50000 600000 0  100000 600000 0  150000 600000 0  200000 600000 0  250000 600000 0  300000 600000 0  350000 600000 0  400000 600000 0  450000 600000 0  500000 600000 0  550000 600000 0  600000 600000 0  650000 600000 0  700000 600000 0  750000 600000 0  800000 600000 0  850000 600000 0  900000 600000 0  950000 600000 0  1000000 600000 0  0 650000 0  50000 650000 0  100000 650000 0  150000 650000 0  200000 650000 0  250000 650000 0  300000 650000 0  350000 650000 0  400000 650000 0  450000 650000 0  500000 650000 0  550000 650000 0  600000 650000 0  650000 650000 0  700000 650000 0  750000 650000 0  800000 650000 0  850000 650000 0  900000 650000 0  950000 650000 0  1000000 650000 0  0 700000 0  50000 700000 0  100000 700000 0  150000 700000 0  200000 700000 0  250000 700000 0  300000 700000 0  350000 700000 0  400000 700000 0  450000 700000 0  500000 700000 0  550000 700000 0  600000 700000 0  650000 700000 0  700000 700000 0  750000 700000 0  800000 700000 0  850000 700000 0  900000 700000 0  950000 700000 0  1000000 700000 0  0 750000 0  50000 750000 0  100000 750000 0  150000 750000 0  200000 750000 0  250000 750000 0  300000 750000 0  350000 750000 0  400000 750000 0  450000 750000 0  500000 750000 0  550000 750000 0  600000 750000 0  650000 750000 0  700000 750000 0  750000 750000 0  800000 750000 0  850000 750000 0  900000 750000 0  950000 750000 0  1000000 750000 0  0 800000 0  50000 800000 0  100000 800000 0  150000 800000 0  200000 800000 0  250000 800000 0  300000 800000 0  350000 800000 0  400000 800000 0  450000 800000 0  500000 800000 0  550000 800000 0  600000 800000 0  650000 800000 0  700000 800000 0  750000 800000 0  800000 800000 0  850000 800000 0  900000 800000 0  950000 800000 0  1000000 800000 0  0 850000 0  50000 850000 0  100000 850000 0  150000 850000 0  200000 850000 0  250000 850000 0  300000 850000 0  350000 850000 0  400000 850000 0  450000 850000 0  500000 850000 0  550000 850000 0  600000 850000 0  650000 850000 0  700000 850000 0  750000 850000 0  800000 850000 0  850000 850000 0  900000 850000 0  950000 850000 0  1000000 850000 0  0 900000 0  50000 900000 0  100000 900000 0  150000 900000 0  200000 900000 0  250000 900000 0  300000 900000 0  350000 900000 0  400000 900000 0  450000 900000 0  500000 900000 0  550000 900000 0  600000 900000 0  650000 900000 0  700000 900000 0  750000 900000 0  800000 900000 0  850000 900000 0  900000 900000 0  950000 900000 0  1000000 900000 0  0 950000 0  50000 950000 0  100000 950000 0  150000 950000 0  200000 950000 0  250000 950000 0  300000 950000 0  350000 950000 0  400000 950000 0  450000 950000 0  500000 950000 0  550000 950000 0  600000 950000 0  650000 950000 0  700000 950000 0  750000 950000 0  800000 950000 0  850000 950000 0  900000 950000 0  950000 950000 0  1000000 950000 0  0 1000000 0  50000 1000000 0  100000 1000000 0  150000 1000000 0  200000 1000000 0  250000 1000000 0  300000 1000000 0  350000 1000000 0  400000 1000000 0  450000 1000000 0  500000 1000000 0  550000 1000000 0  600000 1000000 0  650000 1000000 0  700000 1000000 0  750000 1000000 0  800000 1000000 0  850000 1000000 0  900000 1000000 0  950000 1000000 0  1000000 1000000 0  0 1050000 0  50000 1050000 0  100000 1050000 0  150000 1050000 0  200000 1050000 0  250000 1050000 0  300000 1050000 0  350000 1050000 0  400000 1050000 0  450000 1050000 0  500000 1050000 0  550000 1050000 0  600000 1050000 0  650000 1050000 0  700000 1050000 0  750000 1050000 0  800000 1050000 0  850000 1050000 0  900000 1050000 0  950000 1050000 0  1000000 1050000 0  0 1100000 0  50000 1100000 0  100000 1100000 0  150000 1100000 0  200000 1100000 0  250000 1100000 0  300000 1100000 0  350000 1100000 0  400000 1100000 0  450000 1100000 0  500000 1100000 0  550000 1100000 0  600000 1100000 0  650000 1100000 0  700000 1100000 0  750000 1100000 0  800000 1100000 0  850000 1100000 0  900000 1100000 0  950000 1100000 0  1000000 1100000 0  0 1150000 0  50000 1150000 0  100000 1150000 0  150000 1150000 0  200000 1150000 0  250000 1150000 0  300000 1150000 0  350000 1150000 0  400000 1150000 0  450000 1150000 0  500000 1150000 0  550000 1150000 0  600000 1150000 0  650000 1150000 0  700000 1150000 0  750000 1150000 0  800000 1150000 0  850000 1150000 0  900000 1150000 0  950000 1150000 0  1000000 1150000 0  0 1200000 0  50000 1200000 0  100000 1200000 0  150000 1200000 0  200000 1200000 0  250000 1200000 0  300000 1200000 0  350000 1200000 0  400000 1200000 0  450000 1200000 0  500000 1200000 0  550000 1200000 0  600000 1200000 0  650000 1200000 0  700000 1200000 0  750000 1200000 0  800000 1200000 0  850000 1200000 0  900000 1200000 0  950000 1200000 0  1000000 1200000 0  0 1250000 0  50000 1250000 0  100000 1250000 0  150000 1250000 0  200000 1250000 0  250000 1250000 0  300000 1250000 0  350000 1250000 0  400000 1250000 0  450000 1250000 0  500000 1250000 0  550000 1250000 0  600000 1250000 0  650000 1250000 0  700000 1250000 0  750000 1250000 0  800000 1250000 0  850000 1250000 0  900000 1250000 0  950000 1250000 0  1000000 1250000 0  0 1300000 0  50000 1300000 0  100000 1300000 0  150000 1300000 0  200000 1300000 0  250000 1300000 0  300000 1300000 0  350000 1300000 0  400000 1300000 0  450000 1300000 0  500000 1300000 0  550000 1300000 0  600000 1300000 0  650000 1300000 0  700000 1300000 0  750000 1300000 0  800000 1300000 0  850000 1300000 0  900000 1300000 0  950000 1300000 0  1000000 1300000 0  0 1350000 0  50000 1350000 0  100000 1350000 0  150000 1350000 0  200000 1350000 0  250000 1350000 0  300000 1350000 0  350000 1350000 0  400000 1350000 0  450000 1350000 0  500000 1350000 0  550000 1350000 0  600000 1350000 0  650000 1350000 0  700000 135
[...]
<PointData  Vectors="f_3007"> 
<DataArray  type="Float64"  Name="f_3007"  NumberOfComponents="3" format="ascii">-1.5242680816581491e-08 -8.4852813457382719e-09 0.0000000000000000e+00  6.3977589877883578e-08 -5.3094746067009890e-09 0.0000000000000000e+00  6.7273325416754422e-08 -1.4784504903236312e-09 0.0000000000000000e+00  7.1018005456276359e-08 -2.5029629325443998e-10 0.0000000000000000e+00  7.3824451120620398e-08 1.4642190375714513e-10 0.0000000000000000e+00  7.5645460303441322e-08 2.5576147752712120e-10 0.0000000000000000e+00  7.6784605699675306e-08 2.4830232048960314e-10 0.0000000000000000e+00  7.7478323977892491e-08 1.9364127097030567e-10 0.0000000000000000e+00  7.7875348275710408e-08 1.2163772716308915e-10 0.0000000000000000e+00  7.8060482255269790e-08 4.4151545098121971e-11 0.0000000000000000e+00  7.8073194610913794e-08 -3.5003490346149541e-11 0.0000000000000000e+00  7.7916996948642948e-08 -1.1477154708037577e-10 0.0000000000000000e+00  7.7560667494067951e-08 -1.9304941653218494e-10 0.0000000000000000e+00  7.6932297375802971e-08 -2.6196135588262056e-10 0.0000000000000000e+00  7.5908434100964190e-08 -2.9857332499496486e-10 0.0000000000000000e+00  7.4310952828552297e-08 -2.4216216566743626e-10 0.0000000000000000e+00  7.1966531227796890e-08 6.6463877884296908e-11 0.0000000000000000e+00  6.9004490765816627e-08 1.0416843718815469e-09 0.0000000000000000e+00  6.6498726982900689e-08 3.6679611986758797e-09 0.0000000000000000e+00  6.5161878770598301e-08 8.5610490185857214e-09 0.0000000000000000e+00  -1.3291341548931154e-08 7.3313858660580185e-09 0.0000000000000000e+00  -1.0813502699837132e-08 -1.1684006797437386e-08 0.0000000000000000e+00  7.2789747196248646e-09 -1.7639782813738882e-08 0.0000000000000000e+00  2.1068210043129281e-08 -1.2416366261110320e-08 0.0000000000000000e+00  3.1762101771032168e-08 -8.3152085118658271e-09 0.0000000000000000e+00  3.9614668795031207e-08 -5.5732133127793472e-09 0.0000000000000000e+00  4.5253600569821074e-08 -3.7294393364339055e-09 0.0000000000000000e+00  4.9194752621799076e-08 -2.4729546997025869e-09 0.0000000000000000e+00  5.1865680025275913e-08 -1.5957499744111487e-09 0.0000000000000000e+00  5.3575331310736251e-08 -9.5689949820607285e-10 0.0000000000000000e+00  5.4525711221788065e-08 -4.5747468245138432e-10 0.0000000000000000e+00  5.4830387808738524e-08 -2.2752234754398874e-11 0.0000000000000000e+00  5.4526915273344585e-08 4.1127334480840277e-10 0.0000000000000000e+00  5.3581457449762463e-08 9.0950651590819539e-10 0.0000000000000000e+00  5.1885908358894222e-08 1.5503353502524533e-09 0.0000000000000000e+00  4.9248491874163803e-08 2.4431186570745037e-09 0.0000000000000000e+00  4.5381209405720303e-08 3.7572166408693585e-09 0.0000000000000000e+00  3.9893508776940648e-08 5.7733257766848766e-09 0.0000000000000000e+00  3.2299274181360439e-08 8.9563266005613520e-09 0.0000000000000000e+00  2.1935405717303701e-08 1.3885351599037482e-08 0.0000000000000000e+00  7.4467021569989685e-09 1.9810543684103487e-08 0.0000000000000000e+00  -1.2962510333657224e-08 9.9888563823445245e-09 0.0000000000000000e+00  -5.0345433646189393e-09 -1.1543898215051615e-08 0.0000000000000000e+00  -2.9756649107570884e-09 -2.5697032159377371e-08 0.0000000000000000e+00  1.7927827509697555e-09 -2.2331072278304262e-08 0.0000000000000000e+00  9.0124120208152148e-09 -1.6937630247482312e-08 0.0000000000000000e+00  1.6304137581883701e-08 -1.2298609987134319e-08 0.0000000000000000e+00  2.2353448577996770e-08 -8.7306273675060403e-09 0.0000000000000000e+00  2.6977554193036514e-08 -6.0533078186333718e-09 0.0000000000000000e+00  3.0312349759003515e-08 -4.0315066647356254e-09 0.0000000000000000e+00  3.2541575015179136e-08 -2.4579809654894162e-09 0.0000000000000000e+00  3.3817001068314711e-08 -1.1611012336864075e-09 0.0000000000000000e+00  3.4234682532687552e-08 4.6238587286900904e-12 0.0000000000000000e+00  3.3828795384317346e-08 1.1718301252497886e-09 0.0000000000000000e+00  3.2571156924429462e-08 2.4743379327495422e-09 0.0000000000000000e+00  3.0374046453391649e-08 4.0620562780277379e-09 0.0000000000000000e+00  2.7099656722628527e-08 6.1171430481288153e-09 0.0000000000000000e+00  2.2587445865553143e-08 8.8681137132945629e-09 0.0000000000000000e+00  1.6726809647624011e-08 1.2580379466475790e-08 0.0000000000000000e+00  9.6364503346498024e-09 1.7423102102982182e-08 0.0000000000000000e+00  2.0735741458096374e-09 2.2822170277529831e-08 0.0000000000000000e+00  -3.8494467232877444e-09 2.5062838481494376e-08 0.0000000000000000e+00  -7.3891096702669667e-09 1.0560873810475194e-08 0.0000000000000000e+00  -2.1215595279467260e-09 -9.1963158780881608e-09 0.0000000000000000e+00  -4.1941639901765862e-09 -2.5090189162543448e-08 0.0000000000000000e+00  -4.5717780875995195e-09 -2.6607545191972619e-08 0.0000000000000000e+00  -1.9442499999990233e-09 -2.2719760493554518e-08 0.0000000000000000e+00  2.2930073259218106e-09 -1.7865039145465707e-08 0.0000000000000000e+00  6.7014501876405836e-09 -1.3418854030147718e-08 0.0000000000000000e+00  1.0536524786192323e-08 -9.6956828522717443e-09 0.0000000000000000e+00  1.3533945207801130e-08 -6.6525668212424358e-09 0.0000000000000000e+00  1.5644737167936356e-08 -4.1374471049423309e-09 0.0000000000000000e+00  1.6892157466261859e-08 -1.9728574150166779e-09 0.0000000000000000e+00  1.7308470670725626e-08 1.9111712405340804e-11 0.0000000000000000e+00  1.6908583480312897e-08 2.0133469094838901e-09 0.0000000000000000e+00  1.5683268711116427e-08 4.1854856275313808e-09 0.0000000000000000e+00  1.3607640232200611e-08 6.7157664777357443e-09 0.0000000000000000e+00  1.0668692201537701e-08 9.7850526494729129e-09 0.0000000000000000e+00  6.9242156193377371e-09 1.3545103307651907e-08 0.0000000000000000e+00  2.6155729269106983e-09 1.8014931117736062e-08 0.0000000000000000e+00  -1.6410024177111410e-09 2.2778457491257987e-08 0.0000000000000000e+00  -4.6313613483420749e-09 2.6230237941208019e-08 0.0000000000000000e+00  -4.7959604369381830e-09 2.4214826433046418e-08 0.0000000000000000e+00  -3.2802902957451175e-09 9.8535141946966563e-09 0.0000000000000000e+00  -8.4483325007615239e-10 -6.9014746136376324e-09 0.0000000000000000e+00  -3.7821165074962634e-09 -2.2046681085455149e-08 0.0000000000000000e+00  -6.2080211101471042e-09 -2.6421626636204799e-08 0.0000000000000000e+00  -6.6211787287743950e-09 -2.4900829674818332e-08 0.0000000000000000e+00  -5.2749753498824648e-09 -2.1038259919376062e-08 0.0000000000000000e+00  -3.0501643907479636e-09 -1.6659258279740489e-08 0.0000000000000000e+00  -6.7923900256676472e-10 -1.2516140629317466e-08 0.0000000000000000e+00  1.4026195878642549e-09 -8.8349331336895902e-09 0.0000000000000000e+00  2.9768587495588832e-09 -5.6028732746890425e-09 0.0000000000000000e+00  3.9476241533990822e-09 -2.7032006222809677e-09 0.0000000000000000e+00  4.2794139674085043e-09 2.3609896863289325e-11 0.0000000000000000e+00  3.9649204293344629e-09 2.7520656478570503e-09 0.0000000000000000e+00  3.0154698873360920e-09 5.6566628076781351e-09 0.0000000000000000e+00  1.4709923571273019e-09 8.8963256384003101e-09 0.0000000000000000e+00  -5.6909401585026417e-10 1.2584113859396229e-08 0.0000000000000000e+00  -2.8907143520522289e-09 1.6718993575801166e-08 0.0000000000000000e+00  -5.0884203853955984e-09 2.1037374771874422e-08 0.0000000000000000e+00  -6.5023148851594662e-09 2.4719699994921329e-08 0.0000000000000000e+00  -6.3047637687883687e-09 2.5927124826957225e-08 0.0000000000000000e+00  -4.0884980644085903e-09 2.1450535851613594e-08 0.0000000000000000e+00  -1.4179046505193107e-09 8.1071797869822787e-09 0.0000000000000000e+00  -2.6522259594767159e-10 -5.1011970720782616e-09 0.0000000000000000e+00  -3.1474644947939730e-09 -1.8603057647345634e-08 0.0000000000000000e+00  -6.2291830406332255e-09 -2.4138865709815352e-08 0.0000000000000000e+00  -8.2740927266774118e-09 -2.4443415070970005e-08 0.0000000000000000e+00  -8.9619357862045982e-09 -2.1894279574910696e-08 0.0000000000000000e+00  -8.6281144936145872e-09 -1.8148046555866490e-08 0.0000000000000000e+00  -7.7588416350575631e-09 -1.4119424777903516e-08 0.0000000000000000e+00  -6.7561950780937159e-09 -1.0228123190930754e-08 0.0000000000000000e+00  -5.8885184276951676e-09 -6.6047435232993125e-09 0.0000000000000000e+00  -5.3129335785448528e-09 -3.2232350461693785e-09 0.0000000000000000e+00  -5.1081985108313707e-09 2.1375590934279695e-11 0.0000000000000000e+00  -5.2972661129442291e-09 3.2664769555814077e-09 0.0000000000000000e+00  -5.8550115692190904e-09 6.6488739641944698e-09 0.0000000000000000e+00  -6.7009424136887859e-09 1.0271138418984729e-08 0.0000000000000000e+00  -7.6783725128782631e-09 1.4152882862702804e-08 0.0000000000000000e+00  -8.5260490396137859e-09 1.8149170829252624e-08 0.0000000000000000e+00  -8.8617546930642756e-09 2.1816246592703480e-08 0.0000000000000000e+00  -8.2278201524364248e-09 2.4219958414498413e-08 0.0000000000000000e+00  -6.2918240479935646e-09 2.3758680994486648e-08 0.0000000000000000e+00  -3.2948149113926986e-09 1.8248265253981348e-08 0.0000000000000000e+00  -5.5432315989418552e-10 6.2457548847922900e-09 0.0000000000000000e+00  7.4146167933124252e-12 -3.7638772216697990e-09 0.0000000000000000e+00  -2.5715672928225720e-09 -1.5362792573198686e-08 0.0000000000000000e+00  -5.7074397136735948e-09 -2.1075504039525281e-08 0.0000000000000000e+00  -8.4944125145907404e-09 -2.2468241811687355e-08 0.0000000000000000e+00  -1.0404500599513485e-08 -2.1055499578636922e-08 0.0000000000000000e+00  -1.1421611099996883e-08 -1.8118884186068437e-08 0.0000000000000000e+00  -1.1776222408584941e-08 -1.4523264481444695e-08 0.0000000000000000e+00  -1.1746867215783642e-08 -1.0761900781278943e-08 0.0000000000000000e+00  -1.1566167344854598e-08 -7.0621085381551861e-09 0.0000000000000000e+00  -1.1394809765229851e-08 -3.4820546767928791e-09 0.0000000000000000e+00  -1.1323739364463020e-08 1.6425739415852921e-11 0.0000000000000000e+00  -1.1381822943715076e-08 3.5143730657170374e-09 0.0000000000000000e+00  -1.1539373094607891e-08 7.0920638848142118e-09 0.0000000000000000e+00  -1.1705272524401814e-08 1.0784976086489759e-08 0.0000000000000000e+00  -1.1720580564791846e-08 1.4529286629191865e-08 0.0000000000000000e+00  -1.1358283619079052e-08 1.8088334118769594e-08 0.0000000000000000e+00  -1.0350032059019722e-08 2.0958973331093460e-08 0.0000000000000000e+00  -8.4746634282376697e-09 2.2279999762710792e-08 0.0000000000000000e+00  -5.7418424756195368e-09 2.0817121462633430e-08 0.0000000000000000e+00  -2.6396135220828351e-09 1.5158056880125410e-08 0.0000000000000000e+00  -1.3833918955568065e-10 4.6951422759012285e-09 0.0000000000000000e+00  1.3457819609669008e-10 -2.7783226740652702e-09 0.0000000000000000e+00  -2.0963865270461617e-09 -1.2491203626826064e-08 0.0000000000000000e+00  -5.0348466862914542e-09 -1.7851471901887370e-08 0.0000000000000000e+00  -8.0502354722865559e-09 -1.9762432976801856e-08 0.0000000000000000e+00  -1.0586812493349660e-08 -1.9169467497987863e-08 0.0000000000000000e+00  -1.2442408031411991e-08 -1.6995938802595368e-08 0.0000000000000000e+00  -1.3656715361806596e-08 -1.3962620713327667e-08 0.0000000000000000e+00  -1.4375042300842654e-08 -1.0546999006399769e-08 0.0000000000000000e+00  -1.4756983263669737e-08 -7.0175718345537143e-09 0.0000000000000000e+00  -1.4930874306731858e-08 -3.4910288916256183e-09 0.0000000000000000e+00  -1.4976509305063321e-08 1.1030722922777047e-11 0.0000000000000000e+00  -1.4920627694426352e-08 3.5119305694058119e-09 0.0000000000000000e+00  -1.4736457647499881e-08 7.0343338375262868e-09 0.0000000000000000e+00  -1.4344730219774928e-08 1.0554535252686741e-08 0.0000000000000000e+00  -1.3618912743247719e-08 1.3952148851132645e-08 0.0000000000000000e+00  -1.2403059611053190e-08 1.6954147875265258e-08 0.0000000000000000e+00  -1.0556550121778142e-08 1.9081197698264058e-08 0.0000000000000000e+00  -8.0416637040960616e-09 1.9621478849061188e-08 0.0000000000000000e+00  -5.0528233084397062e-09 1.7681973528453841e-08 0.0000000000000000e+00  -2.1244546233040951e-09 1.2373722802390151e-08 0.0000000000000000e+00  6.4374493069128164e-11 3.5008292979500446e-09 0.0000000000000000e+00  1.8917623740980412e-10 -2.0471615382244825e-09 0.0000000000000000e+00  -1.7125938430269081e-09 -1.0009577879332364e-08 0.0000000000000000e+00  -4.3586852138155790e-09 -1.4755507000829043e-08 0.0000000000000000e+00  -7.3225701806381205e-09 -1.6803918452991771e-08 0.0000000000000000e+00  -1.0094221358385293e-08 -1.6735477048665087e-08 0.0000000000000000e+00  -1.2391303443361907e-08 -1.5191099438951553e-08 0.0000000000000000e+00  -1.4132597222604797e-08 -1.2730855720000706e-08 0.0000000000000000e+00  -1.5354851967744883e-08 -9.7702888635438991e-09 0.0000000000000000e+00  -1.6140811983658877e-08 -6.5766906843306785e-09 0.0000000000000000e+00  -1.6572749552482502e-08 -3.2964232083679827e-09 0.0000000000000000e+00  -1.6707435001467801e-08 6.1509981621779029e-12 0.0000000000000000e+00  -1.6564905368646718e-08 3.3073250690543640e-09 0.0000000000000000e+00  -1.6125484768053718e-08 6.5829432417137995e-09 0.0000000000000000e+00  -1.5333156541686268e-08 9.7673312340539079e-09 0.0000000000000000e+00  -1.4107145112466553e-08 1.2712227668687281e-08 0.0000000000000000e+00  -1.2366935040262151e-08 1.5148884165424332e-08 0.0000000000000000e+00  -1.0077718170683960e-08 1.6663188152127076e-08 0.0000000000000000e+00  -7.3197758939421586e-09 1.6703040496581152e-08 0.0000000000000000e+00  -4.3678726509062026e-09 1.4645648719818134e-08 0.0000000000000000e+00  -1.7202529242376468e-09 9.9428799082009679e-09 0.0000000000000000e+00  1.5982834583931589e-10 2.6010067973130755e-09 0.0000000000000000e+00  2.0698692940959805e-10 -1.4986456821545962e-09 0.0000000000000000e+00  -1.4043497154099857e-09 -7.8902588032654357e-09 0.0000000000000000e+00  -3.7377680343030607e-09 -1.1913871537821269e-08 0.0000000000000000e+00  -6.5110015700686276e-09 -1.3864043945974854e-08 0.0000000000000000e+00  -9.2820307885773636e-09 -1.4090727070884380e-08 0.0000000000000000e+00  -1.1747451122915226e-08 -1.3028108536140250e-08 0.0000000000000000e+00  -1.3758635804993225e-08 -1.1092878196174369e-08 0.0000000000000000e+00  -1.5275776161995702e-08 -8.6233276099746177e-09 0.0000000000000000e+00  -1.6317046540082327e-08 -5.8602097061847937e-09 0.0000000000000000e+00  -1.6919589308958626e-08 -2.9557464680752595e-09 0.0000000000000000e+00  -1.7114526976869571e-08 2.1119039757466676e-12 0.0000000000000000e+00  -1.6913736568975804e-08 2.9586022784243110e-09 0.0000000000000000e+00  -1.6305860514882135e-08 5.8587195664797643e-09 0.0000000000000000e+00  -1.5260542025037208e-08 8.6138798699518007e-09 0.0000000000000000e+00  -1.3741790137838670e-08 1.1071196376005304e-08 0.0000000000000000e+00  -1.1732755385301397e-08 1.2990043601001668e-08 0.0000000000000000e+00  -9.2738128707566085e-09 1.4034412427832948e-08 0.0000000000000000e+00  -6.5114792616533917e-09 1.3793405908439836e-08 0.0000000000000000e+00  -3.7423007905434450e-09 1.1843357159429643e-08 0.0000000000000000e+00  -1.4018413703112431e-09 7.8536549023145667e-09 0.0000000000000000e+00  1.9955286510335432e-10 1.9239847262207958e-09 0.0000000000000000e+00  2.0679020117607051e-10 -1.0815166632515744e-09 0.0000000000000000e+00  -1.1588452955408303e-09 -6.0882322355517008e-09 0.0000000000000000e+00  -3.1975585041677510e-09 -9.3669118554846720e-09 0.0000000000000000e+00  -5.7264962661162929e-09 -1.1082664181881325e-08 0.0000000000000000e+00  -8.3714214181183917e-09 -1.1441220913219910e-08 0.0000000000000000e+00  -1.0837066087532900e-08 -1.0730781599309834e-08 0.0000000000000000e+00  -1.2942650590165423e-08 -9.2515163762080493e-09 0.0000000000000000e+00  -1.4599662409554939e-08 -7.2657614411386900e-09 0.0000000000000000e+00  -1.5778532295006618e-08 -4.9756231852663268e-09 0.0000000000000000e+00  -1.6479199519847819e-08 -2.5225172881569169e-09 0.0000000000000000e+00  -1.6709924302851576e-08 -1.0382890946973384e-12 0.0000000000000000e+00  -1.6474959854431443e-08 2.5192571008234175e-09 0.0000000000000000e+00  -1.5770595934553959e-08 4.9687266068978924e-09 0.0000000000000000e+00  -1.4589254406973382e-08 7.2526094268973237e-09 0.0000000000000000e+00  -1.2931845961103461e-08 9.2295387436535725e-09 0.0000000000000000e+00  -1.0828698341449663e-08 1.0698196934656028e-08 0.0000000000000000e+00  -8.3682049262774783e-09 1.1398414567596762e-08 0.0000000000000000e+00  -5.7287040593043198e-09 1.1033887054053115e-08 0.0000000000000000e+00  -3.1996225894889003e-09 9.3223422078618792e-09 0.0000000000000000e+00  -1.1518514288425920e-09 6.0697785768554952e-09 0.0000000000000000e+00  2.1036760900715610e-10 1.4111066457921743e-09 0.0000000000000000e+00  1.9894371351688785e-10 -7.5857108006455354e-10 0.0000000000000000e+00  -9.6713154031714579e-10 -4.5521559988316017e-09 0.0000000000000000e+00  -2.7498963256775344e-09 -7.1065971891736312e-09 0.0000000000000000e+00  -5.0335045736727104e-09 -8.5156725211905886e-09 0.0000000000000000e+00  -7.5021260632949493e-09 -8.8964097269195928e-09 0.0000000000000000e+00  -9.8803323189406409e-09 -8.4357267071878860e-09 0.0000000000000000e+00  -1.1975976034718330e-08 -7.3430494146434651e-09 0.0000000000000000e+00  -1.3672335195216935e-08 -5.8128754464626908e-09 0.0000000000000000e+00  -1.4907644311950345e-08 -4.0047255914699592e-09 0.0000000000000000e+00  -1.5654390702643100e-08 -2.0388296104178038e-09 0.0000000000000000e+00  -1.5902956944857979e-08 -3.3688013797402509e-12 0.0000000000000000e+00  -1.5651435357110356e-08 2.0311498476853285e-09 0.0000000000000000e+00  -1.4902222565689493e-08 3.9942339377951264e-09 0.0000000000000000e+00  -1.3665493443652543e-08 5.7978123233875125e-09 0.0000000000000000e+00  -1.1969363587197767e-08 7.3220555370282352e-09 0.0000000000000000e+00  -9.8760046987810932e-09 8.4084132961775663e-09 0.0000000000000000e+00  -7.5017222667174094e-09 8.8641546287342697e-09 0.0000000000000000e+00  -5.0363643495528335e-09 8.4823001029108759e-09 0.0000000000000000e+00  -2.7506835967653840e-09 7.0791037557442781e-09 0.0000000000000000e+00  -9.5895737345009530e-10 4.5447526820114141e-09 0.0000000000000000e+00  2.0702640328909686e-10 1.0180355608550020e-09 0.0000000000000000e+00  1.8933362137274278e-10 -5.0180709484408114e-10 0.0000000000000000e+00  -8.2311676381164846e-10 -3.2285482454134595e-09 0.0000000000000000e+00  -2.4001919781844373e-09 -5.0967237402652717e-09 0.0000000000000000e+00  -4.4697922531023033e-09 -6.1653190681862177e-09 0.0000000000000000e+00  -6.7618944554036011e-09 -6.4979943977581664e-09 0.0000000000000000e+00  -9.0227989724596729e-09 -6.2116280272323220e-09 0.0000000000000000e+00  -1.1059676819690751e-08 -5.4458205715242085e-09 0.0000000000000000e+00  -1.2741065432138246e-08 -4.3367235837718039e-09 0.0000000000000000e+00  -1.3985149028854944e-08 -3.0015087468969088e-09 0.0000000000000000e+00  -1.4745860296613771e-08 -1.5333872150872617e-09 0.0000000000000000e+00  -1.5000911466071926e-08 -4.9966315470354263e-12 0.0000000000000000e+00  -1.4743910553247213e-08 1.5226852317471640e-09 0.0000000000000000e+00  -1.3981640446155578e-08 2.9887509513667385e-09 0.0000000000000000e+00  -1.2736806832059672e-08 4.3208143736107215e-09 0.0000000000000000e+00  -1.1055881880075785e-08 5.4262037657800225e-09 0.0000000000000000e+00  -9.0208774768451641e-09 6.1886914454761113e-09 0.0000000000000000e+00  -6.7627806185032084e-09 6.4734854313363043e-09 0.0000000000000000e+00  -4.4725366982056386e-09 6.1424704836126545e-09 0.0000000000000000e+00  -2.4003738103809095e-09 5.0803042065340180e-09 0.0000000000000000e+00  -8.1572855853783691e-10 3.2278351292593618e-09 0.0000000000000000e+00  1.9797822696946583e-10 7.1140694078639435e-10 0.0000000000000000e+00  1.8131940899317221e-10 -2.8913508703983382e-10 0.0000000000000000e+00  -7.2261401830017090e-10 -2.0635976322040515e-09 0.0000000000000000e+00  -2.1504218121595040e-09 -3.2846957022992038e-09 0.0000000000000000e+00  -4.0567976820514550e-09 -4.0000847247242225e-09 0.0000000000000000e+00  -6.2041749173716862e-09 -4.2420209473439711e-09 0.0000000000000000e+00  -8.3571374385447495e-09 -4.0780621276685150e-09 0.0000000000000000e+00  -1.0326301965913142e-08 -3.5