<?xml version="1.0"?>
<VTKFile type="UnstructuredGrid"  version="0.1"  >
<UnstructuredGrid>
<Piece  NumberOfPoints="651" NumberOfCells="1200">
<Points>
<DataArray  type="Float64"  NumberOfComponents="3"  format="ascii">0 0 0  50000 0 0  100000 0 0  150000 0 0  200000 0 0  250000 0 0  300000 0 0  350000 0 0  400000 0 0  450000 0 0  500000 0 0  550000 0 0  600000 0 0  650000 0 0  700000 0 0  750000 0 0  800000 0 0  850000 0 0  900000 0 0  950000 0 0  1000000 0 0  0 50000 0  50000 50000 0  100000 50000 0  150000 50000 0  200000 50000 0  250000 50000 0  300000 50000 0  350000 50000 0  400000 50000 0  450000 50000 0  500000 50000 0  550000 50000 0  600000 50000 0  650000 50000 0  700000 50000 0  750000 50000 0  800000 50000 0  850000 50000 0  900000 50000 0  950000 50000 0  1000000 50000 0  0 100000 0  50000 100000 0  100000 100000 0  150000 100000 0  200000 100000 0  250000 100000 0  300000 100000 0  350000 100000 0  400000 100000 0  450000 100000 0  500000 100000 0  550000 100000 0  600000 100000 0  650000 100000 0  700000 100000 0  750000 100000 0  800000 100000 0  850000 100000 0  900000 100000 0  950000 100000 0  1000000 100000 0  0 150000 0  50000 150000 0  100000 150000 0  150000 150000 0  200000 150000 0  250000 150000 0  300000 150000 0  350000 150000 0  400000 150000 0  450000 150000 0  500000 150000 0  550000 150000 0  600000 150000 0  650000 150000 0  700000 150000 0  750000 150000 0  800000 150000 0  850000 150000 0  900000 150000 0  950000 150000 0  1000000 150000 0  0 200000 0  50000 200000 0  100000 200000 0  150000 200000 0  200000 200000 0  250000 200000 0  300000 200000 0  350000 200000 0  400000 200000 0  450000 200000 0  500000 200000 0  550000 200000 0  600000 200000 0  650000 200000 0  700000 200000 0  750000 200000 0  800000 200000 0  850000 200000 0  900000 200000 0  950000 200000 0  1000000 200000 0  0 250000 0  50000 250000 0  100000 250000 0  150000 250000 0  200000 250000 0  250000 250000 0  300000 250000 0  350000 250000 0  400000 250000 0  450000 250000 0  500000 250000 0  550000 250000 0  600000 250000 0  650000 250000 0  700000 250000 0  750000 250000 0  800000 250000 0  850000 250000 0  900000 250000 0  950000 250000 0  1000000 250000 0  0 300000 0  50000 300000 0  100000 300000 0  150000 300000 0  200000 300000 0  250000 300000 0  300000 300000 0  350000 300000 0  400000 300000 0  450000 300000 0  500000 300000 0  550000 300000 0  600000 300000 0  650000 300000 0  700000 300000 0  750000 300000 0  800000 300000 0  850000 300000 0  900000 300000 0  950000 300000 0  1000000 300000 0  0 350000 0  50000 350000 0  100000 350000 0  150000 350000 0  200000 350000 0  250000 350000 0  300000 350000 0  350000 350000 0  400000 350000 0  450000 350000 0  500000 350000 0  550000 350000 0  600000 350000 0  650000 350000 0  700000 350000 0  750000 350000 0  800000 350000 0  850000 350000 0  900000 350000 0  950000 350000 0  1000000 350000 0  0 400000 0  50000 400000 0  100000 400000 0  150000 400000 0  200000 400000 0  250000 400000 0  300000 400000 0  350000 400000 0  400000 400000 0  450000 400000 0  500000 400000 0  550000 400000 0  600000 400000 0  650000 400000 0  700000 400000 0  750000 400000 0  800000 400000 0  850000 400000 0  900000 400000 0  950000 400000 0  1000000 400000 0  0 450000 0  50000 450000 0  100000 450000 0  150000 450000 0  200000 450000 0  250000 450000 0  300000 450000 0  350000 450000 0  400000 450000 0  450000 450000 0  500000 450000 0  550000 450000 0  600000 450000 0  650000 450000 0  700000 450000 0  750000 450000 0  800000 450000 0  850000 450000 0  900000 450000 0  950000 450000 0  1000000 450000 0  0 500000 0  50000 500000 0  100000 500000 0  150000 500000 0  200000 500000 0  250000 500000 0  300000 500000 0  350000 500000 0  400000 500000 0  450000 500000 0  500000 500000 0  550000 500000 0  600000 500000 0  650000 500000 0  700000 500000 0  750000 500000 0  800000 500000 0  850000 500000 0  900000 500000 0  950000 500000 0  1000000 500000 0  0 550000 0  50000 550000 0  100000 550000 0  150000 550000 0  200000 550000 0  250000 550000 0  300000 550000 0  350000 550000 0  400000 550000 0  450000 550000 0  500000 550000 0  550000 550000 0  600000 550000 0  650000 550000 0  700000 550000 0  750000 550000 0  800000 550000 0  850000 550000 0  900000 550000 0  950000 550000 0  1000000 550000 0  0 600000 0  50000 600000 0  100000 600000 0  150000 600000 0  200000 600000 0  250000 600000 0  300000 600000 0  350000 600000 0  400000 600000 0  450000 600000 0  500000 600000 0  550000 600000 0  600000 600000 0  650000 600000 0  700000 600000 0  750000 600000 0  800000 600000 0  850000 600000 0  900000 600000 0  950000 600000 0  1000000 600000 0  0 650000 0  50000 650000 0  100000 650000 0  150000 650000 0  200000 650000 0  250000 650000 0  300000 650000 0  350000 650000 0  400000 650000 0  450000 650000 0  500000 650000 0  550000 650000 0  600000 650000 0  650000 650000 0  700000 650000 0  750000 650000 0  800000 650000 0  850000 650000 0  900000 650000 0  950000 650000 0  1000000 650000 0  0 700000 0  50000 700000 0  100000 700000 0  150000 700000 0  200000 700000 0  250000 700000 0  300000 700000 0  350000 700000 0  400000 700000 0  450000 700000 0  500000 700000 0  550000 700000 0  600000 700000 0  650000 700000 0  700000 700000 0  750000 700000 0  800000 700000 0  850000 700000 0  900000 700000 0  950000 700000 0  1000000 700000 0  0 750000 0  50000 750000 0  100000 750000 0  150000 750000 0  200000 750000 0  250000 750000 0  300000 750000 0  350000 750000 0  400000 750000 0  450000 750000 0  500000 750000 0  550000 750000 0  600000 750000 0  650000 750000 0  700000 750000 0  750000 750000 0  800000 750000 0  850000 750000 0  900000 750000 0  950000 750000 0  1000000 750000 0  0 800000 0  50000 800000 0  100000 800000 0  150000 800000 0  200000 800000 0  250000 800000 0  300000 800000 0  350000 800000 0  400000 800000 0  450000 800000 0  500000 800000 0  550000 800000 0  600000 800000 0  650000 800000 0  700000 800000 0  750000 800000 0  800000 800000 0  850000 800000 0  900000 800000 0  950000 800000 0  1000000 800000 0  0 850000 0  50000 850000 0  100000 850000 0  150000 850000 0  200000 850000 0  250000 850000 0  300000 850000 0  350000 850000 0  400000 850000 0  450000 850000 0  500000 850000 0  550000 850000 0  600000 850000 0  650000 850000 0  700000 850000 0  750000 850000 0  800000 850000 0  850000 850000 0  900000 850000 0  950000 850000 0  1000000 850000 0  0 900000 0  50000 900000 0  100000 900000 0  150000 900000 0  200000 900000 0  250000 900000 0  300000 900000 0  350000 900000 0  400000 900000 0  450000 900000 0  500000 900000 0  550000 900000 0  600000 900000 0  650000 900000 0  700000 900000 0  750000 900000 0  800000 900000 0  850000 900000 0  900000 900000 0  950000 900000 0  1000000 900000 0  0 950000 0  50000 950000 0  100000 950000 0  150000 950000 0  200000 950000 0  250000 950000 0  300000 950000 0  350000 950000 0  400000 950000 0  450000 950000 0  500000 950000 0  550000 950000 0  600000 950000 0  650000 950000 0  700000 950000 0  750000 950000 0  800000 950000 0  850000 950000 0  900000 950000 0  950000 950000 0  1000000 950000 0  0 1000000 0  50000 1000000 0  100000 1000000 0  150000 1000000 0  200000 1000000 0  250000 1000000 0  300000 1000000 0  350000 1000000 0  400000 1000000 0  450000 1000000 0  500000 1000000 0  550000 1000000 0  600000 1000000 0  650000 1000000 0  700000 1000000 0  750000 1000000 0  800000 1000000 0  850000 1000000 0  900000 1000000 0  950000 1000000 0  1000000 1000000 0  0 1050000 0  50000 1050000 0  100000 1050000 0  150000 1050000 0  200000 1050000 0  250000 1050000 0  300000 1050000 0  350000 1050000 0  400000 1050000 0  450000 1050000 0  500000 1050000 0  550000 1050000 0  600000 1050000 0  650000 1050000 0  700000 1050000 0  750000 1050000 0  800000 1050000 0  850000 1050000 0  900000 1050000 0  950000 1050000 0  1000000 1050000 0  0 1100000 0  50000 1100000 0  100000 1100000 0  150000 1100000 0  200000 1100000 0  250000 1100000 0  300000 1100000 0  350000 1100000 0  400000 1100000 0  450000 1100000 0  500000 1100000 0  550000 1100000 0  600000 1100000 0  650000 1100000 0  700000 1100000 0  750000 1100000 0  800000 1100000 0  850000 1100000 0  900000 1100000 0  950000 1100000 0  1000000 1100000 0  0 1150000 0  50000 1150000 0  100000 1150000 0  150000 1150000 0  200000 1150000 0  250000 1150000 0  300000 1150000 0  350000 1150000 0  400000 1150000 0  450000 1150000 0  500000 1150000 0  550000 1150000 0  600000 1150000 0  650000 1150000 0  700000 1150000 0  750000 1150000 0  800000 1150000 0  850000 1150000 0  900000 1150000 0  950000 1150000 0  1000000 1150000 0  0 1200000 0  50000 1200000 0  100000 1200000 0  150000 1200000 0  200000 1200000 0  250000 1200000 0  300000 1200000 0  350000 1200000 0  400000 1200000 0  450000 1200000 0  500000 1200000 0  550000 1200000 0  600000 1200000 0  650000 1200000 0  700000 1200000 0  750000 1200000 0  800000 1200000 0  850000 1200000 0  900000 1200000 0  950000 1200000 0  1000000 1200000 0  0 1250000 0  50000 1250000 0  100000 1250000 0  150000 1250000 0  200000 1250000 0  250000 1250000 0  300000 1250000 0  350000 1250000 0  400000 1250000 0  450000 1250000 0  500000 1250000 0  550000 1250000 0  600000 1250000 0  650000 1250000 0  700000 1250000 0  750000 1250000 0  800000 1250000 0  850000 1250000 0  900000 1250000 0  950000 1250000 0  1000000 1250000 0  0 1300000 0  50000 1300000 0  100000 1300000 0  150000 1300000 0  200000 1300000 0  250000 1300000 0  300000 1300000 0  350000 1300000 0  400000 1300000 0  450000 1300000 0  500000 1300000 0  550000 1300000 0  600000 1300000 0  650000 1300000 0  700000 1300000 0  750000 1300000 0  800000 1300000 0  850000 1300000 0  900000 1300000 0  950000 1300000 0  1000000 1300000 0  0 1350000 0  50000 1350000 0  100000 1350000 0  150000 1350000 0  200000 1350000 0  250000 1350000 0  300000 1350000 0  350000 1350000 0  400000 1350000 0  450000 1350000 0  500000 1350000 0  550000 1350000 0  600000 1350000 0  650000 1350000 0  700000 135
[...]
<PointData  Vectors="f_3007"> 
<DataArray  type="Float64"  Name="f_3007"  NumberOfComponents="3" format="ascii">-1.5183872347546705e-08 -8.5201816007230613e-09 0.0000000000000000e+00  6.4041630365688125e-08 -5.3447709025152187e-09 0.0000000000000000e+00  6.7328371519632268e-08 -1.5233461161896440e-09 0.0000000000000000e+00  7.1042936402099738e-08 -3.0224113396091833e-10 0.0000000000000000e+00  7.3805462054431038e-08 9.1468667080458082e-11 0.0000000000000000e+00  7.5576409674320298e-08 2.0227459892344776e-10 0.0000000000000000e+00  7.6667515878093986e-08 2.0096610116481387e-10 0.0000000000000000e+00  7.7320959439877582e-08 1.5650435855944039e-10 0.0000000000000000e+00  7.7689030442961377e-08 9.7686451334357532e-11 0.0000000000000000e+00  7.7858484068932484e-08 3.5191568172710281e-11 0.0000000000000000e+00  7.7869625592394685e-08 -2.8356780141041124e-11 0.0000000000000000e+00  7.7726008239770218e-08 -9.3093374006353478e-11 0.0000000000000000e+00  7.7395706638761713e-08 -1.5812416181993897e-10 0.0000000000000000e+00  7.6805124183169252e-08 -2.1677660303575696e-10 0.0000000000000000e+00  7.5827702010049808e-08 -2.4717948272594613e-10 0.0000000000000000e+00  7.4280306991343180e-08 -1.8924383205562893e-10 0.0000000000000000e+00  7.1982262371659753e-08 1.1642992425700291e-10 0.0000000000000000e+00  6.9052783625078879e-08 1.0859555326284561e-09 0.0000000000000000e+00  6.6554079448366075e-08 3.7077758858548010e-09 0.0000000000000000e+00  6.5197261750078716e-08 8.6025097300295814e-09 0.0000000000000000e+00  -1.3270721832981338e-08 7.3586298776367712e-09 0.0000000000000000e+00  -1.0762399742344303e-08 -1.1742790572580661e-08 0.0000000000000000e+00  7.5350290777539522e-09 -1.7645186978754237e-08 0.0000000000000000e+00  2.1184052585530129e-08 -1.2289513272864563e-08 0.0000000000000000e+00  3.1642575583701674e-08 -8.1458808575817272e-09 0.0000000000000000e+00  3.9205464511259004e-08 -5.3639123082035317e-09 0.0000000000000000e+00  4.4522524322242106e-08 -3.5102114544054412e-09 0.0000000000000000e+00  4.8150586297003605e-08 -2.2690949750894319e-09 0.0000000000000000e+00  5.0549419166440409e-08 -1.4260749261902218e-09 0.0000000000000000e+00  5.2050365314481860e-08 -8.3388554643008248e-10 0.0000000000000000e+00  5.2870003254390312e-08 -3.8844130439698247e-10 0.0000000000000000e+00  5.3129935972495880e-08 -1.1039494804936692e-11 0.0000000000000000e+00  5.2870255705946873e-08 3.6554962838844806e-10 0.0000000000000000e+00  5.2054641321482819e-08 8.0948615309761332e-10 0.0000000000000000e+00  5.0567084943777549e-08 1.4032891701335996e-09 0.0000000000000000e+00  4.8201444928697675e-08 2.2618793844028187e-09 0.0000000000000000e+00  4.4647659564735657e-08 3.5616004432536522e-09 0.0000000000000000e+00  3.9484159733865414e-08 5.5903243134833020e-09 0.0000000000000000e+00  3.2182142705379825e-08 8.8182078755819113e-09 0.0000000000000000e+00  2.2018663678491677e-08 1.3820759155745812e-08 0.0000000000000000e+00  7.6254015249027250e-09 1.9892607753395624e-08 0.0000000000000000e+00  -1.2931599634330402e-08 1.0039721593663763e-08 0.0000000000000000e+00  -4.9919249306668007e-09 -1.1623824583786672e-08 0.0000000000000000e+00  -3.0841410229337930e-09 -2.5565430846148369e-08 0.0000000000000000e+00  1.4420632823734980e-09 -2.1962742902373186e-08 0.0000000000000000e+00  8.2889110473300210e-09 -1.6407598362838105e-08 0.0000000000000000e+00  1.5125224134430720e-08 -1.1680148590357392e-08 0.0000000000000000e+00  2.0689767243200262e-08 -8.0992651704583053e-09 0.0000000000000000e+00  2.4845399342457819e-08 -5.4742660050257760e-09 0.0000000000000000e+00  2.7772544493078433e-08 -3.5561866067503749e-09 0.0000000000000000e+00  2.9688361905909804e-08 -2.1220264448188476e-09 0.0000000000000000e+00  3.0767147375178551e-08 -9.8611011555721845e-10 0.0000000000000000e+00  3.1117766294289791e-08 8.6617164701667065e-12 0.0000000000000000e+00  3.0778580759625644e-08 1.0048535794455976e-09 0.0000000000000000e+00  2.9717448940396199e-08 2.1462106808999464e-09 0.0000000000000000e+00  2.7834139894071824e-08 3.5942558631804326e-09 0.0000000000000000e+00  2.4968754013085869e-08 5.5452536625229677e-09 0.0000000000000000e+00  2.0928045230635208e-08 8.2436076055699347e-09 0.0000000000000000e+00  1.5557651630578602e-08 1.1969378901348830e-08 0.0000000000000000e+00  8.9215971993537447e-09 1.6902860651218628e-08 0.0000000000000000e+00  1.7143040431743327e-09 2.2470100731915665e-08 0.0000000000000000e+00  -3.9868989454380067e-09 2.4953997503780418e-08 0.0000000000000000e+00  -7.3534353442304876e-09 1.0640193506808654e-08 0.0000000000000000e+00  -2.0849063382582627e-09 -9.2562860268718875e-09 0.0000000000000000e+00  -4.3406963223432673e-09 -2.4768258050923115e-08 0.0000000000000000e+00  -5.0209235861794535e-09 -2.5908621541727319e-08 0.0000000000000000e+00  -2.8373368393598656e-09 -2.1732686672811742e-08 0.0000000000000000e+00  8.8405681650685147e-10 -1.6733078716593394e-08 0.0000000000000000e+00  4.7491744245704805e-09 -1.2270365714668292e-08 0.0000000000000000e+00  8.0641215068866286e-09 -8.6454731373716157e-09 0.0000000000000000e+00  1.0609374341616379e-08 -5.7915497611400163e-09 0.0000000000000000e+00  1.2371972842367676e-08 -3.5302929841724750e-09 0.0000000000000000e+00  1.3400583409710498e-08 -1.6597191666644977e-09 0.0000000000000000e+00  1.3742337571428824e-08 1.9370687030517048e-11 0.0000000000000000e+00  1.3417052890337838e-08 1.7007627565661958e-09 0.0000000000000000e+00  1.2410763358834000e-08 3.5789650980750062e-09 0.0000000000000000e+00  1.0683926930933397e-08 5.8554218009610827e-09 0.0000000000000000e+00  8.1983816035909954e-09 8.7354068394805737e-09 0.0000000000000000e+00  4.9759939301323740e-09 1.2396751966389794e-08 0.0000000000000000e+00  1.2120042617556794e-09 1.6881524067824369e-08 0.0000000000000000e+00  -2.5319492597026254e-09 2.1789007871654229e-08 0.0000000000000000e+00  -5.0992881548455933e-09 2.5513112455450973e-08 0.0000000000000000e+00  -4.9810618967573287e-09 2.3887586018688133e-08 0.0000000000000000e+00  -3.2429813982906089e-09 9.9323306934657533e-09 0.0000000000000000e+00  -8.1515294304829703e-10 -6.9214777547666867e-09 0.0000000000000000e+00  -3.9499694465225004e-09 -2.1483916211855621e-08 0.0000000000000000e+00  -6.6767248594955569e-09 -2.5337839858846708e-08 0.0000000000000000e+00  -7.5004500464577509e-09 -2.3442056915332192e-08 0.0000000000000000e+00  -6.6370437113803467e-09 -1.9382725768941665e-08 0.0000000000000000e+00  -4.9153642621401866e-09 -1.4986918490788758e-08 0.0000000000000000e+00  -3.0242057019898493e-09 -1.0988162871281443e-08 0.0000000000000000e+00  -1.3594587397940928e-09 -7.5813742579415604e-09 0.0000000000000000e+00  -1.0698581084157991e-10 -4.7181160354547174e-09 0.0000000000000000e+00  6.6123477390498944e-10 -2.2469994940756328e-09 0.0000000000000000e+00  9.2405572109246826e-10 2.2756235763919127e-11 0.0000000000000000e+00  6.7896526420879738e-10 2.2942225276432138e-09 0.0000000000000000e+00  -6.7418816574153404e-11 4.7704186234864668e-09 0.0000000000000000e+00  -1.2894427192453455e-09 7.6413947705435248e-09 0.0000000000000000e+00  -2.9115306171976519e-09 1.1054612048235172e-08 0.0000000000000000e+00  -4.7525030869810499e-09 1.5044292365229462e-08 0.0000000000000000e+00  -6.4475778725162512e-09 1.9377023847146873e-08 0.0000000000000000e+00  -7.3834175550096777e-09 2.3251666048126035e-08 0.0000000000000000e+00  -6.7811349053190266e-09 2.4828337208593057e-08 0.0000000000000000e+00  -4.2757535577778028e-09 2.0882238047273168e-08 0.0000000000000000e+00  -1.3826204052994176e-09 8.1574405609131846e-09 0.0000000000000000e+00  -2.4558039620654073e-10 -5.0805000061186769e-09 0.0000000000000000e+00  -3.2879870163672059e-09 -1.7821278004953542e-08 0.0000000000000000e+00  -6.6086139007856843e-09 -2.2718752053609132e-08 0.0000000000000000e+00  -8.9724698161514228e-09 -2.2573740676287977e-08 0.0000000000000000e+00  -1.0031485762194105e-08 -1.9792076213737386e-08 0.0000000000000000e+00  -1.0084374124489206e-08 -1.6031226471578694e-08 0.0000000000000000e+00  -9.5842252953388098e-09 -1.2185960319432328e-08 0.0000000000000000e+00  -8.9034814603372951e-09 -8.6404872789553587e-09 0.0000000000000000e+00  -8.2850852302621067e-09 -5.4829537636456639e-09 0.0000000000000000e+00  -7.8669087440613363e-09 -2.6445353283552706e-09 0.0000000000000000e+00  -7.7158093349585583e-09 1.9680332926105764e-11 0.0000000000000000e+00  -7.8507206292467496e-09 2.6844626464698095e-09 0.0000000000000000e+00  -8.2505368360365520e-09 5.5239591182658773e-09 0.0000000000000000e+00  -8.8466899666644362e-09 8.6805553716629253e-09 0.0000000000000000e+00  -9.5018157447818664e-09 1.2216413717235039e-08 0.0000000000000000e+00  -9.9803203723526166e-09 1.6028696982166492e-08 0.0000000000000000e+00  -9.9304024069948803e-09 1.9708605010886340e-08 0.0000000000000000e+00  -8.9279727021685269e-09 2.2342379361225179e-08 0.0000000000000000e+00  -6.6753999247794206e-09 2.2327964848256501e-08 0.0000000000000000e+00  -3.4444286553800227e-09 1.7464492777136945e-08 0.0000000000000000e+00  -5.2460266335171887e-10 6.2552506419558440e-09 0.0000000000000000e+00  1.4759380212139470e-11 -3.7126853332806881e-09 0.0000000000000000e+00  -2.6605886759449862e-09 -1.4425590549025403e-08 0.0000000000000000e+00  -5.9354449315406716e-09 -1.9420984937606641e-08 0.0000000000000000e+00  -8.9056328182123276e-09 -2.0315220785145803e-08 0.0000000000000000e+00  -1.1029622268049344e-08 -1.8646541681320206e-08 0.0000000000000000e+00  -1.2271404097300618e-08 -1.5696521470149960e-08 0.0000000000000000e+00  -1.2842541919870112e-08 -1.2309725308725226e-08 0.0000000000000000e+00  -1.3004047539801354e-08 -8.9420496094521259e-09 0.0000000000000000e+00  -1.2972653506648307e-08 -5.7745559309638803e-09 0.0000000000000000e+00  -1.2896296005893665e-08 -2.8172619563750752e-09 0.0000000000000000e+00  -1.2857701772610024e-08 1.4314839313459313e-11 0.0000000000000000e+00  -1.2882914702695396e-08 2.8454518383412223e-09 0.0000000000000000e+00  -1.2945116315216565e-08 5.8006340009572970e-09 0.0000000000000000e+00  -1.2961469220765924e-08 8.9615646351063637e-09 0.0000000000000000e+00  -1.2785877916286000e-08 1.2312408415437039e-08 0.0000000000000000e+00  -1.2207408155790084e-08 1.5662524018360534e-08 0.0000000000000000e+00  -1.0975495804099042e-08 1.8545854661512267e-08 0.0000000000000000e+00  -8.8873745876165296e-09 2.0122047788160731e-08 0.0000000000000000e+00  -5.9709744969965307e-09 1.9156773088200632e-08 0.0000000000000000e+00  -2.7302393580832012e-09 1.4221225421654580e-08 0.0000000000000000e+00  -1.1825509413200594e-10 4.6665194783662694e-09 0.0000000000000000e+00  1.2918603180050252e-10 -2.7109962109730793e-09 0.0000000000000000e+00  -2.1256043202927189e-09 -1.1482140718210921e-08 0.0000000000000000e+00  -5.0908698062167054e-09 -1.6093081503527050e-08 0.0000000000000000e+00  -8.1404161026923744e-09 -1.7485192206414580e-08 0.0000000000000000e+00  -1.0720245406777203e-08 -1.6625075411817780e-08 0.0000000000000000e+00  -1.2625090954552717e-08 -1.4436360037005708e-08 0.0000000000000000e+00  -1.3890776316976348e-08 -1.1620528345617886e-08 0.0000000000000000e+00  -1.4657917900693530e-08 -8.6182365739384944e-09 0.0000000000000000e+00  -1.5080492130507307e-08 -5.6508837267025885e-09 0.0000000000000000e+00  -1.5281377627674288e-08 -2.7846572478103240e-09 0.0000000000000000e+00  -1.5336434148546009e-08 8.7264224457650224e-12 0.0000000000000000e+00  -1.5270987005597975e-08 2.8010643181636872e-09 0.0000000000000000e+00  -1.5059733502294612e-08 5.6634739766015335e-09 0.0000000000000000e+00  -1.4627399228805510e-08 8.6220724447698199e-09 0.0000000000000000e+00  -1.3852984001117511e-08 1.1606873454289824e-08 0.0000000000000000e+00  -1.2586263787467089e-08 1.4391806382383290e-08 0.0000000000000000e+00  -1.0691273564077959e-08 1.6534239347643948e-08 0.0000000000000000e+00  -8.1333481411289148e-09 1.7342054400436941e-08 0.0000000000000000e+00  -5.1085091890807133e-09 1.5921553416457524e-08 0.0000000000000000e+00  -2.1514888850295310e-09 1.1366900702332178e-08 0.0000000000000000e+00  7.2064046637502493e-11 3.4455918192392835e-09 0.0000000000000000e+00  1.7234895861435920e-10 -1.9773019340301475e-09 0.0000000000000000e+00  -1.6879820124390052e-09 -9.0128247749962357e-09 0.0000000000000000e+00  -4.2594627424568975e-09 -1.3023870852348868e-08 0.0000000000000000e+00  -7.1217482716397355e-09 -1.4561266799535294e-08 0.0000000000000000e+00  -9.7802977827781372e-09 -1.4226503513426443e-08 0.0000000000000000e+00  -1.1964928470093189e-08 -1.2662308679415720e-08 0.0000000000000000e+00  -1.3604514131706613e-08 -1.0411869102523406e-08 0.0000000000000000e+00  -1.4743215876272997e-08 -7.8565100581442638e-09 0.0000000000000000e+00  -1.5468047453369642e-08 -5.2182516330274027e-09 0.0000000000000000e+00  -1.5863065682703068e-08 -2.5935213721236920e-09 0.0000000000000000e+00  -1.5985478180220954e-08 3.8272135104027036e-12 0.0000000000000000e+00  -1.5855361123391324e-08 2.5999077280426520e-09 0.0000000000000000e+00  -1.5453040914042596e-08 5.2203721375481815e-09 0.0000000000000000e+00  -1.4722103105371694e-08 7.8500159752981859e-09 0.0000000000000000e+00  -1.3580027563717420e-08 1.0390448635747151e-08 0.0000000000000000e+00  -1.1942054070809583e-08 1.2618114490590072e-08 0.0000000000000000e+00  -9.7657932258648904e-09 1.4153062727544366e-08 0.0000000000000000e+00  -7.1206436620853216e-09 1.4460327863571593e-08 0.0000000000000000e+00  -4.2680369013478246e-09 1.2914686204233215e-08 0.0000000000000000e+00  -1.6925178485558235e-09 8.9496176362926416e-09 0.0000000000000000e+00  1.5453482366166747e-10 2.5334045009697966e-09 0.0000000000000000e+00  1.8116443864937937e-10 -1.4361911248965509e-09 0.0000000000000000e+00  -1.3401577834302602e-09 -6.9753761998303928e-09 0.0000000000000000e+00  -3.5220017909623621e-09 -1.0318830564896498e-08 0.0000000000000000e+00  -6.0879404910486325e-09 -1.1791160917419197e-08 0.0000000000000000e+00  -8.6217169625400756e-09 -1.1764037712959009e-08 0.0000000000000000e+00  -1.0844318868229563e-08 -1.0675752188452786e-08 0.0000000000000000e+00  -1.2628844289661889e-08 -8.9295096709390974e-09 0.0000000000000000e+00  -1.3953297700994155e-08 -6.8335498169577764e-09 0.0000000000000000e+00  -1.4848866513031825e-08 -4.5873449532775170e-09 0.0000000000000000e+00  -1.5361073092503424e-08 -2.2963251216177873e-09 0.0000000000000000e+00  -1.5525555985756185e-08 -8.3073423610535227e-14 0.0000000000000000e+00  -1.5355602444071668e-08 2.2949347985780293e-09 0.0000000000000000e+00  -1.4838463473518857e-08 4.5820299443522380e-09 0.0000000000000000e+00  -1.3939279134960389e-08 6.8209454350375678e-09 0.0000000000000000e+00  -1.2613682866721043e-08 8.9055406681812566e-09 0.0000000000000000e+00  -1.0831783368459136e-08 1.0636423021440000e-08 0.0000000000000000e+00  -8.6159413029124983e-09 1.1707601354005095e-08 0.0000000000000000e+00  -6.0903229943697098e-09 1.1721797551225671e-08 0.0000000000000000e+00  -3.5263126046744742e-09 1.0250533286461380e-08 0.0000000000000000e+00  -1.3352136074328106e-09 6.9427567193206957e-09 0.0000000000000000e+00  1.8263503180427090e-10 1.8565837399914572e-09 0.0000000000000000e+00  1.7478764549594195e-10 -1.0318267536415377e-09 0.0000000000000000e+00  -1.0716324494187142e-09 -5.3028326636916556e-09 0.0000000000000000e+00  -2.9104766056603190e-09 -7.9868496005338200e-09 0.0000000000000000e+00  -5.1622699483419597e-09 -9.2788433465664415e-09 0.0000000000000000e+00  -7.4846473403690449e-09 -9.4071222319493701e-09 0.0000000000000000e+00  -9.6153021910710824e-09 -8.6662173183630434e-09 0.0000000000000000e+00  -1.1403922635469519e-08 -7.3465605182007372e-09 0.0000000000000000e+00  -1.2788025723746982e-08 -5.6855355563275533e-09 0.0000000000000000e+00  -1.3758234129898440e-08 -3.8495324936515629e-09 0.0000000000000000e+00  -1.4328456397756935e-08 -1.9384116616545032e-09 0.0000000000000000e+00  -1.4515007182211432e-08 -2.9922762362113589e-12 0.0000000000000000e+00  -1.4324753540175790e-08 1.9313908104143931e-09 0.0000000000000000e+00  -1.3751368528469494e-08 3.8393062353444793e-09 0.0000000000000000e+00  -1.2779209190408542e-08 5.6697368300932039e-09 0.0000000000000000e+00  -1.1395194070564407e-08 7.3228264771288065e-09 0.0000000000000000e+00  -9.6094023236442856e-09 8.6329313121366436e-09 0.0000000000000000e+00  -7.4840188417576907e-09 9.3647963753225779e-09 0.0000000000000000e+00  -5.1664950888565425e-09 9.2319170609981243e-09 0.0000000000000000e+00  -2.9129176909203135e-09 7.9449922211317748e-09 0.0000000000000000e+00  -1.0634955660655899e-09 5.2881581689460813e-09 0.0000000000000000e+00  1.8437705287207697e-10 1.3524908549170482e-09 0.0000000000000000e+00  1.6330658719744261e-10 -7.2298532878053848e-10 0.0000000000000000e+00  -8.7123770964712952e-10 -3.9217686621926738e-09 0.0000000000000000e+00  -2.4312430885165644e-09 -5.9875366918409262e-09 0.0000000000000000e+00  -4.4004207237050242e-09 -7.0427816346434511e-09 0.0000000000000000e+00  -6.4971985576913625e-09 -7.2266601648429165e-09 0.0000000000000000e+00  -8.4841875629562055e-09 -6.7337904608852488e-09 0.0000000000000000e+00  -1.0205604209803286e-08 -5.7673212253777195e-09 0.0000000000000000e+00  -1.1576729664487914e-08 -4.5022427699942648e-09 0.0000000000000000e+00  -1.2561477816887674e-08 -3.0689271646255822e-09 0.0000000000000000e+00  -1.3150730686834961e-08 -1.5528622171280299e-09 0.0000000000000000e+00  -1.3345793696230561e-08 -5.0210918610010936e-12 0.0000000000000000e+00  -1.3148361137015008e-08 1.5420209375274681e-09 0.0000000000000000e+00  -1.2557209841400216e-08 3.0556895019757900e-09 0.0000000000000000e+00  -1.1571566417135353e-08 4.4850827194273963e-09 0.0000000000000000e+00  -1.0201113475804191e-08 5.7450591780116122e-09 0.0000000000000000e+00  -8.4822788050950478e-09 6.7061643942329341e-09 0.0000000000000000e+00  -6.4992300735882253e-09 7.1951207254172623e-09 0.0000000000000000e+00  -4.4052197541708905e-09 7.0112469608746946e-09 0.0000000000000000e+00  -2.4328786631072632e-09 5.9624825928708321e-09 0.0000000000000000e+00  -8.6310711292452888e-10 3.9174504941299054e-09 0.0000000000000000e+00  1.7486827018467356e-10 9.7235821999537800e-10 0.0000000000000000e+00  1.5195152926474673e-10 -4.7901164193089117e-10 0.0000000000000000e+00  -7.2818037580469534e-10 -2.7613789577725500e-09 0.0000000000000000e+00  -2.0774390310547614e-09 -4.2584290307978262e-09 0.0000000000000000e+00  -3.8191374961107582e-09 -5.0541006278721584e-09 0.0000000000000000e+00  -5.7173207285347554e-09 -5.2316456130206695e-09 0.0000000000000000e+00  -7.5586862849520438e-09 -4.9156301437541523e-09 0.0000000000000000e+00  -9.1902866870544666e-09 -4.2421127954274866e-09 0.0000000000000000e+00  -1.0516643153078363e-08 -3.3330864173721381e-09 0.0000000000000000e+00  -1.1485510153782564e-08 -2.2836751850728428e-09 0.0000000000000000e+00  -1.2072475204944490e-08 -1.1602576188362644e-09 0.0000000000000000e+00  -1.2268336639197526e-08 -6.3437972319980632e-12 0.0000000000000000e+00  -1.2071059592795265e-08 1.1469952030080733e-09 0.0000000000000000e+00  -1.1483045918909222e-08 2.2687415321183229e-09 0.0000000000000000e+00  -1.0513884693991028e-08 3.3155883327185393e-09 0.0000000000000000e+00  -9.1883518397761665e-09 4.2216291032943259e-09 0.0000000000000000e+00  -7.5588307433897945e-09 4.8926140328897415e-09 0.0000000000000000e+00  -5.7202362100449622e-09 5.2078369797148906e-09 0.0000000000000000e+00  -3.8235354500221196e-09 5.0327274534769952e-09 0.0000000000000000e+00  -2.0786477614155567e-09 4.2437619663324041e-09 0.0000000000000000e+00  -7.2154450735766004e-10 2.7628468491426005e-09 0.0000000000000000e+00  1.6224098780724195e-10 6.7920909060350731e-10 0.0000000000000000e+00  1.4332007850900870e-10 -2.7673001274036389e-10 0.0000000000000000e+00  -6.3302288886804366e-10 -1.7574374036600141e-09 0.0000000000000000e+00  -1.8370772499584637e-09 -2.7301121718231083e-09 0.0000000000000000e+00  -3.4154428474575057e-09 -3.2603808467168156e-09 0.0000000000000000e+00  -5.1632227231071832e-09 -3.3953085830925407e-09 0.0000000000000000e+00  -6.8860569136813386e-09 -3.2086170717849718e-09 0.0000000000000000e+00  -8.4362567918326248e-09