<?xml version="1.0"?>
<VTKFile type="UnstructuredGrid"  version="0.1"  >
<UnstructuredGrid>
<Piece  NumberOfPoints="651" NumberOfCells="1200">
<Points>
<DataArray  type="Float64"  NumberOfComponents="3"  format="ascii">0 0 0  50000 0 0  100000 0 0  150000 0 0  200000 0 0  250000 0 0  300000 0 0  350000 0 0  400000 0 0  450000 0 0  500000 0 0  550000 0 0  600000 0 0  650000 0 0  700000 0 0  750000 0 0  800000 0 0  850000 0 0  900000 0 0  950000 0 0  1000000 0 0  0 50000 0  50000 50000 0  100000 50000 0  150000 50000 0  200000 50000 0  250000 50000 0  300000 50000 0  350000 50000 0  400000 50000 0  450000 50000 0  500000 50000 0  550000 50000 0  600000 50000 0  650000 50000 0  700000 50000 0  750000 50000 0  800000 50000 0  850000 50000 0  900000 50000 0  950000 50000 0  1000000 50000 0  0 100000 0  50000 100000 0  100000 100000 0  150000 100000 0  200000 100000 0  250000 100000 0  300000 100000 0  350000 100000 0  400000 100000 0  450000 100000 0  500000 100000 0  550000 100000 0  600000 100000 0  650000 100000 0  700000 100000 0  750000 100000 0  800000 100000 0  850000 100000 0  900000 100000 0  950000 100000 0  1000000 100000 0  0 150000 0  50000 150000 0  100000 150000 0  150000 150000 0  200000 150000 0  250000 150000 0  300000 150000 0  350000 150000 0  400000 150000 0  450000 150000 0  500000 150000 0  550000 150000 0  600000 150000 0  650000 150000 0  700000 150000 0  750000 150000 0  800000 150000 0  850000 150000 0  900000 150000 0  950000 150000 0  1000000 150000 0  0 200000 0  50000 200000 0  100000 200000 0  150000 200000 0  200000 200000 0  250000 200000 0  300000 200000 0  350000 200000 0  400000 200000 0  450000 200000 0  500000 200000 0  550000 200000 0  600000 200000 0  650000 200000 0  700000 200000 0  750000 200000 0  800000 200000 0  850000 200000 0  900000 200000 0  950000 200000 0  1000000 200000 0  0 250000 0  50000 250000 0  100000 250000 0  150000 250000 0  200000 250000 0  250000 250000 0  300000 250000 0  350000 250000 0  400000 250000 0  450000 250000 0  500000 250000 0  550000 250000 0  600000 250000 0  650000 250000 0  700000 250000 0  750000 250000 0  800000 250000 0  850000 250000 0  900000 250000 0  950000 250000 0  1000000 250000 0  0 300000 0  50000 300000 0  100000 300000 0  150000 300000 0  200000 300000 0  250000 300000 0  300000 300000 0  350000 300000 0  400000 300000 0  450000 300000 0  500000 300000 0  550000 300000 0  600000 300000 0  650000 300000 0  700000 300000 0  750000 300000 0  800000 300000 0  850000 300000 0  900000 300000 0  950000 300000 0  1000000 300000 0  0 350000 0  50000 350000 0  100000 350000 0  150000 350000 0  200000 350000 0  250000 350000 0  300000 350000 0  350000 350000 0  400000 350000 0  450000 350000 0  500000 350000 0  550000 350000 0  600000 350000 0  650000 350000 0  700000 350000 0  750000 350000 0  800000 350000 0  850000 350000 0  900000 350000 0  950000 350000 0  1000000 350000 0  0 400000 0  50000 400000 0  100000 400000 0  150000 400000 0  200000 400000 0  250000 400000 0  300000 400000 0  350000 400000 0  400000 400000 0  450000 400000 0  500000 400000 0  550000 400000 0  600000 400000 0  650000 400000 0  700000 400000 0  750000 400000 0  800000 400000 0  850000 400000 0  900000 400000 0  950000 400000 0  1000000 400000 0  0 450000 0  50000 450000 0  100000 450000 0  150000 450000 0  200000 450000 0  250000 450000 0  300000 450000 0  350000 450000 0  400000 450000 0  450000 450000 0  500000 450000 0  550000 450000 0  600000 450000 0  650000 450000 0  700000 450000 0  750000 450000 0  800000 450000 0  850000 450000 0  900000 450000 0  950000 450000 0  1000000 450000 0  0 500000 0  50000 500000 0  100000 500000 0  150000 500000 0  200000 500000 0  250000 500000 0  300000 500000 0  350000 500000 0  400000 500000 0  450000 500000 0  500000 500000 0  550000 500000 0  600000 500000 0  650000 500000 0  700000 500000 0  750000 500000 0  800000 500000 0  850000 500000 0  900000 500000 0  950000 500000 0  1000000 500000 0  0 550000 0  50000 550000 0  100000 550000 0  150000 550000 0  200000 550000 0  250000 550000 0  300000 550000 0  350000 550000 0  400000 550000 0  450000 550000 0  500000 550000 0  550000 550000 0  600000 550000 0  650000 550000 0  700000 550000 0  750000 550000 0  800000 550000 0  850000 550000 0  900000 550000 0  950000 550000 0  1000000 550000 0  0 600000 0  50000 600000 0  100000 600000 0  150000 600000 0  200000 600000 0  250000 600000 0  300000 600000 0  350000 600000 0  400000 600000 0  450000 600000 0  500000 600000 0  550000 600000 0  600000 600000 0  650000 600000 0  700000 600000 0  750000 600000 0  800000 600000 0  850000 600000 0  900000 600000 0  950000 600000 0  1000000 600000 0  0 650000 0  50000 650000 0  100000 650000 0  150000 650000 0  200000 650000 0  250000 650000 0  300000 650000 0  350000 650000 0  400000 650000 0  450000 650000 0  500000 650000 0  550000 650000 0  600000 650000 0  650000 650000 0  700000 650000 0  750000 650000 0  800000 650000 0  850000 650000 0  900000 650000 0  950000 650000 0  1000000 650000 0  0 700000 0  50000 700000 0  100000 700000 0  150000 700000 0  200000 700000 0  250000 700000 0  300000 700000 0  350000 700000 0  400000 700000 0  450000 700000 0  500000 700000 0  550000 700000 0  600000 700000 0  650000 700000 0  700000 700000 0  750000 700000 0  800000 700000 0  850000 700000 0  900000 700000 0  950000 700000 0  1000000 700000 0  0 750000 0  50000 750000 0  100000 750000 0  150000 750000 0  200000 750000 0  250000 750000 0  300000 750000 0  350000 750000 0  400000 750000 0  450000 750000 0  500000 750000 0  550000 750000 0  600000 750000 0  650000 750000 0  700000 750000 0  750000 750000 0  800000 750000 0  850000 750000 0  900000 750000 0  950000 750000 0  1000000 750000 0  0 800000 0  50000 800000 0  100000 800000 0  150000 800000 0  200000 800000 0  250000 800000 0  300000 800000 0  350000 800000 0  400000 800000 0  450000 800000 0  500000 800000 0  550000 800000 0  600000 800000 0  650000 800000 0  700000 800000 0  750000 800000 0  800000 800000 0  850000 800000 0  900000 800000 0  950000 800000 0  1000000 800000 0  0 850000 0  50000 850000 0  100000 850000 0  150000 850000 0  200000 850000 0  250000 850000 0  300000 850000 0  350000 850000 0  400000 850000 0  450000 850000 0  500000 850000 0  550000 850000 0  600000 850000 0  650000 850000 0  700000 850000 0  750000 850000 0  800000 850000 0  850000 850000 0  900000 850000 0  950000 850000 0  1000000 850000 0  0 900000 0  50000 900000 0  100000 900000 0  150000 900000 0  200000 900000 0  250000 900000 0  300000 900000 0  350000 900000 0  400000 900000 0  450000 900000 0  500000 900000 0  550000 900000 0  600000 900000 0  650000 900000 0  700000 900000 0  750000 900000 0  800000 900000 0  850000 900000 0  900000 900000 0  950000 900000 0  1000000 900000 0  0 950000 0  50000 950000 0  100000 950000 0  150000 950000 0  200000 950000 0  250000 950000 0  300000 950000 0  350000 950000 0  400000 950000 0  450000 950000 0  500000 950000 0  550000 950000 0  600000 950000 0  650000 950000 0  700000 950000 0  750000 950000 0  800000 950000 0  850000 950000 0  900000 950000 0  950000 950000 0  1000000 950000 0  0 1000000 0  50000 1000000 0  100000 1000000 0  150000 1000000 0  200000 1000000 0  250000 1000000 0  300000 1000000 0  350000 1000000 0  400000 1000000 0  450000 1000000 0  500000 1000000 0  550000 1000000 0  600000 1000000 0  650000 1000000 0  700000 1000000 0  750000 1000000 0  800000 1000000 0  850000 1000000 0  900000 1000000 0  950000 1000000 0  1000000 1000000 0  0 1050000 0  50000 1050000 0  100000 1050000 0  150000 1050000 0  200000 1050000 0  250000 1050000 0  300000 1050000 0  350000 1050000 0  400000 1050000 0  450000 1050000 0  500000 1050000 0  550000 1050000 0  600000 1050000 0  650000 1050000 0  700000 1050000 0  750000 1050000 0  800000 1050000 0  850000 1050000 0  900000 1050000 0  950000 1050000 0  1000000 1050000 0  0 1100000 0  50000 1100000 0  100000 1100000 0  150000 1100000 0  200000 1100000 0  250000 1100000 0  300000 1100000 0  350000 1100000 0  400000 1100000 0  450000 1100000 0  500000 1100000 0  550000 1100000 0  600000 1100000 0  650000 1100000 0  700000 1100000 0  750000 1100000 0  800000 1100000 0  850000 1100000 0  900000 1100000 0  950000 1100000 0  1000000 1100000 0  0 1150000 0  50000 1150000 0  100000 1150000 0  150000 1150000 0  200000 1150000 0  250000 1150000 0  300000 1150000 0  350000 1150000 0  400000 1150000 0  450000 1150000 0  500000 1150000 0  550000 1150000 0  600000 1150000 0  650000 1150000 0  700000 1150000 0  750000 1150000 0  800000 1150000 0  850000 1150000 0  900000 1150000 0  950000 1150000 0  1000000 1150000 0  0 1200000 0  50000 1200000 0  100000 1200000 0  150000 1200000 0  200000 1200000 0  250000 1200000 0  300000 1200000 0  350000 1200000 0  400000 1200000 0  450000 1200000 0  500000 1200000 0  550000 1200000 0  600000 1200000 0  650000 1200000 0  700000 1200000 0  750000 1200000 0  800000 1200000 0  850000 1200000 0  900000 1200000 0  950000 1200000 0  1000000 1200000 0  0 1250000 0  50000 1250000 0  100000 1250000 0  150000 1250000 0  200000 1250000 0  250000 1250000 0  300000 1250000 0  350000 1250000 0  400000 1250000 0  450000 1250000 0  500000 1250000 0  550000 1250000 0  600000 1250000 0  650000 1250000 0  700000 1250000 0  750000 1250000 0  800000 1250000 0  850000 1250000 0  900000 1250000 0  950000 1250000 0  1000000 1250000 0  0 1300000 0  50000 1300000 0  100000 1300000 0  150000 1300000 0  200000 1300000 0  250000 1300000 0  300000 1300000 0  350000 1300000 0  400000 1300000 0  450000 1300000 0  500000 1300000 0  550000 1300000 0  600000 1300000 0  650000 1300000 0  700000 1300000 0  750000 1300000 0  800000 1300000 0  850000 1300000 0  900000 1300000 0  950000 1300000 0  1000000 1300000 0  0 1350000 0  50000 1350000 0  100000 1350000 0  150000 1350000 0  200000 1350000 0  250000 1350000 0  300000 1350000 0  350000 1350000 0  400000 1350000 0  450000 1350000 0  500000 1350000 0  550000 1350000 0  600000 1350000 0  650000 1350000 0  700000 135
[...]
<PointData  Vectors="f_3007"> 
<DataArray  type="Float64"  Name="f_3007"  NumberOfComponents="3" format="ascii">-1.5250962900784563e-08 -8.4686827002499800e-09 0.0000000000000000e+00  6.3969472990232748e-08 -5.2945644902973821e-09 0.0000000000000000e+00  6.7267932498123118e-08 -1.4626208637063066e-09 0.0000000000000000e+00  7.1019229199212785e-08 -2.3330986592798499e-10 0.0000000000000000e+00  7.3835844034706159e-08 1.6387557819340718e-10 0.0000000000000000e+00  7.5669608515180986e-08 2.7260440655895519e-10 0.0000000000000000e+00  7.6822039499035993e-08 2.6323340846478279e-10 0.0000000000000000e+00  7.7527603491914510e-08 2.0541234961771284e-10 0.0000000000000000e+00  7.7933541677824647e-08 1.2924879740367359e-10 0.0000000000000000e+00  7.8123660351403162e-08 4.6958750671734338e-11 0.0000000000000000e+00  7.8136910783111392e-08 -3.7230091068120919e-11 0.0000000000000000e+00  7.7976754436544388e-08 -1.2182852500956960e-10 0.0000000000000000e+00  7.7612381709610401e-08 -2.0431911885357806e-10 0.0000000000000000e+00  7.6972759116463334e-08 -2.7647641134642819e-10 0.0000000000000000e+00  7.5935762449293919e-08 -3.1513848239978078e-10 0.0000000000000000e+00  7.4324998838138246e-08 -2.5954305154279943e-10 0.0000000000000000e+00  7.1969171931387978e-08 4.9273317250810361e-11 0.0000000000000000e+00  6.8999683782445240e-08 1.0250689772749203e-09 0.0000000000000000e+00  6.6491932112039697e-08 3.6514044980151679e-09 0.0000000000000000e+00  6.5158136564599721e-08 8.5437515142911834e-09 0.0000000000000000e+00  -1.3292908022424280e-08 7.3190817804221723e-09 0.0000000000000000e+00  -1.0821709127566088e-08 -1.1657266181455953e-08 0.0000000000000000e+00  7.1968221370295030e-09 -1.7635197370590476e-08 0.0000000000000000e+00  2.1022237404128684e-08 -1.2450925696449209e-08 0.0000000000000000e+00  3.1788821036264214e-08 -8.3642863844229201e-09 0.0000000000000000e+00  3.9728361258088136e-08 -5.6333188734647422e-09 0.0000000000000000e+00  4.5464520478429173e-08 -3.7947126104068085e-09 0.0000000000000000e+00  4.9502906972750424e-08 -2.5357311238516134e-09 0.0000000000000000e+00  5.2260478240960465e-08 -1.6495701225958214e-09 0.0000000000000000e+00  5.4038051432824529e-08 -9.9680413606331961e-10 0.0000000000000000e+00  5.5031703444206399e-08 -4.8008342263422748e-10 0.0000000000000000e+00  5.5351344231411758e-08 -2.6324685339398822e-11 0.0000000000000000e+00  5.5033273893885812e-08 4.2679430700759819e-10 0.0000000000000000e+00  5.4044847404130059e-08 9.4245477183762344e-10 0.0000000000000000e+00  5.2281549272159762e-08 1.5972746613741177e-09 0.0000000000000000e+00  4.9557476998276832e-08 2.4988095856097683e-09 0.0000000000000000e+00  4.5592680406225779e-08 3.8146912504697689e-09 0.0000000000000000e+00  4.0007097825810944e-08 5.8242149528039177e-09 0.0000000000000000e+00  3.2328444578231627e-08 8.9921356847118384e-09 0.0000000000000000e+00  2.1910876304558684e-08 1.3896571933224996e-08 0.0000000000000000e+00  7.4026408688197410e-09 1.9774390497395452e-08 0.0000000000000000e+00  -1.2965818242527915e-08 9.9680114164684884e-09 0.0000000000000000e+00  -5.0433117370575923e-09 -1.1507389134227948e-08 0.0000000000000000e+00  -2.9564793967914085e-09 -2.5739851505870717e-08 0.0000000000000000e+00  1.8654612106823352e-09 -2.2432628359872374e-08 0.0000000000000000e+00  9.2006607581750816e-09 -1.7095642291630193e-08 0.0000000000000000e+00  1.6632096511946323e-08 -1.2484415549085475e-08 0.0000000000000000e+00  2.2832381568345881e-08 -8.9250145827502354e-09 0.0000000000000000e+00  2.7605587572404123e-08 -6.2362568954763597e-09 0.0000000000000000e+00  3.1072943793595691e-08 -4.1855367034784440e-09 0.0000000000000000e+00  3.3405946409727304e-08 -2.5692597756991126e-09 0.0000000000000000e+00  3.4747373076791262e-08 -1.2201462923703102e-09 0.0000000000000000e+00  3.5187741168464547e-08 2.6322284780273271e-12 0.0000000000000000e+00  3.4759317559129902e-08 1.2269184398556237e-09 0.0000000000000000e+00  3.3435706911249448e-08 2.5817255867604761e-09 0.0000000000000000e+00  3.1134599486951243e-08 4.2122577422362559e-09 0.0000000000000000e+00  2.7727019698147551e-08 6.2962501155181449e-09 0.0000000000000000e+00  2.3064398632801485e-08 9.0583899909246336e-09 0.0000000000000000e+00  1.7051050702130436e-08 1.2761179538011097e-08 0.0000000000000000e+00  9.8234662092967336e-09 1.7572776882715116e-08 0.0000000000000000e+00  2.1580056829718253e-09 2.2916308114210068e-08 0.0000000000000000e+00  -3.8246294841539133e-09 2.5080998580771493e-08 0.0000000000000000e+00  -7.3943467322027860e-09 1.0527727472133083e-08 0.0000000000000000e+00  -2.1310233917643518e-09 -9.1645477752755759e-09 0.0000000000000000e+00  -4.1507497266600542e-09 -2.5179338516389049e-08 0.0000000000000000e+00  -4.4326287480272030e-09 -2.6812510182575493e-08 0.0000000000000000e+00  -1.6672936907836048e-09 -2.3016268784411621e-08 0.0000000000000000e+00  2.7362366678004493e-09 -1.8213058152563903e-08 0.0000000000000000e+00  7.3223302459873265e-09 -1.3779831875738051e-08 0.0000000000000000e+00  1.1330066336824224e-08 -1.0033217337100132e-08 0.0000000000000000e+00  1.4480106937256553e-08 -6.9352544262443751e-09 0.0000000000000000e+00  1.6710111923066057e-08 -4.3403673113378255e-09 0.0000000000000000e+00  1.8033246731706363e-08 -2.0788380088644782e-09 0.0000000000000000e+00  1.8475505600166863e-08 1.8803761497500540e-11 0.0000000000000000e+00  1.8049640320390904e-08 2.1187077215145497e-09 0.0000000000000000e+00  1.6748479123133619e-08 4.3877789177960075e-09 0.0000000000000000e+00  1.4553300818263233e-08 6.9978273530735744e-09 0.0000000000000000e+00  1.1461081563587384e-08 1.0121979627776625e-08 0.0000000000000000e+00  7.5429537409683733e-09 1.3905497641762226e-08 0.0000000000000000e+00  3.0564246148963432e-09 1.8362703640944949e-08 0.0000000000000000e+00  -1.3638518901144931e-09 2.3075743315708428e-08 0.0000000000000000e+00  -4.4851158373147856e-09 2.6438420464060059e-08 0.0000000000000000e+00  -4.7371754449272721e-09 2.4302220590141614e-08 0.0000000000000000e+00  -3.2874532485847664e-09 9.8173626356516607e-09 0.0000000000000000e+00  -8.5420693433167238e-10 -6.8832694737851792e-09 0.0000000000000000e+00  -3.7276265862899458e-09 -2.2210795484483560e-08 0.0000000000000000e+00  -6.0528946038336033e-09 -2.6749265363373020e-08 0.0000000000000000e+00  -6.3254599791300245e-09 -2.5352553916157554e-08 0.0000000000000000e+00  -4.8115229058918607e-09 -2.1561613268812292e-08 0.0000000000000000e+00  -2.4103039210681990e-09 -1.7198393609686168e-08 0.0000000000000000e+00  1.3073162220967590e-10 -1.3018653931119921e-08 0.0000000000000000e+00  2.3620741684742075e-09 -9.2549794486763572e-09 0.0000000000000000e+00  4.0527496783908234e-09 -5.9039942738748686e-09 0.0000000000000000e+00  5.0973477063951410e-09 -2.8601715327343961e-09 0.0000000000000000e+00  5.4543775913493997e-09 2.3655421469043417e-11 0.0000000000000000e+00  5.1144774448671362e-09 2.9091240012373146e-09 0.0000000000000000e+00  4.0909752469696333e-09 5.9578752861374682e-09 0.0000000000000000e+00  2.4297448415322631e-09 9.3165200648271314e-09 0.0000000000000000e+00  2.3974866542086042e-10 1.3086972785960857e-08 0.0000000000000000e+00  -2.2523347737072814e-09 1.7259013096349320e-08 0.0000000000000000e+00  -4.6260671699241930e-09 2.1562647949340084e-08 0.0000000000000000e+00  -6.2048857191955574e-09 2.5175832866506628e-08 0.0000000000000000e+00  -6.1444918677099319e-09 2.6260443058381104e-08 0.0000000000000000e+00  -4.0253664980559178e-09 2.1616192117164898e-08 0.0000000000000000e+00  -1.4267119998451124e-09 8.0791762303225063e-09 0.0000000000000000e+00  -2.7307806883321019e-10 -5.0989451787360756e-09 0.0000000000000000e+00  -3.0940503162928270e-09 -1.8844481081927648e-08 0.0000000000000000e+00  -6.0825208383368519e-09 -2.4587956322025172e-08 0.0000000000000000e+00  -8.0031292496024798e-09 -2.5044995128045202e-08 0.0000000000000000e+00  -8.5458421517595416e-09 -2.2581424229096212e-08 0.0000000000000000e+00  -8.0600929247086200e-09 -1.8851667112993092e-08 0.0000000000000000e+00  -7.0454640444412249e-09 -1.4773205351755110e-08 0.0000000000000000e+00  -5.9156842411494686e-09 -1.0773752979850578e-08 0.0000000000000000e+00  -4.9492395781474454e-09 -6.9955522676207211e-09 0.0000000000000000e+00  -4.3111208127455142e-09 -3.4267901301989269e-09 0.0000000000000000e+00  -4.0850463171706976e-09 2.1665583102368487e-11 0.0000000000000000e+00  -4.2956646833744355e-09 3.4706148907367159e-09 0.0000000000000000e+00  -4.9161630875593424e-09 7.0402920785950234e-09 0.0000000000000000e+00  -5.8610879268114369e-09 1.0817482344921234e-08 0.0000000000000000e+00  -6.9658519170518230e-09 1.4807658157784405e-08 0.0000000000000000e+00  -7.9588781141283618e-09 1.8854392445918977e-08 0.0000000000000000e+00  -8.4458139083008950e-09 2.2506097817729307e-08 0.0000000000000000e+00  -7.9556421013554979e-09 2.4825573077514953e-08 0.0000000000000000e+00  -6.1424899848376449e-09 2.4212455506850300e-08 0.0000000000000000e+00  -3.2366656767605766e-09 1.8491166151095874e-08 0.0000000000000000e+00  -5.6338986890848906e-10 6.2319214188673178e-09 0.0000000000000000e+00  2.4245076598930668e-12 -3.7759278107487938e-09 0.0000000000000000e+00  -2.5287966268552428e-09 -1.5670378259830346e-08 0.0000000000000000e+00  -5.5939471362564860e-09 -2.1625314066806204e-08 0.0000000000000000e+00  -8.2890937982136513e-09 -2.3191588232302519e-08 0.0000000000000000e+00  -1.0093600717254914e-08 -2.1874233066749527e-08 0.0000000000000000e+00  -1.1001211623486220e-08 -1.8953085583816167e-08 0.0000000000000000e+00  -1.1251698906263108e-08 -1.5296372169622970e-08 0.0000000000000000e+00  -1.1131678431235525e-08 -1.1406253774292002e-08 0.0000000000000000e+00  -1.0880716653388044e-08 -7.5233084561104747e-09 0.0000000000000000e+00  -1.0664933144746972e-08 -3.7221576050717628e-09 0.0000000000000000e+00  -1.0578724506776799e-08 1.6876909977906672e-11 0.0000000000000000e+00  -1.0652134908945146e-08 3.7553795526814331e-09 0.0000000000000000e+00  -1.0854282137660127e-08 7.5541860065314040e-09 0.0000000000000000e+00  -1.1090575466979001e-08 1.1430331004152903e-08 0.0000000000000000e+00  -1.1196594729470017e-08 1.5303607262874514e-08 0.0000000000000000e+00  -1.0938245113509862e-08 1.8924183201951935e-08 0.0000000000000000e+00  -1.0038931508238217e-08 2.1780047780102355e-08 0.0000000000000000e+00  -8.2684328797940396e-09 2.3006431541016036e-08 0.0000000000000000e+00  -5.6271194354981174e-09 2.1370204619957064e-08 0.0000000000000000e+00  -2.5951168107219042e-09 1.5466510610648930e-08 0.0000000000000000e+00  -1.4604790213695249e-10 4.6967264228636132e-09 0.0000000000000000e+00  1.3335659644195422e-10 -2.8008822057719073e-09 0.0000000000000000e+00  -2.0697391202001233e-09 -1.2844202175001977e-08 0.0000000000000000e+00  -4.9690574352202907e-09 -1.8468065138592161e-08 0.0000000000000000e+00  -7.9355579167999328e-09 -2.0564789392000070e-08 0.0000000000000000e+00  -1.0417043778142794e-08 -2.0072220123819025e-08 0.0000000000000000e+00  -1.2216274526126483e-08 -1.7912626028861052e-08 0.0000000000000000e+00  -1.3377526546385743e-08 -1.4810602938275993e-08 0.0000000000000000e+00  -1.4049964597604978e-08 -1.1253072324938949e-08 0.0000000000000000e+00  -1.4396468901455457e-08 -7.5227001780493671e-09 0.0000000000000000e+00  -1.4547992538883992e-08 -3.7539218991653400e-09 0.0000000000000000e+00  -1.4586022663920575e-08 1.1582545844110083e-11 0.0000000000000000e+00  -1.4537876661623872e-08 3.7759200346475348e-09 0.0000000000000000e+00  -1.4376179116338840e-08 7.5405478336722589e-09 0.0000000000000000e+00  -1.4019939478858845e-08 1.1261710474091025e-08 0.0000000000000000e+00  -1.3339961941853248e-08 1.4801324019490760e-08 0.0000000000000000e+00  -1.2176935802307468e-08 1.7872248254974677e-08 0.0000000000000000e+00  -1.0386385932612114e-08 1.9985703010473790e-08 0.0000000000000000e+00  -7.9263395989839493e-09 2.0425901390984752e-08 0.0000000000000000e+00  -4.9867555722646962e-09 1.8300609384413162e-08 0.0000000000000000e+00  -2.0980475630122494e-09 1.2726991277894487e-08 0.0000000000000000e+00  5.9508921690234207e-11 3.5156743285183257e-09 0.0000000000000000e+00  1.9207738718628634e-10 -2.0756776022228536e-09 0.0000000000000000e+00  -1.7039770041060177e-09 -1.0382304437925130e-08 0.0000000000000000e+00  -4.3457049991706389e-09 -1.5398209577340410e-08 0.0000000000000000e+00  -7.3074447485563581e-09 -1.7634922358692659e-08 0.0000000000000000e+00  -1.0078288980080755e-08 -1.7667119409443478e-08 0.0000000000000000e+00  -1.2375720932666907e-08 -1.6135155393306741e-08 0.0000000000000000e+00  -1.4118204559542763e-08 -1.3603164954617076e-08 0.0000000000000000e+00  -1.5341950608717938e-08 -1.0496200710341134e-08 0.0000000000000000e+00  -1.6129235049100479e-08 -7.0958688453443817e-09 0.0000000000000000e+00  -1.6562058670131153e-08 -3.5665821656487453e-09 0.0000000000000000e+00  -1.6697072074831689e-08 6.7590312184055304e-12 0.0000000000000000e+00  -1.6554273546021067e-08 3.5786827166353647e-09 0.0000000000000000e+00  -1.6114001571226279e-08 7.1032755829516357e-09 0.0000000000000000e+00  -1.5320332803308720e-08 1.0494346962482574e-08 0.0000000000000000e+00  -1.4092726946507047e-08 1.3585616489332629e-08 0.0000000000000000e+00  -1.2351102305557225e-08 1.6094050081752286e-08 0.0000000000000000e+00  -1.0061266089946715e-08 1.7596001122935590e-08 0.0000000000000000e+00  -7.3041580314418145e-09 1.7535220597390069e-08 0.0000000000000000e+00  -4.3551474123357054e-09 1.5289351627260000e-08 0.0000000000000000e+00  -1.7129094145751596e-09 1.0315337905908965e-08 0.0000000000000000e+00  1.5877308657454499e-10 2.6251452664206332e-09 0.0000000000000000e+00  2.1386578781339320e-10 -1.5287873602490139e-09 0.0000000000000000e+00  -1.4127465426321948e-09 -8.2564252100257131e-09 0.0000000000000000e+00  -3.7748299503673793e-09 -1.2541224199497481e-08 0.0000000000000000e+00  -6.5904944089820939e-09 -1.4672612941905806e-08 0.0000000000000000e+00  -9.4125029964109742e-09 -1.4995602090665741e-08 0.0000000000000000e+00  -1.1932356417320130e-08 -1.3944104106779143e-08 0.0000000000000000e+00  -1.3996433578555646e-08 -1.1938818988832402e-08 0.0000000000000000e+00  -1.5560195594696639e-08 -9.3271407304431383e-09 0.0000000000000000e+00  -1.6637789972892136e-08 -6.3635440723256297e-09 0.0000000000000000e+00  -1.7263353791684672e-08 -3.2176432475345372e-09 0.0000000000000000e+00  -1.7466169621266367e-08 2.7377145954366702e-12 0.0000000000000000e+00  -1.7257490840316579e-08 3.2217240866347449e-09 0.0000000000000000e+00  -1.6626564913424178e-08 6.3632047201776098e-09 0.0000000000000000e+00  -1.5544854904666380e-08 9.3187370129956571e-09 0.0000000000000000e+00  -1.3979351704174629e-08 1.1918062316195872e-08 0.0000000000000000e+00  -1.1917226870605419e-08 1.3906846207670197e-08 0.0000000000000000e+00  -9.4036864341519949e-09 1.4939953823875571e-08 0.0000000000000000e+00  -6.5905509656556488e-09 1.4602439520656659e-08 0.0000000000000000e+00  -3.7798205236562096e-09 1.2470901175102131e-08 0.0000000000000000e+00  -1.4118475985889187e-09 8.2191404556106122e-09 0.0000000000000000e+00  2.0266735066759019e-10 1.9529359048271332e-09 0.0000000000000000e+00  2.1714000224395120e-10 -1.1097616753480377e-09 0.0000000000000000e+00  -1.1813564507298449e-09 -6.4243485351281764e-09 0.0000000000000000e+00  -3.2767020690649914e-09 -9.9414638615535915e-09 0.0000000000000000e+00  -5.8863130592062963e-09 -1.1822428730186447e-08 0.0000000000000000e+00  -8.6269998868804838e-09 -1.2268686723594620e-08 0.0000000000000000e+00  -1.1194067193455564e-08 -1.1568227858097546e-08 0.0000000000000000e+00  -1.3397600727680632e-08 -1.0024884428230179e-08 0.0000000000000000e+00  -1.5140639033366534e-08 -7.9092341914767956e-09 0.0000000000000000e+00  -1.6386431075347886e-08 -5.4358418883037165e-09 0.0000000000000000e+00  -1.7129487587943969e-08 -2.7619807473471195e-09 0.0000000000000000e+00  -1.7374701650267600e-08 -4.2825702451405197e-13 0.0000000000000000e+00  -1.7125183322107543e-08 2.7599070350538114e-09 0.0000000000000000e+00  -1.6378353828994278e-08 5.4300353050363017e-09 0.0000000000000000e+00  -1.5129989585997712e-08 7.8970241290497350e-09 0.0000000000000000e+00  -1.3386417724827481e-08 1.0003662818214237e-08 0.0000000000000000e+00  -1.1185157684139607e-08 1.1536181291637536e-08 0.0000000000000000e+00  -8.6231510765137607e-09 1.2226152137898941e-08 0.0000000000000000e+00  -5.8881273207477531e-09 1.1773602050953870e-08 0.0000000000000000e+00  -3.2792160735490389e-09 9.8965320471391774e-09 0.0000000000000000e+00  -1.1758746305184656e-09 6.4049616553734061e-09 0.0000000000000000e+00  2.1748263740539992e-10 1.4407732010088660e-09 0.0000000000000000e+00  2.1206075527243273e-10 -7.8242910809504278e-10 0.0000000000000000e+00  -1.0000745582201676e-09 -4.8394732978922105e-09 0.0000000000000000e+00  -2.8608477743483924e-09 -7.5978261303991493e-09 0.0000000000000000e+00  -5.2549606673983558e-09 -9.1483748364286047e-09 0.0000000000000000e+00  -7.8547618929698946e-09 -9.6043576249652334e-09 0.0000000000000000e+00  -1.0371889364092417e-08 -9.1524269523940223e-09 0.0000000000000000e+00  -1.2601655282130975e-08 -8.0050954235053498e-09 0.0000000000000000e+00  -1.4415806481172689e-08 -6.3638589581068114e-09 0.0000000000000000e+00  -1.5742772569910082e-08 -4.3988634872942234e-09 0.0000000000000000e+00  -1.6547594144564976e-08 -2.2439133874451108e-09 0.0000000000000000e+00  -1.6816012402329857e-08 -2.7990555003487627e-12 0.0000000000000000e+00  -1.6544542517704549e-08 2.2373351644371387e-09 0.0000000000000000e+00  -1.5737152564425003e-08 4.3893631505390980e-09 0.0000000000000000e+00  -1.4408652701240316e-08 6.3496140213236235e-09 0.0000000000000000e+00  -1.2594601427212316e-08 7.9846943190071151e-09 0.0000000000000000e+00  -1.0366991968631760e-08 9.1254332233482049e-09 0.0000000000000000e+00  -7.8537462219361686e-09 9.5720935720607817e-09 0.0000000000000000e+00  -5.2574484509253448e-09 9.1146246102975420e-09 0.0000000000000000e+00  -2.8619748838975212e-09 7.5696519540374421e-09 0.0000000000000000e+00  -9.9310067281972481e-10 4.8310366462551313e-09 0.0000000000000000e+00  2.1760515193102847e-10 1.0451926050979071e-09 0.0000000000000000e+00  2.0445994958631940e-10 -5.1976126867444239e-10 0.0000000000000000e+00  -8.6293045290566399e-10 -3.4536039828756248e-09 0.0000000000000000e+00  -2.5327819561577254e-09 -5.4820440877739511e-09 0.0000000000000000e+00  -4.7340679259102098e-09 -6.6621188457015975e-09 0.0000000000000000e+00  -7.1829748916003928e-09 -7.0542876755746946e-09 0.0000000000000000e+00  -9.6102713205868464e-09 -6.7751061179643274e-09 0.0000000000000000e+00  -1.1807996375834988e-08 -5.9665470548595646e-09 0.0000000000000000e+00  -1.3630782693162331e-08 -4.7702287137081248e-09 0.0000000000000000e+00  -1.4984977676724222e-08 -3.3116654762396478e-09 0.0000000000000000e+00  -1.5815498884919592e-08 -1.6947618019449272e-09 0.0000000000000000e+00  -1.6094424580148117e-08 -4.4788221288798492e-12 0.0000000000000000e+00  -1.5813446912655959e-08 1.6850554080223855e-09 0.0000000000000000e+00  -1.4981263008848789e-08 3.2997865373613246e-09 0.0000000000000000e+00  -1.3626210860017926e-08 4.7550135248526849e-09 0.0000000000000000e+00  -1.1803778793742726e-08 5.9473812584562965e-09 0.0000000000000000e+00  -9.6078327492595521e-09 6.7523256700857546e-09 0.0000000000000000e+00  -7.1833299931686320e-09 7.0295888439846826e-09 0.0000000000000000e+00  -4.7364844616686100e-09 6.6387137175819800e-09 0.0000000000000000e+00  -2.5331729690258882e-09 5.4648059277055053e-09 0.0000000000000000e+00  -8.5637419227525774e-10 3.4518702419554618e-09 0.0000000000000000e+00  2.1129221934633129e-10 7.3384229719992138e-10 0.0000000000000000e+00  1.9773404628638367e-10 -3.0041386788844661e-10 0.0000000000000000e+00  -7.6642160942547246e-10 -2.2177290710727285e-09 0.0000000000000000e+00  -2.2961188021293616e-09 -3.5489918181020945e-09 0.0000000000000000e+00  -4.3476903707443597e-09 -4.3412138931060495e-09 0.0000000000000000e+00  -6.6685872278880758e-09 -4.6242813268798570e-09 0.0000000000000000e+00  -9.0061257755733186e-09 -4.4654580563137507e-09 0.0000000000000000e+00  -1.1154003770430121e-08 -3.951