<?xml version="1.0"?>
<VTKFile type="UnstructuredGrid"  version="0.1"  >
<UnstructuredGrid>
<Piece  NumberOfPoints="651" NumberOfCells="1200">
<Points>
<DataArray  type="Float64"  NumberOfComponents="3"  format="ascii">0 0 0  50000 0 0  100000 0 0  150000 0 0  200000 0 0  250000 0 0  300000 0 0  350000 0 0  400000 0 0  450000 0 0  500000 0 0  550000 0 0  600000 0 0  650000 0 0  700000 0 0  750000 0 0  800000 0 0  850000 0 0  900000 0 0  950000 0 0  1000000 0 0  0 50000 0  50000 50000 0  100000 50000 0  150000 50000 0  200000 50000 0  250000 50000 0  300000 50000 0  350000 50000 0  400000 50000 0  450000 50000 0  500000 50000 0  550000 50000 0  600000 50000 0  650000 50000 0  700000 50000 0  750000 50000 0  800000 50000 0  850000 50000 0  900000 50000 0  950000 50000 0  1000000 50000 0  0 100000 0  50000 100000 0  100000 100000 0  150000 100000 0  200000 100000 0  250000 100000 0  300000 100000 0  350000 100000 0  400000 100000 0  450000 100000 0  500000 100000 0  550000 100000 0  600000 100000 0  650000 100000 0  700000 100000 0  750000 100000 0  800000 100000 0  850000 100000 0  900000 100000 0  950000 100000 0  1000000 100000 0  0 150000 0  50000 150000 0  100000 150000 0  150000 150000 0  200000 150000 0  250000 150000 0  300000 150000 0  350000 150000 0  400000 150000 0  450000 150000 0  500000 150000 0  550000 150000 0  600000 150000 0  650000 150000 0  700000 150000 0  750000 150000 0  800000 150000 0  850000 150000 0  900000 150000 0  950000 150000 0  1000000 150000 0  0 200000 0  50000 200000 0  100000 200000 0  150000 200000 0  200000 200000 0  250000 200000 0  300000 200000 0  350000 200000 0  400000 200000 0  450000 200000 0  500000 200000 0  550000 200000 0  600000 200000 0  650000 200000 0  700000 200000 0  750000 200000 0  800000 200000 0  850000 200000 0  900000 200000 0  950000 200000 0  1000000 200000 0  0 250000 0  50000 250000 0  100000 250000 0  150000 250000 0  200000 250000 0  250000 250000 0  300000 250000 0  350000 250000 0  400000 250000 0  450000 250000 0  500000 250000 0  550000 250000 0  600000 250000 0  650000 250000 0  700000 250000 0  750000 250000 0  800000 250000 0  850000 250000 0  900000 250000 0  950000 250000 0  1000000 250000 0  0 300000 0  50000 300000 0  100000 300000 0  150000 300000 0  200000 300000 0  250000 300000 0  300000 300000 0  350000 300000 0  400000 300000 0  450000 300000 0  500000 300000 0  550000 300000 0  600000 300000 0  650000 300000 0  700000 300000 0  750000 300000 0  800000 300000 0  850000 300000 0  900000 300000 0  950000 300000 0  1000000 300000 0  0 350000 0  50000 350000 0  100000 350000 0  150000 350000 0  200000 350000 0  250000 350000 0  300000 350000 0  350000 350000 0  400000 350000 0  450000 350000 0  500000 350000 0  550000 350000 0  600000 350000 0  650000 350000 0  700000 350000 0  750000 350000 0  800000 350000 0  850000 350000 0  900000 350000 0  950000 350000 0  1000000 350000 0  0 400000 0  50000 400000 0  100000 400000 0  150000 400000 0  200000 400000 0  250000 400000 0  300000 400000 0  350000 400000 0  400000 400000 0  450000 400000 0  500000 400000 0  550000 400000 0  600000 400000 0  650000 400000 0  700000 400000 0  750000 400000 0  800000 400000 0  850000 400000 0  900000 400000 0  950000 400000 0  1000000 400000 0  0 450000 0  50000 450000 0  100000 450000 0  150000 450000 0  200000 450000 0  250000 450000 0  300000 450000 0  350000 450000 0  400000 450000 0  450000 450000 0  500000 450000 0  550000 450000 0  600000 450000 0  650000 450000 0  700000 450000 0  750000 450000 0  800000 450000 0  850000 450000 0  900000 450000 0  950000 450000 0  1000000 450000 0  0 500000 0  50000 500000 0  100000 500000 0  150000 500000 0  200000 500000 0  250000 500000 0  300000 500000 0  350000 500000 0  400000 500000 0  450000 500000 0  500000 500000 0  550000 500000 0  600000 500000 0  650000 500000 0  700000 500000 0  750000 500000 0  800000 500000 0  850000 500000 0  900000 500000 0  950000 500000 0  1000000 500000 0  0 550000 0  50000 550000 0  100000 550000 0  150000 550000 0  200000 550000 0  250000 550000 0  300000 550000 0  350000 550000 0  400000 550000 0  450000 550000 0  500000 550000 0  550000 550000 0  600000 550000 0  650000 550000 0  700000 550000 0  750000 550000 0  800000 550000 0  850000 550000 0  900000 550000 0  950000 550000 0  1000000 550000 0  0 600000 0  50000 600000 0  100000 600000 0  150000 600000 0  200000 600000 0  250000 600000 0  300000 600000 0  350000 600000 0  400000 600000 0  450000 600000 0  500000 600000 0  550000 600000 0  600000 600000 0  650000 600000 0  700000 600000 0  750000 600000 0  800000 600000 0  850000 600000 0  900000 600000 0  950000 600000 0  1000000 600000 0  0 650000 0  50000 650000 0  100000 650000 0  150000 650000 0  200000 650000 0  250000 650000 0  300000 650000 0  350000 650000 0  400000 650000 0  450000 650000 0  500000 650000 0  550000 650000 0  600000 650000 0  650000 650000 0  700000 650000 0  750000 650000 0  800000 650000 0  850000 650000 0  900000 650000 0  950000 650000 0  1000000 650000 0  0 700000 0  50000 700000 0  100000 700000 0  150000 700000 0  200000 700000 0  250000 700000 0  300000 700000 0  350000 700000 0  400000 700000 0  450000 700000 0  500000 700000 0  550000 700000 0  600000 700000 0  650000 700000 0  700000 700000 0  750000 700000 0  800000 700000 0  850000 700000 0  900000 700000 0  950000 700000 0  1000000 700000 0  0 750000 0  50000 750000 0  100000 750000 0  150000 750000 0  200000 750000 0  250000 750000 0  300000 750000 0  350000 750000 0  400000 750000 0  450000 750000 0  500000 750000 0  550000 750000 0  600000 750000 0  650000 750000 0  700000 750000 0  750000 750000 0  800000 750000 0  850000 750000 0  900000 750000 0  950000 750000 0  1000000 750000 0  0 800000 0  50000 800000 0  100000 800000 0  150000 800000 0  200000 800000 0  250000 800000 0  300000 800000 0  350000 800000 0  400000 800000 0  450000 800000 0  500000 800000 0  550000 800000 0  600000 800000 0  650000 800000 0  700000 800000 0  750000 800000 0  800000 800000 0  850000 800000 0  900000 800000 0  950000 800000 0  1000000 800000 0  0 850000 0  50000 850000 0  100000 850000 0  150000 850000 0  200000 850000 0  250000 850000 0  300000 850000 0  350000 850000 0  400000 850000 0  450000 850000 0  500000 850000 0  550000 850000 0  600000 850000 0  650000 850000 0  700000 850000 0  750000 850000 0  800000 850000 0  850000 850000 0  900000 850000 0  950000 850000 0  1000000 850000 0  0 900000 0  50000 900000 0  100000 900000 0  150000 900000 0  200000 900000 0  250000 900000 0  300000 900000 0  350000 900000 0  400000 900000 0  450000 900000 0  500000 900000 0  550000 900000 0  600000 900000 0  650000 900000 0  700000 900000 0  750000 900000 0  800000 900000 0  850000 900000 0  900000 900000 0  950000 900000 0  1000000 900000 0  0 950000 0  50000 950000 0  100000 950000 0  150000 950000 0  200000 950000 0  250000 950000 0  300000 950000 0  350000 950000 0  400000 950000 0  450000 950000 0  500000 950000 0  550000 950000 0  600000 950000 0  650000 950000 0  700000 950000 0  750000 950000 0  800000 950000 0  850000 950000 0  900000 950000 0  950000 950000 0  1000000 950000 0  0 1000000 0  50000 1000000 0  100000 1000000 0  150000 1000000 0  200000 1000000 0  250000 1000000 0  300000 1000000 0  350000 1000000 0  400000 1000000 0  450000 1000000 0  500000 1000000 0  550000 1000000 0  600000 1000000 0  650000 1000000 0  700000 1000000 0  750000 1000000 0  800000 1000000 0  850000 1000000 0  900000 1000000 0  950000 1000000 0  1000000 1000000 0  0 1050000 0  50000 1050000 0  100000 1050000 0  150000 1050000 0  200000 1050000 0  250000 1050000 0  300000 1050000 0  350000 1050000 0  400000 1050000 0  450000 1050000 0  500000 1050000 0  550000 1050000 0  600000 1050000 0  650000 1050000 0  700000 1050000 0  750000 1050000 0  800000 1050000 0  850000 1050000 0  900000 1050000 0  950000 1050000 0  1000000 1050000 0  0 1100000 0  50000 1100000 0  100000 1100000 0  150000 1100000 0  200000 1100000 0  250000 1100000 0  300000 1100000 0  350000 1100000 0  400000 1100000 0  450000 1100000 0  500000 1100000 0  550000 1100000 0  600000 1100000 0  650000 1100000 0  700000 1100000 0  750000 1100000 0  800000 1100000 0  850000 1100000 0  900000 1100000 0  950000 1100000 0  1000000 1100000 0  0 1150000 0  50000 1150000 0  100000 1150000 0  150000 1150000 0  200000 1150000 0  250000 1150000 0  300000 1150000 0  350000 1150000 0  400000 1150000 0  450000 1150000 0  500000 1150000 0  550000 1150000 0  600000 1150000 0  650000 1150000 0  700000 1150000 0  750000 1150000 0  800000 1150000 0  850000 1150000 0  900000 1150000 0  950000 1150000 0  1000000 1150000 0  0 1200000 0  50000 1200000 0  100000 1200000 0  150000 1200000 0  200000 1200000 0  250000 1200000 0  300000 1200000 0  350000 1200000 0  400000 1200000 0  450000 1200000 0  500000 1200000 0  550000 1200000 0  600000 1200000 0  650000 1200000 0  700000 1200000 0  750000 1200000 0  800000 1200000 0  850000 1200000 0  900000 1200000 0  950000 1200000 0  1000000 1200000 0  0 1250000 0  50000 1250000 0  100000 1250000 0  150000 1250000 0  200000 1250000 0  250000 1250000 0  300000 1250000 0  350000 1250000 0  400000 1250000 0  450000 1250000 0  500000 1250000 0  550000 1250000 0  600000 1250000 0  650000 1250000 0  700000 1250000 0  750000 1250000 0  800000 1250000 0  850000 1250000 0  900000 1250000 0  950000 1250000 0  1000000 1250000 0  0 1300000 0  50000 1300000 0  100000 1300000 0  150000 1300000 0  200000 1300000 0  250000 1300000 0  300000 1300000 0  350000 1300000 0  400000 1300000 0  450000 1300000 0  500000 1300000 0  550000 1300000 0  600000 1300000 0  650000 1300000 0  700000 1300000 0  750000 1300000 0  800000 1300000 0  850000 1300000 0  900000 1300000 0  950000 1300000 0  1000000 1300000 0  0 1350000 0  50000 1350000 0  100000 1350000 0  150000 1350000 0  200000 1350000 0  250000 1350000 0  300000 1350000 0  350000 1350000 0  400000 1350000 0  450000 1350000 0  500000 1350000 0  550000 1350000 0  600000 1350000 0  650000 1350000 0  700000 135
[...]
<PointData  Vectors="f_3007"> 
<DataArray  type="Float64"  Name="f_3007"  NumberOfComponents="3" format="ascii">-1.5233299146768159e-08 -8.4322843203974454e-09 0.0000000000000000e+00  6.3998177260986622e-08 -5.2652304396314831e-09 0.0000000000000000e+00  6.7308266180586334e-08 -1.4361362432273690e-09 0.0000000000000000e+00  7.1063912992134143e-08 -2.0773190920149419e-10 0.0000000000000000e+00  7.3885045784526860e-08 1.8836976172159489e-10 0.0000000000000000e+00  7.5726802392345962e-08 2.9518858503781145e-10 0.0000000000000000e+00  7.6889707979339432e-08 2.8271952581439631e-10 0.0000000000000000e+00  7.7605888631898110e-08 2.2054542265773552e-10 0.0000000000000000e+00  7.8020419424226715e-08 1.3896407437824846e-10 0.0000000000000000e+00  7.8215546588000781e-08 5.0547956135183192e-11 0.0000000000000000e+00  7.8229380546999975e-08 -4.0021570449116282e-11 0.0000000000000000e+00  7.8065292209407315e-08 -1.3077021854163501e-10 0.0000000000000000e+00  7.7693124194146893e-08 -2.1873837863000484e-10 0.0000000000000000e+00  7.7043182704121822e-08 -2.9538531875778528e-10 0.0000000000000000e+00  7.5995210962661316e-08 -3.3745161774601978e-10 0.0000000000000000e+00  7.4374817946092710e-08 -2.8438237336626746e-10 0.0000000000000000e+00  7.2011984312169987e-08 2.2228313613617392e-11 0.0000000000000000e+00  6.9037171569918783e-08 9.9539363268591237e-10 0.0000000000000000e+00  6.6521695140817120e-08 3.6187823056587997e-09 0.0000000000000000e+00  6.5176716660191247e-08 8.5099553524622764e-09 0.0000000000000000e+00  -1.3281096788154952e-08 7.2958674999186786e-09 0.0000000000000000e+00  -1.0810877558923115e-08 -1.1596586293956154e-08 0.0000000000000000e+00  7.0926586034536294e-09 -1.7642004384032345e-08 0.0000000000000000e+00  2.0950251856473986e-08 -1.2491380144129068e-08 0.0000000000000000e+00  3.1822532161841417e-08 -8.4257005348538632e-09 0.0000000000000000e+00  3.9878980149445176e-08 -5.7044823891450859e-09 0.0000000000000000e+00  4.5739132951224782e-08 -3.8716051989555899e-09 0.0000000000000000e+00  4.9900463823311640e-08 -2.6106200299810581e-09 0.0000000000000000e+00  5.2767718152742258e-08 -1.7145190195695455e-09 0.0000000000000000e+00  5.4631422066069844e-08 -1.0453171643647641e-09 0.0000000000000000e+00  5.5680050557796146e-08 -5.0759439055874077e-10 0.0000000000000000e+00  5.6018730666479504e-08 -3.0461437017068768e-11 0.0000000000000000e+00  5.5682087293359174e-08 4.4603426468959782e-10 0.0000000000000000e+00  5.4639043305720655e-08 9.8262145242128515e-10 0.0000000000000000e+00  5.2789798774056658e-08 1.6534833489804312e-09 0.0000000000000000e+00  4.9956085668824923e-08 2.5639129677728260e-09 0.0000000000000000e+00  4.5868436764978898e-08 3.8797467376203845e-09 0.0000000000000000e+00  4.0160686659827923e-08 5.8794237469328055e-09 0.0000000000000000e+00  3.2378933428805609e-08 9.0273198911971503e-09 0.0000000000000000e+00  2.1896369214356859e-08 1.3897192652193969e-08 0.0000000000000000e+00  7.3773536072848513e-09 1.9717127113983243e-08 0.0000000000000000e+00  -1.2951006745010573e-08 9.9268018423651931e-09 0.0000000000000000e+00  -5.0402698303871200e-09 -1.1421382883946777e-08 0.0000000000000000e+00  -2.9564015282011599e-09 -2.5809318641689769e-08 0.0000000000000000e+00  1.9084548296573129e-09 -2.2567702224958393e-08 0.0000000000000000e+00  9.3978505384700836e-09 -1.7300308693877504e-08 0.0000000000000000e+00  1.7015669794638707e-08 -1.2721443238749522e-08 0.0000000000000000e+00  2.3412846317107701e-08 -9.1702249086188474e-09 0.0000000000000000e+00  2.8379414012571208e-08 -6.4671268386937430e-09 0.0000000000000000e+00  3.2019071628136602e-08 -4.3807820929014707e-09 0.0000000000000000e+00  3.4487202562428740e-08 -2.7111655516673906e-09 0.0000000000000000e+00  3.5914635101289338e-08 -1.2961689045229696e-09 0.0000000000000000e+00  3.6384519454613376e-08 -1.0318710513046728e-12 0.0000000000000000e+00  3.5926559124353995e-08 1.2955949317437436e-09 0.0000000000000000e+00  3.4516718339501631e-08 2.7161967886379943e-09 0.0000000000000000e+00  3.2079850176064379e-08 4.3998019750444145e-09 0.0000000000000000e+00  2.8498632291256578e-08 6.5187394018654420e-09 0.0000000000000000e+00  2.3640354681030225e-08 9.2934978913622698e-09 0.0000000000000000e+00  1.7429481266360311e-08 1.2983906764252545e-08 0.0000000000000000e+00  1.0027176320442982e-08 1.7756240318659397e-08 0.0000000000000000e+00  2.2369583624239273e-09 2.3028774379147149e-08 0.0000000000000000e+00  -3.8086712806690685e-09 2.5082397351172746e-08 0.0000000000000000e+00  -7.3828421191428958e-09 1.0456803436696191e-08 0.0000000000000000e+00  -2.1343872608191784e-09 -9.0811839701340165e-09 0.0000000000000000e+00  -4.1017676032092131e-09 -2.5291016607606012e-08 0.0000000000000000e+00  -4.2705158210178762e-09 -2.7081987199420494e-08 0.0000000000000000e+00  -1.3322262458984906e-09 -2.3398142512754724e-08 0.0000000000000000e+00  3.2935673342748658e-09 -1.8662470631077460e-08 0.0000000000000000e+00  8.1161631404270847e-09 -1.4244753615430454e-08 0.0000000000000000e+00  1.2353626786036737e-08 -1.0468221761206656e-08 0.0000000000000000e+00  1.5707118152901564e-08 -7.3003985646004199e-09 0.0000000000000000e+00  1.8096364896251215e-08 -4.6032861173943420e-09 0.0000000000000000e+00  1.9520728304245840e-08 -2.2167367708182146e-09 0.0000000000000000e+00  1.9997608638950333e-08 1.7680578931227831e-11 0.0000000000000000e+00  1.9536783803052484e-08 2.2543424733449227e-09 0.0000000000000000e+00  1.8133855471406620e-08 4.6483764322017844e-09 0.0000000000000000e+00  1.5778472668523125e-08 7.3605281981556278e-09 0.0000000000000000e+00  1.2481188021388139e-08 1.0554276081456892e-08 0.0000000000000000e+00  8.3314359976724166e-09 1.4367274180257748e-08 0.0000000000000000e+00  3.6093858727614619e-09 1.8808638633621292e-08 0.0000000000000000e+00  -1.0238881698008203e-09 2.3457096257267948e-08 0.0000000000000000e+00  -4.3085066792404573e-09 2.6702147673569673e-08 0.0000000000000000e+00  -4.6639084641515410e-09 2.4395986699304473e-08 0.0000000000000000e+00  -3.2824557673324946e-09 9.7328940020899094e-09 0.0000000000000000e+00  -8.6169575072887942e-10 -6.8207187770634496e-09 0.0000000000000000e+00  -3.6558431737330635e-09 -2.2409396547483682e-08 0.0000000000000000e+00  -5.8499484466685412e-09 -2.7171231676210770e-08 0.0000000000000000e+00  -5.9327590030894768e-09 -2.5941242264274791e-08 0.0000000000000000e+00  -4.1908352953642744e-09 -2.2245387272360631e-08 0.0000000000000000e+00  -1.5464663629021142e-09 -1.7904324895977036e-08 0.0000000000000000e+00  1.2294357625337007e-09 -1.3677796304037750e-08 0.0000000000000000e+00  3.6674961962050592e-09 -9.8070935846400880e-09 0.0000000000000000e+00  5.5194435022894444e-09 -6.3006546675603839e-09 0.0000000000000000e+00  6.6663755179047997e-09 -3.0674318109919017e-09 0.0000000000000000e+00  7.0583285266906715e-09 2.3288544191735213e-11 0.0000000000000000e+00  6.6830200294333989e-09 3.1156665355345682e-09 0.0000000000000000e+00  5.5565753377969767e-09 6.3538841721882668e-09 0.0000000000000000e+00  3.7332311329073180e-09 9.8681609296100660e-09 0.0000000000000000e+00  1.3354471198479683e-09 1.3746083802605111e-08 0.0000000000000000e+00  -1.3920806468638378e-09 1.7966017109201376e-08 0.0000000000000000e+00  -4.0070826884388967e-09 2.2250025835852412e-08 0.0000000000000000e+00  -5.8085152374864665e-09 2.5771490872784089e-08 0.0000000000000000e+00  -5.9284804068472219e-09 2.6690268402320598e-08 0.0000000000000000e+00  -3.9356340961671119e-09 2.1813152054088431e-08 0.0000000000000000e+00  -1.4289919070385924e-09 8.0033565329326576e-09 0.0000000000000000e+00  -2.8183072251795324e-10 -5.0638554263308928e-09 0.0000000000000000e+00  -3.0157765273153040e-09 -1.9146747406574069e-08 0.0000000000000000e+00  -5.8720795935284658e-09 -2.5176000940342689e-08 0.0000000000000000e+00  -7.6148378898233196e-09 -2.5841329887329271e-08 0.0000000000000000e+00  -7.9476357432781235e-09 -2.3495525013699062e-08 0.0000000000000000e+00  -7.2407264193025745e-09 -1.9790084291871362e-08 0.0000000000000000e+00  -6.0138811401968066e-09 -1.5646979796772766e-08 0.0000000000000000e+00  -4.6983091693170399e-09 -1.1504432225750217e-08 0.0000000000000000e+00  -3.5874453518404320e-09 -7.5198784454899605e-09 0.0000000000000000e+00  -2.8578774137414491e-09 -3.7004013615365079e-09 0.0000000000000000e+00  -2.6006462867895263e-09 2.1644452065766158e-11 0.0000000000000000e+00  -2.8429072014681434e-09 3.7442394426711745e-09 0.0000000000000000e+00  -3.5553748615214143e-09 7.5648287032092129e-09 0.0000000000000000e+00  -4.6452868556429575e-09 1.1548809246189504e-08 0.0000000000000000e+00  -5.9363295006378168e-09 1.5682956840208034e-08 0.0000000000000000e+00  -7.1414154874023926e-09 1.9795947358400095e-08 0.0000000000000000e+00  -7.8476920746324382e-09 2.3425929672609836e-08 0.0000000000000000e+00  -7.5638406183609624e-09 2.5630431426578127e-08 0.0000000000000000e+00  -5.9246026624602649e-09 2.4808936087036715e-08 0.0000000000000000e+00  -3.1480048864235593e-09 1.8795478106392947e-08 0.0000000000000000e+00  -5.7040273747822246e-10 6.1779927280048598e-09 0.0000000000000000e+00  -4.8483540169718344e-12 -3.7677640825559077e-09 0.0000000000000000e+00  -2.4582223965310441e-09 -1.6071790297370493e-08 0.0000000000000000e+00  -5.4098793931144333e-09 -2.2364190783388058e-08 0.0000000000000000e+00  -7.9584762386000512e-09 -2.4171693590921052e-08 0.0000000000000000e+00  -9.5945316159268652e-09 -2.2987701668240397e-08 0.0000000000000000e+00  -1.0326803098423103e-08 -2.0089847367802058e-08 0.0000000000000000e+00  -1.0410381029853813e-08 -1.6351609648562981e-08 0.0000000000000000e+00  -1.0145182007323125e-08 -1.2287095466490995e-08 0.0000000000000000e+00  -9.7818506960149713e-09 -8.1546798802957188e-09 0.0000000000000000e+00  -9.4950933542860785e-09 -4.0513171250298537e-09 0.0000000000000000e+00  -9.3847437720741116e-09 1.7151646482352461e-11 0.0000000000000000e+00  -9.4826986652108741e-09 4.0851593078823639e-09 0.0000000000000000e+00  -9.7562049505380080e-09 8.1864146264575269e-09 0.0000000000000000e+00  -1.0105197005136605e-08 1.2312508375705134e-08 0.0000000000000000e+00  -1.0356519297165191e-08 1.6361025364386382e-08 0.0000000000000000e+00  -1.0264598299117913e-08 2.0064500439956712e-08 0.0000000000000000e+00  -9.5392479811415442e-09 2.2898897523065631e-08 0.0000000000000000e+00  -7.9353964567349387e-09 2.3993577066387826e-08 0.0000000000000000e+00  -5.4389761362428356e-09 2.2115849457829698e-08 0.0000000000000000e+00  -2.5193638729840883e-09 1.5870081997058071e-08 0.0000000000000000e+00  -1.5459960559891675e-10 4.6693834709758620e-09 0.0000000000000000e+00  1.2974824497015174e-10 -2.8152027149641063e-09 0.0000000000000000e+00  -2.0164860074090190e-09 -1.3325001711560566e-08 0.0000000000000000e+00  -4.8369240147182036e-09 -1.9322690367685641e-08 0.0000000000000000e+00  -7.7057603673229969e-09 -2.1682048562951580e-08 0.0000000000000000e+00  -1.0078155027214837e-08 -2.1331571919270350e-08 0.0000000000000000e+00  -1.1765898553407229e-08 -1.9192472769336917e-08 0.0000000000000000e+00  -1.2822392353484069e-08 -1.5995421997251326e-08 0.0000000000000000e+00  -1.3404607211077034e-08 -1.2240444978084105e-08 0.0000000000000000e+00  -1.3681766199883643e-08 -8.2296990809546990e-09 0.0000000000000000e+00  -1.3789680704026676e-08 -4.1222304101497802e-09 0.0000000000000000e+00  -1.3812926982735660e-08 1.2079007318235797e-11 0.0000000000000000e+00  -1.3779870055040906e-08 4.1452813863567994e-09 0.0000000000000000e+00  -1.3662046032655522e-08 8.2487941875883176e-09 0.0000000000000000e+00  -1.3375314516408850e-08 1.2250704378939176e-08 0.0000000000000000e+00  -1.2785480337719847e-08 1.5988392602883667e-08 0.0000000000000000e+00  -1.1726683976247189e-08 1.9155288556325990e-08 0.0000000000000000e+00  -1.0046679309000543e-08 2.1249395138512284e-08 0.0000000000000000e+00  -7.6949056046080628e-09 2.1548425154019358e-08 0.0000000000000000e+00  -4.8527371615191421e-09 1.9160187221284857e-08 0.0000000000000000e+00  -2.0433742481595768e-09 1.3209282952622650e-08 0.0000000000000000e+00  5.2387340278555161e-11 3.5137096365778379e-09 0.0000000000000000e+00  1.9357806625162956e-10 -2.1061558831930701e-09 0.0000000000000000e+00  -1.6737008531630040e-09 -1.0912311518708692e-08 0.0000000000000000e+00  -4.2810878325652796e-09 -1.6319540418134726e-08 0.0000000000000000e+00  -7.2056801333583345e-09 -1.8827189850806983e-08 0.0000000000000000e+00  -9.9385932118701492e-09 -1.9003191183402687e-08 0.0000000000000000e+00  -1.2199721727044231e-08 -1.7488091924170504e-08 0.0000000000000000e+00  -1.3909883415287654e-08 -1.4852829724189161e-08 0.0000000000000000e+00  -1.5106981914735068e-08 -1.1536142344198011e-08 0.0000000000000000e+00  -1.5874427254621407e-08 -7.8398468366557795e-09 0.0000000000000000e+00  -1.6295038014151505e-08 -3.9539149474044540e-09 0.0000000000000000e+00  -1.6425994339920131e-08 7.4103202578590681e-12 0.0000000000000000e+00  -1.6287466753438508e-08 3.9673562742209008e-09 0.0000000000000000e+00  -1.5859572751086389e-08 7.8487177526579826e-09 0.0000000000000000e+00  -1.5085792114192747e-08 1.1535988748088010e-08 0.0000000000000000e+00  -1.3884658713392552e-08 1.4837371452668936e-08 0.0000000000000000e+00  -1.2174873200163749e-08 1.7449635675020845e-08 0.0000000000000000e+00  -9.9207202723985746e-09 1.8935333223794539e-08 0.0000000000000000e+00  -7.2013072594296040e-09 1.8731167432925522e-08 0.0000000000000000e+00  -4.2900751959399054e-09 1.6213980823811449e-08 0.0000000000000000e+00  -1.6836296017745903e-09 1.0846018202387343e-08 0.0000000000000000e+00  1.5538857244216122e-10 2.6438688944670438e-09 0.0000000000000000e+00  2.2115449703110399e-10 -1.5685339983510568e-09 0.0000000000000000e+00  -1.4076089594031983e-09 -8.7997761546631695e-09 0.0000000000000000e+00  -3.7838998265877567e-09 -1.3472438554823862e-08 0.0000000000000000e+00  -6.6277750397438009e-09 -1.5869277928494581e-08 0.0000000000000000e+00  -9.4877916763939810e-09 -1.6330933999567995e-08 0.0000000000000000e+00  -1.2050819952200766e-08 -1.5292593208598899e-08 0.0000000000000000e+00  -1.4158674419395514e-08 -1.3182149031243814e-08 0.0000000000000000e+00  -1.5762267423816798e-08 -1.0360614321674399e-08 0.0000000000000000e+00  -1.6871610719295937e-08 -7.1023448390319395e-09 0.0000000000000000e+00  -1.7517608888747238e-08 -3.6020786007496415e-09 0.0000000000000000e+00  -1.7727515047456751e-08 3.4938326234595568e-12 0.0000000000000000e+00  -1.7511880357720956e-08 3.6076870377650763e-09 0.0000000000000000e+00  -1.6860606240090468e-08 7.1035844947346829e-09 0.0000000000000000e+00  -1.5747123744388523e-08 1.0353892747393907e-08 0.0000000000000000e+00  -1.4141581520851558e-08 1.3163247438456932e-08 0.0000000000000000e+00  -1.2035272830250092e-08 1.5257420072007952e-08 0.0000000000000000e+00  -9.4781598700561812e-09 1.6277564817526123e-08 0.0000000000000000e+00  -6.6271183179696725e-09 1.5801420144727744e-08 0.0000000000000000e+00  -3.7892875544974959e-09 1.3403956429119707e-08 0.0000000000000000e+00  -1.4090183507154348e-09 8.7623896092457942e-09 0.0000000000000000e+00  2.0449011895048823e-10 1.9859940133953253e-09 0.0000000000000000e+00  2.3020595754834910e-10 -1.1522077675717982e-09 0.0000000000000000e+00  -1.2006803105928933e-09 -6.9439729814506084e-09 0.0000000000000000e+00  -3.3576930206865748e-09 -1.0824044998533170e-08 0.0000000000000000e+00  -6.0594290596216625e-09 -1.2951299958117691e-08 0.0000000000000000e+00  -8.9121534074056834e-09 -1.3524623019042230e-08 0.0000000000000000e+00  -1.1599560797221372e-08 -1.2833993887035981e-08 0.0000000000000000e+00  -1.3920510618422201e-08 -1.1190349592805951e-08 0.0000000000000000e+00  -1.5767538089091340e-08 -8.8770989987175913e-09 0.0000000000000000e+00  -1.7094761656457603e-08 -6.1273182307336075e-09 0.0000000000000000e+00  -1.7889650726838487e-08 -3.1216215409194283e-09 0.0000000000000000e+00  -1.8152672204789828e-08 3.9422292231550148e-13 0.0000000000000000e+00  -1.7885416928415149e-08 3.1211871368537149e-09 0.0000000000000000e+00  -1.7086782936047814e-08 6.1231367797495526e-09 0.0000000000000000e+00  -1.5756922649756070e-08 8.8664983309096780e-09 0.0000000000000000e+00  -1.3909156353109901e-08 1.1170722471508375e-08 0.0000000000000000e+00  -1.1590152268394902e-08 1.2803504575974485e-08 0.0000000000000000e+00  -8.9075577489021807e-09 1.3483522683284237e-08 0.0000000000000000e+00  -6.0607717300704750e-09 1.2903654449864623e-08 0.0000000000000000e+00  -3.3610177959104854e-09 1.0779741144306487e-08 0.0000000000000000e+00  -1.1979989576296185e-09 6.9238296451386082e-09 0.0000000000000000e+00  2.2516107009435066e-10 1.4814132729899273e-09 0.0000000000000000e+00  2.3033498175867961e-10 -8.2187810202759047e-10 0.0000000000000000e+00  -1.0411234736252063e-09 -5.3007319876465518e-09 0.0000000000000000e+00  -3.0060030385837328e-09 -8.3768585542620265e-09 0.0000000000000000e+00  -5.5496410766966271e-09 -1.0141752751693734e-08 0.0000000000000000e+00  -8.3280327087916005e-09 -1.0707301965904067e-08 0.0000000000000000e+00  -1.1034812312131180e-08 -1.0262418193926864e-08 0.0000000000000000e+00  -1.3448053115373189e-08 -9.0261005354115208e-09 0.0000000000000000e+00  -1.5423673854296213e-08 -7.2111596258124411e-09 0.0000000000000000e+00  -1.6876533620381925e-08 -5.0039011514292428e-09 0.0000000000000000e+00  -1.7761265246389216e-08 -2.5584513487520504e-09 0.0000000000000000e+00  -1.8057073929198800e-08 -1.9408533813352387e-12 0.0000000000000000e+00  -1.7758238354291362e-08 2.5535658770354001e-09 0.0000000000000000e+00  -1.6870929069491671e-08 4.9960235931642197e-09 0.0000000000000000e+00  -1.5416454424073821e-08 7.1984223331663749e-09 0.0000000000000000e+00  -1.3440751045349581e-08 9.0070408525856572e-09 0.0000000000000000e+00  -1.1029412351602661e-08 1.0236524837911062e-08 0.0000000000000000e+00  -8.3263656470712491e-09 1.0675782670093981e-08 0.0000000000000000e+00  -5.5518103095409491e-09 1.0108284546799326e-08 0.0000000000000000e+00  -3.0080444044865963e-09 8.3483639404826707e-09 0.0000000000000000e+00  -1.0368751823072899e-09 5.2910298100496055e-09 0.0000000000000000e+00  2.3107746394281786e-10 1.0870939726862774e-09 0.0000000000000000e+00  2.2696295460297263e-10 -5.5168292888389463e-10 0.0000000000000000e+00  -9.2166860556938778e-10 -3.8268643964431646e-09 0.0000000000000000e+00  -2.7303611690411096e-09 -6.1102136573773543e-09 0.0000000000000000e+00  -5.1284347071997446e-09 -7.4615330792510041e-09 0.0000000000000000e+00  -7.8108987160473986e-09 -7.9406559142905568e-09 0.0000000000000000e+00  -1.0485145975286639e-08 -7.6662456070623451e-09 0.0000000000000000e+00  -1.2920954554040830e-08 -6.7856433253962902e-09 0.0000000000000000e+00  -1.4952710590890328e-08 -5.4496011476693287e-09 0.0000000000000000e+00  -1.6469525300427143e-08 -3.7965766364693194e-09 0.0000000000000000e+00  -1.7403141200501085e-08 -1.9467119713940103e-09 0.0000000000000000e+00  -1.7717371920634643e-08 -3.6069129642653320e-12 0.0000000000000000e+00  -1.7401086965905454e-08 1.9387115707776974e-09 0.0000000000000000e+00  -1.6465781133831331e-08 3.7862900599075043e-09 0.0000000000000000e+00  -1.4948030608630590e-08 5.4357866836715727e-09 0.0000000000000000e+00  -1.2916481431554369e-08 6.7675991185178825e-09 0.0000000000000000e+00  -1.0482265310181309e-08 7.6441992574230083e-09 0.0000000000000000e+00  -7.8107267882902180e-09 7.9161732599919921e-09 0.0000000000000000e+00  -5.1306342792900773e-09 7.4377393269750627e-09 0.0000000000000000e+00  -2.7315674684232076e-09 6.0919614857187079e-09 0.0000000000000000e+00  -9.1739493981474221e-10 3.8235008281182245e-09 0.0000000000000000e+00  2.2993846189749153e-10 7.7161241596913803e-10 0.0000000000000000e+00  2.2321203815693687e-10 -3.2155425865221470e-10 0.0000000000000000e+00  -8.3813322731591202e-10 -2.4799516853332775e-09 0.0000000000000000e+00  -2.5321120997364753e-09 -3.9892286113611746e-09 0.0000000000000000e+00  -4.8153166613248905e-09 -4.9006898864033543e-09 0.0000000000000000e+00  -7.4104606868612223e-09 -5.2440015727020002e-09 0.0000000000000000e+00  -1.0037445188056717e-08 -5.0880501731336188e-09 0.0000000000000000e+00  -1.2463935034397603e-08 -4.52