<?xml version="1.0"?>
<VTKFile type="UnstructuredGrid"  version="0.1"  >
<UnstructuredGrid>
<Piece  NumberOfPoints="651" NumberOfCells="1200">
<Points>
<DataArray  type="Float64"  NumberOfComponents="3"  format="ascii">0 0 0  50000 0 0  100000 0 0  150000 0 0  200000 0 0  250000 0 0  300000 0 0  350000 0 0  400000 0 0  450000 0 0  500000 0 0  550000 0 0  600000 0 0  650000 0 0  700000 0 0  750000 0 0  800000 0 0  850000 0 0  900000 0 0  950000 0 0  1000000 0 0  0 50000 0  50000 50000 0  100000 50000 0  150000 50000 0  200000 50000 0  250000 50000 0  300000 50000 0  350000 50000 0  400000 50000 0  450000 50000 0  500000 50000 0  550000 50000 0  600000 50000 0  650000 50000 0  700000 50000 0  750000 50000 0  800000 50000 0  850000 50000 0  900000 50000 0  950000 50000 0  1000000 50000 0  0 100000 0  50000 100000 0  100000 100000 0  150000 100000 0  200000 100000 0  250000 100000 0  300000 100000 0  350000 100000 0  400000 100000 0  450000 100000 0  500000 100000 0  550000 100000 0  600000 100000 0  650000 100000 0  700000 100000 0  750000 100000 0  800000 100000 0  850000 100000 0  900000 100000 0  950000 100000 0  1000000 100000 0  0 150000 0  50000 150000 0  100000 150000 0  150000 150000 0  200000 150000 0  250000 150000 0  300000 150000 0  350000 150000 0  400000 150000 0  450000 150000 0  500000 150000 0  550000 150000 0  600000 150000 0  650000 150000 0  700000 150000 0  750000 150000 0  800000 150000 0  850000 150000 0  900000 150000 0  950000 150000 0  1000000 150000 0  0 200000 0  50000 200000 0  100000 200000 0  150000 200000 0  200000 200000 0  250000 200000 0  300000 200000 0  350000 200000 0  400000 200000 0  450000 200000 0  500000 200000 0  550000 200000 0  600000 200000 0  650000 200000 0  700000 200000 0  750000 200000 0  800000 200000 0  850000 200000 0  900000 200000 0  950000 200000 0  1000000 200000 0  0 250000 0  50000 250000 0  100000 250000 0  150000 250000 0  200000 250000 0  250000 250000 0  300000 250000 0  350000 250000 0  400000 250000 0  450000 250000 0  500000 250000 0  550000 250000 0  600000 250000 0  650000 250000 0  700000 250000 0  750000 250000 0  800000 250000 0  850000 250000 0  900000 250000 0  950000 250000 0  1000000 250000 0  0 300000 0  50000 300000 0  100000 300000 0  150000 300000 0  200000 300000 0  250000 300000 0  300000 300000 0  350000 300000 0  400000 300000 0  450000 300000 0  500000 300000 0  550000 300000 0  600000 300000 0  650000 300000 0  700000 300000 0  750000 300000 0  800000 300000 0  850000 300000 0  900000 300000 0  950000 300000 0  1000000 300000 0  0 350000 0  50000 350000 0  100000 350000 0  150000 350000 0  200000 350000 0  250000 350000 0  300000 350000 0  350000 350000 0  400000 350000 0  450000 350000 0  500000 350000 0  550000 350000 0  600000 350000 0  650000 350000 0  700000 350000 0  750000 350000 0  800000 350000 0  850000 350000 0  900000 350000 0  950000 350000 0  1000000 350000 0  0 400000 0  50000 400000 0  100000 400000 0  150000 400000 0  200000 400000 0  250000 400000 0  300000 400000 0  350000 400000 0  400000 400000 0  450000 400000 0  500000 400000 0  550000 400000 0  600000 400000 0  650000 400000 0  700000 400000 0  750000 400000 0  800000 400000 0  850000 400000 0  900000 400000 0  950000 400000 0  1000000 400000 0  0 450000 0  50000 450000 0  100000 450000 0  150000 450000 0  200000 450000 0  250000 450000 0  300000 450000 0  350000 450000 0  400000 450000 0  450000 450000 0  500000 450000 0  550000 450000 0  600000 450000 0  650000 450000 0  700000 450000 0  750000 450000 0  800000 450000 0  850000 450000 0  900000 450000 0  950000 450000 0  1000000 450000 0  0 500000 0  50000 500000 0  100000 500000 0  150000 500000 0  200000 500000 0  250000 500000 0  300000 500000 0  350000 500000 0  400000 500000 0  450000 500000 0  500000 500000 0  550000 500000 0  600000 500000 0  650000 500000 0  700000 500000 0  750000 500000 0  800000 500000 0  850000 500000 0  900000 500000 0  950000 500000 0  1000000 500000 0  0 550000 0  50000 550000 0  100000 550000 0  150000 550000 0  200000 550000 0  250000 550000 0  300000 550000 0  350000 550000 0  400000 550000 0  450000 550000 0  500000 550000 0  550000 550000 0  600000 550000 0  650000 550000 0  700000 550000 0  750000 550000 0  800000 550000 0  850000 550000 0  900000 550000 0  950000 550000 0  1000000 550000 0  0 600000 0  50000 600000 0  100000 600000 0  150000 600000 0  200000 600000 0  250000 600000 0  300000 600000 0  350000 600000 0  400000 600000 0  450000 600000 0  500000 600000 0  550000 600000 0  600000 600000 0  650000 600000 0  700000 600000 0  750000 600000 0  800000 600000 0  850000 600000 0  900000 600000 0  950000 600000 0  1000000 600000 0  0 650000 0  50000 650000 0  100000 650000 0  150000 650000 0  200000 650000 0  250000 650000 0  300000 650000 0  350000 650000 0  400000 650000 0  450000 650000 0  500000 650000 0  550000 650000 0  600000 650000 0  650000 650000 0  700000 650000 0  750000 650000 0  800000 650000 0  850000 650000 0  900000 650000 0  950000 650000 0  1000000 650000 0  0 700000 0  50000 700000 0  100000 700000 0  150000 700000 0  200000 700000 0  250000 700000 0  300000 700000 0  350000 700000 0  400000 700000 0  450000 700000 0  500000 700000 0  550000 700000 0  600000 700000 0  650000 700000 0  700000 700000 0  750000 700000 0  800000 700000 0  850000 700000 0  900000 700000 0  950000 700000 0  1000000 700000 0  0 750000 0  50000 750000 0  100000 750000 0  150000 750000 0  200000 750000 0  250000 750000 0  300000 750000 0  350000 750000 0  400000 750000 0  450000 750000 0  500000 750000 0  550000 750000 0  600000 750000 0  650000 750000 0  700000 750000 0  750000 750000 0  800000 750000 0  850000 750000 0  900000 750000 0  950000 750000 0  1000000 750000 0  0 800000 0  50000 800000 0  100000 800000 0  150000 800000 0  200000 800000 0  250000 800000 0  300000 800000 0  350000 800000 0  400000 800000 0  450000 800000 0  500000 800000 0  550000 800000 0  600000 800000 0  650000 800000 0  700000 800000 0  750000 800000 0  800000 800000 0  850000 800000 0  900000 800000 0  950000 800000 0  1000000 800000 0  0 850000 0  50000 850000 0  100000 850000 0  150000 850000 0  200000 850000 0  250000 850000 0  300000 850000 0  350000 850000 0  400000 850000 0  450000 850000 0  500000 850000 0  550000 850000 0  600000 850000 0  650000 850000 0  700000 850000 0  750000 850000 0  800000 850000 0  850000 850000 0  900000 850000 0  950000 850000 0  1000000 850000 0  0 900000 0  50000 900000 0  100000 900000 0  150000 900000 0  200000 900000 0  250000 900000 0  300000 900000 0  350000 900000 0  400000 900000 0  450000 900000 0  500000 900000 0  550000 900000 0  600000 900000 0  650000 900000 0  700000 900000 0  750000 900000 0  800000 900000 0  850000 900000 0  900000 900000 0  950000 900000 0  1000000 900000 0  0 950000 0  50000 950000 0  100000 950000 0  150000 950000 0  200000 950000 0  250000 950000 0  300000 950000 0  350000 950000 0  400000 950000 0  450000 950000 0  500000 950000 0  550000 950000 0  600000 950000 0  650000 950000 0  700000 950000 0  750000 950000 0  800000 950000 0  850000 950000 0  900000 950000 0  950000 950000 0  1000000 950000 0  0 1000000 0  50000 1000000 0  100000 1000000 0  150000 1000000 0  200000 1000000 0  250000 1000000 0  300000 1000000 0  350000 1000000 0  400000 1000000 0  450000 1000000 0  500000 1000000 0  550000 1000000 0  600000 1000000 0  650000 1000000 0  700000 1000000 0  750000 1000000 0  800000 1000000 0  850000 1000000 0  900000 1000000 0  950000 1000000 0  1000000 1000000 0  0 1050000 0  50000 1050000 0  100000 1050000 0  150000 1050000 0  200000 1050000 0  250000 1050000 0  300000 1050000 0  350000 1050000 0  400000 1050000 0  450000 1050000 0  500000 1050000 0  550000 1050000 0  600000 1050000 0  650000 1050000 0  700000 1050000 0  750000 1050000 0  800000 1050000 0  850000 1050000 0  900000 1050000 0  950000 1050000 0  1000000 1050000 0  0 1100000 0  50000 1100000 0  100000 1100000 0  150000 1100000 0  200000 1100000 0  250000 1100000 0  300000 1100000 0  350000 1100000 0  400000 1100000 0  450000 1100000 0  500000 1100000 0  550000 1100000 0  600000 1100000 0  650000 1100000 0  700000 1100000 0  750000 1100000 0  800000 1100000 0  850000 1100000 0  900000 1100000 0  950000 1100000 0  1000000 1100000 0  0 1150000 0  50000 1150000 0  100000 1150000 0  150000 1150000 0  200000 1150000 0  250000 1150000 0  300000 1150000 0  350000 1150000 0  400000 1150000 0  450000 1150000 0  500000 1150000 0  550000 1150000 0  600000 1150000 0  650000 1150000 0  700000 1150000 0  750000 1150000 0  800000 1150000 0  850000 1150000 0  900000 1150000 0  950000 1150000 0  1000000 1150000 0  0 1200000 0  50000 1200000 0  100000 1200000 0  150000 1200000 0  200000 1200000 0  250000 1200000 0  300000 1200000 0  350000 1200000 0  400000 1200000 0  450000 1200000 0  500000 1200000 0  550000 1200000 0  600000 1200000 0  650000 1200000 0  700000 1200000 0  750000 1200000 0  800000 1200000 0  850000 1200000 0  900000 1200000 0  950000 1200000 0  1000000 1200000 0  0 1250000 0  50000 1250000 0  100000 1250000 0  150000 1250000 0  200000 1250000 0  250000 1250000 0  300000 1250000 0  350000 1250000 0  400000 1250000 0  450000 1250000 0  500000 1250000 0  550000 1250000 0  600000 1250000 0  650000 1250000 0  700000 1250000 0  750000 1250000 0  800000 1250000 0  850000 1250000 0  900000 1250000 0  950000 1250000 0  1000000 1250000 0  0 1300000 0  50000 1300000 0  100000 1300000 0  150000 1300000 0  200000 1300000 0  250000 1300000 0  300000 1300000 0  350000 1300000 0  400000 1300000 0  450000 1300000 0  500000 1300000 0  550000 1300000 0  600000 1300000 0  650000 1300000 0  700000 1300000 0  750000 1300000 0  800000 1300000 0  850000 1300000 0  900000 1300000 0  950000 1300000 0  1000000 1300000 0  0 1350000 0  50000 1350000 0  100000 1350000 0  150000 1350000 0  200000 1350000 0  250000 1350000 0  300000 1350000 0  350000 1350000 0  400000 1350000 0  450000 1350000 0  500000 1350000 0  550000 1350000 0  600000 1350000 0  650000 1350000 0  700000 135
[...]
<PointData  Vectors="f_3007"> 
<DataArray  type="Float64"  Name="f_3007"  NumberOfComponents="3" format="ascii">-1.5025102659663089e-08 -8.5363309246922817e-09 0.0000000000000000e+00  6.4206178652238183e-08 -5.3722072147436366e-09 0.0000000000000000e+00  6.7457978922717717e-08 -1.5835001892789121e-09 0.0000000000000000e+00  7.1097201138618033e-08 -3.8139071084391031e-10 0.0000000000000000e+00  7.3763882984351156e-08 5.8353151091311808e-12 0.0000000000000000e+00  7.5439935221323338e-08 1.2030710036023651e-10 0.0000000000000000e+00  7.6451666959002068e-08 1.3074571973522372e-10 0.0000000000000000e+00  7.7046747745493202e-08 1.0330537154471773e-10 0.0000000000000000e+00  7.7377573506292152e-08 6.4333347549580207e-11 0.0000000000000000e+00  7.7528677868770868e-08 2.2919903238951618e-11 0.0000000000000000e+00  7.7538293049380492e-08 -1.9152623953603380e-11 0.0000000000000000e+00  7.7409568412189047e-08 -6.2579555792858925e-11 0.0000000000000000e+00  7.7112044238851628e-08 -1.0735205783167383e-10 0.0000000000000000e+00  7.6574303828721070e-08 -1.4850882685254781e-10 0.0000000000000000e+00  7.5670406587750159e-08 -1.6685458225868165e-10 0.0000000000000000e+00  7.4213337734750957e-08 -1.0546898029642426e-10 0.0000000000000000e+00  7.2010837951702926e-08 1.9280039446974331e-10 0.0000000000000000e+00  6.9159713356403932e-08 1.1451475414510559e-09 0.0000000000000000e+00  6.6688899575866506e-08 3.7494487345905716e-09 0.0000000000000000e+00  6.5294546123728880e-08 8.6456662642266781e-09 0.0000000000000000e+00  -1.3204686073031489e-08 7.3793603438757906e-09 0.0000000000000000e+00  -1.0627449823959382e-08 -1.1794508743658647e-08 0.0000000000000000e+00  7.8368725886579725e-09 -1.7591544317505638e-08 0.0000000000000000e+00  2.1216223513760305e-08 -1.2037745945099909e-08 0.0000000000000000e+00  3.1233045342371541e-08 -7.8071704294638224e-09 0.0000000000000000e+00  3.8268479080856494e-08 -4.9787193547191119e-09 0.0000000000000000e+00  4.3037336757324559e-08 -3.1417561626203895e-09 0.0000000000000000e+00  4.6174418837514396e-08 -1.9582437815878935e-09 0.0000000000000000e+00  4.8180288032208082e-08 -1.1904382075640637e-09 0.0000000000000000e+00  4.9402101369147252e-08 -6.7585057118195719e-10 0.0000000000000000e+00  5.0057419031368754e-08 -3.0318728713283234e-10 0.0000000000000000e+00  5.0263394234213846e-08 6.1906246543398132e-12 0.0000000000000000e+00  5.0057601294959232e-08 3.1510758824409230e-10 0.0000000000000000e+00  4.9405939339115089e-08 6.8711744989374050e-10 0.0000000000000000e+00  4.8196765012004620e-08 1.2041908917645901e-09 0.0000000000000000e+00  4.6223237581636940e-08 1.9880799049037314e-09 0.0000000000000000e+00  4.3160052035419180e-08 3.2307210990246479e-09 0.0000000000000000e+00  3.8546398002152927e-08 5.2440614650126294e-09 0.0000000000000000e+00  3.1782748785416779e-08 8.5222159487006948e-09 0.0000000000000000e+00  2.2050610715552104e-08 1.3644483355109902e-08 0.0000000000000000e+00  7.8843447240095612e-09 1.9917110790171577e-08 0.0000000000000000e+00  -1.2844261342521906e-08 1.0097034247856799e-08 0.0000000000000000e+00  -4.8939673745856121e-09 -1.1703568949741806e-08 0.0000000000000000e+00  -3.3162977153938001e-09 -2.5318341172317453e-08 0.0000000000000000e+00  6.6447868708789568e-10 -2.1202492744322710e-08 0.0000000000000000e+00  6.8457930185352861e-09 -1.5421250478951531e-08 0.0000000000000000e+00  1.2903249039716018e-08 -1.0597638632292374e-08 0.0000000000000000e+00  1.7682548732192278e-08 -7.0748103607659869e-09 0.0000000000000000e+00  2.1129517380403456e-08 -4.6102377044110747e-09 0.0000000000000000e+00  2.3480262849325214e-08 -2.9030554950100887e-09 0.0000000000000000e+00  2.4979477930148017e-08 -1.6927133063165588e-09 0.0000000000000000e+00  2.5809264920967291e-08 -7.7429875318960743e-10 0.0000000000000000e+00  2.6077395246855275e-08 1.1274393987055039e-11 0.0000000000000000e+00  2.5820760520853575e-08 7.9837781346665682e-10 0.0000000000000000e+00  2.5008620872538734e-08 1.7224716897487586e-09 0.0000000000000000e+00  2.3541990305664598e-08 2.9468013643641711e-09 0.0000000000000000e+00  2.1253751530144902e-08 4.6865167565483239e-09 0.0000000000000000e+00  1.7924374767792002e-08 7.2235704077494054e-09 0.0000000000000000e+00  1.3345062022039809e-08 1.0890282877945549e-08 0.0000000000000000e+00  7.4926049245606164e-09 1.5914590801382622e-08 0.0000000000000000e+00  9.4905359021599528e-10 2.1722843637541895e-08 0.0000000000000000e+00  -4.3105118907061250e-09 2.4670878835159170e-08 0.0000000000000000e+00  -7.2615748064502891e-09 1.0730654719570883e-08 0.0000000000000000e+00  -2.0150522154813013e-09 -9.2948753442059098e-09 0.0000000000000000e+00  -4.6055973322680922e-09 -2.4105576172346940e-08 0.0000000000000000e+00  -5.7742276700589974e-09 -2.4565181290074089e-08 0.0000000000000000e+00  -4.2913393482647496e-09 -1.9979418436213068e-08 0.0000000000000000e+00  -1.3676470698975255e-09 -1.4831808229469721e-08 0.0000000000000000e+00  1.6968642049988886e-09 -1.0468712024621843e-08 0.0000000000000000e+00  4.2824230479632496e-09 -7.1140787059778750e-09 0.0000000000000000e+00  6.2252852224724469e-09 -4.6224266045807214e-09 0.0000000000000000e+00  7.5454077776000268e-09 -2.7549424654977205e-09 0.0000000000000000e+00  8.3060046126494361e-09 -1.2762880413424170e-09 0.0000000000000000e+00  8.5583924572346720e-09 1.9656940394533132e-11 0.0000000000000000e+00  8.3229514895034938e-09 1.3179052628683020e-09 0.0000000000000000e+00  7.5852374880200766e-09 2.8041900502038277e-09 0.0000000000000000e+00  6.3016872668393876e-09 4.6868115280370862e-09 0.0000000000000000e+00  4.4199005585356641e-09 7.2041606618413827e-09 0.0000000000000000e+00  1.9291907817888775e-09 1.0594426764725226e-08 0.0000000000000000e+00  -1.0314769901589565e-09 1.4978376597400209e-08 0.0000000000000000e+00  -3.9807456629103200e-09 2.0026712694197196e-08 0.0000000000000000e+00  -5.8665207597308269e-09 2.4145922845111878e-08 0.0000000000000000e+00  -5.2829572774973775e-09 2.3209061844832845e-08 0.0000000000000000e+00  -3.1603715344128505e-09 1.0008765335527323e-08 0.0000000000000000e+00  -7.7161214060616323e-10 -6.9038274511543270e-09 0.0000000000000000e+00  -4.1881640900467154e-09 -2.0451823117872754e-08 0.0000000000000000e+00  -7.3206215251089459e-09 -2.3426396069434528e-08 0.0000000000000000e+00  -8.6955568689346894e-09 -2.0995557522031312e-08 0.0000000000000000e+00  -8.4624202096992848e-09 -1.6745033999526892e-08 0.0000000000000000e+00  -7.3818978344096117e-09 -1.2477680533891969e-08 0.0000000000000000e+00  -6.0853510166428100e-09 -8.8385596694846910e-09 0.0000000000000000e+00  -4.9218000098478194e-09 -5.9253736630651888e-09 0.0000000000000000e+00  -4.0447486512737879e-09 -3.6108482631903884e-09 0.0000000000000000e+00  -3.5074747625333182e-09 -1.6971393467589606e-09 0.0000000000000000e+00  -3.3222751318581176e-09 2.0558599191445389e-11 0.0000000000000000e+00  -3.4891409668700770e-09 1.7399137166139371e-09 0.0000000000000000e+00  -4.0038868162987247e-09 3.6586015438852934e-09 0.0000000000000000e+00  -4.8496574567318386e-09 5.9807911501089905e-09 0.0000000000000000e+00  -5.9696079476021570e-09 8.9003174659814981e-09 0.0000000000000000e+00  -7.2150670152857198e-09 1.2529995788348775e-08 0.0000000000000000e+00  -8.2687752413655428e-09 1.6733383051901647e-08 0.0000000000000000e+00  -8.5770558620791349e-09 2.0794918949924761e-08 0.0000000000000000e+00  -7.4320944946966931e-09 2.2900212932544485e-08 0.0000000000000000e+00  -4.5349798122787086e-09 1.9844154260916117e-08 0.0000000000000000e+00  -1.3198378737760519e-09 8.1854977917013668e-09 0.0000000000000000e+00  -2.2849752954054599e-10 -5.0211153496703912e-09 0.0000000000000000e+00  -3.4271046382076782e-09 -1.6527025212107497e-08 0.0000000000000000e+00  -6.9624611159239997e-09 -2.0415272498562705e-08 0.0000000000000000e+00  -9.6232004492184530e-09 -1.9651504606354015e-08 0.0000000000000000e+00  -1.1036727214789755e-08 -1.6641445246577236e-08 0.0000000000000000e+00  -1.1466220914663615e-08 -1.3017085449085850e-08 0.0000000000000000e+00  -1.1330675737857525e-08 -9.5827591820288012e-09 0.0000000000000000e+00  -1.0969915267351033e-08 -6.6173260824162416e-09 0.0000000000000000e+00  -1.0599617077508783e-08 -4.1193825665743030e-09 0.0000000000000000e+00  -1.0337958274000315e-08 -1.9637651400532162e-09 0.0000000000000000e+00  -1.0240143683308760e-08 1.6423700246386166e-11 0.0000000000000000e+00  -1.0321268128916436e-08 1.9971103942362002e-09 0.0000000000000000e+00  -1.0564042536117915e-08 4.1537021783709133e-09 0.0000000000000000e+00  -1.0911589819130099e-08 6.6507898319153861e-09 0.0000000000000000e+00  -1.1246383796581491e-08 9.6069772659178102e-09 0.0000000000000000e+00  -1.1360340127300002e-08 1.3008845419630173e-08 0.0000000000000000e+00  -1.0934541985886876e-08 1.6552757364184570e-08 0.0000000000000000e+00  -9.5789756673655508e-09 1.9413957792073930e-08 0.0000000000000000e+00  -7.0302510654015923e-09 2.0018539839744693e-08 0.0000000000000000e+00  -3.5875120869381911e-09 1.6171593664898917e-08 0.0000000000000000e+00  -4.8416473913334026e-10 6.2295258444521489e-09 0.0000000000000000e+00  7.8669239416004195e-12 -3.6380684842027040e-09 0.0000000000000000e+00  -2.6816717879064909e-09 -1.3034041312209241e-08 0.0000000000000000e+00  -5.9599540336078597e-09 -1.6972178194671109e-08 0.0000000000000000e+00  -8.9555978865563200e-09 -1.7203583651402624e-08 0.0000000000000000e+00  -1.1137341740345334e-08 -1.5274559223590114e-08 0.0000000000000000e+00  -1.2466639289410005e-08 -1.2445567910180923e-08 0.0000000000000000e+00  -1.3146071241301257e-08 -9.4769890323752016e-09 0.0000000000000000e+00  -1.3420720333191613e-08 -6.7208868503735256e-09 0.0000000000000000e+00  -1.3488312652105730e-08 -4.2659606328049456e-09 0.0000000000000000e+00  -1.3479374655884403e-08 -2.0601243296362458e-09 0.0000000000000000e+00  -1.3464620181173526e-08 1.0576434172716485e-11 0.0000000000000000e+00  -1.3465843311852305e-08 2.0807883971766131e-09 0.0000000000000000e+00  -1.3460531567022890e-08 4.2844897708068319e-09 0.0000000000000000e+00  -1.3377942307899283e-08 6.7331471601185443e-09 0.0000000000000000e+00  -1.3089505107807046e-08 9.4732717056679032e-09 0.0000000000000000e+00  -1.2403415571850265e-08 1.2406622923051079e-08 0.0000000000000000e+00  -1.1085017150446569e-08 1.5170870432610165e-08 0.0000000000000000e+00  -8.9396459880453680e-09 1.7008992860844231e-08 0.0000000000000000e+00  -5.9955554874406547e-09 1.6709356387628487e-08 0.0000000000000000e+00  -2.7492055964925053e-09 1.2835601909503333e-08 0.0000000000000000e+00  -1.0296661973129818e-10 4.6061108177598926e-09 0.0000000000000000e+00  1.0374793402256748e-10 -2.6446520057734582e-09 0.0000000000000000e+00  -2.0533753121677531e-09 -1.0147280821756523e-08 0.0000000000000000e+00  -4.8527165111160876e-09 -1.3730091901616909e-08 0.0000000000000000e+00  -7.7043780747103214e-09 -1.4455977916868799e-08 0.0000000000000000e+00  -1.0091451142028877e-08 -1.3312360894372746e-08 0.0000000000000000e+00  -1.1833790831943359e-08 -1.1211377824942280e-08 0.0000000000000000e+00  -1.2980646867829234e-08 -8.7828981827174497e-09 0.0000000000000000e+00  -1.3672982508024857e-08 -6.3729269059409643e-09 0.0000000000000000e+00  -1.4055822409622461e-08 -4.1143171680076184e-09 0.0000000000000000e+00  -1.4239698281053331e-08 -2.0095602404605006e-09 0.0000000000000000e+00  -1.4290439668751053e-08 4.9227985442438343e-12 0.0000000000000000e+00  -1.4229603108922660e-08 2.0183571095435553e-09 0.0000000000000000e+00  -1.4035756986153426e-08 4.1194118880928676e-09 0.0000000000000000e+00  -1.3643739498240771e-08 6.3698006292631010e-09 0.0000000000000000e+00  -1.2944934520486928e-08 8.7635265002687340e-09 0.0000000000000000e+00  -1.1798032877421501e-08 1.1163195829719372e-08 0.0000000000000000e+00  -1.0066473671563697e-08 1.3220801524159139e-08 0.0000000000000000e+00  -7.7011804237609618e-09 1.4315132634245251e-08 0.0000000000000000e+00  -4.8713098752090419e-09 1.3564394399933232e-08 0.0000000000000000e+00  -2.0771323455051731e-09 1.0040215360937312e-08 0.0000000000000000e+00  6.3837470985456372e-11 3.3763552545581244e-09 0.0000000000000000e+00  1.3512909061551048e-10 -1.9326992879007844e-09 0.0000000000000000e+00  -1.5627411781167267e-09 -7.8421435318165041e-09 0.0000000000000000e+00  -3.8659385731012892e-09 -1.0914673702509921e-08 0.0000000000000000e+00  -6.3866603722917065e-09 -1.1818894817234842e-08 0.0000000000000000e+00  -8.6827594886992952e-09 -1.1190575384515044e-08 0.0000000000000000e+00  -1.0527954015203618e-08 -9.6731253533865877e-09 0.0000000000000000e+00  -1.1881581852590498e-08 -7.7541266840533063e-09 0.0000000000000000e+00  -1.2802262619099988e-08 -5.7341092012346741e-09 0.0000000000000000e+00  -1.3378524611487657e-08 -3.7550653944276868e-09 0.0000000000000000e+00  -1.3688877669695729e-08 -1.8518646542424467e-09 0.0000000000000000e+00  -1.3784171110358997e-08 2.4326624570270023e-13 0.0000000000000000e+00  -1.3681857092446965e-08 1.8511388492805799e-09 0.0000000000000000e+00  -1.3364992464854017e-08 3.7503471725649001e-09 0.0000000000000000e+00  -1.2783576968296147e-08 5.7215263476784517e-09 0.0000000000000000e+00  -1.1860601345514301e-08 7.7280988514307270e-09 0.0000000000000000e+00  -1.0509641848463903e-08 9.6266563469741729e-09 0.0000000000000000e+00  -8.6735200978095096e-09 1.1118016836888015e-08 0.0000000000000000e+00  -6.3904288348750776e-09 1.1722154046840409e-08 0.0000000000000000e+00  -3.8770355167933177e-09 1.0812948250198353e-08 0.0000000000000000e+00  -1.5678071147953773e-09 7.7872616780010915e-09 0.0000000000000000e+00  1.2810158595602553e-10 2.4758495235276683e-09 0.0000000000000000e+00  1.3845003042006695e-10 -1.4161739267276975e-09 0.0000000000000000e+00  -1.2002945542064763e-09 -6.0208931563149479e-09 0.0000000000000000e+00  -3.0764575537677316e-09 -8.5537581700564712e-09 0.0000000000000000e+00  -5.2368895068480574e-09 -9.4546964430449952e-09 0.0000000000000000e+00  -7.3218711444964849e-09 -9.1401090378920150e-09 0.0000000000000000e+00  -9.1058986873373204e-09 -8.0602508252408419e-09 0.0000000000000000e+00  -1.0503588870416470e-08 -6.5790094549118624e-09 0.0000000000000000e+00  -1.1518415204465550e-08 -4.9394836205638687e-09 0.0000000000000000e+00  -1.2192705011320303e-08 -3.2723979102042789e-09 0.0000000000000000e+00  -1.2573706038828374e-08 -1.6267951661923268e-09 0.0000000000000000e+00  -1.2695142375068768e-08 -3.2537113861189919e-12 0.0000000000000000e+00  -1.2569155611654874e-08 1.6191741827760319e-09 0.0000000000000000e+00  -1.2184221951510806e-08 3.2612626775084757e-09 0.0000000000000000e+00  -1.1507414324732737e-08 4.9219538093933227e-09 0.0000000000000000e+00  -1.0492556050207296e-08 6.5516551144785391e-09 0.0000000000000000e+00  -9.0984236580126769e-09 8.0197592347805205e-09 0.0000000000000000e+00  -7.3216192365394325e-09 9.0853322638094288e-09 0.0000000000000000e+00  -5.2444084404020786e-09 9.3897919779109523e-09 0.0000000000000000e+00  -3.0845958219338634e-09 8.4923296405650448e-09 0.0000000000000000e+00  -1.1987436840795665e-09 5.9951677364152134e-09 0.0000000000000000e+00  1.4481500024160866e-10 1.8209502054174567e-09 0.0000000000000000e+00  1.3123259345648426e-10 -1.0317317329861261e-09 0.0000000000000000e+00  -9.4324552869877062e-10 -4.5707740774349620e-09 0.0000000000000000e+00  -2.4852694810691862e-09 -6.5897251792635547e-09 0.0000000000000000e+00  -4.3271280050638094e-09 -7.3920534204087805e-09 0.0000000000000000e+00  -6.1792043430275110e-09 -7.2556503825022192e-09 0.0000000000000000e+00  -7.8350040655568643e-09 -6.4948021994455584e-09 0.0000000000000000e+00  -9.1914906026561566e-09 -5.3747842554314234e-09 0.0000000000000000e+00  -1.0219299071083888e-08 -4.0831205428776296e-09 0.0000000000000000e+00  -1.0928074670310211e-08 -2.7299039709770289e-09 0.0000000000000000e+00  -1.1340095423718668e-08 -1.3660117998880796e-09 0.0000000000000000e+00  -1.1474120818537167e-08 -5.6517544320022254e-12 0.0000000000000000e+00  -1.1337370872045989e-08 1.3538207738484703e-09 0.0000000000000000e+00  -1.0923205686629543e-08 2.7150018996585419e-09 0.0000000000000000e+00  -1.0213520820880440e-08 4.0635872427048046e-09 0.0000000000000000e+00  -9.1867588086600209e-09 5.3487548334579288e-09 0.0000000000000000e+00  -7.8337935320355499e-09 6.4610928902122561e-09 0.0000000000000000e+00  -6.1835017587190827e-09 7.2150552790059350e-09 0.0000000000000000e+00  -4.3360008283548466e-09 7.3487427072701963e-09 0.0000000000000000e+00  -2.4920055232660555e-09 6.5528595813635546e-09 0.0000000000000000e+00  -9.4020592215230785e-10 4.5607747553482351e-09 0.0000000000000000e+00  1.4149243432202337e-10 1.3394041107945242e-09 0.0000000000000000e+00  1.2159286340388321e-10 -7.3475172866962911e-10 0.0000000000000000e+00  -7.6622517924998064e-10 -3.3907880473688454e-09 0.0000000000000000e+00  -2.0618418944819594e-09 -4.9393692232599754e-09 0.0000000000000000e+00  -3.6499892351217574e-09 -5.5983815551058144e-09 0.0000000000000000e+00  -5.2940982333771678e-09 -5.5550297794762018e-09 0.0000000000000000e+00  -6.8102938423343142e-09 -5.0268324838804060e-09 0.0000000000000000e+00  -8.0918975482687707e-09 -4.2025701373777954e-09 0.0000000000000000e+00  -9.0919197615188074e-09 -3.2209972187860016e-09 0.0000000000000000e+00  -9.7990586606345866e-09 -2.1686971923785738e-09 0.0000000000000000e+00  -1.0217908820350792e-08 -1.0910363217346920e-09 0.0000000000000000e+00  -1.0355915855338942e-08 -7.1666051424522608e-12 0.0000000000000000e+00  -1.0216427682689883e-08 1.0760700246789704e-09 0.0000000000000000e+00  -9.7965719607972167e-09 2.1518530390651478e-09 0.0000000000000000e+00  -9.0893952067391577e-09 3.2011286529480490e-09 0.0000000000000000e+00  -8.0907620244024614e-09 4.1788311477226714e-09 0.0000000000000000e+00  -6.8121714608763250e-09 4.9991420254998710e-09 0.0000000000000000e+00  -5.2999748668818958e-09 5.5248227890995806e-09 0.0000000000000000e+00  -3.6584715057596013e-09 5.5691053530068840e-09 0.0000000000000000e+00  -2.0674324503432164e-09 4.9170396146219704e-09 0.0000000000000000e+00  -7.6349793827234098e-10 3.3888983224541908e-09 0.0000000000000000e+00  1.3150296284101686e-10 9.7629680881963941e-10 0.0000000000000000e+00  1.1303467007931214e-10 -4.9443458627671096e-10 0.0000000000000000e+00  -6.4778433756526512e-10 -2.3998397218160174e-09 0.0000000000000000e+00  -1.7704729326420050e-09 -3.5212672328998269e-09 0.0000000000000000e+00  -3.1711078112234574e-09 -4.0193677050642942e-09 0.0000000000000000e+00  -4.6503305923232790e-09 -4.0182698186614328e-09 0.0000000000000000e+00  -6.0440441715328400e-09 -3.6640546414946740e-09 0.0000000000000000e+00  -7.2478862544528257e-09 -3.0856307692336620e-09 0.0000000000000000e+00  -8.2064050559800808e-09 -2.3802457170594667e-09 0.0000000000000000e+00  -8.8958964723752206e-09 -1.6111739341612597e-09 0.0000000000000000e+00  -9.3094960433199683e-09 -8.1434700520523104e-10 0.0000000000000000e+00  -9.4469199548275322e-09 -8.0452432863219220e-12 0.0000000000000000e+00  -9.3087854567175663e-09 7.9784792848067185e-10 0.0000000000000000e+00  -8.8948250611324556e-09 1.5935015553605938e-09 0.0000000000000000e+00  -8.2056625804407345e-09 2.3608089671359388e-09 0.0000000000000000e+00  -7.2484377503803000e-09 3.0641938456661757e-09 0.0000000000000000e+00  -6.0468943926109980e-09 3.6410453514282867e-09 0.0000000000000000e+00  -4.6559069651456288e-09 3.9951901119482664e-09 0.0000000000000000e+00  -3.1780930083050545e-09 3.9988604626364611e-09 0.0000000000000000e+00  -1.7748051153472602e-09 3.5072901841862372e-09 0.0000000000000000e+00  -6.4580909151096817e-10 2.4019284893743461e-09 0.0000000000000000e+00  1.2092261147579418e-10 6.9227618381899389e-10 0.0000000000000000e+00  1.0691943631685055e-10 -2.8929897262106171e-10 0.0000000000000000e+00  -5.7253519078038343e-10 -1.5352743561146150e-09 0.0000000000000000e+00  -1.5819628570870662e-09 -2.2646206482411780e-09 0.0000000000000000e+00  -2.8554017674333253e-09 -2.5971006477596693e-09 0.0000000000000000e+00  -4.2175902752061506e-09 -2.6093500018418453e-09 0.0000000000000000e+00  -5.5190387925605878e-09 -2.3915795067318311e-09 0.0000000000000000e+00  -6.6591950777942955