<?xml version="1.0"?>
<VTKFile type="UnstructuredGrid"  version="0.1"  >
<UnstructuredGrid>
<Piece  NumberOfPoints="651" NumberOfCells="1200">
<Points>
<DataArray  type="Float64"  NumberOfComponents="3"  format="ascii">0 0 0  50000 0 0  100000 0 0  150000 0 0  200000 0 0  250000 0 0  300000 0 0  350000 0 0  400000 0 0  450000 0 0  500000 0 0  550000 0 0  600000 0 0  650000 0 0  700000 0 0  750000 0 0  800000 0 0  850000 0 0  900000 0 0  950000 0 0  1000000 0 0  0 50000 0  50000 50000 0  100000 50000 0  150000 50000 0  200000 50000 0  250000 50000 0  300000 50000 0  350000 50000 0  400000 50000 0  450000 50000 0  500000 50000 0  550000 50000 0  600000 50000 0  650000 50000 0  700000 50000 0  750000 50000 0  800000 50000 0  850000 50000 0  900000 50000 0  950000 50000 0  1000000 50000 0  0 100000 0  50000 100000 0  100000 100000 0  150000 100000 0  200000 100000 0  250000 100000 0  300000 100000 0  350000 100000 0  400000 100000 0  450000 100000 0  500000 100000 0  550000 100000 0  600000 100000 0  650000 100000 0  700000 100000 0  750000 100000 0  800000 100000 0  850000 100000 0  900000 100000 0  950000 100000 0  1000000 100000 0  0 150000 0  50000 150000 0  100000 150000 0  150000 150000 0  200000 150000 0  250000 150000 0  300000 150000 0  350000 150000 0  400000 150000 0  450000 150000 0  500000 150000 0  550000 150000 0  600000 150000 0  650000 150000 0  700000 150000 0  750000 150000 0  800000 150000 0  850000 150000 0  900000 150000 0  950000 150000 0  1000000 150000 0  0 200000 0  50000 200000 0  100000 200000 0  150000 200000 0  200000 200000 0  250000 200000 0  300000 200000 0  350000 200000 0  400000 200000 0  450000 200000 0  500000 200000 0  550000 200000 0  600000 200000 0  650000 200000 0  700000 200000 0  750000 200000 0  800000 200000 0  850000 200000 0  900000 200000 0  950000 200000 0  1000000 200000 0  0 250000 0  50000 250000 0  100000 250000 0  150000 250000 0  200000 250000 0  250000 250000 0  300000 250000 0  350000 250000 0  400000 250000 0  450000 250000 0  500000 250000 0  550000 250000 0  600000 250000 0  650000 250000 0  700000 250000 0  750000 250000 0  800000 250000 0  850000 250000 0  900000 250000 0  950000 250000 0  1000000 250000 0  0 300000 0  50000 300000 0  100000 300000 0  150000 300000 0  200000 300000 0  250000 300000 0  300000 300000 0  350000 300000 0  400000 300000 0  450000 300000 0  500000 300000 0  550000 300000 0  600000 300000 0  650000 300000 0  700000 300000 0  750000 300000 0  800000 300000 0  850000 300000 0  900000 300000 0  950000 300000 0  1000000 300000 0  0 350000 0  50000 350000 0  100000 350000 0  150000 350000 0  200000 350000 0  250000 350000 0  300000 350000 0  350000 350000 0  400000 350000 0  450000 350000 0  500000 350000 0  550000 350000 0  600000 350000 0  650000 350000 0  700000 350000 0  750000 350000 0  800000 350000 0  850000 350000 0  900000 350000 0  950000 350000 0  1000000 350000 0  0 400000 0  50000 400000 0  100000 400000 0  150000 400000 0  200000 400000 0  250000 400000 0  300000 400000 0  350000 400000 0  400000 400000 0  450000 400000 0  500000 400000 0  550000 400000 0  600000 400000 0  650000 400000 0  700000 400000 0  750000 400000 0  800000 400000 0  850000 400000 0  900000 400000 0  950000 400000 0  1000000 400000 0  0 450000 0  50000 450000 0  100000 450000 0  150000 450000 0  200000 450000 0  250000 450000 0  300000 450000 0  350000 450000 0  400000 450000 0  450000 450000 0  500000 450000 0  550000 450000 0  600000 450000 0  650000 450000 0  700000 450000 0  750000 450000 0  800000 450000 0  850000 450000 0  900000 450000 0  950000 450000 0  1000000 450000 0  0 500000 0  50000 500000 0  100000 500000 0  150000 500000 0  200000 500000 0  250000 500000 0  300000 500000 0  350000 500000 0  400000 500000 0  450000 500000 0  500000 500000 0  550000 500000 0  600000 500000 0  650000 500000 0  700000 500000 0  750000 500000 0  800000 500000 0  850000 500000 0  900000 500000 0  950000 500000 0  1000000 500000 0  0 550000 0  50000 550000 0  100000 550000 0  150000 550000 0  200000 550000 0  250000 550000 0  300000 550000 0  350000 550000 0  400000 550000 0  450000 550000 0  500000 550000 0  550000 550000 0  600000 550000 0  650000 550000 0  700000 550000 0  750000 550000 0  800000 550000 0  850000 550000 0  900000 550000 0  950000 550000 0  1000000 550000 0  0 600000 0  50000 600000 0  100000 600000 0  150000 600000 0  200000 600000 0  250000 600000 0  300000 600000 0  350000 600000 0  400000 600000 0  450000 600000 0  500000 600000 0  550000 600000 0  600000 600000 0  650000 600000 0  700000 600000 0  750000 600000 0  800000 600000 0  850000 600000 0  900000 600000 0  950000 600000 0  1000000 600000 0  0 650000 0  50000 650000 0  100000 650000 0  150000 650000 0  200000 650000 0  250000 650000 0  300000 650000 0  350000 650000 0  400000 650000 0  450000 650000 0  500000 650000 0  550000 650000 0  600000 650000 0  650000 650000 0  700000 650000 0  750000 650000 0  800000 650000 0  850000 650000 0  900000 650000 0  950000 650000 0  1000000 650000 0  0 700000 0  50000 700000 0  100000 700000 0  150000 700000 0  200000 700000 0  250000 700000 0  300000 700000 0  350000 700000 0  400000 700000 0  450000 700000 0  500000 700000 0  550000 700000 0  600000 700000 0  650000 700000 0  700000 700000 0  750000 700000 0  800000 700000 0  850000 700000 0  900000 700000 0  950000 700000 0  1000000 700000 0  0 750000 0  50000 750000 0  100000 750000 0  150000 750000 0  200000 750000 0  250000 750000 0  300000 750000 0  350000 750000 0  400000 750000 0  450000 750000 0  500000 750000 0  550000 750000 0  600000 750000 0  650000 750000 0  700000 750000 0  750000 750000 0  800000 750000 0  850000 750000 0  900000 750000 0  950000 750000 0  1000000 750000 0  0 800000 0  50000 800000 0  100000 800000 0  150000 800000 0  200000 800000 0  250000 800000 0  300000 800000 0  350000 800000 0  400000 800000 0  450000 800000 0  500000 800000 0  550000 800000 0  600000 800000 0  650000 800000 0  700000 800000 0  750000 800000 0  800000 800000 0  850000 800000 0  900000 800000 0  950000 800000 0  1000000 800000 0  0 850000 0  50000 850000 0  100000 850000 0  150000 850000 0  200000 850000 0  250000 850000 0  300000 850000 0  350000 850000 0  400000 850000 0  450000 850000 0  500000 850000 0  550000 850000 0  600000 850000 0  650000 850000 0  700000 850000 0  750000 850000 0  800000 850000 0  850000 850000 0  900000 850000 0  950000 850000 0  1000000 850000 0  0 900000 0  50000 900000 0  100000 900000 0  150000 900000 0  200000 900000 0  250000 900000 0  300000 900000 0  350000 900000 0  400000 900000 0  450000 900000 0  500000 900000 0  550000 900000 0  600000 900000 0  650000 900000 0  700000 900000 0  750000 900000 0  800000 900000 0  850000 900000 0  900000 900000 0  950000 900000 0  1000000 900000 0  0 950000 0  50000 950000 0  100000 950000 0  150000 950000 0  200000 950000 0  250000 950000 0  300000 950000 0  350000 950000 0  400000 950000 0  450000 950000 0  500000 950000 0  550000 950000 0  600000 950000 0  650000 950000 0  700000 950000 0  750000 950000 0  800000 950000 0  850000 950000 0  900000 950000 0  950000 950000 0  1000000 950000 0  0 1000000 0  50000 1000000 0  100000 1000000 0  150000 1000000 0  200000 1000000 0  250000 1000000 0  300000 1000000 0  350000 1000000 0  400000 1000000 0  450000 1000000 0  500000 1000000 0  550000 1000000 0  600000 1000000 0  650000 1000000 0  700000 1000000 0  750000 1000000 0  800000 1000000 0  850000 1000000 0  900000 1000000 0  950000 1000000 0  1000000 1000000 0  0 1050000 0  50000 1050000 0  100000 1050000 0  150000 1050000 0  200000 1050000 0  250000 1050000 0  300000 1050000 0  350000 1050000 0  400000 1050000 0  450000 1050000 0  500000 1050000 0  550000 1050000 0  600000 1050000 0  650000 1050000 0  700000 1050000 0  750000 1050000 0  800000 1050000 0  850000 1050000 0  900000 1050000 0  950000 1050000 0  1000000 1050000 0  0 1100000 0  50000 1100000 0  100000 1100000 0  150000 1100000 0  200000 1100000 0  250000 1100000 0  300000 1100000 0  350000 1100000 0  400000 1100000 0  450000 1100000 0  500000 1100000 0  550000 1100000 0  600000 1100000 0  650000 1100000 0  700000 1100000 0  750000 1100000 0  800000 1100000 0  850000 1100000 0  900000 1100000 0  950000 1100000 0  1000000 1100000 0  0 1150000 0  50000 1150000 0  100000 1150000 0  150000 1150000 0  200000 1150000 0  250000 1150000 0  300000 1150000 0  350000 1150000 0  400000 1150000 0  450000 1150000 0  500000 1150000 0  550000 1150000 0  600000 1150000 0  650000 1150000 0  700000 1150000 0  750000 1150000 0  800000 1150000 0  850000 1150000 0  900000 1150000 0  950000 1150000 0  1000000 1150000 0  0 1200000 0  50000 1200000 0  100000 1200000 0  150000 1200000 0  200000 1200000 0  250000 1200000 0  300000 1200000 0  350000 1200000 0  400000 1200000 0  450000 1200000 0  500000 1200000 0  550000 1200000 0  600000 1200000 0  650000 1200000 0  700000 1200000 0  750000 1200000 0  800000 1200000 0  850000 1200000 0  900000 1200000 0  950000 1200000 0  1000000 1200000 0  0 1250000 0  50000 1250000 0  100000 1250000 0  150000 1250000 0  200000 1250000 0  250000 1250000 0  300000 1250000 0  350000 1250000 0  400000 1250000 0  450000 1250000 0  500000 1250000 0  550000 1250000 0  600000 1250000 0  650000 1250000 0  700000 1250000 0  750000 1250000 0  800000 1250000 0  850000 1250000 0  900000 1250000 0  950000 1250000 0  1000000 1250000 0  0 1300000 0  50000 1300000 0  100000 1300000 0  150000 1300000 0  200000 1300000 0  250000 1300000 0  300000 1300000 0  350000 1300000 0  400000 1300000 0  450000 1300000 0  500000 1300000 0  550000 1300000 0  600000 1300000 0  650000 1300000 0  700000 1300000 0  750000 1300000 0  800000 1300000 0  850000 1300000 0  900000 1300000 0  950000 1300000 0  1000000 1300000 0  0 1350000 0  50000 1350000 0  100000 1350000 0  150000 1350000 0  200000 1350000 0  250000 1350000 0  300000 1350000 0  350000 1350000 0  400000 1350000 0  450000 1350000 0  500000 1350000 0  550000 1350000 0  600000 1350000 0  650000 1350000 0  700000 135
[...]
<PointData  Vectors="f_3007"> 
<DataArray  type="Float64"  Name="f_3007"  NumberOfComponents="3" format="ascii">-1.5228577007801572e-08 -8.4283743448574749e-09 0.0000000000000000e+00  6.4005095768278005e-08 -5.2623384027107591e-09 0.0000000000000000e+00  6.7317117319809486e-08 -1.4338875652759048e-09 0.0000000000000000e+00  7.1072547396909622e-08 -2.0582519758781906e-10 0.0000000000000000e+00  7.3892833281646146e-08 1.8999847181982312e-10 0.0000000000000000e+00  7.5733915598317979e-08 2.9655674288488230e-10 0.0000000000000000e+00  7.6896488892504071e-08 2.8382420753550806e-10 0.0000000000000000e+00  7.7612593598350666e-08 2.2136834553547304e-10 0.0000000000000000e+00  7.8027170636017011e-08 1.3948231438975491e-10 0.0000000000000000e+00  7.8222357764102752e-08 5.0743769253922827e-11 0.0000000000000000e+00  7.8236204659833741e-08 -4.0154225578286446e-11 0.0000000000000000e+00  7.8072075037346722e-08 -1.3122372078154068e-10 0.0000000000000000e+00  7.7699856973379354e-08 -2.1949534019403968e-10 0.0000000000000000e+00  7.7049946317212682e-08 -2.9642929669982679e-10 0.0000000000000000e+00  7.6002194915829781e-08 -3.3878495801159255e-10 0.0000000000000000e+00  7.4382274277680904e-08 -2.8604937077062699e-10 0.0000000000000000e+00  7.2020035252522055e-08 2.0124102295009604e-11 0.0000000000000000e+00  6.9045377692059162e-08 9.9272763272498392e-10 0.0000000000000000e+00  6.6528583714763401e-08 3.6156271955654659e-09 0.0000000000000000e+00  6.5180741332334138e-08 8.5067992079510670e-09 0.0000000000000000e+00  -1.3278802196468472e-08 7.2939069744936988e-09 0.0000000000000000e+00  -1.0807434989223501e-08 -1.1589834289628900e-08 0.0000000000000000e+00  7.0861746961543513e-09 -1.7644670819730287e-08 0.0000000000000000e+00  2.0944616482874534e-08 -1.2493809728881209e-08 0.0000000000000000e+00  3.1824252292626949e-08 -8.4288675261624817e-09 0.0000000000000000e+00  3.9887983486342586e-08 -5.7077183309152443e-09 0.0000000000000000e+00  4.5754932787618039e-08 -3.8749226526537626e-09 0.0000000000000000e+00  4.9922660739130923e-08 -2.6138725217146576e-09 0.0000000000000000e+00  5.2795519471557946e-08 -1.7173839796917266e-09 0.0000000000000000e+00  5.4663584949774522e-08 -1.0474779904276781e-09 0.0000000000000000e+00  5.5714984220056673e-08 -5.0881716639742351e-10 0.0000000000000000e+00  5.6054621729516526e-08 -3.0625588648197509e-11 0.0000000000000000e+00  5.5717042907880435e-08 4.4691983331853293e-10 0.0000000000000000e+00  5.4671245637200429e-08 9.8441198114146090e-10 0.0000000000000000e+00  5.2817656457689508e-08 1.6559037933218221e-09 0.0000000000000000e+00  4.9978376420812440e-08 2.5665825044729978e-09 0.0000000000000000e+00  4.5884454325598394e-08 3.8822321987546341e-09 0.0000000000000000e+00  4.0170413206209401e-08 5.8813083319609731e-09 0.0000000000000000e+00  3.2383216569265634e-08 9.0281741835631511e-09 0.0000000000000000e+00  2.1897003797011845e-08 1.3896306608843170e-08 0.0000000000000000e+00  7.3781716934312472e-09 1.9713553267822769e-08 0.0000000000000000e+00  -1.2947801262209995e-08 9.9228525433416683e-09 0.0000000000000000e+00  -5.0381191262710744e-09 -1.1411534792562935e-08 0.0000000000000000e+00  -2.9585133158045472e-09 -2.5815183428463896e-08 0.0000000000000000e+00  1.9066738813292882e-09 -2.2576883676525880e-08 0.0000000000000000e+00  9.4048391483652890e-09 -1.7311950347745889e-08 0.0000000000000000e+00  1.7033679816780599e-08 -1.2734209661935826e-08 0.0000000000000000e+00  2.3441875502153658e-08 -9.1828651284536385e-09 0.0000000000000000e+00  2.8418902727645734e-08 -6.4787926210968996e-09 0.0000000000000000e+00  3.2067771725147807e-08 -4.3905938276013410e-09 0.0000000000000000e+00  3.4543081089038340e-08 -2.7183081810256097e-09 0.0000000000000000e+00  3.5975058239485346e-08 -1.3000349351340811e-09 0.0000000000000000e+00  3.6446489196548928e-08 -1.3032053775522416e-12 0.0000000000000000e+00  3.5986951144304302e-08 1.2989103560849066e-09 0.0000000000000000e+00  3.4572521872067890e-08 2.7227614791965096e-09 0.0000000000000000e+00  3.2128403984326057e-08 4.4089764069457834e-09 0.0000000000000000e+00  2.8537853147525518e-08 6.5296422309822075e-09 0.0000000000000000e+00  2.3668974197172349e-08 9.3050959935177946e-09 0.0000000000000000e+00  1.7447333951127332e-08 1.2995098514014162e-08 0.0000000000000000e+00  1.0035590018001902e-08 1.7765774706673509e-08 0.0000000000000000e+00  2.2391440013201069e-09 2.3034828479825175e-08 0.0000000000000000e+00  -3.8083154527573757e-09 2.5081213271256220e-08 0.0000000000000000e+00  -7.3798258214777732e-09 1.0449279378272944e-08 0.0000000000000000e+00  -2.1332396680751693e-09 -9.0710525760965623e-09 0.0000000000000000e+00  -4.1000622760798511e-09 -2.5297259669125758e-08 0.0000000000000000e+00  -4.2645200055616643e-09 -2.7097990633925541e-08 0.0000000000000000e+00  -1.3174582891828408e-09 -2.3419529728082945e-08 0.0000000000000000e+00  3.3206381261234122e-09 -1.8686885455932832e-08 0.0000000000000000e+00  8.1563298673664953e-09 -1.4269502205193936e-08 0.0000000000000000e+00  1.2406362708452638e-08 -1.0491059710682568e-08 0.0000000000000000e+00  1.5770916251722451e-08 -7.3194304603637078e-09 0.0000000000000000e+00  1.8168797114578855e-08 -4.6169540684453488e-09 0.0000000000000000e+00  1.9598633148341073e-08 -2.2239237480847471e-09 0.0000000000000000e+00  2.0077371180093668e-08 1.7556384325390230e-11 0.0000000000000000e+00  1.9614632078159614e-08 2.2612770945377556e-09 0.0000000000000000e+00  1.8206157342509692e-08 4.6617785690414739e-09 0.0000000000000000e+00  1.5842027867256553e-08 7.3792647502896616e-09 0.0000000000000000e+00  1.2533514705496848e-08 1.0576759262609384e-08 0.0000000000000000e+00  8.3710657039167436e-09 1.4391571982451312e-08 0.0000000000000000e+00  3.6361940685478569e-09 1.8832549394587568e-08 0.0000000000000000e+00  -1.0083311127440980e-09 2.3478035697971482e-08 0.0000000000000000e+00  -4.3008099654887466e-09 2.6716722925325104e-08 0.0000000000000000e+00  -4.6602383191102882e-09 2.4399414653479045e-08 0.0000000000000000e+00  -3.2802624103242302e-09 9.7233455204452476e-09 0.0000000000000000e+00  -8.6125896667017270e-10 -6.8121444844248150e-09 0.0000000000000000e+00  -3.6520657314249981e-09 -2.2418794857156266e-08 0.0000000000000000e+00  -5.8399415122708845e-09 -2.7194264734244680e-08 0.0000000000000000e+00  -5.9129180902352786e-09 -2.5973563890279569e-08 0.0000000000000000e+00  -4.1587466659780330e-09 -2.2282510931560815e-08 0.0000000000000000e+00  -1.5009484656754089e-09 -1.7942324002973724e-08 0.0000000000000000e+00  1.2879444133223025e-09 -1.3713008234479174e-08 0.0000000000000000e+00  3.7374348711744202e-09 -9.8364366170462218e-09 0.0000000000000000e+00  5.5982961602066221e-09 -6.3216768376078822e-09 0.0000000000000000e+00  6.7508781013449688e-09 -3.0784166443662709e-09 0.0000000000000000e+00  7.1447474941083343e-09 2.3227211576933005e-11 0.0000000000000000e+00  6.7674596318131897e-09 3.1265294551300391e-09 0.0000000000000000e+00  5.6352896151961203e-09 6.3747876004240179e-09 0.0000000000000000e+00  3.8029319952283069e-09 9.8973947650050813e-09 0.0000000000000000e+00  1.3936047394628461e-09 1.3781217225694934e-08 0.0000000000000000e+00  -1.3469430746912450e-09 1.8004026676963990e-08 0.0000000000000000e+00  -3.9751041600529842e-09 2.2287391958728454e-08 0.0000000000000000e+00  -5.7882902264449883e-09 2.5804173124819165e-08 0.0000000000000000e+00  -5.9171756270394116e-09 2.6713567276967059e-08 0.0000000000000000e+00  -3.9302354998798860e-09 2.1821855875997161e-08 0.0000000000000000e+00  -1.4277905272179885e-09 7.9940260429079515e-09 0.0000000000000000e+00  -2.8182063895042730e-10 -5.0575465947210656e-09 0.0000000000000000e+00  -3.0111061144646389e-09 -1.9161205034321773e-08 0.0000000000000000e+00  -5.8605140673413098e-09 -2.5207432676708751e-08 0.0000000000000000e+00  -7.5937227613950302e-09 -2.5884631773137566e-08 0.0000000000000000e+00  -7.9149839799840224e-09 -2.3545295315095695e-08 0.0000000000000000e+00  -7.1957226135481287e-09 -1.9840999262284167e-08 0.0000000000000000e+00  -5.9568933314674840e-09 -1.5694211689479849e-08 0.0000000000000000e+00  -4.6307993934295207e-09 -1.1543803186214715e-08 0.0000000000000000e+00  -3.5117444661290606e-09 -7.5480731121683125e-09 0.0000000000000000e+00  -2.7769890708502066e-09 -3.7151092607649750e-09 0.0000000000000000e+00  -2.5179986876787111e-09 2.1612850281527074e-11 0.0000000000000000e+00  -2.7620740883456143e-09 3.7588899289595407e-09 0.0000000000000000e+00  -3.4797891209062924e-09 7.5929859934012504e-09 0.0000000000000000e+00  -4.5779583965083562e-09 1.1588186611929186e-08 0.0000000000000000e+00  -5.8795752879059054e-09 1.5730282199124912e-08 0.0000000000000000e+00  -7.0966099646403602e-09 1.9847123058616363e-08 0.0000000000000000e+00  -7.8150592057118325e-09 2.3476189408383057e-08 0.0000000000000000e+00  -7.5423576972528080e-09 2.5674457094643215e-08 0.0000000000000000e+00  -5.9121852451884854e-09 2.4841000680803374e-08 0.0000000000000000e+00  -3.1423189458164493e-09 1.8809928010726112e-08 0.0000000000000000e+00  -5.6996014267533564e-10 6.1702673065133153e-09 0.0000000000000000e+00  -5.0114354912098745e-12 -3.7637718440682646e-09 0.0000000000000000e+00  -2.4536293291172751e-09 -1.6091764305642585e-08 0.0000000000000000e+00  -5.3987899548262913e-09 -2.2403879090327121e-08 0.0000000000000000e+00  -7.9390797650065922e-09 -2.4225218118548660e-08 0.0000000000000000e+00  -9.5655041974593927e-09 -2.3048728794242667e-08 0.0000000000000000e+00  -1.0287600848464649e-08 -2.0152110665609107e-08 0.0000000000000000e+00  -1.0361398823800344e-08 -1.6409291331464452e-08 0.0000000000000000e+00  -1.0087648143139604e-08 -1.2335147760646499e-08 0.0000000000000000e+00  -9.7176816970196674e-09 -8.1890724719435818e-09 0.0000000000000000e+00  -9.4267297365934616e-09 -4.0692396039532998e-09 0.0000000000000000e+00  -9.3149581619383273e-09 1.7146568549446120e-11 0.0000000000000000e+00  -9.4143772109304178e-09 4.1030801225370671e-09 0.0000000000000000e+00  -9.6921201554486779e-09 8.2208333081402541e-09 0.0000000000000000e+00  -1.0047785191982965e-08 1.2360641141196465e-08 0.0000000000000000e+00  -1.0307672363934606e-08 1.6418882119588173e-08 0.0000000000000000e+00  -1.0225481035788295e-08 2.0127084778559114e-08 0.0000000000000000e+00  -9.5101624447228624e-09 2.2960433958068108e-08 0.0000000000000000e+00  -7.9157425237150963e-09 2.4047750508786580e-08 0.0000000000000000e+00  -5.4273992981859667e-09 2.2156115080469861e-08 0.0000000000000000e+00  -2.5142006784837196e-09 1.5890203078035058e-08 0.0000000000000000e+00  -1.5460694700013863e-10 4.6638131819121892e-09 0.0000000000000000e+00  1.2961691308193809e-10 -2.8132503858613547e-09 0.0000000000000000e+00  -2.0126566108403501e-09 -1.3349877632465259e-08 0.0000000000000000e+00  -4.8280372160379565e-09 -1.9369245527606342e-08 0.0000000000000000e+00  -7.6907913597977042e-09 -2.1743714287480121e-08 0.0000000000000000e+00  -1.0056427133937624e-08 -2.1401330569304929e-08 0.0000000000000000e+00  -1.1737196016882075e-08 -1.9263367879348905e-08 0.0000000000000000e+00  -1.2787066027217400e-08 -1.6060971131480128e-08 0.0000000000000000e+00  -1.3363539625459031e-08 -1.2294990157223442e-08 0.0000000000000000e+00  -1.3636270945593920e-08 -8.2687094547853841e-09 0.0000000000000000e+00  -1.3741396791349763e-08 -4.1425417464662346e-09 0.0000000000000000e+00  -1.3763700250198738e-08 1.2096596728188372e-11 0.0000000000000000e+00  -1.3731616887911719e-08 4.1656360360711095e-09 0.0000000000000000e+00  -1.3616609762092055e-08 8.2878735713924653e-09 0.0000000000000000e+00  -1.3334325153491232e-08 1.2305365969514521e-08 0.0000000000000000e+00  -1.2750225855474639e-08 1.6054134241977513e-08 0.0000000000000000e+00  -1.1698001635843990e-08 1.9226484099670643e-08 0.0000000000000000e+00  -1.0024881027399966e-08 2.1319576504227529e-08 0.0000000000000000e+00  -7.6797651706231499e-09 2.1610596448703856e-08 0.0000000000000000e+00  -4.8435811306912626e-09 1.9207196447577739e-08 0.0000000000000000e+00  -2.0392820080569503e-09 1.3234299208132883e-08 0.0000000000000000e+00  5.2205515217180137e-11 3.5103107012760430e-09 0.0000000000000000e+00  1.9362778462311567e-10 -2.1058163661362028e-09 0.0000000000000000e+00  -1.6710779733633768e-09 -1.0940709023110149e-08 0.0000000000000000e+00  -4.2756217919453080e-09 -1.6370632052894991e-08 0.0000000000000000e+00  -7.1971975094447788e-09 -1.8893920115075909e-08 0.0000000000000000e+00  -9.9270362947027074e-09 -1.9078159600561932e-08 0.0000000000000000e+00  -1.2185156162874534e-08 -1.7563996291811635e-08 0.0000000000000000e+00  -1.3892558403724088e-08 -1.4922860977115704e-08 0.0000000000000000e+00  -1.5087325875982243e-08 -1.1594344097524361e-08 0.0000000000000000e+00  -1.5853007446486160e-08 -7.8814388995306979e-09 0.0000000000000000e+00  -1.6272521958667210e-08 -3.9755547953171981e-09 0.0000000000000000e+00  -1.6403113247612166e-08 7.4444288247754065e-12 0.0000000000000000e+00  -1.6264973216686213e-08 3.9890706777315298e-09 0.0000000000000000e+00  -1.5838194203522080e-08 7.8904040910822200e-09 0.0000000000000000e+00  -1.5066185166894201e-08 1.1594320261877589e-08 0.0000000000000000e+00  -1.3867368114050087e-08 1.4907586856928106e-08 0.0000000000000000e+00  -1.2160298486369000e-08 1.7525796039333482e-08 0.0000000000000000e+00  -9.9090960095824941e-09 1.9010632229951217e-08 0.0000000000000000e+00  -7.1927110433815112e-09 1.8798273271720022e-08 0.0000000000000000e+00  -4.2844805624167923e-09 1.6265405476224171e-08 0.0000000000000000e+00  -1.6809540419478202e-09 1.0874506144281502e-08 0.0000000000000000e+00  1.5524800820753938e-10 2.6423637929286513e-09 0.0000000000000000e+00  2.2147868379994625e-10 -1.5693252055509575e-09 0.0000000000000000e+00  -1.4064394893009618e-09 -8.8298030230879033e-09 0.0000000000000000e+00  -3.7825684004577448e-09 -1.3525071965499007e-08 0.0000000000000000e+00  -6.6270322827815241e-09 -1.5937298521051227e-08 0.0000000000000000e+00  -9.4881841898111940e-09 -1.6406919515538636e-08 0.0000000000000000e+00  -1.2052643372942905e-08 -1.5369271161632889e-08 0.0000000000000000e+00  -1.4162013937214312e-08 -1.3252750850878049e-08 0.0000000000000000e+00  -1.5767022953400289e-08 -1.0419217128745461e-08 0.0000000000000000e+00  -1.6877515311081477e-08 -7.1441900431889613e-09 0.0000000000000000e+00  -1.7524262495574975e-08 -3.6238359659367302e-09 0.0000000000000000e+00  -1.7734433655137525e-08 3.5397969925358035e-12 0.0000000000000000e+00  -1.7518550537946821e-08 3.6295407057208850e-09 0.0000000000000000e+00  -1.6866539648565442e-08 7.1455395253977125e-09 0.0000000000000000e+00  -1.5751909561994415e-08 1.0412629201119506e-08 0.0000000000000000e+00  -1.4144934620642983e-08 1.3234017700721022e-08 0.0000000000000000e+00  -1.2037074923773208e-08 1.5334308540069917e-08 0.0000000000000000e+00  -9.4784936257162387e-09 1.6353799274557264e-08 0.0000000000000000e+00  -6.6263023246414495e-09 1.5869706143284816e-08 0.0000000000000000e+00  -3.7879181473480367e-09 1.3456811932703895e-08 0.0000000000000000e+00  -1.4079265219053182e-09 8.7924499450765339e-09 0.0000000000000000e+00  2.0454248097349163e-10 1.9859623286208855e-09 0.0000000000000000e+00  2.3084587518610834e-10 -1.1536500459509700e-09 0.0000000000000000e+00  -1.2010422357016139e-09 -6.9734756226339115e-09 0.0000000000000000e+00  -3.3607400435146001e-09 -1.0874868437626715e-08 0.0000000000000000e+00  -6.0668608465513411e-09 -1.3016473812634574e-08 0.0000000000000000e+00  -8.9251000223307243e-09 -1.3597103823876849e-08 0.0000000000000000e+00  -1.1618504676130682e-08 -1.2906931686990372e-08 0.0000000000000000e+00  -1.3945333226324674e-08 -1.1257387634536689e-08 0.0000000000000000e+00  -1.5797579715222728e-08 -8.9326794771559020e-09 0.0000000000000000e+00  -1.7128897537628273e-08 -6.1669750250703325e-09 0.0000000000000000e+00  -1.7926396901436826e-08 -3.1422278168292083e-09 0.0000000000000000e+00  -1.8190318534980198e-08 4.4908668861616554e-13 0.0000000000000000e+00  -1.7922175192591370e-08 3.1419056890345905e-09 0.0000000000000000e+00  -1.7120938777987300e-08 6.1629136173260383e-09 0.0000000000000000e+00  -1.5786982611257093e-08 8.9222119852426712e-09 0.0000000000000000e+00  -1.3933981683646437e-08 1.1237911191719164e-08 0.0000000000000000e+00  -1.1609071705595579e-08 1.2876610694652238e-08 0.0000000000000000e+00  -8.9204557637756346e-09 1.3556182241092191e-08 0.0000000000000000e+00  -6.0681583474373243e-09 1.2969000341373624e-08 0.0000000000000000e+00  -3.3640806601202765e-09 1.0830689150300409e-08 0.0000000000000000e+00  -1.1985063286828210e-09 6.9533129417214895e-09 0.0000000000000000e+00  2.2549737179676677e-10 1.4823832774493015e-09 0.0000000000000000e+00  2.3128605672787692e-10 -8.2353276763701029e-10 0.0000000000000000e+00  -1.0429492453122310e-09 -5.3275311444111534e-09 0.0000000000000000e+00  -3.0132495887950127e-09 -8.4224877759594588e-09 0.0000000000000000e+00  -5.5649142204961489e-09 -1.0199939635748183e-08 0.0000000000000000e+00  -8.3530023006456619e-09 -1.0771792649852126e-08 0.0000000000000000e+00  -1.1070112821524661e-08 -1.0327171451660901e-08 0.0000000000000000e+00  -1.3493351557807117e-08 -9.0855274042349639e-09 0.0000000000000000e+00  -1.5477768673290122e-08 -7.2603800677835739e-09 0.0000000000000000e+00  -1.6937485600100844e-08 -5.0389950915260158e-09 0.0000000000000000e+00  -1.7826570416122597e-08 -2.5766742160014335e-09 0.0000000000000000e+00  -1.8123873642867077e-08 -1.8792649586804724e-12 0.0000000000000000e+00  -1.7823552166379920e-08 2.5719128123668325e-09 0.0000000000000000e+00  -1.6931894673847640e-08 5.0312441646910740e-09 0.0000000000000000e+00  -1.5470560142458844e-08 7.2477730696539348e-09 0.0000000000000000e+00  -1.3486047249691096e-08 9.0666009241922482e-09 0.0000000000000000e+00  -1.1064690054958071e-08 1.0301409516488870e-08 0.0000000000000000e+00  -8.3512969500636956e-09 1.0740393595898801e-08 0.0000000000000000e+00  -5.5670571556076604e-09 1.0166566334366598e-08 0.0000000000000000e+00  -3.0153329701041077e-09 8.3940362535418415e-09 0.0000000000000000e+00  -1.0388672378044448e-09 5.3177643042097688e-09 0.0000000000000000e+00  2.3173478746041828e-10 1.0886002136790221e-09 0.0000000000000000e+00  2.2818266919301248e-10 -5.5317979445848617e-10 0.0000000000000000e+00  -9.2476938475642680e-10 -3.8489607351188191e-09 0.0000000000000000e+00  -2.7412666013580996e-09 -6.1475378714344622e-09 0.0000000000000000e+00  -5.1505437614411249e-09 -7.5089402089719967e-09 0.0000000000000000e+00  -7.8463470205021705e-09 -7.9930663957013050e-09 0.0000000000000000e+00  -1.0534689111536513e-08 -7.7187794115781185e-09 0.0000000000000000e+00  -1.2984062339083840e-08 -6.8337982893709322e-09 0.0000000000000000e+00  -1.5027704576739426e-08 -5.4894515216721200e-09 0.0000000000000000e+00  -1.6553758306060416e-08 -3.8249706955529084e-09 0.0000000000000000e+00  -1.7493227954585137e-08 -1.9614435759162238e-09 0.0000000000000000e+00  -1.7809464657487597e-08 -3.5404481882095546e-12 0.0000000000000000e+00  -1.7491179653386196e-08 1.9535755903189453e-09 0.0000000000000000e+00  -1.6550023147484652e-08 3.8148147232203762e-09 0.0000000000000000e+00  -1.5023030904044784e-08 5.4757635621260455e-09 0.0000000000000000e+00  -1.2979585426070754e-08 6.8158720113926818e-09 0.0000000000000000e+00  -1.0531789810373006e-08 7.6968344912325452e-09 0.0000000000000000e+00  -7.8461467917863695e-09 7.9686577566021083e-09 0.0000000000000000e+00  -5.1527290731048498e-09 7.4851808177628304e-09 0.0000000000000000e+00  -2.7425207706394103e-09 6.1292646391226021e-09 0.0000000000000000e+00  -9.2064839714873751e-10 3.8454959869238643e-09 0.0000000000000000e+00  2.3090796140488342e-10 7.7323421280981432e-10 0.0000000000000000e+00  2.2462872546186455e-10 -3.2261149502911963e-10 0.0000000000000000e+00  -8.4222427845377822e-10 -2.4956942811220715e-09 0.0000000000000000e+00  -2.5458460220260001e-09 -4.0156723044466888e-09 0.0000000000000000e+00  -4.8427101760254820e-09 -4.9341806141237469e-09 0.0000000000000000e+00  -7.4540108232757907e-09 -5.2809573479662837e-09 0.0000000000000000e+00  -1.0097997737594556e-08 -5.1250440958994684e-09 0.0000000000000000e+00  -1.2540802840821520e-08 -4.55