<?xml version="1.0"?>
<VTKFile type="UnstructuredGrid"  version="0.1"  >
<UnstructuredGrid>
<Piece  NumberOfPoints="651" NumberOfCells="1200">
<Points>
<DataArray  type="Float64"  NumberOfComponents="3"  format="ascii">0 0 0  50000 0 0  100000 0 0  150000 0 0  200000 0 0  250000 0 0  300000 0 0  350000 0 0  400000 0 0  450000 0 0  500000 0 0  550000 0 0  600000 0 0  650000 0 0  700000 0 0  750000 0 0  800000 0 0  850000 0 0  900000 0 0  950000 0 0  1000000 0 0  0 50000 0  50000 50000 0  100000 50000 0  150000 50000 0  200000 50000 0  250000 50000 0  300000 50000 0  350000 50000 0  400000 50000 0  450000 50000 0  500000 50000 0  550000 50000 0  600000 50000 0  650000 50000 0  700000 50000 0  750000 50000 0  800000 50000 0  850000 50000 0  900000 50000 0  950000 50000 0  1000000 50000 0  0 100000 0  50000 100000 0  100000 100000 0  150000 100000 0  200000 100000 0  250000 100000 0  300000 100000 0  350000 100000 0  400000 100000 0  450000 100000 0  500000 100000 0  550000 100000 0  600000 100000 0  650000 100000 0  700000 100000 0  750000 100000 0  800000 100000 0  850000 100000 0  900000 100000 0  950000 100000 0  1000000 100000 0  0 150000 0  50000 150000 0  100000 150000 0  150000 150000 0  200000 150000 0  250000 150000 0  300000 150000 0  350000 150000 0  400000 150000 0  450000 150000 0  500000 150000 0  550000 150000 0  600000 150000 0  650000 150000 0  700000 150000 0  750000 150000 0  800000 150000 0  850000 150000 0  900000 150000 0  950000 150000 0  1000000 150000 0  0 200000 0  50000 200000 0  100000 200000 0  150000 200000 0  200000 200000 0  250000 200000 0  300000 200000 0  350000 200000 0  400000 200000 0  450000 200000 0  500000 200000 0  550000 200000 0  600000 200000 0  650000 200000 0  700000 200000 0  750000 200000 0  800000 200000 0  850000 200000 0  900000 200000 0  950000 200000 0  1000000 200000 0  0 250000 0  50000 250000 0  100000 250000 0  150000 250000 0  200000 250000 0  250000 250000 0  300000 250000 0  350000 250000 0  400000 250000 0  450000 250000 0  500000 250000 0  550000 250000 0  600000 250000 0  650000 250000 0  700000 250000 0  750000 250000 0  800000 250000 0  850000 250000 0  900000 250000 0  950000 250000 0  1000000 250000 0  0 300000 0  50000 300000 0  100000 300000 0  150000 300000 0  200000 300000 0  250000 300000 0  300000 300000 0  350000 300000 0  400000 300000 0  450000 300000 0  500000 300000 0  550000 300000 0  600000 300000 0  650000 300000 0  700000 300000 0  750000 300000 0  800000 300000 0  850000 300000 0  900000 300000 0  950000 300000 0  1000000 300000 0  0 350000 0  50000 350000 0  100000 350000 0  150000 350000 0  200000 350000 0  250000 350000 0  300000 350000 0  350000 350000 0  400000 350000 0  450000 350000 0  500000 350000 0  550000 350000 0  600000 350000 0  650000 350000 0  700000 350000 0  750000 350000 0  800000 350000 0  850000 350000 0  900000 350000 0  950000 350000 0  1000000 350000 0  0 400000 0  50000 400000 0  100000 400000 0  150000 400000 0  200000 400000 0  250000 400000 0  300000 400000 0  350000 400000 0  400000 400000 0  450000 400000 0  500000 400000 0  550000 400000 0  600000 400000 0  650000 400000 0  700000 400000 0  750000 400000 0  800000 400000 0  850000 400000 0  900000 400000 0  950000 400000 0  1000000 400000 0  0 450000 0  50000 450000 0  100000 450000 0  150000 450000 0  200000 450000 0  250000 450000 0  300000 450000 0  350000 450000 0  400000 450000 0  450000 450000 0  500000 450000 0  550000 450000 0  600000 450000 0  650000 450000 0  700000 450000 0  750000 450000 0  800000 450000 0  850000 450000 0  900000 450000 0  950000 450000 0  1000000 450000 0  0 500000 0  50000 500000 0  100000 500000 0  150000 500000 0  200000 500000 0  250000 500000 0  300000 500000 0  350000 500000 0  400000 500000 0  450000 500000 0  500000 500000 0  550000 500000 0  600000 500000 0  650000 500000 0  700000 500000 0  750000 500000 0  800000 500000 0  850000 500000 0  900000 500000 0  950000 500000 0  1000000 500000 0  0 550000 0  50000 550000 0  100000 550000 0  150000 550000 0  200000 550000 0  250000 550000 0  300000 550000 0  350000 550000 0  400000 550000 0  450000 550000 0  500000 550000 0  550000 550000 0  600000 550000 0  650000 550000 0  700000 550000 0  750000 550000 0  800000 550000 0  850000 550000 0  900000 550000 0  950000 550000 0  1000000 550000 0  0 600000 0  50000 600000 0  100000 600000 0  150000 600000 0  200000 600000 0  250000 600000 0  300000 600000 0  350000 600000 0  400000 600000 0  450000 600000 0  500000 600000 0  550000 600000 0  600000 600000 0  650000 600000 0  700000 600000 0  750000 600000 0  800000 600000 0  850000 600000 0  900000 600000 0  950000 600000 0  1000000 600000 0  0 650000 0  50000 650000 0  100000 650000 0  150000 650000 0  200000 650000 0  250000 650000 0  300000 650000 0  350000 650000 0  400000 650000 0  450000 650000 0  500000 650000 0  550000 650000 0  600000 650000 0  650000 650000 0  700000 650000 0  750000 650000 0  800000 650000 0  850000 650000 0  900000 650000 0  950000 650000 0  1000000 650000 0  0 700000 0  50000 700000 0  100000 700000 0  150000 700000 0  200000 700000 0  250000 700000 0  300000 700000 0  350000 700000 0  400000 700000 0  450000 700000 0  500000 700000 0  550000 700000 0  600000 700000 0  650000 700000 0  700000 700000 0  750000 700000 0  800000 700000 0  850000 700000 0  900000 700000 0  950000 700000 0  1000000 700000 0  0 750000 0  50000 750000 0  100000 750000 0  150000 750000 0  200000 750000 0  250000 750000 0  300000 750000 0  350000 750000 0  400000 750000 0  450000 750000 0  500000 750000 0  550000 750000 0  600000 750000 0  650000 750000 0  700000 750000 0  750000 750000 0  800000 750000 0  850000 750000 0  900000 750000 0  950000 750000 0  1000000 750000 0  0 800000 0  50000 800000 0  100000 800000 0  150000 800000 0  200000 800000 0  250000 800000 0  300000 800000 0  350000 800000 0  400000 800000 0  450000 800000 0  500000 800000 0  550000 800000 0  600000 800000 0  650000 800000 0  700000 800000 0  750000 800000 0  800000 800000 0  850000 800000 0  900000 800000 0  950000 800000 0  1000000 800000 0  0 850000 0  50000 850000 0  100000 850000 0  150000 850000 0  200000 850000 0  250000 850000 0  300000 850000 0  350000 850000 0  400000 850000 0  450000 850000 0  500000 850000 0  550000 850000 0  600000 850000 0  650000 850000 0  700000 850000 0  750000 850000 0  800000 850000 0  850000 850000 0  900000 850000 0  950000 850000 0  1000000 850000 0  0 900000 0  50000 900000 0  100000 900000 0  150000 900000 0  200000 900000 0  250000 900000 0  300000 900000 0  350000 900000 0  400000 900000 0  450000 900000 0  500000 900000 0  550000 900000 0  600000 900000 0  650000 900000 0  700000 900000 0  750000 900000 0  800000 900000 0  850000 900000 0  900000 900000 0  950000 900000 0  1000000 900000 0  0 950000 0  50000 950000 0  100000 950000 0  150000 950000 0  200000 950000 0  250000 950000 0  300000 950000 0  350000 950000 0  400000 950000 0  450000 950000 0  500000 950000 0  550000 950000 0  600000 950000 0  650000 950000 0  700000 950000 0  750000 950000 0  800000 950000 0  850000 950000 0  900000 950000 0  950000 950000 0  1000000 950000 0  0 1000000 0  50000 1000000 0  100000 1000000 0  150000 1000000 0  200000 1000000 0  250000 1000000 0  300000 1000000 0  350000 1000000 0  400000 1000000 0  450000 1000000 0  500000 1000000 0  550000 1000000 0  600000 1000000 0  650000 1000000 0  700000 1000000 0  750000 1000000 0  800000 1000000 0  850000 1000000 0  900000 1000000 0  950000 1000000 0  1000000 1000000 0  0 1050000 0  50000 1050000 0  100000 1050000 0  150000 1050000 0  200000 1050000 0  250000 1050000 0  300000 1050000 0  350000 1050000 0  400000 1050000 0  450000 1050000 0  500000 1050000 0  550000 1050000 0  600000 1050000 0  650000 1050000 0  700000 1050000 0  750000 1050000 0  800000 1050000 0  850000 1050000 0  900000 1050000 0  950000 1050000 0  1000000 1050000 0  0 1100000 0  50000 1100000 0  100000 1100000 0  150000 1100000 0  200000 1100000 0  250000 1100000 0  300000 1100000 0  350000 1100000 0  400000 1100000 0  450000 1100000 0  500000 1100000 0  550000 1100000 0  600000 1100000 0  650000 1100000 0  700000 1100000 0  750000 1100000 0  800000 1100000 0  850000 1100000 0  900000 1100000 0  950000 1100000 0  1000000 1100000 0  0 1150000 0  50000 1150000 0  100000 1150000 0  150000 1150000 0  200000 1150000 0  250000 1150000 0  300000 1150000 0  350000 1150000 0  400000 1150000 0  450000 1150000 0  500000 1150000 0  550000 1150000 0  600000 1150000 0  650000 1150000 0  700000 1150000 0  750000 1150000 0  800000 1150000 0  850000 1150000 0  900000 1150000 0  950000 1150000 0  1000000 1150000 0  0 1200000 0  50000 1200000 0  100000 1200000 0  150000 1200000 0  200000 1200000 0  250000 1200000 0  300000 1200000 0  350000 1200000 0  400000 1200000 0  450000 1200000 0  500000 1200000 0  550000 1200000 0  600000 1200000 0  650000 1200000 0  700000 1200000 0  750000 1200000 0  800000 1200000 0  850000 1200000 0  900000 1200000 0  950000 1200000 0  1000000 1200000 0  0 1250000 0  50000 1250000 0  100000 1250000 0  150000 1250000 0  200000 1250000 0  250000 1250000 0  300000 1250000 0  350000 1250000 0  400000 1250000 0  450000 1250000 0  500000 1250000 0  550000 1250000 0  600000 1250000 0  650000 1250000 0  700000 1250000 0  750000 1250000 0  800000 1250000 0  850000 1250000 0  900000 1250000 0  950000 1250000 0  1000000 1250000 0  0 1300000 0  50000 1300000 0  100000 1300000 0  150000 1300000 0  200000 1300000 0  250000 1300000 0  300000 1300000 0  350000 1300000 0  400000 1300000 0  450000 1300000 0  500000 1300000 0  550000 1300000 0  600000 1300000 0  650000 1300000 0  700000 1300000 0  750000 1300000 0  800000 1300000 0  850000 1300000 0  900000 1300000 0  950000 1300000 0  1000000 1300000 0  0 1350000 0  50000 1350000 0  100000 1350000 0  150000 1350000 0  200000 1350000 0  250000 1350000 0  300000 1350000 0  350000 1350000 0  400000 1350000 0  450000 1350000 0  500000 1350000 0  550000 1350000 0  600000 1350000 0  650000 1350000 0  700000 135
[...]
<PointData  Vectors="f_3007"> 
<DataArray  type="Float64"  Name="f_3007"  NumberOfComponents="3" format="ascii">-1.5245367212489858e-08 -8.4453629994217648e-09 0.0000000000000000e+00  6.3980166295006370e-08 -5.2752456747309465e-09 0.0000000000000000e+00  6.7284785558020234e-08 -1.4444275045778421e-09 0.0000000000000000e+00  7.1040297777212324e-08 -2.1518779697651551e-10 0.0000000000000000e+00  7.3862534281480399e-08 1.8163665200644822e-10 0.0000000000000000e+00  7.5704546901419275e-08 2.8925240076863148e-10 0.0000000000000000e+00  7.6866655608457199e-08 2.7775040478380739e-10 0.0000000000000000e+00  7.7581493736316463e-08 2.1675663977651279e-10 0.0000000000000000e+00  7.7994717415476513e-08 1.3655235311088647e-10 0.0000000000000000e+00  7.8189014941259391e-08 4.9649471788497410e-11 0.0000000000000000e+00  7.8202739641993225e-08 -3.9358312386721013e-11 0.0000000000000000e+00  7.8039289957629567e-08 -1.2859278437439673e-10 0.0000000000000000e+00  7.7668323564524032e-08 -2.1517622255997191e-10 0.0000000000000000e+00  7.7019774517015661e-08 -2.9060980224412976e-10 0.0000000000000000e+00  7.5972900275848518e-08 -3.3160891598905379e-10 0.0000000000000000e+00  7.4352896083824720e-08 -2.7750322930727552e-10 0.0000000000000000e+00  7.1989815719645361e-08 3.0315247512101088e-11 0.0000000000000000e+00  6.9015378318256398e-08 1.0050131111416329e-09 0.0000000000000000e+00  6.6503561597147078e-08 3.6298530237115495e-09 0.0000000000000000e+00  6.5165835706192875e-08 8.5212580191218004e-09 0.0000000000000000e+00  -1.3287563306145311e-08 7.3032886391991639e-09 0.0000000000000000e+00  -1.0819380529145975e-08 -1.1618839726224595e-08 0.0000000000000000e+00  7.1195795070938838e-09 -1.7635822124434612e-08 0.0000000000000000e+00  2.0971663779485153e-08 -1.2481306938957679e-08 0.0000000000000000e+00  3.1814077337682335e-08 -8.4106702634181466e-09 0.0000000000000000e+00  3.9839407912949823e-08 -5.6879879776472295e-09 0.0000000000000000e+00  4.5668464478811100e-08 -3.8541368064908895e-09 0.0000000000000000e+00  4.9799584711616158e-08 -2.5935210487260876e-09 0.0000000000000000e+00  5.2640054410985989e-08 -1.6995819722404730e-09 0.0000000000000000e+00  5.4482791875115863e-08 -1.0341113787386310e-09 0.0000000000000000e+00  5.5518059366194356e-08 -5.0124414598038271e-10 0.0000000000000000e+00  5.5852115700488799e-08 -2.9548469908013935e-11 0.0000000000000000e+00  5.5519986528863820e-08 4.4152932377041367e-10 0.0000000000000000e+00  5.4490221058367586e-08 9.7334485269788944e-10 0.0000000000000000e+00  5.2661891989451162e-08 1.6406942214276337e-09 0.0000000000000000e+00  4.9854899418876457e-08 2.5494059188395531e-09 0.0000000000000000e+00  4.5797226598974533e-08 3.8656682822125850e-09 0.0000000000000000e+00  4.0119279324699191e-08 5.8679810472080683e-09 0.0000000000000000e+00  3.2362692886800480e-08 9.0208870092972509e-09 0.0000000000000000e+00  2.1896279657262583e-08 1.3899535557515135e-08 0.0000000000000000e+00  7.3776581317892112e-09 1.9733054779984998e-08 0.0000000000000000e+00  -1.2959711636490604e-08 9.9407521401179469e-09 0.0000000000000000e+00  -5.0450262003639122e-09 -1.1453477049291846e-08 0.0000000000000000e+00  -2.9515951878542065e-09 -2.5787740851089126e-08 0.0000000000000000e+00  1.9071896911122853e-09 -2.2530631254366972e-08 0.0000000000000000e+00  9.3569558277595707e-09 -1.7248120353350251e-08 0.0000000000000000e+00  1.6926142210061419e-08 -1.2662251361442738e-08 0.0000000000000000e+00  2.3273324156152992e-08 -9.1101477758250735e-09 0.0000000000000000e+00  2.8191458083076526e-08 -6.4109743778872913e-09 0.0000000000000000e+00  3.1788118860508849e-08 -4.3333563341469902e-09 0.0000000000000000e+00  3.4222601608413671e-08 -2.6766420028297797e-09 0.0000000000000000e+00  3.5628661886307836e-08 -1.2775680462151025e-09 0.0000000000000000e+00  3.6091238138021211e-08 7.7720567275424450e-14 0.0000000000000000e+00  3.5640656169270552e-08 1.2792326648343305e-09 0.0000000000000000e+00  3.4252314663628141e-08 2.6839821299274884e-09 0.0000000000000000e+00  3.1849337760878117e-08 4.3548460648366486e-09 0.0000000000000000e+00  2.8311569698220555e-08 6.4654089393745755e-09 0.0000000000000000e+00  2.3502381540500078e-08 9.2370581024569900e-09 0.0000000000000000e+00  1.7341110957310332e-08 1.2930126010529752e-08 0.0000000000000000e+00  9.9823785763728890e-09 1.7711530021206640e-08 0.0000000000000000e+00  2.2221177753892669e-09 2.3001248974628956e-08 0.0000000000000000e+00  -3.8110420023547263e-09 2.5085653896106227e-08 0.0000000000000000e+00  -7.3906292829053721e-09 1.0482116689902970e-08 0.0000000000000000e+00  -2.1361723623535562e-09 -9.1134963763877751e-09 0.0000000000000000e+00  -4.1120859010181592e-09 -2.5262832993719395e-08 0.0000000000000000e+00  -4.3055141003868662e-09 -2.7011830811524204e-08 0.0000000000000000e+00  -1.4092873201940918e-09 -2.3301368023320696e-08 0.0000000000000000e+00  3.1598579968022993e-09 -1.8549679313224983e-08 0.0000000000000000e+00  7.9223227051960227e-09 -1.4129021136303804e-08 0.0000000000000000e+00  1.2101665992938509e-08 -1.0360502327154794e-08 0.0000000000000000e+00  1.5403789910129781e-08 -7.2102017978332512e-09 0.0000000000000000e+00  1.7752863383024394e-08 -4.5383781406610627e-09 0.0000000000000000e+00  1.9151717607258547e-08 -2.1826345775121349e-09 0.0000000000000000e+00  1.9619902580802447e-08 1.8117935663492327e-11 0.0000000000000000e+00  1.9167940606407157e-08 2.2211251028399127e-09 0.0000000000000000e+00  1.7790753529983037e-08 4.5843872650696948e-09 0.0000000000000000e+00  1.5475917516954437e-08 7.2713247225873631e-09 0.0000000000000000e+00  1.2230586697018629e-08 1.0447704937532968e-08 0.0000000000000000e+00  8.1395220644697624e-09 1.4252950328505044e-08 0.0000000000000000e+00  3.4769217952891843e-09 1.8697442079885984e-08 0.0000000000000000e+00  -1.1033456584915828e-09 2.3361188820697790e-08 0.0000000000000000e+00  -4.3489181324269798e-09 2.6635868540458698e-08 0.0000000000000000e+00  -4.6815024627933180e-09 2.4376370166459270e-08 0.0000000000000000e+00  -3.2876127814435319e-09 9.7642099652820300e-09 0.0000000000000000e+00  -8.6142340975783905e-10 -6.8469374182904902e-09 0.0000000000000000e+00  -3.6737720165237471e-09 -2.2362522868901299e-08 0.0000000000000000e+00  -5.8995093300426545e-09 -2.7065176571982898e-08 0.0000000000000000e+00  -6.0297080129258192e-09 -2.5792607436520221e-08 0.0000000000000000e+00  -4.3454036065761692e-09 -2.2073413630666866e-08 0.0000000000000000e+00  -1.7633117929206667e-09 -1.7727258219651138e-08 0.0000000000000000e+00  9.5243948926662340e-10 -1.3512925867148126e-08 0.0000000000000000e+00  3.3375619278487141e-09 -9.6692402959462369e-09 0.0000000000000000e+00  5.1482119286739733e-09 -6.2017018657340431e-09 0.0000000000000000e+00  6.2689518193513620e-09 -3.0157118651233352e-09 0.0000000000000000e+00  6.6519908199467567e-09 2.3474897014230699e-11 0.0000000000000000e+00  6.2857960341946873e-09 3.0643140264253780e-09 0.0000000000000000e+00  5.1857864464448090e-09 6.2552785229131196e-09 0.0000000000000000e+00  3.4040663080829520e-09 9.7306030794838219e-09 0.0000000000000000e+00  1.0596144772958913e-09 1.3581372548972923e-08 0.0000000000000000e+00  -1.6076041328784650e-09 1.7788765784016656e-08 0.0000000000000000e+00  -4.1611820672074935e-09 2.2076963053332359e-08 0.0000000000000000e+00  -5.9067365813803968e-09 2.5621051683459365e-08 0.0000000000000000e+00  -5.9826495865272169e-09 2.6582438344209278e-08 0.0000000000000000e+00  -3.9595364469761328e-09 2.1767886937114372e-08 0.0000000000000000e+00  -1.4310639521090548e-09 8.0330050604102341e-09 0.0000000000000000e+00  -2.8048234232352643e-10 -5.0815494077639370e-09 0.0000000000000000e+00  -3.0366407441022186e-09 -1.9074518706240602e-08 0.0000000000000000e+00  -5.9263619429455564e-09 -2.5028690775050306e-08 0.0000000000000000e+00  -7.7146225585683599e-09 -2.5640240987487203e-08 0.0000000000000000e+00  -8.1016702672510604e-09 -2.3264404371641614e-08 0.0000000000000000e+00  -7.4522648509210494e-09 -1.9553072275145401e-08 0.0000000000000000e+00  -6.2808312293134777e-09 -1.5426576930378528e-08 0.0000000000000000e+00  -5.0138133514727731e-09 -1.1320328744468906e-08 0.0000000000000000e+00  -3.9407063667444296e-09 -7.3878551792898905e-09 0.0000000000000000e+00  -3.2350444075537788e-09 -3.6315030391408766e-09 0.0000000000000000e+00  -2.9859409631146877e-09 2.1722339194222673e-11 0.0000000000000000e+00  -3.2198916416244206e-09 3.6754749584136976e-09 0.0000000000000000e+00  -3.9082564816082082e-09 7.4328636991816635e-09 0.0000000000000000e+00  -4.9601942176769739e-09 1.1364601923768535e-08 0.0000000000000000e+00  -6.2025036808944290e-09 1.5462132323436767e-08 0.0000000000000000e+00  -7.3522713313746636e-09 1.9557922609993504e-08 0.0000000000000000e+00  -8.0016845536188712e-09 2.3192926860148711e-08 0.0000000000000000e+00  -7.6649309685211164e-09 2.5426544268734057e-08 0.0000000000000000e+00  -5.9817447754822690e-09 2.4659050679184196e-08 0.0000000000000000e+00  -3.1724748428451845e-09 1.8722905965155468e-08 0.0000000000000000e+00  -5.7022514989817015e-10 6.2012695605967572e-09 0.0000000000000000e+00  -3.3365721050328675e-12 -3.7768439307628110e-09 0.0000000000000000e+00  -2.4780602967373636e-09 -1.5973638355600255e-08 0.0000000000000000e+00  -5.4600614777314909e-09 -2.2177656649878910e-08 0.0000000000000000e+00  -8.0476690224514031e-09 -2.3922486436573411e-08 0.0000000000000000e+00  -9.7286849322093454e-09 -2.2704108572445658e-08 0.0000000000000000e+00  -1.0508033073644192e-08 -1.9800380181689031e-08 0.0000000000000000e+00  -1.0636577390889748e-08 -1.6083111500577994e-08 0.0000000000000000e+00  -1.0410546071666753e-08 -1.2063145768720543e-08 0.0000000000000000e+00  -1.0077546830673570e-08 -7.9942424631863300e-09 0.0000000000000000e+00  -9.8099482461342383e-09 -3.9676799615625433e-09 0.0000000000000000e+00  -9.7061050063829456e-09 1.7133030818558845e-11 0.0000000000000000e+00  -9.7974095796559576e-09 4.0014549998900809e-09 0.0000000000000000e+00  -1.0051616202571885e-08 8.0258123654320609e-09 0.0000000000000000e+00  -1.0370151521846971e-08 1.2088203073827333e-08 0.0000000000000000e+00  -1.0582259733467069e-08 1.6091844423676218e-08 0.0000000000000000e+00  -1.0445551134228807e-08 1.9773836925728363e-08 0.0000000000000000e+00  -9.6736255689200129e-09 2.2613443881418419e-08 0.0000000000000000e+00  -8.0254802687031268e-09 2.3741974223567620e-08 0.0000000000000000e+00  -5.4907638353955276e-09 2.1927111206318172e-08 0.0000000000000000e+00  -2.5411521315300615e-09 1.5771266893754280e-08 0.0000000000000000e+00  -1.5325789132165453e-10 4.6844638729763367e-09 0.0000000000000000e+00  1.3067844789896694e-10 -2.8168089056394916e-09 0.0000000000000000e+00  -2.0324757133231490e-09 -1.3204735311265583e-08 0.0000000000000000e+00  -4.8756593610382661e-09 -1.9104396304811150e-08 0.0000000000000000e+00  -7.7723465543323904e-09 -2.1395187524868440e-08 0.0000000000000000e+00  -1.0175756522010832e-08 -2.1007811884917384e-08 0.0000000000000000e+00  -1.1895305844048620e-08 -1.8863511699398300e-08 0.0000000000000000e+00  -1.2981795898785895e-08 -1.5691094792412919e-08 0.0000000000000000e+00  -1.3589890724941728e-08 -1.1987013598639299e-08 0.0000000000000000e+00  -1.3886952936833382e-08 -8.0483287679041557e-09 0.0000000000000000e+00  -1.4007385277305560e-08 -4.0277642104458583e-09 0.0000000000000000e+00  -1.4034869571488250e-08 1.1981525345680324e-11 0.0000000000000000e+00  -1.3997467062268467e-08 4.0505927047002257e-09 0.0000000000000000e+00  -1.3867028811951005e-08 8.0671143836678007e-09 0.0000000000000000e+00  -1.3560330587604224e-08 1.1996803181670890e-08 0.0000000000000000e+00  -1.2944641863102794e-08 1.5683337308861780e-08 0.0000000000000000e+00  -1.1856035415822766e-08 1.8825230247952155e-08 0.0000000000000000e+00  -1.0144552831793280e-08 2.0924107566631760e-08 0.0000000000000000e+00  -7.7620917797091584e-09 2.1259722289080335e-08 0.0000000000000000e+00  -4.8923158922162625e-09 1.8940203493694991e-08 0.0000000000000000e+00  -2.0601352530439391e-09 1.3088473871124296e-08 0.0000000000000000e+00  5.3904369773415163e-11 3.5206730110728330e-09 0.0000000000000000e+00  1.9339262227604479e-10 -2.1020300743064980e-09 0.0000000000000000e+00  -1.6840256487845210e-09 -1.0776898201315030e-08 0.0000000000000000e+00  -4.3033548887101538e-09 -1.6081032107175265e-08 0.0000000000000000e+00  -7.2409878241960821e-09 -1.8517590628741128e-08 0.0000000000000000e+00  -9.9873227633864093e-09 -1.8656086847520957e-08 0.0000000000000000e+00  -1.2261506288898659e-08 -1.7136798623514950e-08 0.0000000000000000e+00  -1.3983505181991351e-08 -1.4528624421979175e-08 0.0000000000000000e+00  -1.5190503655211220e-08 -1.1266563221931535e-08 0.0000000000000000e+00  -1.5965388888445476e-08 -7.6471064667306483e-09 0.0000000000000000e+00  -1.6390605583629680e-08 -3.8536006222488169e-09 0.0000000000000000e+00  -1.6523096946342818e-08 7.2559773975702947e-12 0.0000000000000000e+00  -1.6382954980611565e-08 3.8667127811599708e-09 0.0000000000000000e+00  -1.5950390763810232e-08 7.6555843624970926e-09 0.0000000000000000e+00  -1.5169145658494807e-08 1.1265901346737288e-08 0.0000000000000000e+00  -1.3958168221195660e-08 1.4512479430235766e-08 0.0000000000000000e+00  -1.2236708755140070e-08 1.7097415813747491e-08 0.0000000000000000e+00  -9.9697141283670895e-09 1.8587048162317213e-08 0.0000000000000000e+00  -7.2370095937252787e-09 1.8420223119988127e-08 0.0000000000000000e+00  -4.3126796867218254e-09 1.5974268714694092e-08 0.0000000000000000e+00  -1.6939244446980769e-09 1.0710286376395916e-08 0.0000000000000000e+00  1.5629613089221329e-10 2.6438982304929088e-09 0.0000000000000000e+00  2.1954003448577777e-10 -1.5606491068431731e-09 0.0000000000000000e+00  -1.4113100066608379e-09 -8.6582227170108720e-09 0.0000000000000000e+00  -3.7869545452071408e-09 -1.3228000353963818e-08 0.0000000000000000e+00  -6.6269358924223181e-09 -1.5554811068285350e-08 0.0000000000000000e+00  -9.4806656345306695e-09 -1.5980199352561406e-08 0.0000000000000000e+00  -1.2036060056816674e-08 -1.4938780101197999e-08 0.0000000000000000e+00  -1.4135899904716261e-08 -1.2856301035737120e-08 0.0000000000000000e+00  -1.5732032907110031e-08 -1.0090034110025618e-08 0.0000000000000000e+00  -1.6835337397617306e-08 -6.9090579559711897e-09 0.0000000000000000e+00  -1.7477408598685868e-08 -3.5015450968321678e-09 0.0000000000000000e+00  -1.7685935854754701e-08 3.2983908564074902e-12 0.0000000000000000e+00  -1.7471622544422047e-08 3.5067497785229503e-09 0.0000000000000000e+00  -1.6824234214909647e-08 6.9098539121763576e-09 0.0000000000000000e+00  -1.5716788492405610e-08 1.0082797823328229e-08 0.0000000000000000e+00  -1.4118770788403823e-08 1.2836779195142523e-08 0.0000000000000000e+00  -1.2020610447051499e-08 1.4902857166514884e-08 0.0000000000000000e+00  -9.4712690311383777e-09 1.5925962417789913e-08 0.0000000000000000e+00  -6.6265295271233252e-09 1.5486036034363894e-08 0.0000000000000000e+00  -3.7923570117295598e-09 1.3158757018347443e-08 0.0000000000000000e+00  -1.4122092035408177e-09 8.6207509107337354e-09 0.0000000000000000e+00  2.0424478170492743e-10 1.9808316422878570e-09 0.0000000000000000e+00  2.2705796161971035e-10 -1.1425266377453475e-09 0.0000000000000000e+00  -1.1975489539395549e-09 -6.8062001632076507e-09 0.0000000000000000e+00  -3.3408939705690541e-09 -1.0589236364658441e-08 0.0000000000000000e+00  -6.0213037450530578e-09 -1.2651153184661821e-08 0.0000000000000000e+00  -8.8476160702153777e-09 -1.3191176603301872e-08 0.0000000000000000e+00  -1.1506435102702639e-08 -1.2498490722820526e-08 0.0000000000000000e+00  -1.3799384114647506e-08 -1.0881900731972628e-08 0.0000000000000000e+00  -1.5621549304655756e-08 -8.6212639719181046e-09 0.0000000000000000e+00  -1.6929266010927461e-08 -5.9447065678298098e-09 0.0000000000000000e+00  -1.7711719757356355e-08 -3.0266985172225603e-09 0.0000000000000000e+00  -1.7970458492753207e-08 1.6831321144028526e-13 0.0000000000000000e+00  -1.7707445457467580e-08 3.0258065802459497e-09 0.0000000000000000e+00  -1.6921221738975198e-08 5.9400500155528997e-09 0.0000000000000000e+00  -1.5610877727168786e-08 8.6101580066727731e-09 0.0000000000000000e+00  -1.3788035048757442e-08 1.0861727736016424e-08 0.0000000000000000e+00  -1.1497137559346165e-08 1.2467417601224253e-08 0.0000000000000000e+00  -8.8432195651256756e-09 1.3149481168116140e-08 0.0000000000000000e+00  -6.0227976500163728e-09 1.2602955591501088e-08 0.0000000000000000e+00  -3.3440510670104421e-09 1.0544557493261827e-08 0.0000000000000000e+00  -1.1941273053215516e-09 6.7861831107218762e-09 0.0000000000000000e+00  2.2345818842851689e-10 1.4730036932195547e-09 0.0000000000000000e+00  2.2573187207268167e-10 -8.1218734224139890e-10 0.0000000000000000e+00  -1.0315786477695137e-09 -5.1765436700092682e-09 0.0000000000000000e+00  -2.9705340531486276e-09 -8.1670489700366284e-09 0.0000000000000000e+00  -5.4764342990995635e-09 -9.8747740157167987e-09 0.0000000000000000e+00  -8.2095177563005798e-09 -1.0411567342279139e-08 0.0000000000000000e+00  -1.0868112894013196e-08 -9.9654518565277664e-09 0.0000000000000000e+00  -1.3234729649621656e-08 -8.7534593443420969e-09 0.0000000000000000e+00  -1.5169318430513906e-08 -6.9852422037431656e-09 0.0000000000000000e+00  -1.6590184360166695e-08 -4.8427544093398901e-09 0.0000000000000000e+00  -1.7454603750242951e-08 -2.4747380434081719e-09 0.0000000000000000e+00  -1.7743442691786490e-08 -2.1889327082449845e-12 0.0000000000000000e+00  -1.7451549395197024e-08 2.4693571310312511e-09 0.0000000000000000e+00  -1.6584538062853039e-08 4.8343838408996678e-09 0.0000000000000000e+00  -1.5162070906235044e-08 6.9720175438116494e-09 0.0000000000000000e+00  -1.3227452032085767e-08 8.7339263972758845e-09 0.0000000000000000e+00  -1.0862818434449835e-08 9.9391202706457829e-09 0.0000000000000000e+00  -8.2080117713852602e-09 1.0379680931784610e-08 0.0000000000000000e+00  -5.4786899091556993e-09 9.8410548719855908e-09 0.0000000000000000e+00  -2.9723313855757290e-09 8.1384991790778976e-09 0.0000000000000000e+00  -1.0265460020165080e-09 5.1671471104191345e-09 0.0000000000000000e+00  2.2782827513796033e-10 1.0773462810400783e-09 0.0000000000000000e+00  2.2113245362584904e-10 -5.4347828931583571e-10 0.0000000000000000e+00  -9.0662541258042097e-10 -3.7250861820732674e-09 0.0000000000000000e+00  -2.6788911186084263e-09 -5.9392772162155823e-09 0.0000000000000000e+00  -5.0251320616773917e-09 -7.2447106190148458e-09 0.0000000000000000e+00  -7.6460606731078493e-09 -7.7009893243494052e-09 0.0000000000000000e+00  -1.0255323254797799e-08 -7.4259413161168194e-09 0.0000000000000000e+00  -1.2628573283097585e-08 -6.5652608497998430e-09 0.0000000000000000e+00  -1.4605486509228553e-08 -5.2671304531788066e-09 0.0000000000000000e+00  -1.6079657096851738e-08 -3.6665008414588117e-09 0.0000000000000000e+00  -1.6986249169693771e-08 -1.8791889298926708e-09 0.0000000000000000e+00  -1.7291221571458494e-08 -3.8702743972928175e-12 0.0000000000000000e+00  -1.6984177256912874e-08 1.8706678720461871e-09 0.0000000000000000e+00  -1.6075887767078207e-08 3.6557125529075622e-09 0.0000000000000000e+00  -1.4600794766430708e-08 5.2528489435226040e-09 0.0000000000000000e+00  -1.2624129458878067e-08 6.5468064932905025e-09 0.0000000000000000e+00  -1.0252530854395240e-08 7.4035750425861901e-09 0.0000000000000000e+00  -7.6460109358584330e-09 7.6763194474452614e-09 0.0000000000000000e+00  -5.0273779070240975e-09 7.2209010808148953e-09 0.0000000000000000e+00  -2.6798540914409538e-09 5.9212193344981723e-09 0.0000000000000000e+00  -9.0165767313703153e-10 3.7221705759348791e-09 0.0000000000000000e+00  2.2523772985251045e-10 7.6223957440905257e-10 0.0000000000000000e+00  2.1649436423163123e-10 -3.1596434442173590e-10 0.0000000000000000e+00  -8.1887427868828555e-10 -2.4077606032397502e-09 0.0000000000000000e+00  -2.4684327183576085e-09 -3.8684854701113427e-09 0.0000000000000000e+00  -4.6890418971765438e-09 -4.7478861780943787e-09 0.0000000000000000e+00  -7.2102424424281459e-09 -5.0753641744725646e-09 0.0000000000000000e+00  -9.7593998049226014e-09 -4.9191573787589306e-09 0.0000000000000000e+00  -1.2111161767131931e-08 -4.368