<?xml version="1.0"?>
<VTKFile type="UnstructuredGrid"  version="0.1"  >
<UnstructuredGrid>
<Piece  NumberOfPoints="651" NumberOfCells="1200">
<Points>
<DataArray  type="Float64"  NumberOfComponents="3"  format="ascii">0 0 0  50000 0 0  100000 0 0  150000 0 0  200000 0 0  250000 0 0  300000 0 0  350000 0 0  400000 0 0  450000 0 0  500000 0 0  550000 0 0  600000 0 0  650000 0 0  700000 0 0  750000 0 0  800000 0 0  850000 0 0  900000 0 0  950000 0 0  1000000 0 0  0 50000 0  50000 50000 0  100000 50000 0  150000 50000 0  200000 50000 0  250000 50000 0  300000 50000 0  350000 50000 0  400000 50000 0  450000 50000 0  500000 50000 0  550000 50000 0  600000 50000 0  650000 50000 0  700000 50000 0  750000 50000 0  800000 50000 0  850000 50000 0  900000 50000 0  950000 50000 0  1000000 50000 0  0 100000 0  50000 100000 0  100000 100000 0  150000 100000 0  200000 100000 0  250000 100000 0  300000 100000 0  350000 100000 0  400000 100000 0  450000 100000 0  500000 100000 0  550000 100000 0  600000 100000 0  650000 100000 0  700000 100000 0  750000 100000 0  800000 100000 0  850000 100000 0  900000 100000 0  950000 100000 0  1000000 100000 0  0 150000 0  50000 150000 0  100000 150000 0  150000 150000 0  200000 150000 0  250000 150000 0  300000 150000 0  350000 150000 0  400000 150000 0  450000 150000 0  500000 150000 0  550000 150000 0  600000 150000 0  650000 150000 0  700000 150000 0  750000 150000 0  800000 150000 0  850000 150000 0  900000 150000 0  950000 150000 0  1000000 150000 0  0 200000 0  50000 200000 0  100000 200000 0  150000 200000 0  200000 200000 0  250000 200000 0  300000 200000 0  350000 200000 0  400000 200000 0  450000 200000 0  500000 200000 0  550000 200000 0  600000 200000 0  650000 200000 0  700000 200000 0  750000 200000 0  800000 200000 0  850000 200000 0  900000 200000 0  950000 200000 0  1000000 200000 0  0 250000 0  50000 250000 0  100000 250000 0  150000 250000 0  200000 250000 0  250000 250000 0  300000 250000 0  350000 250000 0  400000 250000 0  450000 250000 0  500000 250000 0  550000 250000 0  600000 250000 0  650000 250000 0  700000 250000 0  750000 250000 0  800000 250000 0  850000 250000 0  900000 250000 0  950000 250000 0  1000000 250000 0  0 300000 0  50000 300000 0  100000 300000 0  150000 300000 0  200000 300000 0  250000 300000 0  300000 300000 0  350000 300000 0  400000 300000 0  450000 300000 0  500000 300000 0  550000 300000 0  600000 300000 0  650000 300000 0  700000 300000 0  750000 300000 0  800000 300000 0  850000 300000 0  900000 300000 0  950000 300000 0  1000000 300000 0  0 350000 0  50000 350000 0  100000 350000 0  150000 350000 0  200000 350000 0  250000 350000 0  300000 350000 0  350000 350000 0  400000 350000 0  450000 350000 0  500000 350000 0  550000 350000 0  600000 350000 0  650000 350000 0  700000 350000 0  750000 350000 0  800000 350000 0  850000 350000 0  900000 350000 0  950000 350000 0  1000000 350000 0  0 400000 0  50000 400000 0  100000 400000 0  150000 400000 0  200000 400000 0  250000 400000 0  300000 400000 0  350000 400000 0  400000 400000 0  450000 400000 0  500000 400000 0  550000 400000 0  600000 400000 0  650000 400000 0  700000 400000 0  750000 400000 0  800000 400000 0  850000 400000 0  900000 400000 0  950000 400000 0  1000000 400000 0  0 450000 0  50000 450000 0  100000 450000 0  150000 450000 0  200000 450000 0  250000 450000 0  300000 450000 0  350000 450000 0  400000 450000 0  450000 450000 0  500000 450000 0  550000 450000 0  600000 450000 0  650000 450000 0  700000 450000 0  750000 450000 0  800000 450000 0  850000 450000 0  900000 450000 0  950000 450000 0  1000000 450000 0  0 500000 0  50000 500000 0  100000 500000 0  150000 500000 0  200000 500000 0  250000 500000 0  300000 500000 0  350000 500000 0  400000 500000 0  450000 500000 0  500000 500000 0  550000 500000 0  600000 500000 0  650000 500000 0  700000 500000 0  750000 500000 0  800000 500000 0  850000 500000 0  900000 500000 0  950000 500000 0  1000000 500000 0  0 550000 0  50000 550000 0  100000 550000 0  150000 550000 0  200000 550000 0  250000 550000 0  300000 550000 0  350000 550000 0  400000 550000 0  450000 550000 0  500000 550000 0  550000 550000 0  600000 550000 0  650000 550000 0  700000 550000 0  750000 550000 0  800000 550000 0  850000 550000 0  900000 550000 0  950000 550000 0  1000000 550000 0  0 600000 0  50000 600000 0  100000 600000 0  150000 600000 0  200000 600000 0  250000 600000 0  300000 600000 0  350000 600000 0  400000 600000 0  450000 600000 0  500000 600000 0  550000 600000 0  600000 600000 0  650000 600000 0  700000 600000 0  750000 600000 0  800000 600000 0  850000 600000 0  900000 600000 0  950000 600000 0  1000000 600000 0  0 650000 0  50000 650000 0  100000 650000 0  150000 650000 0  200000 650000 0  250000 650000 0  300000 650000 0  350000 650000 0  400000 650000 0  450000 650000 0  500000 650000 0  550000 650000 0  600000 650000 0  650000 650000 0  700000 650000 0  750000 650000 0  800000 650000 0  850000 650000 0  900000 650000 0  950000 650000 0  1000000 650000 0  0 700000 0  50000 700000 0  100000 700000 0  150000 700000 0  200000 700000 0  250000 700000 0  300000 700000 0  350000 700000 0  400000 700000 0  450000 700000 0  500000 700000 0  550000 700000 0  600000 700000 0  650000 700000 0  700000 700000 0  750000 700000 0  800000 700000 0  850000 700000 0  900000 700000 0  950000 700000 0  1000000 700000 0  0 750000 0  50000 750000 0  100000 750000 0  150000 750000 0  200000 750000 0  250000 750000 0  300000 750000 0  350000 750000 0  400000 750000 0  450000 750000 0  500000 750000 0  550000 750000 0  600000 750000 0  650000 750000 0  700000 750000 0  750000 750000 0  800000 750000 0  850000 750000 0  900000 750000 0  950000 750000 0  1000000 750000 0  0 800000 0  50000 800000 0  100000 800000 0  150000 800000 0  200000 800000 0  250000 800000 0  300000 800000 0  350000 800000 0  400000 800000 0  450000 800000 0  500000 800000 0  550000 800000 0  600000 800000 0  650000 800000 0  700000 800000 0  750000 800000 0  800000 800000 0  850000 800000 0  900000 800000 0  950000 800000 0  1000000 800000 0  0 850000 0  50000 850000 0  100000 850000 0  150000 850000 0  200000 850000 0  250000 850000 0  300000 850000 0  350000 850000 0  400000 850000 0  450000 850000 0  500000 850000 0  550000 850000 0  600000 850000 0  650000 850000 0  700000 850000 0  750000 850000 0  800000 850000 0  850000 850000 0  900000 850000 0  950000 850000 0  1000000 850000 0  0 900000 0  50000 900000 0  100000 900000 0  150000 900000 0  200000 900000 0  250000 900000 0  300000 900000 0  350000 900000 0  400000 900000 0  450000 900000 0  500000 900000 0  550000 900000 0  600000 900000 0  650000 900000 0  700000 900000 0  750000 900000 0  800000 900000 0  850000 900000 0  900000 900000 0  950000 900000 0  1000000 900000 0  0 950000 0  50000 950000 0  100000 950000 0  150000 950000 0  200000 950000 0  250000 950000 0  300000 950000 0  350000 950000 0  400000 950000 0  450000 950000 0  500000 950000 0  550000 950000 0  600000 950000 0  650000 950000 0  700000 950000 0  750000 950000 0  800000 950000 0  850000 950000 0  900000 950000 0  950000 950000 0  1000000 950000 0  0 1000000 0  50000 1000000 0  100000 1000000 0  150000 1000000 0  200000 1000000 0  250000 1000000 0  300000 1000000 0  350000 1000000 0  400000 1000000 0  450000 1000000 0  500000 1000000 0  550000 1000000 0  600000 1000000 0  650000 1000000 0  700000 1000000 0  750000 1000000 0  800000 1000000 0  850000 1000000 0  900000 1000000 0  950000 1000000 0  1000000 1000000 0  0 1050000 0  50000 1050000 0  100000 1050000 0  150000 1050000 0  200000 1050000 0  250000 1050000 0  300000 1050000 0  350000 1050000 0  400000 1050000 0  450000 1050000 0  500000 1050000 0  550000 1050000 0  600000 1050000 0  650000 1050000 0  700000 1050000 0  750000 1050000 0  800000 1050000 0  850000 1050000 0  900000 1050000 0  950000 1050000 0  1000000 1050000 0  0 1100000 0  50000 1100000 0  100000 1100000 0  150000 1100000 0  200000 1100000 0  250000 1100000 0  300000 1100000 0  350000 1100000 0  400000 1100000 0  450000 1100000 0  500000 1100000 0  550000 1100000 0  600000 1100000 0  650000 1100000 0  700000 1100000 0  750000 1100000 0  800000 1100000 0  850000 1100000 0  900000 1100000 0  950000 1100000 0  1000000 1100000 0  0 1150000 0  50000 1150000 0  100000 1150000 0  150000 1150000 0  200000 1150000 0  250000 1150000 0  300000 1150000 0  350000 1150000 0  400000 1150000 0  450000 1150000 0  500000 1150000 0  550000 1150000 0  600000 1150000 0  650000 1150000 0  700000 1150000 0  750000 1150000 0  800000 1150000 0  850000 1150000 0  900000 1150000 0  950000 1150000 0  1000000 1150000 0  0 1200000 0  50000 1200000 0  100000 1200000 0  150000 1200000 0  200000 1200000 0  250000 1200000 0  300000 1200000 0  350000 1200000 0  400000 1200000 0  450000 1200000 0  500000 1200000 0  550000 1200000 0  600000 1200000 0  650000 1200000 0  700000 1200000 0  750000 1200000 0  800000 1200000 0  850000 1200000 0  900000 1200000 0  950000 1200000 0  1000000 1200000 0  0 1250000 0  50000 1250000 0  100000 1250000 0  150000 1250000 0  200000 1250000 0  250000 1250000 0  300000 1250000 0  350000 1250000 0  400000 1250000 0  450000 1250000 0  500000 1250000 0  550000 1250000 0  600000 1250000 0  650000 1250000 0  700000 1250000 0  750000 1250000 0  800000 1250000 0  850000 1250000 0  900000 1250000 0  950000 1250000 0  1000000 1250000 0  0 1300000 0  50000 1300000 0  100000 1300000 0  150000 1300000 0  200000 1300000 0  250000 1300000 0  300000 1300000 0  350000 1300000 0  400000 1300000 0  450000 1300000 0  500000 1300000 0  550000 1300000 0  600000 1300000 0  650000 1300000 0  700000 1300000 0  750000 1300000 0  800000 1300000 0  850000 1300000 0  900000 1300000 0  950000 1300000 0  1000000 1300000 0  0 1350000 0  50000 1350000 0  100000 1350000 0  150000 1350000 0  200000 1350000 0  250000 1350000 0  300000 1350000 0  350000 1350000 0  400000 1350000 0  450000 1350000 0  500000 1350000 0  550000 1350000 0  600000 1350000 0  650000 1350000 0  700000 135
[...]
<PointData  Vectors="f_3007"> 
<DataArray  type="Float64"  Name="f_3007"  NumberOfComponents="3" format="ascii">-1.5202368820109979e-08 -8.4106449265798684e-09 0.0000000000000000e+00  6.4043145174857560e-08 -5.2496751709667229e-09 0.0000000000000000e+00  6.7365288834358350e-08 -1.4246818745519504e-09 0.0000000000000000e+00  7.1118647860273481e-08 -1.9854814928780851e-10 0.0000000000000000e+00  7.3932885520962503e-08 1.9576132462257937e-10 0.0000000000000000e+00  7.5768359545160132e-08 3.0104412511951178e-10 0.0000000000000000e+00  7.6926988101109443e-08 2.8722302763896051e-10 0.0000000000000000e+00  7.7640707059355605e-08 2.2378939679197296e-10 0.0000000000000000e+00  7.8054020277927536e-08 1.4097506809131824e-10 0.0000000000000000e+00  7.8248674910508098e-08 5.1325945438459515e-11 0.0000000000000000e+00  7.8262495442863777e-08 -4.0473484761588904e-11 0.0000000000000000e+00  7.8098817380089599e-08 -1.3243696353144950e-10 0.0000000000000000e+00  7.7727693569099525e-08 -2.2161279507908344e-10 0.0000000000000000e+00  7.7079835102952259e-08 -2.9952218787812767e-10 0.0000000000000000e+00  7.6035429714365671e-08 -3.4305720659550248e-10 0.0000000000000000e+00  7.4420164974496477e-08 -2.9192568483692295e-10 0.0000000000000000e+00  7.2062824843661199e-08 1.1961486694641592e-11 0.0000000000000000e+00  6.9089945277449392e-08 9.8161748300865453e-10 0.0000000000000000e+00  6.6566088063002129e-08 3.6021359253865139e-09 0.0000000000000000e+00  6.5202065204464821e-08 8.4937259273856589e-09 0.0000000000000000e+00  -1.3267163489532019e-08 7.2864649121140998e-09 0.0000000000000000e+00  -1.0787945088199399e-08 -1.1558772041873002e-08 0.0000000000000000e+00  7.0617502682633113e-09 -1.7660264569475069e-08 0.0000000000000000e+00  2.0922084785356664e-08 -1.2503491623301326e-08 0.0000000000000000e+00  3.1828170038448672e-08 -8.4377435837833608e-09 0.0000000000000000e+00  3.9916316231571866e-08 -5.7152194256049596e-09 0.0000000000000000e+00  4.5803595306965671e-08 -3.8819487503675484e-09 0.0000000000000000e+00  4.9989190068290760e-08 -2.6207560981518485e-09 0.0000000000000000e+00  5.2877247178869331e-08 -1.7235846967770022e-09 0.0000000000000000e+00  5.4756978110270784e-08 -1.0522269534123900e-09 0.0000000000000000e+00  5.5815736032090813e-08 -5.1149175388082992e-10 0.0000000000000000e+00  5.6157908286837453e-08 -3.0903737221664090e-11 0.0000000000000000e+00  5.5817853361744015e-08 4.4898995315693403e-10 0.0000000000000000e+00  5.4764757211722185e-08 9.8838998185415021e-10 0.0000000000000000e+00  5.2899605842244128e-08 1.6609884558476338e-09 0.0000000000000000e+00  5.0045400088571361e-08 2.5717237966932130e-09 0.0000000000000000e+00  4.5934407505741741e-08 3.8863536924925198e-09 0.0000000000000000e+00  4.0202663682855795e-08 5.8835785636115105e-09 0.0000000000000000e+00  3.2398885880701095e-08 9.0280952031234592e-09 0.0000000000000000e+00  2.1900197447461606e-08 1.3892962033198307e-08 0.0000000000000000e+00  7.3820516098152328e-09 1.9704165325712476e-08 0.0000000000000000e+00  -1.2930936584425643e-08 9.9061649730169176e-09 0.0000000000000000e+00  -5.0252024941689900e-09 -1.1365758493026212e-08 0.0000000000000000e+00  -2.9706878727924096e-09 -2.5839331293013413e-08 0.0000000000000000e+00  1.8903706495667986e-09 -2.2611023857690224e-08 0.0000000000000000e+00  9.4151254031261957e-09 -1.7348309173879350e-08 0.0000000000000000e+00  1.7078649806566521e-08 -1.2771008148083298e-08 0.0000000000000000e+00  2.3520163306348752e-08 -9.2174975966824041e-09 0.0000000000000000e+00  2.8527558707762302e-08 -6.5098486055325667e-09 0.0000000000000000e+00  3.2202649376644328e-08 -4.4164227779167100e-09 0.0000000000000000e+00  3.4698187713219239e-08 -2.7370787389675950e-09 0.0000000000000000e+00  3.6142883866968755e-08 -1.3102623398501666e-09 0.0000000000000000e+00  3.6618605282307156e-08 -2.1899592865960722e-12 0.0000000000000000e+00  3.6154612439895183e-08 1.3073219048856598e-09 0.0000000000000000e+00  3.4727262412758872e-08 2.7395725901876621e-09 0.0000000000000000e+00  3.2262625266688871e-08 4.4325368479964390e-09 0.0000000000000000e+00  2.8645411372970049e-08 6.5577816950842284e-09 0.0000000000000000e+00  2.3745848343730818e-08 9.3354619016070404e-09 0.0000000000000000e+00  1.7492586331187259e-08 1.3025415482376930e-08 0.0000000000000000e+00  1.0052994955992639e-08 1.7793390873653947e-08 0.0000000000000000e+00  2.2395242389915870e-09 2.3054161072568827e-08 0.0000000000000000e+00  -3.8084595673733821e-09 2.5077131698385278e-08 0.0000000000000000e+00  -7.3633224620711159e-09 1.0415459539829986e-08 0.0000000000000000e+00  -2.1253342943606452e-09 -9.0230746177052201e-09 0.0000000000000000e+00  -4.0981918869947782e-09 -2.5316340085022490e-08 0.0000000000000000e+00  -4.2560668976225696e-09 -2.7149561523011644e-08 0.0000000000000000e+00  -1.2853538199262868e-09 -2.3484714300559520e-08 0.0000000000000000e+00  3.3882723452442568e-09 -1.8757889280365470e-08 0.0000000000000000e+00  8.2622154875870025e-09 -1.4339547916482013e-08 0.0000000000000000e+00  1.2548537580815338e-08 -1.0554515655653921e-08 0.0000000000000000e+00  1.5944718956626607e-08 -7.3717371062709533e-09 0.0000000000000000e+00  1.8367159777817709e-08 -4.6543254867174466e-09 0.0000000000000000e+00  1.9812504093825791e-08 -2.2435801412677180e-09 0.0000000000000000e+00  2.0296466848107562e-08 1.7081828697997764e-11 0.0000000000000000e+00  1.9828240062478769e-08 2.2799623070234590e-09 0.0000000000000000e+00  1.8403926653858875e-08 4.6981028452305707e-09 0.0000000000000000e+00  1.6014754833611772e-08 7.4303575722232693e-09 0.0000000000000000e+00  1.2673961040303254e-08 1.0638678071761187e-08 0.0000000000000000e+00  8.4749060181410581e-09 1.4459609907116157e-08 0.0000000000000000e+00  3.7032459117263824e-09 1.8901268579176087e-08 0.0000000000000000e+00  -9.7259289762157961e-10 2.3540328035774049e-08 0.0000000000000000e+00  -4.2844259830505074e-09 2.6761076331670277e-08 0.0000000000000000e+00  -4.6501332130696131e-09 2.4405795730398381e-08 0.0000000000000000e+00  -3.2675745331999067e-09 9.6793053805560459e-09 0.0000000000000000e+00  -8.5695731122596120e-10 -6.7701002798365785e-09 0.0000000000000000e+00  -3.6418892378202679e-09 -2.2441830120695523e-08 0.0000000000000000e+00  -5.8158647317591360e-09 -2.7261763066893097e-08 0.0000000000000000e+00  -5.8634166758905561e-09 -2.6068216114658699e-08 0.0000000000000000e+00  -4.0755593133527280e-09 -2.2389514516873541e-08 0.0000000000000000e+00  -1.3798404752007915e-09 -1.8050301787282068e-08 0.0000000000000000e+00  1.4459949079246018e-09 -1.3812021319662795e-08 0.0000000000000000e+00  3.9279891082222360e-09 -9.9183411383844720e-09 0.0000000000000000e+00  5.8141815946361051e-09 -6.3801021865094446e-09 0.0000000000000000e+00  6.9828006938270941e-09 -3.1089160132914772e-09 0.0000000000000000e+00  7.3820770864006223e-09 2.2951133147731456e-11 0.0000000000000000e+00  6.9991009865594709e-09 3.1564745506381890e-09 0.0000000000000000e+00  5.8505595239213444e-09 6.4326544650744959e-09 0.0000000000000000e+00  3.9924393698188477e-09 9.9787482757043145e-09 0.0000000000000000e+00  1.5501584616521672e-09 1.3879759662218276e-08 0.0000000000000000e+00  -1.2273569688452417e-09 1.8111854156441470e-08 0.0000000000000000e+00  -3.8922823689420647e-09 2.2394961964784619e-08 0.0000000000000000e+00  -5.7370105311249978e-09 2.5899571246191065e-08 0.0000000000000000e+00  -5.8877038675662038e-09 2.6780996456855008e-08 0.0000000000000000e+00  -3.9136192979074876e-09 2.1841023393030296e-08 0.0000000000000000e+00  -1.4198358940955133e-09 7.9497463265574395e-09 0.0000000000000000e+00  -2.7987564132401655e-10 -5.0245135727061880e-09 0.0000000000000000e+00  -2.9970094017776012e-09 -1.9195926904758939e-08 0.0000000000000000e+00  -5.8291825032306836e-09 -2.5295398309817269e-08 0.0000000000000000e+00  -7.5375099913726439e-09 -2.6008117836072441e-08 0.0000000000000000e+00  -7.8277143347189563e-09 -2.3687081428261471e-08 0.0000000000000000e+00  -7.0743262218973807e-09 -1.9985264465642087e-08 0.0000000000000000e+00  -5.8018789591407154e-09 -1.5827320235790186e-08 0.0000000000000000e+00  -4.4460860268394572e-09 -1.1654273311521129e-08 0.0000000000000000e+00  -3.3038423912430073e-09 -7.6269539815272384e-09 0.0000000000000000e+00  -2.5543871940709781e-09 -3.7562187216448343e-09 0.0000000000000000e+00  -2.2904334698247563e-09 2.1446907057687711e-11 0.0000000000000000e+00  -2.5397126675363230e-09 3.7996868187368150e-09 0.0000000000000000e+00  -3.2723912051669416e-09 7.6716230272678664e-09 0.0000000000000000e+00  -4.3940385347551732e-09 1.1698571012387463e-08 0.0000000000000000e+00  -5.7255673712143071e-09 1.5863636538028087e-08 0.0000000000000000e+00  -6.9760504637373320e-09 1.9992277036543453e-08 0.0000000000000000e+00  -7.7278895562159498e-09 2.3619708926224690e-08 0.0000000000000000e+00  -7.4846837588633526e-09 2.5800474252342105e-08 0.0000000000000000e+00  -5.8772239410122274e-09 2.4931023491220122e-08 0.0000000000000000e+00  -3.1240785525192507e-09 1.8844091112915602e-08 0.0000000000000000e+00  -5.6576181759786880e-10 6.1319436801535244e-09 0.0000000000000000e+00  -4.3659735757318439e-12 -3.7400256768692539e-09 0.0000000000000000e+00  -2.4390969095473747e-09 -1.6141179766133426e-08 0.0000000000000000e+00  -5.3669359994340575e-09 -2.2513192981125796e-08 0.0000000000000000e+00  -7.8853427334678227e-09 -2.4375771300036159e-08 0.0000000000000000e+00  -9.4859899925662981e-09 -2.3221135232436965e-08 0.0000000000000000e+00  -1.0180279637573631e-08 -2.0327878097183514e-08 0.0000000000000000e+00  -1.0226913875307023e-08 -1.6571751275926609e-08 0.0000000000000000e+00  -9.9291688623597848e-09 -1.2470172828418954e-08 0.0000000000000000e+00  -9.5404856765239366e-09 -8.2855437901154935e-09 0.0000000000000000e+00  -9.2376701763688764e-09 -4.1194763498203703e-09 0.0000000000000000e+00  -9.1218890672918492e-09 1.7084678886007791e-11 0.0000000000000000e+00  -9.2254970123505141e-09 4.1532252230137883e-09 0.0000000000000000e+00  -9.5152861664319186e-09 8.3173194258885630e-09 0.0000000000000000e+00  -9.8898342660719295e-09 1.2495894282218424e-08 0.0000000000000000e+00  -1.0173770769063799e-08 1.6581952354123502e-08 0.0000000000000000e+00  -1.0118546479328228e-08 2.0304048690692370e-08 0.0000000000000000e+00  -9.4304692983461564e-09 2.3134784838064128e-08 0.0000000000000000e+00  -7.8609547720537085e-09 2.4200773209331994e-08 0.0000000000000000e+00  -5.3934108293849669e-09 2.2267541383639202e-08 0.0000000000000000e+00  -2.4972635884596422e-09 1.5939988168130586e-08 0.0000000000000000e+00  -1.5284703660499973e-10 4.6339238544023628e-09 0.0000000000000000e+00  1.2979659126222983e-10 -2.7977658875478781e-09 0.0000000000000000e+00  -2.0000608078327354e-09 -1.3413254050221176e-08 0.0000000000000000e+00  -4.8012777683324899e-09 -1.9496970007772007e-08 0.0000000000000000e+00  -7.6477268770235173e-09 -2.1916083487702710e-08 0.0000000000000000e+00  -9.9952980245779218e-09 -2.1597468792014609e-08 0.0000000000000000e+00  -1.1657132997660694e-08 -1.9462952810592979e-08 0.0000000000000000e+00  -1.2688715124967906e-08 -1.6245410755394143e-08 0.0000000000000000e+00  -1.3249142547575595e-08 -1.2448304009470658e-08 0.0000000000000000e+00  -1.3509402298510618e-08 -8.3782513880357172e-09 0.0000000000000000e+00  -1.3606641495356144e-08 -4.1995465551757921e-09 0.0000000000000000e+00  -1.3626284992701660e-08 1.2127586521894211e-11 0.0000000000000000e+00  -1.3596989266297160e-08 4.2227353175542747e-09 0.0000000000000000e+00  -1.3489989128316087e-08 8.3976135281985004e-09 0.0000000000000000e+00  -1.3220260231216664e-08 1.2459072669057461e-08 0.0000000000000000e+00  -1.2652188258969876e-08 1.6239281930496041e-08 0.0000000000000000e+00  -1.1618056366824625e-08 1.9427225284239645e-08 0.0000000000000000e+00  -9.9635143535161849e-09 2.1517366427403575e-08 0.0000000000000000e+00  -7.6360110800678291e-09 2.1784931172950182e-08 0.0000000000000000e+00  -4.8156064951134655e-09 1.9336641985473873e-08 0.0000000000000000e+00  -2.0254468208604008e-09 1.3298158119073091e-08 0.0000000000000000e+00  5.2675159726938752e-11 3.4890497536823165e-09 0.0000000000000000e+00  1.9394861116660345e-10 -2.0970398447982271e-09 0.0000000000000000e+00  -1.6618888163847660e-09 -1.1014718219809641e-08 0.0000000000000000e+00  -4.2579344039706768e-09 -1.6510926123314479e-08 0.0000000000000000e+00  -7.1712289338913627e-09 -1.9080007818617693e-08 0.0000000000000000e+00  -9.8929023240638933e-09 -1.9288453508406098e-08 0.0000000000000000e+00  -1.2142970621753066e-08 -1.7777357596441872e-08 0.0000000000000000e+00  -1.3842827409444387e-08 -1.5119788281710758e-08 0.0000000000000000e+00  -1.5031091368780162e-08 -1.1757956623712374e-08 0.0000000000000000e+00  -1.5791782099057171e-08 -7.9983033977926014e-09 0.0000000000000000e+00  -1.6208169758404660e-08 -4.0363346355712657e-09 0.0000000000000000e+00  -1.6337723761488755e-08 7.5445030569311925e-12 0.0000000000000000e+00  -1.6200712725406730e-08 4.0500771226188258e-09 0.0000000000000000e+00  -1.5777138833403817e-08 8.0075782157539799e-09 0.0000000000000000e+00  -1.5010156527748927e-08 1.1758393318333144e-08 0.0000000000000000e+00  -1.3817791656889694e-08 1.5105206920130128e-08 0.0000000000000000e+00  -1.2118109187010912e-08 1.7740153792259354e-08 0.0000000000000000e+00  -9.8747353392387689e-09 1.9222232109392472e-08 0.0000000000000000e+00  -7.1662870377079422e-09 1.8985842905885916e-08 0.0000000000000000e+00  -4.2661442173676136e-09 1.6406997558840868e-08 0.0000000000000000e+00  -1.6713060725603392e-09 1.0948862563943743e-08 0.0000000000000000e+00  1.5530406555786137e-10 2.6287583046452774e-09 0.0000000000000000e+00  2.2233613823394251e-10 -1.5655523226392738e-09 0.0000000000000000e+00  -1.4014639224771459e-09 -8.9093955709203259e-09 0.0000000000000000e+00  -3.7763338860777718e-09 -1.3670005595737837e-08 0.0000000000000000e+00  -6.6222458893290271e-09 -1.6126950036679700e-08 0.0000000000000000e+00  -9.4866894277026338e-09 -1.6619906342045892e-08 0.0000000000000000e+00  -1.2055314588119104e-08 -1.5584686902955951e-08 0.0000000000000000e+00  -1.4169012203346531e-08 -1.3451254652502445e-08 0.0000000000000000e+00  -1.5777983849506160e-08 -1.0584001470556643e-08 0.0000000000000000e+00  -1.6891649145311189e-08 -7.2618328652908261e-09 0.0000000000000000e+00  -1.7540450931537677e-08 -3.6849860038618673e-09 0.0000000000000000e+00  -1.7751353320814786e-08 3.6887609139488471e-12 0.0000000000000000e+00  -1.7534805805409581e-08 3.6910082493552370e-09 0.0000000000000000e+00  -1.6880790922378814e-08 7.2635607403520891e-09 0.0000000000000000e+00  -1.5762997221719102e-08 1.0577899708085571e-08 0.0000000000000000e+00  -1.4152001406726972e-08 1.3433164522091580e-08 0.0000000000000000e+00  -1.2039691124189371e-08 1.5550556157871882e-08 0.0000000000000000e+00  -9.4768015649055497e-09 1.6567790398292563e-08 0.0000000000000000e+00  -6.6212169468955786e-09 1.6060437076164574e-08 0.0000000000000000e+00  -3.7813934948034105e-09 1.3602653281948355e-08 0.0000000000000000e+00  -1.4029838552365420e-09 8.8721995086887638e-09 0.0000000000000000e+00  2.0479894347736807e-10 1.9785272137861562e-09 0.0000000000000000e+00  2.3244798510612647e-10 -1.1532241955045684e-09 0.0000000000000000e+00  -1.2005586304116319e-09 -7.0526718627528172e-09 0.0000000000000000e+00  -3.3669010016517539e-09 -1.1015292017680584e-08 0.0000000000000000e+00  -6.0849354730855526e-09 -1.3198361833004855e-08 0.0000000000000000e+00  -8.9585531377510516e-09 -1.3800313980667974e-08 0.0000000000000000e+00  -1.1668789806417167e-08 -1.3111866965408279e-08 0.0000000000000000e+00  -1.4012111956727927e-08 -1.1445921746068003e-08 0.0000000000000000e+00  -1.5878970868022023e-08 -9.0890371337868569e-09 0.0000000000000000e+00  -1.7221731560415504e-08 -6.2785338690950937e-09 0.0000000000000000e+00  -1.8026519925339362e-08 -3.2001795705186848e-09 0.0000000000000000e+00  -1.8292958804797714e-08 6.3421236953176155e-13 0.0000000000000000e+00  -1.8022346844164336e-08 3.2002409895621379e-09 0.0000000000000000e+00  -1.7213853937869787e-08 6.2748966658248412e-09 0.0000000000000000e+00  -1.5868451513567731e-08 9.0790627435815639e-09 0.0000000000000000e+00  -1.4000784164217146e-08 1.1427030725279841e-08 0.0000000000000000e+00  -1.1659286274805550e-08 1.3082228528596897e-08 0.0000000000000000e+00  -8.9537461331402025e-09 1.3760144052390746e-08 0.0000000000000000e+00  -6.0860414110914000e-09 1.3151634056289002e-08 0.0000000000000000e+00  -3.3701699741571689e-09 1.0971678357536252e-08 0.0000000000000000e+00  -1.1983273136087042e-09 7.0324847591151742e-09 0.0000000000000000e+00  2.2633856592106081e-10 1.4794803299987675e-09 0.0000000000000000e+00  2.3368152253576189e-10 -8.2496328303669236e-10 0.0000000000000000e+00  -1.0467931024601293e-09 -5.4001481442655212e-09 0.0000000000000000e+00  -3.0314674202048746e-09 -8.5489719330745226e-09 0.0000000000000000e+00  -5.6052442300641479e-09 -1.0362558659576059e-08 0.0000000000000000e+00  -8.4203944449380148e-09 -1.0952734419577857e-08 0.0000000000000000e+00  -1.1166464298468829e-08 -1.0509205807703814e-08 0.0000000000000000e+00  -1.3617756452533776e-08 -9.2527422958988591e-09 0.0000000000000000e+00  -1.5626851271307903e-08 -7.3989255899768201e-09 0.0000000000000000e+00  -1.7105799171013348e-08 -5.1377804108021389e-09 0.0000000000000000e+00  -1.8007091132062680e-08 -2.6279529975725933e-09 0.0000000000000000e+00  -1.8308588542997720e-08 -1.6667369321284851e-12 0.0000000000000000e+00  -1.8004107691310563e-08 2.6236242242826154e-09 0.0000000000000000e+00  -1.7100263810744678e-08 5.1304844524325637e-09 0.0000000000000000e+00  -1.5619690267571200e-08 7.3868081745902585e-09 0.0000000000000000e+00  -1.3610454712708017e-08 9.2343439132386458e-09 0.0000000000000000e+00  -1.1160973619394243e-08 1.0483997459761894e-08 0.0000000000000000e+00  -8.4185613486545799e-09 1.0921879730799602e-08 0.0000000000000000e+00  -5.6072690539783276e-09 1.0329658912528742e-08 0.0000000000000000e+00  -3.0335970033206055e-09 8.5208017617438119e-09 0.0000000000000000e+00  -1.0431246286015004e-09 5.3902022475360719e-09 0.0000000000000000e+00  2.3335173509512882e-10 1.0886393558450746e-09 0.0000000000000000e+00  2.3129087798072776e-10 -5.5522140854265753e-10 0.0000000000000000e+00  -9.3240596535202016e-10 -3.9092463101406325e-09 0.0000000000000000e+00  -2.7700962113379415e-09 -6.2512868863393989e-09 0.0000000000000000e+00  -5.2104871949977218e-09 -7.6416207718767027e-09 0.0000000000000000e+00  -7.9436340731459328e-09 -8.1402413657200866e-09 0.0000000000000000e+00  -1.0671554219374922e-08 -7.8665564364752763e-09 0.0000000000000000e+00  -1.3159054467849160e-08 -6.9693730843816687e-09 0.0000000000000000e+00  -1.5236113476175736e-08 -5.6016845936560027e-09 0.0000000000000000e+00  -1.6788142435704570e-08 -3.9049399951125165e-09 0.0000000000000000e+00  -1.7744070770395460e-08 -2.0029152344723766e-09 0.0000000000000000e+00  -1.8065950193203816e-08 -3.3078336746754582e-12 0.0000000000000000e+00  -1.7742046457021268e-08 1.9955151066249754e-09 0.0000000000000000e+00  -1.6784444296522315e-08 3.8952586007601732e-09 0.0000000000000000e+00  -1.5231468498916209e-08 5.5884775997146510e-09 0.0000000000000000e+00  -1.3154572030037502e-08 6.9519241916830288e-09 0.0000000000000000e+00  -1.0668598951664281e-08 7.8450607818518820e-09 0.0000000000000000e+00  -7.9433398809160313e-09 8.1162147475864122e-09 0.0000000000000000e+00  -5.2126033846759740e-09 7.6181230455235826e-09 0.0000000000000000e+00  -2.7714422296986650e-09 6.2330725983821384e-09 0.0000000000000000e+00  -9.2868969410173357e-10 3.9054792151716420e-09 0.0000000000000000e+00  2.3333288481501169e-10 7.7479546480763193e-10 0.0000000000000000e+00  2.2827071703100348e-10 -3.2432138993541763e-10 0.0000000000000000e+00  -8.5282077668253324e-10 -2.5388517695702180e-09 0.0000000000000000e+00  -2.5829396462615821e-09 -4.0893256869728540e-09 0.0000000000000000e+00  -4.9179360833300352e-09 -5.0280143664106413e-09 0.0000000000000000e+00  -7.5745938473845297e-09 -5.3848029417010631e-09 0.0000000000000000e+00  -1.0266415838539783e-08 -5.2291572684834953e-09 0.0000000000000000e+00  -1.2755159455818376e-08 -4.65