<?xml version="1.0"?>
<VTKFile type="UnstructuredGrid"  version="0.1"  >
<UnstructuredGrid>
<Piece  NumberOfPoints="651" NumberOfCells="1200">
<Points>
<DataArray  type="Float64"  NumberOfComponents="3"  format="ascii">0 0 0  50000 0 0  100000 0 0  150000 0 0  200000 0 0  250000 0 0  300000 0 0  350000 0 0  400000 0 0  450000 0 0  500000 0 0  550000 0 0  600000 0 0  650000 0 0  700000 0 0  750000 0 0  800000 0 0  850000 0 0  900000 0 0  950000 0 0  1000000 0 0  0 50000 0  50000 50000 0  100000 50000 0  150000 50000 0  200000 50000 0  250000 50000 0  300000 50000 0  350000 50000 0  400000 50000 0  450000 50000 0  500000 50000 0  550000 50000 0  600000 50000 0  650000 50000 0  700000 50000 0  750000 50000 0  800000 50000 0  850000 50000 0  900000 50000 0  950000 50000 0  1000000 50000 0  0 100000 0  50000 100000 0  100000 100000 0  150000 100000 0  200000 100000 0  250000 100000 0  300000 100000 0  350000 100000 0  400000 100000 0  450000 100000 0  500000 100000 0  550000 100000 0  600000 100000 0  650000 100000 0  700000 100000 0  750000 100000 0  800000 100000 0  850000 100000 0  900000 100000 0  950000 100000 0  1000000 100000 0  0 150000 0  50000 150000 0  100000 150000 0  150000 150000 0  200000 150000 0  250000 150000 0  300000 150000 0  350000 150000 0  400000 150000 0  450000 150000 0  500000 150000 0  550000 150000 0  600000 150000 0  650000 150000 0  700000 150000 0  750000 150000 0  800000 150000 0  850000 150000 0  900000 150000 0  950000 150000 0  1000000 150000 0  0 200000 0  50000 200000 0  100000 200000 0  150000 200000 0  200000 200000 0  250000 200000 0  300000 200000 0  350000 200000 0  400000 200000 0  450000 200000 0  500000 200000 0  550000 200000 0  600000 200000 0  650000 200000 0  700000 200000 0  750000 200000 0  800000 200000 0  850000 200000 0  900000 200000 0  950000 200000 0  1000000 200000 0  0 250000 0  50000 250000 0  100000 250000 0  150000 250000 0  200000 250000 0  250000 250000 0  300000 250000 0  350000 250000 0  400000 250000 0  450000 250000 0  500000 250000 0  550000 250000 0  600000 250000 0  650000 250000 0  700000 250000 0  750000 250000 0  800000 250000 0  850000 250000 0  900000 250000 0  950000 250000 0  1000000 250000 0  0 300000 0  50000 300000 0  100000 300000 0  150000 300000 0  200000 300000 0  250000 300000 0  300000 300000 0  350000 300000 0  400000 300000 0  450000 300000 0  500000 300000 0  550000 300000 0  600000 300000 0  650000 300000 0  700000 300000 0  750000 300000 0  800000 300000 0  850000 300000 0  900000 300000 0  950000 300000 0  1000000 300000 0  0 350000 0  50000 350000 0  100000 350000 0  150000 350000 0  200000 350000 0  250000 350000 0  300000 350000 0  350000 350000 0  400000 350000 0  450000 350000 0  500000 350000 0  550000 350000 0  600000 350000 0  650000 350000 0  700000 350000 0  750000 350000 0  800000 350000 0  850000 350000 0  900000 350000 0  950000 350000 0  1000000 350000 0  0 400000 0  50000 400000 0  100000 400000 0  150000 400000 0  200000 400000 0  250000 400000 0  300000 400000 0  350000 400000 0  400000 400000 0  450000 400000 0  500000 400000 0  550000 400000 0  600000 400000 0  650000 400000 0  700000 400000 0  750000 400000 0  800000 400000 0  850000 400000 0  900000 400000 0  950000 400000 0  1000000 400000 0  0 450000 0  50000 450000 0  100000 450000 0  150000 450000 0  200000 450000 0  250000 450000 0  300000 450000 0  350000 450000 0  400000 450000 0  450000 450000 0  500000 450000 0  550000 450000 0  600000 450000 0  650000 450000 0  700000 450000 0  750000 450000 0  800000 450000 0  850000 450000 0  900000 450000 0  950000 450000 0  1000000 450000 0  0 500000 0  50000 500000 0  100000 500000 0  150000 500000 0  200000 500000 0  250000 500000 0  300000 500000 0  350000 500000 0  400000 500000 0  450000 500000 0  500000 500000 0  550000 500000 0  600000 500000 0  650000 500000 0  700000 500000 0  750000 500000 0  800000 500000 0  850000 500000 0  900000 500000 0  950000 500000 0  1000000 500000 0  0 550000 0  50000 550000 0  100000 550000 0  150000 550000 0  200000 550000 0  250000 550000 0  300000 550000 0  350000 550000 0  400000 550000 0  450000 550000 0  500000 550000 0  550000 550000 0  600000 550000 0  650000 550000 0  700000 550000 0  750000 550000 0  800000 550000 0  850000 550000 0  900000 550000 0  950000 550000 0  1000000 550000 0  0 600000 0  50000 600000 0  100000 600000 0  150000 600000 0  200000 600000 0  250000 600000 0  300000 600000 0  350000 600000 0  400000 600000 0  450000 600000 0  500000 600000 0  550000 600000 0  600000 600000 0  650000 600000 0  700000 600000 0  750000 600000 0  800000 600000 0  850000 600000 0  900000 600000 0  950000 600000 0  1000000 600000 0  0 650000 0  50000 650000 0  100000 650000 0  150000 650000 0  200000 650000 0  250000 650000 0  300000 650000 0  350000 650000 0  400000 650000 0  450000 650000 0  500000 650000 0  550000 650000 0  600000 650000 0  650000 650000 0  700000 650000 0  750000 650000 0  800000 650000 0  850000 650000 0  900000 650000 0  950000 650000 0  1000000 650000 0  0 700000 0  50000 700000 0  100000 700000 0  150000 700000 0  200000 700000 0  250000 700000 0  300000 700000 0  350000 700000 0  400000 700000 0  450000 700000 0  500000 700000 0  550000 700000 0  600000 700000 0  650000 700000 0  700000 700000 0  750000 700000 0  800000 700000 0  850000 700000 0  900000 700000 0  950000 700000 0  1000000 700000 0  0 750000 0  50000 750000 0  100000 750000 0  150000 750000 0  200000 750000 0  250000 750000 0  300000 750000 0  350000 750000 0  400000 750000 0  450000 750000 0  500000 750000 0  550000 750000 0  600000 750000 0  650000 750000 0  700000 750000 0  750000 750000 0  800000 750000 0  850000 750000 0  900000 750000 0  950000 750000 0  1000000 750000 0  0 800000 0  50000 800000 0  100000 800000 0  150000 800000 0  200000 800000 0  250000 800000 0  300000 800000 0  350000 800000 0  400000 800000 0  450000 800000 0  500000 800000 0  550000 800000 0  600000 800000 0  650000 800000 0  700000 800000 0  750000 800000 0  800000 800000 0  850000 800000 0  900000 800000 0  950000 800000 0  1000000 800000 0  0 850000 0  50000 850000 0  100000 850000 0  150000 850000 0  200000 850000 0  250000 850000 0  300000 850000 0  350000 850000 0  400000 850000 0  450000 850000 0  500000 850000 0  550000 850000 0  600000 850000 0  650000 850000 0  700000 850000 0  750000 850000 0  800000 850000 0  850000 850000 0  900000 850000 0  950000 850000 0  1000000 850000 0  0 900000 0  50000 900000 0  100000 900000 0  150000 900000 0  200000 900000 0  250000 900000 0  300000 900000 0  350000 900000 0  400000 900000 0  450000 900000 0  500000 900000 0  550000 900000 0  600000 900000 0  650000 900000 0  700000 900000 0  750000 900000 0  800000 900000 0  850000 900000 0  900000 900000 0  950000 900000 0  1000000 900000 0  0 950000 0  50000 950000 0  100000 950000 0  150000 950000 0  200000 950000 0  250000 950000 0  300000 950000 0  350000 950000 0  400000 950000 0  450000 950000 0  500000 950000 0  550000 950000 0  600000 950000 0  650000 950000 0  700000 950000 0  750000 950000 0  800000 950000 0  850000 950000 0  900000 950000 0  950000 950000 0  1000000 950000 0  0 1000000 0  50000 1000000 0  100000 1000000 0  150000 1000000 0  200000 1000000 0  250000 1000000 0  300000 1000000 0  350000 1000000 0  400000 1000000 0  450000 1000000 0  500000 1000000 0  550000 1000000 0  600000 1000000 0  650000 1000000 0  700000 1000000 0  750000 1000000 0  800000 1000000 0  850000 1000000 0  900000 1000000 0  950000 1000000 0  1000000 1000000 0  0 1050000 0  50000 1050000 0  100000 1050000 0  150000 1050000 0  200000 1050000 0  250000 1050000 0  300000 1050000 0  350000 1050000 0  400000 1050000 0  450000 1050000 0  500000 1050000 0  550000 1050000 0  600000 1050000 0  650000 1050000 0  700000 1050000 0  750000 1050000 0  800000 1050000 0  850000 1050000 0  900000 1050000 0  950000 1050000 0  1000000 1050000 0  0 1100000 0  50000 1100000 0  100000 1100000 0  150000 1100000 0  200000 1100000 0  250000 1100000 0  300000 1100000 0  350000 1100000 0  400000 1100000 0  450000 1100000 0  500000 1100000 0  550000 1100000 0  600000 1100000 0  650000 1100000 0  700000 1100000 0  750000 1100000 0  800000 1100000 0  850000 1100000 0  900000 1100000 0  950000 1100000 0  1000000 1100000 0  0 1150000 0  50000 1150000 0  100000 1150000 0  150000 1150000 0  200000 1150000 0  250000 1150000 0  300000 1150000 0  350000 1150000 0  400000 1150000 0  450000 1150000 0  500000 1150000 0  550000 1150000 0  600000 1150000 0  650000 1150000 0  700000 1150000 0  750000 1150000 0  800000 1150000 0  850000 1150000 0  900000 1150000 0  950000 1150000 0  1000000 1150000 0  0 1200000 0  50000 1200000 0  100000 1200000 0  150000 1200000 0  200000 1200000 0  250000 1200000 0  300000 1200000 0  350000 1200000 0  400000 1200000 0  450000 1200000 0  500000 1200000 0  550000 1200000 0  600000 1200000 0  650000 1200000 0  700000 1200000 0  750000 1200000 0  800000 1200000 0  850000 1200000 0  900000 1200000 0  950000 1200000 0  1000000 1200000 0  0 1250000 0  50000 1250000 0  100000 1250000 0  150000 1250000 0  200000 1250000 0  250000 1250000 0  300000 1250000 0  350000 1250000 0  400000 1250000 0  450000 1250000 0  500000 1250000 0  550000 1250000 0  600000 1250000 0  650000 1250000 0  700000 1250000 0  750000 1250000 0  800000 1250000 0  850000 1250000 0  900000 1250000 0  950000 1250000 0  1000000 1250000 0  0 1300000 0  50000 1300000 0  100000 1300000 0  150000 1300000 0  200000 1300000 0  250000 1300000 0  300000 1300000 0  350000 1300000 0  400000 1300000 0  450000 1300000 0  500000 1300000 0  550000 1300000 0  600000 1300000 0  650000 1300000 0  700000 1300000 0  750000 1300000 0  800000 1300000 0  850000 1300000 0  900000 1300000 0  950000 1300000 0  1000000 1300000 0  0 1350000 0  50000 1350000 0  100000 1350000 0  150000 1350000 0  200000 1350000 0  250000 1350000 0  300000 1350000 0  350000 1350000 0  400000 1350000 0  450000 1350000 0  500000 1350000 0  550000 1350000 0  600000 1350000 0  650000 1350000 0  700000 135
[...]
<PointData  Vectors="f_3007"> 
<DataArray  type="Float64"  Name="f_3007"  NumberOfComponents="3" format="ascii">-1.5200333841763096e-08 -8.4097473180749843e-09 0.0000000000000000e+00  6.4045971275593132e-08 -5.2484807674880402e-09 0.0000000000000000e+00  6.7369461687753673e-08 -1.4232164285208877e-09 0.0000000000000000e+00  7.1123312179308446e-08 -1.9738252736200183e-10 0.0000000000000000e+00  7.3937121124830221e-08 1.9637895271285395e-10 0.0000000000000000e+00  7.5771823658011422e-08 3.0128545427981749e-10 0.0000000000000000e+00  7.6929793569173138e-08 2.8730975136533252e-10 0.0000000000000000e+00  7.7643088364233409e-08 2.2383169616341011e-10 0.0000000000000000e+00  7.8056168144896733e-08 1.4099842708379713e-10 0.0000000000000000e+00  7.8250719928096214e-08 5.1322691599221610e-11 0.0000000000000000e+00  7.8264534135996708e-08 -4.0521364238186423e-11 0.0000000000000000e+00  7.8100937096792720e-08 -1.3255480628998160e-10 0.0000000000000000e+00  7.7729992204274601e-08 -2.2183631593441755e-10 0.0000000000000000e+00  7.7082439964185776e-08 -2.9989910871506191e-10 0.0000000000000000e+00  7.6038511631410437e-08 -3.4364095813084603e-10 0.0000000000000000e+00  7.4423908017770621e-08 -2.9274596319858789e-10 0.0000000000000000e+00  7.2067223291792416e-08 1.0998649861971735e-11 0.0000000000000000e+00  6.9094194503240577e-08 9.8100435176442791e-10 0.0000000000000000e+00  6.6567560164000041e-08 3.6034585135219325e-09 0.0000000000000000e+00  6.5196841054658074e-08 8.4999432707384496e-09 0.0000000000000000e+00  -1.3275017398647595e-08 7.2946346658718641e-09 0.0000000000000000e+00  -1.0786087286728570e-08 -1.1556834185133830e-08 0.0000000000000000e+00  7.0606646922207892e-09 -1.7668004154949250e-08 0.0000000000000000e+00  2.0888152761269280e-08 -1.2473881188333860e-08 0.0000000000000000e+00  3.1794033566035346e-08 -8.4104850788507533e-09 0.0000000000000000e+00  3.9890151310791913e-08 -5.6956878461259533e-09 0.0000000000000000e+00  4.5781058243189833e-08 -3.8680617337055429e-09 0.0000000000000000e+00  4.9968255384661133e-08 -2.6107140673817572e-09 0.0000000000000000e+00  5.2857727156255700e-08 -1.7161518485711204e-09 0.0000000000000000e+00  5.4738813442496094e-08 -1.0465437847221997e-09 0.0000000000000000e+00  5.5798676886404625e-08 -5.0707441964442714e-10 0.0000000000000000e+00  5.6141694007643965e-08 -2.7605609560165568e-11 0.0000000000000000e+00  5.5802380683862116e-08 4.5101955303868833e-10 0.0000000000000000e+00  5.4750260720703457e-08 9.8869554684500404e-10 0.0000000000000000e+00  5.2886995723539597e-08 1.6587162089067736e-09 0.0000000000000000e+00  5.0036871724705417e-08 2.5653870160389653e-09 0.0000000000000000e+00  4.5934255657366248e-08 3.8733349158342695e-09 0.0000000000000000e+00  4.0217780783520649e-08 5.8593013533043448e-09 0.0000000000000000e+00  3.2438494162883219e-08 8.9851458198480094e-09 0.0000000000000000e+00  2.1979040390924764e-08 1.3819691722625344e-08 0.0000000000000000e+00  7.4870676027665018e-09 1.9607226200696093e-08 0.0000000000000000e+00  -1.2936677708504070e-08 9.9120098157966974e-09 0.0000000000000000e+00  -5.0235973660174856e-09 -1.1362029893495567e-08 0.0000000000000000e+00  -2.9469241017977067e-09 -2.5865231746627301e-08 0.0000000000000000e+00  1.8806325481923592e-09 -2.2612066124101168e-08 0.0000000000000000e+00  9.3984585492764756e-09 -1.7336935258059057e-08 0.0000000000000000e+00  1.7067503932870530e-08 -1.2763022097389782e-08 0.0000000000000000e+00  2.3513425947510212e-08 -9.2133597626172415e-09 0.0000000000000000e+00  2.8521252895480835e-08 -6.5074769986029025e-09 0.0000000000000000e+00  3.2196106249501952e-08 -4.4150904896010899e-09 0.0000000000000000e+00  3.4691933945879534e-08 -2.7365842915304652e-09 0.0000000000000000e+00  3.6137193955680441e-08 -1.3105112063426845e-09 0.0000000000000000e+00  3.6613396115842547e-08 -3.2211534887843795e-12 0.0000000000000000e+00  3.6149728736290393e-08 1.3052332773661291e-09 0.0000000000000000e+00  3.4722784573957522e-08 2.7358038518256459e-09 0.0000000000000000e+00  3.2259246358898107e-08 4.4259464204504736e-09 0.0000000000000000e+00  2.8645017966125814e-08 6.5463886021535971e-09 0.0000000000000000e+00  2.3752370499260776e-08 9.3158506791947607e-09 0.0000000000000000e+00  1.7512943945131838e-08 1.2991770621863175e-08 0.0000000000000000e+00  1.0097426417960549e-08 1.7736548795024009e-08 0.0000000000000000e+00  2.3176428475130107e-09 2.2963862616980885e-08 0.0000000000000000e+00  -3.7364823634320138e-09 2.4982808604319621e-08 0.0000000000000000e+00  -7.3642263122209483e-09 1.0414769956653465e-08 0.0000000000000000e+00  -2.1242852893744796e-09 -9.0185597200026349e-09 0.0000000000000000e+00  -4.0758232378325995e-09 -2.5332789712470496e-08 0.0000000000000000e+00  -4.2496207023225543e-09 -2.7156132452034158e-08 0.0000000000000000e+00  -1.2851010606369812e-09 -2.3483710018609285e-08 0.0000000000000000e+00  3.3883136573173797e-09 -1.8755805567636919e-08 0.0000000000000000e+00  8.2652196861357784e-09 -1.4339564270360183e-08 0.0000000000000000e+00  1.2553162041477642e-08 -1.0555824410554688e-08 0.0000000000000000e+00  1.5949498974461506e-08 -7.3732864699399079e-09 0.0000000000000000e+00  1.8371925294922555e-08 -4.6557338984069461e-09 0.0000000000000000e+00  1.9817373651881808e-08 -2.2447688492950390e-09 0.0000000000000000e+00  2.0301347180353199e-08 1.6065831557876374e-11 0.0000000000000000e+00  1.9832880962822991e-08 2.2789280231859486e-09 0.0000000000000000e+00  1.8408156144806687e-08 4.6966370975067915e-09 0.0000000000000000e+00  1.6018794369106306e-08 7.4277077554510159e-09 0.0000000000000000e+00  1.2678886823856126e-08 1.0633538333447291e-08 0.0000000000000000e+00  8.4833328603890129e-09 1.4449704405065797e-08 0.0000000000000000e+00  3.7201069159718407e-09 1.8882652372449800e-08 0.0000000000000000e+00  -9.4008299829683910e-10 2.3506781156928804e-08 0.0000000000000000e+00  -4.2315348470839361e-09 2.6706156430659967e-08 0.0000000000000000e+00  -4.6071958305771390e-09 2.4347570657542316e-08 0.0000000000000000e+00  -3.2666173859067623e-09 9.6754842795469579e-09 0.0000000000000000e+00  -8.5645291392322812e-10 -6.7658825405473851e-09 0.0000000000000000e+00  -3.6260072362436340e-09 -2.2450980629434753e-08 0.0000000000000000e+00  -5.8060188720774971e-09 -2.7265372259866058e-08 0.0000000000000000e+00  -5.8574128561721893e-09 -2.6069709313090520e-08 0.0000000000000000e+00  -4.0693895544131202e-09 -2.2391291052862206e-08 0.0000000000000000e+00  -1.3720897411915953e-09 -1.8053147071424644e-08 0.0000000000000000e+00  1.4554008554870491e-09 -1.3815683264728586e-08 0.0000000000000000e+00  3.9382298584545848e-09 -9.9219070645606424e-09 0.0000000000000000e+00  5.8247255100763108e-09 -6.3829139960569573e-09 0.0000000000000000e+00  6.9934264756637322e-09 -3.1106729832788046e-09 0.0000000000000000e+00  7.3925459811739405e-09 2.2320503649027787e-11 0.0000000000000000e+00  7.0090920843438786e-09 3.1568731758375876e-09 0.0000000000000000e+00  5.8597938961313719e-09 6.4338091555870635e-09 0.0000000000000000e+00  4.0009003260916309e-09 9.9801611369635326e-09 0.0000000000000000e+00  1.5584178446523047e-09 1.3880595130709263e-08 0.0000000000000000e+00  -1.2176772779160065e-09 1.8110686018269496e-08 0.0000000000000000e+00  -3.8780358908435407e-09 2.2389291329036886e-08 0.0000000000000000e+00  -5.7136973236496026e-09 2.5885230709757845e-08 0.0000000000000000e+00  -5.8526379611534386e-09 2.6752805644360934e-08 0.0000000000000000e+00  -3.8859643076290225e-09 2.1807469931315576e-08 0.0000000000000000e+00  -1.4187076802339990e-09 7.9454192025846141e-09 0.0000000000000000e+00  -2.7971216561126345e-10 -5.0210867577331878e-09 0.0000000000000000e+00  -2.9860322293881222e-09 -1.9202193164133459e-08 0.0000000000000000e+00  -5.8211064874772561e-09 -2.5298100257476636e-08 0.0000000000000000e+00  -7.5303899640541506e-09 -2.6011065267478573e-08 0.0000000000000000e+00  -7.8205621401631413e-09 -2.3691004944484427e-08 0.0000000000000000e+00  -7.0657905014950475e-09 -1.9990394522467758e-08 0.0000000000000000e+00  -5.7918038032998073e-09 -1.5832914840475826e-08 0.0000000000000000e+00  -4.4349275735363678e-09 -1.1659434460429521e-08 0.0000000000000000e+00  -3.2921120831213345e-09 -7.6309060305734148e-09 0.0000000000000000e+00  -2.5424467297712049e-09 -3.7584838047817946e-09 0.0000000000000000e+00  -2.2786106724632117e-09 2.1077884632424679e-11 0.0000000000000000e+00  -2.5283570719238051e-09 3.8012059349494826e-09 0.0000000000000000e+00  -3.2618054979433500e-09 7.6748305233593619e-09 0.0000000000000000e+00  -4.3843345198283685e-09 1.1703072554488993e-08 0.0000000000000000e+00  -5.7164549529220982e-09 1.5868795992088318e-08 0.0000000000000000e+00  -6.9665582431191786e-09 1.9997067530434907e-08 0.0000000000000000e+00  -7.7161079344541164e-09 2.3622369879115756e-08 0.0000000000000000e+00  -7.4679156874681532e-09 2.5797962532523372e-08 0.0000000000000000e+00  -5.8538611478995902e-09 2.4919078510003737e-08 0.0000000000000000e+00  -3.1058765941224493e-09 1.8826487514625891e-08 0.0000000000000000e+00  -5.6491464116954525e-10 6.1281551202981596e-09 0.0000000000000000e+00  -4.3558746278968050e-12 -3.7374574291704573e-09 0.0000000000000000e+00  -2.4313510070535004e-09 -1.6146842720312472e-08 0.0000000000000000e+00  -5.3603784765627079e-09 -2.2517713311991932e-08 0.0000000000000000e+00  -7.8791594330959994e-09 -2.4380832946848902e-08 0.0000000000000000e+00  -9.4795394760663660e-09 -2.3227387098936884e-08 0.0000000000000000e+00  -1.0172925627101890e-08 -2.0334981734531372e-08 0.0000000000000000e+00  -1.0218296174942012e-08 -1.6579006132322605e-08 0.0000000000000000e+00  -9.9195101029802274e-09 -1.2476625608753311e-08 0.0000000000000000e+00  -9.5301899332648774e-09 -8.2903668234236667e-09 0.0000000000000000e+00  -9.2270963111630552e-09 -4.1221020273562631e-09 0.0000000000000000e+00  -9.1113528151099557e-09 1.6947659893904070e-11 0.0000000000000000e+00  -9.2153051313118631e-09 4.1556216788446444e-09 0.0000000000000000e+00  -9.5057000204150106e-09 8.3220740886307239e-09 0.0000000000000000e+00  -9.8809771351162889e-09 1.2502625272662241e-08 0.0000000000000000e+00  -1.0165495839431378e-08 1.6590056404616932e-08 0.0000000000000000e+00  -1.0110275658856570e-08 2.0312613614698404e-08 0.0000000000000000e+00  -9.4210632086535458e-09 2.3142353124466991e-08 0.0000000000000000e+00  -7.8488314996207680e-09 2.4204927699736337e-08 0.0000000000000000e+00  -5.3776680133082478e-09 2.2264856834820335e-08 0.0000000000000000e+00  -2.4850688610170751e-09 1.5931897464528876e-08 0.0000000000000000e+00  -1.5231377309088493e-10 4.6309139007501892e-09 0.0000000000000000e+00  1.2976208524302397e-10 -2.7959425455592748e-09 0.0000000000000000e+00  -1.9944949708071387e-09 -1.3418873776199569e-08 0.0000000000000000e+00  -4.7959821920829746e-09 -1.9503510374103453e-08 0.0000000000000000e+00  -7.6426176981464420e-09 -2.1923647209920349e-08 0.0000000000000000e+00  -9.9902041888511433e-09 -2.1605998573809564e-08 0.0000000000000000e+00  -1.1651599640457667e-08 -1.9471945195561885e-08 0.0000000000000000e+00  -1.2682427434341807e-08 -1.6254096642335576e-08 0.0000000000000000e+00  -1.3242119140951229e-08 -1.2455792878795079e-08 0.0000000000000000e+00  -1.3501884168349337e-08 -8.3837240699540578e-09 0.0000000000000000e+00  -1.3598890946900783e-08 -4.2024111904962967e-09 0.0000000000000000e+00  -1.3618529790443773e-08 1.2191459290659458e-11 0.0000000000000000e+00  -1.3589433226429353e-08 4.2257858315703412e-09 0.0000000000000000e+00  -1.3482797552270090e-08 8.4034662548363693e-09 0.0000000000000000e+00  -1.3213506391729540e-08 1.2467316314938127e-08 0.0000000000000000e+00  -1.2645773570276094e-08 1.6249277361460707e-08 0.0000000000000000e+00  -1.1611619374482488e-08 1.9438056138511982e-08 0.0000000000000000e+00  -9.9563721737211166e-09 2.1527688185024715e-08 0.0000000000000000e+00  -7.6272630672136316e-09 2.1792700197251146e-08 0.0000000000000000e+00  -4.8048345977194863e-09 1.9339079739111127e-08 0.0000000000000000e+00  -2.0170849540722446e-09 1.3295402754622376e-08 0.0000000000000000e+00  5.2972658369191408e-11 3.4867846614171737e-09 0.0000000000000000e+00  1.9392097686618524e-10 -2.0958101990848273e-09 0.0000000000000000e+00  -1.6578222053001172e-09 -1.1020327074625029e-08 0.0000000000000000e+00  -4.2538886392273106e-09 -1.6518684091059733e-08 0.0000000000000000e+00  -7.1673793903916958e-09 -1.9089342599671920e-08 0.0000000000000000e+00  -9.8894376737358118e-09 -1.9298688864171533e-08 0.0000000000000000e+00  -1.2139642169653867e-08 -1.7787753456119729e-08 0.0000000000000000e+00  -1.3839338844175218e-08 -1.5129513753458267e-08 0.0000000000000000e+00  -1.5027342043023509e-08 -1.1766150685788560e-08 0.0000000000000000e+00  -1.5787840503724314e-08 -8.0041883187364289e-09 0.0000000000000000e+00  -1.6204147448979096e-08 -4.0393341863269084e-09 0.0000000000000000e+00  -1.6333707773135121e-08 7.7470422121784809e-12 0.0000000000000000e+00  -1.6196761868845954e-08 4.0535312571466533e-09 0.0000000000000000e+00  -1.5773283218434004e-08 8.0140780692943723e-09 0.0000000000000000e+00  -1.5006373751537770e-08 1.1767492128452745e-08 0.0000000000000000e+00  -1.3813963299946105e-08 1.5116223113988902e-08 0.0000000000000000e+00  -1.2113972539933355e-08 1.7752147255833358e-08 0.0000000000000000e+00  -9.8698663899242673e-09 1.9233916590434806e-08 0.0000000000000000e+00  -7.1601995141955104e-09 1.8995425105000029e-08 0.0000000000000000e+00  -4.2587506405444159e-09 1.6412164495863180e-08 0.0000000000000000e+00  -1.6654688977672519e-09 1.0949018423973258e-08 0.0000000000000000e+00  1.5545517883692043e-10 2.6271357705188727e-09 0.0000000000000000e+00  2.2233921228547739e-10 -1.5647740262026259e-09 0.0000000000000000e+00  -1.3984541591726132e-09 -8.9149058665185699e-09 0.0000000000000000e+00  -3.7734918503610310e-09 -1.3678165126252812e-08 0.0000000000000000e+00  -6.6198444034460625e-09 -1.6137018294123575e-08 0.0000000000000000e+00  -9.4851028152545620e-09 -1.6630900694587259e-08 0.0000000000000000e+00  -1.2054465289617763e-08 -1.5595689864106024e-08 0.0000000000000000e+00  -1.4168642763133476e-08 -1.3461386752195353e-08 0.0000000000000000e+00  -1.5777903120035785e-08 -1.0592424805600113e-08 0.0000000000000000e+00  -1.6891767966900962e-08 -7.2678157668636924e-09 0.0000000000000000e+00  -1.7540710254569590e-08 -3.6879864235480671e-09 0.0000000000000000e+00  -1.7751670748256498e-08 3.9679860986938205e-12 0.0000000000000000e+00  -1.7535070771388849e-08 3.6946026180976121e-09 0.0000000000000000e+00  -1.6880875066206587e-08 7.2702493626283364e-09 0.0000000000000000e+00  -1.5762752950258415e-08 1.0587218286461450e-08 0.0000000000000000e+00  -1.4151244884363963e-08 1.3444416085957398e-08 0.0000000000000000e+00  -1.2038182299634893e-08 1.5562804921203350e-08 0.0000000000000000e+00  -9.4742533214528058e-09 1.6579817034264000e-08 0.0000000000000000e+00  -6.6173939427184288e-09 1.6070650240217806e-08 0.0000000000000000e+00  -3.7764341836145973e-09 1.3609090181911928e-08 0.0000000000000000e+00  -1.3988734421045466e-09 8.8738879700338202e-09 0.0000000000000000e+00  2.0487811151667484e-10 1.9774303676481196e-09 0.0000000000000000e+00  2.3249257116084259e-10 -1.1527720261307507e-09 0.0000000000000000e+00  -1.1983211244977244e-09 -7.0579181764470658e-09 0.0000000000000000e+00  -3.3651500513907095e-09 -1.1023205065317422e-08 0.0000000000000000e+00  -6.0840364205320804e-09 -1.3208225407388528e-08 0.0000000000000000e+00  -8.9589663313779321e-09 -1.3811095200575250e-08 0.0000000000000000e+00  -1.1670546754046160e-08 -1.3122594662832558e-08 0.0000000000000000e+00  -1.4014987873829471e-08 -1.1455723025570793e-08 0.0000000000000000e+00  -1.5882702289433327e-08 -9.0971238623655752e-09 0.0000000000000000e+00  -1.7226085873670293e-08 -6.2842368163825821e-09 0.0000000000000000e+00  -1.8031266495281290e-08 -3.2030065733585600e-09 0.0000000000000000e+00  -1.8297837176511846e-08 9.5128706226986527e-13 0.0000000000000000e+00  -1.8027069056155732e-08 3.2037259964078020e-09 0.0000000000000000e+00  -1.7218125030709847e-08 6.2813298854840525e-09 0.0000000000000000e+00  -1.5871985059564750e-08 9.0879921802478510e-09 0.0000000000000000e+00  -1.4003305222216750e-08 1.1437785571627856e-08 0.0000000000000000e+00  -1.1660531871395040e-08 1.3093924137788489e-08 0.0000000000000000e+00  -8.9534926920628901e-09 1.3771663779367526e-08 0.0000000000000000e+00  -6.0842053440784251e-09 1.3161584111099451e-08 0.0000000000000000e+00  -3.3670470896500144e-09 1.0978392341792968e-08 0.0000000000000000e+00  -1.1954269237018171e-09 7.0348527623783749e-09 0.0000000000000000e+00  2.2639908018722504e-10 1.4787909299799860e-09 0.0000000000000000e+00  2.3377003593988455e-10 -8.2473046209260543e-10 0.0000000000000000e+00  -1.0451337192652007e-09 -5.4049042067163140e-09 0.0000000000000000e+00  -3.0306540111258089e-09 -8.5560981812110247e-09 0.0000000000000000e+00  -5.6057597085369682e-09 -1.0371439300504208e-08 0.0000000000000000e+00  -8.4227477598743811e-09 -1.0962441483101881e-08 0.0000000000000000e+00  -1.1170746303157710e-08 -1.0518836731557292e-08 0.0000000000000000e+00  -1.3623758534945993e-08 -9.2614993598443994e-09 0.0000000000000000e+00  -1.5634247469425681e-08 -7.4061122019165349e-09 0.0000000000000000e+00  -1.7114229756620760e-08 -5.1428173574271834e-09 0.0000000000000000e+00  -1.8016165211742729e-08 -2.6304174808938440e-09 0.0000000000000000e+00  -1.8317874624256544e-08 -1.3296677450175624e-12 0.0000000000000000e+00  -1.8013147164900127e-08 2.6267782160954641e-09 0.0000000000000000e+00  -1.7108601080841013e-08 5.1362546563392704e-09 0.0000000000000000e+00  -1.5626901220348722e-08 7.3947868959289025e-09 0.0000000000000000e+00  -1.3616164791519656e-08 9.2439303998103383e-09 0.0000000000000000e+00  -1.1164873917965695e-08 1.0494408473008202e-08 0.0000000000000000e+00  -8.4204500406317815e-09 1.0932145974994264e-08 0.0000000000000000e+00  -5.6071548289520501e-09 1.0338603284397562e-08 0.0000000000000000e+00  -3.0318881933918135e-09 8.5270411161485350e-09 0.0000000000000000e+00  -1.0410797727102617e-09 5.3926483590594221e-09 0.0000000000000000e+00  2.3342626890368461e-10 1.0882452494040050e-09 0.0000000000000000e+00  2.3141896748951511e-10 -5.5512122533616053e-10 0.0000000000000000e+00  -9.3117502228252325e-10 -3.9132678487362593e-09 0.0000000000000000e+00  -2.7700376234019294e-09 -6.2571578093589382e-09 0.0000000000000000e+00  -5.2122132641371047e-09 -7.6488783979922925e-09 0.0000000000000000e+00  -7.9476905692527802e-09 -8.1481539742405244e-09 0.0000000000000000e+00  -1.0678061488615781e-08 -7.8743850255082998e-09 0.0000000000000000e+00  -1.3167805687169656e-08 -6.9764617859768028e-09 0.0000000000000000e+00  -1.5246729059674603e-08 -5.6074709304116242e-09 0.0000000000000000e+00  -1.6800156224568457e-08 -3.9089636650843718e-09 0.0000000000000000e+00  -1.7756953810010159e-08 -2.0048424649887739e-09 0.0000000000000000e+00  -1.8079120859721581e-08 -2.9586063183760927e-12 0.0000000000000000e+00  -1.7754895928848332e-08 1.9981497587924428e-09 0.0000000000000000e+00  -1.6796375459032122e-08 3.9000125290875441e-09 0.0000000000000000e+00  -1.5241934057219379e-08 5.5950158899409419e-09 0.0000000000000000e+00  -1.3163103700135036e-08 6.9597553560713590e-09 0.0000000000000000e+00  -1.0674835548476624e-08 7.8535485133798089e-09 0.0000000000000000e+00  -7.9470800454999686e-09 8.1245806175166433e-09 0.0000000000000000e+00  -5.2139125335051656e-09 7.6254351485024716e-09 0.0000000000000000e+00  -2.7708100119650802e-09 6.2382395445187435e-09 0.0000000000000000e+00  -9.2724344451547651e-10 3.9075419533998138e-09 0.0000000000000000e+00  2.3343694619886224e-10 7.7459737696541038e-10 0.0000000000000000e+00  2.2842865040504839e-10 -3.2428919005152537e-10 0.0000000000000000e+00  -8.5188702035483195e-10 -2.5419222703621912e-09 0.0000000000000000e+00  -2.5834260030384623e-09 -4.0935559287855346e-09 0.0000000000000000e+00  -4.9205785240906124e-09 -5.0331432354343169e-09 0.0000000000000000e+00  -7.5799673683216016e-09 -5.3903537376793607e-09 0.0000000000000000e+00  -1.0274654018257722e-08 -5.2346212378254609e-09 0.0000000000000000e+00  -1.2766049982295194e-08 -4.65