<?xml version="1.0"?>
<VTKFile type="UnstructuredGrid"  version="0.1"  >
<UnstructuredGrid>
<Piece  NumberOfPoints="651" NumberOfCells="1200">
<Points>
<DataArray  type="Float64"  NumberOfComponents="3"  format="ascii">0 0 0  50000 0 0  100000 0 0  150000 0 0  200000 0 0  250000 0 0  300000 0 0  350000 0 0  400000 0 0  450000 0 0  500000 0 0  550000 0 0  600000 0 0  650000 0 0  700000 0 0  750000 0 0  800000 0 0  850000 0 0  900000 0 0  950000 0 0  1000000 0 0  0 50000 0  50000 50000 0  100000 50000 0  150000 50000 0  200000 50000 0  250000 50000 0  300000 50000 0  350000 50000 0  400000 50000 0  450000 50000 0  500000 50000 0  550000 50000 0  600000 50000 0  650000 50000 0  700000 50000 0  750000 50000 0  800000 50000 0  850000 50000 0  900000 50000 0  950000 50000 0  1000000 50000 0  0 100000 0  50000 100000 0  100000 100000 0  150000 100000 0  200000 100000 0  250000 100000 0  300000 100000 0  350000 100000 0  400000 100000 0  450000 100000 0  500000 100000 0  550000 100000 0  600000 100000 0  650000 100000 0  700000 100000 0  750000 100000 0  800000 100000 0  850000 100000 0  900000 100000 0  950000 100000 0  1000000 100000 0  0 150000 0  50000 150000 0  100000 150000 0  150000 150000 0  200000 150000 0  250000 150000 0  300000 150000 0  350000 150000 0  400000 150000 0  450000 150000 0  500000 150000 0  550000 150000 0  600000 150000 0  650000 150000 0  700000 150000 0  750000 150000 0  800000 150000 0  850000 150000 0  900000 150000 0  950000 150000 0  1000000 150000 0  0 200000 0  50000 200000 0  100000 200000 0  150000 200000 0  200000 200000 0  250000 200000 0  300000 200000 0  350000 200000 0  400000 200000 0  450000 200000 0  500000 200000 0  550000 200000 0  600000 200000 0  650000 200000 0  700000 200000 0  750000 200000 0  800000 200000 0  850000 200000 0  900000 200000 0  950000 200000 0  1000000 200000 0  0 250000 0  50000 250000 0  100000 250000 0  150000 250000 0  200000 250000 0  250000 250000 0  300000 250000 0  350000 250000 0  400000 250000 0  450000 250000 0  500000 250000 0  550000 250000 0  600000 250000 0  650000 250000 0  700000 250000 0  750000 250000 0  800000 250000 0  850000 250000 0  900000 250000 0  950000 250000 0  1000000 250000 0  0 300000 0  50000 300000 0  100000 300000 0  150000 300000 0  200000 300000 0  250000 300000 0  300000 300000 0  350000 300000 0  400000 300000 0  450000 300000 0  500000 300000 0  550000 300000 0  600000 300000 0  650000 300000 0  700000 300000 0  750000 300000 0  800000 300000 0  850000 300000 0  900000 300000 0  950000 300000 0  1000000 300000 0  0 350000 0  50000 350000 0  100000 350000 0  150000 350000 0  200000 350000 0  250000 350000 0  300000 350000 0  350000 350000 0  400000 350000 0  450000 350000 0  500000 350000 0  550000 350000 0  600000 350000 0  650000 350000 0  700000 350000 0  750000 350000 0  800000 350000 0  850000 350000 0  900000 350000 0  950000 350000 0  1000000 350000 0  0 400000 0  50000 400000 0  100000 400000 0  150000 400000 0  200000 400000 0  250000 400000 0  300000 400000 0  350000 400000 0  400000 400000 0  450000 400000 0  500000 400000 0  550000 400000 0  600000 400000 0  650000 400000 0  700000 400000 0  750000 400000 0  800000 400000 0  850000 400000 0  900000 400000 0  950000 400000 0  1000000 400000 0  0 450000 0  50000 450000 0  100000 450000 0  150000 450000 0  200000 450000 0  250000 450000 0  300000 450000 0  350000 450000 0  400000 450000 0  450000 450000 0  500000 450000 0  550000 450000 0  600000 450000 0  650000 450000 0  700000 450000 0  750000 450000 0  800000 450000 0  850000 450000 0  900000 450000 0  950000 450000 0  1000000 450000 0  0 500000 0  50000 500000 0  100000 500000 0  150000 500000 0  200000 500000 0  250000 500000 0  300000 500000 0  350000 500000 0  400000 500000 0  450000 500000 0  500000 500000 0  550000 500000 0  600000 500000 0  650000 500000 0  700000 500000 0  750000 500000 0  800000 500000 0  850000 500000 0  900000 500000 0  950000 500000 0  1000000 500000 0  0 550000 0  50000 550000 0  100000 550000 0  150000 550000 0  200000 550000 0  250000 550000 0  300000 550000 0  350000 550000 0  400000 550000 0  450000 550000 0  500000 550000 0  550000 550000 0  600000 550000 0  650000 550000 0  700000 550000 0  750000 550000 0  800000 550000 0  850000 550000 0  900000 550000 0  950000 550000 0  1000000 550000 0  0 600000 0  50000 600000 0  100000 600000 0  150000 600000 0  200000 600000 0  250000 600000 0  300000 600000 0  350000 600000 0  400000 600000 0  450000 600000 0  500000 600000 0  550000 600000 0  600000 600000 0  650000 600000 0  700000 600000 0  750000 600000 0  800000 600000 0  850000 600000 0  900000 600000 0  950000 600000 0  1000000 600000 0  0 650000 0  50000 650000 0  100000 650000 0  150000 650000 0  200000 650000 0  250000 650000 0  300000 650000 0  350000 650000 0  400000 650000 0  450000 650000 0  500000 650000 0  550000 650000 0  600000 650000 0  650000 650000 0  700000 650000 0  750000 650000 0  800000 650000 0  850000 650000 0  900000 650000 0  950000 650000 0  1000000 650000 0  0 700000 0  50000 700000 0  100000 700000 0  150000 700000 0  200000 700000 0  250000 700000 0  300000 700000 0  350000 700000 0  400000 700000 0  450000 700000 0  500000 700000 0  550000 700000 0  600000 700000 0  650000 700000 0  700000 700000 0  750000 700000 0  800000 700000 0  850000 700000 0  900000 700000 0  950000 700000 0  1000000 700000 0  0 750000 0  50000 750000 0  100000 750000 0  150000 750000 0  200000 750000 0  250000 750000 0  300000 750000 0  350000 750000 0  400000 750000 0  450000 750000 0  500000 750000 0  550000 750000 0  600000 750000 0  650000 750000 0  700000 750000 0  750000 750000 0  800000 750000 0  850000 750000 0  900000 750000 0  950000 750000 0  1000000 750000 0  0 800000 0  50000 800000 0  100000 800000 0  150000 800000 0  200000 800000 0  250000 800000 0  300000 800000 0  350000 800000 0  400000 800000 0  450000 800000 0  500000 800000 0  550000 800000 0  600000 800000 0  650000 800000 0  700000 800000 0  750000 800000 0  800000 800000 0  850000 800000 0  900000 800000 0  950000 800000 0  1000000 800000 0  0 850000 0  50000 850000 0  100000 850000 0  150000 850000 0  200000 850000 0  250000 850000 0  300000 850000 0  350000 850000 0  400000 850000 0  450000 850000 0  500000 850000 0  550000 850000 0  600000 850000 0  650000 850000 0  700000 850000 0  750000 850000 0  800000 850000 0  850000 850000 0  900000 850000 0  950000 850000 0  1000000 850000 0  0 900000 0  50000 900000 0  100000 900000 0  150000 900000 0  200000 900000 0  250000 900000 0  300000 900000 0  350000 900000 0  400000 900000 0  450000 900000 0  500000 900000 0  550000 900000 0  600000 900000 0  650000 900000 0  700000 900000 0  750000 900000 0  800000 900000 0  850000 900000 0  900000 900000 0  950000 900000 0  1000000 900000 0  0 950000 0  50000 950000 0  100000 950000 0  150000 950000 0  200000 950000 0  250000 950000 0  300000 950000 0  350000 950000 0  400000 950000 0  450000 950000 0  500000 950000 0  550000 950000 0  600000 950000 0  650000 950000 0  700000 950000 0  750000 950000 0  800000 950000 0  850000 950000 0  900000 950000 0  950000 950000 0  1000000 950000 0  0 1000000 0  50000 1000000 0  100000 1000000 0  150000 1000000 0  200000 1000000 0  250000 1000000 0  300000 1000000 0  350000 1000000 0  400000 1000000 0  450000 1000000 0  500000 1000000 0  550000 1000000 0  600000 1000000 0  650000 1000000 0  700000 1000000 0  750000 1000000 0  800000 1000000 0  850000 1000000 0  900000 1000000 0  950000 1000000 0  1000000 1000000 0  0 1050000 0  50000 1050000 0  100000 1050000 0  150000 1050000 0  200000 1050000 0  250000 1050000 0  300000 1050000 0  350000 1050000 0  400000 1050000 0  450000 1050000 0  500000 1050000 0  550000 1050000 0  600000 1050000 0  650000 1050000 0  700000 1050000 0  750000 1050000 0  800000 1050000 0  850000 1050000 0  900000 1050000 0  950000 1050000 0  1000000 1050000 0  0 1100000 0  50000 1100000 0  100000 1100000 0  150000 1100000 0  200000 1100000 0  250000 1100000 0  300000 1100000 0  350000 1100000 0  400000 1100000 0  450000 1100000 0  500000 1100000 0  550000 1100000 0  600000 1100000 0  650000 1100000 0  700000 1100000 0  750000 1100000 0  800000 1100000 0  850000 1100000 0  900000 1100000 0  950000 1100000 0  1000000 1100000 0  0 1150000 0  50000 1150000 0  100000 1150000 0  150000 1150000 0  200000 1150000 0  250000 1150000 0  300000 1150000 0  350000 1150000 0  400000 1150000 0  450000 1150000 0  500000 1150000 0  550000 1150000 0  600000 1150000 0  650000 1150000 0  700000 1150000 0  750000 1150000 0  800000 1150000 0  850000 1150000 0  900000 1150000 0  950000 1150000 0  1000000 1150000 0  0 1200000 0  50000 1200000 0  100000 1200000 0  150000 1200000 0  200000 1200000 0  250000 1200000 0  300000 1200000 0  350000 1200000 0  400000 1200000 0  450000 1200000 0  500000 1200000 0  550000 1200000 0  600000 1200000 0  650000 1200000 0  700000 1200000 0  750000 1200000 0  800000 1200000 0  850000 1200000 0  900000 1200000 0  950000 1200000 0  1000000 1200000 0  0 1250000 0  50000 1250000 0  100000 1250000 0  150000 1250000 0  200000 1250000 0  250000 1250000 0  300000 1250000 0  350000 1250000 0  400000 1250000 0  450000 1250000 0  500000 1250000 0  550000 1250000 0  600000 1250000 0  650000 1250000 0  700000 1250000 0  750000 1250000 0  800000 1250000 0  850000 1250000 0  900000 1250000 0  950000 1250000 0  1000000 1250000 0  0 1300000 0  50000 1300000 0  100000 1300000 0  150000 1300000 0  200000 1300000 0  250000 1300000 0  300000 1300000 0  350000 1300000 0  400000 1300000 0  450000 1300000 0  500000 1300000 0  550000 1300000 0  600000 1300000 0  650000 1300000 0  700000 1300000 0  750000 1300000 0  800000 1300000 0  850000 1300000 0  900000 1300000 0  950000 1300000 0  1000000 1300000 0  0 1350000 0  50000 1350000 0  100000 1350000 0  150000 1350000 0  200000 1350000 0  250000 1350000 0  300000 1350000 0  350000 1350000 0  400000 1350000 0  450000 1350000 0  500000 1350000 0  550000 1350000 0  600000 1350000 0  650000 1350000 0  700000 135
[...]
<PointData  Vectors="f_3007"> 
<DataArray  type="Float64"  Name="f_3007"  NumberOfComponents="3" format="ascii">-1.5263278034311437e-08 -8.4731423951979054e-09 0.0000000000000000e+00  6.3957190904202929e-08 -5.2956246080854351e-09 0.0000000000000000e+00  6.7260289674271152e-08 -1.4603626807295285e-09 0.0000000000000000e+00  7.1016270008555276e-08 -2.3051823302303274e-10 0.0000000000000000e+00  7.3835197735068108e-08 1.6617480130925970e-10 0.0000000000000000e+00  7.5670893780956197e-08 2.7467391364380726e-10 0.0000000000000000e+00  7.6825528680111060e-08 2.6517228426182921e-10 0.0000000000000000e+00  7.7533207286442753e-08 2.0703183680902969e-10 0.0000000000000000e+00  7.7940787284090143e-08 1.3030940970083961e-10 0.0000000000000000e+00  7.8131849216195216e-08 4.7282413896390751e-11 0.0000000000000000e+00  7.8145238860235761e-08 -3.7742364885597721e-11 0.0000000000000000e+00  7.7984404867491442e-08 -1.2320953593077465e-10 0.0000000000000000e+00  7.7618605901474294e-08 -2.0655980525530081e-10 0.0000000000000000e+00  7.6976956430568328e-08 -2.7955520608406740e-10 0.0000000000000000e+00  7.5937590989047811e-08 -3.1904157902537803e-10 0.0000000000000000e+00  7.4324594152201890e-08 -2.6425839554333437e-10 0.0000000000000000e+00  7.1967499570355454e-08 4.3769766008522909e-11 0.0000000000000000e+00  6.8998581460185387e-08 1.0187645745835453e-09 0.0000000000000000e+00  6.6492689672671475e-08 3.6443905879692534e-09 0.0000000000000000e+00  6.5162422557305096e-08 8.5344488599676112e-09 0.0000000000000000e+00  -1.3287573322669994e-08 7.3097138406491107e-09 0.0000000000000000e+00  -1.0830607116837797e-08 -1.1661050900803684e-08 0.0000000000000000e+00  7.0431006536294613e-09 -1.7615127514230119e-08 0.0000000000000000e+00  2.0788748807500551e-08 -1.2396851935092417e-08 0.0000000000000000e+00  3.1590632274090395e-08 -8.3353035967123565e-09 0.0000000000000000e+00  3.9552749844097210e-08 -5.6149832132814185e-09 0.0000000000000000e+00  4.5302378235717072e-08 -3.7865668956715048e-09 0.0000000000000000e+00  4.9356266991503000e-08 -2.5343351736494989e-09 0.0000000000000000e+00  5.2129366876682066e-08 -1.6512230133955588e-09 0.0000000000000000e+00  5.3919565997150167e-08 -9.9912773974465959e-10 0.0000000000000000e+00  5.4921511837056018e-08 -4.8189853639862412e-10 0.0000000000000000e+00  5.5244525270805883e-08 -2.7385431699940451e-11 0.0000000000000000e+00  5.4924854236977058e-08 4.2585401960981498e-10 0.0000000000000000e+00  5.3930399179928134e-08 9.3999447930322098e-10 0.0000000000000000e+00  5.2158083791448746e-08 1.5903669771770598e-09 0.0000000000000000e+00  4.9425119860653378e-08 2.4827893355839935e-09 0.0000000000000000e+00  4.5458125175338632e-08 3.7824115937352716e-09 0.0000000000000000e+00  3.9889847178818776e-08 5.7645094629581390e-09 0.0000000000000000e+00  3.2268215522092415e-08 8.8848704051502944e-09 0.0000000000000000e+00  2.1963363913003261e-08 1.3698978612546324e-08 0.0000000000000000e+00  7.5734919064348240e-09 1.9460509943652474e-08 0.0000000000000000e+00  -1.2961499287220863e-08 9.9582520989691227e-09 0.0000000000000000e+00  -5.0483174535755248e-09 -1.1507020632112584e-08 0.0000000000000000e+00  -2.9334471704812566e-09 -2.5805594432282880e-08 0.0000000000000000e+00  1.7742032768787387e-09 -2.2421196428046011e-08 0.0000000000000000e+00  9.1371141711752895e-09 -1.7106463120396452e-08 0.0000000000000000e+00  1.6603192043006200e-08 -1.2508896228521220e-08 0.0000000000000000e+00  2.2824202555904151e-08 -8.9544895828193454e-09 0.0000000000000000e+00  2.7614929583892388e-08 -6.2666532963178405e-09 0.0000000000000000e+00  3.1100639905346304e-08 -4.2136385876704647e-09 0.0000000000000000e+00  3.3449675723693248e-08 -2.5922974934274858e-09 0.0000000000000000e+00  3.4801719991191314e-08 -1.2362366575442870e-09 0.0000000000000000e+00  3.5245584635886159e-08 -5.7847496422589758e-12 0.0000000000000000e+00  3.4812995315972377e-08 1.2255970782471576e-09 0.0000000000000000e+00  3.3478053672091782e-08 2.5854686804764528e-09 0.0000000000000000e+00  3.1160159513152058e-08 4.2173470770617915e-09 0.0000000000000000e+00  2.7733839759461665e-08 6.2968537163015484e-09 0.0000000000000000e+00  2.3057008937931602e-08 9.0456836066966893e-09 0.0000000000000000e+00  1.7045043268151882e-08 1.2721482940703236e-08 0.0000000000000000e+00  9.8495472476412160e-09 1.7483425440693976e-08 0.0000000000000000e+00  2.2531522551628942e-09 2.2742125832915234e-08 0.0000000000000000e+00  -3.7149268038303172e-09 2.4827994148601595e-08 0.0000000000000000e+00  -7.3926532453426091e-09 1.0518962243750886e-08 0.0000000000000000e+00  -2.1346189283880982e-09 -9.1620458245998230e-09 0.0000000000000000e+00  -4.1049791957970128e-09 -2.5206962356128908e-08 0.0000000000000000e+00  -4.3906611470136569e-09 -2.6837449843543772e-08 0.0000000000000000e+00  -1.6217694933426206e-09 -2.3047241032387600e-08 0.0000000000000000e+00  2.8160281004736366e-09 -1.8265080050971979e-08 0.0000000000000000e+00  7.4333595013639777e-09 -1.3839687500297859e-08 0.0000000000000000e+00  1.1466544691766831e-08 -1.0091611697529129e-08 0.0000000000000000e+00  1.4638614354269410e-08 -6.9854747215605339e-09 0.0000000000000000e+00  1.6886546818334798e-08 -4.3777412907746993e-09 0.0000000000000000e+00  1.8221212190358138e-08 -2.1002344323280547e-09 0.0000000000000000e+00  1.8666809848873414e-08 1.4877887266173534e-11 0.0000000000000000e+00  1.8235344515311007e-08 2.1319586786188252e-09 0.0000000000000000e+00  1.6920012298411301e-08 4.4160405882190863e-09 0.0000000000000000e+00  1.4703672847656190e-08 7.0370117771503077e-09 0.0000000000000000e+00  1.1586414251517105e-08 1.0165977815653957e-08 0.0000000000000000e+00  7.6446713145242586e-09 1.3945830051534452e-08 0.0000000000000000e+00  3.1442653186611848e-09 1.8387564590452753e-08 0.0000000000000000e+00  -1.2698213637058996e-09 2.3067668998877588e-08 0.0000000000000000e+00  -4.3621984303116133e-09 2.6372453432986572e-08 0.0000000000000000e+00  -4.6276489116741860e-09 2.4184757259938576e-08 0.0000000000000000e+00  -3.2868604094103620e-09 9.8101866834249067e-09 0.0000000000000000e+00  -8.5744789100615580e-10 -6.8820977133872388e-09 0.0000000000000000e+00  -3.6921555179793658e-09 -2.2241172816244771e-08 0.0000000000000000e+00  -6.0085679989866176e-09 -2.6784784428501116e-08 0.0000000000000000e+00  -6.2600279240542154e-09 -2.5413222898193858e-08 0.0000000000000000e+00  -4.7167299495728399e-09 -2.1641723381061849e-08 0.0000000000000000e+00  -2.2823058976969390e-09 -1.7288498766491399e-08 0.0000000000000000e+00  2.8778041719733778e-10 -1.3106285802085395e-08 0.0000000000000000e+00  2.5431979281854488e-09 -9.3299086497974364e-09 0.0000000000000000e+00  4.2523671090495819e-09 -5.9587075571097415e-09 0.0000000000000000e+00  5.3084392964758645e-09 -2.8897192580557416e-09 0.0000000000000000e+00  5.6686198740896995e-09 2.1730802231331647e-11 0.0000000000000000e+00  5.3229679580859730e-09 2.9347706342669238e-09 0.0000000000000000e+00  4.2851660987963397e-09 6.0085535674644862e-09 0.0000000000000000e+00  2.6024840530644866e-09 9.3873082575816031e-09 0.0000000000000000e+00  3.8649601253360176e-10 1.3170722685877306e-08 0.0000000000000000e+00  -2.1319512601922658e-09 1.7346416511428712e-08 0.0000000000000000e+00  -4.5263126606535592e-09 2.1641951249400378e-08 0.0000000000000000e+00  -6.1128540996862997e-09 2.5231523777522360e-08 0.0000000000000000e+00  -6.0457457160748953e-09 2.6271874814113079e-08 0.0000000000000000e+00  -3.9438378042797738e-09 2.1582548826798350e-08 0.0000000000000000e+00  -1.4273842285890122e-09 8.0754881277751463e-09 0.0000000000000000e+00  -2.7585854813324761e-10 -5.1004293778482990e-09 0.0000000000000000e+00  -3.0664594931363531e-09 -1.8889675957639914e-08 0.0000000000000000e+00  -6.0426016017554686e-09 -2.4652479549421153e-08 0.0000000000000000e+00  -7.9450479610307336e-09 -2.5135686021606388e-08 0.0000000000000000e+00  -8.4613191990886848e-09 -2.2692314558173129e-08 0.0000000000000000e+00  -7.9461151009425830e-09 -1.8970977441476786e-08 0.0000000000000000e+00  -6.9043928461978449e-09 -1.4887661468864169e-08 0.0000000000000000e+00  -5.7521887167765155e-09 -1.0871138069135765e-08 0.0000000000000000e+00  -4.7688830410489681e-09 -7.0662354784877628e-09 0.0000000000000000e+00  -4.1204733515884277e-09 -3.4641902000109377e-09 0.0000000000000000e+00  -3.8915638503896949e-09 2.0930965015645705e-11 0.0000000000000000e+00  -4.1071572124428847e-09 3.5066943181011736e-09 0.0000000000000000e+00  -4.7400809129101262e-09 7.1101798130610949e-09 0.0000000000000000e+00  -5.7037246576206984e-09 1.0915230506762717e-08 0.0000000000000000e+00  -6.8314510241463169e-09 1.4924703291080881e-08 0.0000000000000000e+00  -7.8485606229925557e-09 1.8979895865974571e-08 0.0000000000000000e+00  -8.3563241416149384e-09 2.2627088062701210e-08 0.0000000000000000e+00  -7.8787507680239559e-09 2.4926295214279201e-08 0.0000000000000000e+00  -6.0688170671580197e-09 2.4273597409646504e-08 0.0000000000000000e+00  -3.1792741690252405e-09 1.8505691087870071e-08 0.0000000000000000e+00  -5.6455117054952847e-10 6.2313915149885859e-09 0.0000000000000000e+00  3.9027179045550596e-13 -3.7799250268181854e-09 0.0000000000000000e+00  -2.5084347243212070e-09 -1.5729227221858510e-08 0.0000000000000000e+00  -5.5614451302028827e-09 -2.1716811364120112e-08 0.0000000000000000e+00  -8.2426943289617289e-09 -2.3312013075784671e-08 0.0000000000000000e+00  -1.0028282451254124e-08 -2.2013640690065403e-08 0.0000000000000000e+00  -1.0913830767473253e-08 -1.9098394377328769e-08 0.0000000000000000e+00  -1.1143373781208115e-08 -1.5433508031631241e-08 0.0000000000000000e+00  -1.1005927909050140e-08 -1.1521950392558155e-08 0.0000000000000000e+00  -1.0741996906843639e-08 -7.6067344414802684e-09 0.0000000000000000e+00  -1.0518360192167426e-08 -3.7657096580073711e-09 0.0000000000000000e+00  -1.0429949296956040e-08 1.7191465675437396e-11 0.0000000000000000e+00  -1.0506995546988797e-08 3.7998009411658305e-09 0.0000000000000000e+00  -1.0718314773740711e-08 7.6392640746442933e-09 0.0000000000000000e+00  -1.0968469313002101e-08 1.1549183235230059e-08 0.0000000000000000e+00  -1.1091593359496825e-08 1.5446345813497221e-08 0.0000000000000000e+00  -1.0851439090976189e-08 1.9078424672503503e-08 0.0000000000000000e+00  -9.9684454464155874e-09 2.1931330745281505e-08 0.0000000000000000e+00  -8.2091162053534400e-09 2.3138048720073208e-08 0.0000000000000000e+00  -5.5732652210487537e-09 2.1462894805793548e-08 0.0000000000000000e+00  -2.5548912627592147e-09 1.5508453959220983e-08 0.0000000000000000e+00  -1.4730582599977841e-10 4.6988726590092446e-09 0.0000000000000000e+00  1.3222072915273144e-10 -2.8067430969034803e-09 0.0000000000000000e+00  -2.0555311891778825e-09 -1.2912391688675063e-08 0.0000000000000000e+00  -4.9465467184785381e-09 -1.8578005608289281e-08 0.0000000000000000e+00  -7.9052909862406301e-09 -2.0706786165630341e-08 0.0000000000000000e+00  -1.0376822092208950e-08 -2.0232708383678962e-08 0.0000000000000000e+00  -1.2163732971382901e-08 -1.8076935373033988e-08 0.0000000000000000e+00  -1.3312833885445593e-08 -1.4963873779353691e-08 0.0000000000000000e+00  -1.3975138093786249e-08 -1.1381450534403864e-08 0.0000000000000000e+00  -1.4314221843926382e-08 -7.6147513765577800e-09 0.0000000000000000e+00  -1.4461328136207022e-08 -3.8015405502380335e-09 0.0000000000000000e+00  -1.4498146890571771e-08 1.2671350170407682e-11 0.0000000000000000e+00  -1.4452046413521744e-08 3.8259418363198441e-09 0.0000000000000000e+00  -1.4295456567340840e-08 7.6357089899410069e-09 0.0000000000000000e+00  -1.3946900971722363e-08 1.1394465864175437e-08 0.0000000000000000e+00  -1.3276363796806096e-08 1.4960853019735166e-08 0.0000000000000000e+00  -1.2123291740966627e-08 1.8045060364687441e-08 0.0000000000000000e+00  -1.0341461223603014e-08 2.0156226008632528e-08 0.0000000000000000e+00  -7.8870404806697332e-09 2.0576649084019365e-08 0.0000000000000000e+00  -4.9501950355005204e-09 1.8412189576259318e-08 0.0000000000000000e+00  -2.0706500733891490e-09 1.2784595492756757e-08 0.0000000000000000e+00  5.8474678119813899e-11 3.5200453634943299e-09 0.0000000000000000e+00  1.9187720200649253e-10 -2.0826138822777498e-09 0.0000000000000000e+00  -1.6950308082434495e-09 -1.0455123597680550e-08 0.0000000000000000e+00  -4.3341659892139951e-09 -1.5517148965766658e-08 0.0000000000000000e+00  -7.2957007344802001e-09 -1.7787628422982126e-08 0.0000000000000000e+00  -1.0066253734149714e-08 -1.7838027434099485e-08 0.0000000000000000e+00  -1.2361984613706840e-08 -1.6308566334514607e-08 0.0000000000000000e+00  -1.4102296803239985e-08 -1.3763840133519567e-08 0.0000000000000000e+00  -1.5324340563587508e-08 -1.0630154763363226e-08 0.0000000000000000e+00  -1.6110609452017897e-08 -7.1915571546468379e-09 0.0000000000000000e+00  -1.6542991283639790e-08 -3.6158023355338293e-09 0.0000000000000000e+00  -1.6678021491470190e-08 8.3187663652102024e-12 0.0000000000000000e+00  -1.6535627926767795e-08 3.6311904718967996e-09 0.0000000000000000e+00  -1.6096078367327282e-08 7.2027678656116995e-09 0.0000000000000000e+00  -1.5303337343920840e-08 1.0632994197049193e-08 0.0000000000000000e+00  -1.4076659552018318e-08 1.3752214552436068e-08 0.0000000000000000e+00  -1.2335570765560672e-08 1.6274667529961431e-08 0.0000000000000000e+00  -1.0045212010327328e-08 1.7774657106084800e-08 0.0000000000000000e+00  -7.2858970252729652e-09 1.7694262227570863e-08 0.0000000000000000e+00  -4.3340402330946324e-09 1.5409668476852326e-08 0.0000000000000000e+00  -1.6952688515007684e-09 1.0380766601832594e-08 0.0000000000000000e+00  1.5825243436846721e-10 2.6311425928789627e-09 0.0000000000000000e+00  2.1456250836252807e-10 -1.5360116039431010e-09 0.0000000000000000e+00  -1.4082800701585855e-09 -8.3290758628333415e-09 0.0000000000000000e+00  -3.7739151398053015e-09 -1.2660341634847240e-08 0.0000000000000000e+00  -6.5973675173630463e-09 -1.4825109229840736e-08 0.0000000000000000e+00  -9.4287154310227123e-09 -1.5165566917930474e-08 0.0000000000000000e+00  -1.1957328505490088e-08 -1.4115787267026565e-08 0.0000000000000000e+00  -1.4029240491947352e-08 -1.2097293599438720e-08 0.0000000000000000e+00  -1.5599868858247298e-08 -9.4588871093757441e-09 0.0000000000000000e+00  -1.6682975724677066e-08 -6.4574291190131962e-09 0.0000000000000000e+00  -1.7312160370592940e-08 -3.2657544282543614e-09 0.0000000000000000e+00  -1.7516296049115342e-08 4.5441246562476129e-12 0.0000000000000000e+00  -1.7306459523722106e-08 3.2735604526851509e-09 0.0000000000000000e+00  -1.6671950196730475e-08 6.4611551211878961e-09 0.0000000000000000e+00  -1.5584474386839055e-08 9.4551126399094616e-09 0.0000000000000000e+00  -1.4011391424352777e-08 1.2081882728553007e-08 0.0000000000000000e+00  -1.1940254575320663e-08 1.4084484071520412e-08 0.0000000000000000e+00  -9.4165645198553831e-09 1.5115836627588586e-08 0.0000000000000000e+00  -6.5925985029643143e-09 1.4759536368954387e-08 0.0000000000000000e+00  -3.7722392453825421e-09 1.2591054407300343e-08 0.0000000000000000e+00  -1.4016495412850905e-09 8.2861659987465588e-09 0.0000000000000000e+00  2.0284490903659044e-10 1.9598292068232561e-09 0.0000000000000000e+00  2.1863800902146566e-10 -1.1165763646755549e-09 0.0000000000000000e+00  -1.1805686296182680e-09 -6.4922563971400100e-09 0.0000000000000000e+00  -3.2851528021254584e-09 -1.0052856764653403e-08 0.0000000000000000e+00  -5.9100505958691999e-09 -1.1964776219485314e-08 0.0000000000000000e+00  -8.6689345737802527e-09 -1.2427042991587374e-08 0.0000000000000000e+00  -1.1254289715333143e-08 -1.1727825287493383e-08 0.0000000000000000e+00  -1.3474841098993107e-08 -1.0171880224314107e-08 0.0000000000000000e+00  -1.5232684177000862e-08 -8.0312120318028949e-09 0.0000000000000000e+00  -1.6490061958909493e-08 -5.5226089720996400e-09 0.0000000000000000e+00  -1.7240529132237765e-08 -2.8062952257523181e-09 0.0000000000000000e+00  -1.7488305206886254e-08 1.4918987906731854e-12 0.0000000000000000e+00  -1.7236234606174018e-08 2.8081311598670085e-09 0.0000000000000000e+00  -1.6481903434409109e-08 5.5209171246832179e-09 0.0000000000000000e+00  -1.5221649430943665e-08 8.0234361052873502e-09 0.0000000000000000e+00  -1.3462676754558103e-08 1.0155442313560886e-08 0.0000000000000000e+00  -1.1243566112443320e-08 1.1700733808904915e-08 0.0000000000000000e+00  -8.6623865834364817e-09 1.2389121650224094e-08 0.0000000000000000e+00  -5.9082575604002329e-09 1.1919388422674950e-08 0.0000000000000000e+00  -3.2829660180149265e-09 1.0008662539104969e-08 0.0000000000000000e+00  -1.1712854845420902e-09 6.4683100002121842e-09 0.0000000000000000e+00  2.1842064066003325e-10 1.4478131754446939e-09 0.0000000000000000e+00  2.1422449398521881e-10 -7.8827945954404116e-10 0.0000000000000000e+00  -1.0021301242217171e-09 -4.8986614310448802e-09 0.0000000000000000e+00  -2.8768842445469274e-09 -7.6947708613886104e-09 0.0000000000000000e+00  -5.2926628217148037e-09 -9.2720959406828148e-09 0.0000000000000000e+00  -7.9181811249012764e-09 -9.7418666031533921e-09 0.0000000000000000e+00  -1.0461657470341442e-08 -9.2908504754247475e-09 0.0000000000000000e+00  -1.2716243567270516e-08 -8.1324132683315928e-09 0.0000000000000000e+00  -1.4551991461951370e-08 -6.4693569459597392e-09 0.0000000000000000e+00  -1.5895763308477180e-08 -4.4737727732824827e-09 0.0000000000000000e+00  -1.6711263491632862e-08 -2.2820090492695037e-09 0.0000000000000000e+00  -1.6983331401592727e-08 -8.3753431559114652e-13 0.0000000000000000e+00  -1.6708144482860260e-08 2.2793910604925700e-09 0.0000000000000000e+00  -1.5889933759190125e-08 4.4683373508097204e-09 0.0000000000000000e+00  -1.4544340127350100e-08 6.4593188303251940e-09 0.0000000000000000e+00  -1.2708227191201252e-08 8.1163178857934891e-09 0.0000000000000000e+00  -1.0455218259478520e-08 9.2680666365476241e-09 0.0000000000000000e+00  -7.9150550772498409e-09 9.7133237247384274e-09 0.0000000000000000e+00  -5.2924851647804440e-09 9.2410202634204947e-09 0.0000000000000000e+00  -2.8747068792464596e-09 7.6671102337960245e-09 0.0000000000000000e+00  -9.9262955713277467e-10 4.8863514579477087e-09 0.0000000000000000e+00  2.1926466302784301e-10 1.0517154994937009e-09 0.0000000000000000e+00  2.0713164690546813e-10 -5.2424989782192332e-10 0.0000000000000000e+00  -8.6701309235689337e-10 -3.5009234239978936e-09 0.0000000000000000e+00  -2.5544429495897360e-09 -5.5592018619357854e-09 0.0000000000000000e+00  -4.7823480160361753e-09 -6.7604502415457603e-09 0.0000000000000000e+00  -7.2628431125465075e-09 -7.1635066947938365e-09 0.0000000000000000e+00  -9.7227911945482644e-09 -6.8849625336544782e-09 0.0000000000000000e+00  -1.1951461088875108e-08 -6.0674763608987683e-09 0.0000000000000000e+00  -1.3801205208787113e-08 -4.8537353385554756e-09 0.0000000000000000e+00  -1.5176344862454499e-08 -3.3708130524376785e-09 0.0000000000000000e+00  -1.6020145508245319e-08 -1.7246315054641005e-09 0.0000000000000000e+00  -1.6303598339859115e-08 -2.5133973737808859e-12 0.0000000000000000e+00  -1.6018002084982017e-08 1.7188695375017707e-09 0.0000000000000000e+00  -1.5172396406431924e-08 3.3629104605229815e-09 0.0000000000000000e+00  -1.3796164013755199e-08 4.8425146215783205e-09 0.0000000000000000e+00  -1.1946436241469156e-08 6.0522414992192716e-09 0.0000000000000000e+00  -9.7191560429122022e-09 6.8658633943762872e-09 0.0000000000000000e+00  -7.2616420386872414e-09 7.1419368985319423e-09 0.0000000000000000e+00  -4.7828748147531876e-09 6.7392260068752201e-09 0.0000000000000000e+00  -2.5525794225830259e-09 5.5423256883063385e-09 0.0000000000000000e+00  -8.5880795795891940e-10 3.4957691548780970e-09 0.0000000000000000e+00  2.1356644401626613e-10 7.3932649420623714e-10 0.0000000000000000e+00  2.0074807440487225e-10 -3.0328698759909641e-10 0.0000000000000000e+00  -7.7178732884669079e-10 -2.2509214490215913e-09 0.0000000000000000e+00  -2.3215028996025389e-09 -3.6024714739483552e-09 0.0000000000000000e+00  -4.4031541984261161e-09 -4.4091829228046535e-09 0.0000000000000000e+00  -6.7597730997361057e-09 -4.6996930364477223e-09 0.0000000000000000e+00  -9.1344197849978991e-09 -4.5412228825671312e-09 0.0000000000000000e+00  -1.1317592102744233e-08 -4.020