<?xml version="1.0"?>
<VTKFile type="UnstructuredGrid"  version="0.1"  >
<UnstructuredGrid>
<Piece  NumberOfPoints="651" NumberOfCells="1200">
<Points>
<DataArray  type="Float64"  NumberOfComponents="3"  format="ascii">0 0 0  50000 0 0  100000 0 0  150000 0 0  200000 0 0  250000 0 0  300000 0 0  350000 0 0  400000 0 0  450000 0 0  500000 0 0  550000 0 0  600000 0 0  650000 0 0  700000 0 0  750000 0 0  800000 0 0  850000 0 0  900000 0 0  950000 0 0  1000000 0 0  0 50000 0  50000 50000 0  100000 50000 0  150000 50000 0  200000 50000 0  250000 50000 0  300000 50000 0  350000 50000 0  400000 50000 0  450000 50000 0  500000 50000 0  550000 50000 0  600000 50000 0  650000 50000 0  700000 50000 0  750000 50000 0  800000 50000 0  850000 50000 0  900000 50000 0  950000 50000 0  1000000 50000 0  0 100000 0  50000 100000 0  100000 100000 0  150000 100000 0  200000 100000 0  250000 100000 0  300000 100000 0  350000 100000 0  400000 100000 0  450000 100000 0  500000 100000 0  550000 100000 0  600000 100000 0  650000 100000 0  700000 100000 0  750000 100000 0  800000 100000 0  850000 100000 0  900000 100000 0  950000 100000 0  1000000 100000 0  0 150000 0  50000 150000 0  100000 150000 0  150000 150000 0  200000 150000 0  250000 150000 0  300000 150000 0  350000 150000 0  400000 150000 0  450000 150000 0  500000 150000 0  550000 150000 0  600000 150000 0  650000 150000 0  700000 150000 0  750000 150000 0  800000 150000 0  850000 150000 0  900000 150000 0  950000 150000 0  1000000 150000 0  0 200000 0  50000 200000 0  100000 200000 0  150000 200000 0  200000 200000 0  250000 200000 0  300000 200000 0  350000 200000 0  400000 200000 0  450000 200000 0  500000 200000 0  550000 200000 0  600000 200000 0  650000 200000 0  700000 200000 0  750000 200000 0  800000 200000 0  850000 200000 0  900000 200000 0  950000 200000 0  1000000 200000 0  0 250000 0  50000 250000 0  100000 250000 0  150000 250000 0  200000 250000 0  250000 250000 0  300000 250000 0  350000 250000 0  400000 250000 0  450000 250000 0  500000 250000 0  550000 250000 0  600000 250000 0  650000 250000 0  700000 250000 0  750000 250000 0  800000 250000 0  850000 250000 0  900000 250000 0  950000 250000 0  1000000 250000 0  0 300000 0  50000 300000 0  100000 300000 0  150000 300000 0  200000 300000 0  250000 300000 0  300000 300000 0  350000 300000 0  400000 300000 0  450000 300000 0  500000 300000 0  550000 300000 0  600000 300000 0  650000 300000 0  700000 300000 0  750000 300000 0  800000 300000 0  850000 300000 0  900000 300000 0  950000 300000 0  1000000 300000 0  0 350000 0  50000 350000 0  100000 350000 0  150000 350000 0  200000 350000 0  250000 350000 0  300000 350000 0  350000 350000 0  400000 350000 0  450000 350000 0  500000 350000 0  550000 350000 0  600000 350000 0  650000 350000 0  700000 350000 0  750000 350000 0  800000 350000 0  850000 350000 0  900000 350000 0  950000 350000 0  1000000 350000 0  0 400000 0  50000 400000 0  100000 400000 0  150000 400000 0  200000 400000 0  250000 400000 0  300000 400000 0  350000 400000 0  400000 400000 0  450000 400000 0  500000 400000 0  550000 400000 0  600000 400000 0  650000 400000 0  700000 400000 0  750000 400000 0  800000 400000 0  850000 400000 0  900000 400000 0  950000 400000 0  1000000 400000 0  0 450000 0  50000 450000 0  100000 450000 0  150000 450000 0  200000 450000 0  250000 450000 0  300000 450000 0  350000 450000 0  400000 450000 0  450000 450000 0  500000 450000 0  550000 450000 0  600000 450000 0  650000 450000 0  700000 450000 0  750000 450000 0  800000 450000 0  850000 450000 0  900000 450000 0  950000 450000 0  1000000 450000 0  0 500000 0  50000 500000 0  100000 500000 0  150000 500000 0  200000 500000 0  250000 500000 0  300000 500000 0  350000 500000 0  400000 500000 0  450000 500000 0  500000 500000 0  550000 500000 0  600000 500000 0  650000 500000 0  700000 500000 0  750000 500000 0  800000 500000 0  850000 500000 0  900000 500000 0  950000 500000 0  1000000 500000 0  0 550000 0  50000 550000 0  100000 550000 0  150000 550000 0  200000 550000 0  250000 550000 0  300000 550000 0  350000 550000 0  400000 550000 0  450000 550000 0  500000 550000 0  550000 550000 0  600000 550000 0  650000 550000 0  700000 550000 0  750000 550000 0  800000 550000 0  850000 550000 0  900000 550000 0  950000 550000 0  1000000 550000 0  0 600000 0  50000 600000 0  100000 600000 0  150000 600000 0  200000 600000 0  250000 600000 0  300000 600000 0  350000 600000 0  400000 600000 0  450000 600000 0  500000 600000 0  550000 600000 0  600000 600000 0  650000 600000 0  700000 600000 0  750000 600000 0  800000 600000 0  850000 600000 0  900000 600000 0  950000 600000 0  1000000 600000 0  0 650000 0  50000 650000 0  100000 650000 0  150000 650000 0  200000 650000 0  250000 650000 0  300000 650000 0  350000 650000 0  400000 650000 0  450000 650000 0  500000 650000 0  550000 650000 0  600000 650000 0  650000 650000 0  700000 650000 0  750000 650000 0  800000 650000 0  850000 650000 0  900000 650000 0  950000 650000 0  1000000 650000 0  0 700000 0  50000 700000 0  100000 700000 0  150000 700000 0  200000 700000 0  250000 700000 0  300000 700000 0  350000 700000 0  400000 700000 0  450000 700000 0  500000 700000 0  550000 700000 0  600000 700000 0  650000 700000 0  700000 700000 0  750000 700000 0  800000 700000 0  850000 700000 0  900000 700000 0  950000 700000 0  1000000 700000 0  0 750000 0  50000 750000 0  100000 750000 0  150000 750000 0  200000 750000 0  250000 750000 0  300000 750000 0  350000 750000 0  400000 750000 0  450000 750000 0  500000 750000 0  550000 750000 0  600000 750000 0  650000 750000 0  700000 750000 0  750000 750000 0  800000 750000 0  850000 750000 0  900000 750000 0  950000 750000 0  1000000 750000 0  0 800000 0  50000 800000 0  100000 800000 0  150000 800000 0  200000 800000 0  250000 800000 0  300000 800000 0  350000 800000 0  400000 800000 0  450000 800000 0  500000 800000 0  550000 800000 0  600000 800000 0  650000 800000 0  700000 800000 0  750000 800000 0  800000 800000 0  850000 800000 0  900000 800000 0  950000 800000 0  1000000 800000 0  0 850000 0  50000 850000 0  100000 850000 0  150000 850000 0  200000 850000 0  250000 850000 0  300000 850000 0  350000 850000 0  400000 850000 0  450000 850000 0  500000 850000 0  550000 850000 0  600000 850000 0  650000 850000 0  700000 850000 0  750000 850000 0  800000 850000 0  850000 850000 0  900000 850000 0  950000 850000 0  1000000 850000 0  0 900000 0  50000 900000 0  100000 900000 0  150000 900000 0  200000 900000 0  250000 900000 0  300000 900000 0  350000 900000 0  400000 900000 0  450000 900000 0  500000 900000 0  550000 900000 0  600000 900000 0  650000 900000 0  700000 900000 0  750000 900000 0  800000 900000 0  850000 900000 0  900000 900000 0  950000 900000 0  1000000 900000 0  0 950000 0  50000 950000 0  100000 950000 0  150000 950000 0  200000 950000 0  250000 950000 0  300000 950000 0  350000 950000 0  400000 950000 0  450000 950000 0  500000 950000 0  550000 950000 0  600000 950000 0  650000 950000 0  700000 950000 0  750000 950000 0  800000 950000 0  850000 950000 0  900000 950000 0  950000 950000 0  1000000 950000 0  0 1000000 0  50000 1000000 0  100000 1000000 0  150000 1000000 0  200000 1000000 0  250000 1000000 0  300000 1000000 0  350000 1000000 0  400000 1000000 0  450000 1000000 0  500000 1000000 0  550000 1000000 0  600000 1000000 0  650000 1000000 0  700000 1000000 0  750000 1000000 0  800000 1000000 0  850000 1000000 0  900000 1000000 0  950000 1000000 0  1000000 1000000 0  0 1050000 0  50000 1050000 0  100000 1050000 0  150000 1050000 0  200000 1050000 0  250000 1050000 0  300000 1050000 0  350000 1050000 0  400000 1050000 0  450000 1050000 0  500000 1050000 0  550000 1050000 0  600000 1050000 0  650000 1050000 0  700000 1050000 0  750000 1050000 0  800000 1050000 0  850000 1050000 0  900000 1050000 0  950000 1050000 0  1000000 1050000 0  0 1100000 0  50000 1100000 0  100000 1100000 0  150000 1100000 0  200000 1100000 0  250000 1100000 0  300000 1100000 0  350000 1100000 0  400000 1100000 0  450000 1100000 0  500000 1100000 0  550000 1100000 0  600000 1100000 0  650000 1100000 0  700000 1100000 0  750000 1100000 0  800000 1100000 0  850000 1100000 0  900000 1100000 0  950000 1100000 0  1000000 1100000 0  0 1150000 0  50000 1150000 0  100000 1150000 0  150000 1150000 0  200000 1150000 0  250000 1150000 0  300000 1150000 0  350000 1150000 0  400000 1150000 0  450000 1150000 0  500000 1150000 0  550000 1150000 0  600000 1150000 0  650000 1150000 0  700000 1150000 0  750000 1150000 0  800000 1150000 0  850000 1150000 0  900000 1150000 0  950000 1150000 0  1000000 1150000 0  0 1200000 0  50000 1200000 0  100000 1200000 0  150000 1200000 0  200000 1200000 0  250000 1200000 0  300000 1200000 0  350000 1200000 0  400000 1200000 0  450000 1200000 0  500000 1200000 0  550000 1200000 0  600000 1200000 0  650000 1200000 0  700000 1200000 0  750000 1200000 0  800000 1200000 0  850000 1200000 0  900000 1200000 0  950000 1200000 0  1000000 1200000 0  0 1250000 0  50000 1250000 0  100000 1250000 0  150000 1250000 0  200000 1250000 0  250000 1250000 0  300000 1250000 0  350000 1250000 0  400000 1250000 0  450000 1250000 0  500000 1250000 0  550000 1250000 0  600000 1250000 0  650000 1250000 0  700000 1250000 0  750000 1250000 0  800000 1250000 0  850000 1250000 0  900000 1250000 0  950000 1250000 0  1000000 1250000 0  0 1300000 0  50000 1300000 0  100000 1300000 0  150000 1300000 0  200000 1300000 0  250000 1300000 0  300000 1300000 0  350000 1300000 0  400000 1300000 0  450000 1300000 0  500000 1300000 0  550000 1300000 0  600000 1300000 0  650000 1300000 0  700000 1300000 0  750000 1300000 0  800000 1300000 0  850000 1300000 0  900000 1300000 0  950000 1300000 0  1000000 1300000 0  0 1350000 0  50000 1350000 0  100000 1350000 0  150000 1350000 0  200000 1350000 0  250000 1350000 0  300000 1350000 0  350000 1350000 0  400000 1350000 0  450000 1350000 0  500000 1350000 0  550000 1350000 0  600000 1350000 0  650000 1350000 0  700000 135
[...]
<PointData  Vectors="f_3007"> 
<DataArray  type="Float64"  Name="f_3007"  NumberOfComponents="3" format="ascii">-1.5269235551987153e-08 -8.5107170380257773e-09 0.0000000000000000e+00  6.3952531879591792e-08 -5.3270494268168575e-09 0.0000000000000000e+00  6.7257003481678033e-08 -1.4889790634141676e-09 0.0000000000000000e+00  7.1005880731572121e-08 -2.5913810740118712e-10 0.0000000000000000e+00  7.3810096226041040e-08 1.3760328376451386e-10 0.0000000000000000e+00  7.5626967742746349e-08 2.4766465286466283e-10 0.0000000000000000e+00  7.6761923350906448e-08 2.4156579483359169e-10 0.0000000000000000e+00  7.7451947928824120e-08 1.8858765996740628e-10 0.0000000000000000e+00  7.7846195567951129e-08 1.1846721695711779e-10 0.0000000000000000e+00  7.8029796040980863e-08 4.2983759144919505e-11 0.0000000000000000e+00  7.8042395046147899e-08 -3.4159123677682082e-11 0.0000000000000000e+00  7.7887524287487333e-08 -1.1204838598555089e-10 0.0000000000000000e+00  7.7533820231630444e-08 -1.8874803108136454e-10 0.0000000000000000e+00  7.6909058376517609e-08 -2.5656085183363355e-10 0.0000000000000000e+00  7.5889317605853058e-08 -2.9270474274076448e-10 0.0000000000000000e+00  7.4296017780460870e-08 -2.3649030881143071e-10 0.0000000000000000e+00  7.1955824231449817e-08 7.1445486095499127e-11 0.0000000000000000e+00  6.8998739755348474e-08 1.0456230307214078e-09 0.0000000000000000e+00  6.6498676142469123e-08 3.6702687219837599e-09 0.0000000000000000e+00  6.5171089024205303e-08 8.5560431596742316e-09 0.0000000000000000e+00  -1.3279521064660763e-08 7.3223381248382936e-09 0.0000000000000000e+00  -1.0831968918519908e-08 -1.1715512516448742e-08 0.0000000000000000e+00  6.9432696612911995e-09 -1.7592727663156983e-08 0.0000000000000000e+00  2.0634327281649542e-08 -1.2359713708946801e-08 0.0000000000000000e+00  3.1338461335279116e-08 -8.2623292496956998e-09 0.0000000000000000e+00  3.9161614977168263e-08 -5.5225578709651190e-09 0.0000000000000000e+00  4.4758757235107093e-08 -3.6887065952872157e-09 0.0000000000000000e+00  4.8663463125037338e-08 -2.4414924919607855e-09 0.0000000000000000e+00  5.1303990533609162e-08 -1.5727050881830704e-09 0.0000000000000000e+00  5.2990276495491863e-08 -9.4241159111480155e-10 0.0000000000000000e+00  5.3926064715544955e-08 -4.5218938615353414e-10 0.0000000000000000e+00  5.4226212642296058e-08 -2.7488578769401636e-11 0.0000000000000000e+00  5.3928832548262965e-08 3.9554255169773082e-10 0.0000000000000000e+00  5.3000001078887582e-08 8.8146101999895358e-10 0.0000000000000000e+00  5.1331160613215044e-08 1.5079170316437343e-09 0.0000000000000000e+00  4.8730532432469405e-08 2.3829039769858656e-09 0.0000000000000000e+00  4.4912739337049980e-08 3.6734895588872857e-09 0.0000000000000000e+00  3.9497032407043307e-08 5.6564364522352402e-09 0.0000000000000000e+00  3.2019104424272547e-08 8.7889404725051825e-09 0.0000000000000000e+00  2.1839760545263006e-08 1.3623131964232685e-08 0.0000000000000000e+00  7.5277293655666328e-09 1.9386131430641229e-08 0.0000000000000000e+00  -1.2953461250031475e-08 9.9855642490008189e-09 0.0000000000000000e+00  -5.0425131225850644e-09 -1.1573813467784645e-08 0.0000000000000000e+00  -2.9586086744795119e-09 -2.5754810781050861e-08 0.0000000000000000e+00  1.6218263681795425e-09 -2.2255293183973657e-08 0.0000000000000000e+00  8.8190383493169052e-09 -1.6872791968295836e-08 0.0000000000000000e+00  1.6069541182328835e-08 -1.2226491290539035e-08 0.0000000000000000e+00  2.2053786004001091e-08 -8.6589910935173728e-09 0.0000000000000000e+00  2.6613935185481970e-08 -5.9891923956804993e-09 0.0000000000000000e+00  2.9896069225456736e-08 -3.9809579574324197e-09 0.0000000000000000e+00  3.2086022858482881e-08 -2.4253366085046355e-09 0.0000000000000000e+00  3.3336849601798325e-08 -1.1493650381969530e-09 0.0000000000000000e+00  3.3745646988834537e-08 -6.3664543763344038e-12 0.0000000000000000e+00  3.3346932287746865e-08 1.1373673706753483e-09 0.0000000000000000e+00  3.2112010024696450e-08 2.4165628987816340e-09 0.0000000000000000e+00  2.9951998077609243e-08 3.9817444297518463e-09 0.0000000000000000e+00  2.6728013552998893e-08 6.0151317096712818e-09 0.0000000000000000e+00  2.2280211028576959e-08 8.7441990485398543e-09 0.0000000000000000e+00  1.6503315053735605e-08 1.2430747350317492e-08 0.0000000000000000e+00  9.5274520323519156e-09 1.7236136384533066e-08 0.0000000000000000e+00  2.1137198917795564e-09 2.2563984223864572e-08 0.0000000000000000e+00  -3.7392493716141174e-09 2.4740021224843515e-08 0.0000000000000000e+00  -7.3873236159096089e-09 1.0571937035536573e-08 0.0000000000000000e+00  -2.1243947875393920e-09 -9.2184443548117895e-09 0.0000000000000000e+00  -4.1661072120533162e-09 -2.5058740414938167e-08 0.0000000000000000e+00  -4.5906719817928366e-09 -2.6508174220369075e-08 0.0000000000000000e+00  -2.0286402448956709e-09 -2.2591370880136529e-08 0.0000000000000000e+00  2.1566670585903762e-09 -1.7732976356982542e-08 0.0000000000000000e+00  6.5017887420478534e-09 -1.3289063779265464e-08 0.0000000000000000e+00  1.0269687325101707e-08 -9.5771384335175815e-09 0.0000000000000000e+00  1.3207994037546687e-08 -6.5550765743327082e-09 0.0000000000000000e+00  1.5273583687251985e-08 -4.0692005678280874e-09 0.0000000000000000e+00  1.6492384159860233e-08 -1.9395142546093798e-09 0.0000000000000000e+00  1.6897958343738881e-08 1.4575541339607318e-11 0.0000000000000000e+00  1.6505479784390154e-08 1.9705949090920622e-09 0.0000000000000000e+00  1.5304965414951243e-08 4.1067439006709149e-09 0.0000000000000000e+00  1.3269901388919332e-08 6.6056839051533450e-09 0.0000000000000000e+00  1.0385297878975391e-08 9.6503546623740761e-09 0.0000000000000000e+00  6.7077188111301454e-09 1.3393763047607754e-08 0.0000000000000000e+00  2.4797440314776386e-09 1.7854091941494483e-08 0.0000000000000000e+00  -1.6781742843132796e-09 2.2611288496709986e-08 0.0000000000000000e+00  -4.5554113647181898e-09 2.6045951699789641e-08 0.0000000000000000e+00  -4.6728718715509075e-09 2.4031772339955284e-08 0.0000000000000000e+00  -3.2801367166208701e-09 9.8714050890581918e-09 0.0000000000000000e+00  -8.4598573760877206e-10 -6.9161704223236264e-09 0.0000000000000000e+00  -3.7713134857270500e-09 -2.1985498036459317e-08 0.0000000000000000e+00  -6.2452243624151979e-09 -2.6271948759316212e-08 0.0000000000000000e+00  -6.7122166215521995e-09 -2.4716205512399972e-08 0.0000000000000000e+00  -5.4207559259516462e-09 -2.0840675258560973e-08 0.0000000000000000e+00  -3.2545120515306903e-09 -1.6465590144638130e-08 0.0000000000000000e+00  -9.4385213029706659e-10 -1.2340598312437252e-08 0.0000000000000000e+00  1.0835394827769755e-09 -8.6906473360210289e-09 0.0000000000000000e+00  2.6151394963066464e-09 -5.5009448952148236e-09 0.0000000000000000e+00  3.5585135787442896e-09 -2.6514970243372526e-09 0.0000000000000000e+00  3.8798653799782280e-09 2.1050251691392120e-11 0.0000000000000000e+00  3.5723094026923176e-09 2.6952347451019305e-09 0.0000000000000000e+00  2.6464708323427174e-09 5.5496236735426753e-09 0.0000000000000000e+00  1.1406320517026715e-09 8.7471369996600084e-09 0.0000000000000000e+00  -8.4800041803811265e-10 1.2404525049474399e-08 0.0000000000000000e+00  -3.1073729401902715e-09 1.6523671297240789e-08 0.0000000000000000e+00  -5.2327733904452204e-09 2.0842061646659788e-08 0.0000000000000000e+00  -6.5634993019956263e-09 2.4538203007981472e-08 0.0000000000000000e+00  -6.2767214131241397e-09 2.5763479597876916e-08 0.0000000000000000e+00  -4.0130469478178473e-09 2.1325537958860983e-08 0.0000000000000000e+00  -1.4175938115713033e-09 8.1249117200095635e-09 0.0000000000000000e+00  -2.6597469948472625e-10 -5.1090106504495426e-09 0.0000000000000000e+00  -3.1444519780792055e-09 -1.8519830323752670e-08 0.0000000000000000e+00  -6.2628766129587669e-09 -2.3960651574307367e-08 0.0000000000000000e+00  -8.3562840723714331e-09 -2.4213784879655543e-08 0.0000000000000000e+00  -9.0918800494454402e-09 -2.1641789699962863e-08 0.0000000000000000e+00  -8.8058457451069843e-09 -1.7897619588725079e-08 0.0000000000000000e+00  -7.9843731795646059e-09 -1.3891721511519043e-08 0.0000000000000000e+00  -7.0250868477796582e-09 -1.0040800531612310e-08 0.0000000000000000e+00  -6.1917323842257931e-09 -6.4719718877484684e-09 0.0000000000000000e+00  -5.6383884270159292e-09 -3.1548838965381761e-09 0.0000000000000000e+00  -5.4421693253635383e-09 2.0339625784417024e-11 0.0000000000000000e+00  -5.6255204735563283e-09 3.1962911679280771e-09 0.0000000000000000e+00  -6.1638163899521776e-09 6.5150770265963925e-09 0.0000000000000000e+00  -6.9779168362185519e-09 1.0084482979887806e-08 0.0000000000000000e+00  -7.9130480682204487e-09 1.3928956885356327e-08 0.0000000000000000e+00  -8.7098951875225475e-09 1.7907520122610418e-08 0.0000000000000000e+00  -8.9874463539744644e-09 2.1578543975860426e-08 0.0000000000000000e+00  -8.2883741815051064e-09 2.4007095292539774e-08 0.0000000000000000e+00  -6.2845999710500140e-09 2.3584209488059678e-08 0.0000000000000000e+00  -3.2482333565872254e-09 1.8134249918249742e-08 0.0000000000000000e+00  -5.5343463458289489e-10 6.2581944294836978e-09 0.0000000000000000e+00  6.3752542952543521e-12 -3.7658165179312506e-09 0.0000000000000000e+00  -2.5707910562820437e-09 -1.5260509249868432e-08 0.0000000000000000e+00  -5.7304594229705615e-09 -2.0875998796876878e-08 0.0000000000000000e+00  -8.5522387715076855e-09 -2.2208228561827116e-08 0.0000000000000000e+00  -1.0496768381852938e-08 -2.0765357366638048e-08 0.0000000000000000e+00  -1.1546389770876747e-08 -1.7827940531799428e-08 0.0000000000000000e+00  -1.1932434628573242e-08 -1.4257142311939724e-08 0.0000000000000000e+00  -1.1931590474257566e-08 -1.0542177111334624e-08 0.0000000000000000e+00  -1.1773650307155072e-08 -6.9057880324055154e-09 0.0000000000000000e+00  -1.1617148622803171e-08 -3.4008258080809326e-09 0.0000000000000000e+00  -1.1551796738232531e-08 1.6743508411329076e-11 0.0000000000000000e+00  -1.1606032557059917e-08 3.4341175558750674e-09 0.0000000000000000e+00  -1.1750452725021752e-08 6.9378006410524121e-09 0.0000000000000000e+00  -1.1894824557067634e-08 1.0569339138676870e-08 0.0000000000000000e+00  -1.1881477431468615e-08 1.4270478053750828e-08 0.0000000000000000e+00  -1.1484668616938714e-08 1.7809102341517904e-08 0.0000000000000000e+00  -1.0436794031444020e-08 2.0684738955683626e-08 0.0000000000000000e+00  -8.5169028421021795e-09 2.2036091687399039e-08 0.0000000000000000e+00  -5.7379088847220450e-09 2.0623276086575883e-08 0.0000000000000000e+00  -2.6087798505581961e-09 1.5038173885877552e-08 0.0000000000000000e+00  -1.3775223998497627e-10 4.7011354358612280e-09 0.0000000000000000e+00  1.3278119279347442e-10 -2.7760110740552106e-09 0.0000000000000000e+00  -2.0934514798433899e-09 -1.2376063497014518e-08 0.0000000000000000e+00  -5.0424059510598923e-09 -1.7638797474198040e-08 0.0000000000000000e+00  -8.0754318039681159e-09 -1.9486146050405564e-08 0.0000000000000000e+00  -1.0628892373148688e-08 -1.8859641131181888e-08 0.0000000000000000e+00  -1.2498796440845872e-08 -1.6683453297487130e-08 0.0000000000000000e+00  -1.3726222996710693e-08 -1.3675515434903803e-08 0.0000000000000000e+00  -1.4456562019025600e-08 -1.0309159054325136e-08 0.0000000000000000e+00  -1.4848335853899512e-08 -6.8478131474991629e-09 0.0000000000000000e+00  -1.5028802782548645e-08 -3.4022787313142832e-09 0.0000000000000000e+00  -1.5077086779848852e-08 1.2321154659452581e-11 0.0000000000000000e+00  -1.5019664345508147e-08 3.4260750416130767e-09 0.0000000000000000e+00  -1.4829846939625255e-08 6.8684405159488889e-09 0.0000000000000000e+00  -1.4428712160476345e-08 1.0322262926228958e-08 0.0000000000000000e+00  -1.3690184160055929e-08 1.3673089514534963e-08 0.0000000000000000e+00  -1.2458614321945170e-08 1.6652691229824425e-08 0.0000000000000000e+00  -1.0593168219036076e-08 1.8784652855486238e-08 0.0000000000000000e+00  -8.0555101535907212e-09 1.9357505771337042e-08 0.0000000000000000e+00  -5.0418610025928945e-09 1.7473998488938646e-08 0.0000000000000000e+00  -2.1007065200592643e-09 1.2247296554572148e-08 0.0000000000000000e+00  6.4055214086082734e-11 3.5013673884073535e-09 0.0000000000000000e+00  1.8640063259313456e-10 -2.0423898912181733e-09 0.0000000000000000e+00  -1.7056501181533634e-09 -9.8903855530002726e-09 0.0000000000000000e+00  -4.3496914190002048e-09 -1.4541111385725197e-08 0.0000000000000000e+00  -7.3140839182071192e-09 -1.6526509437809468e-08 0.0000000000000000e+00  -1.0084085641185288e-08 -1.6424046632991490e-08 0.0000000000000000e+00  -1.2376718008874851e-08 -1.4876068949338990e-08 0.0000000000000000e+00  -1.4112885285050499e-08 -1.2440584043925721e-08 0.0000000000000000e+00  -1.5330882732295838e-08 -9.5292400241204370e-09 0.0000000000000000e+00  -1.6113916421581788e-08 -6.4042282598683257e-09 0.0000000000000000e+00  -1.6544267260701443e-08 -3.2058968722278222e-09 0.0000000000000000e+00  -1.6678642953210749e-08 8.0348305339514896e-12 0.0000000000000000e+00  -1.6537012206990426e-08 3.2208085612310896e-09 0.0000000000000000e+00  -1.6099593016807874e-08 6.4152238575453853e-09 0.0000000000000000e+00  -1.5310166048454049e-08 9.5322581333146943e-09 0.0000000000000000e+00  -1.4087553966291083e-08 1.2429607995208284e-08 0.0000000000000000e+00  -1.2350462832940769e-08 1.4843295181738114e-08 0.0000000000000000e+00  -1.0062714860686789e-08 1.6362156766486269e-08 0.0000000000000000e+00  -7.3028336661482158e-09 1.6434705016404669e-08 0.0000000000000000e+00  -4.3457699945028777e-09 1.4434944162081032e-08 0.0000000000000000e+00  -1.6988458446122371e-09 9.8157933524991520e-09 0.0000000000000000e+00  1.5833157279044321e-10 2.5978291170800691e-09 0.0000000000000000e+00  2.0323916117803867e-10 -1.4929718183465504e-09 0.0000000000000000e+00  -1.3933092898516447e-09 -7.7757393457996795e-09 0.0000000000000000e+00  -3.7139227417026162e-09 -1.1710083351442996e-08 0.0000000000000000e+00  -6.4726620448727724e-09 -1.3600706090496462e-08 0.0000000000000000e+00  -9.2252238527069710e-09 -1.3794891922911734e-08 0.0000000000000000e+00  -1.1669112860925584e-08 -1.2728248730511869e-08 0.0000000000000000e+00  -1.3658771842879172e-08 -1.0815983938201160e-08 0.0000000000000000e+00  -1.5157117835563816e-08 -8.3929386130122390e-09 0.0000000000000000e+00  -1.6184051539602148e-08 -5.6950570766608921e-09 0.0000000000000000e+00  -1.6777707400719223e-08 -2.8687907774772461e-09 0.0000000000000000e+00  -1.6969729155284451e-08 4.3210755537443113e-12 0.0000000000000000e+00  -1.6772120400856382e-08 2.8762369206958441e-09 0.0000000000000000e+00  -1.6173244346842592e-08 5.6986695225604165e-09 0.0000000000000000e+00  -1.5142024155322832e-08 8.3894225790049175e-09 0.0000000000000000e+00  -1.3641250406515045e-08 1.0801280178369280e-08 0.0000000000000000e+00  -1.1652257334525766e-08 1.2698116397609340e-08 0.0000000000000000e+00  -9.2129018452356519e-09 1.3746719404280167e-08 0.0000000000000000e+00  -6.4667593135535135e-09 1.3536899955601655e-08 0.0000000000000000e+00  -3.7090280038803090e-09 1.1642507390699569e-08 0.0000000000000000e+00  -1.3806950221175484e-09 7.7332276418546014e-09 0.0000000000000000e+00  1.9684923745506518e-10 1.9188384439437714e-09 0.0000000000000000e+00  2.0222177483485608e-10 -1.0760755585583215e-09 0.0000000000000000e+00  -1.1445544922451091e-09 -5.9855836118430726e-09 0.0000000000000000e+00  -3.1622277018546856e-09 -9.1845621334885546e-09 0.0000000000000000e+00  -5.6649175799505059e-09 -1.0846743741542012e-08 0.0000000000000000e+00  -8.2778254762562689e-09 -1.1175829755166545e-08 0.0000000000000000e+00  -1.0707992761244765e-08 -1.0461263049781418e-08 0.0000000000000000e+00  -1.2778660289982435e-08 -9.0021400453723522e-09 0.0000000000000000e+00  -1.4405011981408798e-08 -7.0578858326113510e-09 0.0000000000000000e+00  -1.5560209242023659e-08 -4.8263331140496594e-09 0.0000000000000000e+00  -1.6246006518392291e-08 -2.4436737564887956e-09 0.0000000000000000e+00  -1.6471699220463155e-08 1.3377076195334115e-12 0.0000000000000000e+00  -1.6241845575285287e-08 2.4452813154815542e-09 0.0000000000000000e+00  -1.5552307328353395e-08 4.8246420388588311e-09 0.0000000000000000e+00  -1.4394332303500178e-08 7.0504592013321473e-09 0.0000000000000000e+00  -1.2766895161338538e-08 8.9864780900227083e-09 0.0000000000000000e+00  -1.0697594440364752e-08 1.0435403134908163e-08 0.0000000000000000e+00  -8.2712896593141304e-09 1.1139558151977984e-08 0.0000000000000000e+00  -5.6623267215684512e-09 1.0803308736214715e-08 0.0000000000000000e+00  -3.1574966757779080e-09 9.1423805016615765e-09 0.0000000000000000e+00  -1.1305014836090107e-09 5.9624498508160122e-09 0.0000000000000000e+00  2.0658808954729682e-10 1.4054159098878867e-09 0.0000000000000000e+00  1.9376568411756603e-10 -7.5404704414146373e-10 0.0000000000000000e+00  -9.5073204799091386e-10 -4.4665248389597787e-09 0.0000000000000000e+00  -2.7068962069263632e-09 -6.9538500923436220e-09 0.0000000000000000e+00  -4.9560210899542033e-09 -8.3174758059772985e-09 0.0000000000000000e+00  -7.3828346055628170e-09 -8.6729948169991366e-09 0.0000000000000000e+00  -9.7152905466800118e-09 -8.2083708086767264e-09 0.0000000000000000e+00  -1.1766062737167572e-08 -7.1322621718990027e-09 0.0000000000000000e+00  -1.3422895016075218e-08 -5.6368323033558417e-09 0.0000000000000000e+00  -1.4627521471165018e-08 -3.8780352529737272e-09 0.0000000000000000e+00  -1.5354891126446361e-08 -1.9716654944373819e-09 0.0000000000000000e+00  -1.5596840923780220e-08 -9.1360387117426349e-13 0.0000000000000000e+00  -1.5351919079582433e-08 1.9689687150959987e-09 0.0000000000000000e+00  -1.4621974461469080e-08 3.8727317224806612e-09 0.0000000000000000e+00  -1.3415635799231508e-08 5.6272487069956521e-09 0.0000000000000000e+00  -1.1758495653553262e-08 7.1170211705059723e-09 0.0000000000000000e+00  -9.7092539574627145e-09 8.1868784966464908e-09 0.0000000000000000e+00  -7.3798631182384176e-09 8.6461656372311016e-09 0.0000000000000000e+00  -4.9553459618991236e-09 8.2884502207648282e-09 0.0000000000000000e+00  -2.7028526144204233e-09 6.9283336792938095e-09 0.0000000000000000e+00  -9.3769113415060058e-10 4.4552072735662713e-09 0.0000000000000000e+00  2.0239134156862290e-10 1.0127841236084111e-09 0.0000000000000000e+00  1.8375316532123125e-10 -4.9851237791344334e-10 0.0000000000000000e+00  -8.0561289425700326e-10 -3.1631032577889855e-09 0.0000000000000000e+00  -2.3528368240800487e-09 -4.9789275863240322e-09 0.0000000000000000e+00  -4.3828455252184107e-09 -6.0118746666180288e-09 0.0000000000000000e+00  -6.6268114623150243e-09 -6.3245946065000665e-09 0.0000000000000000e+00  -8.8351497082009291e-09 -6.0347872728249761e-09 0.0000000000000000e+00  -1.0820442114513930e-08 -5.2815307052026400e-09 0.0000000000000000e+00  -1.2456259130753335e-08 -4.1992274352429339e-09 0.0000000000000000e+00  -1.3664843787123998e-08 -2.9022991333792651e-09 0.0000000000000000e+00  -1.4403067301703294e-08 -1.4804888670634280e-09 0.0000000000000000e+00  -1.4650413755232757e-08 -2.5092318513780664e-12 0.0000000000000000e+00  -1.4401065007188269e-08 1.4748022094895343e-09 0.0000000000000000e+00  -1.3661166683162663e-08 2.8946645948954534e-09 0.0000000000000000e+00  -1.2451594992726417e-08 4.1885710273278431e-09 0.0000000000000000e+00  -1.0815853333461534e-08 5.2672293428698260e-09 0.0000000000000000e+00  -8.8319230207669197e-09 6.0170284738858661e-09 0.0000000000000000e+00  -6.6258316890925137e-09 6.3047625239708120e-09 0.0000000000000000e+00  -4.3831040601955275e-09 5.9927050437578864e-09 0.0000000000000000e+00  -2.3497155398052288e-09 4.9641749930321078e-09 0.0000000000000000e+00  -7.9498915422928410e-10 3.1589408906405450e-09 0.0000000000000000e+00  1.9273307456177200e-10 7.0715369832932700e-10 0.0000000000000000e+00  1.7550569915303767e-10 -2.8714156459466624e-10 0.0000000000000000e+00  -7.0464488060701800e-10 -2.0199649282475347e-09 0.0000000000000000e+00  -2.1010042236999605e-09 -3.2048596797795835e-09 0.0000000000000000e+00  -3.9650443817450623e-09 -3.8955974599627243e-09 0.0000000000000000e+00  -6.0606805642939767e-09 -4.1236275362988399e-09 0.0000000000000000e+00  -8.1570578971668668e-09 -3.9570465200868241e-09 0.0000000000000000e+00  -1.0070587477124544e-08 -3.4