<?xml version="1.0"?>
<VTKFile type="UnstructuredGrid"  version="0.1"  >
<UnstructuredGrid>
<Piece  NumberOfPoints="651" NumberOfCells="1200">
<Points>
<DataArray  type="Float64"  NumberOfComponents="3"  format="ascii">0 0 0  50000 0 0  100000 0 0  150000 0 0  200000 0 0  250000 0 0  300000 0 0  350000 0 0  400000 0 0  450000 0 0  500000 0 0  550000 0 0  600000 0 0  650000 0 0  700000 0 0  750000 0 0  800000 0 0  850000 0 0  900000 0 0  950000 0 0  1000000 0 0  0 50000 0  50000 50000 0  100000 50000 0  150000 50000 0  200000 50000 0  250000 50000 0  300000 50000 0  350000 50000 0  400000 50000 0  450000 50000 0  500000 50000 0  550000 50000 0  600000 50000 0  650000 50000 0  700000 50000 0  750000 50000 0  800000 50000 0  850000 50000 0  900000 50000 0  950000 50000 0  1000000 50000 0  0 100000 0  50000 100000 0  100000 100000 0  150000 100000 0  200000 100000 0  250000 100000 0  300000 100000 0  350000 100000 0  400000 100000 0  450000 100000 0  500000 100000 0  550000 100000 0  600000 100000 0  650000 100000 0  700000 100000 0  750000 100000 0  800000 100000 0  850000 100000 0  900000 100000 0  950000 100000 0  1000000 100000 0  0 150000 0  50000 150000 0  100000 150000 0  150000 150000 0  200000 150000 0  250000 150000 0  300000 150000 0  350000 150000 0  400000 150000 0  450000 150000 0  500000 150000 0  550000 150000 0  600000 150000 0  650000 150000 0  700000 150000 0  750000 150000 0  800000 150000 0  850000 150000 0  900000 150000 0  950000 150000 0  1000000 150000 0  0 200000 0  50000 200000 0  100000 200000 0  150000 200000 0  200000 200000 0  250000 200000 0  300000 200000 0  350000 200000 0  400000 200000 0  450000 200000 0  500000 200000 0  550000 200000 0  600000 200000 0  650000 200000 0  700000 200000 0  750000 200000 0  800000 200000 0  850000 200000 0  900000 200000 0  950000 200000 0  1000000 200000 0  0 250000 0  50000 250000 0  100000 250000 0  150000 250000 0  200000 250000 0  250000 250000 0  300000 250000 0  350000 250000 0  400000 250000 0  450000 250000 0  500000 250000 0  550000 250000 0  600000 250000 0  650000 250000 0  700000 250000 0  750000 250000 0  800000 250000 0  850000 250000 0  900000 250000 0  950000 250000 0  1000000 250000 0  0 300000 0  50000 300000 0  100000 300000 0  150000 300000 0  200000 300000 0  250000 300000 0  300000 300000 0  350000 300000 0  400000 300000 0  450000 300000 0  500000 300000 0  550000 300000 0  600000 300000 0  650000 300000 0  700000 300000 0  750000 300000 0  800000 300000 0  850000 300000 0  900000 300000 0  950000 300000 0  1000000 300000 0  0 350000 0  50000 350000 0  100000 350000 0  150000 350000 0  200000 350000 0  250000 350000 0  300000 350000 0  350000 350000 0  400000 350000 0  450000 350000 0  500000 350000 0  550000 350000 0  600000 350000 0  650000 350000 0  700000 350000 0  750000 350000 0  800000 350000 0  850000 350000 0  900000 350000 0  950000 350000 0  1000000 350000 0  0 400000 0  50000 400000 0  100000 400000 0  150000 400000 0  200000 400000 0  250000 400000 0  300000 400000 0  350000 400000 0  400000 400000 0  450000 400000 0  500000 400000 0  550000 400000 0  600000 400000 0  650000 400000 0  700000 400000 0  750000 400000 0  800000 400000 0  850000 400000 0  900000 400000 0  950000 400000 0  1000000 400000 0  0 450000 0  50000 450000 0  100000 450000 0  150000 450000 0  200000 450000 0  250000 450000 0  300000 450000 0  350000 450000 0  400000 450000 0  450000 450000 0  500000 450000 0  550000 450000 0  600000 450000 0  650000 450000 0  700000 450000 0  750000 450000 0  800000 450000 0  850000 450000 0  900000 450000 0  950000 450000 0  1000000 450000 0  0 500000 0  50000 500000 0  100000 500000 0  150000 500000 0  200000 500000 0  250000 500000 0  300000 500000 0  350000 500000 0  400000 500000 0  450000 500000 0  500000 500000 0  550000 500000 0  600000 500000 0  650000 500000 0  700000 500000 0  750000 500000 0  800000 500000 0  850000 500000 0  900000 500000 0  950000 500000 0  1000000 500000 0  0 550000 0  50000 550000 0  100000 550000 0  150000 550000 0  200000 550000 0  250000 550000 0  300000 550000 0  350000 550000 0  400000 550000 0  450000 550000 0  500000 550000 0  550000 550000 0  600000 550000 0  650000 550000 0  700000 550000 0  750000 550000 0  800000 550000 0  850000 550000 0  900000 550000 0  950000 550000 0  1000000 550000 0  0 600000 0  50000 600000 0  100000 600000 0  150000 600000 0  200000 600000 0  250000 600000 0  300000 600000 0  350000 600000 0  400000 600000 0  450000 600000 0  500000 600000 0  550000 600000 0  600000 600000 0  650000 600000 0  700000 600000 0  750000 600000 0  800000 600000 0  850000 600000 0  900000 600000 0  950000 600000 0  1000000 600000 0  0 650000 0  50000 650000 0  100000 650000 0  150000 650000 0  200000 650000 0  250000 650000 0  300000 650000 0  350000 650000 0  400000 650000 0  450000 650000 0  500000 650000 0  550000 650000 0  600000 650000 0  650000 650000 0  700000 650000 0  750000 650000 0  800000 650000 0  850000 650000 0  900000 650000 0  950000 650000 0  1000000 650000 0  0 700000 0  50000 700000 0  100000 700000 0  150000 700000 0  200000 700000 0  250000 700000 0  300000 700000 0  350000 700000 0  400000 700000 0  450000 700000 0  500000 700000 0  550000 700000 0  600000 700000 0  650000 700000 0  700000 700000 0  750000 700000 0  800000 700000 0  850000 700000 0  900000 700000 0  950000 700000 0  1000000 700000 0  0 750000 0  50000 750000 0  100000 750000 0  150000 750000 0  200000 750000 0  250000 750000 0  300000 750000 0  350000 750000 0  400000 750000 0  450000 750000 0  500000 750000 0  550000 750000 0  600000 750000 0  650000 750000 0  700000 750000 0  750000 750000 0  800000 750000 0  850000 750000 0  900000 750000 0  950000 750000 0  1000000 750000 0  0 800000 0  50000 800000 0  100000 800000 0  150000 800000 0  200000 800000 0  250000 800000 0  300000 800000 0  350000 800000 0  400000 800000 0  450000 800000 0  500000 800000 0  550000 800000 0  600000 800000 0  650000 800000 0  700000 800000 0  750000 800000 0  800000 800000 0  850000 800000 0  900000 800000 0  950000 800000 0  1000000 800000 0  0 850000 0  50000 850000 0  100000 850000 0  150000 850000 0  200000 850000 0  250000 850000 0  300000 850000 0  350000 850000 0  400000 850000 0  450000 850000 0  500000 850000 0  550000 850000 0  600000 850000 0  650000 850000 0  700000 850000 0  750000 850000 0  800000 850000 0  850000 850000 0  900000 850000 0  950000 850000 0  1000000 850000 0  0 900000 0  50000 900000 0  100000 900000 0  150000 900000 0  200000 900000 0  250000 900000 0  300000 900000 0  350000 900000 0  400000 900000 0  450000 900000 0  500000 900000 0  550000 900000 0  600000 900000 0  650000 900000 0  700000 900000 0  750000 900000 0  800000 900000 0  850000 900000 0  900000 900000 0  950000 900000 0  1000000 900000 0  0 950000 0  50000 950000 0  100000 950000 0  150000 950000 0  200000 950000 0  250000 950000 0  300000 950000 0  350000 950000 0  400000 950000 0  450000 950000 0  500000 950000 0  550000 950000 0  600000 950000 0  650000 950000 0  700000 950000 0  750000 950000 0  800000 950000 0  850000 950000 0  900000 950000 0  950000 950000 0  1000000 950000 0  0 1000000 0  50000 1000000 0  100000 1000000 0  150000 1000000 0  200000 1000000 0  250000 1000000 0  300000 1000000 0  350000 1000000 0  400000 1000000 0  450000 1000000 0  500000 1000000 0  550000 1000000 0  600000 1000000 0  650000 1000000 0  700000 1000000 0  750000 1000000 0  800000 1000000 0  850000 1000000 0  900000 1000000 0  950000 1000000 0  1000000 1000000 0  0 1050000 0  50000 1050000 0  100000 1050000 0  150000 1050000 0  200000 1050000 0  250000 1050000 0  300000 1050000 0  350000 1050000 0  400000 1050000 0  450000 1050000 0  500000 1050000 0  550000 1050000 0  600000 1050000 0  650000 1050000 0  700000 1050000 0  750000 1050000 0  800000 1050000 0  850000 1050000 0  900000 1050000 0  950000 1050000 0  1000000 1050000 0  0 1100000 0  50000 1100000 0  100000 1100000 0  150000 1100000 0  200000 1100000 0  250000 1100000 0  300000 1100000 0  350000 1100000 0  400000 1100000 0  450000 1100000 0  500000 1100000 0  550000 1100000 0  600000 1100000 0  650000 1100000 0  700000 1100000 0  750000 1100000 0  800000 1100000 0  850000 1100000 0  900000 1100000 0  950000 1100000 0  1000000 1100000 0  0 1150000 0  50000 1150000 0  100000 1150000 0  150000 1150000 0  200000 1150000 0  250000 1150000 0  300000 1150000 0  350000 1150000 0  400000 1150000 0  450000 1150000 0  500000 1150000 0  550000 1150000 0  600000 1150000 0  650000 1150000 0  700000 1150000 0  750000 1150000 0  800000 1150000 0  850000 1150000 0  900000 1150000 0  950000 1150000 0  1000000 1150000 0  0 1200000 0  50000 1200000 0  100000 1200000 0  150000 1200000 0  200000 1200000 0  250000 1200000 0  300000 1200000 0  350000 1200000 0  400000 1200000 0  450000 1200000 0  500000 1200000 0  550000 1200000 0  600000 1200000 0  650000 1200000 0  700000 1200000 0  750000 1200000 0  800000 1200000 0  850000 1200000 0  900000 1200000 0  950000 1200000 0  1000000 1200000 0  0 1250000 0  50000 1250000 0  100000 1250000 0  150000 1250000 0  200000 1250000 0  250000 1250000 0  300000 1250000 0  350000 1250000 0  400000 1250000 0  450000 1250000 0  500000 1250000 0  550000 1250000 0  600000 1250000 0  650000 1250000 0  700000 1250000 0  750000 1250000 0  800000 1250000 0  850000 1250000 0  900000 1250000 0  950000 1250000 0  1000000 1250000 0  0 1300000 0  50000 1300000 0  100000 1300000 0  150000 1300000 0  200000 1300000 0  250000 1300000 0  300000 1300000 0  350000 1300000 0  400000 1300000 0  450000 1300000 0  500000 1300000 0  550000 1300000 0  600000 1300000 0  650000 1300000 0  700000 1300000 0  750000 1300000 0  800000 1300000 0  850000 1300000 0  900000 1300000 0  950000 1300000 0  1000000 1300000 0  0 1350000 0  50000 1350000 0  100000 1350000 0  150000 1350000 0  200000 1350000 0  250000 1350000 0  300000 1350000 0  350000 1350000 0  400000 1350000 0  450000 1350000 0  500000 1350000 0  550000 1350000 0  600000 1350000 0  650000 1350000 0  700000 135
[...]
<PointData  Scalars="f_4491"> 
<DataArray  type="Float64"  Name="f_4491"  format="ascii">-8.1509287854724626e+00  -8.1488230191598063e+00  -8.1383958779718348e+00  -8.1196166315026499e+00  -8.0929744150308238e+00  -8.0591796966425946e+00  -8.0191313530401107e+00  -7.9738911249733455e+00  -7.9246552235284007e+00  -7.8727225285475697e+00  -7.8194601778731201e+00  -7.7662674798767162e+00  -7.7145390876913611e+00  -7.6656283831336109e+00  -7.6208120547414966e+00  -7.5812569924602249e+00  -7.5479911454203430e+00  -7.5218816314725423e+00  -7.5036253724317028e+00  -7.4937151657908450e+00  -7.4915808651605644e+00  -8.1529287716731549e+00  -8.1508707998996055e+00  -8.1402936629546172e+00  -8.1213903646112637e+00  -8.0946105462714311e+00  -8.0606512973460394e+00  -8.0204081851250777e+00  -7.9749445504998189e+00  -7.9254607015280598e+00  -7.8732610094579734e+00  -7.8197189296982668e+00  -7.7662405466159452e+00  -7.7142274506591679e+00  -7.6650398302208638e+00  -7.6199606917586173e+00  -7.5801621304019395e+00  -7.5466744527269531e+00  -7.5203579674597716e+00  -7.5018718619771274e+00  -7.4916098938677091e+00  -7.4894759014195218e+00  -8.1627232624386803e+00  -8.1608118899412165e+00  -8.1499927342248899e+00  -8.1305190727337138e+00  -8.1029299729474129e+00  -8.0679582732661324e+00  -8.0265265862534392e+00  -7.9797268637938830e+00  -7.9287918157253436e+00  -7.8750616453975457e+00  -7.8199480256897891e+00  -7.7648964815528219e+00  -7.7113481105458472e+00  -7.6607015419070867e+00  -7.6142760611743956e+00  -7.5732768899340019e+00  -7.5387637091135211e+00  -7.5116235278407757e+00  -7.4925478989811811e+00  -7.4820042024114759e+00  -7.4800958394692181e+00  -8.1801862118546911e+00  -8.1782982569365128e+00  -8.1670753612741596e+00  -8.1466767983022503e+00  -8.1176966072852625e+00  -8.0809354533409294e+00  -8.0373775595752139e+00  -7.9881762972761958e+00  -7.9346288839934580e+00  -7.8781437306979498e+00  -7.8202036421040990e+00  -7.7623268120680624e+00  -7.7060269439507394e+00  -7.6527736047170052e+00  -7.6039539146779687e+00  -7.5608368271421247e+00  -7.5245415593060603e+00  -7.4960118955178077e+00  -7.4759954368373638e+00  -7.4650046784906889e+00  -7.4630962385522608e+00  -8.2050398380452911e+00  -8.2030991703398666e+00  -8.1912390982439174e+00  -8.1695374252075919e+00  -8.1386110099979661e+00  -8.0993294891038250e+00  -8.0527603668983847e+00  -8.0001467998477800e+00  -7.9428812545367506e+00  -7.8824722019692803e+00  -7.8205060354666527e+00  -7.7586062975521184e+00  -7.6983917893700315e+00  -7.6414348703367754e+00  -7.5892212163751687e+00  -7.5431124301600985e+00  -7.5043130314838553e+00  -7.4738426722885274e+00  -7.4525087764430396e+00  -7.4408448749771292e+00  -7.4388300127311435e+00  -8.2371237367145032e+00  -8.2350734463048365e+00  -8.2223334225022011e+00  -8.1989272207180761e+00  -8.1654946822365932e+00  -8.1229763837557751e+00  -8.0725374616342069e+00  -8.0155339435920538e+00  -7.9534812591998030e+00  -7.8880179991413391e+00  -7.8208653568985724e+00  -7.7537838447500942e+00  -7.6885287982903634e+00  -7.6268060168287679e+00  -7.5702288381031480e+00  -7.5202779750482938e+00  -7.4782652758945574e+00  -7.4453010940528435e+00  -7.4222576445420607e+00  -7.4096883138646845e+00  -7.4075095023956905e+00  -8.2763863810760832e+00  -8.2741781626964226e+00  -8.2603176976477126e+00  -8.2347950742934586e+00  -8.1982858620655605e+00  -8.1518116956994291e+00  -8.0966501926078429e+00  -8.0342912329761749e+00  -7.9663987384093673e+00  -7.8947697315500402e+00  -7.8212900098817020e+00  -7.7478874455145723e+00  -7.6764841652531457e+00  -7.6089488254499749e+00  -7.5470501632441982e+00  -7.4924129650459745e+00  -7.4464772339118586e+00  -7.4104594840747202e+00  -7.3853071652177320e+00  -7.3716034443197076e+00  -7.3692175817890284e+00  -8.3228627392017671e+00  -8.3204519293049959e+00  -8.3052327685567864e+00  -8.2771754147682692e+00  -8.2370076606489171e+00  -8.1858479336878904e+00  -8.1251041171427385e+00  -8.0564213715684030e+00  -7.9816369223752037e+00  -7.9027334377514826e+00  -7.8217899442289625e+00  -7.7409309025883850e+00  -7.6622743892906247e+00  -7.5878803482554549e+00  -7.5196998706898093e+00  -7.4595264183458694e+00  -7.4089495167993880e+00  -7.3693095182486061e+00  -7.3416437973350401e+00  -7.3265788934992067e+00  -7.3239471532446414e+00  -8.3766494502565205e+00  -8.3739925876534915e+00  -8.3571758992493006e+00  -8.3261585497053208e+00  -8.2817378773689612e+00  -8.2251481151879560e+00  -8.1579480987328008e+00  -8.0819611956259578e+00  -7.9992230337381507e+00  -7.9119286587310125e+00  -7.8223780570121404e+00  -7.7329204576193256e+00  -7.6458980505275793e+00  -7.5635897537829981e+00  -7.4881556786075221e+00  -7.4215829645113756e+00  -7.3656333662654871e+00  -7.3217911153024300e+00  -7.2912009648885387e+00  -7.2745474158406660e+00  -7.2716321841306577e+00  -8.4378782685380394e+00  -8.4349317360312277e+00  -8.4162752491447979e+00  -8.3818636324542517e+00  -8.3325814853330460e+00  -8.2698001117395989e+00  -8.1952524955607409e+00  -8.1109648982825941e+00  -8.0191971675992040e+00  -7.9223832648249122e+00  -7.8230710489793447e+00  -7.7238615881374812e+00  -7.6273482882189745e+00  -7.5360560327998467e+00  -7.4523805646451304e+00  -7.3785284836771332e+00  -7.3164581370655002e+00  -7.2678199486670740e+00  -7.2338856025648974e+00  -7.2154126974103230e+00  -7.2121764312696719e+00  -8.5066867856429180e+00  -8.5034059438494296e+00  -8.4826616838764668e+00  -8.4444104692964395e+00  -8.3896428203743394e+00  -8.3198905518716852e+00  -8.2370864027963719e+00  -8.1434860157486604e+00  -8.0416000414138580e+00  -7.9341276017462787e+00  -7.8238902370346723e+00  -7.7137664118214389e+00  -7.6066263898651236e+00  -7.5052670471788829e+00  -7.4123462501383610e+00  -7.3303167454926683e+00  -7.2613596888494447e+00  -7.2073164054462771e+00  -7.1696072367707329e+00  -7.1490790106405635e+00  -7.1454837070776343e+00  -8.5831851016815772e+00  -8.5795236758771658e+00  -8.5564363185741055e+00  -8.5138876643710653e+00  -8.4529947432206161e+00  -8.3754760686962726e+00  -8.2834924512663672e+00  -8.1795572772178069e+00  -8.0664591617612036e+00  -7.9471878534356168e+00  -7.8248625310813447e+00  -7.7026622084896950e+00  -7.5837573181618536e+00  -7.4712411063993525e+00  -7.3680595560236224e+00  -7.2769391144901991e+00  -7.2003120757524943e+00  -7.1402382438606473e+00  -7.0983111685085083e+00  -7.0754849227025165e+00  -7.0714918456119866e+00  -8.6674169352124828e+00  -8.6633265380590156e+00  -8.6376322260575087e+00  -8.5903150542094995e+00  -8.5226424278102044e+00  -8.4365496209397204e+00  -8.3344572568050506e+00  -8.2191669014189959e+00  -8.0937725067029493e+00  -7.9615782323753885e+00  -7.8260216883223359e+00  -7.6906016630263743e+00  -7.5588082505198759e+00  -7.4340525872736105e+00  -7.3195935294988672e+00  -7.2184594881680528e+00  -7.1333647554630391e+00  -7.0666189469822083e+00  -7.0200173840168993e+00  -6.9946425627550344e+00  -6.9902120904667786e+00  -8.7593134768102541e+00  -8.7547431855585938e+00  -8.7261685439037642e+00  -8.6735983714844860e+00  -8.5984794607263044e+00  -8.5029995363661666e+00  -8.3898753908427501e+00  -8.2622296326982738e+00  -8.1234885632976024e+00  -7.9772914480764303e+00  -7.8274099293755004e+00  -7.6776755364447355e+00  -7.5319114169343342e+00  -7.3938633774105167e+00  -7.2671254846477220e+00  -7.1550567898303843e+00  -7.0606876013453546e+00  -6.9866138334676302e+00  -6.9348669923804920e+00  -6.9066841442069018e+00  -6.9017756434196507e+00  -8.8586380813871628e+00  -8.8535339829553816e+00  -8.8217949234402742e+00  -8.7634738110226582e+00  -8.6802336872334287e+00  -8.5745586626823354e+00  -8.4495044597442277e+00  -8.3085505395879373e+00  -8.1554813478167105e+00  -7.9942867857039053e+00  -7.8290799942710709e+00  -7.6640285823560275e+00  -7.5032927371076221e+00  -7.3509622147377875e+00  -7.2109844258347149e+00  -7.0870776546186836e+00  -6.9826262889456379e+00  -6.9005562579108792e+00  -6.8431782546453457e+00  -6.8119176569654005e+00  -6.8064892788375060e+00  -8.9649196441408492e+00  -8.9592242253895691e+00  -8.9240238906418003e+00  -8.8594397275120134e+00  -8.7673997723773489e+00  -8.6507405667512813e+00  -8.5129084975321625e+00  -8.3577793028882184e+00  -8.1895188379027495e+00  -8.0124750265808871e+00  -7.8310977140357263e+00  -7.6498796275152925e+00  -7.4733079725908862e+00  -7.3058143261318413e+00  -7.1517107519429670e+00  -7.0151024342529196e+00  -6.8997711190196860e+00  -6.8090266776634358e+00  -6.7455146327345865e+00  -6.7108939230337565e+00  -6.7049021770097141e+00  -9.0773721864103241e+00  -9.0710233739162884e+00  -9.0320481905033478e+00  -8.9606720612032760e+00  -8.8591547739342964e+00  -8.7307591278363343e+00  -8.5793864342594066e+00  -8.4093524445516117e+00  -8.2252231014775319e+00  -8.0316993788621840e+00  -7.8335451612063878e+00  -7.6355467840966336e+00  -7.4424882658206135e+00  -7.2591240853658734e+00  -7.0901316416146525e+00  -6.9400282977016889e+00  -6.8130430459976807e+00  -6.7129380082125572e+00  -6.6427677918369898e+00  -6.6044875841045094e+00  -6.5978864736126095e+00  -9.1947977331275759e+00  -9.1877272570226065e+00  -9.1446394682788554e+00  -9.0659191838340742e+00  -8.9542521214979356e+00  -8.8134271746900730e+00  -8.6478820159209739e+00  -8.4624208370775698e+00  -8.2620204414029317e+00  -8.0517116242253923e+00  -7.8365244022553089e+00  -7.6214786624310040e+00  -7.4115968927751892e+00  -7.2119135717655825e+00  -7.0274559995551220e+00  -6.8631740020064527e+00  -6.7238016567823040e+00  -6.6136416303320233e+00  -6.5362592341840982e+00  -6.4939951381248937e+00  -6.4867345282749644e+00  -9.3154688749160250e+00  -9.3075994036835343e+00  -9.2600235170618230e+00  -9.1733705148839810e+00  -9.0508882108634232e+00  -8.8970291316554473e+00  -8.7168714689499680e+00  -8.5157601850137645e+00  -8.2990803415976799e+00  -8.0721429566067524e+00  -7.8401617778420496e+00  -7.6082920243597725e+00  -7.3816985264687869e+00  -7.1656196182969580e+00  -6.9653930865853866e+00  -6.7864117878214971e+00  -6.6339811869795398e+00  -6.5130598399957176e+00  -6.4278654189985041e+00  -6.3812540162430338e+00  -6.3732767241173720e+00  -9.4369862391682329e+00  -9.4282263212305271e+00  -9.3757254246006134e+00  -9.2804911714888529e+00  -9.1465343003080744e+00  -8.9791622326356340e+00  -8.7842259261026605e+00  -8.5676635530409389e+00  -8.3352433605854834e+00  -8.0924697266192176e+00  -7.8446124364335370e+00  -7.5968152400912601e+00  -7.3542407779266101e+00  -7.1222106162400651e+00  -6.9062985075355909e+00  -6.7123326405835790e+00  -6.5462625142231596e+00  -6.4138528026467299e+00  -6.3201732125916426e+00  -6.2687881945655430e+00  -6.2600250037127267e+00  -9.5561039808531394e+00  -9.5463390452711252e+00  -9.4883745516920364e+00  -9.3838115429711664e+00  -9.2377245503151624e+00  -9.0565413560027306e+00  -8.8470481478584322e+00  -8.6158184442174832e+00  -8.3689411471076998e+00  -8.1119758922183127e+00  -7.8500644721729280e+00  -7.5881346678311665e+00  -7.3311443671053009e+00  -7.0843209375034082e+00  -6.8533491679351579e+00  -6.6444513892918913e+00  -6.4642916016507446e+00  -6.3196318396430895e+00  -6.2166760642043801e+00  -6.1599885655186775e+00  -6.1503498804803982e+00  -9.6685124325941825e+00  -9.6575884896486492e+00  -9.5934528939760622e+00  -9.4786551217105366e+00  -9.3197892055979832e+00  -9.1247653419589838e+00  -8.9014892541504143e+00  -8.6571781127382135e+00  -8.3981176374976272e+00  -8.1297169683315946e+00  -7.8567413756290323e+00  -7.5836369107801378e+00  -7.3148915842467117e+00  -7.0553934985154712e+00  -6.8107433023297528e+00  -6.5874566502169918e+00  -6.3929581482131548e+00  -6.2352373122812974e+00  -6.1220279270645435e+00  -6.0593414570458615e+00  -6.0487034475850221e+00  -9.7685594162920459e+00  -9.7562524525970638e+00  -9.6849579995248050e+00  -9.5587788681209780e+00  -9.3865214476976373e+00  -9.1780509215438570e+00  -8.9425644204045405e+00  -8.6878503505697644e+00  -8.4201708104332234e+00  -8.1444953356351579e+00  -7.8649005117881536e+00  -7.5850329139947803e+00  -7.3085907809178101e+00  -7.0398066819227987e+00  -6.7839091719475961e+00  -6.5475047109867353e+00  -6.3387517150409343e+00  -6.1671105167240885e+00  -6.0423847687627248e+00  -5.9727288002308825e+00  -5.9609102282453188e+00  -9.8488767691667221e+00  -9.8348316383307122e+00  -9.7549270352027388e+00  -9.6158867010467919e+00  -9.4297718661872771e+00  -9.2089609203202780e+00  -8.9640125634030454e+00  -8.7030503649927606e+00  -8.4319506256806509e+00  -8.1548643907603182e+00  -7.8748240175230810e+00  -7.5943394316462083e+00  -7.3159753684179147e+00  -7.0429360320053895e+00  -6.7796798100892115e+00  -6.5325395103951349e+00  -6.3102135964138526e+00  -6.1238080748673553e+00  -5.9858892718157186e+00  -5.9078440673361792e+00  -5.8945665546503081e+00  -9.8998488477335354e+00  -9.8834456322729434e+00  -9.7927194607086054e+00  -9.6389607679610680e+00  -9.4389891020087635e+00  -9.2082002197186004e+00  -8.9582926134437209e+00  -8.6972005808027131e+00  -8.4298708770295416e+00  -8.1591886392669153e+00  -7.8867971952080769e+00  -7.6137804297136613e+00  -7.3412686044059763e+00  -7.0710585496938583e+00  -6.8063392452428193e+00  -6.5525772007989174e+00  -6.3184909227853936e+00  -6.1167379986027042e+00  -5.9634080936623004e+00  -5.8748126040393771e+00  -5.8596292434412733e+00  -9.9087988251597423e+00  -9.8888256891748689e+00  -9.7838607621805220e+00  -9.6133565848316174e+00  -9.4008047801652257e+00  -9.1646521831087195e+00  -8.9168874849195170e+00  -8.6643074707201198e+00  -8.4102153823741421e+00  -8.1557950542679301e+00  -7.9010690119349167e+00  -7.6455603050982486e+00  -7.3888156943455225e+00  -7.1309464388295654e+00  -6.8733498215801117e+00  -6.6197869380476604e+00  -6.3779394618598984e+00  -6.1612358525125845e+00  -5.9897477249678843e+00  -5.8872093876710299e+00  -5.8693662454625821e+00  -9.8586325658914635e+00  -9.8323975130498322e+00  -9.7080925591135507e+00  -9.5197116967848068e+00  -9.2989813814880513e+00  -9.0660182588262384e+00  -8.8311949010923900e+00  -8.5987862340402614e+00  -8.3697251000298767e+00  -8.1432485667001693e+00  -7.9177905882252642e+00  -7.6914638871236995e+00  -7.4623720110483021e+00  -7.2289342817567652e+00  -6.9904173312223765e+00  -6.7479560067882947e+00  -6.5064974727011586e+00  -6.2780897105283984e+00  -6.0858345431979490e+00  -5.9639422612721766e+00  -5.9420778277318140e+00  -9.7252591782504414e+00  -9.6861124992177015e+00  -9.5361723749792571e+00  -9.3332143266158791e+00  -9.1155711891327602e+00  -8.9007227776364033e+00  -8.6943723539621800e+00  -8.4968830337628773e+00  -8.3065040845506282e+00  -8.1207520431908140e+00  -7.9369281010066226e+00  -7.7522711784121956e+00  -7.5639809507699161e+00  -7.3692417782970132e+00  -7.1653855500068619e+00  -6.9504620243730653e+00  -6.7248400343903274e+00  -6.4952082977972028e+00  -6.2828534097283155e+00  -6.1333142142260995e+00  -6.1047022664146615e+00  -9.4711475552497717e+00  -9.4026458947782192e+00  -9.2258276652277029e+00  -9.0254619844363386e+00  -8.8351431657315338e+00  -8.6620035890111744e+00  -8.5043856445322898e+00  -8.3586351482580756e+00  -8.2211086822748118e+00  -8.0885708304592647e+00  -7.9581259986807922e+00  -7.8270362504031228e+00  -7.6925150975522136e+00  -7.5515115376931785e+00  -7.4004953529355202e+00  -7.2353275200828966e+00  -7.0515928286191638e+00  -6.8468074305860496e+00  -6.6292938445414595e+00  -6.4437155548366549e+00  -6.4018477358476407e+00  -9.0206539571649120e+00  -8.8934504988379608e+00  -8.7231450151602736e+00  -8.5753387444981080e+00  -8.4548990866120270e+00  -8.3545620305363322e+00  -8.2676944705060453e+00  -8.1896565332388267e+00  -8.1172430908452053e+00  -8.0481026729153182e+00  -7.9803416963717586e+00  -7.9122542545517121e+00  -7.8421054094574565e+00  -7.7679067595036280e+00  -7.6871168946407877e+00  -7.5961668824999862e+00  -7.4896620644551790e+00  -7.3592363876389806e+00  -7.1937446882418197e+00  -6.9959236862514258e+00  -6.9256651585921629e+00  -8.0000000000000000e+00  -8.0000000000000000e+00  -8.0000000000000000e+00  -8.0000000000000000e+00  -8.0000000000000000e+00  -8.0000000000000000e+00  -8.0000000000000000e+00  -8.0000000000000000e+00  -8.0000000000000000e+00  -8.0000000000000000e+00  -8.0000000000000000e+00  -8.0000000000000000e+00  -8.0000000000000000e+00  -8.0000000000000000e+00  -8.0000000000000000e+00  -8.0000000000000000e+00  -8.0000000000000000e+00  -8.0000000000000000e+00  -8.0000000000000000e+00  -8.0000000000000000e+00  -8.0000000000000000e+00  </DataArray> 
</PointData> 
</Piece>
</UnstructuredGrid>
</VTKFile>