<?xml version="1.0"?>
<VTKFile type="UnstructuredGrid"  version="0.1"  >
<UnstructuredGrid>
<Piece  NumberOfPoints="651" NumberOfCells="1200">
<Points>
<DataArray  type="Float64"  NumberOfComponents="3"  format="ascii">0 0 0  50000 0 0  100000 0 0  150000 0 0  200000 0 0  250000 0 0  300000 0 0  350000 0 0  400000 0 0  450000 0 0  500000 0 0  550000 0 0  600000 0 0  650000 0 0  700000 0 0  750000 0 0  800000 0 0  850000 0 0  900000 0 0  950000 0 0  1000000 0 0  0 50000 0  50000 50000 0  100000 50000 0  150000 50000 0  200000 50000 0  250000 50000 0  300000 50000 0  350000 50000 0  400000 50000 0  450000 50000 0  500000 50000 0  550000 50000 0  600000 50000 0  650000 50000 0  700000 50000 0  750000 50000 0  800000 50000 0  850000 50000 0  900000 50000 0  950000 50000 0  1000000 50000 0  0 100000 0  50000 100000 0  100000 100000 0  150000 100000 0  200000 100000 0  250000 100000 0  300000 100000 0  350000 100000 0  400000 100000 0  450000 100000 0  500000 100000 0  550000 100000 0  600000 100000 0  650000 100000 0  700000 100000 0  750000 100000 0  800000 100000 0  850000 100000 0  900000 100000 0  950000 100000 0  1000000 100000 0  0 150000 0  50000 150000 0  100000 150000 0  150000 150000 0  200000 150000 0  250000 150000 0  300000 150000 0  350000 150000 0  400000 150000 0  450000 150000 0  500000 150000 0  550000 150000 0  600000 150000 0  650000 150000 0  700000 150000 0  750000 150000 0  800000 150000 0  850000 150000 0  900000 150000 0  950000 150000 0  1000000 150000 0  0 200000 0  50000 200000 0  100000 200000 0  150000 200000 0  200000 200000 0  250000 200000 0  300000 200000 0  350000 200000 0  400000 200000 0  450000 200000 0  500000 200000 0  550000 200000 0  600000 200000 0  650000 200000 0  700000 200000 0  750000 200000 0  800000 200000 0  850000 200000 0  900000 200000 0  950000 200000 0  1000000 200000 0  0 250000 0  50000 250000 0  100000 250000 0  150000 250000 0  200000 250000 0  250000 250000 0  300000 250000 0  350000 250000 0  400000 250000 0  450000 250000 0  500000 250000 0  550000 250000 0  600000 250000 0  650000 250000 0  700000 250000 0  750000 250000 0  800000 250000 0  850000 250000 0  900000 250000 0  950000 250000 0  1000000 250000 0  0 300000 0  50000 300000 0  100000 300000 0  150000 300000 0  200000 300000 0  250000 300000 0  300000 300000 0  350000 300000 0  400000 300000 0  450000 300000 0  500000 300000 0  550000 300000 0  600000 300000 0  650000 300000 0  700000 300000 0  750000 300000 0  800000 300000 0  850000 300000 0  900000 300000 0  950000 300000 0  1000000 300000 0  0 350000 0  50000 350000 0  100000 350000 0  150000 350000 0  200000 350000 0  250000 350000 0  300000 350000 0  350000 350000 0  400000 350000 0  450000 350000 0  500000 350000 0  550000 350000 0  600000 350000 0  650000 350000 0  700000 350000 0  750000 350000 0  800000 350000 0  850000 350000 0  900000 350000 0  950000 350000 0  1000000 350000 0  0 400000 0  50000 400000 0  100000 400000 0  150000 400000 0  200000 400000 0  250000 400000 0  300000 400000 0  350000 400000 0  400000 400000 0  450000 400000 0  500000 400000 0  550000 400000 0  600000 400000 0  650000 400000 0  700000 400000 0  750000 400000 0  800000 400000 0  850000 400000 0  900000 400000 0  950000 400000 0  1000000 400000 0  0 450000 0  50000 450000 0  100000 450000 0  150000 450000 0  200000 450000 0  250000 450000 0  300000 450000 0  350000 450000 0  400000 450000 0  450000 450000 0  500000 450000 0  550000 450000 0  600000 450000 0  650000 450000 0  700000 450000 0  750000 450000 0  800000 450000 0  850000 450000 0  900000 450000 0  950000 450000 0  1000000 450000 0  0 500000 0  50000 500000 0  100000 500000 0  150000 500000 0  200000 500000 0  250000 500000 0  300000 500000 0  350000 500000 0  400000 500000 0  450000 500000 0  500000 500000 0  550000 500000 0  600000 500000 0  650000 500000 0  700000 500000 0  750000 500000 0  800000 500000 0  850000 500000 0  900000 500000 0  950000 500000 0  1000000 500000 0  0 550000 0  50000 550000 0  100000 550000 0  150000 550000 0  200000 550000 0  250000 550000 0  300000 550000 0  350000 550000 0  400000 550000 0  450000 550000 0  500000 550000 0  550000 550000 0  600000 550000 0  650000 550000 0  700000 550000 0  750000 550000 0  800000 550000 0  850000 550000 0  900000 550000 0  950000 550000 0  1000000 550000 0  0 600000 0  50000 600000 0  100000 600000 0  150000 600000 0  200000 600000 0  250000 600000 0  300000 600000 0  350000 600000 0  400000 600000 0  450000 600000 0  500000 600000 0  550000 600000 0  600000 600000 0  650000 600000 0  700000 600000 0  750000 600000 0  800000 600000 0  850000 600000 0  900000 600000 0  950000 600000 0  1000000 600000 0  0 650000 0  50000 650000 0  100000 650000 0  150000 650000 0  200000 650000 0  250000 650000 0  300000 650000 0  350000 650000 0  400000 650000 0  450000 650000 0  500000 650000 0  550000 650000 0  600000 650000 0  650000 650000 0  700000 650000 0  750000 650000 0  800000 650000 0  850000 650000 0  900000 650000 0  950000 650000 0  1000000 650000 0  0 700000 0  50000 700000 0  100000 700000 0  150000 700000 0  200000 700000 0  250000 700000 0  300000 700000 0  350000 700000 0  400000 700000 0  450000 700000 0  500000 700000 0  550000 700000 0  600000 700000 0  650000 700000 0  700000 700000 0  750000 700000 0  800000 700000 0  850000 700000 0  900000 700000 0  950000 700000 0  1000000 700000 0  0 750000 0  50000 750000 0  100000 750000 0  150000 750000 0  200000 750000 0  250000 750000 0  300000 750000 0  350000 750000 0  400000 750000 0  450000 750000 0  500000 750000 0  550000 750000 0  600000 750000 0  650000 750000 0  700000 750000 0  750000 750000 0  800000 750000 0  850000 750000 0  900000 750000 0  950000 750000 0  1000000 750000 0  0 800000 0  50000 800000 0  100000 800000 0  150000 800000 0  200000 800000 0  250000 800000 0  300000 800000 0  350000 800000 0  400000 800000 0  450000 800000 0  500000 800000 0  550000 800000 0  600000 800000 0  650000 800000 0  700000 800000 0  750000 800000 0  800000 800000 0  850000 800000 0  900000 800000 0  950000 800000 0  1000000 800000 0  0 850000 0  50000 850000 0  100000 850000 0  150000 850000 0  200000 850000 0  250000 850000 0  300000 850000 0  350000 850000 0  400000 850000 0  450000 850000 0  500000 850000 0  550000 850000 0  600000 850000 0  650000 850000 0  700000 850000 0  750000 850000 0  800000 850000 0  850000 850000 0  900000 850000 0  950000 850000 0  1000000 850000 0  0 900000 0  50000 900000 0  100000 900000 0  150000 900000 0  200000 900000 0  250000 900000 0  300000 900000 0  350000 900000 0  400000 900000 0  450000 900000 0  500000 900000 0  550000 900000 0  600000 900000 0  650000 900000 0  700000 900000 0  750000 900000 0  800000 900000 0  850000 900000 0  900000 900000 0  950000 900000 0  1000000 900000 0  0 950000 0  50000 950000 0  100000 950000 0  150000 950000 0  200000 950000 0  250000 950000 0  300000 950000 0  350000 950000 0  400000 950000 0  450000 950000 0  500000 950000 0  550000 950000 0  600000 950000 0  650000 950000 0  700000 950000 0  750000 950000 0  800000 950000 0  850000 950000 0  900000 950000 0  950000 950000 0  1000000 950000 0  0 1000000 0  50000 1000000 0  100000 1000000 0  150000 1000000 0  200000 1000000 0  250000 1000000 0  300000 1000000 0  350000 1000000 0  400000 1000000 0  450000 1000000 0  500000 1000000 0  550000 1000000 0  600000 1000000 0  650000 1000000 0  700000 1000000 0  750000 1000000 0  800000 1000000 0  850000 1000000 0  900000 1000000 0  950000 1000000 0  1000000 1000000 0  0 1050000 0  50000 1050000 0  100000 1050000 0  150000 1050000 0  200000 1050000 0  250000 1050000 0  300000 1050000 0  350000 1050000 0  400000 1050000 0  450000 1050000 0  500000 1050000 0  550000 1050000 0  600000 1050000 0  650000 1050000 0  700000 1050000 0  750000 1050000 0  800000 1050000 0  850000 1050000 0  900000 1050000 0  950000 1050000 0  1000000 1050000 0  0 1100000 0  50000 1100000 0  100000 1100000 0  150000 1100000 0  200000 1100000 0  250000 1100000 0  300000 1100000 0  350000 1100000 0  400000 1100000 0  450000 1100000 0  500000 1100000 0  550000 1100000 0  600000 1100000 0  650000 1100000 0  700000 1100000 0  750000 1100000 0  800000 1100000 0  850000 1100000 0  900000 1100000 0  950000 1100000 0  1000000 1100000 0  0 1150000 0  50000 1150000 0  100000 1150000 0  150000 1150000 0  200000 1150000 0  250000 1150000 0  300000 1150000 0  350000 1150000 0  400000 1150000 0  450000 1150000 0  500000 1150000 0  550000 1150000 0  600000 1150000 0  650000 1150000 0  700000 1150000 0  750000 1150000 0  800000 1150000 0  850000 1150000 0  900000 1150000 0  950000 1150000 0  1000000 1150000 0  0 1200000 0  50000 1200000 0  100000 1200000 0  150000 1200000 0  200000 1200000 0  250000 1200000 0  300000 1200000 0  350000 1200000 0  400000 1200000 0  450000 1200000 0  500000 1200000 0  550000 1200000 0  600000 1200000 0  650000 1200000 0  700000 1200000 0  750000 1200000 0  800000 1200000 0  850000 1200000 0  900000 1200000 0  950000 1200000 0  1000000 1200000 0  0 1250000 0  50000 1250000 0  100000 1250000 0  150000 1250000 0  200000 1250000 0  250000 1250000 0  300000 1250000 0  350000 1250000 0  400000 1250000 0  450000 1250000 0  500000 1250000 0  550000 1250000 0  600000 1250000 0  650000 1250000 0  700000 1250000 0  750000 1250000 0  800000 1250000 0  850000 1250000 0  900000 1250000 0  950000 1250000 0  1000000 1250000 0  0 1300000 0  50000 1300000 0  100000 1300000 0  150000 1300000 0  200000 1300000 0  250000 1300000 0  300000 1300000 0  350000 1300000 0  400000 1300000 0  450000 1300000 0  500000 1300000 0  550000 1300000 0  600000 1300000 0  650000 1300000 0  700000 1300000 0  750000 1300000 0  800000 1300000 0  850000 1300000 0  900000 1300000 0  950000 1300000 0  1000000 1300000 0  0 1350000 0  50000 1350000 0  100000 1350000 0  150000 1350000 0  200000 1350000 0  250000 1350000 0  300000 1350000 0  350000 1350000 0  400000 1350000 0  450000 1350000 0  500000 1350000 0  550000 1350000 0  600000 1350000 0  650000 1350000 0  700000 135
[...]
<PointData  Scalars="f_4491"> 
<DataArray  type="Float64"  Name="f_4491"  format="ascii">-8.1003997050029550e+00  -8.0989983092432780e+00  -8.0920790028024943e+00  -8.0796204803300160e+00  -8.0619457322088302e+00  -8.0395250227425539e+00  -8.0129540582675514e+00  -7.9829369949177886e+00  -7.9502675383055026e+00  -7.9158077728234382e+00  -7.8804652510223114e+00  -7.8451689634276054e+00  -7.8108448144868943e+00  -7.7783912372520279e+00  -7.7486556034105174e+00  -7.7224121756635711e+00  -7.7003426926893006e+00  -7.6830217521819053e+00  -7.6709104446481167e+00  -7.6643337625970460e+00  -7.6629157701042487e+00  -8.1017392648991393e+00  -8.1003686493077840e+00  -8.0933495836606912e+00  -8.0808081023849798e+00  -8.0630411540025406e+00  -8.0405102007655795e+00  -8.0138088028582342e+00  -7.9836422131785456e+00  -7.9508068861494277e+00  -7.9161685799994563e+00  -7.8806390703059339e+00  -7.8451518757215037e+00  -7.8106375361825426e+00  -7.7779990330583537e+00  -7.7480879610585331e+00  -7.7216820666921659e+00  -7.6994646872404369e+00  -7.6820059733049186e+00  -7.6697422212561595e+00  -7.6629333868002627e+00  -7.6615153982056334e+00  -8.1082465600927112e+00  -8.1069712789024759e+00  -8.0997903760538232e+00  -8.0868699317393009e+00  -8.0685657016959595e+00  -8.0453627117724675e+00  -8.0178724169775073e+00  -7.9868190407227520e+00  -7.9530205351817109e+00  -7.9173664372178720e+00  -7.8807938865975444e+00  -7.8442625794220744e+00  -7.8087292776764832e+00  -7.7751224762357234e+00  -7.7443178460339634e+00  -7.7171151125608217e+00  -7.6942170926882740e+00  -7.6762116208283580e+00  -7.6635563734229528e+00  -7.6565598637901919e+00  -7.6552895932119291e+00  -8.1198394491972490e+00  -8.1185781304574274e+00  -8.1111275236477489e+00  -8.0975923739195679e+00  -8.0783647623035204e+00  -8.0539744497394015e+00  -8.0250736054606993e+00  -7.9924271105276690e+00  -7.9568956630944019e+00  -7.9194140223530525e+00  -7.8809665023142879e+00  -7.8425609988686213e+00  -7.8052024329283416e+00  -7.7698663479189980e+00  -7.7374733955146189e+00  -7.7088655434121529e+00  -7.6847850407498006e+00  -7.6658572840377177e+00  -7.6525769977006162e+00  -7.6452825941383802e+00  -7.6440112209069966e+00  -8.1363364323513121e+00  -8.1350386477187957e+00  -8.1271634356956461e+00  -8.1127623290952791e+00  -8.0922427090601072e+00  -8.0661799517830683e+00  -8.0352813077937331e+00  -8.0003710983147460e+00  -7.9623731296070916e+00  -7.9222884914661975e+00  -7.8811701888999810e+00  -7.8400959866275306e+00  -7.8001405100718575e+00  -7.7623474722730643e+00  -7.7277028705544106e+00  -7.6971100792931662e+00  -7.6713678549098114e+00  -7.6511518248204355e+00  -7.6369963382730495e+00  -7.6292539248269238e+00  -7.6279110683848419e+00  -8.1576336590619274e+00  -8.1562616111326847e+00  -8.1478007440570845e+00  -8.1322671727370253e+00  -8.1100837204439351e+00  -8.0818727868615667e+00  -8.0484062749481087e+00  -8.0105832744262653e+00  -7.9694090859061149e+00  -7.9259710717635885e+00  -7.8814116370525999e+00  -7.8368993986504227e+00  -7.7935995485454646e+00  -7.7526443074615816e+00  -7.7151043331504816e+00  -7.6819619677415112e+00  -7.6540871013640022e+00  -7.6322154664395887e+00  -7.6169243904654511e+00  -7.6085797696314197e+00  -7.6071271523508530e+00  -8.1836992976542380e+00  -8.1822208302972967e+00  -8.1730146977714089e+00  -8.1560751862615888e+00  -8.1318489563659622e+00  -8.1010121752268951e+00  -8.0644112972081174e+00  -8.0230341358480448e+00  -7.9779844487866560e+00  -7.9304546766501822e+00  -7.8816964197739052e+00  -7.8329893322993209e+00  -7.7856092700433734e+00  -7.7407965017122269e+00  -7.6997247716388983e+00  -7.6634719766129962e+00  -7.6329929862142230e+00  -7.6090939253203773e+00  -7.5924020465129489e+00  -7.5833031542282869e+00  -7.5817119837042632e+00  -8.2145587555391355e+00  -8.2129440877776734e+00  -8.2028344568835401e+00  -8.1842111743644175e+00  -8.1575556019672195e+00  -8.1236081048795779e+00  -8.0833015167981070e+00  -8.0377266305502264e+00  -7.9881021620538633e+00  -7.9357437244299902e+00  -7.8820311441173132e+00  -7.8283745443321759e+00  -7.7761798299196458e+00  -7.7268142193616747e+00  -7.6815724651868456e+00  -7.6416443777055223e+00  -7.6080840150213280e+00  -7.5817796438273284e+00  -7.5634181811580312e+00  -7.5534142957633144e+00  -7.5516585826335687e+00  -8.2502782694979846e+00  -8.2484983898355981e+00  -8.2373265403939548e+00  -8.2167369100878709e+00  -8.1872569824016246e+00  -8.1497039117485883e+00  -8.1051106513940088e+00  -8.0546862212295540e+00  -7.9997809939876907e+00  -7.9418515417911344e+00  -7.8824243684889268e+00  -7.8230588162346546e+00  -7.7653095780738841e+00  -7.7106892433080851e+00  -7.6606313135311783e+00  -7.6164541442162887e+00  -7.5793260803818931e+00  -7.5502308420794186e+00  -7.5299265745070363e+00  -7.5188664332215271e+00  -7.5169209719069965e+00  -8.2909473269184382e+00  -8.2889730982004632e+00  -8.2765779315621160e+00  -8.2537332605202600e+00  -8.2210243865398169e+00  -8.1793593388762478e+00  -8.1298865914030376e+00  -8.0739498057522372e+00  -8.0130481910829676e+00  -7.9487969445912103e+00  -7.8828871662875910e+00  -7.8170454424474896e+00  -7.7529933000748787e+00  -7.6924066689790411e+00  -7.6368755126101853e+00  -7.5878638860869785e+00  -7.5466706204221516e+00  -7.5143897069511905e+00  -7.4918634761328784e+00  -7.4795935681882071e+00  -7.4774331825840470e+00  -8.3366592597785978e+00  -8.3344608472944355e+00  -8.3206773897070896e+00  -8.2952815042341310e+00  -8.2589286480352264e+00  -8.2126332598669727e+00  -8.1576763370174028e+00  -8.0955537943334441e+00  -8.0279313693064651e+00  -7.9566003620046191e+00  -7.8834336624105914e+00  -7.8103421301662905e+00  -7.7392312109973656e+00  -7.6719575124072366e+00  -7.6102850995516587e+00  -7.5558414861508147e+00  -7.5100734211072506e+00  -7.4742015779560340e+00  -7.4491668786100469e+00  -7.4355301190683356e+00  -7.4331293114978561e+00  -8.3874891282889035e+00  -8.3850355938140133e+00  -8.3696939079360941e+00  -8.3414421902075429e+00  -8.3010196843701767e+00  -8.2495646063688834e+00  -8.1885092839627820e+00  -8.1195207461423617e+00  -8.0444493394976142e+00  -7.9652794333165708e+00  -7.8840816786502579e+00  -7.8029666479580611e+00  -7.7240392494006134e+00  -7.6493530165778818e+00  -7.5808634301084350e+00  -7.5203798018527479e+00  -7.4695156383306891e+00  -7.4296366159091338e+00  -7.4017985371522954e+00  -7.3866332881609260e+00  -7.3839660583531170e+00  -8.4434678900513234e+00  -8.4407268745878081e+00  -8.4236512752377184e+00  -8.3922301816146962e+00  -8.3473024415258958e+00  -8.2901499974047645e+00  -8.2223775964278367e+00  -8.1458436260184328e+00  -8.0626012685292459e+00  -7.9748438181375985e+00  -7.8848535621148734e+00  -7.7949536226092766e+00  -7.7074613835813537e+00  -7.6246416601025135e+00  -7.5486578459752121e+00  -7.4815198662489086e+00  -7.4250285101106694e+00  -7.3807152776811158e+00  -7.3497698145970052e+00  -7.3329091418825243e+00  -7.3299488854791743e+00  -8.5045517269660937e+00  -8.5014891681856621e+00  -8.4824975678524677e+00  -8.4475845157346487e+00  -8.3977077082834519e+00  -8.3343165114408269e+00  -8.2592122549120877e+00  -8.1744665486656398e+00  -8.0823534058546436e+00  -7.9852888550197179e+00  -7.8857772522075180e+00  -7.7863629532075347e+00  -7.6895847831006279e+00  -7.5979300493924375e+00  -7.5137849536199166e+00  -7.4393791285410531e+00  -7.3767232741474533e+00  -7.3275389656090653e+00  -7.2931725480513689e+00  -7.2744435323544652e+00  -7.2711629564897375e+00  -8.5705852617833305e+00  -8.5671650884187560e+00  -8.5460682004520994e+00  -8.5073315319351934e+00  -8.4520560954211295e+00  -8.3818878637981165e+00  -8.2988531763659932e+00  -8.2052606968979731e+00  -8.1036224634748866e+00  -7.9965876243582192e+00  -7.8868876376880666e+00  -7.7772903850897794e+00  -7.6705588524011512e+00  -7.5694090707672590e+00  -7.4764621545438086e+00  -7.3941864870686027e+00  -7.3248279997634720e+00  -7.2703274029285057e+00  -7.2322163111745832e+00  -7.2114391350106386e+00  -7.2078101216419981e+00  -8.6412572289586080e+00  -8.6374409501366465e+00  -8.6140409187412228e+00  -8.5711394234166569e+00  -8.5100131627328928e+00  -8.4325419546033373e+00  -8.3410115475818429e+00  -8.2379939023403956e+00  -8.1262546046257693e+00  -8.0086809044415368e+00  -7.8882282538396842e+00  -7.7678808541825948e+00  -7.6506192670404829e+00  -7.5393869000411087e+00  -7.4370473538187074e+00  -7.3463261932323798e+00  -7.2697333712159633e+00  -7.2094645832812461e+00  -7.1672736889065147e+00  -7.1442600628400390e+00  -7.1402533835528530e+00  -8.7160469517876678e+00  -8.7117930104183561e+00  -8.6858807827898570e+00  -8.6384619463344396e+00  -8.5710332287915527e+00  -8.4857573551644343e+00  -8.3852222170474580e+00  -8.2722921922978916e+00  -8.1499988995262616e+00  -8.0214644669052912e+00  -7.8898533616202364e+00  -7.7583452453523458e+00  -7.6301182577560533e+00  -7.5083306791713733e+00  -7.3960891088994645e+00  -7.2963931394668249e+00  -7.2120499305239756e+00  -7.1455555724136701e+00  -7.0989355183704586e+00  -7.0734857682372931e+00  -7.0690705064482451e+00  -8.7941596813013323e+00  -8.7894223538824399e+00  -8.7607727118245968e+00  -8.7084684176458929e+00  -8.6342887969173052e+00  -8.5407458363388056e+00  -8.4307837319462422e+00  -8.3075915309267518e+00  -8.1744741283333564e+00  -8.0347731824453081e+00  -7.8918304240298252e+00  -7.7489811432762625e+00  -7.6095623585690682e+00  -7.4769187779292432e+00  -7.3543898010448103e+00  -7.2452625754799822e+00  -7.1526799379308237e+00  -7.0794970668887025e+00  -7.0280785454395245e+00  -6.9999763088804130e+00  -6.9951187691365551e+00  -8.8744483935313987e+00  -8.8691758665202496e+00  -8.8375384125438945e+00  -8.7799562391766699e+00  -8.6985817410793853e+00  -8.5963675852733807e+00  -8.4766835499774018e+00  -8.3430782152630663e+00  -8.1991281208238469e+00  -8.0483615870560730e+00  -7.8942429308080673e+00  -7.7401978703153054e+00  -7.5896584843217330e+00  -7.4461053653424276e+00  -7.3130845743383270e+00  -7.1941778835019869e+00  -7.0929079015951899e+00  -7.0125655649706706e+00  -6.9559487300061349e+00  -6.9249516364501780e+00  -6.9196134004929410e+00  -8.9553188633662923e+00  -8.9494498415223145e+00  -8.9145332499749301e+00  -8.8512407957183061e+00  -8.7622313805463996e+00  -8.6510254839681728e+00  -8.5215064343837277e+00  -8.3776173043337874e+00  -8.2231897259045930e+00  -8.0618810495730902e+00  -7.8971933901944302e+00  -7.7325453909764841e+00  -7.5713681870179812e+00  -7.4171981386368415e+00  -7.2737384905724998e+00  -7.1448605674377941e+00  -7.0345150610199862e+00  -6.9465285157630774e+00  -6.8842647569864486e+00  -6.8500885676652814e+00  -6.8442231637351396e+00  -9.0346134258493702e+00  -9.0280711044130886e+00  -8.9895163555683286e+00  -8.9200153290756461e+00  -8.8229333411828534e+00  -8.7025351475400665e+00  -8.5633257109611307e+00  -8.4096707375707940e+00  -8.2456155172667724e+00  -8.0748547371490584e+00  -7.9008060589538314e+00  -7.7267451728507570e+00  -7.5559676724750249e+00  -7.3919477947703243e+00  -7.2384629782451100e+00  -7.0996467658976732e+00  -6.9799247944903877e+00  -6.8837863184028345e+00  -6.8153486736181677e+00  -6.7776409145593863e+00  -6.7711882416705311e+00  -9.1094661917063782e+00  -9.1021473479592281e+00  -9.0594830189928324e+00  -8.9831696872949411e+00  -8.8775818690945361e+00  -8.7479692810504019e+00  -8.5995811710329857e+00  -8.4372115714337230e+00  -8.2650372548478952e+00  -8.0866535666476640e+00  -7.9052285575837784e+00  -7.7237183279466910e+00  -7.5451067123655005e+00  -7.3726429537700433e+00  -7.2100489933980896e+00  -7.0616536265113838e+00  -6.9323881053630316e+00  -6.8275573255286650e+00  -6.7522949812117217e+00  -6.7105916877380745e+00  -6.7034687576745560e+00  -9.1761173991032177e+00  -9.1678719253204388e+00  -9.1204401683182041e+00  -9.0365508167145734e+00  -8.9220479375396895e+00  -8.7834804016809365e+00  -8.6269562023570820e+00  -8.4576497754258302e+00  -8.2797229832215766e+00  -8.0964797031064464e+00  -7.9106308609084390e+00  -7.7246017139209515e+00  -7.5408516648150323e+00  -7.3621947334483231e+00  -7.1921059970752363e+00  -7.0349749482294683e+00  -6.8962206777417947e+00  -6.7821254197936813e+00  -6.6991980423397548e+00  -6.6528530171198117e+00  -6.6449384697391665e+00  -9.2296646304375756e+00  -9.2202546996876134e+00  -9.1670893805077931e+00  -9.0746387426696966e+00  -8.9509090717707096e+00  -8.8041196139210243e+00  -8.6412840620009082e+00  -8.4678005760480346e+00  -8.2875754596227047e+00  -8.1033692409091458e+00  -7.9171992813076617e+00  -7.7307357448557976e+00  -7.5456850169612615e+00  -7.3641780273508388e+00  -7.1891784238834191e+00  -7.0248942317857015e+00  -6.8771036516043393e+00  -6.7531824129671900e+00  -6.6614747991847842e+00  -6.6095431600726169e+00  -6.6006507129575915e+00  -9.2637087860687348e+00  -9.2527196413915611e+00  -9.1923491571097031e+00  -9.0901011469341793e+00  -8.9571431454573318e+00  -8.8037002445948520e+00  -8.6375448402233701e+00  -8.4639504304425692e+00  -8.2862063139943132e+00  -8.1062321088326286e+00  -7.9251221939308021e+00  -7.7435990473915783e+00  -7.5624157910876324e+00  -7.3827682367053722e+00  -7.2067767899053043e+00  -7.0380742394804798e+00  -6.8824524131365195e+00  -6.7483179100577226e+00  -6.6463555593330979e+00  -6.5873995850579501e+00  -6.5772303347482364e+00  -9.2698120939014164e+00  -9.2564339347431481e+00  -9.1865849524221730e+00  -9.0731905245072380e+00  -8.9318512627899178e+00  -8.7748211216435745e+00  -8.6100668966245966e+00  -8.4421071722286669e+00  -8.2731394557413385e+00  -8.1039527201247985e+00  -7.9345639475421006e+00  -7.7646579969492668e+00  -7.5939353847660724e+00  -7.4224717018471127e+00  -7.2511969421561622e+00  -7.0826111601370307e+00  -6.9218177434629489e+00  -6.7777353013806527e+00  -6.6636931660963192e+00  -6.5954565962766365e+00  -6.5835065206410022e+00  -9.2365946395489633e+00  -9.2190312898918787e+00  -9.1363107679532316e+00  -9.0110166109125220e+00  -8.8642214488967586e+00  -8.7092906735221529e+00  -8.5531184666095168e+00  -8.3985480102450758e+00  -8.2462013851461862e+00  -8.0955732764488619e+00  -7.9456242548816336e+00  -7.7951012116190270e+00  -7.6427449537032057e+00  -7.4875063192539937e+00  -7.3288994340776075e+00  -7.1676797739428357e+00  -7.0071347190149842e+00  -6.8552658498958330e+00  -6.7274132775097204e+00  -6.6462989185038488e+00  -6.6316583484770062e+00  -9.1480148211470276e+00  -9.1218366902537653e+00  -9.0220577128299233e+00  -8.8870569107271802e+00  -8.7422970618118754e+00  -8.5993922551623108e+00  -8.4621339219221188e+00  -8.3307651647865928e+00  -8.2041237969025502e+00  -8.0805600746992692e+00  -7.9582807389289645e+00  -7.8354510092840783e+00  -7.7102101451812102e+00  -7.5806875911145122e+00  -7.4451113948864469e+00  -7.3021872254816858e+00  -7.1521616433611683e+00  -6.9994773312531589e+00  -6.8582658871964162e+00  -6.7587649000160370e+00  -6.7396142162161690e+00  -8.9790716663719881e+00  -8.9333405699860151e+00  -8.8156762194727545e+00  -8.6823879304967537e+00  -8.5557853389117255e+00  -8.4406037151742588e+00  -8.3357412982347192e+00  -8.2387700925364804e+00  -8.1472687814547395e+00  -8.0590867136528441e+00  -7.9722988248448852e+00  -7.8850847965388606e+00  -7.7955922053552831e+00  -7.7017932040719348e+00  -7.6013421009742759e+00  -7.4914895438259279e+00  -7.3693035952991490e+00  -7.2331351275253741e+00  -7.0885070312418259e+00  -6.9650576897120766e+00  -6.9370618024487705e+00  -8.6793463764164329e+00  -8.5945786075536148e+00  -8.4812486691018645e+00  -8.3829159256651362e+00  -8.3027855642590769e+00  -8.2360223462375775e+00  -8.1782167426290027e+00  -8.1262845229473992e+00  -8.0780946903067274e+00  -8.0320834105990819e+00  -7.9869911412497840e+00  -7.9416831289304435e+00  -7.8950054272254793e+00  -7.8456357919115316e+00  -7.7918847221186249e+00  -7.7313803572639710e+00  -7.6605384362265747e+00  -7.5738010190958542e+00  -7.4637607957890362e+00  -7.3322171099481164e+00  -7.2853326512392123e+00  -8.0000000000000000e+00  -8.0000000000000000e+00  -8.0000000000000000e+00  -8.0000000000000000e+00  -8.0000000000000000e+00  -8.0000000000000000e+00  -8.0000000000000000e+00  -8.0000000000000000e+00  -8.0000000000000000e+00  -8.0000000000000000e+00  -8.0000000000000000e+00  -8.0000000000000000e+00  -8.0000000000000000e+00  -8.0000000000000000e+00  -8.0000000000000000e+00  -8.0000000000000000e+00  -8.0000000000000000e+00  -8.0000000000000000e+00  -8.0000000000000000e+00  -8.0000000000000000e+00  -8.0000000000000000e+00  </DataArray> 
</PointData> 
</Piece>
</UnstructuredGrid>
</VTKFile>