<?xml version="1.0"?>
<VTKFile type="UnstructuredGrid"  version="0.1"  >
<UnstructuredGrid>
<Piece  NumberOfPoints="651" NumberOfCells="1200">
<Points>
<DataArray  type="Float64"  NumberOfComponents="3"  format="ascii">0 0 0  50000 0 0  100000 0 0  150000 0 0  200000 0 0  250000 0 0  300000 0 0  350000 0 0  400000 0 0  450000 0 0  500000 0 0  550000 0 0  600000 0 0  650000 0 0  700000 0 0  750000 0 0  800000 0 0  850000 0 0  900000 0 0  950000 0 0  1000000 0 0  0 50000 0  50000 50000 0  100000 50000 0  150000 50000 0  200000 50000 0  250000 50000 0  300000 50000 0  350000 50000 0  400000 50000 0  450000 50000 0  500000 50000 0  550000 50000 0  600000 50000 0  650000 50000 0  700000 50000 0  750000 50000 0  800000 50000 0  850000 50000 0  900000 50000 0  950000 50000 0  1000000 50000 0  0 100000 0  50000 100000 0  100000 100000 0  150000 100000 0  200000 100000 0  250000 100000 0  300000 100000 0  350000 100000 0  400000 100000 0  450000 100000 0  500000 100000 0  550000 100000 0  600000 100000 0  650000 100000 0  700000 100000 0  750000 100000 0  800000 100000 0  850000 100000 0  900000 100000 0  950000 100000 0  1000000 100000 0  0 150000 0  50000 150000 0  100000 150000 0  150000 150000 0  200000 150000 0  250000 150000 0  300000 150000 0  350000 150000 0  400000 150000 0  450000 150000 0  500000 150000 0  550000 150000 0  600000 150000 0  650000 150000 0  700000 150000 0  750000 150000 0  800000 150000 0  850000 150000 0  900000 150000 0  950000 150000 0  1000000 150000 0  0 200000 0  50000 200000 0  100000 200000 0  150000 200000 0  200000 200000 0  250000 200000 0  300000 200000 0  350000 200000 0  400000 200000 0  450000 200000 0  500000 200000 0  550000 200000 0  600000 200000 0  650000 200000 0  700000 200000 0  750000 200000 0  800000 200000 0  850000 200000 0  900000 200000 0  950000 200000 0  1000000 200000 0  0 250000 0  50000 250000 0  100000 250000 0  150000 250000 0  200000 250000 0  250000 250000 0  300000 250000 0  350000 250000 0  400000 250000 0  450000 250000 0  500000 250000 0  550000 250000 0  600000 250000 0  650000 250000 0  700000 250000 0  750000 250000 0  800000 250000 0  850000 250000 0  900000 250000 0  950000 250000 0  1000000 250000 0  0 300000 0  50000 300000 0  100000 300000 0  150000 300000 0  200000 300000 0  250000 300000 0  300000 300000 0  350000 300000 0  400000 300000 0  450000 300000 0  500000 300000 0  550000 300000 0  600000 300000 0  650000 300000 0  700000 300000 0  750000 300000 0  800000 300000 0  850000 300000 0  900000 300000 0  950000 300000 0  1000000 300000 0  0 350000 0  50000 350000 0  100000 350000 0  150000 350000 0  200000 350000 0  250000 350000 0  300000 350000 0  350000 350000 0  400000 350000 0  450000 350000 0  500000 350000 0  550000 350000 0  600000 350000 0  650000 350000 0  700000 350000 0  750000 350000 0  800000 350000 0  850000 350000 0  900000 350000 0  950000 350000 0  1000000 350000 0  0 400000 0  50000 400000 0  100000 400000 0  150000 400000 0  200000 400000 0  250000 400000 0  300000 400000 0  350000 400000 0  400000 400000 0  450000 400000 0  500000 400000 0  550000 400000 0  600000 400000 0  650000 400000 0  700000 400000 0  750000 400000 0  800000 400000 0  850000 400000 0  900000 400000 0  950000 400000 0  1000000 400000 0  0 450000 0  50000 450000 0  100000 450000 0  150000 450000 0  200000 450000 0  250000 450000 0  300000 450000 0  350000 450000 0  400000 450000 0  450000 450000 0  500000 450000 0  550000 450000 0  600000 450000 0  650000 450000 0  700000 450000 0  750000 450000 0  800000 450000 0  850000 450000 0  900000 450000 0  950000 450000 0  1000000 450000 0  0 500000 0  50000 500000 0  100000 500000 0  150000 500000 0  200000 500000 0  250000 500000 0  300000 500000 0  350000 500000 0  400000 500000 0  450000 500000 0  500000 500000 0  550000 500000 0  600000 500000 0  650000 500000 0  700000 500000 0  750000 500000 0  800000 500000 0  850000 500000 0  900000 500000 0  950000 500000 0  1000000 500000 0  0 550000 0  50000 550000 0  100000 550000 0  150000 550000 0  200000 550000 0  250000 550000 0  300000 550000 0  350000 550000 0  400000 550000 0  450000 550000 0  500000 550000 0  550000 550000 0  600000 550000 0  650000 550000 0  700000 550000 0  750000 550000 0  800000 550000 0  850000 550000 0  900000 550000 0  950000 550000 0  1000000 550000 0  0 600000 0  50000 600000 0  100000 600000 0  150000 600000 0  200000 600000 0  250000 600000 0  300000 600000 0  350000 600000 0  400000 600000 0  450000 600000 0  500000 600000 0  550000 600000 0  600000 600000 0  650000 600000 0  700000 600000 0  750000 600000 0  800000 600000 0  850000 600000 0  900000 600000 0  950000 600000 0  1000000 600000 0  0 650000 0  50000 650000 0  100000 650000 0  150000 650000 0  200000 650000 0  250000 650000 0  300000 650000 0  350000 650000 0  400000 650000 0  450000 650000 0  500000 650000 0  550000 650000 0  600000 650000 0  650000 650000 0  700000 650000 0  750000 650000 0  800000 650000 0  850000 650000 0  900000 650000 0  950000 650000 0  1000000 650000 0  0 700000 0  50000 700000 0  100000 700000 0  150000 700000 0  200000 700000 0  250000 700000 0  300000 700000 0  350000 700000 0  400000 700000 0  450000 700000 0  500000 700000 0  550000 700000 0  600000 700000 0  650000 700000 0  700000 700000 0  750000 700000 0  800000 700000 0  850000 700000 0  900000 700000 0  950000 700000 0  1000000 700000 0  0 750000 0  50000 750000 0  100000 750000 0  150000 750000 0  200000 750000 0  250000 750000 0  300000 750000 0  350000 750000 0  400000 750000 0  450000 750000 0  500000 750000 0  550000 750000 0  600000 750000 0  650000 750000 0  700000 750000 0  750000 750000 0  800000 750000 0  850000 750000 0  900000 750000 0  950000 750000 0  1000000 750000 0  0 800000 0  50000 800000 0  100000 800000 0  150000 800000 0  200000 800000 0  250000 800000 0  300000 800000 0  350000 800000 0  400000 800000 0  450000 800000 0  500000 800000 0  550000 800000 0  600000 800000 0  650000 800000 0  700000 800000 0  750000 800000 0  800000 800000 0  850000 800000 0  900000 800000 0  950000 800000 0  1000000 800000 0  0 850000 0  50000 850000 0  100000 850000 0  150000 850000 0  200000 850000 0  250000 850000 0  300000 850000 0  350000 850000 0  400000 850000 0  450000 850000 0  500000 850000 0  550000 850000 0  600000 850000 0  650000 850000 0  700000 850000 0  750000 850000 0  800000 850000 0  850000 850000 0  900000 850000 0  950000 850000 0  1000000 850000 0  0 900000 0  50000 900000 0  100000 900000 0  150000 900000 0  200000 900000 0  250000 900000 0  300000 900000 0  350000 900000 0  400000 900000 0  450000 900000 0  500000 900000 0  550000 900000 0  600000 900000 0  650000 900000 0  700000 900000 0  750000 900000 0  800000 900000 0  850000 900000 0  900000 900000 0  950000 900000 0  1000000 900000 0  0 950000 0  50000 950000 0  100000 950000 0  150000 950000 0  200000 950000 0  250000 950000 0  300000 950000 0  350000 950000 0  400000 950000 0  450000 950000 0  500000 950000 0  550000 950000 0  600000 950000 0  650000 950000 0  700000 950000 0  750000 950000 0  800000 950000 0  850000 950000 0  900000 950000 0  950000 950000 0  1000000 950000 0  0 1000000 0  50000 1000000 0  100000 1000000 0  150000 1000000 0  200000 1000000 0  250000 1000000 0  300000 1000000 0  350000 1000000 0  400000 1000000 0  450000 1000000 0  500000 1000000 0  550000 1000000 0  600000 1000000 0  650000 1000000 0  700000 1000000 0  750000 1000000 0  800000 1000000 0  850000 1000000 0  900000 1000000 0  950000 1000000 0  1000000 1000000 0  0 1050000 0  50000 1050000 0  100000 1050000 0  150000 1050000 0  200000 1050000 0  250000 1050000 0  300000 1050000 0  350000 1050000 0  400000 1050000 0  450000 1050000 0  500000 1050000 0  550000 1050000 0  600000 1050000 0  650000 1050000 0  700000 1050000 0  750000 1050000 0  800000 1050000 0  850000 1050000 0  900000 1050000 0  950000 1050000 0  1000000 1050000 0  0 1100000 0  50000 1100000 0  100000 1100000 0  150000 1100000 0  200000 1100000 0  250000 1100000 0  300000 1100000 0  350000 1100000 0  400000 1100000 0  450000 1100000 0  500000 1100000 0  550000 1100000 0  600000 1100000 0  650000 1100000 0  700000 1100000 0  750000 1100000 0  800000 1100000 0  850000 1100000 0  900000 1100000 0  950000 1100000 0  1000000 1100000 0  0 1150000 0  50000 1150000 0  100000 1150000 0  150000 1150000 0  200000 1150000 0  250000 1150000 0  300000 1150000 0  350000 1150000 0  400000 1150000 0  450000 1150000 0  500000 1150000 0  550000 1150000 0  600000 1150000 0  650000 1150000 0  700000 1150000 0  750000 1150000 0  800000 1150000 0  850000 1150000 0  900000 1150000 0  950000 1150000 0  1000000 1150000 0  0 1200000 0  50000 1200000 0  100000 1200000 0  150000 1200000 0  200000 1200000 0  250000 1200000 0  300000 1200000 0  350000 1200000 0  400000 1200000 0  450000 1200000 0  500000 1200000 0  550000 1200000 0  600000 1200000 0  650000 1200000 0  700000 1200000 0  750000 1200000 0  800000 1200000 0  850000 1200000 0  900000 1200000 0  950000 1200000 0  1000000 1200000 0  0 1250000 0  50000 1250000 0  100000 1250000 0  150000 1250000 0  200000 1250000 0  250000 1250000 0  300000 1250000 0  350000 1250000 0  400000 1250000 0  450000 1250000 0  500000 1250000 0  550000 1250000 0  600000 1250000 0  650000 1250000 0  700000 1250000 0  750000 1250000 0  800000 1250000 0  850000 1250000 0  900000 1250000 0  950000 1250000 0  1000000 1250000 0  0 1300000 0  50000 1300000 0  100000 1300000 0  150000 1300000 0  200000 1300000 0  250000 1300000 0  300000 1300000 0  350000 1300000 0  400000 1300000 0  450000 1300000 0  500000 1300000 0  550000 1300000 0  600000 1300000 0  650000 1300000 0  700000 1300000 0  750000 1300000 0  800000 1300000 0  850000 1300000 0  900000 1300000 0  950000 1300000 0  1000000 1300000 0  0 1350000 0  50000 1350000 0  100000 1350000 0  150000 1350000 0  200000 1350000 0  250000 1350000 0  300000 1350000 0  350000 1350000 0  400000 1350000 0  450000 1350000 0  500000 1350000 0  550000 1350000 0  600000 1350000 0  650000 1350000 0  700000 135
[...]
<PointData  Scalars="f_4491"> 
<DataArray  type="Float64"  Name="f_4491"  format="ascii">-8.1104883057153199e+00  -8.1089435174019826e+00  -8.1013197344326606e+00  -8.0875940277207743e+00  -8.0681226073330041e+00  -8.0434237795911994e+00  -8.0141538936406373e+00  -7.9810886331755615e+00  -7.9451022164217191e+00  -7.9071440987372847e+00  -7.8682137613495780e+00  -7.8293342690282657e+00  -7.7915252849402314e+00  -7.7557762383640894e+00  -7.7230203674407720e+00  -7.6941104590671880e+00  -7.6697974874243418e+00  -7.6507145413999051e+00  -7.6373698579847353e+00  -7.6301219551966968e+00  -7.6285559040285280e+00  -8.1119514207104366e+00  -8.1104416505638657e+00  -8.1027088054808285e+00  -8.0888925059007928e+00  -8.0693203122264823e+00  -8.0445008425276594e+00  -8.0150880775177580e+00  -7.9818589033258007e+00  -7.9456905591352038e+00  -7.9075365385962648e+00  -7.8684009647212179e+00  -7.8293118790365757e+00  -7.7912940390260541e+00  -7.7553418719509457e+00  -7.7223932556137278e+00  -7.6933048023313990e+00  -7.6688292335714419e+00  -7.6495947146743983e+00  -7.6360820932236351e+00  -7.6285780390654541e+00  -7.6270119763288919e+00  -8.1191079407804150e+00  -8.1177044910945408e+00  -8.1097944876874060e+00  -8.0955615653234005e+00  -8.0753982289961836e+00  -8.0498391181139404e+00  -8.0195579520106559e+00  -7.9853525235259335e+00  -7.9481237550828796e+00  -7.9088513322418112e+00  -7.8685673140609742e+00  -7.8283285723901130e+00  -7.7891887433507527e+00  -7.7521703522886671e+00  -7.7182377926106973e+00  -7.6882718837647070e+00  -7.6630468044351403e+00  -7.6432102060921654e+00  -7.6292665141390250e+00  -7.6215559786886438e+00  -7.6201532306629449e+00  -8.1318671359411709e+00  -8.1304801601259342e+00  -8.1222742788180859e+00  -8.1073652032026455e+00  -8.0861854765219601e+00  -8.0593190955598875e+00  -8.0274846807832301e+00  -7.9915248416459939e+00  -7.9523876036952412e+00  -7.9111024750729948e+00  -7.8687534825711989e+00  -7.8264505927301933e+00  -7.7853004904230234e+00  -7.7463775274234266e+00  -7.7106956485272971e+00  -7.6791822131663583e+00  -7.6526548533153154e+00  -7.6318026263065093e+00  -7.6171708088305694e+00  -7.6091326004563946e+00  -7.6077290011441949e+00  -8.1500282736796272e+00  -8.1486021525862249e+00  -8.1399297211278494e+00  -8.1240678034327551e+00  -8.1014657314395997e+00  -8.0727577846484913e+00  -8.0387233068227282e+00  -8.0002704202902581e+00  -7.9584166905039195e+00  -7.9142647050255306e+00  -7.8689741633381480e+00  -7.8237319983025246e+00  -7.7797216790010735e+00  -7.7380926521382802e+00  -7.6999308508050062e+00  -7.6662312904382350e+00  -7.6378738705661577e+00  -7.6156030087562163e+00  -7.6000076492230253e+00  -7.5914764962998937e+00  -7.5899945080502489e+00  -8.1734762301684434e+00  -8.1719693102356636e+00  -8.1626528853490061e+00  -8.1455445904650379e+00  -8.1211106993354871e+00  -8.0900372938919602e+00  -8.0531749656986715e+00  -8.0115142276732296e+00  -7.9661624356156242e+00  -7.9183172213669044e+00  -7.8692367664712277e+00  -7.8202080811152639e+00  -7.7725143958895879e+00  -7.7274026528278963e+00  -7.6860520469218283e+00  -7.6495445912247684e+00  -7.6188385596348462e+00  -7.5947445962296678e+00  -7.5778989887277435e+00  -7.5687051086366406e+00  -7.5671026404242525e+00  -8.2021752812759150e+00  -8.2005521436848046e+00  -8.1904158970975711e+00  -8.1717600234081083e+00  -8.1450770091441331e+00  -8.1111121591898740e+00  -8.0707982014975137e+00  -8.0252233990219128e+00  -7.9756035729041521e+00  -7.9232521056061387e+00  -7.8695474573548871e+00  -7.8158989416815601e+00  -7.7637116799510633e+00  -7.7143516254245377e+00  -7.6691115237337097e+00  -7.6291786480247916e+00  -7.5956048886653651e+00  -7.5692784381205440e+00  -7.5508905736062779e+00  -7.5408665519649212e+00  -7.5391119835069675e+00  -8.2361527972419921e+00  -8.2343806471276224e+00  -8.2232502996053594e+00  -8.2027408783300277e+00  -8.1733830762316710e+00  -8.1359929144883392e+00  -8.0915982772199833e+00  -8.0414008670844606e+00  -7.9867431333805481e+00  -7.9290741268079241e+00  -7.8699135355949750e+00  -7.8108143676488266e+00  -7.7533249749131210e+00  -7.6989511294739170e+00  -7.6491188559440193e+00  -7.6051386951504512e+00  -7.5681717948151679e+00  -7.5391968307277502e+00  -7.5189707991570014e+00  -7.5079507257038118e+00  -7.5060155306992185e+00  -8.2754811478671755e+00  -8.2735280392003236e+00  -8.2612288026937559e+00  -8.2385546751364132e+00  -8.2060871586774091e+00  -8.1647268676184535e+00  -8.1156119723195914e+00  -8.0600743987232306e+00  -7.9996016025768757e+00  -7.9357978780589136e+00  -7.8703444482973506e+00  -7.8049586511553981e+00  -7.7413526931297660e+00  -7.6811924392191582e+00  -7.6260567188933166e+00  -7.5773976464684001e+00  -7.5365022470799019e+00  -7.5044543373440149e+00  -7.4820893743500916e+00  -7.4699067684542904e+00  -7.4677632862605474e+00  -8.3202583257751570e+00  -8.3180921720851160e+00  -8.3044466626276208e+00  -8.2792899726090461e+00  -8.2432673141622725e+00  -8.1973794169529555e+00  -8.1428916979599997e+00  -8.0812843755445574e+00  -8.0142088188866882e+00  -7.9434440058621734e+00  -7.8708524117627556e+00  -7.7983355384658593e+00  -7.7277893039245589e+00  -7.6610594399470635e+00  -7.5998970733067521e+00  -7.5459147718634956e+00  -7.5005432700307422e+00  -7.4649878422225333e+00  -7.4401766825219715e+00  -7.4266626117827368e+00  -7.4242832152952420e+00  -8.3705865630014085e+00  -8.3681745061073958e+00  -8.3530010927989213e+00  -8.3250357836575795e+00  -8.2850011027536858e+00  -8.2340150107943479e+00  -8.1734888949689442e+00  -8.1050706525725769e+00  -8.0305950361620670e+00  -7.9520349382759754e+00  -7.8714530028667244e+00  -7.7909536304458840e+00  -7.7126352463878991e+00  -7.6385425242577227e+00  -7.5706182982795784e+00  -7.5106551341915990e+00  -7.4602466643279168e+00  -7.4207376913817669e+00  -7.3931650167147662e+00  -7.3781466349123681e+00  -7.3755033434889006e+00  -8.4265479687695013e+00  -8.4238559318026951e+00  -8.4069675370369286e+00  -8.3758582906448549e+00  -8.3313430502104975e+00  -8.2746761386817429e+00  -8.2074356219917330e+00  -8.1314578373034792e+00  -8.0487808171534478e+00  -7.9615900346925397e+00  -7.8721658705601456e+00  -7.7828326057353294e+00  -7.6959082699138239e+00  -7.6136543524931213e+00  -7.5382244445388169e+00  -7.4716112919239057e+00  -7.4155921625482044e+00  -7.3716715592924293e+00  -7.3410128322694179e+00  -7.3243123004439505e+00  -7.3213765805076880e+00  -8.4881760832629674e+00  -8.4851684227704478e+00  -8.4663716591493454e+00  -8.4317733662214618e+00  -8.3822981607452345e+00  -8.3193586987001726e+00  -8.2447229434787612e+00  -8.1604379542199208e+00  -8.0687650987681607e+00  -7.9721198719556465e+00  -7.8730156493838797e+00  -7.7740107067759832e+00  -7.6776569871249984e+00  -7.5864485836975000e+00  -7.5027679937585372e+00  -7.4288288477388598e+00  -7.3666146409697877e+00  -7.3178124996795111e+00  -7.2837332052443902e+00  -7.2651668723642828e+00  -7.2619095258636275e+00  -8.5554221064078213e+00  -8.5520613040607945e+00  -8.5311557556811266e+00  -8.4927133928515914e+00  -8.4377897876452632e+00  -8.3679820234123863e+00  -8.2852745618549584e+00  -8.1919492472386235e+00  -8.0905105807442474e+00  -7.9836192649217690e+00  -7.8740331362780411e+00  -7.7645540053260866e+00  -7.6579775787402120e+00  -7.5570428781573193e+00  -7.4643776898933023e+00  -7.3824375396936661e+00  -7.3134370562504039e+00  -7.2592726874415829e+00  -7.2214278135463710e+00  -7.2008054581261849e+00  -7.1971965300136791e+00  -8.6281144065301039e+00  -8.6243607368541380e+00  -8.6011380851621073e+00  -8.5584866774190704e+00  -8.4976199852363692e+00  -8.4203516516367891e+00  -8.3289139293444077e+00  -8.2258496739741265e+00  -8.1139254336854147e+00  -7.9960585325634312e+00  -7.8752567875144202e+00  -7.7545680450178942e+00  -7.6370347480187100e+00  -7.5256476871387523e+00  -7.4232932482316052e+00  -7.3326898050108982e+00  -7.2563109884897843e+00  -7.1962945593041319e+00  -7.1543279528541923e+00  -7.1314517775101285e+00  -7.1274604059169828e+00  -8.7059097299733406e+00  -8.7017208138025683e+00  -8.6759633333564832e+00  -8.6287274315344948e+00  -8.5614201223710129e+00  -8.4761126065060939e+00  -8.3753227932184657e+00  -8.2618834279914513e+00  -8.1388401765669460e+00  -8.0093724470615868e+00  -7.8767345909128990e+00  -7.7442125331142684e+00  -7.6150881803567714e+00  -7.4926025884705201e+00  -7.3799090632677249e+00  -7.2800091043684292e+00  -7.1956670326993155e+00  -7.1293013870204760e+00  -7.0828443664395220e+00  -7.0575072654252997e+00  -7.0531013686028512e+00  -8.7882342989185709e+00  -8.7835643984482186e+00  -8.7550420684853059e+00  -8.7028338238593577e+00  -8.6285890448618439e+00  -8.5346905033524507e+00  -8.4239888031553551e+00  -8.2996386223178220e+00  -8.1649784673725438e+00  -8.0234462565633606e+00  -7.8785263595209276e+00  -7.7337197898919179e+00  -7.5925258785868355e+00  -7.4584221596845790e+00  -7.3348294050255864e+00  -7.2250507726328390e+00  -7.1321777989770494e+00  -7.0589597900295473e+00  -7.0076280385986625e+00  -6.9796103911547043e+00  -6.9747560327273632e+00  -8.8742126584987435e+00  -8.8690114743342008e+00  -8.8374765138517670e+00  -8.7798909480919374e+00  -8.6982154125773139e+00  -8.5952173003027053e+00  -8.4741395252826486e+00  -8.3384941846930687e+00  -8.1919205747968231e+00  -8.0380981994683580e+00  -7.8807064635421247e+00  -7.7234175922090831e+00  -7.5699057122912432e+00  -7.4238534993615275e+00  -7.2889379457149364e+00  -7.1687787462580967e+00  -7.0668369968648959e+00  -6.9862573840719362e+00  -6.9296446468693613e+00  -6.8987084785737505e+00  -6.8933686688643574e+00  -8.9625816293598302e+00  -8.9567921925595471e+00  -8.9219691415142268e+00  -8.8585745666974862e+00  -8.7689799680580354e+00  -8.6564380017514289e+00  -8.5246601452714508e+00  -8.3775542713344269e+00  -8.2190586397770620e+00  -8.0530581256644727e+00  -7.8833669465879677e+00  -7.7137567348720131e+00  -7.5480061328887782e+00  -7.3899472942256317e+00  -7.2434846372506438e+00  -7.1125621628553954e+00  -7.0010590625833258e+00  -6.9125998080901176e+00  -6.8502662304208624e+00  -6.8161449526757147e+00  -6.8102775119358370e+00  -9.0515858651591330e+00  -9.0451408152146797e+00  -9.0067092007902314e+00  -8.9370299612837893e+00  -8.8390323770120371e+00  -8.7165943252314531e+00  -8.5739926705413154e+00  -8.4155695166809856e+00  -8.2455438305209849e+00  -8.0679423800549674e+00  -7.8866208263402440e+00  -7.7053428460422291e+00  -7.5278858873153034e+00  -7.3581433636000977e+00  -7.2001926330640273e+00  -7.0582964050345272e+00  -6.9368051446845103e+00  -6.8399330345967302e+00  -6.7713850890393728e+00  -6.7337660388705389e+00  -6.7273199358970714e+00  -9.1388499655997180e+00  -9.1316649298103929e+00  -9.0892298036752308e+00  -9.0127177492410659e+00  -8.9058359272352163e+00  -8.7732817005359873e+00  -8.6200162813743049e+00  -8.4508469447740566e+00  -8.2702277109826721e+00  -8.0822262657733450e+00  -7.8906051067467597e+00  -7.6989703524367901e+00  -7.5109500659902482e+00  -7.3303691215046438e+00  -7.1613864389966073e+00  -7.0085533308938937e+00  -6.8767431189558064e+00  -6.7708996265211292e+00  -6.6955575282765878e+00  -6.6540529415576160e+00  -6.6469621642237984e+00  -9.2212191857810488e+00  -9.2131807922721709e+00  -9.1662235144269371e+00  -9.0822144521719483e+00  -8.9659720181425211e+00  -8.8232780203778880e+00  -8.6599130010082863e+00  -8.4811556222104532e+00  -8.2916044504137059e+00  -8.0952175959840211e+00  -7.8954825609863617e+00  -7.6956534443600786e+00  -7.4990149252204557e+00  -7.3091440285478413e+00  -7.1301384480272096e+00  -6.9667643625522135e+00  -6.8244517077900415e+00  -6.7090423169945952e+00  -6.6261899171880154e+00  -6.5802893106106932e+00  -6.5724626884229576e+00  -9.2945551870660577e+00  -9.2854985679210316e+00  -9.2332953211403961e+00  -9.1409489654943332e+00  -9.0148960190959908e+00  -8.8623486057071723e+00  -8.6900325409743768e+00  -8.5036450534123578e+00  -8.3077680539530867e+00  -8.1060385551859202e+00  -7.9014406202101020e+00  -7.6966437766465550e+00  -7.4943552024112581e+00  -7.2976726365152675e+00  -7.1104218622010693e+00  -6.9374357771837145e+00  -6.7846813503086212e+00  -6.6590764497677899e+00  -6.5677889162770544e+00  -6.5167812114975820e+00  -6.5080853932155716e+00  -9.3534623220442921e+00  -9.3431262201928469e+00  -9.2846138609751474e+00  -9.1828460438171859e+00  -9.0466400256372506e+00  -8.8850468682599502e+00  -8.7057892578933487e+00  -8.5148104323715845e+00  -8.3164106936830198e+00  -8.1136286749420616e+00  -7.9086847402700977e+00  -7.7034170113171285e+00  -7.4997035503307572e+00  -7.2998899503136299e+00  -7.1072388170294287e+00  -6.9263831437821493e+00  -6.7636851970226903e+00  -6.6272667769278826e+00  -6.5263165924098381e+00  -6.4691619193642573e+00  -6.4593921861154771e+00  -9.3908981188027436e+00  -9.3788267868570276e+00  -9.3123857782743276e+00  -9.1998362191174845e+00  -9.0534760270290917e+00  -8.8845644122413923e+00  -8.7016589801448401e+00  -8.5105653829397596e+00  -8.3149044080404071e+00  -8.1167887771893970e+00  -7.9174226612141911e+00  -7.7176008235757303e+00  -7.5181518198697965e+00  -7.3203916730549636e+00  -7.1266545129665619e+00  -6.9409398839813772e+00  -6.7696249631723520e+00  -6.6219665634020775e+00  -6.5097304996128775e+00  -6.4448464523349154e+00  -6.4336742804127436e+00  -9.3975769499958499e+00  -9.3828802249125047e+00  -9.3060084954362381e+00  -9.1811925555377574e+00  -9.0256111996602524e+00  -8.8527569435698794e+00  -8.6714009517594643e+00  -8.4865174423147476e+00  -8.3005250658751635e+00  -8.1142917665910854e+00  -7.9278356363202764e+00  -7.7408091751006278e+00  -7.5528821529396701e+00  -7.3641373009758002e+00  -7.1755980796547085e+00  -6.9900167626391347e+00  -6.8130124085666584e+00  -6.6544056136922638e+00  -6.5288741872721285e+00  -6.4537772228016923e+00  -6.4406485853267466e+00  -9.3609760310626360e+00  -9.3416786160211807e+00  -9.2506415102108512e+00  -9.1127303238583544e+00  -8.9511484342883829e+00  -8.7806114705635938e+00  -8.6087092830880128e+00  -8.4385713962708433e+00  -8.2708820393088018e+00  -8.1050843721697028e+00  -7.9400336425257052e+00  -7.7743499098513418e+00  -7.6066465330851223e+00  -7.4357680526867407e+00  -7.2611791033999413e+00  -7.0837110455572221e+00  -6.9069832296192164e+00  -6.7398065339794657e+00  -6.5990734346348070e+00  -6.5098035520579112e+00  -6.4937183853689966e+00  -9.2634438913783868e+00  -9.2346722112140132e+00  -9.1248611973443552e+00  -8.9762691537004073e+00  -8.8169328548979191e+00  -8.6596395243726025e+00  -8.5085629514635706e+00  -8.3639702358654251e+00  -8.2245814780136204e+00  -8.0885801886074571e+00  -7.9539919982975533e+00  -7.8187968682161717e+00  -7.6809461437756612e+00  -7.5383802570505001e+00  -7.3891480304383972e+00  -7.2318239596433784e+00  -7.0666790718823727e+00  -6.8986052741022430e+00  -6.7431651881878665e+00  -6.6336566887912980e+00  -6.6126140210127780e+00  -9.0774735313201234e+00  -9.0271884023936710e+00  -8.8976933851929534e+00  -8.7509897409630693e+00  -8.6116440309562883e+00  -8.4848709399744600e+00  -8.3694575314551169e+00  -8.2627305679056455e+00  -8.1620243095935603e+00  -8.0649711506424318e+00  -7.9694519203883907e+00  -7.8734627774444368e+00  -7.7749644873401120e+00  -7.6717245748938732e+00  -7.5611604477170156e+00  -7.4402448259108773e+00  -7.3057491269898653e+00  -7.1558572934979452e+00  -6.9966521650727671e+00  -6.8607771858114326e+00  -6.8300072285097393e+00  -8.7476011705188341e+00  -8.6543462954294892e+00  -8.5296212944867431e+00  -8.4213939003389324e+00  -8.3332017381360526e+00  -8.2597238108666193e+00  -8.1961058710096069e+00  -8.1389525571088708e+00  -8.0859180444121606e+00  -8.0352809705771318e+00  -7.9856549845997051e+00  -7.9357911027752266e+00  -7.8844191812882842e+00  -7.8300837460402839e+00  -7.7709249167337884e+00  -7.7043314219123369e+00  -7.6263569260471344e+00  -7.5308818745841739e+00  -7.4097514014189567e+00  -7.2649523609688691e+00  -7.2133933447566516e+00  -8.0000000000000000e+00  -8.0000000000000000e+00  -8.0000000000000000e+00  -8.0000000000000000e+00  -8.0000000000000000e+00  -8.0000000000000000e+00  -8.0000000000000000e+00  -8.0000000000000000e+00  -8.0000000000000000e+00  -8.0000000000000000e+00  -8.0000000000000000e+00  -8.0000000000000000e+00  -8.0000000000000000e+00  -8.0000000000000000e+00  -8.0000000000000000e+00  -8.0000000000000000e+00  -8.0000000000000000e+00  -8.0000000000000000e+00  -8.0000000000000000e+00  -8.0000000000000000e+00  -8.0000000000000000e+00  </DataArray> 
</PointData> 
</Piece>
</UnstructuredGrid>
</VTKFile>