<?xml version="1.0"?>
<VTKFile type="UnstructuredGrid"  version="0.1"  >
<UnstructuredGrid>
<Piece  NumberOfPoints="651" NumberOfCells="1200">
<Points>
<DataArray  type="Float64"  NumberOfComponents="3"  format="ascii">0 0 0  50000 0 0  100000 0 0  150000 0 0  200000 0 0  250000 0 0  300000 0 0  350000 0 0  400000 0 0  450000 0 0  500000 0 0  550000 0 0  600000 0 0  650000 0 0  700000 0 0  750000 0 0  800000 0 0  850000 0 0  900000 0 0  950000 0 0  1000000 0 0  0 50000 0  50000 50000 0  100000 50000 0  150000 50000 0  200000 50000 0  250000 50000 0  300000 50000 0  350000 50000 0  400000 50000 0  450000 50000 0  500000 50000 0  550000 50000 0  600000 50000 0  650000 50000 0  700000 50000 0  750000 50000 0  800000 50000 0  850000 50000 0  900000 50000 0  950000 50000 0  1000000 50000 0  0 100000 0  50000 100000 0  100000 100000 0  150000 100000 0  200000 100000 0  250000 100000 0  300000 100000 0  350000 100000 0  400000 100000 0  450000 100000 0  500000 100000 0  550000 100000 0  600000 100000 0  650000 100000 0  700000 100000 0  750000 100000 0  800000 100000 0  850000 100000 0  900000 100000 0  950000 100000 0  1000000 100000 0  0 150000 0  50000 150000 0  100000 150000 0  150000 150000 0  200000 150000 0  250000 150000 0  300000 150000 0  350000 150000 0  400000 150000 0  450000 150000 0  500000 150000 0  550000 150000 0  600000 150000 0  650000 150000 0  700000 150000 0  750000 150000 0  800000 150000 0  850000 150000 0  900000 150000 0  950000 150000 0  1000000 150000 0  0 200000 0  50000 200000 0  100000 200000 0  150000 200000 0  200000 200000 0  250000 200000 0  300000 200000 0  350000 200000 0  400000 200000 0  450000 200000 0  500000 200000 0  550000 200000 0  600000 200000 0  650000 200000 0  700000 200000 0  750000 200000 0  800000 200000 0  850000 200000 0  900000 200000 0  950000 200000 0  1000000 200000 0  0 250000 0  50000 250000 0  100000 250000 0  150000 250000 0  200000 250000 0  250000 250000 0  300000 250000 0  350000 250000 0  400000 250000 0  450000 250000 0  500000 250000 0  550000 250000 0  600000 250000 0  650000 250000 0  700000 250000 0  750000 250000 0  800000 250000 0  850000 250000 0  900000 250000 0  950000 250000 0  1000000 250000 0  0 300000 0  50000 300000 0  100000 300000 0  150000 300000 0  200000 300000 0  250000 300000 0  300000 300000 0  350000 300000 0  400000 300000 0  450000 300000 0  500000 300000 0  550000 300000 0  600000 300000 0  650000 300000 0  700000 300000 0  750000 300000 0  800000 300000 0  850000 300000 0  900000 300000 0  950000 300000 0  1000000 300000 0  0 350000 0  50000 350000 0  100000 350000 0  150000 350000 0  200000 350000 0  250000 350000 0  300000 350000 0  350000 350000 0  400000 350000 0  450000 350000 0  500000 350000 0  550000 350000 0  600000 350000 0  650000 350000 0  700000 350000 0  750000 350000 0  800000 350000 0  850000 350000 0  900000 350000 0  950000 350000 0  1000000 350000 0  0 400000 0  50000 400000 0  100000 400000 0  150000 400000 0  200000 400000 0  250000 400000 0  300000 400000 0  350000 400000 0  400000 400000 0  450000 400000 0  500000 400000 0  550000 400000 0  600000 400000 0  650000 400000 0  700000 400000 0  750000 400000 0  800000 400000 0  850000 400000 0  900000 400000 0  950000 400000 0  1000000 400000 0  0 450000 0  50000 450000 0  100000 450000 0  150000 450000 0  200000 450000 0  250000 450000 0  300000 450000 0  350000 450000 0  400000 450000 0  450000 450000 0  500000 450000 0  550000 450000 0  600000 450000 0  650000 450000 0  700000 450000 0  750000 450000 0  800000 450000 0  850000 450000 0  900000 450000 0  950000 450000 0  1000000 450000 0  0 500000 0  50000 500000 0  100000 500000 0  150000 500000 0  200000 500000 0  250000 500000 0  300000 500000 0  350000 500000 0  400000 500000 0  450000 500000 0  500000 500000 0  550000 500000 0  600000 500000 0  650000 500000 0  700000 500000 0  750000 500000 0  800000 500000 0  850000 500000 0  900000 500000 0  950000 500000 0  1000000 500000 0  0 550000 0  50000 550000 0  100000 550000 0  150000 550000 0  200000 550000 0  250000 550000 0  300000 550000 0  350000 550000 0  400000 550000 0  450000 550000 0  500000 550000 0  550000 550000 0  600000 550000 0  650000 550000 0  700000 550000 0  750000 550000 0  800000 550000 0  850000 550000 0  900000 550000 0  950000 550000 0  1000000 550000 0  0 600000 0  50000 600000 0  100000 600000 0  150000 600000 0  200000 600000 0  250000 600000 0  300000 600000 0  350000 600000 0  400000 600000 0  450000 600000 0  500000 600000 0  550000 600000 0  600000 600000 0  650000 600000 0  700000 600000 0  750000 600000 0  800000 600000 0  850000 600000 0  900000 600000 0  950000 600000 0  1000000 600000 0  0 650000 0  50000 650000 0  100000 650000 0  150000 650000 0  200000 650000 0  250000 650000 0  300000 650000 0  350000 650000 0  400000 650000 0  450000 650000 0  500000 650000 0  550000 650000 0  600000 650000 0  650000 650000 0  700000 650000 0  750000 650000 0  800000 650000 0  850000 650000 0  900000 650000 0  950000 650000 0  1000000 650000 0  0 700000 0  50000 700000 0  100000 700000 0  150000 700000 0  200000 700000 0  250000 700000 0  300000 700000 0  350000 700000 0  400000 700000 0  450000 700000 0  500000 700000 0  550000 700000 0  600000 700000 0  650000 700000 0  700000 700000 0  750000 700000 0  800000 700000 0  850000 700000 0  900000 700000 0  950000 700000 0  1000000 700000 0  0 750000 0  50000 750000 0  100000 750000 0  150000 750000 0  200000 750000 0  250000 750000 0  300000 750000 0  350000 750000 0  400000 750000 0  450000 750000 0  500000 750000 0  550000 750000 0  600000 750000 0  650000 750000 0  700000 750000 0  750000 750000 0  800000 750000 0  850000 750000 0  900000 750000 0  950000 750000 0  1000000 750000 0  0 800000 0  50000 800000 0  100000 800000 0  150000 800000 0  200000 800000 0  250000 800000 0  300000 800000 0  350000 800000 0  400000 800000 0  450000 800000 0  500000 800000 0  550000 800000 0  600000 800000 0  650000 800000 0  700000 800000 0  750000 800000 0  800000 800000 0  850000 800000 0  900000 800000 0  950000 800000 0  1000000 800000 0  0 850000 0  50000 850000 0  100000 850000 0  150000 850000 0  200000 850000 0  250000 850000 0  300000 850000 0  350000 850000 0  400000 850000 0  450000 850000 0  500000 850000 0  550000 850000 0  600000 850000 0  650000 850000 0  700000 850000 0  750000 850000 0  800000 850000 0  850000 850000 0  900000 850000 0  950000 850000 0  1000000 850000 0  0 900000 0  50000 900000 0  100000 900000 0  150000 900000 0  200000 900000 0  250000 900000 0  300000 900000 0  350000 900000 0  400000 900000 0  450000 900000 0  500000 900000 0  550000 900000 0  600000 900000 0  650000 900000 0  700000 900000 0  750000 900000 0  800000 900000 0  850000 900000 0  900000 900000 0  950000 900000 0  1000000 900000 0  0 950000 0  50000 950000 0  100000 950000 0  150000 950000 0  200000 950000 0  250000 950000 0  300000 950000 0  350000 950000 0  400000 950000 0  450000 950000 0  500000 950000 0  550000 950000 0  600000 950000 0  650000 950000 0  700000 950000 0  750000 950000 0  800000 950000 0  850000 950000 0  900000 950000 0  950000 950000 0  1000000 950000 0  0 1000000 0  50000 1000000 0  100000 1000000 0  150000 1000000 0  200000 1000000 0  250000 1000000 0  300000 1000000 0  350000 1000000 0  400000 1000000 0  450000 1000000 0  500000 1000000 0  550000 1000000 0  600000 1000000 0  650000 1000000 0  700000 1000000 0  750000 1000000 0  800000 1000000 0  850000 1000000 0  900000 1000000 0  950000 1000000 0  1000000 1000000 0  0 1050000 0  50000 1050000 0  100000 1050000 0  150000 1050000 0  200000 1050000 0  250000 1050000 0  300000 1050000 0  350000 1050000 0  400000 1050000 0  450000 1050000 0  500000 1050000 0  550000 1050000 0  600000 1050000 0  650000 1050000 0  700000 1050000 0  750000 1050000 0  800000 1050000 0  850000 1050000 0  900000 1050000 0  950000 1050000 0  1000000 1050000 0  0 1100000 0  50000 1100000 0  100000 1100000 0  150000 1100000 0  200000 1100000 0  250000 1100000 0  300000 1100000 0  350000 1100000 0  400000 1100000 0  450000 1100000 0  500000 1100000 0  550000 1100000 0  600000 1100000 0  650000 1100000 0  700000 1100000 0  750000 1100000 0  800000 1100000 0  850000 1100000 0  900000 1100000 0  950000 1100000 0  1000000 1100000 0  0 1150000 0  50000 1150000 0  100000 1150000 0  150000 1150000 0  200000 1150000 0  250000 1150000 0  300000 1150000 0  350000 1150000 0  400000 1150000 0  450000 1150000 0  500000 1150000 0  550000 1150000 0  600000 1150000 0  650000 1150000 0  700000 1150000 0  750000 1150000 0  800000 1150000 0  850000 1150000 0  900000 1150000 0  950000 1150000 0  1000000 1150000 0  0 1200000 0  50000 1200000 0  100000 1200000 0  150000 1200000 0  200000 1200000 0  250000 1200000 0  300000 1200000 0  350000 1200000 0  400000 1200000 0  450000 1200000 0  500000 1200000 0  550000 1200000 0  600000 1200000 0  650000 1200000 0  700000 1200000 0  750000 1200000 0  800000 1200000 0  850000 1200000 0  900000 1200000 0  950000 1200000 0  1000000 1200000 0  0 1250000 0  50000 1250000 0  100000 1250000 0  150000 1250000 0  200000 1250000 0  250000 1250000 0  300000 1250000 0  350000 1250000 0  400000 1250000 0  450000 1250000 0  500000 1250000 0  550000 1250000 0  600000 1250000 0  650000 1250000 0  700000 1250000 0  750000 1250000 0  800000 1250000 0  850000 1250000 0  900000 1250000 0  950000 1250000 0  1000000 1250000 0  0 1300000 0  50000 1300000 0  100000 1300000 0  150000 1300000 0  200000 1300000 0  250000 1300000 0  300000 1300000 0  350000 1300000 0  400000 1300000 0  450000 1300000 0  500000 1300000 0  550000 1300000 0  600000 1300000 0  650000 1300000 0  700000 1300000 0  750000 1300000 0  800000 1300000 0  850000 1300000 0  900000 1300000 0  950000 1300000 0  1000000 1300000 0  0 1350000 0  50000 1350000 0  100000 1350000 0  150000 1350000 0  200000 1350000 0  250000 1350000 0  300000 1350000 0  350000 1350000 0  400000 1350000 0  450000 1350000 0  500000 1350000 0  550000 1350000 0  600000 1350000 0  650000 1350000 0  700000 135
[...]
<PointData  Scalars="f_4491"> 
<DataArray  type="Float64"  Name="f_4491"  format="ascii">-8.0868980783065663e+00  -8.0856838740966612e+00  -8.0796992261205904e+00  -8.0689254734469280e+00  -8.0536412927150121e+00  -8.0342528944335125e+00  -8.0112751432463654e+00  -7.9853168425674665e+00  -7.9570643655831264e+00  -7.9272633194162525e+00  -7.8966987010610081e+00  -7.8661740823133801e+00  -7.8364903660361724e+00  -7.8084246622877016e+00  -7.7827098535395978e+00  -7.7600154958635663e+00  -7.7409309980271050e+00  -7.7259529445357282e+00  -7.7154795297636172e+00  -7.7097909900466330e+00  -7.7085631507380565e+00  -8.0880604957139894e+00  -8.0868728778481742e+00  -8.0808021368725047e+00  -8.0699565593195430e+00  -8.0545924163333940e+00  -8.0351083534809611e+00  -8.0120174056656399e+00  -7.9859293423272799e+00  -7.9575329281827623e+00  -7.9275769609719777e+00  -7.8968501032066403e+00  -7.8661598562076325e+00  -7.8363111452877101e+00  -7.8080850274651761e+00  -7.7822180505737411e+00  -7.7593827966034219e+00  -7.7401700718594943e+00  -7.7250726449546390e+00  -7.7144673677414941e+00  -7.7085785073087809e+00  -7.7073505358279739e+00  -8.0936903515343914e+00  -8.0925846479442356e+00  -8.0863736817267657e+00  -8.0752003585224212e+00  -8.0593716017766557e+00  -8.0393063828301567e+00  -8.0155331988458336e+00  -7.9886782236093108e+00  -7.9594488147647215e+00  -7.9286143363644053e+00  -7.8969853889344304e+00  -7.8653921154644308e+00  -7.8346621215486421e+00  -7.8055985313133327e+00  -7.7789587156693720e+00  -7.7554342639786524e+00  -7.7356328247250312e+00  -7.7200624472793216e+00  -7.7091184358698159e+00  -7.7030669346082394e+00  -7.7019658649166978e+00  -8.1037172976635059e+00  -8.1026231989520117e+00  -8.0961784407438078e+00  -8.0844732797558905e+00  -8.0678459852072208e+00  -8.0467541083165059e+00  -8.0217612921864827e+00  -7.9935288352597693e+00  -7.9628010406373910e+00  -7.9303863671800237e+00  -7.8971362023674905e+00  -7.8639223649764318e+00  -7.8316141012919722e+00  -7.8010552144101819e+00  -7.7730419624470102e+00  -7.7483024473667577e+00  -7.7274783898793835e+00  -7.7111102791096435e+00  -7.6996254018675234e+00  -7.6933157450124883e+00  -7.6922132570576629e+00  -8.1179855059784334e+00  -8.1168593890029328e+00  -8.1100468307208526e+00  -8.0975923998012878e+00  -8.0798476526536813e+00  -8.0573095254158016e+00  -8.0305892232608489e+00  -8.0003993944118985e+00  -7.9675388808095828e+00  -7.9328734788152397e+00  -7.8973139620308217e+00  -7.8617925577251135e+00  -7.8272387793140972e+00  -7.7945553675144934e+00  -7.7645950708484266e+00  -7.7381390673371362e+00  -7.7158779069973145e+00  -7.6983954741568787e+00  -7.6861532948924909e+00  -7.6794556282411026e+00  -7.6782909335693637e+00  -8.1364062124179366e+00  -8.1352153379747456e+00  -8.1278956829541524e+00  -8.1144614162262130e+00  -8.0952775202313045e+00  -8.0708815736940647e+00  -8.0419406386257908e+00  -8.0092319711282833e+00  -7.9736248497950264e+00  -7.9360596517530091e+00  -7.8975244446843194e+00  -7.8590300106646609e+00  -7.8215841721952293e+00  -7.7861661963429265e+00  -7.7537020255926201e+00  -7.7250411016012359e+00  -7.7009354566716173e+00  -7.6820209214600572e+00  -7.6687961836168252e+00  -7.6615771380264883e+00  -7.6603170965476330e+00  -8.1589528438843377e+00  -8.1576693258248252e+00  -8.1497044960063665e+00  -8.1350537977787098e+00  -8.1141028765481522e+00  -8.0874357980193761e+00  -8.0557840592102945e+00  -8.0200016048708704e+00  -7.9810428277090084e+00  -7.9399389555345863e+00  -7.8977724759044392e+00  -7.8556501891325201e+00  -7.8146756146035061e+00  -7.7759214519862407e+00  -7.7404027806293234e+00  -7.7090516588427347e+00  -7.6826935852219602e+00  -7.6620252447820443e+00  -7.6475885009204934e+00  -7.6397165237065821e+00  -7.6383361649821673e+00  -8.1856482615340678e+00  -8.1842462514289274e+00  -8.1754993199579236e+00  -8.1593917909942135e+00  -8.1363393358686444e+00  -8.1069815236354472e+00  -8.0721245254086185e+00  -8.0327113168110706e+00  -7.9897956891387540e+00  -7.9445153827429671e+00  -7.8980637769604458e+00  -7.8516605092522553e+00  -7.8065215746001604e+00  -7.7638294658372011e+00  -7.7247039117700993e+00  -7.6901737478990988e+00  -7.6611502390477373e+00  -7.6384010930652373e+00  -7.6225197681528112e+00  -7.6138644294731188e+00  -7.6123411946803596e+00  -8.2165505931473550e+00  -8.2150048966877467e+00  -8.2053384750834137e+00  -8.1875295616098605e+00  -8.1620337003287808e+00  -8.1295568423961324e+00  -8.0909917206827036e+00  -8.0473835413349786e+00  -7.9998999522702983e+00  -7.9498006069883376e+00  -7.8984057529741616e+00  -7.8470640997700229e+00  -7.7971203436012972e+00  -7.7498827204761955e+00  -7.7065909693176717e+00  -7.6683851020930902e+00  -7.6362752192461745e+00  -7.6111115683385959e+00  -7.5935491954399987e+00  -7.5839795590507224e+00  -7.5822915594209919e+00  -8.2517380467759711e+00  -8.2500233527091140e+00  -8.2392979584871302e+00  -8.2195377632558930e+00  -8.1912482744515192e+00  -8.1552139960098025e+00  -8.1124275446501830e+00  -8.0640505654789454e+00  -8.0113794388764941e+00  -7.9558110313023720e+00  -7.8988079784115524e+00  -7.8418636745623100e+00  -7.7864671476227052e+00  -7.7340679404693393e+00  -7.6860411417699348e+00  -7.6436527934684806e+00  -7.6080258535243237e+00  -7.5801059283711254e+00  -7.5606208503952796e+00  -7.5500039991370302e+00  -7.5481293646925387e+00  -8.2912921357778639e+00  -8.2893825236911933e+00  -8.2774552893668343e+00  -8.2554873912604378e+00  -8.2240449511850020e+00  -8.1840044520016288e+00  -8.1364731023310757e+00  -8.0827442305230637e+00  -8.0242582700176328e+00  -7.9625644398242699e+00  -7.8992826600169241e+00  -7.8360657645929894e+00  -7.7745619157196613e+00  -7.7163769828986526e+00  -7.6630366836645374e+00  -7.6159484681399521e+00  -7.5763632412013102e+00  -7.5453361662538843e+00  -7.5236803161451586e+00  -7.5118802066411803e+00  -7.5097967827281584e+00  -8.3352785513048548e+00  -8.3331471426757311e+00  -8.3198708771261565e+00  -8.2954314988253532e+00  -8.2604675184655871e+00  -8.2159624128753475e+00  -8.1631542534480577e+00  -8.1034843786433388e+00  -8.0385529339392825e+00  -7.9700761904577266e+00  -7.8998451939327907e+00  -7.8296856003804933e+00  -7.7614181785707554e+00  -7.6968192050473450e+00  -7.6375800254445032e+00  -7.5852653803730510e+00  -7.5412704306043139e+00  -7.5067757486751621e+00  -7.4826937340534201e+00  -7.4695703513809040e+00  -7.4672555418962592e+00  -8.3837248133111668e+00  -8.3813434990850055e+00  -8.3665660112712885e+00  -8.3393836035866098e+00  -8.3005208459940132e+00  -8.2510854614291684e+00  -8.1924646320521202e+00  -8.1262652326901961e+00  -8.0542629085363053e+00  -7.9783547239584394e+00  -7.9005148807393573e+00  -7.8227529900414403e+00  -7.7470737126465394e+00  -7.6754361768883701e+00  -7.6097116516907741e+00  -7.5516384637506171e+00  -7.5027737988091374e+00  -7.4644416563197034e+00  -7.4376701645831211e+00  -7.4230788798495082e+00  -7.4205095590850991e+00  -8.4365937238451156e+00  -8.4339329216620520e+00  -8.4174964557594070e+00  -8.3872916003935867e+00  -8.3441456240818237e+00  -8.2893109943567644e+00  -8.2243449154825790e+00  -8.1510387296560456e+00  -8.0713591720157449e+00  -7.9873960735607978e+00  -7.9013158462509043e+00  -7.8153195983857122e+00  -7.7316036675507798e+00  -7.6523197597249046e+00  -7.5795319769323495e+00  -7.5151687712025721e+00  -7.4609689440858329e+00  -7.4184209103732890e+00  -7.3886883018201575e+00  -7.3724792767959961e+00  -7.3696317159307325e+00  -8.4937515245816027e+00  -8.4907799153118759e+00  -8.4725204617830734e+00  -8.4390058400717312e+00  -8.3911871791809975e+00  -8.3304869407871891e+00  -8.2586569560184540e+00  -8.1776936713722321e+00  -8.0897698125826523e+00  -7.9971769907284980e+00  -7.9022782125056938e+00  -7.8074680964506449e+00  -7.7151370389201848e+00  -7.6276347418420496e+00  -7.5472286379036291e+00  -7.4760538006772270e+00  -7.4160525701117077e+00  -7.3689029281457987e+00  -7.3359287314632162e+00  -7.3179461285010241e+00  -7.3147958767304155e+00  -8.5549295154043925e+00  -8.5516136874628987e+00  -8.5313597971121293e+00  -8.4942397769026705e+00  -8.4413566195771548e+00  -8.3743350041432478e+00  -8.2951511658713226e+00  -8.2060293838697103e+00  -8.1093618327201913e+00  -8.0076462444445990e+00  -7.9034395621082005e+00  -7.7993237098149786e+00  -7.6978774739992648e+00  -7.6016474139003121e+00  -7.5131108700942608e+00  -7.4346255057053705e+00  -7.3683621255555316e+00  -7.3162193081742455e+00  -7.2797131326769629e+00  -7.2597937529425636e+00  -7.2563153898048993e+00  -8.6196777062864012e+00  -8.6159815936899591e+00  -8.5935521020269885e+00  -8.5525212217125723e+00  -8.4941821763246388e+00  -8.4204043210974699e+00  -8.3334252894998411e+00  -8.2357224164095033e+00  -8.1299181593287138e+00  -8.0187136144020972e+00  -7.9048467320633273e+00  -7.7910687228851723e+00  -7.6801294879824527e+00  -7.5747616508088953e+00  -7.4776529270668499e+00  -7.3913981668667521e+00  -7.3184253709548246e+00  -7.2608930178452002e+00  -7.2205521162008903e+00  -7.1985228790929146e+00  -7.1946895130568791e+00  -8.6873088175120898e+00  -8.6831927423384219e+00  -8.6583924670850898e+00  -8.6131317155897769e+00  -8.5489480832592779e+00  -8.4680130288051725e+00  -8.3728724727625394e+00  -8.2662847451940724e+00  -8.1511088894760757e+00  -8.0302361195924217e+00  -7.9065579502447552e+00  -7.7829604402532313e+00  -7.6623311445086966e+00  -7.5475641611077382e+00  -7.4415487788004029e+00  -7.3471287603628177e+00  -7.2670226078532343e+00  -7.2036994994412913e+00  -7.1592038206085027e+00  -7.1348771742692261e+00  -7.1306594964922425e+00  -8.7568305454023019e+00  -8.7522495433147469e+00  -8.7248614792415200e+00  -8.6750307648550606e+00  -8.6046176555719107e+00  -8.5161748350209816e+00  -8.4126164882791823e+00  -8.2970121473161615e+00  -8.1724560689227381e+00  -8.0420011789894819e+00  -7.9086452723041711e+00  -7.7753528607391686e+00  -7.6450939505312778e+00  -7.5208803981987327e+00  -7.4057804666507216e+00  -7.3028929680693668e+00  -7.2152650789757082e+00  -7.1457430335363172e+00  -7.0967460672789793e+00  -7.0699119229811345e+00  -7.0652765209892037e+00  -8.8268633360670901e+00  -8.8217642053815393e+00  -8.7915358886106212e+00  -8.7367604740348472e+00  -8.6597363468333786e+00  -8.5635074483123788e+00  -8.4514323897167447e+00  -8.3269222041030169e+00  -8.1932920823744517e+00  -8.0537068256419921e+00  -7.9111971625776523e+00  -7.7687217014696115e+00  -7.6292498369738917e+00  -7.4958418692881654e+00  -7.3717022362867501e+00  -7.2601804276782191e+00  -7.1646941158960749e+00  -7.0885530070031759e+00  -7.0346660212502750e+00  -7.0050780274194073e+00  -6.9999844958111455e+00  -8.8955396903684107e+00  -8.8898557512704706e+00  -8.8564760867288879e+00  -8.7963241680303330e+00  -8.7123094971790440e+00  -8.6081200047132231e+00  -8.4876523122443377e+00  -8.3546833640433604e+00  -8.2127134768433070e+00  -8.0649400097187183e+00  -7.9143208489172281e+00  -7.7636911206883887e+00  -7.6159031344072226e+00  -7.4739636201938122e+00  -7.3411413847808369e+00  -7.2210129563506218e+00  -7.1174070703779551e+00  -7.0342069024884104e+00  -6.9749733518273382e+00  -6.9423260737419765e+00  -6.9367221772187460e+00  -8.9603787329521882e+00  -8.9540203503132219e+00  -8.9170809075265023e+00  -8.8510293870583201e+00  -8.7596484159664509e+00  -8.6474782354980189e+00  -8.5190596881564886e+00  -8.3785406260200777e+00  -8.2295354270628103e+00  -8.0751557505327352e+00  -7.9181437152188074e+00  -7.7610580950233743e+00  -7.6064816053688773e+00  -7.4572264546201676e+00  -7.3165135902072960e+00  -7.1880886399616761e+00  -7.0762179570575716e+00  -6.9854905339089521e+00  -6.9203467034135491e+00  -6.8842381846941887e+00  -6.8780518263279378e+00  -9.0181253741985046e+00  -9.0109621876904686e+00  -8.9698931238999950e+00  -8.8972804123802582e+00  -8.7981781563633650e+00  -8.6782508674482841e+00  -8.5427827603643038e+00  -8.3962512044779256e+00  -8.2422579921863370e+00  -8.0836628189390396e+00  -7.9228124287335451e+00  -7.7618063885707942e+00  -7.6027737395264650e+00  -7.4481502163577815e+00  -7.3009432970584207e+00  -7.1649512776219240e+00  -7.0448627570005060e+00  -6.9461124715092497e+00  -6.8743306753763775e+00  -6.8342012081108638e+00  -6.8273269951417559e+00  -9.0645347735546746e+00  -9.0563602652914827e+00  -9.0103248413398020e+00  -8.9302975764148798e+00  -8.8232034335723100e+00  -8.6961525498099892e+00  -8.5552132780475763e+00  -8.4050569974708065e+00  -8.2490646741027760e+00  -8.0896260266448898e+00  -7.9284877460855583e+00  -7.7670960552153190e+00  -7.6069284412838769e+00  -7.4498296225071501e+00  -7.2983646442455488e+00  -7.1561749175819962e+00  -7.0282599005727819e+00  -6.9210005765331468e+00  -6.8416153452785249e+00  -6.7966466773245209e+00  -6.7889228863123590e+00  -9.0940656306878385e+00  -9.0845197594696963e+00  -9.0322436639208039e+00  -8.9437313864176460e+00  -8.8286432604604403e+00  -8.6958255345288915e+00  -8.5520036442408127e+00  -8.4017415388462133e+00  -8.2478865257038922e+00  -8.0921007475788240e+00  -7.9353321934165066e+00  -7.7782069622177872e+00  -7.6213776009935765e+00  -7.4658796451359732e+00  -7.3135485421236366e+00  -7.1675280827991656e+00  -7.0328296408879893e+00  -6.9167262118868438e+00  -6.8284613282764166e+00  -6.7774086287440936e+00  -6.7685758246523422e+00  -9.0994106417009206e+00  -9.0877908063054296e+00  -9.0273057299250166e+00  -8.9291402160934883e+00  -8.8067906141020362e+00  -8.6708594476698284e+00  -8.5282410085005580e+00  -8.3828463608728594e+00  -8.2365781483113931e+00  -8.0901200453946345e+00  -7.9434875534605212e+00  -7.7964086775061823e+00  -7.6486249319279125e+00  -7.5002023918893617e+00  -7.3519464360793005e+00  -7.2060208355667790e+00  -7.0668414282050165e+00  -6.9421241883919516e+00  -6.8434004972127518e+00  -6.7843105244057744e+00  -6.7739313303009236e+00  -9.0707137277293199e+00  -9.0554626154488052e+00  -8.9838310318095953e+00  -8.8753597342095549e+00  -8.7482803423416602e+00  -8.6141579196918521e+00  -8.4789590808048221e+00  -8.3451452109910225e+00  -8.2132555213328100e+00  -8.0828533940998657e+00  -7.9530398294831341e+00  -7.8227308280568844e+00  -7.6908371298630378e+00  -7.5564513072116366e+00  -7.4191534799021346e+00  -7.2795979524111498e+00  -7.1406294886397923e+00  -7.0091706196014671e+00  -6.8984916546073665e+00  -6.8282509304610226e+00  -6.8155361726598134e+00  -8.9940797902531244e+00  -8.9713598140680979e+00  -8.8849569836069673e+00  -8.7680779318512734e+00  -8.6427534313745777e+00  -8.5190333843940547e+00  -8.4001994047227111e+00  -8.2864625938957257e+00  -8.1768177114812453e+00  -8.0698373390346614e+00  -7.9639696962979949e+00  -7.8576270146181111e+00  -7.7491991070871205e+00  -7.6370674379545260e+00  -7.5196990271410478e+00  -7.3959744483076513e+00  -7.2661076491756935e+00  -7.1339423600130942e+00  -7.0117021652984057e+00  -6.9255442992135521e+00  -6.9089161278073723e+00  -8.8478492332550669e+00  -8.8081902266429459e+00  -8.7063001512869622e+00  -8.5908990532796334e+00  -8.4812873294906019e+00  -8.3815610268823146e+00  -8.2907666144176808e+00  -8.2068030823447380e+00  -8.1275750088219798e+00  -8.0512210134034330e+00  -7.9760748394112913e+00  -7.9005608656366020e+00  -7.8230757512928157e+00  -7.7418644887260015e+00  -7.6548972574068017e+00  -7.5597952805864761e+00  -7.4540221553315247e+00  -7.3361513374603433e+00  -7.2109591356670375e+00  -7.1040772128239160e+00  -7.0797800950767815e+00  -8.5883298997854780e+00  -8.5148782938844239e+00  -8.4167417922095513e+00  -8.3316019347691199e+00  -8.2622206568277292e+00  -8.2044103956587318e+00  -8.1543545782991647e+00  -8.1093838137196048e+00  -8.0676535407205918e+00  -8.0278099618173506e+00  -7.9887626118130015e+00  -7.9495290445539490e+00  -7.9091102440773797e+00  -7.8663616072275424e+00  -7.8198208077001112e+00  -7.7674352023684179e+00  -7.7061033002786612e+00  -7.6310159874457710e+00  -7.5357627058816794e+00  -7.4218928074320649e+00  -7.3812411640995901e+00  -8.0000000000000000e+00  -8.0000000000000000e+00  -8.0000000000000000e+00  -8.0000000000000000e+00  -8.0000000000000000e+00  -8.0000000000000000e+00  -8.0000000000000000e+00  -8.0000000000000000e+00  -8.0000000000000000e+00  -8.0000000000000000e+00  -8.0000000000000000e+00  -8.0000000000000000e+00  -8.0000000000000000e+00  -8.0000000000000000e+00  -8.0000000000000000e+00  -8.0000000000000000e+00  -8.0000000000000000e+00  -8.0000000000000000e+00  -8.0000000000000000e+00  -8.0000000000000000e+00  -8.0000000000000000e+00  </DataArray> 
</PointData> 
</Piece>
</UnstructuredGrid>
</VTKFile>