<?xml version="1.0"?>
<VTKFile type="UnstructuredGrid"  version="0.1"  >
<UnstructuredGrid>
<Piece  NumberOfPoints="651" NumberOfCells="1200">
<Points>
<DataArray  type="Float64"  NumberOfComponents="3"  format="ascii">0 0 0  50000 0 0  100000 0 0  150000 0 0  200000 0 0  250000 0 0  300000 0 0  350000 0 0  400000 0 0  450000 0 0  500000 0 0  550000 0 0  600000 0 0  650000 0 0  700000 0 0  750000 0 0  800000 0 0  850000 0 0  900000 0 0  950000 0 0  1000000 0 0  0 50000 0  50000 50000 0  100000 50000 0  150000 50000 0  200000 50000 0  250000 50000 0  300000 50000 0  350000 50000 0  400000 50000 0  450000 50000 0  500000 50000 0  550000 50000 0  600000 50000 0  650000 50000 0  700000 50000 0  750000 50000 0  800000 50000 0  850000 50000 0  900000 50000 0  950000 50000 0  1000000 50000 0  0 100000 0  50000 100000 0  100000 100000 0  150000 100000 0  200000 100000 0  250000 100000 0  300000 100000 0  350000 100000 0  400000 100000 0  450000 100000 0  500000 100000 0  550000 100000 0  600000 100000 0  650000 100000 0  700000 100000 0  750000 100000 0  800000 100000 0  850000 100000 0  900000 100000 0  950000 100000 0  1000000 100000 0  0 150000 0  50000 150000 0  100000 150000 0  150000 150000 0  200000 150000 0  250000 150000 0  300000 150000 0  350000 150000 0  400000 150000 0  450000 150000 0  500000 150000 0  550000 150000 0  600000 150000 0  650000 150000 0  700000 150000 0  750000 150000 0  800000 150000 0  850000 150000 0  900000 150000 0  950000 150000 0  1000000 150000 0  0 200000 0  50000 200000 0  100000 200000 0  150000 200000 0  200000 200000 0  250000 200000 0  300000 200000 0  350000 200000 0  400000 200000 0  450000 200000 0  500000 200000 0  550000 200000 0  600000 200000 0  650000 200000 0  700000 200000 0  750000 200000 0  800000 200000 0  850000 200000 0  900000 200000 0  950000 200000 0  1000000 200000 0  0 250000 0  50000 250000 0  100000 250000 0  150000 250000 0  200000 250000 0  250000 250000 0  300000 250000 0  350000 250000 0  400000 250000 0  450000 250000 0  500000 250000 0  550000 250000 0  600000 250000 0  650000 250000 0  700000 250000 0  750000 250000 0  800000 250000 0  850000 250000 0  900000 250000 0  950000 250000 0  1000000 250000 0  0 300000 0  50000 300000 0  100000 300000 0  150000 300000 0  200000 300000 0  250000 300000 0  300000 300000 0  350000 300000 0  400000 300000 0  450000 300000 0  500000 300000 0  550000 300000 0  600000 300000 0  650000 300000 0  700000 300000 0  750000 300000 0  800000 300000 0  850000 300000 0  900000 300000 0  950000 300000 0  1000000 300000 0  0 350000 0  50000 350000 0  100000 350000 0  150000 350000 0  200000 350000 0  250000 350000 0  300000 350000 0  350000 350000 0  400000 350000 0  450000 350000 0  500000 350000 0  550000 350000 0  600000 350000 0  650000 350000 0  700000 350000 0  750000 350000 0  800000 350000 0  850000 350000 0  900000 350000 0  950000 350000 0  1000000 350000 0  0 400000 0  50000 400000 0  100000 400000 0  150000 400000 0  200000 400000 0  250000 400000 0  300000 400000 0  350000 400000 0  400000 400000 0  450000 400000 0  500000 400000 0  550000 400000 0  600000 400000 0  650000 400000 0  700000 400000 0  750000 400000 0  800000 400000 0  850000 400000 0  900000 400000 0  950000 400000 0  1000000 400000 0  0 450000 0  50000 450000 0  100000 450000 0  150000 450000 0  200000 450000 0  250000 450000 0  300000 450000 0  350000 450000 0  400000 450000 0  450000 450000 0  500000 450000 0  550000 450000 0  600000 450000 0  650000 450000 0  700000 450000 0  750000 450000 0  800000 450000 0  850000 450000 0  900000 450000 0  950000 450000 0  1000000 450000 0  0 500000 0  50000 500000 0  100000 500000 0  150000 500000 0  200000 500000 0  250000 500000 0  300000 500000 0  350000 500000 0  400000 500000 0  450000 500000 0  500000 500000 0  550000 500000 0  600000 500000 0  650000 500000 0  700000 500000 0  750000 500000 0  800000 500000 0  850000 500000 0  900000 500000 0  950000 500000 0  1000000 500000 0  0 550000 0  50000 550000 0  100000 550000 0  150000 550000 0  200000 550000 0  250000 550000 0  300000 550000 0  350000 550000 0  400000 550000 0  450000 550000 0  500000 550000 0  550000 550000 0  600000 550000 0  650000 550000 0  700000 550000 0  750000 550000 0  800000 550000 0  850000 550000 0  900000 550000 0  950000 550000 0  1000000 550000 0  0 600000 0  50000 600000 0  100000 600000 0  150000 600000 0  200000 600000 0  250000 600000 0  300000 600000 0  350000 600000 0  400000 600000 0  450000 600000 0  500000 600000 0  550000 600000 0  600000 600000 0  650000 600000 0  700000 600000 0  750000 600000 0  800000 600000 0  850000 600000 0  900000 600000 0  950000 600000 0  1000000 600000 0  0 650000 0  50000 650000 0  100000 650000 0  150000 650000 0  200000 650000 0  250000 650000 0  300000 650000 0  350000 650000 0  400000 650000 0  450000 650000 0  500000 650000 0  550000 650000 0  600000 650000 0  650000 650000 0  700000 650000 0  750000 650000 0  800000 650000 0  850000 650000 0  900000 650000 0  950000 650000 0  1000000 650000 0  0 700000 0  50000 700000 0  100000 700000 0  150000 700000 0  200000 700000 0  250000 700000 0  300000 700000 0  350000 700000 0  400000 700000 0  450000 700000 0  500000 700000 0  550000 700000 0  600000 700000 0  650000 700000 0  700000 700000 0  750000 700000 0  800000 700000 0  850000 700000 0  900000 700000 0  950000 700000 0  1000000 700000 0  0 750000 0  50000 750000 0  100000 750000 0  150000 750000 0  200000 750000 0  250000 750000 0  300000 750000 0  350000 750000 0  400000 750000 0  450000 750000 0  500000 750000 0  550000 750000 0  600000 750000 0  650000 750000 0  700000 750000 0  750000 750000 0  800000 750000 0  850000 750000 0  900000 750000 0  950000 750000 0  1000000 750000 0  0 800000 0  50000 800000 0  100000 800000 0  150000 800000 0  200000 800000 0  250000 800000 0  300000 800000 0  350000 800000 0  400000 800000 0  450000 800000 0  500000 800000 0  550000 800000 0  600000 800000 0  650000 800000 0  700000 800000 0  750000 800000 0  800000 800000 0  850000 800000 0  900000 800000 0  950000 800000 0  1000000 800000 0  0 850000 0  50000 850000 0  100000 850000 0  150000 850000 0  200000 850000 0  250000 850000 0  300000 850000 0  350000 850000 0  400000 850000 0  450000 850000 0  500000 850000 0  550000 850000 0  600000 850000 0  650000 850000 0  700000 850000 0  750000 850000 0  800000 850000 0  850000 850000 0  900000 850000 0  950000 850000 0  1000000 850000 0  0 900000 0  50000 900000 0  100000 900000 0  150000 900000 0  200000 900000 0  250000 900000 0  300000 900000 0  350000 900000 0  400000 900000 0  450000 900000 0  500000 900000 0  550000 900000 0  600000 900000 0  650000 900000 0  700000 900000 0  750000 900000 0  800000 900000 0  850000 900000 0  900000 900000 0  950000 900000 0  1000000 900000 0  0 950000 0  50000 950000 0  100000 950000 0  150000 950000 0  200000 950000 0  250000 950000 0  300000 950000 0  350000 950000 0  400000 950000 0  450000 950000 0  500000 950000 0  550000 950000 0  600000 950000 0  650000 950000 0  700000 950000 0  750000 950000 0  800000 950000 0  850000 950000 0  900000 950000 0  950000 950000 0  1000000 950000 0  0 1000000 0  50000 1000000 0  100000 1000000 0  150000 1000000 0  200000 1000000 0  250000 1000000 0  300000 1000000 0  350000 1000000 0  400000 1000000 0  450000 1000000 0  500000 1000000 0  550000 1000000 0  600000 1000000 0  650000 1000000 0  700000 1000000 0  750000 1000000 0  800000 1000000 0  850000 1000000 0  900000 1000000 0  950000 1000000 0  1000000 1000000 0  0 1050000 0  50000 1050000 0  100000 1050000 0  150000 1050000 0  200000 1050000 0  250000 1050000 0  300000 1050000 0  350000 1050000 0  400000 1050000 0  450000 1050000 0  500000 1050000 0  550000 1050000 0  600000 1050000 0  650000 1050000 0  700000 1050000 0  750000 1050000 0  800000 1050000 0  850000 1050000 0  900000 1050000 0  950000 1050000 0  1000000 1050000 0  0 1100000 0  50000 1100000 0  100000 1100000 0  150000 1100000 0  200000 1100000 0  250000 1100000 0  300000 1100000 0  350000 1100000 0  400000 1100000 0  450000 1100000 0  500000 1100000 0  550000 1100000 0  600000 1100000 0  650000 1100000 0  700000 1100000 0  750000 1100000 0  800000 1100000 0  850000 1100000 0  900000 1100000 0  950000 1100000 0  1000000 1100000 0  0 1150000 0  50000 1150000 0  100000 1150000 0  150000 1150000 0  200000 1150000 0  250000 1150000 0  300000 1150000 0  350000 1150000 0  400000 1150000 0  450000 1150000 0  500000 1150000 0  550000 1150000 0  600000 1150000 0  650000 1150000 0  700000 1150000 0  750000 1150000 0  800000 1150000 0  850000 1150000 0  900000 1150000 0  950000 1150000 0  1000000 1150000 0  0 1200000 0  50000 1200000 0  100000 1200000 0  150000 1200000 0  200000 1200000 0  250000 1200000 0  300000 1200000 0  350000 1200000 0  400000 1200000 0  450000 1200000 0  500000 1200000 0  550000 1200000 0  600000 1200000 0  650000 1200000 0  700000 1200000 0  750000 1200000 0  800000 1200000 0  850000 1200000 0  900000 1200000 0  950000 1200000 0  1000000 1200000 0  0 1250000 0  50000 1250000 0  100000 1250000 0  150000 1250000 0  200000 1250000 0  250000 1250000 0  300000 1250000 0  350000 1250000 0  400000 1250000 0  450000 1250000 0  500000 1250000 0  550000 1250000 0  600000 1250000 0  650000 1250000 0  700000 1250000 0  750000 1250000 0  800000 1250000 0  850000 1250000 0  900000 1250000 0  950000 1250000 0  1000000 1250000 0  0 1300000 0  50000 1300000 0  100000 1300000 0  150000 1300000 0  200000 1300000 0  250000 1300000 0  300000 1300000 0  350000 1300000 0  400000 1300000 0  450000 1300000 0  500000 1300000 0  550000 1300000 0  600000 1300000 0  650000 1300000 0  700000 1300000 0  750000 1300000 0  800000 1300000 0  850000 1300000 0  900000 1300000 0  950000 1300000 0  1000000 1300000 0  0 1350000 0  50000 1350000 0  100000 1350000 0  150000 1350000 0  200000 1350000 0  250000 1350000 0  300000 1350000 0  350000 1350000 0  400000 1350000 0  450000 1350000 0  500000 1350000 0  550000 1350000 0  600000 1350000 0  650000 1350000 0  700000 135
[...]
<PointData  Scalars="f_4491"> 
<DataArray  type="Float64"  Name="f_4491"  format="ascii">-8.1408724735323830e+00  -8.1389095272328706e+00  -8.1291861147814881e+00  -8.1116731575978509e+00  -8.0868265821544139e+00  -8.0553088197281504e+00  -8.0179581109279745e+00  -7.9757646783871703e+00  -7.9298442320741911e+00  -7.8814082938175432e+00  -7.8317320866676674e+00  -7.7821208589897628e+00  -7.7338755191188344e+00  -7.6882584654862551e+00  -7.6464605310839673e+00  -7.6095700896955112e+00  -7.5785458590920820e+00  -7.5541964651200608e+00  -7.5371716761578664e+00  -7.5279307457160503e+00  -7.5259424443594387e+00  -8.1427430651049431e+00  -8.1408239220564553e+00  -8.1309600929724581e+00  -8.1133309940167901e+00  -8.0883556615234209e+00  -8.0566840348422541e+00  -8.0191512677263148e+00  -7.9767490766739826e+00  -7.9305969953848985e+00  -7.8819116711704620e+00  -7.8319742240457693e+00  -7.7820962275294487e+00  -7.7335850658947001e+00  -7.6877094916452293e+00  -7.6456662359723371e+00  -7.6085485329362790e+00  -7.5773173055239500e+00  -7.5527748428650465e+00  -7.5355357686703739e+00  -7.5259671011697247e+00  -7.5239791355015306e+00  -8.1518824568777664e+00  -8.1500992442822646e+00  -8.1400090363312021e+00  -8.1218475406498509e+00  -8.0961170808442553e+00  -8.0635008894191582e+00  -8.0248593232133381e+00  -7.9812107743281588e+00  -7.9337049928900925e+00  -7.8835920446259973e+00  -7.8321886942878525e+00  -7.7808433018270744e+00  -7.7309001004288236e+00  -7.6836636969909033e+00  -7.6403646603457798e+00  -7.6021271206927761e+00  -7.5699393955574870e+00  -7.5446286700928766e+00  -7.5268397344622997e+00  -7.5170082095849668e+00  -7.5152303363889734e+00  -8.1681732648412702e+00  -8.1664113112542225e+00  -8.1559438777673012e+00  -8.1369192519436382e+00  -8.1098910154837558e+00  -8.0756056068612292e+00  -8.0349808084928132e+00  -7.9890922744413277e+00  -7.9391499063397131e+00  -7.8864673776727807e+00  -7.8324277914529956e+00  -7.7784472811551346e+00  -7.7259377951503447e+00  -7.6762700991756301e+00  -7.6307380250638381e+00  -7.5905251358522534e+00  -7.5566752634043564e+00  -7.5300685239559426e+00  -7.5114019534537482e+00  -7.5011532412354622e+00  -7.4993751286675154e+00  -8.1913569928613299e+00  -8.1895453841929200e+00  -8.1784830738148830e+00  -8.1582425555853941e+00  -8.1293987434761910e+00  -8.0927623817593695e+00  -8.0493288942379735e+00  -8.0002576493292690e+00  -7.9468473673473010e+00  -7.8905050339614560e+00  -7.8327103596317178e+00  -7.7749777291827771e+00  -7.7188171089747533e+00  -7.6656951316168067e+00  -7.6169975415987414e+00  -7.5739943017951425e+00  -7.5378087864962602e+00  -7.5093918508964252e+00  -7.4894963126974012e+00  -7.4786195122358867e+00  -7.4767420002890663e+00  -8.2212845607601039e+00  -8.2193702618912372e+00  -8.2074867014793664e+00  -8.1856559026911953e+00  -8.1544742661089895e+00  -8.1148187001925152e+00  -8.0677756679270356e+00  -8.0146097891156600e+00  -7.9567344528690818e+00  -7.8956779942240907e+00  -7.8330458427890992e+00  -7.7704801286657075e+00  -7.7096181581861840e+00  -7.6520510165525550e+00  -7.5992835089456214e+00  -7.5526966791311310e+00  -7.5135139899886685e+00  -7.4827708779894948e+00  -7.4612805886829818e+00  -7.4495590199531874e+00  -7.4475284205368348e+00  -8.2579083913718758e+00  -8.2558463694654023e+00  -8.2429172892077336e+00  -8.2191120405869462e+00  -8.1850603826264479e+00  -8.1417148303831759e+00  -8.0902667460889859e+00  -8.0321055783807154e+00  -7.9687832022035812e+00  -7.9019757138777642e+00  -7.8334420649564951e+00  -7.7649804803644455e+00  -7.6983838315868311e+00  -7.6353950984313208e+00  -7.5776640222616534e+00  -7.5267060158846233e+00  -7.4838640612728025e+00  -7.4502726014764136e+00  -7.4268150544543303e+00  -7.4140351241837177e+00  -7.4118111849756581e+00  -8.3012615543388044e+00  -8.2990101582355624e+00  -8.2848133432495903e+00  -8.2586434644377764e+00  -8.2211790059118375e+00  -8.1734627621665492e+00  -8.1168075881559272e+00  -8.0527477553903459e+00  -7.9829967750868969e+00  -7.9094038952776611e+00  -7.8339082962400859e+00  -7.7584915675995507e+00  -7.6851293501288245e+00  -7.6157430432832927e+00  -7.5521524728888112e+00  -7.4960303742691217e+00  -7.4488591846759551e+00  -7.4118888455442917e+00  -7.3860866475182982e+00  -7.3720367654566683e+00  -7.3695832142615787e+00  -8.3514346256857142e+00  -8.3489533142870300e+00  -8.3332659837376344e+00  -8.3043347740340625e+00  -8.2629030351891224e+00  -8.2101215686619486e+00  -8.1474440190697912e+00  -8.0765708718763829e+00  -7.9994006935947164e+00  -7.9179808272681322e+00  -7.8344565572518388e+00  -7.7510191318833055e+00  -7.6698532404495801e+00  -7.5930845357633228e+00  -7.5227278092604406e+00  -7.4606364472343660e+00  -7.4084535274049026e+00  -7.3675631850490024e+00  -7.3390328592280447e+00  -7.3235007912277403e+00  -7.3207824826851198e+00  -8.4085509272706478e+00  -8.4057990041449706e+00  -8.3883951448568652e+00  -8.3562974702886486e+00  -8.3103307072682977e+00  -8.2517734931547775e+00  -8.1822418988876855e+00  -8.1036256561971900e+00  -8.0180324768498199e+00  -7.9277325629081306e+00  -7.8351024170270804e+00  -7.7425682081911855e+00  -7.6525489655446135e+00  -7.5673997825333918e+00  -7.4893552481700283e+00  -7.4204734568947952e+00  -7.3625808573983678e+00  -7.3172165930131339e+00  -7.2855664843946490e+00  -7.2683369478941282e+00  -7.2653187991282469e+00  -8.4727392230461493e+00  -8.4696750290943577e+00  -8.4503232847014562e+00  -8.4146436629519918e+00  -8.3635596625258657e+00  -8.2984996149825250e+00  -8.2212659032468380e+00  -8.1339622172471717e+00  -8.0389302189123839e+00  -7.9386874609737568e+00  -7.8358657502313100e+00  -7.7331500282886845e+00  -7.6332175947931846e+00  -7.5386772729519862e+00  -7.4520081711228734e+00  -7.3754979929349904e+00  -7.3111810173457661e+00  -7.2607744451311955e+00  -7.2256027410300900e+00  -7.2064555356525100e+00  -7.2031020316491308e+00  -8.5441026321525246e+00  -8.5406829737837295e+00  -8.5191451105318183e+00  -8.4794563572438726e+00  -8.4226581813390187e+00  -8.3503530321298527e+00  -8.2645560186795972e+00  -8.1676112511419046e+00  -8.0621196868883676e+00  -7.9508699953386071e+00  -7.8367716475414628e+00  -7.7227899679304413e+00  -7.6118822842327543e+00  -7.5069339014901351e+00  -7.4106927045270883e+00  -7.3257017172558347e+00  -7.2542294808267513e+00  -7.1981969795480039e+00  -7.1590902206926597e+00  -7.1377988487274378e+00  -7.1340737878289495e+00  -8.6226823497722496e+00  -8.6188620536029497e+00  -8.5948918568761350e+00  -8.5507544093191701e+00  -8.4876314027547810e+00  -8.4073274430785450e+00  -8.3120999759674010e+00  -8.2045619292361689e+00  -8.0875990986181687e+00  -7.9642934689503813e+00  -7.8378515845391137e+00  -7.7115371004024862e+00  -7.5886055693039252e+00  -7.4722388651629803e+00  -7.3654767544331099e+00  -7.2711439546192365e+00  -7.1917720620118617e+00  -7.1295150748266494e+00  -7.0860471860355432e+00  -7.0623778052475945e+00  -7.0582441570509316e+00  -8.7084145941927247e+00  -8.7041461124582895e+00  -8.6774884685695675e+00  -8.6284502284027589e+00  -8.5583803660923063e+00  -8.4693189352207590e+00  -8.3637996355344608e+00  -8.2447348752882625e+00  -8.1153204975630491e+00  -7.9789511200032086e+00  -7.8391449277366867e+00  -7.6994760159900348e+00  -7.5635106693007161e+00  -7.4347429966228855e+00  -7.3165254947180198e+00  -7.2119913349708851e+00  -7.1239669088355679e+00  -7.0548732683919191e+00  -7.0066048941989774e+00  -6.9803153493373928e+00  -6.9757351370949081e+00  -8.8010790026499617e+00  -8.7963119885691015e+00  -8.7667017692849907e+00  -8.7122980543957507e+00  -8.6346514828832746e+00  -8.5360785404070043e+00  -8.4194290743657429e+00  -8.2879483874669067e+00  -8.1451664445572778e+00  -7.9948049970816433e+00  -7.8407008505179752e+00  -7.6867416697282103e+00  -7.5368082036233179e+00  -7.3947154660653531e+00  -7.2641456117471268e+00  -7.1485669487766783e+00  -7.0511361785136204e+00  -6.9745821918264852e+00  -6.9210598724809618e+00  -6.8918984123447835e+00  -6.8868325226198595e+00  -8.9002364649073531e+00  -8.8949172034848782e+00  -8.8620773479026234e+00  -8.8018302256469205e+00  -8.7159736105009085e+00  -8.6071527033254824e+00  -8.4785817663505174e+00  -8.3338757845112212e+00  -8.1769205608926097e+00  -8.0117718864563496e+00  -7.8425807295770031e+00  -7.6735381144923371e+00  -7.5088299205619711e+00  -7.3525900939039470e+00  -7.2088410093466102e+00  -7.0814119314884678e+00  -6.9738302525206439e+00  -6.8891830141182853e+00  -6.8299374122938241e+00  -6.7976404800278472e+00  -6.7920482648097860e+00  -9.0051540861338335e+00  -8.9992245976494996e+00  -8.9628624298991042e+00  -8.8962782606855377e+00  -8.8015792719063004e+00  -8.6818082528742035e+00  -8.5406038349112290e+00  -8.3819914978267338e+00  -8.2102303222612214e+00  -8.0297055154291215e+00  -7.8448610809183599e+00  -7.6601620222850153e+00  -7.4800711851667669e+00  -7.3090238123089426e+00  -7.1513831466236431e+00  -7.0113630015463864e+00  -6.8929080077975042e+00  -6.7995270861634882e+00  -6.7340690191000858e+00  -6.6983571628218943e+00  -6.6921956325903160e+00  -9.1147145556768603e+00  -9.1081110679226125e+00  -9.0679113306809214e+00  -8.9944747340094686e+00  -8.8903057236589387e+00  -8.7589378171049947e+00  -8.6045099959758797e+00  -8.4315034269180646e+00  -8.2445605347957862e+00  -8.0483742905846416e+00  -7.8476370568599618e+00  -7.6470318044182886e+00  -7.4512439308343161e+00  -7.2649699643227024e+00  -7.0928996291588096e+00  -6.9396502201512318e+00  -6.8096375717391577e+00  -6.7068748580709228e+00  -6.6346872505672216e+00  -6.5952576780607775e+00  -6.5884799778390839e+00  -9.2273065556275320e+00  -9.2199568283307212e+00  -9.1755690389167590e+00  -9.0947306735529221e+00  -8.9804704682882583e+00  -8.8369409831629753e+00  -8.6688787316729972e+00  -8.4812694035526892e+00  -8.2791363596795353e+00  -8.0674340818304557e+00  -7.8510264350001195e+00  -7.6347227416171899e+00  -7.4233412854723024e+00  -7.2217688564903684e+00  -7.0349849007265899e+00  -6.8680200626143471e+00  -6.7258232409711969e+00  -6.6130194731015690e+00  -6.5335424733843057e+00  -6.4900559690508084e+00  -6.4826086618541510e+00  -9.3406917523817157e+00  -9.3325103534230642e+00  -9.2835267080280346e+00  -9.1946812600857371e+00  -9.0697143860853071e+00  -8.9135761240066227e+00  -8.7317239098759565e+00  -8.5296968998856109e+00  -8.3128760217293820e+00  -8.0863962512936762e+00  -7.8551738433324818e+00  -7.6240075302771766e+00  -7.3977136554380882e+00  -7.1812567482829683e+00  -6.9798364644806794e+00  -6.7988896250063062e+00  -6.6439659725566109e+00  -6.5204425607434207e+00  -6.4330479253383182e+00  -6.3851065884441907e+00  -6.3769250007014620e+00  -9.4518419419975412e+00  -9.4427218435041826e+00  -9.3886396606633848e+00  -9.2910894617003237e+00  -9.1548039391346183e+00  -8.9857782739403262e+00  -8.7903424126510092e+00  -8.5746283146481197e+00  -8.3443161629200375e+00  -8.1045926068519361e+00  -7.8602546164542586e+00  -7.6158995582718925e+00  -7.3761528655288178e+00  -7.1458912841829818e+00  -6.9304181380289549e+00  -6.7355380056958625e+00  -6.5674672201459270e+00  -6.4325132655505541e+00  -6.3364627832452491e+00  -6.2835730211372205e+00  -6.2745734510924827e+00  -9.5567362142867509e+00  -9.5465335721907412e+00  -9.4866925568831721e+00  -9.3795920485944038e+00  -9.2313821797994091e+00  -9.0494410539327710e+00  -8.8411431022493367e+00  -8.6132208706574911e+00  -8.3715382925327528e+00  -8.1211417520624529e+00  -7.8664770791527854e+00  -7.6116923387687816e+00  -7.3609747104319272e+00  -7.1188845294306757e+00  -6.8906467082194185e+00  -6.6823395351300352e+00  -6.5008889514007784e+00  -6.3537475549250715e+00  -6.2481291179571450e+00  -6.1896409400323362e+00  -6.1797077214030649e+00  -9.6501008737197065e+00  -9.6386064508177807e+00  -9.5720848248448327e+00  -9.4543639838499285e+00  -9.2936578544336435e+00  -9.0991683594112942e+00  -8.8794748042019762e+00  -8.6418428033601735e+00  -8.3921144106337699e+00  -8.1349260328556792e+00  -7.8740811268922695e+00  -7.6129820079440522e+00  -7.3550791516697753e+00  -7.1043214223341105e+00  -6.8655866847822979e+00  -6.6450380115733427e+00  -6.4502859601995022e+00  -6.2901552502778815e+00  -6.1737905839364995e+00  -6.1087983240403894e+00  -6.0977621904239410e+00  -9.7250609049961128e+00  -9.7119430165996778e+00  -9.6373865166664014e+00  -9.5076644123649992e+00  -9.3340269456390619e+00  -9.1280206784615014e+00  -8.8994953107139629e+00  -8.6560293317219816e+00  -8.4031050446965700e+00  -8.1445953939322173e+00  -7.8833297404238127e+00  -7.6216500609421827e+00  -7.3619494248567667e+00  -7.1072173862420911e+00  -6.8616133904354761e+00  -6.6310452951419272e+00  -6.4236275185089440e+00  -6.2497200195398595e+00  -6.1210447232596294e+00  -6.0482236099016777e+00  -6.0358245986669434e+00  -9.7726439722376099e+00  -9.7573237331542142e+00  -9.6726689034766267e+00  -9.5292125929980838e+00  -9.3426439465732525e+00  -9.1273245881467293e+00  -8.8941677913148318e+00  -8.6505756947932149e+00  -8.4011635639842428e+00  -8.1486234341445893e+00  -7.8944888457032514e+00  -7.6397714052515520e+00  -7.3855259502561816e+00  -7.1334291120310773e+00  -6.8864561611098312e+00  -6.6497068698846897e+00  -6.4313144170882408e+00  -6.2430862015383921e+00  -6.1000309307464313e+00  -6.0173645744831274e+00  -6.0031853754388464e+00  -9.7810210597398761e+00  -9.7623670431158143e+00  -9.6644254685317836e+00  -9.5053434422841843e+00  -9.3070343838669167e+00  -9.0867065513533181e+00  -8.8555442566883045e+00  -8.6198886452637904e+00  -8.3828218129684373e+00  -8.1454486233789982e+00  -7.9077904953843108e+00  -7.6694028432016799e+00  -7.4298631819694103e+00  -7.1892756414850076e+00  -6.9489440524438324e+00  -6.7123773090617789e+00  -6.4867414365357394e+00  -6.2845629349719943e+00  -6.1245649748345521e+00  -6.0288880661144892e+00  -6.0122247233867911e+00  -9.7342408782419039e+00  -9.7097402549792928e+00  -9.5937523121292294e+00  -9.4179889488329245e+00  -9.2120458534215555e+00  -8.9946894192822082e+00  -8.7755965398788423e+00  -8.5587557921483342e+00  -8.3450378666227980e+00  -8.1337313554751258e+00  -7.9233755377506601e+00  -7.7122099718318644e+00  -7.4984656600691224e+00  -7.2806682312030571e+00  -7.0581338209008910e+00  -6.8319214088224163e+00  -6.6066462113956774e+00  -6.3935469420786211e+00  -6.2141730968440445e+00  -6.1004373087156338e+00  -6.0800186744277429e+00  -9.6098223981548418e+00  -9.5732694865767787e+00  -9.4333616805927623e+00  -9.2439951981871129e+00  -9.0409288602269910e+00  -8.8404693347214778e+00  -8.6479375163058254e+00  -8.4636725176756986e+00  -8.2860413156645532e+00  -8.1127271917161980e+00  -7.9412124481438608e+00  -7.7689212667853829e+00  -7.5932412419384354e+00  -7.4115457535419296e+00  -7.2213459263066877e+00  -7.0208227063980209e+00  -6.8103204805206836e+00  -6.5960787717942999e+00  -6.3979531944717554e+00  -6.2584223671568919e+00  -6.2317035288443243e+00  -9.3727405457020971e+00  -9.3087930293008387e+00  -9.1438056321896504e+00  -8.9568555073529694e+00  -8.7792800294143802e+00  -8.6177321544128827e+00  -8.4706654413108691e+00  -8.3346709433680495e+00  -8.2063496629725741e+00  -8.0826831373450450e+00  -7.9609698790121195e+00  -7.8386554760438480e+00  -7.7131402546690060e+00  -7.5815778453517852e+00  -7.4406749380286330e+00  -7.2865704474904351e+00  -7.1151458238086080e+00  -6.9240841731575422e+00  -6.7211481068740131e+00  -6.5479961229689652e+00  -6.5089033542815020e+00  -8.9523965775814442e+00  -8.8336802672625829e+00  -8.6747699205508795e+00  -8.5368583951789905e+00  -8.4244806454975194e+00  -8.3308584136974027e+00  -8.2498033087877225e+00  -8.1769865858322692e+00  -8.1094179431579363e+00  -8.0449034377975934e+00  -7.9816762950988149e+00  -7.9181448395316476e+00  -7.8526903320443910e+00  -7.7834576033691132e+00  -7.7080756264542689e+00  -7.6232148849673047e+00  -7.5238428024105071e+00  -7.4021549531935129e+00  -7.2477537547606659e+00  -7.0631884819714541e+00  -6.9976051678170554e+00  -8.0000000000000000e+00  -8.0000000000000000e+00  -8.0000000000000000e+00  -8.0000000000000000e+00  -8.0000000000000000e+00  -8.0000000000000000e+00  -8.0000000000000000e+00  -8.0000000000000000e+00  -8.0000000000000000e+00  -8.0000000000000000e+00  -8.0000000000000000e+00  -8.0000000000000000e+00  -8.0000000000000000e+00  -8.0000000000000000e+00  -8.0000000000000000e+00  -8.0000000000000000e+00  -8.0000000000000000e+00  -8.0000000000000000e+00  -8.0000000000000000e+00  -8.0000000000000000e+00  -8.0000000000000000e+00  </DataArray> 
</PointData> 
</Piece>
</UnstructuredGrid>
</VTKFile>