<?xml version="1.0"?>
<VTKFile type="UnstructuredGrid"  version="0.1"  >
<UnstructuredGrid>
<Piece  NumberOfPoints="651" NumberOfCells="1200">
<Points>
<DataArray  type="Float64"  NumberOfComponents="3"  format="ascii">0 0 0  50000 0 0  100000 0 0  150000 0 0  200000 0 0  250000 0 0  300000 0 0  350000 0 0  400000 0 0  450000 0 0  500000 0 0  550000 0 0  600000 0 0  650000 0 0  700000 0 0  750000 0 0  800000 0 0  850000 0 0  900000 0 0  950000 0 0  1000000 0 0  0 50000 0  50000 50000 0  100000 50000 0  150000 50000 0  200000 50000 0  250000 50000 0  300000 50000 0  350000 50000 0  400000 50000 0  450000 50000 0  500000 50000 0  550000 50000 0  600000 50000 0  650000 50000 0  700000 50000 0  750000 50000 0  800000 50000 0  850000 50000 0  900000 50000 0  950000 50000 0  1000000 50000 0  0 100000 0  50000 100000 0  100000 100000 0  150000 100000 0  200000 100000 0  250000 100000 0  300000 100000 0  350000 100000 0  400000 100000 0  450000 100000 0  500000 100000 0  550000 100000 0  600000 100000 0  650000 100000 0  700000 100000 0  750000 100000 0  800000 100000 0  850000 100000 0  900000 100000 0  950000 100000 0  1000000 100000 0  0 150000 0  50000 150000 0  100000 150000 0  150000 150000 0  200000 150000 0  250000 150000 0  300000 150000 0  350000 150000 0  400000 150000 0  450000 150000 0  500000 150000 0  550000 150000 0  600000 150000 0  650000 150000 0  700000 150000 0  750000 150000 0  800000 150000 0  850000 150000 0  900000 150000 0  950000 150000 0  1000000 150000 0  0 200000 0  50000 200000 0  100000 200000 0  150000 200000 0  200000 200000 0  250000 200000 0  300000 200000 0  350000 200000 0  400000 200000 0  450000 200000 0  500000 200000 0  550000 200000 0  600000 200000 0  650000 200000 0  700000 200000 0  750000 200000 0  800000 200000 0  850000 200000 0  900000 200000 0  950000 200000 0  1000000 200000 0  0 250000 0  50000 250000 0  100000 250000 0  150000 250000 0  200000 250000 0  250000 250000 0  300000 250000 0  350000 250000 0  400000 250000 0  450000 250000 0  500000 250000 0  550000 250000 0  600000 250000 0  650000 250000 0  700000 250000 0  750000 250000 0  800000 250000 0  850000 250000 0  900000 250000 0  950000 250000 0  1000000 250000 0  0 300000 0  50000 300000 0  100000 300000 0  150000 300000 0  200000 300000 0  250000 300000 0  300000 300000 0  350000 300000 0  400000 300000 0  450000 300000 0  500000 300000 0  550000 300000 0  600000 300000 0  650000 300000 0  700000 300000 0  750000 300000 0  800000 300000 0  850000 300000 0  900000 300000 0  950000 300000 0  1000000 300000 0  0 350000 0  50000 350000 0  100000 350000 0  150000 350000 0  200000 350000 0  250000 350000 0  300000 350000 0  350000 350000 0  400000 350000 0  450000 350000 0  500000 350000 0  550000 350000 0  600000 350000 0  650000 350000 0  700000 350000 0  750000 350000 0  800000 350000 0  850000 350000 0  900000 350000 0  950000 350000 0  1000000 350000 0  0 400000 0  50000 400000 0  100000 400000 0  150000 400000 0  200000 400000 0  250000 400000 0  300000 400000 0  350000 400000 0  400000 400000 0  450000 400000 0  500000 400000 0  550000 400000 0  600000 400000 0  650000 400000 0  700000 400000 0  750000 400000 0  800000 400000 0  850000 400000 0  900000 400000 0  950000 400000 0  1000000 400000 0  0 450000 0  50000 450000 0  100000 450000 0  150000 450000 0  200000 450000 0  250000 450000 0  300000 450000 0  350000 450000 0  400000 450000 0  450000 450000 0  500000 450000 0  550000 450000 0  600000 450000 0  650000 450000 0  700000 450000 0  750000 450000 0  800000 450000 0  850000 450000 0  900000 450000 0  950000 450000 0  1000000 450000 0  0 500000 0  50000 500000 0  100000 500000 0  150000 500000 0  200000 500000 0  250000 500000 0  300000 500000 0  350000 500000 0  400000 500000 0  450000 500000 0  500000 500000 0  550000 500000 0  600000 500000 0  650000 500000 0  700000 500000 0  750000 500000 0  800000 500000 0  850000 500000 0  900000 500000 0  950000 500000 0  1000000 500000 0  0 550000 0  50000 550000 0  100000 550000 0  150000 550000 0  200000 550000 0  250000 550000 0  300000 550000 0  350000 550000 0  400000 550000 0  450000 550000 0  500000 550000 0  550000 550000 0  600000 550000 0  650000 550000 0  700000 550000 0  750000 550000 0  800000 550000 0  850000 550000 0  900000 550000 0  950000 550000 0  1000000 550000 0  0 600000 0  50000 600000 0  100000 600000 0  150000 600000 0  200000 600000 0  250000 600000 0  300000 600000 0  350000 600000 0  400000 600000 0  450000 600000 0  500000 600000 0  550000 600000 0  600000 600000 0  650000 600000 0  700000 600000 0  750000 600000 0  800000 600000 0  850000 600000 0  900000 600000 0  950000 600000 0  1000000 600000 0  0 650000 0  50000 650000 0  100000 650000 0  150000 650000 0  200000 650000 0  250000 650000 0  300000 650000 0  350000 650000 0  400000 650000 0  450000 650000 0  500000 650000 0  550000 650000 0  600000 650000 0  650000 650000 0  700000 650000 0  750000 650000 0  800000 650000 0  850000 650000 0  900000 650000 0  950000 650000 0  1000000 650000 0  0 700000 0  50000 700000 0  100000 700000 0  150000 700000 0  200000 700000 0  250000 700000 0  300000 700000 0  350000 700000 0  400000 700000 0  450000 700000 0  500000 700000 0  550000 700000 0  600000 700000 0  650000 700000 0  700000 700000 0  750000 700000 0  800000 700000 0  850000 700000 0  900000 700000 0  950000 700000 0  1000000 700000 0  0 750000 0  50000 750000 0  100000 750000 0  150000 750000 0  200000 750000 0  250000 750000 0  300000 750000 0  350000 750000 0  400000 750000 0  450000 750000 0  500000 750000 0  550000 750000 0  600000 750000 0  650000 750000 0  700000 750000 0  750000 750000 0  800000 750000 0  850000 750000 0  900000 750000 0  950000 750000 0  1000000 750000 0  0 800000 0  50000 800000 0  100000 800000 0  150000 800000 0  200000 800000 0  250000 800000 0  300000 800000 0  350000 800000 0  400000 800000 0  450000 800000 0  500000 800000 0  550000 800000 0  600000 800000 0  650000 800000 0  700000 800000 0  750000 800000 0  800000 800000 0  850000 800000 0  900000 800000 0  950000 800000 0  1000000 800000 0  0 850000 0  50000 850000 0  100000 850000 0  150000 850000 0  200000 850000 0  250000 850000 0  300000 850000 0  350000 850000 0  400000 850000 0  450000 850000 0  500000 850000 0  550000 850000 0  600000 850000 0  650000 850000 0  700000 850000 0  750000 850000 0  800000 850000 0  850000 850000 0  900000 850000 0  950000 850000 0  1000000 850000 0  0 900000 0  50000 900000 0  100000 900000 0  150000 900000 0  200000 900000 0  250000 900000 0  300000 900000 0  350000 900000 0  400000 900000 0  450000 900000 0  500000 900000 0  550000 900000 0  600000 900000 0  650000 900000 0  700000 900000 0  750000 900000 0  800000 900000 0  850000 900000 0  900000 900000 0  950000 900000 0  1000000 900000 0  0 950000 0  50000 950000 0  100000 950000 0  150000 950000 0  200000 950000 0  250000 950000 0  300000 950000 0  350000 950000 0  400000 950000 0  450000 950000 0  500000 950000 0  550000 950000 0  600000 950000 0  650000 950000 0  700000 950000 0  750000 950000 0  800000 950000 0  850000 950000 0  900000 950000 0  950000 950000 0  1000000 950000 0  0 1000000 0  50000 1000000 0  100000 1000000 0  150000 1000000 0  200000 1000000 0  250000 1000000 0  300000 1000000 0  350000 1000000 0  400000 1000000 0  450000 1000000 0  500000 1000000 0  550000 1000000 0  600000 1000000 0  650000 1000000 0  700000 1000000 0  750000 1000000 0  800000 1000000 0  850000 1000000 0  900000 1000000 0  950000 1000000 0  1000000 1000000 0  0 1050000 0  50000 1050000 0  100000 1050000 0  150000 1050000 0  200000 1050000 0  250000 1050000 0  300000 1050000 0  350000 1050000 0  400000 1050000 0  450000 1050000 0  500000 1050000 0  550000 1050000 0  600000 1050000 0  650000 1050000 0  700000 1050000 0  750000 1050000 0  800000 1050000 0  850000 1050000 0  900000 1050000 0  950000 1050000 0  1000000 1050000 0  0 1100000 0  50000 1100000 0  100000 1100000 0  150000 1100000 0  200000 1100000 0  250000 1100000 0  300000 1100000 0  350000 1100000 0  400000 1100000 0  450000 1100000 0  500000 1100000 0  550000 1100000 0  600000 1100000 0  650000 1100000 0  700000 1100000 0  750000 1100000 0  800000 1100000 0  850000 1100000 0  900000 1100000 0  950000 1100000 0  1000000 1100000 0  0 1150000 0  50000 1150000 0  100000 1150000 0  150000 1150000 0  200000 1150000 0  250000 1150000 0  300000 1150000 0  350000 1150000 0  400000 1150000 0  450000 1150000 0  500000 1150000 0  550000 1150000 0  600000 1150000 0  650000 1150000 0  700000 1150000 0  750000 1150000 0  800000 1150000 0  850000 1150000 0  900000 1150000 0  950000 1150000 0  1000000 1150000 0  0 1200000 0  50000 1200000 0  100000 1200000 0  150000 1200000 0  200000 1200000 0  250000 1200000 0  300000 1200000 0  350000 1200000 0  400000 1200000 0  450000 1200000 0  500000 1200000 0  550000 1200000 0  600000 1200000 0  650000 1200000 0  700000 1200000 0  750000 1200000 0  800000 1200000 0  850000 1200000 0  900000 1200000 0  950000 1200000 0  1000000 1200000 0  0 1250000 0  50000 1250000 0  100000 1250000 0  150000 1250000 0  200000 1250000 0  250000 1250000 0  300000 1250000 0  350000 1250000 0  400000 1250000 0  450000 1250000 0  500000 1250000 0  550000 1250000 0  600000 1250000 0  650000 1250000 0  700000 1250000 0  750000 1250000 0  800000 1250000 0  850000 1250000 0  900000 1250000 0  950000 1250000 0  1000000 1250000 0  0 1300000 0  50000 1300000 0  100000 1300000 0  150000 1300000 0  200000 1300000 0  250000 1300000 0  300000 1300000 0  350000 1300000 0  400000 1300000 0  450000 1300000 0  500000 1300000 0  550000 1300000 0  600000 1300000 0  650000 1300000 0  700000 1300000 0  750000 1300000 0  800000 1300000 0  850000 1300000 0  900000 1300000 0  950000 1300000 0  1000000 1300000 0  0 1350000 0  50000 1350000 0  100000 1350000 0  150000 1350000 0  200000 1350000 0  250000 1350000 0  300000 1350000 0  350000 1350000 0  400000 1350000 0  450000 1350000 0  500000 1350000 0  550000 1350000 0  600000 1350000 0  650000 1350000 0  700000 135
[...]
<PointData  Scalars="f_4491"> 
<DataArray  type="Float64"  Name="f_4491"  format="ascii">-8.0566582088061338e+00  -8.0558617090703457e+00  -8.0519763184826392e+00  -8.0449892042121576e+00  -8.0350793766832407e+00  -8.0225089308058468e+00  -8.0076108370143295e+00  -7.9907793585710847e+00  -7.9724593778475557e+00  -7.9531344384309071e+00  -7.9333138006638597e+00  -7.9135188604690976e+00  -7.8942692861336177e+00  -7.8760692323052748e+00  -7.8593940036395544e+00  -7.8446775894733936e+00  -7.8323016774499719e+00  -7.8225873379259641e+00  -7.8157912527257327e+00  -7.8120929264302443e+00  -7.8112844412467766e+00  -8.0574069535275505e+00  -8.0566274530376649e+00  -8.0526868081009493e+00  -8.0456531975729479e+00  -8.0356913120895648e+00  -8.0230584341606601e+00  -8.0080864030278853e+00  -7.9911701442462011e+00  -7.9727561204253643e+00  -7.9533299725097493e+00  -7.9334033665606896e+00  -7.9135002757213453e+00  -7.8941430053151720e+00  -7.8758382966327316e+00  -7.8590638559288344e+00  -7.8442556567766593e+00  -7.8317963173312997e+00  -7.8220044930484152e+00  -7.8151232621842812e+00  -7.8112965278477233e+00  -7.8104878513765632e+00  -8.0610473403893774e+00  -8.0603196722920849e+00  -8.0562876510273114e+00  -8.0490418676606463e+00  -8.0387792827982469e+00  -8.0257701958619734e+00  -8.0103564201974020e+00  -7.9929435018819541e+00  -7.9739899533733967e+00  -7.9539947484556812e+00  -7.9334837772527766e+00  -7.9129956941137589e+00  -7.8930675103282661e+00  -7.8742202737624298e+00  -7.8569451868651541e+00  -7.8416905356966566e+00  -7.8288498360097840e+00  -7.8187516053248860e+00  -7.8116507760764815e+00  -7.8077181004832257e+00  -7.8069898649329250e+00  -8.0675354455362847e+00  -8.0668144173712211e+00  -8.0626297779011757e+00  -8.0550390313859648e+00  -8.0442592777774795e+00  -8.0305855363868908e+00  -8.0143822281053065e+00  -7.9960775667883182e+00  -7.9761539532394172e+00  -7.9551356643412312e+00  -7.9335750015900821e+00  -7.9120376121180946e+00  -7.8910874777143620e+00  -7.8712719890883198e+00  -7.8531075203223049e+00  -7.8370659728441554e+00  -7.8235628688227763e+00  -7.8129476357188867e+00  -7.8054957914488794e+00  -7.8013948157555149e+00  -7.8006649082120454e+00  -8.0767732377506736e+00  -8.0760306893497020e+00  -8.0716065650046929e+00  -8.0635296148059918e+00  -8.0520256999545534e+00  -8.0374152039027518e+00  -8.0200931870068626e+00  -8.0005210052380686e+00  -7.9792163136437271e+00  -7.9567404889314215e+00  -7.9336842799176335e+00  -7.9106524537843566e+00  -7.8882480226386003e+00  -7.8670565400081642e+00  -7.8476309432113656e+00  -7.8304774631744465e+00  -7.8160431741544096e+00  -7.8047055189222005e+00  -7.7967621420065409e+00  -7.7924086556453318e+00  -7.7916379325455694e+00  -8.0887059041971074e+00  -8.0879206143972091e+00  -8.0831667741554547e+00  -8.0744540211093145e+00  -8.0620171100016798e+00  -8.0462027113481618e+00  -8.0274419519558755e+00  -8.0062379332108851e+00  -7.9831538657367238e+00  -7.9587993991872761e+00  -7.9338153368615609e+00  -7.9088573305670318e+00  -7.8845791210409830e+00  -7.8616158291030516e+00  -7.8405677856667682e+00  -7.8219854008116787e+00  -7.8063555163913021e+00  -7.7940891676683810e+00  -7.7855080796521987e+00  -7.7808156164169171e+00  -7.7799825413403205e+00  -8.1033187146440593e+00  -8.1024725420274102e+00  -8.0972994719268883e+00  -8.0877973946840598e+00  -8.0742145903227929e+00  -8.0569278394097719e+00  -8.0364099446856567e+00  -8.0132136188929923e+00  -7.9879571664286990e+00  -7.9613090764529852e+00  -7.9339713281018636e+00  -7.9066617991124550e+00  -7.8800962519473030e+00  -7.8549703559992530e+00  -7.8319421930935915e+00  -7.8116156810436639e+00  -7.7945252261567894e+00  -7.7811212618355547e+00  -7.7717535095158619e+00  -7.7666366930789597e+00  -7.7657249229157692e+00  -8.1206288314693005e+00  -8.1197049140880200e+00  -8.1140237394060382e+00  -8.1035762513830232e+00  -8.0886302435069215e+00  -8.0695984433673846e+00  -8.0470019966510602e+00  -8.0214512675560758e+00  -7.9936289533792797e+00  -7.9642725738606419e+00  -7.9341560001346592e+00  -7.9040702773773042e+00  -7.8748041054077120e+00  -7.8471243464280782e+00  -7.8217569268646976e+00  -7.7993684878570990e+00  -7.7805490055715945e+00  -7.7657949235697590e+00  -7.7554894078374739e+00  -7.7498634795351888e+00  -7.7488581887070218e+00  -8.1406761926903659e+00  -8.1396580623551973e+00  -8.1333795005177851e+00  -8.1218276863650072e+00  -8.1052962360236229e+00  -8.0842408528974232e+00  -8.0592387478205012e+00  -8.0309665304194073e+00  -8.0001807101054752e+00  -7.9676978715494648e+00  -7.9343741873985687e+00  -7.9010844481568894e+00  -7.8687008625891766e+00  -7.8380718771278381e+00  -7.8100012690661531e+00  -7.7852277802074337e+00  -7.7644054612981650e+00  -7.7480842450776679e+00  -7.7366872007866485e+00  -7.7304669645801862e+00  -7.7293537311769445e+00  -8.1635137139146128e+00  -8.1623848006863629e+00  -8.1554181082163577e+00  -8.1425994399582695e+00  -8.1242547170698050e+00  -8.1008904843201748e+00  -8.0731486651347328e+00  -8.0417813615526601e+00  -8.0076285896915831e+00  -7.9715959767968751e+00  -7.9346321215514317e+00  -7.8977057459215692e+00  -7.8617827646713545e+00  -7.8278033596959240e+00  -7.7966591600031085e+00  -7.7691706849811020e+00  -7.7460651834937808e+00  -7.7279543993367907e+00  -7.7153085460352360e+00  -7.7084074187132554e+00  -7.7071718077440812e+00  -8.1891964383576514e+00  -8.1879397521234392e+00  -8.1801918917143066e+00  -8.1659394588771068e+00  -8.1455475407840012e+00  -8.1195822094164161e+00  -8.0887596487517790e+00  -8.0539173739008199e+00  -8.0159888949624261e+00  -7.9759787621505343e+00  -7.9349377284049938e+00  -7.8939380857722421e+00  -7.8540491239647610e+00  -7.8163125667165811e+00  -7.7817178628695931e+00  -7.7511773313098082e+00  -7.7255012379548074e+00  -7.7053723567744994e+00  -7.6913161071572249e+00  -7.6836453817624033e+00  -7.6822727511190152e+00  -8.2177691385453375e+00  -8.2163670410602396e+00  -8.2077420741510085e+00  -8.1918840414727327e+00  -8.1692047993998838e+00  -8.1403396727431474e+00  -8.1060896735777863e+00  -8.0673883577433312e+00  -8.0252729412180290e+00  -7.9808564980507386e+00  -7.9353009857850267e+00  -7.8897910215591480e+00  -7.8455080825061732e+00  -7.8036046373025147e+00  -7.7651777466442624e+00  -7.7312418827278595e+00  -7.7027009433683578e+00  -7.6803190306286213e+00  -7.6646858986663853e+00  -7.6561542008930923e+00  -7.6546296011853219e+00  -8.2492518044630412e+00  -8.2476858289144399e+00  -8.2380844752916680e+00  -8.2204438100355759e+00  -8.1952313038355040e+00  -8.1631627217771534e+00  -8.1251357627562104e+00  -8.0821914361851430e+00  -8.0354809655287998e+00  -7.9862349333865481e+00  -7.9357343825915905e+00  -7.8852835558832650e+00  -7.8361835159543922e+00  -7.7897056227351076e+00  -7.7470638885923000e+00  -7.7093855660301900e+00  -7.6776797528890395e+00  -7.6528035898715228e+00  -7.6354218072887212e+00  -7.6259346817982623e+00  -7.6242427999046871e+00  -8.2836223822304866e+00  -8.2818730697305600e+00  -8.2711923364369397e+00  -8.2515867409415034e+00  -8.2235901509683735e+00  -8.1880120771270164e+00  -8.1458605023632185e+00  -8.0982962228526620e+00  -8.0465946501820333e+00  -7.9921117185880499e+00  -7.9362535095436453e+00  -7.8804488644886019e+00  -7.8261235606753141e+00  -7.7746742339403854e+00  -7.7274402926540144e+00  -7.6856725595888831e+00  -7.6504980894910393e+00  -7.6228807084962700e+00  -7.6035729633655409e+00  -7.5930324891668644e+00  -7.5911576006247392e+00  -8.3207960471480256e+00  -8.3188427669515850e+00  -8.3069754938672862e+00  -8.2852173796491080e+00  -8.2541824180057812e+00  -8.2147902659164700e+00  -8.1681751965245493e+00  -8.1156312434474387e+00  -8.0585677473436110e+00  -7.9984719211439232e+00  -7.9368778100836579e+00  -7.8753402396288106e+00  -7.8154113239411664e+00  -7.7586165641359752e+00  -7.7064276452809519e+00  -7.6602297266458983e+00  -7.6212820968361719e+00  -7.5906716254942088e+00  -7.5692547379260953e+00  -7.5575590161968513e+00  -7.5554849073816115e+00  -8.3606001994467434e+00  -8.3584209056292753e+00  -8.3452549856815388e+00  -8.3211511988643689e+00  -8.2868218459948704e+00  -8.2433176712625009e+00  -8.1919186153421428e+00  -8.1340667693762239e+00  -8.0713142161089877e+00  -8.0052823452108122e+00  -7.9376315191772973e+00  -7.8700385958577685e+00  -7.8041784192247805e+00  -7.7417046860965115e+00  -7.6842256938637501e+00  -7.6332713646497696e+00  -7.5902494542216132e+00  -7.5563900586599564e+00  -7.5326742789853638e+00  -7.5197165487443174e+00  -7.5174263542991628e+00  -8.4027442497880980e+00  -8.4003150992228512e+00  -8.3857319883540598e+00  -8.3590828189214008e+00  -8.3212031202860466e+00  -8.2733023248362816e+00  -8.2168301193274011e+00  -8.1533931058885241e+00  -8.0846932273146663e+00  -8.0124843424517280e+00  -7.9385448132779164e+00  -7.8646619010325516e+00  -7.7926220287099177e+00  -7.7242001444331354e+00  -7.6611415233689204e+00  -7.6051303882269536e+00  -7.5577416711079834e+00  -7.5203742589170588e+00  -7.4941616915254983e+00  -7.4798286917724752e+00  -7.4773045654345838e+00  -8.4467830928239085e+00  -8.4440778000745542e+00  -8.4279497081888461e+00  -8.3985464685833708e+00  -8.3568620151227773e+00  -8.3043018058508782e+00  -8.2425157962948372e+00  -8.1732933327800179e+00  -8.0984904025583759e+00  -8.0199848146274260e+00  -7.9396551799781445e+00  -7.8593768595318219e+00  -7.7810261801351883e+00  -7.7064834259052040e+00  -7.6376251888556048e+00  -7.5762976640369750e+00  -7.5242646441727228e+00  -7.4831268460685783e+00  -7.4542082460230157e+00  -7.4383772326997954e+00  -7.4355997261684461e+00  -8.4920729066132044e+00  -8.4890616251987616e+00  -8.4712464291898435e+00  -8.4388665590132774e+00  -8.3931252224303972e+00  -8.3356753497511296e+00  -8.2684062120605244e+00  -8.1933096246204453e+00  -8.1123948269244064e+00  -8.0276452092329684e+00  -7.9410089803302606e+00  -7.8544130159593673e+00  -7.7697877291635278e+00  -7.6890903837851878e+00  -7.6143142549115455e+00  -7.5474715476511598e+00  -7.4905397644120217e+00  -7.4453646034331822e+00  -7.4135134430557370e+00  -7.3960469455336062e+00  -7.3929939015537744e+00  -8.5377174747787343e+00  -8.5343648387487541e+00  -8.5146972047553753e+00  -8.4790954581090094e+00  -8.4290471099496447e+00  -8.3665241125934493e+00  -8.2937046426739141e+00  -8.2128027919958591e+00  -8.1259718827308944e+00  -8.0352685858641859e+00  -7.9426631033917925e+00  -7.8500790467880543e+00  -7.7594469684080929e+00  -7.6727561005675637e+00  -7.5920886279534088e+00  -7.5196199695307957e+00  -7.4575685577183357e+00  -7.4080812613661049e+00  -7.3730435090075668e+00  -7.3537804049494504e+00  -7.3504250605849712e+00  -8.5825024324775274e+00  -8.5787640955427271e+00  -8.5570404011154668e+00  -8.5179342829291631e+00  -8.4633299553351744e+00  -8.3956177145033308e+00  -8.3173255923906222e+00  -8.2309059657037995e+00  -8.1386330848356661e+00  -8.0425854266250383e+00  -7.9446864752310953e+00  -7.8467801711156353e+00  -7.7507215098801732e+00  -7.6584654017059810e+00  -7.5721362980551090e+00  -7.4940575064277013e+00  -7.4267147935312234e+00  -7.3726277129681597e+00  -7.3341052317460509e+00  -7.3128459057354522e+00  -7.3091537165880114e+00  -8.6248133437828898e+00  -8.6206297424991920e+00  -8.5965829006950774e+00  -8.5536304346707670e+00  -8.4942235000594888e+00  -8.4213062256916569e+00  -8.3378257082199401e+00  -8.2464760316262620e+00  -8.1496063026397927e+00  -8.0492399879302852e+00  -7.9471609492713950e+00  -7.8450340579742548e+00  -7.7445395873572744e+00  -7.6475064902766858e+00  -7.5560285477397882e+00  -7.4725393284846691e+00  -7.3998092282574275e+00  -7.3408165199213933e+00  -7.2984415319889298e+00  -7.2749235234169323e+00  -7.2708468894137477e+00  -8.6625306475159025e+00  -8.6578153336181618e+00  -8.6310731189018508e+00  -8.5838421892321684e+00  -8.5193994690641723e+00  -8.4414198376604404e+00  -8.3533341510709658e+00  -8.2580514993881931e+00  -8.1579136215925505e+00  -8.0547808958709428e+00  -7.9501807407084550e+00  -7.8454799978771810e+00  -7.7420644693404190e+00  -7.6415188211761631e+00  -7.5457985054552168e+00  -7.4573716986808680e+00  -7.3792834659846438e+00  -7.3150617454136615e+00  -7.2683599793713487e+00  -7.2422181519258704e+00  -7.2376875943119137e+00  -8.6928888899007593e+00  -8.6875053006005398e+00  -8.6575217479741617e+00  -8.6054554917471755e+00  -8.5357986953469727e+00  -8.4531661296332121e+00  -8.3614992416231964e+00  -8.2638342491275925e+00  -8.1623701944872877e+00  -8.0586625538789924e+00  -7.9538490840481026e+00  -7.8488722115789926e+00  -7.7446944737335350e+00  -7.6425166846614312e+00  -7.5440071083795646e+00  -7.4515323519145058e+00  -7.3683397841715275e+00  -7.2985722931980677e+00  -7.2469151245981376e+00  -7.2176161030522721e+00  -7.2125251357686997e+00  -8.7122764580170795e+00  -8.7059872632204893e+00  -8.6719316735529421e+00  -8.6143320596676762e+00  -8.5394576454172064e+00  -8.4530523524428567e+00  -8.3594860230530141e+00  -8.2617261869080334e+00  -8.1616257344451029e+00  -8.0602675518505880e+00  -7.9582703128338839e+00  -7.8560433265565637e+00  -7.7540129118953622e+00  -7.6528540516729215e+00  -7.5537611121704549e+00  -7.4587777209727681e+00  -7.3711593210998245e+00  -7.2956283987086179e+00  -7.2381856730292737e+00  -7.2049185714997881e+00  -7.1990965296857077e+00  -8.7159290469444635e+00  -8.7082726024990205e+00  -8.6688627889579397e+00  -8.6049682883663259e+00  -8.5253508596140595e+00  -8.4368973152246376e+00  -8.3440888359397327e+00  -8.2494695987623921e+00  -8.1542788439275053e+00  -8.0589633697419032e+00  -7.9635353947956595e+00  -7.8678200557855789e+00  -7.7716511704255931e+00  -7.6750734677497956e+00  -7.5786120148921876e+00  -7.4836740298080384e+00  -7.3931284626215508e+00  -7.3119854756683216e+00  -7.2477311919957561e+00  -7.2092244736607993e+00  -7.2023838749072286e+00  -8.6974185103970676e+00  -8.6873749196506811e+00  -8.6406982287222807e+00  -8.5700829560903458e+00  -8.4873683620227176e+00  -8.4000687221546748e+00  -8.3120636070702272e+00  -8.2249553633834118e+00  -8.1390967639730967e+00  -8.0542057880932987e+00  -7.9696994380873143e+00  -7.8848742528892002e+00  -7.7990233705064425e+00  -7.7115583217940671e+00  -7.6222077803678001e+00  -7.5313984978561521e+00  -7.4409794556685709e+00  -7.3554454561316680e+00  -7.2834099215900210e+00  -7.2376383334813807e+00  -7.2292610226208325e+00  -8.6476786485389496e+00  -8.6327425471683785e+00  -8.5764392544293582e+00  -8.5003374097999735e+00  -8.4187456276704911e+00  -8.3381943015847444e+00  -8.2608179111660824e+00  -8.1867555385893365e+00  -8.1153550749249987e+00  -8.0456893480579819e+00  -7.9767499293703654e+00  -7.9075048576197009e+00  -7.8369077297632526e+00  -7.7639071005975833e+00  -7.6875077343096532e+00  -7.6069838135200456e+00  -7.5224760066953564e+00  -7.4364805413596127e+00  -7.3569281725514513e+00  -7.3007956173994151e+00  -7.2898475756476842e+00  -8.5525673475824942e+00  -8.5265720404742478e+00  -8.4601759642568570e+00  -8.3850231117298062e+00  -8.3136429331075536e+00  -8.2486931273960273e+00  -8.1895536286650135e+00  -8.1348591205844993e+00  -8.0832474381749968e+00  -8.0335080662483787e+00  -7.9845570794289396e+00  -7.9353694459920181e+00  -7.8849022873430004e+00  -7.8320145176228566e+00  -7.7753870679014607e+00  -7.7134750112396118e+00  -7.6446319755993155e+00  -7.5679323529848448e+00  -7.4864728506884157e+00  -7.4168703859402294e+00  -7.4008998068549978e+00  -8.3835270908846447e+00  -8.3355373840498821e+00  -8.2715869646194840e+00  -8.2161321014019517e+00  -8.1709373082423138e+00  -8.1332722302908955e+00  -8.1006544097359274e+00  -8.0713478264061234e+00  -8.0441523932312169e+00  -8.0181868966552390e+00  -7.9927413022918037e+00  -7.9671758656359435e+00  -7.9408401780114461e+00  -7.9129893459253333e+00  -7.8826722077035738e+00  -7.8485543883982114e+00  -7.8086206710328643e+00  -7.7597468659207838e+00  -7.6977652409960058e+00  -7.6236630287918077e+00  -7.5970384102189943e+00  -8.0000000000000000e+00  -8.0000000000000000e+00  -8.0000000000000000e+00  -8.0000000000000000e+00  -8.0000000000000000e+00  -8.0000000000000000e+00  -8.0000000000000000e+00  -8.0000000000000000e+00  -8.0000000000000000e+00  -8.0000000000000000e+00  -8.0000000000000000e+00  -8.0000000000000000e+00  -8.0000000000000000e+00  -8.0000000000000000e+00  -8.0000000000000000e+00  -8.0000000000000000e+00  -8.0000000000000000e+00  -8.0000000000000000e+00  -8.0000000000000000e+00  -8.0000000000000000e+00  -8.0000000000000000e+00  </DataArray> 
</PointData> 
</Piece>
</UnstructuredGrid>
</VTKFile>