<?xml version="1.0"?>
<VTKFile type="UnstructuredGrid"  version="0.1"  >
<UnstructuredGrid>
<Piece  NumberOfPoints="651" NumberOfCells="1200">
<Points>
<DataArray  type="Float64"  NumberOfComponents="3"  format="ascii">0 0 0  50000 0 0  100000 0 0  150000 0 0  200000 0 0  250000 0 0  300000 0 0  350000 0 0  400000 0 0  450000 0 0  500000 0 0  550000 0 0  600000 0 0  650000 0 0  700000 0 0  750000 0 0  800000 0 0  850000 0 0  900000 0 0  950000 0 0  1000000 0 0  0 50000 0  50000 50000 0  100000 50000 0  150000 50000 0  200000 50000 0  250000 50000 0  300000 50000 0  350000 50000 0  400000 50000 0  450000 50000 0  500000 50000 0  550000 50000 0  600000 50000 0  650000 50000 0  700000 50000 0  750000 50000 0  800000 50000 0  850000 50000 0  900000 50000 0  950000 50000 0  1000000 50000 0  0 100000 0  50000 100000 0  100000 100000 0  150000 100000 0  200000 100000 0  250000 100000 0  300000 100000 0  350000 100000 0  400000 100000 0  450000 100000 0  500000 100000 0  550000 100000 0  600000 100000 0  650000 100000 0  700000 100000 0  750000 100000 0  800000 100000 0  850000 100000 0  900000 100000 0  950000 100000 0  1000000 100000 0  0 150000 0  50000 150000 0  100000 150000 0  150000 150000 0  200000 150000 0  250000 150000 0  300000 150000 0  350000 150000 0  400000 150000 0  450000 150000 0  500000 150000 0  550000 150000 0  600000 150000 0  650000 150000 0  700000 150000 0  750000 150000 0  800000 150000 0  850000 150000 0  900000 150000 0  950000 150000 0  1000000 150000 0  0 200000 0  50000 200000 0  100000 200000 0  150000 200000 0  200000 200000 0  250000 200000 0  300000 200000 0  350000 200000 0  400000 200000 0  450000 200000 0  500000 200000 0  550000 200000 0  600000 200000 0  650000 200000 0  700000 200000 0  750000 200000 0  800000 200000 0  850000 200000 0  900000 200000 0  950000 200000 0  1000000 200000 0  0 250000 0  50000 250000 0  100000 250000 0  150000 250000 0  200000 250000 0  250000 250000 0  300000 250000 0  350000 250000 0  400000 250000 0  450000 250000 0  500000 250000 0  550000 250000 0  600000 250000 0  650000 250000 0  700000 250000 0  750000 250000 0  800000 250000 0  850000 250000 0  900000 250000 0  950000 250000 0  1000000 250000 0  0 300000 0  50000 300000 0  100000 300000 0  150000 300000 0  200000 300000 0  250000 300000 0  300000 300000 0  350000 300000 0  400000 300000 0  450000 300000 0  500000 300000 0  550000 300000 0  600000 300000 0  650000 300000 0  700000 300000 0  750000 300000 0  800000 300000 0  850000 300000 0  900000 300000 0  950000 300000 0  1000000 300000 0  0 350000 0  50000 350000 0  100000 350000 0  150000 350000 0  200000 350000 0  250000 350000 0  300000 350000 0  350000 350000 0  400000 350000 0  450000 350000 0  500000 350000 0  550000 350000 0  600000 350000 0  650000 350000 0  700000 350000 0  750000 350000 0  800000 350000 0  850000 350000 0  900000 350000 0  950000 350000 0  1000000 350000 0  0 400000 0  50000 400000 0  100000 400000 0  150000 400000 0  200000 400000 0  250000 400000 0  300000 400000 0  350000 400000 0  400000 400000 0  450000 400000 0  500000 400000 0  550000 400000 0  600000 400000 0  650000 400000 0  700000 400000 0  750000 400000 0  800000 400000 0  850000 400000 0  900000 400000 0  950000 400000 0  1000000 400000 0  0 450000 0  50000 450000 0  100000 450000 0  150000 450000 0  200000 450000 0  250000 450000 0  300000 450000 0  350000 450000 0  400000 450000 0  450000 450000 0  500000 450000 0  550000 450000 0  600000 450000 0  650000 450000 0  700000 450000 0  750000 450000 0  800000 450000 0  850000 450000 0  900000 450000 0  950000 450000 0  1000000 450000 0  0 500000 0  50000 500000 0  100000 500000 0  150000 500000 0  200000 500000 0  250000 500000 0  300000 500000 0  350000 500000 0  400000 500000 0  450000 500000 0  500000 500000 0  550000 500000 0  600000 500000 0  650000 500000 0  700000 500000 0  750000 500000 0  800000 500000 0  850000 500000 0  900000 500000 0  950000 500000 0  1000000 500000 0  0 550000 0  50000 550000 0  100000 550000 0  150000 550000 0  200000 550000 0  250000 550000 0  300000 550000 0  350000 550000 0  400000 550000 0  450000 550000 0  500000 550000 0  550000 550000 0  600000 550000 0  650000 550000 0  700000 550000 0  750000 550000 0  800000 550000 0  850000 550000 0  900000 550000 0  950000 550000 0  1000000 550000 0  0 600000 0  50000 600000 0  100000 600000 0  150000 600000 0  200000 600000 0  250000 600000 0  300000 600000 0  350000 600000 0  400000 600000 0  450000 600000 0  500000 600000 0  550000 600000 0  600000 600000 0  650000 600000 0  700000 600000 0  750000 600000 0  800000 600000 0  850000 600000 0  900000 600000 0  950000 600000 0  1000000 600000 0  0 650000 0  50000 650000 0  100000 650000 0  150000 650000 0  200000 650000 0  250000 650000 0  300000 650000 0  350000 650000 0  400000 650000 0  450000 650000 0  500000 650000 0  550000 650000 0  600000 650000 0  650000 650000 0  700000 650000 0  750000 650000 0  800000 650000 0  850000 650000 0  900000 650000 0  950000 650000 0  1000000 650000 0  0 700000 0  50000 700000 0  100000 700000 0  150000 700000 0  200000 700000 0  250000 700000 0  300000 700000 0  350000 700000 0  400000 700000 0  450000 700000 0  500000 700000 0  550000 700000 0  600000 700000 0  650000 700000 0  700000 700000 0  750000 700000 0  800000 700000 0  850000 700000 0  900000 700000 0  950000 700000 0  1000000 700000 0  0 750000 0  50000 750000 0  100000 750000 0  150000 750000 0  200000 750000 0  250000 750000 0  300000 750000 0  350000 750000 0  400000 750000 0  450000 750000 0  500000 750000 0  550000 750000 0  600000 750000 0  650000 750000 0  700000 750000 0  750000 750000 0  800000 750000 0  850000 750000 0  900000 750000 0  950000 750000 0  1000000 750000 0  0 800000 0  50000 800000 0  100000 800000 0  150000 800000 0  200000 800000 0  250000 800000 0  300000 800000 0  350000 800000 0  400000 800000 0  450000 800000 0  500000 800000 0  550000 800000 0  600000 800000 0  650000 800000 0  700000 800000 0  750000 800000 0  800000 800000 0  850000 800000 0  900000 800000 0  950000 800000 0  1000000 800000 0  0 850000 0  50000 850000 0  100000 850000 0  150000 850000 0  200000 850000 0  250000 850000 0  300000 850000 0  350000 850000 0  400000 850000 0  450000 850000 0  500000 850000 0  550000 850000 0  600000 850000 0  650000 850000 0  700000 850000 0  750000 850000 0  800000 850000 0  850000 850000 0  900000 850000 0  950000 850000 0  1000000 850000 0  0 900000 0  50000 900000 0  100000 900000 0  150000 900000 0  200000 900000 0  250000 900000 0  300000 900000 0  350000 900000 0  400000 900000 0  450000 900000 0  500000 900000 0  550000 900000 0  600000 900000 0  650000 900000 0  700000 900000 0  750000 900000 0  800000 900000 0  850000 900000 0  900000 900000 0  950000 900000 0  1000000 900000 0  0 950000 0  50000 950000 0  100000 950000 0  150000 950000 0  200000 950000 0  250000 950000 0  300000 950000 0  350000 950000 0  400000 950000 0  450000 950000 0  500000 950000 0  550000 950000 0  600000 950000 0  650000 950000 0  700000 950000 0  750000 950000 0  800000 950000 0  850000 950000 0  900000 950000 0  950000 950000 0  1000000 950000 0  0 1000000 0  50000 1000000 0  100000 1000000 0  150000 1000000 0  200000 1000000 0  250000 1000000 0  300000 1000000 0  350000 1000000 0  400000 1000000 0  450000 1000000 0  500000 1000000 0  550000 1000000 0  600000 1000000 0  650000 1000000 0  700000 1000000 0  750000 1000000 0  800000 1000000 0  850000 1000000 0  900000 1000000 0  950000 1000000 0  1000000 1000000 0  0 1050000 0  50000 1050000 0  100000 1050000 0  150000 1050000 0  200000 1050000 0  250000 1050000 0  300000 1050000 0  350000 1050000 0  400000 1050000 0  450000 1050000 0  500000 1050000 0  550000 1050000 0  600000 1050000 0  650000 1050000 0  700000 1050000 0  750000 1050000 0  800000 1050000 0  850000 1050000 0  900000 1050000 0  950000 1050000 0  1000000 1050000 0  0 1100000 0  50000 1100000 0  100000 1100000 0  150000 1100000 0  200000 1100000 0  250000 1100000 0  300000 1100000 0  350000 1100000 0  400000 1100000 0  450000 1100000 0  500000 1100000 0  550000 1100000 0  600000 1100000 0  650000 1100000 0  700000 1100000 0  750000 1100000 0  800000 1100000 0  850000 1100000 0  900000 1100000 0  950000 1100000 0  1000000 1100000 0  0 1150000 0  50000 1150000 0  100000 1150000 0  150000 1150000 0  200000 1150000 0  250000 1150000 0  300000 1150000 0  350000 1150000 0  400000 1150000 0  450000 1150000 0  500000 1150000 0  550000 1150000 0  600000 1150000 0  650000 1150000 0  700000 1150000 0  750000 1150000 0  800000 1150000 0  850000 1150000 0  900000 1150000 0  950000 1150000 0  1000000 1150000 0  0 1200000 0  50000 1200000 0  100000 1200000 0  150000 1200000 0  200000 1200000 0  250000 1200000 0  300000 1200000 0  350000 1200000 0  400000 1200000 0  450000 1200000 0  500000 1200000 0  550000 1200000 0  600000 1200000 0  650000 1200000 0  700000 1200000 0  750000 1200000 0  800000 1200000 0  850000 1200000 0  900000 1200000 0  950000 1200000 0  1000000 1200000 0  0 1250000 0  50000 1250000 0  100000 1250000 0  150000 1250000 0  200000 1250000 0  250000 1250000 0  300000 1250000 0  350000 1250000 0  400000 1250000 0  450000 1250000 0  500000 1250000 0  550000 1250000 0  600000 1250000 0  650000 1250000 0  700000 1250000 0  750000 1250000 0  800000 1250000 0  850000 1250000 0  900000 1250000 0  950000 1250000 0  1000000 1250000 0  0 1300000 0  50000 1300000 0  100000 1300000 0  150000 1300000 0  200000 1300000 0  250000 1300000 0  300000 1300000 0  350000 1300000 0  400000 1300000 0  450000 1300000 0  500000 1300000 0  550000 1300000 0  600000 1300000 0  650000 1300000 0  700000 1300000 0  750000 1300000 0  800000 1300000 0  850000 1300000 0  900000 1300000 0  950000 1300000 0  1000000 1300000 0  0 1350000 0  50000 1350000 0  100000 1350000 0  150000 1350000 0  200000 1350000 0  250000 1350000 0  300000 1350000 0  350000 1350000 0  400000 1350000 0  450000 1350000 0  500000 1350000 0  550000 1350000 0  600000 1350000 0  650000 1350000 0  700000 135
[...]
<PointData  Scalars="f_4491"> 
<DataArray  type="Float64"  Name="f_4491"  format="ascii">-8.0936498567487742e+00  -8.0923420604257519e+00  -8.0858900902187916e+00  -8.0742739597854492e+00  -8.0577945029311984e+00  -8.0368899570265988e+00  -8.0121156073689104e+00  -7.9841279334925659e+00  -7.9536669745328812e+00  -7.9215365759751455e+00  -7.8885830123306748e+00  -7.8556725645341974e+00  -7.8236686360762624e+00  -7.7934089984349031e+00  -7.7656837787223463e+00  -7.7412148864802521e+00  -7.7206378957073101e+00  -7.7044883978774878e+00  -7.6931960358522833e+00  -7.6870634244566007e+00  -7.6857405090872568e+00  -8.0949008750740088e+00  -8.0936217495921614e+00  -8.0870768432085018e+00  -8.0753833137077073e+00  -8.0588177698604770e+00  -8.0378102650568160e+00  -8.0129140964527856e+00  -7.9847867748716475e+00  -7.9541709095623698e+00  -7.9218737782136577e+00  -7.8887455996081108e+00  -7.8556568835170921e+00  -7.8234753624116937e+00  -7.7930430554096324e+00  -7.7651540337960405e+00  -7.7405334619285462e+00  -7.7198184117966573e+00  -7.7035403432694629e+00  -7.6921058307437242e+00  -7.6857569858742742e+00  -7.6844340091651464e+00  -8.1009694786851494e+00  -8.0997789665448305e+00  -8.0930830191920649e+00  -8.0810361276355156e+00  -8.0639696300007451e+00  -8.0423355239541561e+00  -8.0167037849257223e+00  -7.9877496110028714e+00  -7.9562356566724537e+00  -7.9229913720371190e+00  -7.8888906269477692e+00  -7.8548283407160122e+00  -7.8216966969644437e+00  -7.7903615050999448e+00  -7.7616392860290615e+00  -7.7362756972384314e+00  -7.7149259715338001e+00  -7.6981380509783621e+00  -7.6863384260835943e+00  -7.6798144256993552e+00  -7.6786287613779205e+00  -8.1117794187444971e+00  -8.1106016812144972e+00  -8.1036539774684702e+00  -8.0910338071542292e+00  -8.0731063440009478e+00  -8.0503652429783461e+00  -8.0234184094018879e+00  -7.9929789323556237e+00  -7.9598493119331692e+00  -7.9249011567291765e+00  -7.8890523171423848e+00  -7.8532426502371946e+00  -7.8184092394176714e+00  -7.7854617578237768e+00  -7.7552586603019984e+00  -7.7285849817019097e+00  -7.7061327070229071e+00  -7.6884847791945523e+00  -7.6761022039560309e+00  -7.6693001810552026e+00  -7.6681132588311947e+00  -8.1271620301728014e+00  -8.1259500425239928e+00  -8.1186061289441103e+00  -8.1051783390130385e+00  -8.0860461401720460e+00  -8.0617456874066811e+00  -8.0329362075949522e+00  -8.0003861846729354e+00  -7.9649569421085156e+00  -7.9275819224726289e+00  -7.8892430146677164e+00  -7.8509452143766625e+00  -7.8136905907907375e+00  -7.7784523706369928e+00  -7.7461499267581875e+00  -7.7176255353381240e+00  -7.6936238496344123e+00  -7.6747746255992029e+00  -7.6615758010034618e+00  -7.6543557702941127e+00  -7.6531020055079590e+00  -8.1470210041701439e+00  -8.1457394990452521e+00  -8.1378492035573977e+00  -8.1233652582341573e+00  -8.1026815645511583e+00  -8.0763781104735308e+00  -8.0451743774305129e+00  -8.0099085374611061e+00  -7.9715178794562753e+00  -7.9310162725956861e+00  -7.8894689527939184e+00  -7.8479656191762155e+00  -7.8075927787262085e+00  -7.7694061751589096e+00  -7.7344041084852098e+00  -7.7035024705562902e+00  -7.6775122226037729e+00  -7.6571191462322021e+00  -7.6428612491284120e+00  -7.6350794270133271e+00  -7.6337231104813670e+00  -8.1713271365493494e+00  -8.1699460940169946e+00  -8.1613605736946280e+00  -8.1455654386233096e+00  -8.1229768402937648e+00  -8.0942248938125285e+00  -8.0600985737476201e+00  -8.0215187583071206e+00  -7.9795145218977215e+00  -7.9351976981175829e+00  -7.8897353304196747e+00  -7.8443206456479864e+00  -7.8001433311148984e+00  -7.7583598708036403e+00  -7.7200646764259018e+00  -7.6862627254700628e+00  -7.6578442020240161e+00  -7.6355605110927760e+00  -7.6199962107856258e+00  -7.6115107885623949e+00  -7.6100250384368255e+00  -8.2001045596729316e+00  -8.1985961666374791e+00  -8.1891678431456008e+00  -8.1718024047064102e+00  -8.1469483661752768e+00  -8.1152956932677718e+00  -8.0777138872099261e+00  -8.0352198312481331e+00  -7.9889497781871430e+00  -7.9401304041139884e+00  -7.8900483113988598e+00  -7.8400183799760672e+00  -7.7913515594526324e+00  -7.7453227052655400e+00  -7.7031390579383334e+00  -7.6659099403014492e+00  -7.6346180138081836e+00  -7.6100912657827227e+00  -7.5929698839642494e+00  -7.5836402855231624e+00  -7.5820008272347872e+00  -8.2334154539072433e+00  -8.2317526095554001e+00  -8.2213334304352372e+00  -8.2021341249795530e+00  -8.1746462051108111e+00  -8.1396312221328131e+00  -8.0980520178980324e+00  -8.0510357044280987e+00  -7.9998412912347820e+00  -7.9458268904725680e+00  -7.8904158772847754e+00  -7.8350622771091052e+00  -7.7812157842685430e+00  -7.7302868111906466e+00  -7.6836119779821832e+00  -7.6424204682804691e+00  -7.6078015047984140e+00  -7.5806720713886300e+00  -7.5617387638003377e+00  -7.5514238892671237e+00  -7.5496071751583855e+00  -8.2713436652337773e+00  -8.2694991479707234e+00  -8.2579388248687202e+00  -8.2366363591512552e+00  -8.2061371533008103e+00  -8.1672874723980264e+00  -8.1211578605238337e+00  -8.0690009700639553e+00  -8.0122145949931163e+00  -7.9523047664998598e+00  -7.8908483519080743e+00  -7.8294553411357359e+00  -7.7697310113140627e+00  -7.7132380985627398e+00  -7.6614591287895761e+00  -7.6157591504402200e+00  -7.5773490579767024e+00  -7.5472486503206788e+00  -7.5262430089967589e+00  -7.5147996440675469e+00  -7.5127821506436812e+00  -8.3139766149783405e+00  -8.3119225503504897e+00  -8.2990671651742840e+00  -8.2753852438373858e+00  -8.2414875738337745e+00  -8.1983196144935757e+00  -8.1470754676100086e+00  -8.0891497538553665e+00  -8.0260955579538074e+00  -7.9595831388514098e+00  -7.8913589011060337e+00  -7.8232046911689270e+00  -7.7568973127045711e+00  -7.6941680040080733e+00  -7.6366616562826373e+00  -7.5858957513669010e+00  -7.5432191161229580e+00  -7.5097696690478255e+00  -7.4864244076048960e+00  -7.4737059878253014e+00  -7.4714638885276941e+00  -8.3613846781382133e+00  -8.3590921612840834e+00  -8.3447831525534735e+00  -8.3184375801969797e+00  -8.2807443195491306e+00  -8.2327642156506631e+00  -8.1758324670419302e+00  -8.1115032566328260e+00  -8.0415018298106169e+00  -7.9676785062663864e+00  -7.8919641339863524e+00  -7.8163268268905819e+00  -7.7427294232012542e+00  -7.6730868278109110e+00  -7.6092224537223565e+00  -7.5528233270975544e+00  -7.5053937815545835e+00  -7.4682069415621175e+00  -7.4422469081975340e+00  -7.4281026069411089e+00  -7.4256116032707684e+00  -8.4135970937531805e+00  -8.4110358943778412e+00  -8.3951093268090577e+00  -8.3658075591953018e+00  -8.3239122988167082e+00  -8.2706183772606909e+00  -8.2074217583675200e+00  -8.1360550726185163e+00  -8.0584327332794565e+00  -7.9765999192222452e+00  -7.8926848746581131e+00  -7.8088539659960281e+00  -7.7272682154189232e+00  -7.6500395944905204e+00  -7.5791854344780187e+00  -7.5165798611966181e+00  -7.4639018620869724e+00  -7.4225791869446693e+00  -7.3937207227776449e+00  -7.3779947582905017e+00  -7.3752299849965466e+00  -8.4705733552845413e+00  -8.4677116547110369e+00  -8.4499976093203255e+00  -8.4174386480198518e+00  -8.3709272521532920e+00  -8.3118143377339706e+00  -8.2417791712129205e+00  -8.1627532282614368e+00  -8.0768568827029235e+00  -7.9863430640528730e+00  -7.8935471561143098e+00  -7.8008418907760682e+00  -7.7105948492528453e+00  -7.6251255382000922e+00  -7.5466591093390418e+00  -7.4772746050279197e+00  -7.4188467760230949e+00  -7.3729806173088379e+00  -7.3409311173446001e+00  -7.3234621107830904e+00  -7.3203980569034695e+00  -8.5321688978814354e+00  -8.5289730041371090e+00  -8.5092948350987410e+00  -8.4731691934920850e+00  -8.4216221496025323e+00  -8.3561879204784031e+00  -8.2787555911734518e+00  -8.1914777166996338e+00  -8.0966966788658734e+00  -7.9968828572629906e+00  -7.8945834842458238e+00  -7.7923798098462864e+00  -7.6928485251254548e+00  -7.5985224965948941e+00  -7.5118459977612435e+00  -7.4351207570729336e+00  -7.3704409102149651e+00  -7.3196158033101266e+00  -7.2840731720090091e+00  -7.2646932957781392e+00  -7.2613036768679136e+00  -8.5980937432056255e+00  -8.5945277074006707e+00  -8.5727007637631463e+00  -8.5326900216650277e+00  -8.4756853270677563e+00  -8.4034389287775753e+00  -8.3180818189785484e+00  -8.2220121177652832e+00  -8.1178087054552233e+00  -8.0081640731766104e+00  -7.8958344185763885e+00  -7.7836028044565193e+00  -7.6742489048739619e+00  -7.5705177033064270e+00  -7.4750796703948019e+00  -7.3904764201585547e+00  -7.3190483314946642e+00  -7.2628425414321010e+00  -7.2234940192610413e+00  -7.2020275292619447e+00  -7.1982850209514053e+00  -8.6678625638563354e+00  -8.6638875754457310e+00  -8.6397167490782785e+00  -8.5954919188441981e+00  -8.5326080615876219e+00  -8.4530812183937165e+00  -8.3593241525226780e+00  -8.2540077208897440e+00  -8.1399589619661885e+00  -8.0200894882277751e+00  -7.8973505087285556e+00  -7.7747074597858559e+00  -7.6551243619333240e+00  -7.5415466671845115e+00  -7.4368715331312076e+00  -7.3438961811582626e+00  -7.2652381915074571e+00  -7.2032248486261370e+00  -7.1597443834532735e+00  -7.1360049023954915e+00  -7.1318806007745357e+00  -8.7407343525941954e+00  -8.7363077101115838e+00  -8.7095828000211490e+00  -8.6608003172039467e+00  -8.5916187241968327e+00  -8.5043797452662595e+00  -8.4018284398613243e+00  -8.2869384974811506e+00  -8.1627918880040635e+00  -8.0325050480704174e+00  -7.8991946008082721e+00  -7.7659712210292975e+00  -7.6359471956116405e+00  -7.5122419278023154e+00  -7.3979697619655767e+00  -7.2961961533791104e+00  -7.2098517714918984e+00  -7.1415987946696600e+00  -7.0936417071906872e+00  -7.0674272781035610e+00  -7.0628896812367659e+00  -8.8156394532149402e+00  -8.8107127649872794e+00  -8.7812000676642583e+00  -8.7274936740587190e+00  -8.6515999119797868e+00  -8.5562714588020636e+00  -8.4446502976972795e+00  -8.3200454858333845e+00  -8.1857924223262959e+00  -8.0451817309918106e+00  -7.9014444681702720e+00  -7.7577757493247494e+00  -7.6173766172680324e+00  -7.4834932967709840e+00  -7.3594329499668962e+00  -7.2485358691925690e+00  -7.1540869471930719e+00  -7.0791547692853358e+00  -7.0263478814291069e+00  -6.9974322748344866e+00  -6.9924454676179408e+00  -8.8910909834647516e+00  -8.8856069963516777e+00  -8.8530346135484077e+00  -8.7940007370875364e+00  -8.7109840136841736e+00  -8.6072666561008511e+00  -8.4864696359176897e+00  -8.3522700072647780e+00  -8.2082411826572148e+00  -8.0577942386791026e+00  -7.9041955977120777e+00  -7.7506338859922623e+00  -7.6003093687854992e+00  -7.4565203766598573e+00  -7.3227207511685188e+00  -7.2025208996628853e+00  -7.0996050043917744e+00  -7.0175411906939917e+00  -6.9594658313826923e+00  -6.9275837522994710e+00  -6.9221042964491364e+00  -8.9650763671134737e+00  -8.9589633325862490e+00  -8.9229962023753675e+00  -8.8581697921047180e+00  -8.7676215142241460e+00  -8.6553277142451375e+00  -8.5254891862050144e+00  -8.3821772567004658e+00  -8.2291647301307442e+00  -8.0698976304314876e+00  -7.9075637322656771e+00  -7.7452184443795673e+00  -7.5859357187118750e+00  -7.4329560391474319e+00  -7.2898025285940511e+00  -7.1603302228722363e+00  -7.0486663082767365e+00  -6.9589969999304779e+00  -6.8951614154568190e+00  -6.8599839097324731e+00  -6.8539556374197694e+00  -9.0349222251970929e+00  -9.0280837072682640e+00  -8.9882818979382435e+00  -8.9170995348362041e+00  -8.8186151926194594e+00  -8.6977238524530094e+00  -8.5593205612311785e+00  -8.4078762625251642e+00  -8.2472865326743836e+00  -8.0809048748289172e+00  -7.9116863744347032e+00  -7.7423884691390361e+00  -7.5757944344225230e+00  -7.4149349963125282e+00  -7.2632815994626148e+00  -7.1248714556868569e+00  -7.0043033679164193e+00  -6.9065242803100020e+00  -6.8363212065206387e+00  -6.7974153138077540e+00  -6.7907606827732874e+00  -9.0971211321145642e+00  -9.0894168898918597e+00  -9.0451665511836712e+00  -8.9669155795979769e+00  -8.8601130626016289e+00  -8.7308656932006059e+00  -8.5848695767875576e+00  -8.4269506171256232e+00  -8.2609906425174149e+00  -8.0900714401357074e+00  -7.9167218455272232e+00  -7.7432042713700469e+00  -7.5718129399892176e+00  -7.4051727290829135e+00  -7.2465249166180197e+00  -7.0999633971606348e+00  -6.9705420158656830e+00  -6.8641192582001658e+00  -6.7867646854177597e+00  -6.7435274532405902e+00  -6.7361330873237346e+00  -9.1470994554875702e+00  -9.1383073109993251e+00  -9.0887070021940595e+00  -9.0024681046527331e+00  -8.8870562441119834e+00  -8.7501361132700115e+00  -8.5982487360307687e+00  -8.4364288828774718e+00  -8.2683201893502005e+00  -8.0964977795328963e+00  -7.9228436801720301e+00  -7.7489160851626391e+00  -7.5763069312596381e+00  -7.4070040428199722e+00  -7.2437717668096662e+00  -7.0905348217182267e+00  -6.9526820371618721e+00  -6.8370917699002698e+00  -6.7515453617415355e+00  -6.7030952230388809e+00  -6.6947871195533049e+00  -9.1788869891459228e+00  -9.1686195399649737e+00  -9.1122963012522717e+00  -9.0169162029160788e+00  -8.8928931794239414e+00  -8.7497629014433667e+00  -8.5947742852572286e+00  -8.4328460550849709e+00  -8.2670465144971335e+00  -8.0991665443358638e+00  -7.9302273290040777e+00  -7.7609031574626117e+00  -7.5918968645357952e+00  -7.4243241241286144e+00  -7.2601628631699029e+00  -7.1028013718395284e+00  -6.9576412512231416e+00  -6.8325222990356140e+00  -6.7374086964219106e+00  -6.6824043750932915e+00  -6.6729033649492129e+00  -9.1846111873160421e+00  -9.1721122318583195e+00  -9.1069452412532268e+00  -9.0011653064920889e+00  -8.8693209076858359e+00  -8.7228402837479404e+00  -8.5691539784061241e+00  -8.4124768162740189e+00  -8.2548588730466577e+00  -8.0970364728109701e+00  -7.9390258576420365e+00  -7.7805334598416218e+00  -7.6212802951436789e+00  -7.4613371968896649e+00  -7.3015718517548098e+00  -7.1443161728746478e+00  -6.9943297734356076e+00  -6.8599299457347929e+00  -6.7535470469331482e+00  -6.6898837917545162e+00  -6.6787191754376733e+00  -9.1536540457596072e+00  -9.1372468414021419e+00  -9.0600708156299419e+00  -8.9431881150932391e+00  -8.8062508637151300e+00  -8.6617242884914223e+00  -8.5160387873713166e+00  -8.3718466440234511e+00  -8.2297285044418995e+00  -8.0892134024975473e+00  -7.9493321238621526e+00  -7.8089161146500317e+00  -7.6667911486650500e+00  -7.5219789314082979e+00  -7.3740265860037795e+00  -7.2236390029499145e+00  -7.0738822547385434e+00  -6.9322183977509813e+00  -6.8129526428132321e+00  -6.7372751174787062e+00  -6.7235974734044408e+00  -9.0710472085406000e+00  -9.0465981697633531e+00  -8.9535072829883742e+00  -8.8275673744171215e+00  -8.6925252180927561e+00  -8.5592128089274393e+00  -8.4311666689915850e+00  -8.3086139002145902e+00  -8.1904707889149488e+00  -8.0751987541419066e+00  -7.9611252762621572e+00  -7.8465390809575437e+00  -7.7297047046775766e+00  -7.6088776020220354e+00  -7.4824053071234422e+00  -7.3490809416425025e+00  -7.2091347601191798e+00  -7.0667099696813560e+00  -6.9349841624913742e+00  -6.8421547513150234e+00  -6.8242653443097332e+00  -8.9134603886587982e+00  -8.8707653439531580e+00  -8.7609881406764867e+00  -8.6366434584144454e+00  -8.5185363125130706e+00  -8.4110823610134489e+00  -8.3132539574605371e+00  -8.2227865989737303e+00  -8.1374219162242181e+00  -8.0551538933149267e+00  -7.9741868698192935e+00  -7.8928228759843533e+00  -7.8093340298566636e+00  -7.7218289041577295e+00  -7.6281197429623990e+00  -7.5256424820329970e+00  -7.4116629515984558e+00  -7.2846433161975748e+00  -7.1497331765120355e+00  -7.0345675573736175e+00  -7.0084210749967895e+00  -8.6338381083954410e+00  -8.5547284233153587e+00  -8.4489952074914410e+00  -8.3572589123508489e+00  -8.2825030984601575e+00  -8.2202163647335453e+00  -8.1662856599395788e+00  -8.1178341731636596e+00  -8.0728741252862299e+00  -8.0299467004910401e+00  -7.9878768949115360e+00  -7.9456061088529042e+00  -7.9020578611920387e+00  -7.8559987283230992e+00  -7.8058527967631886e+00  -7.7494078147923879e+00  -7.6833209065621393e+00  -7.6024085454274708e+00  -7.4997617979766940e+00  -7.3770550136805735e+00  -7.3332869777016434e+00  -8.0000000000000000e+00  -8.0000000000000000e+00  -8.0000000000000000e+00  -8.0000000000000000e+00  -8.0000000000000000e+00  -8.0000000000000000e+00  -8.0000000000000000e+00  -8.0000000000000000e+00  -8.0000000000000000e+00  -8.0000000000000000e+00  -8.0000000000000000e+00  -8.0000000000000000e+00  -8.0000000000000000e+00  -8.0000000000000000e+00  -8.0000000000000000e+00  -8.0000000000000000e+00  -8.0000000000000000e+00  -8.0000000000000000e+00  -8.0000000000000000e+00  -8.0000000000000000e+00  -8.0000000000000000e+00  </DataArray> 
</PointData> 
</Piece>
</UnstructuredGrid>
</VTKFile>