<?xml version="1.0"?>
<VTKFile type="UnstructuredGrid"  version="0.1"  >
<UnstructuredGrid>
<Piece  NumberOfPoints="651" NumberOfCells="1200">
<Points>
<DataArray  type="Float64"  NumberOfComponents="3"  format="ascii">0 0 0  50000 0 0  100000 0 0  150000 0 0  200000 0 0  250000 0 0  300000 0 0  350000 0 0  400000 0 0  450000 0 0  500000 0 0  550000 0 0  600000 0 0  650000 0 0  700000 0 0  750000 0 0  800000 0 0  850000 0 0  900000 0 0  950000 0 0  1000000 0 0  0 50000 0  50000 50000 0  100000 50000 0  150000 50000 0  200000 50000 0  250000 50000 0  300000 50000 0  350000 50000 0  400000 50000 0  450000 50000 0  500000 50000 0  550000 50000 0  600000 50000 0  650000 50000 0  700000 50000 0  750000 50000 0  800000 50000 0  850000 50000 0  900000 50000 0  950000 50000 0  1000000 50000 0  0 100000 0  50000 100000 0  100000 100000 0  150000 100000 0  200000 100000 0  250000 100000 0  300000 100000 0  350000 100000 0  400000 100000 0  450000 100000 0  500000 100000 0  550000 100000 0  600000 100000 0  650000 100000 0  700000 100000 0  750000 100000 0  800000 100000 0  850000 100000 0  900000 100000 0  950000 100000 0  1000000 100000 0  0 150000 0  50000 150000 0  100000 150000 0  150000 150000 0  200000 150000 0  250000 150000 0  300000 150000 0  350000 150000 0  400000 150000 0  450000 150000 0  500000 150000 0  550000 150000 0  600000 150000 0  650000 150000 0  700000 150000 0  750000 150000 0  800000 150000 0  850000 150000 0  900000 150000 0  950000 150000 0  1000000 150000 0  0 200000 0  50000 200000 0  100000 200000 0  150000 200000 0  200000 200000 0  250000 200000 0  300000 200000 0  350000 200000 0  400000 200000 0  450000 200000 0  500000 200000 0  550000 200000 0  600000 200000 0  650000 200000 0  700000 200000 0  750000 200000 0  800000 200000 0  850000 200000 0  900000 200000 0  950000 200000 0  1000000 200000 0  0 250000 0  50000 250000 0  100000 250000 0  150000 250000 0  200000 250000 0  250000 250000 0  300000 250000 0  350000 250000 0  400000 250000 0  450000 250000 0  500000 250000 0  550000 250000 0  600000 250000 0  650000 250000 0  700000 250000 0  750000 250000 0  800000 250000 0  850000 250000 0  900000 250000 0  950000 250000 0  1000000 250000 0  0 300000 0  50000 300000 0  100000 300000 0  150000 300000 0  200000 300000 0  250000 300000 0  300000 300000 0  350000 300000 0  400000 300000 0  450000 300000 0  500000 300000 0  550000 300000 0  600000 300000 0  650000 300000 0  700000 300000 0  750000 300000 0  800000 300000 0  850000 300000 0  900000 300000 0  950000 300000 0  1000000 300000 0  0 350000 0  50000 350000 0  100000 350000 0  150000 350000 0  200000 350000 0  250000 350000 0  300000 350000 0  350000 350000 0  400000 350000 0  450000 350000 0  500000 350000 0  550000 350000 0  600000 350000 0  650000 350000 0  700000 350000 0  750000 350000 0  800000 350000 0  850000 350000 0  900000 350000 0  950000 350000 0  1000000 350000 0  0 400000 0  50000 400000 0  100000 400000 0  150000 400000 0  200000 400000 0  250000 400000 0  300000 400000 0  350000 400000 0  400000 400000 0  450000 400000 0  500000 400000 0  550000 400000 0  600000 400000 0  650000 400000 0  700000 400000 0  750000 400000 0  800000 400000 0  850000 400000 0  900000 400000 0  950000 400000 0  1000000 400000 0  0 450000 0  50000 450000 0  100000 450000 0  150000 450000 0  200000 450000 0  250000 450000 0  300000 450000 0  350000 450000 0  400000 450000 0  450000 450000 0  500000 450000 0  550000 450000 0  600000 450000 0  650000 450000 0  700000 450000 0  750000 450000 0  800000 450000 0  850000 450000 0  900000 450000 0  950000 450000 0  1000000 450000 0  0 500000 0  50000 500000 0  100000 500000 0  150000 500000 0  200000 500000 0  250000 500000 0  300000 500000 0  350000 500000 0  400000 500000 0  450000 500000 0  500000 500000 0  550000 500000 0  600000 500000 0  650000 500000 0  700000 500000 0  750000 500000 0  800000 500000 0  850000 500000 0  900000 500000 0  950000 500000 0  1000000 500000 0  0 550000 0  50000 550000 0  100000 550000 0  150000 550000 0  200000 550000 0  250000 550000 0  300000 550000 0  350000 550000 0  400000 550000 0  450000 550000 0  500000 550000 0  550000 550000 0  600000 550000 0  650000 550000 0  700000 550000 0  750000 550000 0  800000 550000 0  850000 550000 0  900000 550000 0  950000 550000 0  1000000 550000 0  0 600000 0  50000 600000 0  100000 600000 0  150000 600000 0  200000 600000 0  250000 600000 0  300000 600000 0  350000 600000 0  400000 600000 0  450000 600000 0  500000 600000 0  550000 600000 0  600000 600000 0  650000 600000 0  700000 600000 0  750000 600000 0  800000 600000 0  850000 600000 0  900000 600000 0  950000 600000 0  1000000 600000 0  0 650000 0  50000 650000 0  100000 650000 0  150000 650000 0  200000 650000 0  250000 650000 0  300000 650000 0  350000 650000 0  400000 650000 0  450000 650000 0  500000 650000 0  550000 650000 0  600000 650000 0  650000 650000 0  700000 650000 0  750000 650000 0  800000 650000 0  850000 650000 0  900000 650000 0  950000 650000 0  1000000 650000 0  0 700000 0  50000 700000 0  100000 700000 0  150000 700000 0  200000 700000 0  250000 700000 0  300000 700000 0  350000 700000 0  400000 700000 0  450000 700000 0  500000 700000 0  550000 700000 0  600000 700000 0  650000 700000 0  700000 700000 0  750000 700000 0  800000 700000 0  850000 700000 0  900000 700000 0  950000 700000 0  1000000 700000 0  0 750000 0  50000 750000 0  100000 750000 0  150000 750000 0  200000 750000 0  250000 750000 0  300000 750000 0  350000 750000 0  400000 750000 0  450000 750000 0  500000 750000 0  550000 750000 0  600000 750000 0  650000 750000 0  700000 750000 0  750000 750000 0  800000 750000 0  850000 750000 0  900000 750000 0  950000 750000 0  1000000 750000 0  0 800000 0  50000 800000 0  100000 800000 0  150000 800000 0  200000 800000 0  250000 800000 0  300000 800000 0  350000 800000 0  400000 800000 0  450000 800000 0  500000 800000 0  550000 800000 0  600000 800000 0  650000 800000 0  700000 800000 0  750000 800000 0  800000 800000 0  850000 800000 0  900000 800000 0  950000 800000 0  1000000 800000 0  0 850000 0  50000 850000 0  100000 850000 0  150000 850000 0  200000 850000 0  250000 850000 0  300000 850000 0  350000 850000 0  400000 850000 0  450000 850000 0  500000 850000 0  550000 850000 0  600000 850000 0  650000 850000 0  700000 850000 0  750000 850000 0  800000 850000 0  850000 850000 0  900000 850000 0  950000 850000 0  1000000 850000 0  0 900000 0  50000 900000 0  100000 900000 0  150000 900000 0  200000 900000 0  250000 900000 0  300000 900000 0  350000 900000 0  400000 900000 0  450000 900000 0  500000 900000 0  550000 900000 0  600000 900000 0  650000 900000 0  700000 900000 0  750000 900000 0  800000 900000 0  850000 900000 0  900000 900000 0  950000 900000 0  1000000 900000 0  0 950000 0  50000 950000 0  100000 950000 0  150000 950000 0  200000 950000 0  250000 950000 0  300000 950000 0  350000 950000 0  400000 950000 0  450000 950000 0  500000 950000 0  550000 950000 0  600000 950000 0  650000 950000 0  700000 950000 0  750000 950000 0  800000 950000 0  850000 950000 0  900000 950000 0  950000 950000 0  1000000 950000 0  0 1000000 0  50000 1000000 0  100000 1000000 0  150000 1000000 0  200000 1000000 0  250000 1000000 0  300000 1000000 0  350000 1000000 0  400000 1000000 0  450000 1000000 0  500000 1000000 0  550000 1000000 0  600000 1000000 0  650000 1000000 0  700000 1000000 0  750000 1000000 0  800000 1000000 0  850000 1000000 0  900000 1000000 0  950000 1000000 0  1000000 1000000 0  0 1050000 0  50000 1050000 0  100000 1050000 0  150000 1050000 0  200000 1050000 0  250000 1050000 0  300000 1050000 0  350000 1050000 0  400000 1050000 0  450000 1050000 0  500000 1050000 0  550000 1050000 0  600000 1050000 0  650000 1050000 0  700000 1050000 0  750000 1050000 0  800000 1050000 0  850000 1050000 0  900000 1050000 0  950000 1050000 0  1000000 1050000 0  0 1100000 0  50000 1100000 0  100000 1100000 0  150000 1100000 0  200000 1100000 0  250000 1100000 0  300000 1100000 0  350000 1100000 0  400000 1100000 0  450000 1100000 0  500000 1100000 0  550000 1100000 0  600000 1100000 0  650000 1100000 0  700000 1100000 0  750000 1100000 0  800000 1100000 0  850000 1100000 0  900000 1100000 0  950000 1100000 0  1000000 1100000 0  0 1150000 0  50000 1150000 0  100000 1150000 0  150000 1150000 0  200000 1150000 0  250000 1150000 0  300000 1150000 0  350000 1150000 0  400000 1150000 0  450000 1150000 0  500000 1150000 0  550000 1150000 0  600000 1150000 0  650000 1150000 0  700000 1150000 0  750000 1150000 0  800000 1150000 0  850000 1150000 0  900000 1150000 0  950000 1150000 0  1000000 1150000 0  0 1200000 0  50000 1200000 0  100000 1200000 0  150000 1200000 0  200000 1200000 0  250000 1200000 0  300000 1200000 0  350000 1200000 0  400000 1200000 0  450000 1200000 0  500000 1200000 0  550000 1200000 0  600000 1200000 0  650000 1200000 0  700000 1200000 0  750000 1200000 0  800000 1200000 0  850000 1200000 0  900000 1200000 0  950000 1200000 0  1000000 1200000 0  0 1250000 0  50000 1250000 0  100000 1250000 0  150000 1250000 0  200000 1250000 0  250000 1250000 0  300000 1250000 0  350000 1250000 0  400000 1250000 0  450000 1250000 0  500000 1250000 0  550000 1250000 0  600000 1250000 0  650000 1250000 0  700000 1250000 0  750000 1250000 0  800000 1250000 0  850000 1250000 0  900000 1250000 0  950000 1250000 0  1000000 1250000 0  0 1300000 0  50000 1300000 0  100000 1300000 0  150000 1300000 0  200000 1300000 0  250000 1300000 0  300000 1300000 0  350000 1300000 0  400000 1300000 0  450000 1300000 0  500000 1300000 0  550000 1300000 0  600000 1300000 0  650000 1300000 0  700000 1300000 0  750000 1300000 0  800000 1300000 0  850000 1300000 0  900000 1300000 0  950000 1300000 0  1000000 1300000 0  0 1350000 0  50000 1350000 0  100000 1350000 0  150000 1350000 0  200000 1350000 0  250000 1350000 0  300000 1350000 0  350000 1350000 0  400000 1350000 0  450000 1350000 0  500000 1350000 0  550000 1350000 0  600000 1350000 0  650000 1350000 0  700000 135
[...]
<PointData  Scalars="f_4491"> 
<DataArray  type="Float64"  Name="f_4491"  format="ascii">-8.1037515476092263e+00  -8.1023002427404034e+00  -8.0951436903410467e+00  -8.0822602416845353e+00  -8.0639839531043584e+00  -8.0408011032783406e+00  -8.0133276191609681e+00  -7.9822915076197907e+00  -7.9485133210369723e+00  -7.9128842772534380e+00  -7.8763425815511301e+00  -7.8398485918449383e+00  -7.8043594736246114e+00  -7.7708039982678825e+00  -7.7400581631900165e+00  -7.7129224058651662e+00  -7.6901015390528800e+00  -7.6721896477543634e+00  -7.6596635221514751e+00  -7.6528593005185233e+00  -7.6513879230591666e+00  -8.1051251399837021e+00  -8.1037066812681804e+00  -8.0964478581383386e+00  -8.0834793763198967e+00  -8.0651084425160366e+00  -8.0418122597004107e+00  -8.0142045422472599e+00  -7.9830144325939658e+00  -7.9490653243453160e+00  -7.9132522311493005e+00  -7.8765177205213286e+00  -7.8398268270142193e+00  -7.8041415030085268e+00  -7.7703952161466150e+00  -7.7394683234793664e+00  -7.7121648575949715e+00  -7.6891912764761674e+00  -7.6711370554495328e+00  -7.6584533190594808e+00  -7.6514088889933110e+00  -7.6499374530240045e+00  -8.1118419254209755e+00  -8.1105230477630830e+00  -8.1030978536389728e+00  -8.0897383572976782e+00  -8.0708126281979133e+00  -8.0468222676648811e+00  -8.0183995097998988e+00  -7.9862931190045181e+00  -7.9513487185731275e+00  -7.9144859070352753e+00  -7.8766734741185731e+00  -7.8389035160874467e+00  -7.8021650923176571e+00  -7.7674180445033629e+00  -7.7355676178000499e+00  -7.7074405651037790e+00  -7.6837634818110985e+00  -7.6651441267115201e+00  -7.6520557372733897e+00  -7.6448173748721917e+00  -7.6434988747184676e+00  -8.1238170483196779e+00  -8.1225134760817816e+00  -8.1148103691902964e+00  -8.1008161683004385e+00  -8.0809364931393777e+00  -8.0557192238166326e+00  -8.0258387100960231e+00  -7.9920857653736430e+00  -7.9553502149293154e+00  -7.9165984154162388e+00  -7.8768479300498111e+00  -7.8371406872160936e+00  -7.7985155353453610e+00  -7.7619809571551874e+00  -7.7284887017675370e+00  -7.6989091965779783e+00  -7.6740098095856926e+00  -7.6544371437089813e+00  -7.6407027547616204e+00  -7.6331566259305390e+00  -7.6318371538611744e+00  -8.1408626187548769e+00  -8.1395221610956394e+00  -8.1313809390870251e+00  -8.1164922715493670e+00  -8.0952775629089295e+00  -8.0683318615715880e+00  -8.0363864808937784e+00  -8.0002937015863971e+00  -7.9610086037860484e+00  -7.9195661266197606e+00  -7.8770548531852533e+00  -7.8345889476561936e+00  -7.7932793236087150e+00  -7.7542049423058872e+00  -7.7183851131489298e+00  -7.6867537538553821e+00  -7.6601366606979191e+00  -7.6392323788669136e+00  -7.6245934391538075e+00  -7.6165844077972551e+00  -7.6151912284577525e+00  -8.1628710598729448e+00  -8.1614546143300775e+00  -8.1527087304493122e+00  -8.1366500482101181e+00  -8.1137159080022574e+00  -8.0845499716359210e+00  -8.0499504031872977e+00  -8.0108467939393648e+00  -7.9682784856013482e+00  -7.9233696156363784e+00  -7.8773011961266324e+00  -7.8312813197661253e+00  -7.7865145327445848e+00  -7.7441713008217681e+00  -7.7053584619119704e+00  -7.6710915791839440e+00  -7.6422699975673787e+00  -7.6196544096097618e+00  -7.6038417817387938e+00  -7.5952104828190476e+00  -7.5937040783766294e+00  -8.1898092821868005e+00  -8.1882835856484046e+00  -8.1787679955206904e+00  -8.1612565514092985e+00  -8.1362112214093472e+00  -8.1043312517926989e+00  -8.0664918860482402e+00  -8.0237144487126812e+00  -7.9771400758854760e+00  -7.9280015421820274e+00  -7.8775927508552979e+00  -7.8272365885420712e+00  -7.7782520087965237e+00  -7.7319211809577615e+00  -7.6894575187745033e+00  -7.6519753766088900e+00  -7.6204619594870220e+00  -7.5957507396618560e+00  -7.5784902989746445e+00  -7.5690795759469154e+00  -7.5674302398585169e+00  -8.2217033919480009e+00  -8.2200376352234290e+00  -8.2095887284957421e+00  -8.1903372823773388e+00  -8.1627811360773332e+00  -8.1276859068460734e+00  -8.0860161433180036e+00  -8.0388996367153513e+00  -7.9875963723169834e+00  -7.9334664636256171e+00  -7.8779363751888019e+00  -7.8224638723928557e+00  -7.7685023529178387e+00  -7.7174652268472972e+00  -7.6706910077672621e+00  -7.6294097498195192e+00  -7.5947112045828042e+00  -7.5675137686155747e+00  -7.5485277086222888e+00  -7.5381817981098198e+00  -7.5363627206007386e+00  -8.2586217181326624e+00  -8.2567858813033332e+00  -8.2452395494985478e+00  -8.2239559650316938e+00  -8.1934806545796768e+00  -8.1546586273125126e+00  -8.1085579411134976e+00  -8.0564286137227761e+00  -7.9996667379298501e+00  -7.9397781486757495e+00  -7.8783409414579051e+00  -7.8169671387243289e+00  -7.7572639496640905e+00  -7.7007950638285916e+00  -7.6490424305457010e+00  -7.6033689934778632e+00  -7.5649826564059834e+00  -7.5349005004187406e+00  -7.5139064335400354e+00  -7.5024690180957494e+00  -7.5004541968716385e+00  -8.3006566324274953e+00  -8.2986205567196620e+00  -8.2858102349544023e+00  -8.2621960622015056e+00  -8.2283833511001969e+00  -8.1853110678631591e+00  -8.1341667008134504e+00  -8.0763394604777634e+00  -8.0133793024845943e+00  -7.9469560405069206e+00  -7.8788179190715786e+00  -7.8107498456785809e+00  -7.7445314903860973e+00  -7.6818953932299134e+00  -7.6244852452435214e+00  -7.5738146092550975e+00  -7.5312262845715923e+00  -7.4978513544202530e+00  -7.4745607649774968e+00  -7.4618732079944854e+00  -7.4596366678505355e+00  -8.3479044816111134e+00  -8.3456372768338269e+00  -8.3313923948231139e+00  -8.3051414587602181e+00  -8.2675623263747120e+00  -8.2197039826697473e+00  -8.1628909228607114e+00  -8.0986697533735352e+00  -8.0287625771315181e+00  -7.9550212485466734e+00  -7.8793819290200577e+00  -7.8038200086250171e+00  -7.7303052732969437e+00  -7.6607570298692309e+00  -7.5969989409285468e+00  -7.5407135424708445e+00  -7.4933965467462595e+00  -7.4563100031884897e+00  -7.4304267903505323e+00  -7.4163267646051150e+00  -7.4138421943601474e+00  -8.4004427196284190e+00  -8.3979123444239860e+00  -8.3820572007461713e+00  -8.3528546051762333e+00  -8.3110690543518295e+00  -8.2578775071831956e+00  -8.1947609063746576e+00  -8.1234427482690705e+00  -8.0458359688871752e+00  -7.9639919960182244e+00  -7.8800514111083269e+00  -7.7961960401653814e+00  -7.7146018462516075e+00  -7.6373916931252337e+00  -7.5665871070860256e+00  -7.5040585509559365e+00  -7.4514741221958793e+00  -7.4102457740932941e+00  -7.3814651574806120e+00  -7.3657856330787910e+00  -7.3630261985247678e+00  -8.4583032016501498e+00  -8.4554761367365945e+00  -8.4378290888759189e+00  -8.4053507191590207e+00  -8.3589085154876237e+00  -8.2998280329779295e+00  -8.2297684600970502e+00  -8.1506511062110469e+00  -8.0645985762812362e+00  -7.9738782552842249e+00  -7.8808494806155895e+00  -7.7879137766348316e+00  -7.6974667285407010e+00  -7.6118495897475009e+00  -7.5332987983622788e+00  -7.4638921887222303e+00  -7.4054914573555841e+00  -7.3596799829558179e+00  -7.3276877909823668e+00  -7.3102562667272650e+00  -7.3071945059701333e+00  -8.5214404747967230e+00  -8.5182814334548471e+00  -8.4986542232007043e+00  -8.4625666308361023e+00  -8.4110090289750072e+00  -8.3454800638912641e+00  -8.2678421446535992e+00  -8.1802369901374945e+00  -8.0850154697799574e+00  -7.9846751936664946e+00  -7.8818050318184651e+00  -7.7790351759716430e+00  -7.6789900935497570e+00  -7.5842410095443675e+00  -7.4972546643257942e+00  -7.4203359968379257e+00  -7.3555636899195118e+00  -7.3047176144864938e+00  -7.2691897973021078e+00  -7.2498275890581816e+00  -7.2464353256458960e+00  -8.5896937553574233e+00  -8.5861653714940349e+00  -8.5643623043497517e+00  -8.5243226717463028e+00  -8.4671850220631324e+00  -8.3946512577092225e+00  -8.3088163896033684e+00  -8.2120671749396958e+00  -8.1070005143376278e+00  -7.9963549707005317e+00  -7.8829541416706670e+00  -7.7696592478966195e+00  -7.6593264427096770e+00  -7.5547633567846955e+00  -7.4586795394321026e+00  -7.3736267134794415e+00  -7.3019267179709075e+00  -7.2455859529633910e+00  -7.2061879784158061e+00  -7.1847092753736170e+00  -7.1809574775353529e+00  -8.6627411096741760e+00  -8.6588035186285328e+00  -8.6346200516766967e+00  -8.5902757018239999e+00  -8.5270906519522498e+00  -8.4470085504471797e+00  -8.3523925639104029e+00  -8.2459016085881505e+00  -8.1303946543380459e+00  -8.0088563585624470e+00  -7.8843418253810311e+00  -7.7599358474762630e+00  -7.6387194496187396e+00  -7.5237352685640815e+00  -7.4179434847980614e+00  -7.3241616514458840e+00  -7.2449845194924505e+00  -7.1826820731284844e+00  -7.1390676250950733e+00  -7.1152778633928477e+00  -7.1111363498737852e+00  -8.7400441361886863e+00  -8.7356543127955160e+00  -8.7088743430443198e+00  -8.6598609323967324e+00  -8.5901617328172062e+00  -8.5020128497613765e+00  -8.3980897729439956e+00  -8.2813536712673912e+00  -8.1549384810699621e+00  -8.0220716134155410e+00  -7.8860241872139305e+00  -7.7500829972978531e+00  -7.6175332613360682e+00  -7.4916396904351119e+00  -7.3756136196678144e+00  -7.2725558405326893e+00  -7.1853683144550864e+00  -7.1166315456842693e+00  -7.0684396087994301e+00  -7.0421324610511089e+00  -7.0375693046540952e+00  -8.8207811397874352e+00  -8.8158917684009239e+00  -8.7862825021499287e+00  -8.7322195807926821e+00  -8.6555427989491527e+00  -8.5588493042445730e+00  -8.4451828880439130e+00  -8.3178403014743587e+00  -8.1802379255031639e+00  -8.0358300508832912e+00  -7.8880709822714365e+00  -7.7404083361230684e+00  -7.5962915137604199e+00  -7.4591778914948579e+00  -7.3325194114238235e+00  -7.2197140809888811e+00  -7.1240108333955510e+00  -7.0483613594431942e+00  -6.9952103035820432e+00  -6.9661621972667565e+00  -6.9611425984664175e+00  -8.9037663152886104e+00  -8.8983238090596277e+00  -8.8656264494779915e+00  -8.8061084683579711e+00  -8.7219953188620725e+00  -8.6163396829666929e+00  -8.4926252559251179e+00  -8.3545203983992202e+00  -8.2057222389818136e+00  -8.0498779643091360e+00  -7.8905685386964510e+00  -7.7313349982157931e+00  -7.5757249552797443e+00  -7.4273362012813990e+00  -7.2898342609847031e+00  -7.1669216603908303e+00  -7.0622398797801527e+00  -6.9791910443482070e+00  -6.9206676791680755e+00  -6.8886281633347313e+00  -6.8831124423363335e+00  -8.9873516522679022e+00  -8.9812926550170999e+00  -8.9452061275560180e+00  -8.8797862374325600e+00  -8.7877820263840150e+00  -8.6728331177480129e+00  -8.5389540302067228e+00  -8.3902208585633158e+00  -8.2305943584583883e+00  -8.0638550314347164e+00  -7.8936228528133965e+00  -7.7234314884822632e+00  -7.5568275225455022e+00  -7.3974663441688921e+00  -7.2491759135774947e+00  -7.1159580279001711e+00  -7.0018966476786186e+00  -6.9109475411496799e+00  -6.8465882747046525e+00  -6.8112636267550100e+00  -6.8052037827916214e+00  -9.0693068186073127e+00  -9.0625519817677507e+00  -9.0227052709451740e+00  -8.9508685417183624e+00  -8.8505210628040327e+00  -8.7260717963327288e+00  -8.5821777941529600e+00  -8.4233519593911002e+00  -8.2537758337784286e+00  -8.0772684463684339e+00  -7.8973624137053031e+00  -7.7174435785915625e+00  -7.5409183679370368e+00  -7.3713779080835504e+00  -7.2127268086497631e+00  -7.0692378800182372e+00  -6.9454859985447959e+00  -6.8461119532828167e+00  -6.7753722054147580e+00  -6.7363981776169295e+00  -6.7297321287961047e+00  -9.1466695471463204e+00  -9.1391122624051349e+00  -9.0950182008078286e+00  -9.0161407378775955e+00  -8.9070023511554464e+00  -8.7730301187142050e+00  -8.6196503872407551e+00  -8.4518187355844887e+00  -8.2738525392987086e+00  -8.0894680717731244e+00  -7.9019398748977423e+00  -7.7143233900231998e+00  -7.5297027421457177e+00  -7.3514364443970832e+00  -7.1833716989945602e+00  -7.0299831065782357e+00  -6.8963681587456449e+00  -6.7880107425849676e+00  -6.7102179097425205e+00  -6.6671150195798310e+00  -6.6597570384647078e+00  -9.2155537943907202e+00  -9.2070390486225318e+00  -9.1580178060836896e+00  -9.0713103729912419e+00  -8.9529582891244033e+00  -8.8097315020429008e+00  -8.6479439421916506e+00  -8.4729443092673087e+00  -8.2890344838556462e+00  -8.0996293923087954e+00  -7.9075310115950934e+00  -7.7152460290503768e+00  -7.5253164467678335e+00  -7.3406508663444789e+00  -7.1648412767327816e+00  -7.0024249829416636e+00  -6.8590037136378754e+00  -6.7410715939435022e+00  -6.6553571635266868e+00  -6.6074575736955348e+00  -6.5992822899984649e+00  -9.2708926536016580e+00  -9.2611748383997519e+00  -9.2062279626291215e+00  -9.1106723363010218e+00  -8.9827845531647181e+00  -8.8310611199198394e+00  -8.6627520537805687e+00  -8.4834372042323949e+00  -8.2971542073039561e+00  -8.1067562946868161e+00  -7.9143284990050926e+00  -7.7215969753362597e+00  -7.5303253412442990e+00  -7.3427160887506693e+00  -7.1618325275716321e+00  -6.9920243496069840e+00  -6.8392644561878297e+00  -6.7111772808176458e+00  -6.6163885972856562e+00  -6.5627157484591683e+00  -6.5535307196494195e+00  -9.3060725041021097e+00  -9.2947232368590509e+00  -9.2323298394836346e+00  -9.1266485526182226e+00  -8.9892236871462892e+00  -8.8306250277604583e+00  -8.6588866981326476e+00  -8.4794595760643752e+00  -8.2957434544504967e+00  -8.1097223194497001e+00  -7.9225271495408833e+00  -7.7349045218626369e+00  -7.5476327083509407e+00  -7.3619475981649716e+00  -7.1800408470474988e+00  -7.0056675061388747e+00  -6.8448145320620544e+00  -6.7061719431329783e+00  -6.6007849138083809e+00  -6.5398528399183036e+00  -6.5293492725622997e+00  -9.3123729102696391e+00  -9.2985556448958420e+00  -9.2263661766418146e+00  -9.1091650067828951e+00  -8.9630787895832889e+00  -8.8007743195061323e+00  -8.6304865056999667e+00  -8.4568858046180218e+00  -8.2822434348825151e+00  -8.1073746923574124e+00  -7.9322969302189961e+00  -7.7566842239668494e+00  -7.5802268457165018e+00  -7.4030027726032213e+00  -7.2259731621152845e+00  -7.0517221519217159e+00  -6.8855250326579540e+00  -6.7366010914079855e+00  -6.6187291713542367e+00  -6.5482058317774570e+00  -6.5358630162615183e+00  -9.2780329743497383e+00  -9.2598918694180856e+00  -9.1743994478712914e+00  -9.0448999208016847e+00  -8.8931761504056208e+00  -8.7330435948033074e+00  -8.5716283164095994e+00  -8.4118689388003727e+00  -8.2544082553404117e+00  -8.0987237746482670e+00  -7.9437409600928532e+00  -7.7881644275751860e+00  -7.6306925049874916e+00  -7.4702406031203719e+00  -7.3063063578882064e+00  -7.1396705493674384e+00  -6.9737312269009477e+00  -6.8167597532096531e+00  -6.6846137150474227e+00  -6.6007809567813034e+00  -6.5856590695159580e+00  -9.1864744606210866e+00  -9.1594319685989376e+00  -9.0563091677016665e+00  -8.9167781568471831e+00  -8.7671596987064824e+00  -8.6194589167331745e+00  -8.4775946872335748e+00  -8.3418181066242596e+00  -8.2109277471366902e+00  -8.0832182816238447e+00  -7.9568360806386558e+00  -7.8298846122549497e+00  -7.7004405005109149e+00  -7.5665701898741364e+00  -7.4264419922134222e+00  -7.2787178602227272e+00  -7.1236525212526010e+00  -6.9658384153566697e+00  -6.8198841711481561e+00  -6.7170475048751870e+00  -6.6972664475894268e+00  -9.0118610544868680e+00  -8.9646120249500250e+00  -8.8430042260636306e+00  -8.7052442743333867e+00  -8.5743941042229856e+00  -8.4553487836431866e+00  -8.3469694874863514e+00  -8.2467464688450551e+00  -8.1521769340348893e+00  -8.0610379120593603e+00  -7.9713396361318161e+00  -7.8812006141318030e+00  -7.7887061540310665e+00  -7.6917602021343976e+00  -7.5879381040358860e+00  -7.4743978709550554e+00  -7.3481086925873411e+00  -7.2073658112354941e+00  -7.0578787890129648e+00  -6.9302877341207605e+00  -6.9013674765698081e+00  -8.7020923041484473e+00  -8.6144955301622073e+00  -8.4973672836386012e+00  -8.3957363782457666e+00  -8.3129188092303075e+00  -8.2439174146692764e+00  -8.1841744230004316e+00  -8.1305018911129388e+00  -8.0806972112532307e+00  -8.0331440389839646e+00  -7.9865405619446621e+00  -7.9397139502827248e+00  -7.8914715259609292e+00  -7.8404466362653711e+00  -7.7848929893918672e+00  -7.7223589243244435e+00  -7.6491394931448147e+00  -7.5594895583846116e+00  -7.4457526383136177e+00  -7.3097906135696862e+00  -7.2613482207941109e+00  -8.0000000000000000e+00  -8.0000000000000000e+00  -8.0000000000000000e+00  -8.0000000000000000e+00  -8.0000000000000000e+00  -8.0000000000000000e+00  -8.0000000000000000e+00  -8.0000000000000000e+00  -8.0000000000000000e+00  -8.0000000000000000e+00  -8.0000000000000000e+00  -8.0000000000000000e+00  -8.0000000000000000e+00  -8.0000000000000000e+00  -8.0000000000000000e+00  -8.0000000000000000e+00  -8.0000000000000000e+00  -8.0000000000000000e+00  -8.0000000000000000e+00  -8.0000000000000000e+00  -8.0000000000000000e+00  </DataArray> 
</PointData> 
</Piece>
</UnstructuredGrid>
</VTKFile>