<?xml version="1.0"?>
<VTKFile type="UnstructuredGrid"  version="0.1"  >
<UnstructuredGrid>
<Piece  NumberOfPoints="651" NumberOfCells="1200">
<Points>
<DataArray  type="Float64"  NumberOfComponents="3"  format="ascii">0 0 0  50000 0 0  100000 0 0  150000 0 0  200000 0 0  250000 0 0  300000 0 0  350000 0 0  400000 0 0  450000 0 0  500000 0 0  550000 0 0  600000 0 0  650000 0 0  700000 0 0  750000 0 0  800000 0 0  850000 0 0  900000 0 0  950000 0 0  1000000 0 0  0 50000 0  50000 50000 0  100000 50000 0  150000 50000 0  200000 50000 0  250000 50000 0  300000 50000 0  350000 50000 0  400000 50000 0  450000 50000 0  500000 50000 0  550000 50000 0  600000 50000 0  650000 50000 0  700000 50000 0  750000 50000 0  800000 50000 0  850000 50000 0  900000 50000 0  950000 50000 0  1000000 50000 0  0 100000 0  50000 100000 0  100000 100000 0  150000 100000 0  200000 100000 0  250000 100000 0  300000 100000 0  350000 100000 0  400000 100000 0  450000 100000 0  500000 100000 0  550000 100000 0  600000 100000 0  650000 100000 0  700000 100000 0  750000 100000 0  800000 100000 0  850000 100000 0  900000 100000 0  950000 100000 0  1000000 100000 0  0 150000 0  50000 150000 0  100000 150000 0  150000 150000 0  200000 150000 0  250000 150000 0  300000 150000 0  350000 150000 0  400000 150000 0  450000 150000 0  500000 150000 0  550000 150000 0  600000 150000 0  650000 150000 0  700000 150000 0  750000 150000 0  800000 150000 0  850000 150000 0  900000 150000 0  950000 150000 0  1000000 150000 0  0 200000 0  50000 200000 0  100000 200000 0  150000 200000 0  200000 200000 0  250000 200000 0  300000 200000 0  350000 200000 0  400000 200000 0  450000 200000 0  500000 200000 0  550000 200000 0  600000 200000 0  650000 200000 0  700000 200000 0  750000 200000 0  800000 200000 0  850000 200000 0  900000 200000 0  950000 200000 0  1000000 200000 0  0 250000 0  50000 250000 0  100000 250000 0  150000 250000 0  200000 250000 0  250000 250000 0  300000 250000 0  350000 250000 0  400000 250000 0  450000 250000 0  500000 250000 0  550000 250000 0  600000 250000 0  650000 250000 0  700000 250000 0  750000 250000 0  800000 250000 0  850000 250000 0  900000 250000 0  950000 250000 0  1000000 250000 0  0 300000 0  50000 300000 0  100000 300000 0  150000 300000 0  200000 300000 0  250000 300000 0  300000 300000 0  350000 300000 0  400000 300000 0  450000 300000 0  500000 300000 0  550000 300000 0  600000 300000 0  650000 300000 0  700000 300000 0  750000 300000 0  800000 300000 0  850000 300000 0  900000 300000 0  950000 300000 0  1000000 300000 0  0 350000 0  50000 350000 0  100000 350000 0  150000 350000 0  200000 350000 0  250000 350000 0  300000 350000 0  350000 350000 0  400000 350000 0  450000 350000 0  500000 350000 0  550000 350000 0  600000 350000 0  650000 350000 0  700000 350000 0  750000 350000 0  800000 350000 0  850000 350000 0  900000 350000 0  950000 350000 0  1000000 350000 0  0 400000 0  50000 400000 0  100000 400000 0  150000 400000 0  200000 400000 0  250000 400000 0  300000 400000 0  350000 400000 0  400000 400000 0  450000 400000 0  500000 400000 0  550000 400000 0  600000 400000 0  650000 400000 0  700000 400000 0  750000 400000 0  800000 400000 0  850000 400000 0  900000 400000 0  950000 400000 0  1000000 400000 0  0 450000 0  50000 450000 0  100000 450000 0  150000 450000 0  200000 450000 0  250000 450000 0  300000 450000 0  350000 450000 0  400000 450000 0  450000 450000 0  500000 450000 0  550000 450000 0  600000 450000 0  650000 450000 0  700000 450000 0  750000 450000 0  800000 450000 0  850000 450000 0  900000 450000 0  950000 450000 0  1000000 450000 0  0 500000 0  50000 500000 0  100000 500000 0  150000 500000 0  200000 500000 0  250000 500000 0  300000 500000 0  350000 500000 0  400000 500000 0  450000 500000 0  500000 500000 0  550000 500000 0  600000 500000 0  650000 500000 0  700000 500000 0  750000 500000 0  800000 500000 0  850000 500000 0  900000 500000 0  950000 500000 0  1000000 500000 0  0 550000 0  50000 550000 0  100000 550000 0  150000 550000 0  200000 550000 0  250000 550000 0  300000 550000 0  350000 550000 0  400000 550000 0  450000 550000 0  500000 550000 0  550000 550000 0  600000 550000 0  650000 550000 0  700000 550000 0  750000 550000 0  800000 550000 0  850000 550000 0  900000 550000 0  950000 550000 0  1000000 550000 0  0 600000 0  50000 600000 0  100000 600000 0  150000 600000 0  200000 600000 0  250000 600000 0  300000 600000 0  350000 600000 0  400000 600000 0  450000 600000 0  500000 600000 0  550000 600000 0  600000 600000 0  650000 600000 0  700000 600000 0  750000 600000 0  800000 600000 0  850000 600000 0  900000 600000 0  950000 600000 0  1000000 600000 0  0 650000 0  50000 650000 0  100000 650000 0  150000 650000 0  200000 650000 0  250000 650000 0  300000 650000 0  350000 650000 0  400000 650000 0  450000 650000 0  500000 650000 0  550000 650000 0  600000 650000 0  650000 650000 0  700000 650000 0  750000 650000 0  800000 650000 0  850000 650000 0  900000 650000 0  950000 650000 0  1000000 650000 0  0 700000 0  50000 700000 0  100000 700000 0  150000 700000 0  200000 700000 0  250000 700000 0  300000 700000 0  350000 700000 0  400000 700000 0  450000 700000 0  500000 700000 0  550000 700000 0  600000 700000 0  650000 700000 0  700000 700000 0  750000 700000 0  800000 700000 0  850000 700000 0  900000 700000 0  950000 700000 0  1000000 700000 0  0 750000 0  50000 750000 0  100000 750000 0  150000 750000 0  200000 750000 0  250000 750000 0  300000 750000 0  350000 750000 0  400000 750000 0  450000 750000 0  500000 750000 0  550000 750000 0  600000 750000 0  650000 750000 0  700000 750000 0  750000 750000 0  800000 750000 0  850000 750000 0  900000 750000 0  950000 750000 0  1000000 750000 0  0 800000 0  50000 800000 0  100000 800000 0  150000 800000 0  200000 800000 0  250000 800000 0  300000 800000 0  350000 800000 0  400000 800000 0  450000 800000 0  500000 800000 0  550000 800000 0  600000 800000 0  650000 800000 0  700000 800000 0  750000 800000 0  800000 800000 0  850000 800000 0  900000 800000 0  950000 800000 0  1000000 800000 0  0 850000 0  50000 850000 0  100000 850000 0  150000 850000 0  200000 850000 0  250000 850000 0  300000 850000 0  350000 850000 0  400000 850000 0  450000 850000 0  500000 850000 0  550000 850000 0  600000 850000 0  650000 850000 0  700000 850000 0  750000 850000 0  800000 850000 0  850000 850000 0  900000 850000 0  950000 850000 0  1000000 850000 0  0 900000 0  50000 900000 0  100000 900000 0  150000 900000 0  200000 900000 0  250000 900000 0  300000 900000 0  350000 900000 0  400000 900000 0  450000 900000 0  500000 900000 0  550000 900000 0  600000 900000 0  650000 900000 0  700000 900000 0  750000 900000 0  800000 900000 0  850000 900000 0  900000 900000 0  950000 900000 0  1000000 900000 0  0 950000 0  50000 950000 0  100000 950000 0  150000 950000 0  200000 950000 0  250000 950000 0  300000 950000 0  350000 950000 0  400000 950000 0  450000 950000 0  500000 950000 0  550000 950000 0  600000 950000 0  650000 950000 0  700000 950000 0  750000 950000 0  800000 950000 0  850000 950000 0  900000 950000 0  950000 950000 0  1000000 950000 0  0 1000000 0  50000 1000000 0  100000 1000000 0  150000 1000000 0  200000 1000000 0  250000 1000000 0  300000 1000000 0  350000 1000000 0  400000 1000000 0  450000 1000000 0  500000 1000000 0  550000 1000000 0  600000 1000000 0  650000 1000000 0  700000 1000000 0  750000 1000000 0  800000 1000000 0  850000 1000000 0  900000 1000000 0  950000 1000000 0  1000000 1000000 0  0 1050000 0  50000 1050000 0  100000 1050000 0  150000 1050000 0  200000 1050000 0  250000 1050000 0  300000 1050000 0  350000 1050000 0  400000 1050000 0  450000 1050000 0  500000 1050000 0  550000 1050000 0  600000 1050000 0  650000 1050000 0  700000 1050000 0  750000 1050000 0  800000 1050000 0  850000 1050000 0  900000 1050000 0  950000 1050000 0  1000000 1050000 0  0 1100000 0  50000 1100000 0  100000 1100000 0  150000 1100000 0  200000 1100000 0  250000 1100000 0  300000 1100000 0  350000 1100000 0  400000 1100000 0  450000 1100000 0  500000 1100000 0  550000 1100000 0  600000 1100000 0  650000 1100000 0  700000 1100000 0  750000 1100000 0  800000 1100000 0  850000 1100000 0  900000 1100000 0  950000 1100000 0  1000000 1100000 0  0 1150000 0  50000 1150000 0  100000 1150000 0  150000 1150000 0  200000 1150000 0  250000 1150000 0  300000 1150000 0  350000 1150000 0  400000 1150000 0  450000 1150000 0  500000 1150000 0  550000 1150000 0  600000 1150000 0  650000 1150000 0  700000 1150000 0  750000 1150000 0  800000 1150000 0  850000 1150000 0  900000 1150000 0  950000 1150000 0  1000000 1150000 0  0 1200000 0  50000 1200000 0  100000 1200000 0  150000 1200000 0  200000 1200000 0  250000 1200000 0  300000 1200000 0  350000 1200000 0  400000 1200000 0  450000 1200000 0  500000 1200000 0  550000 1200000 0  600000 1200000 0  650000 1200000 0  700000 1200000 0  750000 1200000 0  800000 1200000 0  850000 1200000 0  900000 1200000 0  950000 1200000 0  1000000 1200000 0  0 1250000 0  50000 1250000 0  100000 1250000 0  150000 1250000 0  200000 1250000 0  250000 1250000 0  300000 1250000 0  350000 1250000 0  400000 1250000 0  450000 1250000 0  500000 1250000 0  550000 1250000 0  600000 1250000 0  650000 1250000 0  700000 1250000 0  750000 1250000 0  800000 1250000 0  850000 1250000 0  900000 1250000 0  950000 1250000 0  1000000 1250000 0  0 1300000 0  50000 1300000 0  100000 1300000 0  150000 1300000 0  200000 1300000 0  250000 1300000 0  300000 1300000 0  350000 1300000 0  400000 1300000 0  450000 1300000 0  500000 1300000 0  550000 1300000 0  600000 1300000 0  650000 1300000 0  700000 1300000 0  750000 1300000 0  800000 1300000 0  850000 1300000 0  900000 1300000 0  950000 1300000 0  1000000 1300000 0  0 1350000 0  50000 1350000 0  100000 1350000 0  150000 1350000 0  200000 1350000 0  250000 1350000 0  300000 1350000 0  350000 1350000 0  400000 1350000 0  450000 1350000 0  500000 1350000 0  550000 1350000 0  600000 1350000 0  650000 1350000 0  700000 135
[...]
<PointData  Scalars="f_4491"> 
<DataArray  type="Float64"  Name="f_4491"  format="ascii">-8.0530911498306228e+00  -8.0523444131909994e+00  -8.0486958752666613e+00  -8.0421335439635229e+00  -8.0328252783265750e+00  -8.0210171369047458e+00  -8.0070218724162228e+00  -7.9912099043977651e+00  -7.9739992773653130e+00  -7.9558444115690454e+00  -7.9372239248215086e+00  -7.9186278546101212e+00  -7.9005446142981803e+00  -7.8834480216200085e+00  -7.8677847501448230e+00  -7.8539626003275345e+00  -7.8423401615561232e+00  -7.8332189831321202e+00  -7.8268400084273235e+00  -7.8233715634663401e+00  -7.8226188176038658e+00  -8.0538091637563873e+00  -8.0530789214421024e+00  -8.0493787828207548e+00  -8.0427727127455757e+00  -8.0334152946278383e+00  -8.0215481279794982e+00  -8.0074829316677434e+00  -7.9915907669650972e+00  -7.9742911779720291e+00  -7.9560405676171282e+00  -7.9373198244466785e+00  -7.9186214168534761e+00  -7.9004362449170413e+00  -7.8832405659858544e+00  -7.8674833204591597e+00  -7.8535741857600838e+00  -7.8418726428353711e+00  -7.8326780014480208e+00  -7.8262184917376834e+00  -7.8226291416892302e+00  -7.8218757516154946e+00  -8.0572438646010855e+00  -8.0565623573820062e+00  -8.0527763667266274e+00  -8.0459708817096267e+00  -8.0363307617533799e+00  -8.0241098490713068e+00  -8.0096292507584952e+00  -7.9932700214858023e+00  -7.9754630388475825e+00  -7.9566772425618053e+00  -7.9374068939227129e+00  -7.9181582627452771e+00  -7.8994360733695421e+00  -7.8817300320819834e+00  -7.8655017670852168e+00  -7.8511725319839760e+00  -7.8391120550073365e+00  -7.8296289190543442e+00  -7.8229624892375815e+00  -7.8192729735353792e+00  -7.8185943192181568e+00  -8.0633544851048242e+00  -8.0626790338828886e+00  -8.0587493633969896e+00  -8.0516195039807155e+00  -8.0414932089811959e+00  -8.0286475176801044e+00  -8.0134247682627162e+00  -7.9962273122861003e+00  -7.9775084748546590e+00  -7.9577609738565878e+00  -7.9375038904546296e+00  -7.9172688605316219e+00  -7.8975859531384156e+00  -7.8789696287371633e+00  -7.8619051678864000e+00  -7.8468360119373850e+00  -7.8341525609166389e+00  -7.8241830320301098e+00  -7.8171861104757880e+00  -7.8133377066532432e+00  -7.8126567443185859e+00  -8.0720493926318948e+00  -8.0713533963369173e+00  -8.0671982664548736e+00  -8.0596111466389946e+00  -8.0488040427112750e+00  -8.0350778056611407e+00  -8.0188035420744210e+00  -8.0004147316748515e+00  -7.9803978188394709e+00  -7.9592803789001536e+00  -7.9376176187933414e+00  -7.9159779331514732e+00  -7.8949280652229019e+00  -7.8750183332309112e+00  -7.8567683699855291e+00  -7.8406538663417811e+00  -7.8270948569210459e+00  -7.8164458653167568e+00  -7.8089863523848244e+00  -7.8048998875423203e+00  -7.8041798405683647e+00  -8.0832775751353623e+00  -8.0825409576527925e+00  -8.0780754555947212e+00  -8.0698903600284542e+00  -8.0582060646195259e+00  -8.0433481141168262e+00  -8.0257214872402898e+00  -8.0057988742987494e+00  -7.9841095158250113e+00  -7.9612263414108968e+00  -7.9377515894652531e+00  -7.9143014677134573e+00  -7.8914903859403891e+00  -7.8699152361818943e+00  -7.8501401796537937e+00  -7.8326824111235496e+00  -7.8179993195558595e+00  -7.8064769787963657e+00  -7.7984174700007411e+00  -7.7940116715665662e+00  -7.7932322775932041e+00  -8.0970256601005541e+00  -8.0962312254450470e+00  -8.0913711039251677e+00  -8.0824436287664980e+00  -8.0696819274039573e+00  -8.0534398359829833e+00  -8.0341614823704397e+00  -8.0123661622253888e+00  -7.9886348768829540e+00  -7.9635958409779768e+00  -7.9379087768869612e+00  -7.9122483650350652e+00  -7.8872872962906326e+00  -7.8636793580745437e+00  -7.8420429752136895e+00  -7.8229456150770877e+00  -7.8068893509958563e+00  -7.7942972669230501e+00  -7.7854977474497744e+00  -7.7806923648590445e+00  -7.7798382403099522e+00  -8.1133102145678802e+00  -8.1124419522981874e+00  -8.1071035427281135e+00  -8.0972868537996927e+00  -8.0832433615536221e+00  -8.0653606767526558e+00  -8.0441283446504084e+00  -8.0201198259585507e+00  -7.9939766256489424e+00  -7.9663918244795440e+00  -7.9380927035765954e+00  -7.9098227029100148e+00  -7.8823230571524974e+00  -7.8563144568436059e+00  -7.8324790807334121e+00  -7.8114433338035019e+00  -7.7937615011625070e+00  -7.7798998935734422e+00  -7.7702183180342050e+00  -7.7649336713473227e+00  -7.7639908613190158e+00  -8.1321691831471306e+00  -8.1312114341061310e+00  -8.1253106583970069e+00  -8.1144552356675330e+00  -8.0989209062585132e+00  -8.0791356552966693e+00  -8.0556417027948708e+00  -8.0290747544144807e+00  -8.0001456757680423e+00  -7.9696218496682434e+00  -7.9383079050369378e+00  -7.9070259890277983e+00  -7.8765958220010734e+00  -7.8478147701287684e+00  -7.8214381763338752e+00  -7.7981602017413891e+00  -7.7785953403720036e+00  -7.7632601603795983e+00  -7.7525519581786577e+00  -7.7467079435095432e+00  -7.7456628730105583e+00  -8.1536526823023667e+00  -8.1525896715127661e+00  -8.1460410519066393e+00  -8.1339939502405691e+00  -8.1167544503309621e+00  -8.0947982964140142e+00  -8.0687285086976388e+00  -8.0392517308909781e+00  -8.0071573056635206e+00  -7.9732963019198024e+00  -7.9385602194111611e+00  -7.9038594939316695e+00  -7.8701019234110712e+00  -7.8381710982841586e+00  -7.8089049323454196e+00  -7.7830744439757185e+00  -7.7613629151566315e+00  -7.7443449938919287e+00  -7.7324622681768078e+00  -7.7259774634422280e+00  -7.7248165430039286e+00  -8.1778128008986819e+00  -8.1766283380374496e+00  -8.1693442155968352e+00  -8.1559483416489655e+00  -8.1367835791153347e+00  -8.1123815866686453e+00  -8.0834151558839125e+00  -8.0506711945716649e+00  -8.0150269144033697e+00  -7.9774263640247121e+00  -7.9388570659575421e+00  -7.9003268130447974e+00  -7.8628405778726211e+00  -7.8273774010818880e+00  -7.7948671444680615e+00  -7.7661671098767338e+00  -7.7420386003780122e+00  -7.7231230099186989e+00  -7.7099137921917276e+00  -7.7027047637870956e+00  -7.7014142047624983e+00  -8.2046919401562128e+00  -8.2033692068019377e+00  -8.1952591734026043e+00  -8.1803527784400103e+00  -8.1590367972844344e+00  -8.1319079356663586e+00  -8.0997186859843673e+00  -8.0633462109111118e+00  -8.0237651947411539e+00  -7.9820216976635763e+00  -7.9392077808782240e+00  -7.8964368333833015e+00  -7.8548192957025833e+00  -7.8154383187266960e+00  -7.7793249248440439e+00  -7.7474324383429343e+00  -7.7206101652887433e+00  -7.6995759264007262e+00  -7.6848836195028820e+00  -7.6768644106235975e+00  -7.6754301292770277e+00  -8.2343091612477490e+00  -8.2328305452874293e+00  -8.2238010345392745e+00  -8.2072174625149383e+00  -8.1835188173210440e+00  -8.1533773585623610e+00  -8.1176364229509126e+00  -8.0772741574108302e+00  -8.0333724075790531e+00  -7.9870876987490567e+00  -7.9396240482570297e+00  -7.8922073141797835e+00  -7.8460603697984794e+00  -7.8023781438536659e+00  -7.7623016077063518e+00  -7.7268901046538598e+00  -7.6970918225470424e+00  -7.6737120185031733e+00  -7.6573750358433532e+00  -7.6484567771259346e+00  -7.6468643403507208e+00  -8.2666439423474536e+00  -8.2649908917303101e+00  -8.2549448375858372e+00  -8.2365124681720694e+00  -8.2101951052450151e+00  -8.1767530601182390e+00  -8.1371332922720736e+00  -8.0924265283968193e+00  -8.0438313515522690e+00  -7.9926221336083465e+00  -7.9401204547471913e+00  -7.8876693281179850e+00  -7.8366088923354784e+00  -7.7882518663356635e+00  -7.7438571177903226e+00  -7.7046001595330980e+00  -7.6715400583135942e+00  -7.6455823384253288e+00  -7.6274338583416306e+00  -7.6175244060176057e+00  -7.6157589858093511e+00  -8.3016166717377278e+00  -8.2997695374460729e+00  -8.2886059576820923e+00  -8.2681481907272865e+00  -8.2389727817756651e+00  -8.2019435022766185e+00  -8.1581259786654439e+00  -8.1087361648892955e+00  -8.0550985456400799e+00  -7.9986109209279608e+00  -7.9407151947940608e+00  -7.8828728495121361e+00  -7.8265428257658574e+00  -7.7731590178618486e+00  -7.7241046678008267e+00  -7.6806815868639351e+00  -7.6440731476106718e+00  -7.6153005220758816e+00  -7.5951681834595064e+00  -7.5841716377907069e+00  -7.5822179376417020e+00  -8.3390651142609276e+00  -8.3370029391200084e+00  -8.3246162166929683e+00  -8.3019512255171204e+00  -8.2696768091948840e+00  -8.2287798769202460e+00  -8.1804629373910007e+00  -8.1260811087808609e+00  -8.0670930712152380e+00  -8.0050227883826288e+00  -7.9414309524904025e+00  -7.8778938123827196e+00  -7.8159857317734911e+00  -7.7572611620337284e+00  -7.7032318053099544e+00  -7.6553355812828947e+00  -7.6148954351106273e+00  -7.5830671637706644e+00  -7.5607724073262856e+00  -7.5485882813860945e+00  -7.5464303831772162e+00  -8.3787159751746909e+00  -8.3764161585484622e+00  -8.3626946591657223e+00  -8.3376344731544627e+00  -8.3020201550088100e+00  -8.2569876928200951e+00  -8.2038991154605565e+00  -8.1442641808448286e+00  -8.0796824673117182e+00  -8.0118025097244026e+00  -7.9422959819633201e+00  -7.8728429796399233e+00  -7.8051228185260353e+00  -7.7408039896452161e+00  -7.6815270087901011e+00  -7.6288748789256520e+00  -7.5843277127593636e+00  -7.5491999693447340e+00  -7.5245565575765578e+00  -7.5110782378195440e+00  -7.5086992920765123e+00  -8.4201505279914830e+00  -8.4175882492399889e+00  -8.4024117022315590e+00  -8.3747599464555353e+00  -8.3355663030730476e+00  -8.2861509376328737e+00  -8.2280640998155175e+00  -8.1629873401162367e+00  -8.0926650831223679e+00  -8.0188624406046856e+00  -7.9433453943290866e+00  -7.8678769310241012e+00  -7.7942209526100878e+00  -7.7241450378885581e+00  -7.6594132038825080e+00  -7.6017607575187185e+00  -7.5528453713490595e+00  -7.5141712313297280e+00  -7.4869822396568342e+00  -7.4720941820120483e+00  -7.4694758234461958e+00  -8.4627630293886202e+00  -8.4599102302432971e+00  -8.4431449694240133e+00  -8.4126922790918606e+00  -8.3696820621704262e+00  -8.3156670308959448e+00  -8.2524223766161473e+00  -8.1818200030684416e+00  -8.1057484542407288e+00  -8.0260721660649921e+00  -7.9446226258586012e+00  -7.8632113283108778e+00  -7.7836530979810963e+00  -7.7077879518239971e+00  -7.6374896590060191e+00  -7.5746496342879661e+00  -7.5211264778015332e+00  -7.4786546745699978e+00  -7.4487069170247038e+00  -7.4322797179184574e+00  -7.4294010237111827e+00  -8.5057102311131807e+00  -8.5025338081162580e+00  -8.4840244467524890e+00  -8.4505401969433187e+00  -8.4034780808472611e+00  -8.3446906354356720e+00  -8.2762246356937261e+00  -8.2001609843995542e+00  -8.1185237464290179e+00  -8.0332463324646532e+00  -7.9461809930332903e+00  -7.8591362395731688e+00  -7.7739271084494810e+00  -7.6924237443086696e+00  -7.6165835643952491e+00  -7.5484514695700913e+00  -7.4901125844852805e+00  -7.4435845225251551e+00  -7.4106389477975867e+00  -7.3925209538426966e+00  -7.3893566583734387e+00  -8.5478495511677544e+00  -8.5443081263864435e+00  -8.5238633953488314e+00  -8.4870820183733571e+00  -8.4357338193478473e+00  -8.3720645603486954e+00  -8.2984499339561086e+00  -8.2171949247344003e+00  -8.1304373760551396e+00  -8.0401312967154617e+00  -7.9480851112369200e+00  -7.8560325182010136e+00  -7.7657176022209837e+00  -7.6789783151464075e+00  -7.5978118755230408e+00  -7.5244022681328957e+00  -7.4610859714961624e+00  -7.4102309637381314e+00  -7.3740070550435357e+00  -7.3540104102334407e+00  -7.3505279155404395e+00  -8.5876620608234475e+00  -8.5837001198845204e+00  -8.5610691962125980e+00  -8.5206692791428242e+00  -8.4648030666106795e+00  -8.3962369650397424e+00  -8.3177406993546246e+00  -8.2318465954817945e+00  -8.1407629892840490e+00  -8.0463922828772656e+00  -7.9504117329116157e+00  -7.8543867718329397e+00  -7.7598972963885906e+00  -7.6686629114544651e+00  -7.5826520657325069e+00  -7.5041524568825428e+00  -7.4357681815706993e+00  -7.3802984688363544e+00  -7.3404502469630621e+00  -7.3183279975489155e+00  -7.3144824079251443e+00  -8.6231537393373152e+00  -8.6186906219385069e+00  -8.5935239211610526e+00  -8.5490993658954455e+00  -8.4884959008094061e+00  -8.4151669667352902e+00  -8.3323372095343373e+00  -8.2427412432402019e+00  -8.1485806192454326e+00  -8.0516045278973447e+00  -7.9532492192966959e+00  -7.8548000030661047e+00  -7.7575599900305763e+00  -7.6630191797722214e+00  -7.5730160325783213e+00  -7.4898708359564097e+00  -7.4164459445265889e+00  -7.3560573384402721e+00  -7.3121387303211005e+00  -7.2875473764014558e+00  -7.2832731913202098e+00  -8.6517231529972953e+00  -8.6466311088239589e+00  -8.6184157277791336e+00  -8.5694431790634642e+00  -8.5039348609975747e+00  -8.4262279606579469e+00  -8.3400273540994068e+00  -8.2481873749750108e+00  -8.1527755750750099e+00  -8.0552545949315633e+00  -7.9566944061129679e+00  -7.8579813425947362e+00  -7.7600206158341107e+00  -7.6639413884579577e+00  -7.5713121751573338e+00  -7.4843578289151074e+00  -7.4061309303851983e+00  -7.3405255781319037e+00  -7.2919454479229096e+00  -7.2643833013554477e+00  -7.2595801707354024e+00  -8.6699731582061705e+00  -8.6640295326542560e+00  -8.6319847977131925e+00  -8.5778081521714462e+00  -8.5073917004537982e+00  -8.4261344264687139e+00  -8.3381442505186918e+00  -8.2462111629582378e+00  -8.1520774253711146e+00  -8.0567614389210984e+00  -7.9608451735115811e+00  -7.8647137431711327e+00  -7.7687682251137211e+00  -7.6736434342021811e+00  -7.5804623941069789e+00  -7.4911463727948941e+00  -7.4087555808214294e+00  -7.3377289763622082e+00  -7.2837068240435903e+00  -7.2524112766065354e+00  -7.2469184169147756e+00  -8.6734225825395956e+00  -8.6661933654659968e+00  -8.6291139285476515e+00  -8.5690173035196135e+00  -8.4941390287640264e+00  -8.4109529407384649e+00  -8.3236719846345331e+00  -8.2346883541544447e+00  -8.1451674759169226e+00  -8.0555297304099316e+00  -7.9657868757499948e+00  -7.8757747459287746e+00  -7.7853373175576781e+00  -7.6945168456436717e+00  -7.6038071399452249e+00  -7.5145312308969654e+00  -7.4293860466870409e+00  -7.3530809358603264e+00  -7.2926523604246256e+00  -7.2564277270824400e+00  -7.2499743642557002e+00  -8.6560252533706681e+00  -8.6465507440772829e+00  -8.6026381806050889e+00  -8.5362211746581398e+00  -8.4584287624594463e+00  -8.3763251371095944e+00  -8.2935579455654107e+00  -8.2116340343017118e+00  -8.1308853970899744e+00  -8.0510471197585733e+00  -7.9715712405478341e+00  -7.8917965009426316e+00  -7.8110584429446757e+00  -7.7288039445316947e+00  -7.6447780796492468e+00  -7.5593821903561054e+00  -7.4743544594708275e+00  -7.3939197444257756e+00  -7.3261737902272888e+00  -7.2831159147370412e+00  -7.2752141212337769e+00  -8.6092529562007609e+00  -8.5951757683044399e+00  -8.5422109352830411e+00  -8.4706340866005938e+00  -8.3938960208645312e+00  -8.3181361821310968e+00  -8.2453616282817954e+00  -8.1757034343940820e+00  -8.1085486980522106e+00  -8.0430257846147786e+00  -7.9781865829937360e+00  -7.9130608266021181e+00  -7.8466646866077205e+00  -7.7780096505329732e+00  -7.7061601407470173e+00  -7.6304339601849334e+00  -7.5509634832282684e+00  -7.4700950018082652e+00  -7.3952819854515086e+00  -7.3424806703055410e+00  -7.3321570489978871e+00  -8.5198002913901671e+00  -8.4953201703100198e+00  -8.4328643385218438e+00  -8.3621797720125297e+00  -8.2950438693311863e+00  -8.2339546632901293e+00  -8.1783292090474742e+00  -8.1268839546468072e+00  -8.0783381997320785e+00  -8.0315537219686828e+00  -7.9855112636114409e+00  -7.9392469267545671e+00  -7.8917800575418653e+00  -7.8420377274619195e+00  -7.7887797725851788e+00  -7.7305538293755234e+00  -7.6658122962666493e+00  -7.5936850345216360e+00  -7.5170818058645672e+00  -7.4516173045862422e+00  -7.4365652846717136e+00  -8.3607922850692074e+00  -8.3156306034744834e+00  -8.2554770173671557e+00  -8.2033186392311652e+00  -8.1608093596509121e+00  -8.1253808452193397e+00  -8.0946989269378715e+00  -8.0671313123946593e+00  -8.0415495225766040e+00  -8.0171248414822163e+00  -7.9931894863150514e+00  -7.9691417677727827e+00  -7.9443699851177749e+00  -7.9181736268678033e+00  -7.8896582913286588e+00  -7.8575693650471674e+00  -7.8200122637286302e+00  -7.7740499083174175e+00  -7.7157635577715684e+00  -7.6460774009199257e+00  -7.6210062945474197e+00  -8.0000000000000000e+00  -8.0000000000000000e+00  -8.0000000000000000e+00  -8.0000000000000000e+00  -8.0000000000000000e+00  -8.0000000000000000e+00  -8.0000000000000000e+00  -8.0000000000000000e+00  -8.0000000000000000e+00  -8.0000000000000000e+00  -8.0000000000000000e+00  -8.0000000000000000e+00  -8.0000000000000000e+00  -8.0000000000000000e+00  -8.0000000000000000e+00  -8.0000000000000000e+00  -8.0000000000000000e+00  -8.0000000000000000e+00  -8.0000000000000000e+00  -8.0000000000000000e+00  -8.0000000000000000e+00  </DataArray> 
</PointData> 
</Piece>
</UnstructuredGrid>
</VTKFile>