<?xml version="1.0"?>
<VTKFile type="UnstructuredGrid"  version="0.1"  >
<UnstructuredGrid>
<Piece  NumberOfPoints="651" NumberOfCells="1200">
<Points>
<DataArray  type="Float64"  NumberOfComponents="3"  format="ascii">0 0 0  50000 0 0  100000 0 0  150000 0 0  200000 0 0  250000 0 0  300000 0 0  350000 0 0  400000 0 0  450000 0 0  500000 0 0  550000 0 0  600000 0 0  650000 0 0  700000 0 0  750000 0 0  800000 0 0  850000 0 0  900000 0 0  950000 0 0  1000000 0 0  0 50000 0  50000 50000 0  100000 50000 0  150000 50000 0  200000 50000 0  250000 50000 0  300000 50000 0  350000 50000 0  400000 50000 0  450000 50000 0  500000 50000 0  550000 50000 0  600000 50000 0  650000 50000 0  700000 50000 0  750000 50000 0  800000 50000 0  850000 50000 0  900000 50000 0  950000 50000 0  1000000 50000 0  0 100000 0  50000 100000 0  100000 100000 0  150000 100000 0  200000 100000 0  250000 100000 0  300000 100000 0  350000 100000 0  400000 100000 0  450000 100000 0  500000 100000 0  550000 100000 0  600000 100000 0  650000 100000 0  700000 100000 0  750000 100000 0  800000 100000 0  850000 100000 0  900000 100000 0  950000 100000 0  1000000 100000 0  0 150000 0  50000 150000 0  100000 150000 0  150000 150000 0  200000 150000 0  250000 150000 0  300000 150000 0  350000 150000 0  400000 150000 0  450000 150000 0  500000 150000 0  550000 150000 0  600000 150000 0  650000 150000 0  700000 150000 0  750000 150000 0  800000 150000 0  850000 150000 0  900000 150000 0  950000 150000 0  1000000 150000 0  0 200000 0  50000 200000 0  100000 200000 0  150000 200000 0  200000 200000 0  250000 200000 0  300000 200000 0  350000 200000 0  400000 200000 0  450000 200000 0  500000 200000 0  550000 200000 0  600000 200000 0  650000 200000 0  700000 200000 0  750000 200000 0  800000 200000 0  850000 200000 0  900000 200000 0  950000 200000 0  1000000 200000 0  0 250000 0  50000 250000 0  100000 250000 0  150000 250000 0  200000 250000 0  250000 250000 0  300000 250000 0  350000 250000 0  400000 250000 0  450000 250000 0  500000 250000 0  550000 250000 0  600000 250000 0  650000 250000 0  700000 250000 0  750000 250000 0  800000 250000 0  850000 250000 0  900000 250000 0  950000 250000 0  1000000 250000 0  0 300000 0  50000 300000 0  100000 300000 0  150000 300000 0  200000 300000 0  250000 300000 0  300000 300000 0  350000 300000 0  400000 300000 0  450000 300000 0  500000 300000 0  550000 300000 0  600000 300000 0  650000 300000 0  700000 300000 0  750000 300000 0  800000 300000 0  850000 300000 0  900000 300000 0  950000 300000 0  1000000 300000 0  0 350000 0  50000 350000 0  100000 350000 0  150000 350000 0  200000 350000 0  250000 350000 0  300000 350000 0  350000 350000 0  400000 350000 0  450000 350000 0  500000 350000 0  550000 350000 0  600000 350000 0  650000 350000 0  700000 350000 0  750000 350000 0  800000 350000 0  850000 350000 0  900000 350000 0  950000 350000 0  1000000 350000 0  0 400000 0  50000 400000 0  100000 400000 0  150000 400000 0  200000 400000 0  250000 400000 0  300000 400000 0  350000 400000 0  400000 400000 0  450000 400000 0  500000 400000 0  550000 400000 0  600000 400000 0  650000 400000 0  700000 400000 0  750000 400000 0  800000 400000 0  850000 400000 0  900000 400000 0  950000 400000 0  1000000 400000 0  0 450000 0  50000 450000 0  100000 450000 0  150000 450000 0  200000 450000 0  250000 450000 0  300000 450000 0  350000 450000 0  400000 450000 0  450000 450000 0  500000 450000 0  550000 450000 0  600000 450000 0  650000 450000 0  700000 450000 0  750000 450000 0  800000 450000 0  850000 450000 0  900000 450000 0  950000 450000 0  1000000 450000 0  0 500000 0  50000 500000 0  100000 500000 0  150000 500000 0  200000 500000 0  250000 500000 0  300000 500000 0  350000 500000 0  400000 500000 0  450000 500000 0  500000 500000 0  550000 500000 0  600000 500000 0  650000 500000 0  700000 500000 0  750000 500000 0  800000 500000 0  850000 500000 0  900000 500000 0  950000 500000 0  1000000 500000 0  0 550000 0  50000 550000 0  100000 550000 0  150000 550000 0  200000 550000 0  250000 550000 0  300000 550000 0  350000 550000 0  400000 550000 0  450000 550000 0  500000 550000 0  550000 550000 0  600000 550000 0  650000 550000 0  700000 550000 0  750000 550000 0  800000 550000 0  850000 550000 0  900000 550000 0  950000 550000 0  1000000 550000 0  0 600000 0  50000 600000 0  100000 600000 0  150000 600000 0  200000 600000 0  250000 600000 0  300000 600000 0  350000 600000 0  400000 600000 0  450000 600000 0  500000 600000 0  550000 600000 0  600000 600000 0  650000 600000 0  700000 600000 0  750000 600000 0  800000 600000 0  850000 600000 0  900000 600000 0  950000 600000 0  1000000 600000 0  0 650000 0  50000 650000 0  100000 650000 0  150000 650000 0  200000 650000 0  250000 650000 0  300000 650000 0  350000 650000 0  400000 650000 0  450000 650000 0  500000 650000 0  550000 650000 0  600000 650000 0  650000 650000 0  700000 650000 0  750000 650000 0  800000 650000 0  850000 650000 0  900000 650000 0  950000 650000 0  1000000 650000 0  0 700000 0  50000 700000 0  100000 700000 0  150000 700000 0  200000 700000 0  250000 700000 0  300000 700000 0  350000 700000 0  400000 700000 0  450000 700000 0  500000 700000 0  550000 700000 0  600000 700000 0  650000 700000 0  700000 700000 0  750000 700000 0  800000 700000 0  850000 700000 0  900000 700000 0  950000 700000 0  1000000 700000 0  0 750000 0  50000 750000 0  100000 750000 0  150000 750000 0  200000 750000 0  250000 750000 0  300000 750000 0  350000 750000 0  400000 750000 0  450000 750000 0  500000 750000 0  550000 750000 0  600000 750000 0  650000 750000 0  700000 750000 0  750000 750000 0  800000 750000 0  850000 750000 0  900000 750000 0  950000 750000 0  1000000 750000 0  0 800000 0  50000 800000 0  100000 800000 0  150000 800000 0  200000 800000 0  250000 800000 0  300000 800000 0  350000 800000 0  400000 800000 0  450000 800000 0  500000 800000 0  550000 800000 0  600000 800000 0  650000 800000 0  700000 800000 0  750000 800000 0  800000 800000 0  850000 800000 0  900000 800000 0  950000 800000 0  1000000 800000 0  0 850000 0  50000 850000 0  100000 850000 0  150000 850000 0  200000 850000 0  250000 850000 0  300000 850000 0  350000 850000 0  400000 850000 0  450000 850000 0  500000 850000 0  550000 850000 0  600000 850000 0  650000 850000 0  700000 850000 0  750000 850000 0  800000 850000 0  850000 850000 0  900000 850000 0  950000 850000 0  1000000 850000 0  0 900000 0  50000 900000 0  100000 900000 0  150000 900000 0  200000 900000 0  250000 900000 0  300000 900000 0  350000 900000 0  400000 900000 0  450000 900000 0  500000 900000 0  550000 900000 0  600000 900000 0  650000 900000 0  700000 900000 0  750000 900000 0  800000 900000 0  850000 900000 0  900000 900000 0  950000 900000 0  1000000 900000 0  0 950000 0  50000 950000 0  100000 950000 0  150000 950000 0  200000 950000 0  250000 950000 0  300000 950000 0  350000 950000 0  400000 950000 0  450000 950000 0  500000 950000 0  550000 950000 0  600000 950000 0  650000 950000 0  700000 950000 0  750000 950000 0  800000 950000 0  850000 950000 0  900000 950000 0  950000 950000 0  1000000 950000 0  0 1000000 0  50000 1000000 0  100000 1000000 0  150000 1000000 0  200000 1000000 0  250000 1000000 0  300000 1000000 0  350000 1000000 0  400000 1000000 0  450000 1000000 0  500000 1000000 0  550000 1000000 0  600000 1000000 0  650000 1000000 0  700000 1000000 0  750000 1000000 0  800000 1000000 0  850000 1000000 0  900000 1000000 0  950000 1000000 0  1000000 1000000 0  0 1050000 0  50000 1050000 0  100000 1050000 0  150000 1050000 0  200000 1050000 0  250000 1050000 0  300000 1050000 0  350000 1050000 0  400000 1050000 0  450000 1050000 0  500000 1050000 0  550000 1050000 0  600000 1050000 0  650000 1050000 0  700000 1050000 0  750000 1050000 0  800000 1050000 0  850000 1050000 0  900000 1050000 0  950000 1050000 0  1000000 1050000 0  0 1100000 0  50000 1100000 0  100000 1100000 0  150000 1100000 0  200000 1100000 0  250000 1100000 0  300000 1100000 0  350000 1100000 0  400000 1100000 0  450000 1100000 0  500000 1100000 0  550000 1100000 0  600000 1100000 0  650000 1100000 0  700000 1100000 0  750000 1100000 0  800000 1100000 0  850000 1100000 0  900000 1100000 0  950000 1100000 0  1000000 1100000 0  0 1150000 0  50000 1150000 0  100000 1150000 0  150000 1150000 0  200000 1150000 0  250000 1150000 0  300000 1150000 0  350000 1150000 0  400000 1150000 0  450000 1150000 0  500000 1150000 0  550000 1150000 0  600000 1150000 0  650000 1150000 0  700000 1150000 0  750000 1150000 0  800000 1150000 0  850000 1150000 0  900000 1150000 0  950000 1150000 0  1000000 1150000 0  0 1200000 0  50000 1200000 0  100000 1200000 0  150000 1200000 0  200000 1200000 0  250000 1200000 0  300000 1200000 0  350000 1200000 0  400000 1200000 0  450000 1200000 0  500000 1200000 0  550000 1200000 0  600000 1200000 0  650000 1200000 0  700000 1200000 0  750000 1200000 0  800000 1200000 0  850000 1200000 0  900000 1200000 0  950000 1200000 0  1000000 1200000 0  0 1250000 0  50000 1250000 0  100000 1250000 0  150000 1250000 0  200000 1250000 0  250000 1250000 0  300000 1250000 0  350000 1250000 0  400000 1250000 0  450000 1250000 0  500000 1250000 0  550000 1250000 0  600000 1250000 0  650000 1250000 0  700000 1250000 0  750000 1250000 0  800000 1250000 0  850000 1250000 0  900000 1250000 0  950000 1250000 0  1000000 1250000 0  0 1300000 0  50000 1300000 0  100000 1300000 0  150000 1300000 0  200000 1300000 0  250000 1300000 0  300000 1300000 0  350000 1300000 0  400000 1300000 0  450000 1300000 0  500000 1300000 0  550000 1300000 0  600000 1300000 0  650000 1300000 0  700000 1300000 0  750000 1300000 0  800000 1300000 0  850000 1300000 0  900000 1300000 0  950000 1300000 0  1000000 1300000 0  0 1350000 0  50000 1350000 0  100000 1350000 0  150000 1350000 0  200000 1350000 0  250000 1350000 0  300000 1350000 0  350000 1350000 0  400000 1350000 0  450000 1350000 0  500000 1350000 0  550000 1350000 0  600000 1350000 0  650000 1350000 0  700000 135
[...]
<PointData  Scalars="f_4491"> 
<DataArray  type="Float64"  Name="f_4491"  format="ascii">-8.1206404524823181e+00  -8.1189582638829485e+00  -8.1106369099422118e+00  -8.0956511721196431e+00  -8.0743905094234041e+00  -8.0474212687136450e+00  -8.0154604222103263e+00  -7.9793551584215985e+00  -7.9400601846432277e+00  -7.8986123038443035e+00  -7.8561029040315402e+00  -7.8136491051959158e+00  -7.7723643145904040e+00  -7.7333289490888566e+00  -7.6975621123625064e+00  -7.6659951240867263e+00  -7.6394482138976070e+00  -7.6186129948053178e+00  -7.6040448971248491e+00  -7.5961360440938606e+00  -7.5944328526068858e+00  -8.1222454750330524e+00  -8.1206005211528467e+00  -8.1121590379012272e+00  -8.0970737271977526e+00  -8.0757025722739559e+00  -8.0486012696328384e+00  -8.0164841736824126e+00  -7.9801997674696441e+00  -7.9407060440273778e+00  -7.8990442055834214e+00  -7.8563106997994741e+00  -7.8136280729781955e+00  -7.7721152877398980e+00  -7.7328582117736007e+00  -7.6968810089424871e+00  -7.6651191705084543e+00  -7.6383948275299982e+00  -7.6173942006003257e+00  -7.6026427501071128e+00  -7.5944539627627705e+00  -7.5927509494200507e+00  -8.1300687268300269e+00  -8.1285393701764832e+00  -8.1199037483736181e+00  -8.1043627374187412e+00  -8.0823453656745894e+00  -8.0544357557358506e+00  -8.0213698094729420e+00  -7.9840188320572123e+00  -7.9433666729957011e+00  -7.9004831326007006e+00  -7.8564951626454720e+00  -7.8125567910600280e+00  -7.7698185156382200e+00  -7.7293968877012853e+00  -7.6923450277092833e+00  -7.6596248641292233e+00  -7.6320819647146454e+00  -7.6104238395970087e+00  -7.5952017220520407e+00  -7.5867876786228532e+00  -7.5852635795801868e+00  -8.1440104296272224e+00  -8.1424986686700205e+00  -8.1335395661286025e+00  -8.1172596247790256e+00  -8.0941316659403864e+00  -8.0647937822495166e+00  -8.0300309447203251e+00  -7.9907634176779156e+00  -7.9480264988740306e+00  -7.9029444032842884e+00  -7.8567008386288757e+00  -7.8105078192277748e+00  -7.7655737796804436e+00  -7.7230718747533160e+00  -7.6841093465224821e+00  -7.6496989607204444e+00  -7.6207337581506449e+00  -7.5979664953060686e+00  -7.5819930521814545e+00  -7.5732214790734780e+00  -7.5716967200610261e+00  -8.1638505867530942e+00  -8.1622957633590527e+00  -8.1528269160738365e+00  -8.1355060465232238e+00  -8.1108242937420361e+00  -8.0794747113730256e+00  -8.0423086317182761e+00  -8.0003178961294878e+00  -7.9546137654944413e+00  -7.9064002759470666e+00  -7.8569437842220600e+00  -7.8075403645400936e+00  -7.7594823125717109e+00  -7.7140248011517754e+00  -7.6723537013378111e+00  -7.6355556819582917e+00  -7.6045918085307038e+00  -7.5802753223877000e+00  -7.5632498068137899e+00  -7.5539401963507000e+00  -7.5523300084220786e+00  -8.1894627331784680e+00  -8.1878194423071786e+00  -8.1776471493023379e+00  -8.1589649121911769e+00  -8.1322823356352245e+00  -8.0983490679278400e+00  -8.0580942875590509e+00  -8.0125998459509713e+00  -7.9630750855643848e+00  -7.9108278534510061e+00  -7.8572320658634851e+00  -7.8036930956508419e+00  -7.7516121916583858e+00  -7.7023510067639860e+00  -7.6571972724939119e+00  -7.6173326819215026e+00  -7.5838039116669451e+00  -7.5574965462124819e+00  -7.5391058719868767e+00  -7.5290727858410351e+00  -7.5273311868484596e+00  -8.2208071656791493e+00  -8.2190368235158040e+00  -8.2079691540767215e+00  -8.1875967349363599e+00  -8.1584577697540013e+00  -8.1213665947808451e+00  -8.0773421144653152e+00  -8.0275729569424588e+00  -7.9733869363277234e+00  -7.9162183195584186e+00  -7.8575723815561105e+00  -7.7989880612312614e+00  -7.7419997219151213e+00  -7.6880989877636736e+00  -7.6386976016693104e+00  -7.5950922185527929e+00  -7.5584317643318375e+00  -7.5296865230810575e+00  -7.5096118301213135e+00  -7.4986724397085744e+00  -7.4967649074786689e+00  -8.2579131259443894e+00  -8.2559800265289986e+00  -8.2438267652298851e+00  -8.2214301655449198e+00  -8.1893701454121430e+00  -8.1485382808507012e+00  -8.1000574131316689e+00  -8.0452400720456598e+00  -7.9855523693813462e+00  -7.9225767344492155e+00  -7.8579726697650019e+00  -7.7934360312467135e+00  -7.7306575914639071e+00  -7.6712816593420463e+00  -7.6168655241520007e+00  -7.5688404588894436e+00  -7.5284747114515076e+00  -7.4968373861285214e+00  -7.4747555869788975e+00  -7.4627287360895389e+00  -7.4606241395767290e+00  -8.3008590259092632e+00  -8.2987284021619114e+00  -8.2852988059366925e+00  -8.2605383930724123e+00  -8.2250825766572877e+00  -8.1799153319524311e+00  -8.1262799557689132e+00  -8.0656311991182879e+00  -7.9995935303770587e+00  -7.9299189062533895e+00  -7.8584432202920578e+00  -7.7870417674439061e+00  -7.7175842387908036e+00  -7.6518897554675283e+00  -7.5916824641860963e+00  -7.5385482361094880e+00  -7.4938927829393567e+00  -7.4589000327046016e+00  -7.4344827779294125e+00  -7.4211867175381609e+00  -7.4188548806112049e+00  -8.3497512783349546e+00  -8.3473882212937678e+00  -8.3324887403345507e+00  -8.3050176057448564e+00  -8.2656798295622291e+00  -8.2155687436986842e+00  -8.1560666194635605e+00  -8.0887901526869133e+00  -8.0155428032162046e+00  -7.9382672702875823e+00  -7.8589973550419625e+00  -7.7798094350923757e+00  -7.7027737886425616e+00  -7.6299059275684211e+00  -7.5631181284424871e+00  -7.5041714664564543e+00  -7.4546285819288078e+00  -7.4158060427058645e+00  -7.3887179249099173e+00  -7.3739682575291035e+00  -7.3713790497121163e+00  -8.4047009419866523e+00  -8.4020697105944695e+00  -8.3855021842153885e+00  -8.3549645033460109e+00  -8.3112461455557369e+00  -8.2555684960022813e+00  -8.1894732448090686e+00  -8.1147601943966698e+00  -8.0334330445543589e+00  -7.9476462218298254e+00  -7.8596520748421028e+00  -7.7717485045227814e+00  -7.6862268839433767e+00  -7.6053199289122553e+00  -7.5311492266982931e+00  -7.4656723865396533e+00  -7.4106299229768453e+00  -7.3674907738242732e+00  -7.3373876331302696e+00  -7.3209957150718807e+00  -7.3181186287881683e+00  -8.4657971198037174e+00  -8.4628606513970510e+00  -8.4444209962828776e+00  -8.4104508697526406e+00  -8.3618406289343028e+00  -8.2999606079144943e+00  -8.2265345262724328e+00  -8.1435679545254072e+00  -8.0532865454544957e+00  -7.9580768191292579e+00  -7.8604288372732141e+00  -7.7628805489921344e+00  -7.6679630728924391e+00  -7.5781458289710457e+00  -7.4957805006457612e+00  -7.4230432565247737e+00  -7.3618751211970146e+00  -7.3139194257959481e+00  -7.2804470761002040e+00  -7.2622188384033564e+00  -7.2590227712947089e+00  -8.5330759034080597e+00  -8.5297954318851072e+00  -8.5092726978769555e+00  -8.4714935722360369e+00  -8.4174683282477130e+00  -8.3487402429741149e+00  -8.2672404151363121e+00  -8.1752045041896224e+00  -8.0751020006838647e+00  -7.9695705454018366e+00  -7.8613545552493758e+00  -7.7532474198205179e+00  -7.6480356084197467e+00  -7.5484424664438983e+00  -7.4570695749016238e+00  -7.3763342559468255e+00  -7.3084027032066006e+00  -7.2551176667664317e+00  -7.2179110669038975e+00  -7.1976461200473167e+00  -7.1940992532591315e+00  -8.6064835092685925e+00  -8.6028182261330990e+00  -8.5799938096576209e+00  -8.5380183420608482e+00  -8.4780451639041292e+00  -8.4018189891647435e+00  -8.3115073358892015e+00  -8.2096022158382720e+00  -8.0988385592830436e+00  -7.9821216911079036e+00  -7.8624628834290924e+00  -7.7429213630946094e+00  -7.6265496861197954e+00  -7.5163385618484142e+00  -7.4151573404831996e+00  -7.3256874251146344e+00  -7.2503473624730095e+00  -7.1912084672018626e+00  -7.1498911532032672e+00  -7.1273819586356826e+00  -7.1234516558844927e+00  -8.6858320837757415e+00  -8.6817387729013724e+00  -8.6563854608058932e+00  -8.6098154767713719e+00  -8.5433546533381310e+00  -8.4589842250761791e+00  -8.3591422895010101e+00  -8.2466058331772647e+00  -8.1243958602655990e+00  -7.9956978228483839e+00  -7.8637958546163436e+00  -7.7320177304378204e+00  -7.6036853191234677e+00  -7.4820641444770022e+00  -7.3703058422273395e+00  -7.2713787592390977e+00  -7.1879842130094431e+00  -7.1224570052200393e+00  -7.0766403861785800e+00  -7.0516711582846296e+00  -7.0473238024190739e+00  -8.7707464541052307e+00  -8.7661790020458916e+00  -8.7380593277656331e+00  -8.6864852493860827e+00  -8.6129940109023693e+00  -8.5198481277342104e+00  -8.4097976100280523e+00  -8.2859359343938639e+00  -8.1515887983412352e+00  -8.0102277249089102e+00  -7.8654059264609728e+00  -7.7207110176435698e+00  -7.5797262205397722e+00  -7.4459902134717346e+00  -7.3229459854969043e+00  -7.2138709525834290e+00  -7.1217837884763782e+00  -7.0493258629222098e+00  -6.9986077048199142e+00  -6.9709525192492610e+00  -6.9661531707646613e+00  -8.8605998467745568e+00  -8.8555084718526782e+00  -8.8243715608411613e+00  -8.7673703032584385e+00  -8.6863066621953102e+00  -8.5837834011488194e+00  -8.4629137866033020e+00  -8.3271427514438496e+00  -8.1801156486082558e+00  -8.0255861485381619e+00  -7.8673584889377031e+00  -7.7092550044152688e+00  -7.5550961893579487e+00  -7.4086788068617571e+00  -7.2737377794462121e+00  -7.1538798114016311e+00  -7.0524807991487863e+00  -6.9725432494394326e+00  -6.9165042812847517e+00  -6.8859235739098832e+00  -6.8806352786220124e+00  -8.9544362401217921e+00  -8.9487661794981292e+00  -8.9143417825704532e+00  -8.8514715883891721e+00  -8.7622974906750386e+00  -8.6498422476869870e+00  -8.5176474532061572e+00  -8.3695482181861660e+00  -8.2095182059200944e+00  -8.0415747338264474e+00  -7.8697348509476335e+00  -7.6980076898240499e+00  -7.5304044602341449e+00  -7.3709457819041750e+00  -7.2236462182786614e+00  -7.0924579918955093e+00  -6.9811604395889866e+00  -6.8931877388823786e+00  -6.8313847681910751e+00  -6.7976189607418229e+00  -6.7918014424870270e+00  -9.0508764661902816e+00  -9.0445656776278707e+00  -9.0065533430387941e+00  -8.9373433218219276e+00  -8.8395261865212369e+00  -8.7166545562062332e+00  -8.5727815812627668e+00  -8.4121744003570900e+00  -8.2391329669350650e+00  -8.0578986847677712e+00  -7.8726356470871854e+00  -7.6874613762436148e+00  -7.5065010552953861e+00  -7.3339383770771889e+00  -7.1740360965743477e+00  -7.0311004234684686e+00  -6.9093671128299263e+00  -6.8127941526951510e+00  -6.7447473295916023e+00  -6.7075056281300078e+00  -6.7011129585289204e+00  -9.1480042429598285e+00  -9.1409793486258923e+00  -9.0990295008202526e+00  -9.0229607862204251e+00  -8.9159728497275861e+00  -8.7823009545979058e+00  -8.6266154868547513e+00  -8.4536575641260541e+00  -8.2680334691121384e+00  -8.0741393674365263e+00  -7.8761844460487156e+00  -7.6782773946769129e+00  -7.4845419542480771e+00  -7.2992285712313389e+00  -7.1267886972914010e+00  -6.9718764065881862e+00  -6.8392419176478834e+00  -6.7334870307069199e+00  -6.6586579274476785e+00  -6.6175992614929147e+00  -6.6105758673055650e+00  -9.2432266279265693e+00  -9.2353956999768023e+00  -9.1890774793786996e+00  -9.1055520842108866e+00  -8.9888685228138172e+00  -8.8441567667143861e+00  -8.6768342734639763e+00  -8.4921498784038150e+00  -8.2949663203003912e+00  -8.0897242694868741e+00  -7.8805310437300395e+00  -7.6713231731190845e+00  -7.4660611726862980e+00  -7.2689205353833080e+00  -7.0844416437811093e+00  -6.9175935600441232e+00  -6.7736972703202971e+00  -6.6581511451010202e+00  -6.5759071741828619e+00  -6.5306085097945612e+00  -6.5228824892344122e+00  -9.3331002089545390e+00  -9.3243397062106510e+00  -9.2730872475419535e+00  -9.1813805207206425e+00  -9.0544818521217660e+00  -8.8987051536022737e+00  -8.7203622665665357e+00  -8.5252164819847902e+00  -8.3182881545960914e+00  -8.1038981508486749e+00  -7.8858534126537654e+00  -7.6677060241459021e+00  -7.4530414938453617e+00  -7.2457646122590962e+00  -7.0503488075951646e+00  -6.8719976229812909e+00  -6.7166396564580912e+00  -6.5906536560026474e+00  -6.5002133560091515e+00  -6.4501177149848017e+00  -6.4415897405057576e+00  -9.4131082423371719e+00  -9.4032384888559193e+00  -9.3462619757405729e+00  -9.2454570449510420e+00  -9.1078526935174189e+00  -8.9413243187620370e+00  -8.7532155708273311e+00  -8.5497464759633406e+00  -8.3359189933734950e+00  -8.1157032663744406e+00  -7.8923564875568823e+00  -7.6687924444223139e+00  -7.4479660773993377e+00  -7.2332588298261600e+00  -7.0288471740478045e+00  -6.8400073939241697e+00  -6.6732543149381884e+00  -6.5361414152917146e+00  -6.4364954812665678e+00  -6.3808269313092048e+00  -6.3713516894025286e+00  -9.4773619961157713e+00  -9.4660982367938971e+00  -9.4022374701925795e+00  -9.2911512359005162e+00  -9.1424677964375096e+00  -8.9660700551942032e+00  -8.7703897084859985e+00  -8.5619150813355098e+00  -8.3453404777376239e+00  -8.1239826347176010e+00  -7.9002649143795942e+00  -7.6761933881240560e+00  -7.4538177844119895e+00  -7.2356983462903193e+00  -7.0253966215802830e+00  -6.8279705530493295e+00  -6.6503664514155654e+00  -6.5014521624041066e+00  -6.3912607915697510e+00  -6.3288845052339102e+00  -6.3182388731198369e+00  -9.5181757386647039e+00  -9.5050211565445881e+00  -9.4325086093119346e+00  -9.3096565578969734e+00  -9.1498933397844961e+00  -8.9655123114530273e+00  -8.7658563068971702e+00  -8.5572631443016007e+00  -8.3436851058829582e+00  -8.1274280186528181e+00  -7.9098058429111315e+00  -7.6916856217551999e+00  -7.4739713357365112e+00  -7.2580992073646042e+00  -7.0466170758805236e+00  -6.8438912231670059e+00  -6.6568841538840360e+00  -6.4957028686038791e+00  -6.3731941372602474e+00  -6.3023830583702818e+00  -6.2902089288369094e+00  -9.5254160655098605e+00  -9.5094000531893492e+00  -9.4255048552332141e+00  -9.2892667115013960e+00  -9.1194426349170534e+00  -8.9307637298132363e+00  -8.7328055487794316e+00  -8.5309979561518468e+00  -8.3279807533197694e+00  -8.1247008586597556e+00  -7.9211774730384032e+00  -7.7170307335726243e+00  -7.5118996567401055e+00  -7.3058741037324140e+00  -7.1000709879276078e+00  -6.8974947849173827e+00  -6.7042802026474400e+00  -6.5311497975717430e+00  -6.3941298230279902e+00  -6.3121731654303321e+00  -6.2978665487961942e+00  -9.4854173683648728e+00  -9.4643854304187816e+00  -9.3650312540784899e+00  -9.2145025548211148e+00  -9.0381334891201792e+00  -8.8519899474925161e+00  -8.6643574662613716e+00  -8.4786519241385303e+00  -8.2956197063464376e+00  -8.1146524514429146e+00  -7.9345000844594598e+00  -7.7536558305196417e+00  -7.5706055948462625e+00  -7.3840876115800018e+00  -7.1935170123783578e+00  -6.9998010261407124e+00  -6.8068909526959658e+00  -6.6244069410509621e+00  -6.4707937971352374e+00  -6.3733687986913310e+00  -6.3558392852854304e+00  -9.3789183290245681e+00  -9.3475528361015101e+00  -9.2277094808684321e+00  -9.0655258804312968e+00  -8.8916128317046930e+00  -8.7199307114436415e+00  -8.5550356812959549e+00  -8.3972188481475438e+00  -8.2450826065185421e+00  -8.0966437251440606e+00  -7.9497467255726084e+00  -7.8021863087689090e+00  -7.6517259019579562e+00  -7.4961169178970612e+00  -7.3332289435876294e+00  -7.1615052876237604e+00  -6.9812414250120858e+00  -6.7977784607173106e+00  -6.6281100038314253e+00  -6.5085941621703416e+00  -6.4856594840443336e+00  -9.1759059250573021e+00  -9.1210666327813552e+00  -8.9797407802139286e+00  -8.8196215991021507e+00  -8.6675325928018196e+00  -8.5291678732010467e+00  -8.4032033382872395e+00  -8.2867205162509183e+00  -8.1768092495603586e+00  -8.0708849809452126e+00  -7.9666344344795128e+00  -7.8618702450480331e+00  -7.7543663643014957e+00  -7.6416856842205165e+00  -7.5210087044340437e+00  -7.3890302069574716e+00  -7.2422249492566362e+00  -7.0786099222264767e+00  -6.9048278798846656e+00  -6.7565272682516229e+00  -6.7229830132131578e+00  -8.8158713880256183e+00  -8.7141293535289464e+00  -8.5780092204831941e+00  -8.4598870982789887e+00  -8.3636330565524268e+00  -8.2834403463310853e+00  -8.2140100070915292e+00  -8.1516355507406129e+00  -8.0937563277489168e+00  -8.0384934494393150e+00  -7.9843337571511253e+00  -7.9299140364875553e+00  -7.8738479448196710e+00  -7.8145467755791564e+00  -7.7499802650663945e+00  -7.6772977251981240e+00  -7.5921907377202622e+00  -7.4879781207914045e+00  -7.3557574299407902e+00  -7.1977029793746929e+00  -7.1414691425705472e+00  -8.0000000000000000e+00  -8.0000000000000000e+00  -8.0000000000000000e+00  -8.0000000000000000e+00  -8.0000000000000000e+00  -8.0000000000000000e+00  -8.0000000000000000e+00  -8.0000000000000000e+00  -8.0000000000000000e+00  -8.0000000000000000e+00  -8.0000000000000000e+00  -8.0000000000000000e+00  -8.0000000000000000e+00  -8.0000000000000000e+00  -8.0000000000000000e+00  -8.0000000000000000e+00  -8.0000000000000000e+00  -8.0000000000000000e+00  -8.0000000000000000e+00  -8.0000000000000000e+00  -8.0000000000000000e+00  </DataArray> 
</PointData> 
</Piece>
</UnstructuredGrid>
</VTKFile>