<?xml version="1.0"?>
<VTKFile type="UnstructuredGrid"  version="0.1"  >
<UnstructuredGrid>
<Piece  NumberOfPoints="651" NumberOfCells="1200">
<Points>
<DataArray  type="Float64"  NumberOfComponents="3"  format="ascii">0 0 0  50000 0 0  100000 0 0  150000 0 0  200000 0 0  250000 0 0  300000 0 0  350000 0 0  400000 0 0  450000 0 0  500000 0 0  550000 0 0  600000 0 0  650000 0 0  700000 0 0  750000 0 0  800000 0 0  850000 0 0  900000 0 0  950000 0 0  1000000 0 0  0 50000 0  50000 50000 0  100000 50000 0  150000 50000 0  200000 50000 0  250000 50000 0  300000 50000 0  350000 50000 0  400000 50000 0  450000 50000 0  500000 50000 0  550000 50000 0  600000 50000 0  650000 50000 0  700000 50000 0  750000 50000 0  800000 50000 0  850000 50000 0  900000 50000 0  950000 50000 0  1000000 50000 0  0 100000 0  50000 100000 0  100000 100000 0  150000 100000 0  200000 100000 0  250000 100000 0  300000 100000 0  350000 100000 0  400000 100000 0  450000 100000 0  500000 100000 0  550000 100000 0  600000 100000 0  650000 100000 0  700000 100000 0  750000 100000 0  800000 100000 0  850000 100000 0  900000 100000 0  950000 100000 0  1000000 100000 0  0 150000 0  50000 150000 0  100000 150000 0  150000 150000 0  200000 150000 0  250000 150000 0  300000 150000 0  350000 150000 0  400000 150000 0  450000 150000 0  500000 150000 0  550000 150000 0  600000 150000 0  650000 150000 0  700000 150000 0  750000 150000 0  800000 150000 0  850000 150000 0  900000 150000 0  950000 150000 0  1000000 150000 0  0 200000 0  50000 200000 0  100000 200000 0  150000 200000 0  200000 200000 0  250000 200000 0  300000 200000 0  350000 200000 0  400000 200000 0  450000 200000 0  500000 200000 0  550000 200000 0  600000 200000 0  650000 200000 0  700000 200000 0  750000 200000 0  800000 200000 0  850000 200000 0  900000 200000 0  950000 200000 0  1000000 200000 0  0 250000 0  50000 250000 0  100000 250000 0  150000 250000 0  200000 250000 0  250000 250000 0  300000 250000 0  350000 250000 0  400000 250000 0  450000 250000 0  500000 250000 0  550000 250000 0  600000 250000 0  650000 250000 0  700000 250000 0  750000 250000 0  800000 250000 0  850000 250000 0  900000 250000 0  950000 250000 0  1000000 250000 0  0 300000 0  50000 300000 0  100000 300000 0  150000 300000 0  200000 300000 0  250000 300000 0  300000 300000 0  350000 300000 0  400000 300000 0  450000 300000 0  500000 300000 0  550000 300000 0  600000 300000 0  650000 300000 0  700000 300000 0  750000 300000 0  800000 300000 0  850000 300000 0  900000 300000 0  950000 300000 0  1000000 300000 0  0 350000 0  50000 350000 0  100000 350000 0  150000 350000 0  200000 350000 0  250000 350000 0  300000 350000 0  350000 350000 0  400000 350000 0  450000 350000 0  500000 350000 0  550000 350000 0  600000 350000 0  650000 350000 0  700000 350000 0  750000 350000 0  800000 350000 0  850000 350000 0  900000 350000 0  950000 350000 0  1000000 350000 0  0 400000 0  50000 400000 0  100000 400000 0  150000 400000 0  200000 400000 0  250000 400000 0  300000 400000 0  350000 400000 0  400000 400000 0  450000 400000 0  500000 400000 0  550000 400000 0  600000 400000 0  650000 400000 0  700000 400000 0  750000 400000 0  800000 400000 0  850000 400000 0  900000 400000 0  950000 400000 0  1000000 400000 0  0 450000 0  50000 450000 0  100000 450000 0  150000 450000 0  200000 450000 0  250000 450000 0  300000 450000 0  350000 450000 0  400000 450000 0  450000 450000 0  500000 450000 0  550000 450000 0  600000 450000 0  650000 450000 0  700000 450000 0  750000 450000 0  800000 450000 0  850000 450000 0  900000 450000 0  950000 450000 0  1000000 450000 0  0 500000 0  50000 500000 0  100000 500000 0  150000 500000 0  200000 500000 0  250000 500000 0  300000 500000 0  350000 500000 0  400000 500000 0  450000 500000 0  500000 500000 0  550000 500000 0  600000 500000 0  650000 500000 0  700000 500000 0  750000 500000 0  800000 500000 0  850000 500000 0  900000 500000 0  950000 500000 0  1000000 500000 0  0 550000 0  50000 550000 0  100000 550000 0  150000 550000 0  200000 550000 0  250000 550000 0  300000 550000 0  350000 550000 0  400000 550000 0  450000 550000 0  500000 550000 0  550000 550000 0  600000 550000 0  650000 550000 0  700000 550000 0  750000 550000 0  800000 550000 0  850000 550000 0  900000 550000 0  950000 550000 0  1000000 550000 0  0 600000 0  50000 600000 0  100000 600000 0  150000 600000 0  200000 600000 0  250000 600000 0  300000 600000 0  350000 600000 0  400000 600000 0  450000 600000 0  500000 600000 0  550000 600000 0  600000 600000 0  650000 600000 0  700000 600000 0  750000 600000 0  800000 600000 0  850000 600000 0  900000 600000 0  950000 600000 0  1000000 600000 0  0 650000 0  50000 650000 0  100000 650000 0  150000 650000 0  200000 650000 0  250000 650000 0  300000 650000 0  350000 650000 0  400000 650000 0  450000 650000 0  500000 650000 0  550000 650000 0  600000 650000 0  650000 650000 0  700000 650000 0  750000 650000 0  800000 650000 0  850000 650000 0  900000 650000 0  950000 650000 0  1000000 650000 0  0 700000 0  50000 700000 0  100000 700000 0  150000 700000 0  200000 700000 0  250000 700000 0  300000 700000 0  350000 700000 0  400000 700000 0  450000 700000 0  500000 700000 0  550000 700000 0  600000 700000 0  650000 700000 0  700000 700000 0  750000 700000 0  800000 700000 0  850000 700000 0  900000 700000 0  950000 700000 0  1000000 700000 0  0 750000 0  50000 750000 0  100000 750000 0  150000 750000 0  200000 750000 0  250000 750000 0  300000 750000 0  350000 750000 0  400000 750000 0  450000 750000 0  500000 750000 0  550000 750000 0  600000 750000 0  650000 750000 0  700000 750000 0  750000 750000 0  800000 750000 0  850000 750000 0  900000 750000 0  950000 750000 0  1000000 750000 0  0 800000 0  50000 800000 0  100000 800000 0  150000 800000 0  200000 800000 0  250000 800000 0  300000 800000 0  350000 800000 0  400000 800000 0  450000 800000 0  500000 800000 0  550000 800000 0  600000 800000 0  650000 800000 0  700000 800000 0  750000 800000 0  800000 800000 0  850000 800000 0  900000 800000 0  950000 800000 0  1000000 800000 0  0 850000 0  50000 850000 0  100000 850000 0  150000 850000 0  200000 850000 0  250000 850000 0  300000 850000 0  350000 850000 0  400000 850000 0  450000 850000 0  500000 850000 0  550000 850000 0  600000 850000 0  650000 850000 0  700000 850000 0  750000 850000 0  800000 850000 0  850000 850000 0  900000 850000 0  950000 850000 0  1000000 850000 0  0 900000 0  50000 900000 0  100000 900000 0  150000 900000 0  200000 900000 0  250000 900000 0  300000 900000 0  350000 900000 0  400000 900000 0  450000 900000 0  500000 900000 0  550000 900000 0  600000 900000 0  650000 900000 0  700000 900000 0  750000 900000 0  800000 900000 0  850000 900000 0  900000 900000 0  950000 900000 0  1000000 900000 0  0 950000 0  50000 950000 0  100000 950000 0  150000 950000 0  200000 950000 0  250000 950000 0  300000 950000 0  350000 950000 0  400000 950000 0  450000 950000 0  500000 950000 0  550000 950000 0  600000 950000 0  650000 950000 0  700000 950000 0  750000 950000 0  800000 950000 0  850000 950000 0  900000 950000 0  950000 950000 0  1000000 950000 0  0 1000000 0  50000 1000000 0  100000 1000000 0  150000 1000000 0  200000 1000000 0  250000 1000000 0  300000 1000000 0  350000 1000000 0  400000 1000000 0  450000 1000000 0  500000 1000000 0  550000 1000000 0  600000 1000000 0  650000 1000000 0  700000 1000000 0  750000 1000000 0  800000 1000000 0  850000 1000000 0  900000 1000000 0  950000 1000000 0  1000000 1000000 0  0 1050000 0  50000 1050000 0  100000 1050000 0  150000 1050000 0  200000 1050000 0  250000 1050000 0  300000 1050000 0  350000 1050000 0  400000 1050000 0  450000 1050000 0  500000 1050000 0  550000 1050000 0  600000 1050000 0  650000 1050000 0  700000 1050000 0  750000 1050000 0  800000 1050000 0  850000 1050000 0  900000 1050000 0  950000 1050000 0  1000000 1050000 0  0 1100000 0  50000 1100000 0  100000 1100000 0  150000 1100000 0  200000 1100000 0  250000 1100000 0  300000 1100000 0  350000 1100000 0  400000 1100000 0  450000 1100000 0  500000 1100000 0  550000 1100000 0  600000 1100000 0  650000 1100000 0  700000 1100000 0  750000 1100000 0  800000 1100000 0  850000 1100000 0  900000 1100000 0  950000 1100000 0  1000000 1100000 0  0 1150000 0  50000 1150000 0  100000 1150000 0  150000 1150000 0  200000 1150000 0  250000 1150000 0  300000 1150000 0  350000 1150000 0  400000 1150000 0  450000 1150000 0  500000 1150000 0  550000 1150000 0  600000 1150000 0  650000 1150000 0  700000 1150000 0  750000 1150000 0  800000 1150000 0  850000 1150000 0  900000 1150000 0  950000 1150000 0  1000000 1150000 0  0 1200000 0  50000 1200000 0  100000 1200000 0  150000 1200000 0  200000 1200000 0  250000 1200000 0  300000 1200000 0  350000 1200000 0  400000 1200000 0  450000 1200000 0  500000 1200000 0  550000 1200000 0  600000 1200000 0  650000 1200000 0  700000 1200000 0  750000 1200000 0  800000 1200000 0  850000 1200000 0  900000 1200000 0  950000 1200000 0  1000000 1200000 0  0 1250000 0  50000 1250000 0  100000 1250000 0  150000 1250000 0  200000 1250000 0  250000 1250000 0  300000 1250000 0  350000 1250000 0  400000 1250000 0  450000 1250000 0  500000 1250000 0  550000 1250000 0  600000 1250000 0  650000 1250000 0  700000 1250000 0  750000 1250000 0  800000 1250000 0  850000 1250000 0  900000 1250000 0  950000 1250000 0  1000000 1250000 0  0 1300000 0  50000 1300000 0  100000 1300000 0  150000 1300000 0  200000 1300000 0  250000 1300000 0  300000 1300000 0  350000 1300000 0  400000 1300000 0  450000 1300000 0  500000 1300000 0  550000 1300000 0  600000 1300000 0  650000 1300000 0  700000 1300000 0  750000 1300000 0  800000 1300000 0  850000 1300000 0  900000 1300000 0  950000 1300000 0  1000000 1300000 0  0 1350000 0  50000 1350000 0  100000 1350000 0  150000 1350000 0  200000 1350000 0  250000 1350000 0  300000 1350000 0  350000 1350000 0  400000 1350000 0  450000 1350000 0  500000 1350000 0  550000 1350000 0  600000 1350000 0  650000 1350000 0  700000 135
[...]
<PointData  Scalars="f_4491"> 
<DataArray  type="Float64"  Name="f_4491"  format="ascii">-8.1576707682295844e+00  -8.1554714984889269e+00  -8.1445771279289776e+00  -8.1249556169676183e+00  -8.0971182558403001e+00  -8.0618075395920297e+00  -8.0199627660720125e+00  -7.9726933522870862e+00  -7.9212491750520453e+00  -7.8669873520115576e+00  -7.8113362976105387e+00  -7.7557580280732683e+00  -7.7017096955000195e+00  -7.6506053411203991e+00  -7.6037788958375563e+00  -7.5624496006672022e+00  -7.5276915676756584e+00  -7.5004109198144056e+00  -7.4813360264074991e+00  -7.4709820645188003e+00  -7.4687530168279146e+00  -8.1597601036035989e+00  -8.1576107460522014e+00  -8.1465595514133771e+00  -8.1268084122875681e+00  -8.0988273140575142e+00  -8.0633447568909915e+00  -8.0212965719944425e+00  -7.9737938425468293e+00  -7.9220907214760228e+00  -7.8675500598547110e+00  -7.8116068688384939e+00  -7.7557302403670629e+00  -7.7013845708640343e+00  -7.6499910094032293e+00  -7.6028900843472389e+00  -7.5613064716830127e+00  -7.5263167424379960e+00  -7.4988198959909873e+00  -7.4795048428524140e+00  -7.4687831880246449e+00  -7.4665545044470516e+00  -8.1699941089944002e+00  -8.1679980626705717e+00  -8.1566940386055524e+00  -8.1363469148843564e+00  -8.1075201826112764e+00  -8.0709797115786230e+00  -8.0276895956404388e+00  -7.9787908127668530e+00  -7.9255713705850548e+00  -7.8694315588335817e+00  -7.8118463195896801e+00  -7.7543259536370606e+00  -7.6983761358041072e+00  -7.6454581796813725e+00  -7.5969505198327321e+00  -7.5541124451298609e+00  -7.5180512203482746e+00  -7.4896937475240195e+00  -7.4697627671575928e+00  -7.4587468468375926e+00  -7.4567541821589236e+00  -8.1882408514200620e+00  -8.1862693867718868e+00  -8.1745436508338294e+00  -8.1532301726357908e+00  -8.1229499046060951e+00  -8.0845396214820102e+00  -8.0390278124437167e+00  -7.9876196418777514e+00  -7.9316705257879523e+00  -7.8726520256224433e+00  -7.8121134092321434e+00  -7.7516409085975635e+00  -7.6928160637772560e+00  -7.6371743112225010e+00  -7.5861649674178304e+00  -7.5411139181656530e+00  -7.5031906449323618e+00  -7.4733813864746681e+00  -7.4524674642813258e+00  -7.4409845889935013e+00  -7.4389919811132703e+00  -8.2142097110637895e+00  -8.2121832840216005e+00  -8.1997919433116042e+00  -8.1771169851702989e+00  -8.1448031874160574e+00  -8.1037594112799827e+00  -8.0551011870025420e+00  -8.0001275095695235e+00  -7.9402933288727944e+00  -7.8771747631430493e+00  -7.8124293214617317e+00  -7.7477533148316606e+00  -7.6848380999826915e+00  -7.6253265220268514e+00  -7.5707708809024581e+00  -7.5225938772992729e+00  -7.4820541344254039e+00  -7.4502171765191179e+00  -7.4279268404582686e+00  -7.4157407946203548e+00  -7.4136370979208790e+00  -8.2477327400011351e+00  -8.2455919015288757e+00  -8.2322812953094076e+00  -8.2078254604759771e+00  -8.1728931648529368e+00  -8.1284673999811456e+00  -8.0757657257304825e+00  -8.0162050886113700e+00  -7.9513689303635884e+00  -7.8829693348453107e+00  -7.8128046643374462e+00  -7.7427143483426466e+00  -7.6745324068608367e+00  -7.6100411156489960e+00  -7.5509261697709196e+00  -7.4987347322808571e+00  -7.4548375805135425e+00  -7.4203950193687325e+00  -7.3963185848809045e+00  -7.3831866657253977e+00  -7.3809117814046408e+00  -8.2887557811785282e+00  -8.2864500810311288e+00  -8.2719689452056269e+00  -8.2453018942102698e+00  -8.2071550105832394e+00  -8.1585959835933970e+00  -8.1009599119659619e+00  -8.0358036119877827e+00  -7.9648656887071549e+00  -7.8900237716012711e+00  -7.8132482145737567e+00  -7.7365533164179698e+00  -7.6619473717798332e+00  -7.5913828211180032e+00  -7.5267077337126223e+00  -7.4696198150173512e+00  -7.4216237536252763e+00  -7.3839907840561629e+00  -7.3577110512885300e+00  -7.3433940404497751e+00  -7.3409029536368644e+00  -8.3373150731331354e+00  -8.3347978715200757e+00  -8.3188972905964764e+00  -8.2895819924449992e+00  -8.2476126196902353e+00  -8.1941580009510169e+00  -8.1306893528010846e+00  -8.0589257456260963e+00  -7.9807868677581082e+00  -7.8983443239162874e+00  -7.8137703639971843e+00  -7.7292846912559332e+00  -7.6471003365653871e+00  -7.5693696061230309e+00  -7.4981311025031943e+00  -7.4352587744944136e+00  -7.3824135441295082e+00  -7.3409960430765224e+00  -7.3120903756875304e+00  -7.2963513336281496e+00  -7.2936035012965190e+00  -8.3935113046543659e+00  -8.3907372220828780e+00  -8.3731676907796260e+00  -8.3407598629060189e+00  -8.2943470501198533e+00  -8.2352190890673693e+00  -8.1650049267120384e+00  -8.0856098381069170e+00  -7.9991608136066699e+00  -7.9079513579053327e+00  -7.8143845850648370e+00  -7.7209150397445825e+00  -7.6299899095691899e+00  -7.5439902884643359e+00  -7.4651731682746290e+00  -7.3956148596561686e+00  -7.3371562392068839e+00  -7.2913482743169293e+00  -7.2593872677019942e+00  -7.2419885686373302e+00  -7.2389447183758033e+00  -8.4574818621207246e+00  -8.4544053594352633e+00  -8.4349137922396906e+00  -8.3989597605352611e+00  -8.3474677628166045e+00  -8.2818708665033185e+00  -8.2039799842080683e+00  -8.1159123853870447e+00  -8.0200293315138875e+00  -7.9188739484385584e+00  -7.8151083263803347e+00  -7.7114501283146657e+00  -7.6106090086477076e+00  -7.5152230433657170e+00  -7.4277954116354206e+00  -7.3506317190766897e+00  -7.2857782486197706e+00  -7.2349596159415794e+00  -7.1995047536522314e+00  -7.1802053902138905e+00  -7.1768263263843401e+00  -8.5293702356976251e+00  -8.5259447087064455e+00  -8.5042720726393721e+00  -8.4643066264570734e+00  -8.4070835582893331e+00  -8.3342036600927525e+00  -8.2476865641004888e+00  -8.1498892048547180e+00  -8.0434348836395788e+00  -7.9311437614453233e+00  -7.8159638619972593e+00  -7.7009026611534148e+00  -7.5889590629869002e+00  -7.4830553111154900e+00  -7.3859684444193334e+00  -7.3002612402465692e+00  -7.2282127751336098e+00  -7.1717471284132328e+00  -7.1323485652264447e+00  -7.1109020525660185e+00  -7.1071481015932321e+00  -8.6092911958328155e+00  -8.6054683344690783e+00  -8.5813479289043588e+00  -8.5368928043411447e+00  -8.4732703551207269e+00  -8.3922764618066328e+00  -8.2961690605031464e+00  -8.1875743803094192e+00  -8.0694061346469663e+00  -7.9447881189039471e+00  -7.8169793124573221e+00  -7.6893011853125062e+00  -7.5650662377757829e+00  -7.4475063429072916e+00  -7.3396995493744672e+00  -7.2444945887350904e+00  -7.1644329264138271e+00  -7.1016669170809417e+00  -7.0578618107591087e+00  -7.0340146398811099e+00  -7.0298453648892476e+00  -8.6972901622164844e+00  -8.6930194517927806e+00  -8.6661756716547931e+00  -8.6167387937222415e+00  -8.5460333574083567e+00  -8.4560817419628176e+00  -8.3494133489906854e+00  -8.2289554971189389e+00  -8.0979409035259593e+00  -7.9598218398159473e+00  -7.8181899558592605e+00  -7.6767007930960363e+00  -7.5390008048114057e+00  -7.4086539686874255e+00  -7.2890652013801729e+00  -7.1833987111923365e+00  -7.0944905903156776e+00  -7.0247542030819581e+00  -6.9760656279239068e+00  -6.9495560918009929e+00  -6.9449301333654532e+00  -8.7932949944667502e+00  -8.7885232739689645e+00  -8.7586705811225105e+00  -8.7037458876284237e+00  -8.6252611922087556e+00  -8.5255026621311654e+00  -8.4073091468436658e+00  -8.2739433838440686e+00  -8.1289853091985727e+00  -7.9762372833093114e+00  -7.8196399171636717e+00  -7.6631963606953297e+00  -7.5109010025217335e+00  -7.3666674474306379e+00  -7.2342508096160829e+00  -7.1171607284673986e+00  -7.0185634595849038e+00  -6.9411714955508597e+00  -6.8871076974330512e+00  -6.8576648057272473e+00  -6.8525397502423155e+00  -8.8970582147398929e+00  -8.8917292017221694e+00  -8.8585708759208543e+00  -8.7976382636884356e+00  -8.7106693378100335e+00  -8.6002599558065054e+00  -8.4696030869043817e+00  -8.3223342948048717e+00  -8.1624076760567501e+00  -7.9939918959858751e+00  -7.8213843173435738e+00  -7.6489391769583897e+00  -7.4810029535222258e+00  -7.3218485649516438e+00  -7.1756002600096096e+00  -7.0461429753456031e+00  -6.9370128922716354e+00  -6.8512673019246684e+00  -6.7913207743558051e+00  -6.7586628163070746e+00  -6.7529949830895690e+00  -9.0080874111446558e+00  -9.0021410651359215e+00  -8.9653670564097041e+00  -8.8978916346319554e+00  -8.8017296760170449e+00  -8.6798452810826916e+00  -8.5358395848277731e+00  -8.3737621590930331e+00  -8.1979655585301181e+00  -8.0129924609684871e+00  -7.8234919615106495e+00  -7.6341579220529310e+00  -7.4496784321710452e+00  -7.2746834897021202e+00  -7.1136782855296099e+00  -6.9709519520282734e+00  -6.8504558066824348e+00  -6.7556482770318746e+00  -6.6892937735493962e+00  -6.6531258431634566e+00  -6.6468698394539629e+00  -9.1255612381237654e+00  -9.1189327582237354e+00  -9.0782155638468005e+00  -9.0036449028254992e+00  -8.8975823001381009e+00  -8.7634372280844968e+00  -8.6052861175916409e+00  -8.4276382336601792e+00  -8.2352640930199374e+00  -8.0330751798786171e+00  -7.8260486322226503e+00  -7.6191850068809881e+00  -7.4174824375547868e+00  -7.2259082281812024e+00  -7.0493492162419162e+00  -6.8925251331218709e+00  -6.7598545478896455e+00  -6.6552683855866812e+00  -6.5819584735356509e+00  -6.5419678898742184e+00  -6.5350757083015303e+00  -9.2482279656225668e+00  -9.2408460825101724e+00  -9.1958329463903112e+00  -9.1135903191801830e+00  -8.9969247677304480e+00  -8.8497954371319683e+00  -8.6768391277133876e+00  -8.4830753817302860e+00  -8.2737039213805161e+00  -8.0539807582565821e+00  -7.8291610119870745e+00  -7.6044891806749444e+00  -7.3852124800325623e+00  -7.1765906898068677e+00  -6.9838761622184853e+00  -6.8122404123629146e+00  -6.6666296822649915e+00  -6.5515396357559963e+00  -6.4706956805300146e+00  -6.4265436499181341e+00  -6.4189629639489407e+00  -9.3742828095968793e+00  -9.3660667944467111e+00  -9.3163655490742965e+00  -9.2258362448815561e+00  -9.0978727493168314e+00  -8.9371275686393528e+00  -8.7489066813313894e+00  -8.5387945656031139e+00  -8.3124174178089802e+00  -8.0753239472202587e+00  -7.8329611575175138e+00  -7.5907148663519211e+00  -7.3539809361329329e+00  -7.1282320651697919e+00  -6.9190449356780066e+00  -6.7320538808170589e+00  -6.5728020785382375e+00  -6.4464704329010321e+00  -6.3574659236388440e+00  -6.3087728886769350e+00  -6.3004440141026024e+00  -9.5012190556608527e+00  -9.4920734392373003e+00  -9.4372277638311051e+00  -9.3377344346716438e+00  -9.1977844340439265e+00  -9.0229234416596285e+00  -8.8192647647455864e+00  -8.5930125878265908e+00  -8.3501933721694126e+00  -8.0965577647149960e+00  -7.8376112388590764e+00  -7.5787275576211046e+00  -7.3253002274182935e+00  -7.0828888407479820e+00  -6.8573165498950059e+00  -6.6546724576026213e+00  -6.4811725690627533e+00  -6.3428399744885411e+00  -6.2449718301302148e+00  -6.1912925405855193e+00  -6.1821432293424454e+00  -9.6256457799517907e+00  -9.6154509569775559e+00  -9.5548983235988398e+00  -9.4456602378519676e+00  -9.2930391263214336e+00  -9.1037511748415731e+00  -8.8848867342602365e+00  -8.6433136972978257e+00  -8.3853934468290987e+00  -8.1169342774470490e+00  -7.8433078648890655e+00  -7.5696622677009540e+00  -7.3011770119091377e+00  -7.0433132145989950e+00  -6.8020099768613367e+00  -6.5837681333872622e+00  -6.3955501313844616e+00  -6.2444210414622532e+00  -6.1368630397100663e+00  -6.0776451126052997e+00  -6.0675818379748714e+00  -9.7430608231561404e+00  -9.7316560341272051e+00  -9.6646574597388177e+00  -9.5447283064131270e+00  -9.3787585433980514e+00  -9.1750130983421858e+00  -8.9417518915956844e+00  -8.6865151787121331e+00  -8.4158698720455316e+00  -8.1354669501833232e+00  -7.8502846453887329e+00  -7.5649676683307572e+00  -7.2842045852785180e+00  -7.0131020122637535e+00  -6.7575110912105458e+00  -6.5242390566316173e+00  -6.3210429603747063e+00  -6.1562702663002300e+00  -6.0380014361200214e+00  -5.9725173788534116e+00  -5.9614108666347772e+00  -9.8475596960745388e+00  -9.8347110708767307e+00  -9.7602348108840129e+00  -9.6284169427650870e+00  -9.4484588338128592e+00  -9.2306678435548477e+00  -8.9846529884574835e+00  -8.7185512044863458e+00  -8.4389046214589349e+00  -8.1509048624756133e+00  -7.8588106006049667e+00  -7.5664312526408084e+00  -7.2776302345491928e+00  -6.9968292546658244e+00  -6.7294906638537686e+00  -6.4825165165267640e+00  -6.2644304706417042e+00  -6.0851166036916275e+00  -5.9548178712402917e+00  -5.8820539144555744e+00  -5.8697149447519195e+00  -9.9314454795721989e+00  -9.9167822251777658e+00  -9.8333122963796527e+00  -9.6880599244744889e+00  -9.4936270012255974e+00  -9.2629464704182336e+00  -9.0070497006539281e+00  -8.7344236499923156e+00  -8.4512072854954834e+00  -8.1617370546487589e+00  -7.8691806472044394e+00  -7.5761599565352391e+00  -7.2853541638791981e+00  -7.0001105757916715e+00  -6.7250868775528438e+00  -6.4668991799932423e+00  -6.2346353135627250e+00  -6.0398986535982040e+00  -5.8958184632528248e+00  -5.8142915575558725e+00  -5.8004294749911320e+00  -9.9846736654180752e+00  -9.9675485046738022e+00  -9.8727748431430129e+00  -9.7121479999323554e+00  -9.5032411271577057e+00  -9.2621394054532900e+00  -9.0010648079018871e+00  -8.7283064061269844e+00  -8.4490319499295783e+00  -8.1662553124160926e+00  -7.8816930142679018e+00  -7.5964771275244729e+00  -7.3117881985218736e+00  -7.0295031927187539e+00  -6.7529535653323967e+00  -6.4878503210312797e+00  -6.2433021886111719e+00  -6.0325335521565107e+00  -5.8723547198347275e+00  -5.7798073746895291e+00  -5.7639555407818301e+00  -9.9940022250903606e+00  -9.9731497121076291e+00  -9.8635026131453163e+00  -9.6853837591459158e+00  -9.4633369103033331e+00  -9.2166346206990308e+00  -8.9578018355691320e+00  -8.6939391009150526e+00  -8.4284970903329182e+00  -8.1627122865741519e+00  -7.8966079542237360e+00  -7.6296855681613271e+00  -7.3614713877145874e+00  -7.0920814271218191e+00  -6.8229752737125366e+00  -6.5580821605769071e+00  -6.3054275313446473e+00  -6.0790411570650340e+00  -5.8998936214919437e+00  -5.7927817701614375e+00  -5.7741529326275742e+00  -9.9415751303767124e+00  -9.9141838209822950e+00  -9.7843342452796360e+00  -9.5875417921304074e+00  -9.3569534290842036e+00  -9.1135859704945830e+00  -8.8682757751611305e+00  -8.6254886687528014e+00  -8.3861989289867189e+00  -8.1496092747281939e+00  -7.9140834446199042e+00  -7.6776496051688836e+00  -7.4383263357242262e+00  -7.1944620886081943e+00  -6.9452904958038726e+00  -6.6919969864500120e+00  -6.4397500279206836e+00  -6.2011371200666563e+00  -6.0002949783533595e+00  -5.8729656733308566e+00  -5.8501380804697796e+00  -9.8022282526756150e+00  -9.7613524170630193e+00  -9.6047241207678109e+00  -9.3927050867914641e+00  -9.1653441594203340e+00  -8.9409032517898517e+00  -8.7253405374007382e+00  -8.5190351342837722e+00  -8.3201578376287681e+00  -8.1261140219240229e+00  -7.9340841386195322e+00  -7.7411836014386495e+00  -7.5444868075793785e+00  -7.3410521055507765e+00  -7.1280918958485291e+00  -6.9035684812724112e+00  -6.6678669965327391e+00  -6.4279756289193459e+00  -6.2061349706800524e+00  -6.0499240296091621e+00  -6.0200505820022538e+00  -9.5367598008689480e+00  -9.4652220568920242e+00  -9.2805166329945745e+00  -9.0712072889031550e+00  -8.8723929626771287e+00  -8.6915256496237241e+00  -8.5268736274879302e+00  -8.3746192209247141e+00  -8.2309560655200418e+00  -8.0925041100421335e+00  -7.9562383564437713e+00  -7.8192985190501627e+00  -7.6787735676322688e+00  -7.5314760787246922e+00  -7.3737178971142594e+00  -7.2011747094326877e+00  -7.0092335343902317e+00  -6.7952992265118581e+00  -6.5680675857097315e+00  -6.3742054391234051e+00  -6.3304880161632191e+00  -9.0661627094550319e+00  -8.9333011557993682e+00  -8.7553989285030625e+00  -8.6009961829294017e+00  -8.4751819475878225e+00  -8.3703683756108749e+00  -8.2796258846863555e+00  -8.1981071827729544e+00  -8.1224639247127524e+00  -8.0502396220422590e+00  -7.9794561529956116e+00  -7.9083314571050165e+00  -7.8350531307282214e+00  -7.7575439511188318e+00  -7.6731489200641194e+00  -7.5781394952300252e+00  -7.4668796310876591e+00  -7.3306288588439372e+00  -7.1577436326653627e+00  -6.9510856525753493e+00  -6.8777105656228237e+00  -8.0000000000000000e+00  -8.0000000000000000e+00  -8.0000000000000000e+00  -8.0000000000000000e+00  -8.0000000000000000e+00  -8.0000000000000000e+00  -8.0000000000000000e+00  -8.0000000000000000e+00  -8.0000000000000000e+00  -8.0000000000000000e+00  -8.0000000000000000e+00  -8.0000000000000000e+00  -8.0000000000000000e+00  -8.0000000000000000e+00  -8.0000000000000000e+00  -8.0000000000000000e+00  -8.0000000000000000e+00  -8.0000000000000000e+00  -8.0000000000000000e+00  -8.0000000000000000e+00  -8.0000000000000000e+00  </DataArray> 
</PointData> 
</Piece>
</UnstructuredGrid>
</VTKFile>