<?xml version="1.0"?>
<VTKFile type="UnstructuredGrid"  version="0.1"  >
<UnstructuredGrid>
<Piece  NumberOfPoints="651" NumberOfCells="1200">
<Points>
<DataArray  type="Float64"  NumberOfComponents="3"  format="ascii">0 0 0  50000 0 0  100000 0 0  150000 0 0  200000 0 0  250000 0 0  300000 0 0  350000 0 0  400000 0 0  450000 0 0  500000 0 0  550000 0 0  600000 0 0  650000 0 0  700000 0 0  750000 0 0  800000 0 0  850000 0 0  900000 0 0  950000 0 0  1000000 0 0  0 50000 0  50000 50000 0  100000 50000 0  150000 50000 0  200000 50000 0  250000 50000 0  300000 50000 0  350000 50000 0  400000 50000 0  450000 50000 0  500000 50000 0  550000 50000 0  600000 50000 0  650000 50000 0  700000 50000 0  750000 50000 0  800000 50000 0  850000 50000 0  900000 50000 0  950000 50000 0  1000000 50000 0  0 100000 0  50000 100000 0  100000 100000 0  150000 100000 0  200000 100000 0  250000 100000 0  300000 100000 0  350000 100000 0  400000 100000 0  450000 100000 0  500000 100000 0  550000 100000 0  600000 100000 0  650000 100000 0  700000 100000 0  750000 100000 0  800000 100000 0  850000 100000 0  900000 100000 0  950000 100000 0  1000000 100000 0  0 150000 0  50000 150000 0  100000 150000 0  150000 150000 0  200000 150000 0  250000 150000 0  300000 150000 0  350000 150000 0  400000 150000 0  450000 150000 0  500000 150000 0  550000 150000 0  600000 150000 0  650000 150000 0  700000 150000 0  750000 150000 0  800000 150000 0  850000 150000 0  900000 150000 0  950000 150000 0  1000000 150000 0  0 200000 0  50000 200000 0  100000 200000 0  150000 200000 0  200000 200000 0  250000 200000 0  300000 200000 0  350000 200000 0  400000 200000 0  450000 200000 0  500000 200000 0  550000 200000 0  600000 200000 0  650000 200000 0  700000 200000 0  750000 200000 0  800000 200000 0  850000 200000 0  900000 200000 0  950000 200000 0  1000000 200000 0  0 250000 0  50000 250000 0  100000 250000 0  150000 250000 0  200000 250000 0  250000 250000 0  300000 250000 0  350000 250000 0  400000 250000 0  450000 250000 0  500000 250000 0  550000 250000 0  600000 250000 0  650000 250000 0  700000 250000 0  750000 250000 0  800000 250000 0  850000 250000 0  900000 250000 0  950000 250000 0  1000000 250000 0  0 300000 0  50000 300000 0  100000 300000 0  150000 300000 0  200000 300000 0  250000 300000 0  300000 300000 0  350000 300000 0  400000 300000 0  450000 300000 0  500000 300000 0  550000 300000 0  600000 300000 0  650000 300000 0  700000 300000 0  750000 300000 0  800000 300000 0  850000 300000 0  900000 300000 0  950000 300000 0  1000000 300000 0  0 350000 0  50000 350000 0  100000 350000 0  150000 350000 0  200000 350000 0  250000 350000 0  300000 350000 0  350000 350000 0  400000 350000 0  450000 350000 0  500000 350000 0  550000 350000 0  600000 350000 0  650000 350000 0  700000 350000 0  750000 350000 0  800000 350000 0  850000 350000 0  900000 350000 0  950000 350000 0  1000000 350000 0  0 400000 0  50000 400000 0  100000 400000 0  150000 400000 0  200000 400000 0  250000 400000 0  300000 400000 0  350000 400000 0  400000 400000 0  450000 400000 0  500000 400000 0  550000 400000 0  600000 400000 0  650000 400000 0  700000 400000 0  750000 400000 0  800000 400000 0  850000 400000 0  900000 400000 0  950000 400000 0  1000000 400000 0  0 450000 0  50000 450000 0  100000 450000 0  150000 450000 0  200000 450000 0  250000 450000 0  300000 450000 0  350000 450000 0  400000 450000 0  450000 450000 0  500000 450000 0  550000 450000 0  600000 450000 0  650000 450000 0  700000 450000 0  750000 450000 0  800000 450000 0  850000 450000 0  900000 450000 0  950000 450000 0  1000000 450000 0  0 500000 0  50000 500000 0  100000 500000 0  150000 500000 0  200000 500000 0  250000 500000 0  300000 500000 0  350000 500000 0  400000 500000 0  450000 500000 0  500000 500000 0  550000 500000 0  600000 500000 0  650000 500000 0  700000 500000 0  750000 500000 0  800000 500000 0  850000 500000 0  900000 500000 0  950000 500000 0  1000000 500000 0  0 550000 0  50000 550000 0  100000 550000 0  150000 550000 0  200000 550000 0  250000 550000 0  300000 550000 0  350000 550000 0  400000 550000 0  450000 550000 0  500000 550000 0  550000 550000 0  600000 550000 0  650000 550000 0  700000 550000 0  750000 550000 0  800000 550000 0  850000 550000 0  900000 550000 0  950000 550000 0  1000000 550000 0  0 600000 0  50000 600000 0  100000 600000 0  150000 600000 0  200000 600000 0  250000 600000 0  300000 600000 0  350000 600000 0  400000 600000 0  450000 600000 0  500000 600000 0  550000 600000 0  600000 600000 0  650000 600000 0  700000 600000 0  750000 600000 0  800000 600000 0  850000 600000 0  900000 600000 0  950000 600000 0  1000000 600000 0  0 650000 0  50000 650000 0  100000 650000 0  150000 650000 0  200000 650000 0  250000 650000 0  300000 650000 0  350000 650000 0  400000 650000 0  450000 650000 0  500000 650000 0  550000 650000 0  600000 650000 0  650000 650000 0  700000 650000 0  750000 650000 0  800000 650000 0  850000 650000 0  900000 650000 0  950000 650000 0  1000000 650000 0  0 700000 0  50000 700000 0  100000 700000 0  150000 700000 0  200000 700000 0  250000 700000 0  300000 700000 0  350000 700000 0  400000 700000 0  450000 700000 0  500000 700000 0  550000 700000 0  600000 700000 0  650000 700000 0  700000 700000 0  750000 700000 0  800000 700000 0  850000 700000 0  900000 700000 0  950000 700000 0  1000000 700000 0  0 750000 0  50000 750000 0  100000 750000 0  150000 750000 0  200000 750000 0  250000 750000 0  300000 750000 0  350000 750000 0  400000 750000 0  450000 750000 0  500000 750000 0  550000 750000 0  600000 750000 0  650000 750000 0  700000 750000 0  750000 750000 0  800000 750000 0  850000 750000 0  900000 750000 0  950000 750000 0  1000000 750000 0  0 800000 0  50000 800000 0  100000 800000 0  150000 800000 0  200000 800000 0  250000 800000 0  300000 800000 0  350000 800000 0  400000 800000 0  450000 800000 0  500000 800000 0  550000 800000 0  600000 800000 0  650000 800000 0  700000 800000 0  750000 800000 0  800000 800000 0  850000 800000 0  900000 800000 0  950000 800000 0  1000000 800000 0  0 850000 0  50000 850000 0  100000 850000 0  150000 850000 0  200000 850000 0  250000 850000 0  300000 850000 0  350000 850000 0  400000 850000 0  450000 850000 0  500000 850000 0  550000 850000 0  600000 850000 0  650000 850000 0  700000 850000 0  750000 850000 0  800000 850000 0  850000 850000 0  900000 850000 0  950000 850000 0  1000000 850000 0  0 900000 0  50000 900000 0  100000 900000 0  150000 900000 0  200000 900000 0  250000 900000 0  300000 900000 0  350000 900000 0  400000 900000 0  450000 900000 0  500000 900000 0  550000 900000 0  600000 900000 0  650000 900000 0  700000 900000 0  750000 900000 0  800000 900000 0  850000 900000 0  900000 900000 0  950000 900000 0  1000000 900000 0  0 950000 0  50000 950000 0  100000 950000 0  150000 950000 0  200000 950000 0  250000 950000 0  300000 950000 0  350000 950000 0  400000 950000 0  450000 950000 0  500000 950000 0  550000 950000 0  600000 950000 0  650000 950000 0  700000 950000 0  750000 950000 0  800000 950000 0  850000 950000 0  900000 950000 0  950000 950000 0  1000000 950000 0  0 1000000 0  50000 1000000 0  100000 1000000 0  150000 1000000 0  200000 1000000 0  250000 1000000 0  300000 1000000 0  350000 1000000 0  400000 1000000 0  450000 1000000 0  500000 1000000 0  550000 1000000 0  600000 1000000 0  650000 1000000 0  700000 1000000 0  750000 1000000 0  800000 1000000 0  850000 1000000 0  900000 1000000 0  950000 1000000 0  1000000 1000000 0  0 1050000 0  50000 1050000 0  100000 1050000 0  150000 1050000 0  200000 1050000 0  250000 1050000 0  300000 1050000 0  350000 1050000 0  400000 1050000 0  450000 1050000 0  500000 1050000 0  550000 1050000 0  600000 1050000 0  650000 1050000 0  700000 1050000 0  750000 1050000 0  800000 1050000 0  850000 1050000 0  900000 1050000 0  950000 1050000 0  1000000 1050000 0  0 1100000 0  50000 1100000 0  100000 1100000 0  150000 1100000 0  200000 1100000 0  250000 1100000 0  300000 1100000 0  350000 1100000 0  400000 1100000 0  450000 1100000 0  500000 1100000 0  550000 1100000 0  600000 1100000 0  650000 1100000 0  700000 1100000 0  750000 1100000 0  800000 1100000 0  850000 1100000 0  900000 1100000 0  950000 1100000 0  1000000 1100000 0  0 1150000 0  50000 1150000 0  100000 1150000 0  150000 1150000 0  200000 1150000 0  250000 1150000 0  300000 1150000 0  350000 1150000 0  400000 1150000 0  450000 1150000 0  500000 1150000 0  550000 1150000 0  600000 1150000 0  650000 1150000 0  700000 1150000 0  750000 1150000 0  800000 1150000 0  850000 1150000 0  900000 1150000 0  950000 1150000 0  1000000 1150000 0  0 1200000 0  50000 1200000 0  100000 1200000 0  150000 1200000 0  200000 1200000 0  250000 1200000 0  300000 1200000 0  350000 1200000 0  400000 1200000 0  450000 1200000 0  500000 1200000 0  550000 1200000 0  600000 1200000 0  650000 1200000 0  700000 1200000 0  750000 1200000 0  800000 1200000 0  850000 1200000 0  900000 1200000 0  950000 1200000 0  1000000 1200000 0  0 1250000 0  50000 1250000 0  100000 1250000 0  150000 1250000 0  200000 1250000 0  250000 1250000 0  300000 1250000 0  350000 1250000 0  400000 1250000 0  450000 1250000 0  500000 1250000 0  550000 1250000 0  600000 1250000 0  650000 1250000 0  700000 1250000 0  750000 1250000 0  800000 1250000 0  850000 1250000 0  900000 1250000 0  950000 1250000 0  1000000 1250000 0  0 1300000 0  50000 1300000 0  100000 1300000 0  150000 1300000 0  200000 1300000 0  250000 1300000 0  300000 1300000 0  350000 1300000 0  400000 1300000 0  450000 1300000 0  500000 1300000 0  550000 1300000 0  600000 1300000 0  650000 1300000 0  700000 1300000 0  750000 1300000 0  800000 1300000 0  850000 1300000 0  900000 1300000 0  950000 1300000 0  1000000 1300000 0  0 1350000 0  50000 1350000 0  100000 1350000 0  150000 1350000 0  200000 1350000 0  250000 1350000 0  300000 1350000 0  350000 1350000 0  400000 1350000 0  450000 1350000 0  500000 1350000 0  550000 1350000 0  600000 1350000 0  650000 1350000 0  700000 135
[...]
<PointData  Scalars="f_4491"> 
<DataArray  type="Float64"  Name="f_4491"  format="ascii">-8.0395171680399091e+00  -8.0389569621865995e+00  -8.0362424567867947e+00  -8.0313643372069663e+00  -8.0244461136427798e+00  -8.0156697634730296e+00  -8.0052671785405369e+00  -7.9935134122137308e+00  -7.9807191677538905e+00  -7.9672223835257476e+00  -7.9533791212787381e+00  -7.9395540034401542e+00  -7.9261104497989194e+00  -7.9134009675887640e+00  -7.9017577580342309e+00  -7.8914839354993376e+00  -7.8828457818639599e+00  -7.8760668542265488e+00  -7.8713252147386168e+00  -7.8687444323619751e+00  -7.8681813613135461e+00  -8.0400565752512847e+00  -8.0395089064791492e+00  -8.0367566704311368e+00  -8.0318461066557152e+00  -8.0248911108490120e+00  -8.0160704474014803e+00  -8.0056152936635705e+00  -7.9938012153403957e+00  -7.9809400588157242e+00  -7.9673712623513797e+00  -7.9534526008713016e+00  -7.9395505283527594e+00  -7.9260303364997382e+00  -7.9132463676497924e+00  -7.9015325272492749e+00  -7.8911933416857645e+00  -7.8824957741434440e+00  -7.8756617624308038e+00  -7.8708600945909710e+00  -7.8681900966055149e+00  -7.8676260671194278e+00  -8.0426124618217667e+00  -8.0421003196185978e+00  -8.0392840593466293e+00  -8.0342254878359167e+00  -8.0270606251646814e+00  -8.0179772470448221e+00  -8.0072134906975254e+00  -7.9950523515450200e+00  -7.9818141061777217e+00  -7.9678475182318929e+00  -7.9535203095301528e+00  -7.9392091993484879e+00  -7.9252897607165469e+00  -7.9121263363403722e+00  -7.9000622630001178e+00  -7.8894106671654534e+00  -7.8804461164728128e+00  -7.8733974130989557e+00  -7.8684415476762055e+00  -7.8656963461006457e+00  -7.8651861452865219e+00  -8.0471558647689623e+00  -8.0466476300305416e+00  -8.0437238194392524e+00  -8.0384239441261354e+00  -8.0308979332715911e+00  -8.0213506059765027e+00  -8.0100357650502865e+00  -7.9972521723050995e+00  -7.9833367532518658e+00  -7.9686559235538947e+00  -7.9535958384393517e+00  -7.9385520594938992e+00  -7.9239189858215813e+00  -7.9100793436232619e+00  -7.8973940266926377e+00  -7.8861926172281755e+00  -7.8767649918913856e+00  -7.8693544623151004e+00  -7.8641522724469581e+00  -7.8612878952423086e+00  -7.8607750293763212e+00  -8.0536208115005881e+00  -8.0530967100244641e+00  -8.0500044738880199e+00  -8.0443642396196715e+00  -8.0363321708810584e+00  -8.0261306677466333e+00  -8.0140347838879453e+00  -8.0003663211397615e+00  -7.9854867571507437e+00  -7.9697883737059074e+00  -7.9536841482688772e+00  -7.9375969416911474e+00  -7.9219483902439194e+00  -7.9071478457481730e+00  -7.8935816984161393e+00  -7.8816034484264916e+00  -7.8715249280917963e+00  -7.8636089190585530e+00  -7.8580620554539440e+00  -7.8550196255720479e+00  -7.8544769536345305e+00  -8.0619713740277312e+00  -8.0614164207188814e+00  -8.0580926197371028e+00  -8.0520072674753997e+00  -8.0433228971393387e+00  -8.0322802218353520e+00  -8.0191793734839507e+00  -8.0043712062285195e+00  -7.9882489385924105e+00  -7.9712385169959390e+00  -7.9537878462413154e+00  -7.9363553043466748e+00  -7.9193979376553729e+00  -7.9033596911086024e+00  -7.8886600172020351e+00  -7.8756832160881016e+00  -7.8647688232118718e+00  -7.8562030123121804e+00  -7.8502092223133113e+00  -7.8469283221581030e+00  -7.8463407550394475e+00  -8.0721994475914318e+00  -8.0716007550285038e+00  -8.0679826997245279e+00  -8.0613447220331924e+00  -8.0518589155420219e+00  -8.0397870061910837e+00  -8.0254581612777578e+00  -8.0092578080731496e+00  -7.9916175859060745e+00  -7.9730045013498962e+00  -7.9539091700980693e+00  -7.9348334257927302e+00  -7.9162776305008213e+00  -7.8987280104399140e+00  -7.8826443330452749e+00  -7.8684482340149016e+00  -7.8565124210421740e+00  -7.8471505412553348e+00  -7.8406055897619300e+00  -7.8370264998151384e+00  -7.8363825022666029e+00  -8.0843190752817762e+00  -8.0836646067343274e+00  -8.0796899616737416e+00  -8.0723899728042792e+00  -8.0619504111730400e+00  -8.0486580867716047e+00  -8.0328758831406155e+00  -8.0150294481207336e+00  -7.9955953686274430e+00  -7.9750888606611667e+00  -7.9540507671804264e+00  -7.9330340518734559e+00  -7.9125900492420032e+00  -7.8932547337749579e+00  -7.8755352696596228e+00  -7.8598970953789467e+00  -7.8467517097291513e+00  -7.8364448696567388e+00  -7.8292429257499734e+00  -7.8253062706562533e+00  -7.8245953353440649e+00  -8.0983601300245525e+00  -8.0976380844179197e+00  -8.0932441287439278e+00  -8.0851706461479562e+00  -8.0736214302866465e+00  -8.0589132649759936e+00  -8.0414481565509792e+00  -8.0216980064170560e+00  -8.0001909664417870e+00  -7.9774975127231516e+00  -7.9542160300951679e+00  -7.9309580454280830e+00  -7.9083332944007516e+00  -7.8869348016230276e+00  -7.8673241584390130e+00  -7.8500171926539375e+00  -7.8354701626791119e+00  -7.8240661715679263e+00  -7.8160994220903186e+00  -7.8117454306439473e+00  -7.8109573077642560e+00  -8.1143615038884747e+00  -8.1135599693242302e+00  -8.1086828619903155e+00  -8.0997217453961667e+00  -8.0869029129385783e+00  -8.0705785946905557e+00  -8.0511959681552216e+00  -8.0292796764765129e+00  -8.0054162500282970e+00  -7.9802384434182985e+00  -7.9544093081195690e+00  -7.9286061035414290e+00  -7.9035041433476145e+00  -7.8797606451511797e+00  -7.8579986612146593e+00  -7.8387912090152891e+00  -7.8226457086361609e+00  -7.8099884330845128e+00  -7.8011464808952535e+00  -7.7963143246703126e+00  -7.7954387316090781e+00  -8.1323635427187018e+00  -8.1314702720656893e+00  -8.1260444718636187e+00  -8.1160783809445753e+00  -8.1018255452797181e+00  -8.0836796907352291e+00  -8.0621398442841627e+00  -8.0377903509429469e+00  -8.0112831410687821e+00  -7.9833202037701447e+00  -7.9546361118993065e+00  -7.9259806516309750e+00  -7.8981015297573771e+00  -7.8717270655244977e+00  -7.8475487886000153e+00  -7.8262039516455166e+00  -7.8082580270724327e+00  -7.7941869110830471e+00  -7.7843562198979077e+00  -7.7789835014897255e+00  -7.7780099868361638e+00  -8.1523993779767672e+00  -8.1514016271044998e+00  -8.1453594695030755e+00  -8.1342674838060489e+00  -8.1184117496811066e+00  -8.0982342714273141e+00  -8.0742933204715044e+00  -8.0472404014746921e+00  -8.0178000272591117e+00  -7.9867501868224249e+00  -7.9549033606424766e+00  -7.9230880437760005e+00  -7.8921305580265066e+00  -7.8628368162974827e+00  -7.8359737236642371e+00  -7.8122500496276723e+00  -7.7922967699522685e+00  -7.7766466161963228e+00  -7.7657100973529811e+00  -7.7597324728520123e+00  -7.7586503458445719e+00  -8.1744847587092480e+00  -8.1733691579995114e+00  -8.1666405480348718e+00  -8.1542979766034627e+00  -8.1366662143699333e+00  -8.1142433560448808e+00  -8.0876552213516799e+00  -8.0576284866410042e+00  -8.0249674972438854e+00  -7.9905325811579040e+00  -7.9552196991308159e+00  -7.9199412241493876e+00  -7.8856073297124167e+00  -7.8531072791450498e+00  -7.8232899385499923e+00  -7.7969430711345327e+00  -7.7747712785532404e+00  -7.7573723338772851e+00  -7.7452090796036543e+00  -7.7385599710191855e+00  -7.7373582615634193e+00  -8.1986059362165928e+00  -8.1973583745354279e+00  -8.1898705281103261e+00  -8.1761488635951700e+00  -8.1565643617634915e+00  -8.1316805085876869e+00  -8.1022001993440682e+00  -8.0689339445460391e+00  -8.0327730931169068e+00  -7.9946658571190392e+00  -7.9555959054739862e+00  -7.9165630327249898e+00  -7.8785649156989743e+00  -7.8425786949660150e+00  -7.8095411598432474e+00  -7.7803266620879086e+00  -7.7557223886391427e+00  -7.7364007215344976e+00  -7.7228858241209100e+00  -7.7154961513421911e+00  -7.7141635761502378e+00  -8.2247050969522082e+00  -8.2233105955056480e+00  -8.2149877232344313e+00  -8.1997546265982617e+00  -8.1780380827685608e+00  -8.1504784436770716e+00  -8.1178669014699967e+00  -8.0811072531659391e+00  -8.0411847211413505e+00  -7.9991396103349697e+00  -7.9560454093039965e+00  -7.9129903683649445e+00  -7.8710608660458412e+00  -7.8313244917839659e+00  -7.7948108279926975e+00  -7.7624883966447733e+00  -7.7352369982744342e+00  -7.7138150956183429e+00  -7.6988194233396507e+00  -7.6906172462238285e+00  -7.6891421535307920e+00  -8.2526627714644452e+00  -8.2511053152516194e+00  -8.2418680804908480e+00  -8.2249871941915256e+00  -8.2009579375827553e+00  -8.1705121892796502e+00  -8.1345430290487251e+00  -8.0940579606048200e+00  -8.0501423073643856e+00  -8.0039305600421464e+00  -7.9565849396719130e+00  -7.9092794500911197e+00  -7.8631867078109003e+00  -7.8194643404325088e+00  -7.7792378122100549e+00  -7.7435771615801867e+00  -7.7134662051387490e+00  -7.6897636422125846e+00  -7.6731533523879758e+00  -7.6640632518780238e+00  -7.6624335061587692e+00  -8.2822765615101392e+00  -8.2805388366754773e+00  -8.2703033193740989e+00  -8.2516335828683793e+00  -8.2251108440041989e+00  -8.1915778410421165e+00  -8.1520464352844293e+00  -8.1076394120996902e+00  -8.0595472448704832e+00  -8.0089974821350935e+00  -7.9572353188669105e+00  -7.9055124313908758e+00  -7.8550799241292593e+00  -7.8071806549100122e+00  -7.7630362771017687e+00  -7.7238250708083482e+00  -7.6906480086102906e+00  -7.6644819565435771e+00  -7.6461173985928728e+00  -7.6360593297685124e+00  -7.6342620784902895e+00  -8.3132354087092732e+00  -8.3112983595911611e+00  -8.2999741005996128e+00  -8.2793680688752733e+00  -8.2501720341708040e+00  -8.2133657567181846e+00  -8.1701013007247880e+00  -8.1216295683003370e+00  -8.0692491864092091e+00  -8.0142748659777965e+00  -7.9580224082119457e+00  -7.9018055978907196e+00  -7.8469388981979975e+00  -7.7947392992935374e+00  -7.7465207261318305e+00  -7.7035751182967989e+00  -7.6671358306629278e+00  -7.6383210662360588e+00  -7.6180545482432782e+00  -7.6069417506117656e+00  -7.6049629841930129e+00  -8.3450884452962217e+00  -8.3429305041453876e+00  -8.3304169588260830e+00  -8.3077173938639515e+00  -8.2756697456185666e+00  -8.2354268550889884e+00  -8.1883084006802207e+00  -8.1357072984921910e+00  -8.0790298567769767e+00  -8.0196651545358755e+00  -7.9589781873332752e+00  -7.8983192681685841e+00  -7.8390411694313888e+00  -7.7825151892251245e+00  -7.7301373136944376e+00  -7.6833160115509838e+00  -7.6434344646032937e+00  -7.6117824705480448e+00  -7.5894541176659613e+00  -7.5771894407896427e+00  -7.5750132083474737e+00  -8.3772071585959154e+00  -8.3748028904972287e+00  -8.3609832311523693e+00  -8.3360169548170564e+00  -8.3009407071416899e+00  -8.2571305711240885e+00  -8.2061086634889797e+00  -8.1494238919400690e+00  -8.0885839149424861e+00  -8.0250296214172288e+00  -7.9601418976267517e+00  -7.8952692374241682e+00  -7.8317649504656046e+00  -7.7710231323836156e+00  -7.7145024030440679e+00  -7.6637258373260213e+00  -7.6202455499830668e+00  -7.5855623271026129e+00  -7.5609929414169725e+00  -7.5474625888561908e+00  -7.5450696541156903e+00  -8.4087390433912041e+00  -8.4060567374309301e+00  -8.3907873135505842e+00  -8.3633550352892403e+00  -8.3250739864024847e+00  -8.2776131400612449e+00  -8.2227398727277841e+00  -8.1621704272844582e+00  -8.0974976906310943e+00  -8.0301783569852052e+00  -7.9615610856644476e+00  -7.8929390187017923e+00  -7.8256129613711671e+00  -7.7609533618253614e+00  -7.7004488089966205e+00  -7.6457262750423345e+00  -7.5985253405618440e+00  -7.5606079107140971e+00  -7.5335873682045627e+00  -7.5186504918037365e+00  -7.5160160820888287e+00  -8.4385498694596741e+00  -8.4355471714288832e+00  -8.4186398894924448e+00  -8.3885006610333583e+00  -8.3468402670936630e+00  -8.2957156073521912e+00  -8.2371879812077129e+00  -8.1731435229390090e+00  -8.1052281673802700e+00  -8.0348606260938169e+00  -7.9632922195266325e+00  -7.8916910488048924e+00  -7.8212358855996325e+00  -7.7532092935963064e+00  -7.6890787208205751e+00  -7.6305486912125646e+00  -7.5795583977951875e+00  -7.5381911650491134e+00  -7.5084605632082049e+00  -7.4919321856488574e+00  -7.4890222526050119e+00  -8.4651496770544181e+00  -8.4617653753162507e+00  -8.4429585002382161e+00  -8.4098082591327401e+00  -8.3646034739341406e+00  -8.3099131137074842e+00  -8.2481379731417341e+00  -8.1813155523823919e+00  -8.1110873001146491e+00  -8.0387581999417890e+00  -7.9654002993455997e+00  -7.8919731987716100e+00  -7.8194496293806166e+00  -7.7489412879565176e+00  -7.6818190182205326e+00  -7.6198118947051912e+00  -7.5650517656123650e+00  -7.5200071022313342e+00  -7.4872329980787038e+00  -7.4688560778281268e+00  -7.4656210409407739e+00  -8.4865936646595141e+00  -8.4827312751733359e+00  -8.4616413247248055e+00  -8.4250886557225595e+00  -8.3762130441088498e+00  -8.3182423734864912e+00  -8.2539360552861751e+00  -8.1854215590036858e+00  -8.1142410394212270e+00  -8.0414862817779689e+00  -7.9679565493044464e+00  -7.8943142013875773e+00  -7.8212355206172095e+00  -7.7495634288333424e+00  -7.6804678097045338e+00  -7.6156068741601457e+00  -7.5572544337003498e+00  -7.5083098168757774e+00  -7.4720507980861957e+00  -7.4514502492281416e+00  -7.4478142673059695e+00  -8.5003412469641511e+00  -8.4958331746149192e+00  -8.4718770414589830e+00  -8.4314316672304219e+00  -8.3788815396284821e+00  -8.3182465419116927e+00  -8.2525874690399750e+00  -8.1839846497149455e+00  -8.1137382714180983e+00  -8.0426091953088505e+00  -7.9710329475295758e+00  -7.8992982162861463e+00  -7.8277054615191854e+00  -7.7567291816681401e+00  -7.6872074027577302e+00  -7.6205723548558417e+00  -7.5591037538105130e+00  -7.5061069138741203e+00  -7.4657807667676899e+00  -7.4423868516605234e+00  -7.4382285591465340e+00  -8.5030403466629689e+00  -8.4975605904841505e+00  -8.4698385025970264e+00  -8.4249657369038200e+00  -8.3690731085536907e+00  -8.3069827454053193e+00  -8.2418349065497214e+00  -8.1754141358603913e+00  -8.1085908975336984e+00  -8.0416801945881371e+00  -7.9746922383222838e+00  -7.9075059516577015e+00  -7.8400062577414031e+00  -7.7722258472806809e+00  -7.7045338662343728e+00  -7.6379170105713028e+00  -7.5743846028942965e+00  -7.5174432959906747e+00  -7.4723315375886177e+00  -7.4452515869520370e+00  -7.4403668105522085e+00  -8.4901674445158886e+00  -8.4829963915274025e+00  -8.4501662199848795e+00  -8.4005669445848064e+00  -8.3424861978900964e+00  -8.2811876053250657e+00  -8.2193910773956933e+00  -8.1582215337705257e+00  -8.0979279940869677e+00  -8.0383141551756534e+00  -7.9789724123002452e+00  -7.9194105538936341e+00  -7.8591339990929132e+00  -7.7977313073052414e+00  -7.7350134929242831e+00  -7.6712806678449148e+00  -7.6078283292921931e+00  -7.5478022007190360e+00  -7.4972281251036899e+00  -7.4650417292770719e+00  -7.4590630088711274e+00  -8.4553402828014761e+00  -8.4447139255043897e+00  -8.4051195532921543e+00  -8.3516598328225626e+00  -8.2943533526637143e+00  -8.2377752220226608e+00  -8.1834225507897767e+00  -8.1313942976455653e+00  -8.0812344074547457e+00  -8.0322934867438800e+00  -7.9838648324822286e+00  -7.9352251289859197e+00  -7.8856410472632010e+00  -7.8343760439430499e+00  -7.7807334614684818e+00  -7.7242059477783203e+00  -7.6648931882689695e+00  -7.6045424174402836e+00  -7.5486989439507752e+00  -7.5092384522036735e+00  -7.5014341406015257e+00  -8.3885953106851261e+00  -8.3701824397536750e+00  -8.3234967298537068e+00  -8.2706957784503476e+00  -8.2205477737690273e+00  -8.1749114766879760e+00  -8.1333520876055143e+00  -8.0949129503441348e+00  -8.0586391770774188e+00  -8.0236817456663747e+00  -7.9892801465046306e+00  -7.9547151286520155e+00  -7.9192550768557801e+00  -7.8820998611701407e+00  -7.8423251466459032e+00  -7.7988490956878405e+00  -7.7505195733981171e+00  -7.6966889177472435e+00  -7.6395201249732736e+00  -7.5906208361576004e+00  -7.5792639128519665e+00  -8.2697855465226091e+00  -8.2359378166875370e+00  -8.1909753981322222e+00  -8.1520078482001477e+00  -8.1202459302810421e+00  -8.0937689833770143e+00  -8.0708357474584869e+00  -8.0502287139411255e+00  -8.0311057879959069e+00  -8.0128482464449853e+00  -7.9949573476760074e+00  -7.9769836795148894e+00  -7.9584704458530755e+00  -7.9388947525114686e+00  -7.9175893480860697e+00  -7.8936188082244980e+00  -7.8655712802612463e+00  -7.8312584480649123e+00  -7.7877581826966207e+00  -7.7357442508769410e+00  -7.7169025570523795e+00  -8.0000000000000000e+00  -8.0000000000000000e+00  -8.0000000000000000e+00  -8.0000000000000000e+00  -8.0000000000000000e+00  -8.0000000000000000e+00  -8.0000000000000000e+00  -8.0000000000000000e+00  -8.0000000000000000e+00  -8.0000000000000000e+00  -8.0000000000000000e+00  -8.0000000000000000e+00  -8.0000000000000000e+00  -8.0000000000000000e+00  -8.0000000000000000e+00  -8.0000000000000000e+00  -8.0000000000000000e+00  -8.0000000000000000e+00  -8.0000000000000000e+00  -8.0000000000000000e+00  -8.0000000000000000e+00  </DataArray> 
</PointData> 
</Piece>
</UnstructuredGrid>
</VTKFile>