<?xml version="1.0"?>
<VTKFile type="UnstructuredGrid"  version="0.1"  >
<UnstructuredGrid>
<Piece  NumberOfPoints="651" NumberOfCells="1200">
<Points>
<DataArray  type="Float64"  NumberOfComponents="3"  format="ascii">0 0 0  50000 0 0  100000 0 0  150000 0 0  200000 0 0  250000 0 0  300000 0 0  350000 0 0  400000 0 0  450000 0 0  500000 0 0  550000 0 0  600000 0 0  650000 0 0  700000 0 0  750000 0 0  800000 0 0  850000 0 0  900000 0 0  950000 0 0  1000000 0 0  0 50000 0  50000 50000 0  100000 50000 0  150000 50000 0  200000 50000 0  250000 50000 0  300000 50000 0  350000 50000 0  400000 50000 0  450000 50000 0  500000 50000 0  550000 50000 0  600000 50000 0  650000 50000 0  700000 50000 0  750000 50000 0  800000 50000 0  850000 50000 0  900000 50000 0  950000 50000 0  1000000 50000 0  0 100000 0  50000 100000 0  100000 100000 0  150000 100000 0  200000 100000 0  250000 100000 0  300000 100000 0  350000 100000 0  400000 100000 0  450000 100000 0  500000 100000 0  550000 100000 0  600000 100000 0  650000 100000 0  700000 100000 0  750000 100000 0  800000 100000 0  850000 100000 0  900000 100000 0  950000 100000 0  1000000 100000 0  0 150000 0  50000 150000 0  100000 150000 0  150000 150000 0  200000 150000 0  250000 150000 0  300000 150000 0  350000 150000 0  400000 150000 0  450000 150000 0  500000 150000 0  550000 150000 0  600000 150000 0  650000 150000 0  700000 150000 0  750000 150000 0  800000 150000 0  850000 150000 0  900000 150000 0  950000 150000 0  1000000 150000 0  0 200000 0  50000 200000 0  100000 200000 0  150000 200000 0  200000 200000 0  250000 200000 0  300000 200000 0  350000 200000 0  400000 200000 0  450000 200000 0  500000 200000 0  550000 200000 0  600000 200000 0  650000 200000 0  700000 200000 0  750000 200000 0  800000 200000 0  850000 200000 0  900000 200000 0  950000 200000 0  1000000 200000 0  0 250000 0  50000 250000 0  100000 250000 0  150000 250000 0  200000 250000 0  250000 250000 0  300000 250000 0  350000 250000 0  400000 250000 0  450000 250000 0  500000 250000 0  550000 250000 0  600000 250000 0  650000 250000 0  700000 250000 0  750000 250000 0  800000 250000 0  850000 250000 0  900000 250000 0  950000 250000 0  1000000 250000 0  0 300000 0  50000 300000 0  100000 300000 0  150000 300000 0  200000 300000 0  250000 300000 0  300000 300000 0  350000 300000 0  400000 300000 0  450000 300000 0  500000 300000 0  550000 300000 0  600000 300000 0  650000 300000 0  700000 300000 0  750000 300000 0  800000 300000 0  850000 300000 0  900000 300000 0  950000 300000 0  1000000 300000 0  0 350000 0  50000 350000 0  100000 350000 0  150000 350000 0  200000 350000 0  250000 350000 0  300000 350000 0  350000 350000 0  400000 350000 0  450000 350000 0  500000 350000 0  550000 350000 0  600000 350000 0  650000 350000 0  700000 350000 0  750000 350000 0  800000 350000 0  850000 350000 0  900000 350000 0  950000 350000 0  1000000 350000 0  0 400000 0  50000 400000 0  100000 400000 0  150000 400000 0  200000 400000 0  250000 400000 0  300000 400000 0  350000 400000 0  400000 400000 0  450000 400000 0  500000 400000 0  550000 400000 0  600000 400000 0  650000 400000 0  700000 400000 0  750000 400000 0  800000 400000 0  850000 400000 0  900000 400000 0  950000 400000 0  1000000 400000 0  0 450000 0  50000 450000 0  100000 450000 0  150000 450000 0  200000 450000 0  250000 450000 0  300000 450000 0  350000 450000 0  400000 450000 0  450000 450000 0  500000 450000 0  550000 450000 0  600000 450000 0  650000 450000 0  700000 450000 0  750000 450000 0  800000 450000 0  850000 450000 0  900000 450000 0  950000 450000 0  1000000 450000 0  0 500000 0  50000 500000 0  100000 500000 0  150000 500000 0  200000 500000 0  250000 500000 0  300000 500000 0  350000 500000 0  400000 500000 0  450000 500000 0  500000 500000 0  550000 500000 0  600000 500000 0  650000 500000 0  700000 500000 0  750000 500000 0  800000 500000 0  850000 500000 0  900000 500000 0  950000 500000 0  1000000 500000 0  0 550000 0  50000 550000 0  100000 550000 0  150000 550000 0  200000 550000 0  250000 550000 0  300000 550000 0  350000 550000 0  400000 550000 0  450000 550000 0  500000 550000 0  550000 550000 0  600000 550000 0  650000 550000 0  700000 550000 0  750000 550000 0  800000 550000 0  850000 550000 0  900000 550000 0  950000 550000 0  1000000 550000 0  0 600000 0  50000 600000 0  100000 600000 0  150000 600000 0  200000 600000 0  250000 600000 0  300000 600000 0  350000 600000 0  400000 600000 0  450000 600000 0  500000 600000 0  550000 600000 0  600000 600000 0  650000 600000 0  700000 600000 0  750000 600000 0  800000 600000 0  850000 600000 0  900000 600000 0  950000 600000 0  1000000 600000 0  0 650000 0  50000 650000 0  100000 650000 0  150000 650000 0  200000 650000 0  250000 650000 0  300000 650000 0  350000 650000 0  400000 650000 0  450000 650000 0  500000 650000 0  550000 650000 0  600000 650000 0  650000 650000 0  700000 650000 0  750000 650000 0  800000 650000 0  850000 650000 0  900000 650000 0  950000 650000 0  1000000 650000 0  0 700000 0  50000 700000 0  100000 700000 0  150000 700000 0  200000 700000 0  250000 700000 0  300000 700000 0  350000 700000 0  400000 700000 0  450000 700000 0  500000 700000 0  550000 700000 0  600000 700000 0  650000 700000 0  700000 700000 0  750000 700000 0  800000 700000 0  850000 700000 0  900000 700000 0  950000 700000 0  1000000 700000 0  0 750000 0  50000 750000 0  100000 750000 0  150000 750000 0  200000 750000 0  250000 750000 0  300000 750000 0  350000 750000 0  400000 750000 0  450000 750000 0  500000 750000 0  550000 750000 0  600000 750000 0  650000 750000 0  700000 750000 0  750000 750000 0  800000 750000 0  850000 750000 0  900000 750000 0  950000 750000 0  1000000 750000 0  0 800000 0  50000 800000 0  100000 800000 0  150000 800000 0  200000 800000 0  250000 800000 0  300000 800000 0  350000 800000 0  400000 800000 0  450000 800000 0  500000 800000 0  550000 800000 0  600000 800000 0  650000 800000 0  700000 800000 0  750000 800000 0  800000 800000 0  850000 800000 0  900000 800000 0  950000 800000 0  1000000 800000 0  0 850000 0  50000 850000 0  100000 850000 0  150000 850000 0  200000 850000 0  250000 850000 0  300000 850000 0  350000 850000 0  400000 850000 0  450000 850000 0  500000 850000 0  550000 850000 0  600000 850000 0  650000 850000 0  700000 850000 0  750000 850000 0  800000 850000 0  850000 850000 0  900000 850000 0  950000 850000 0  1000000 850000 0  0 900000 0  50000 900000 0  100000 900000 0  150000 900000 0  200000 900000 0  250000 900000 0  300000 900000 0  350000 900000 0  400000 900000 0  450000 900000 0  500000 900000 0  550000 900000 0  600000 900000 0  650000 900000 0  700000 900000 0  750000 900000 0  800000 900000 0  850000 900000 0  900000 900000 0  950000 900000 0  1000000 900000 0  0 950000 0  50000 950000 0  100000 950000 0  150000 950000 0  200000 950000 0  250000 950000 0  300000 950000 0  350000 950000 0  400000 950000 0  450000 950000 0  500000 950000 0  550000 950000 0  600000 950000 0  650000 950000 0  700000 950000 0  750000 950000 0  800000 950000 0  850000 950000 0  900000 950000 0  950000 950000 0  1000000 950000 0  0 1000000 0  50000 1000000 0  100000 1000000 0  150000 1000000 0  200000 1000000 0  250000 1000000 0  300000 1000000 0  350000 1000000 0  400000 1000000 0  450000 1000000 0  500000 1000000 0  550000 1000000 0  600000 1000000 0  650000 1000000 0  700000 1000000 0  750000 1000000 0  800000 1000000 0  850000 1000000 0  900000 1000000 0  950000 1000000 0  1000000 1000000 0  0 1050000 0  50000 1050000 0  100000 1050000 0  150000 1050000 0  200000 1050000 0  250000 1050000 0  300000 1050000 0  350000 1050000 0  400000 1050000 0  450000 1050000 0  500000 1050000 0  550000 1050000 0  600000 1050000 0  650000 1050000 0  700000 1050000 0  750000 1050000 0  800000 1050000 0  850000 1050000 0  900000 1050000 0  950000 1050000 0  1000000 1050000 0  0 1100000 0  50000 1100000 0  100000 1100000 0  150000 1100000 0  200000 1100000 0  250000 1100000 0  300000 1100000 0  350000 1100000 0  400000 1100000 0  450000 1100000 0  500000 1100000 0  550000 1100000 0  600000 1100000 0  650000 1100000 0  700000 1100000 0  750000 1100000 0  800000 1100000 0  850000 1100000 0  900000 1100000 0  950000 1100000 0  1000000 1100000 0  0 1150000 0  50000 1150000 0  100000 1150000 0  150000 1150000 0  200000 1150000 0  250000 1150000 0  300000 1150000 0  350000 1150000 0  400000 1150000 0  450000 1150000 0  500000 1150000 0  550000 1150000 0  600000 1150000 0  650000 1150000 0  700000 1150000 0  750000 1150000 0  800000 1150000 0  850000 1150000 0  900000 1150000 0  950000 1150000 0  1000000 1150000 0  0 1200000 0  50000 1200000 0  100000 1200000 0  150000 1200000 0  200000 1200000 0  250000 1200000 0  300000 1200000 0  350000 1200000 0  400000 1200000 0  450000 1200000 0  500000 1200000 0  550000 1200000 0  600000 1200000 0  650000 1200000 0  700000 1200000 0  750000 1200000 0  800000 1200000 0  850000 1200000 0  900000 1200000 0  950000 1200000 0  1000000 1200000 0  0 1250000 0  50000 1250000 0  100000 1250000 0  150000 1250000 0  200000 1250000 0  250000 1250000 0  300000 1250000 0  350000 1250000 0  400000 1250000 0  450000 1250000 0  500000 1250000 0  550000 1250000 0  600000 1250000 0  650000 1250000 0  700000 1250000 0  750000 1250000 0  800000 1250000 0  850000 1250000 0  900000 1250000 0  950000 1250000 0  1000000 1250000 0  0 1300000 0  50000 1300000 0  100000 1300000 0  150000 1300000 0  200000 1300000 0  250000 1300000 0  300000 1300000 0  350000 1300000 0  400000 1300000 0  450000 1300000 0  500000 1300000 0  550000 1300000 0  600000 1300000 0  650000 1300000 0  700000 1300000 0  750000 1300000 0  800000 1300000 0  850000 1300000 0  900000 1300000 0  950000 1300000 0  1000000 1300000 0  0 1350000 0  50000 1350000 0  100000 1350000 0  150000 1350000 0  200000 1350000 0  250000 1350000 0  300000 1350000 0  350000 1350000 0  400000 1350000 0  450000 1350000 0  500000 1350000 0  550000 1350000 0  600000 1350000 0  650000 1350000 0  700000 135
[...]
<PointData  Scalars="f_4491"> 
<DataArray  type="Float64"  Name="f_4491"  format="ascii">-8.0118696158243861e+00  -8.0116824001511713e+00  -8.0108356318727676e+00  -8.0093256922375389e+00  -8.0071876585047921e+00  -8.0044754390818245e+00  -8.0012592072229438e+00  -7.9976232410711372e+00  -7.9936634919515779e+00  -7.9894848493034170e+00  -7.9851981679021060e+00  -7.9809171382047053e+00  -7.9767550846118374e+00  -7.9728217785782665e+00  -7.9692203558941506e+00  -7.9660444352251467e+00  -7.9633755659589127e+00  -7.9612812289862154e+00  -7.9598136956375374e+00  -7.9590071218370486e+00  -7.9588219804155482e+00  -8.0120491307439803e+00  -8.0118656935820098e+00  -8.0110085541611191e+00  -8.0094886179148066e+00  -8.0073385252278442e+00  -8.0046114208217904e+00  -8.0013773863993158e+00  -7.9977209431406671e+00  -7.9937384646585432e+00  -7.9895353690684470e+00  -7.9852231056215608e+00  -7.9809159961649803e+00  -7.9767280084403982e+00  -7.9727695441517152e+00  -7.9691443263274939e+00  -7.9659464689616772e+00  -7.9632578000421246e+00  -7.9611454389476766e+00  -7.9596592613268999e+00  -7.9588272324087050e+00  -7.9586407623524718e+00  -8.0128458207699182e+00  -8.0126709188428418e+00  -8.0117931112757095e+00  -8.0102278634875255e+00  -8.0080135476442234e+00  -8.0052058112369000e+00  -8.0018768187855382e+00  -7.9981133838332310e+00  -7.9940144977827083e+00  -7.9896884775497741e+00  -7.9852498654067743e+00  -7.9808161756936515e+00  -7.9765045730002866e+00  -7.9724285660498309e+00  -7.9686948028078302e+00  -7.9654000543166674e+00  -7.9626284778276180e+00  -7.9604492479641715e+00  -7.9589145786120215e+00  -7.9580575579643869e+00  -7.9578834030297347e+00  -8.0142540743720811e+00  -8.0140784913830512e+00  -8.0131652219272826e+00  -8.0115247499326152e+00  -8.0091993476331478e+00  -8.0062493652587161e+00  -8.0027514818200007e+00  -7.9987972054498213e+00  -7.9944905738733807e+00  -7.9899453014812485e+00  -7.9852815908772046e+00  -7.9806227527982223e+00  -7.9760917439548935e+00  -7.9718077203102045e+00  -7.9678827030444923e+00  -7.9644184632794914e+00  -7.9615037509534154e+00  -7.9592120094726599e+00  -7.9575995801287913e+00  -7.9567030911825167e+00  -7.9565258847256688e+00  -8.0162594084281302e+00  -8.0160771213741508e+00  -8.0151094092762865e+00  -8.0133623771765432e+00  -8.0108804667258351e+00  -8.0077291212953128e+00  -8.0039912166865488e+00  -7.9997651134499819e+00  -7.9951622618398304e+00  -7.9903042586420137e+00  -7.9853195235541952e+00  -7.9803397517742685e+00  -7.9754962690170874e+00  -7.9709163998715074e+00  -7.9667199586307449e+00  -7.9630159804234797e+00  -7.9598998223440178e+00  -7.9574507343476295e+00  -7.9557296851245702e+00  -7.9547754335381322e+00  -7.9545872869056904e+00  -8.0188561713281938e+00  -8.0186624154225257e+00  -8.0176207203636309e+00  -8.0157343278211801e+00  -8.0130499800898320e+00  -8.0096386454508490e+00  -8.0055906704918094e+00  -8.0010131395014614e+00  -7.9960271278478263e+00  -7.9907645178938207e+00  -7.9853644525935481e+00  -7.9799695594619910e+00  -7.9747220702182338e+00  -7.9697599510997899e+00  -7.9652131566860369e+00  -7.9612001241026960e+00  -7.9578246200074663e+00  -7.9551729770019275e+00  -7.9533113405335918e+00  -7.9522805872185121e+00  -7.9520767032292632e+00  -8.0220468769949900e+00  -8.0218374040715865e+00  -8.0207021887827974e+00  -8.0186427595745986e+00  -8.0157090326263845e+00  -8.0119784014707029e+00  -8.0075499987770797e+00  -8.0025414046524368e+00  -7.9970854304927741e+00  -7.9913265708743193e+00  -7.9854171403134133e+00  -7.9795131980260496e+00  -7.9737703729276976e+00  -7.9683396971623983e+00  -7.9633635551912931e+00  -7.9589718561132887e+00  -7.9552785221446065e+00  -7.9523782888646410e+00  -7.9503433595702173e+00  -7.9492174007047280e+00  -7.9489938693703657e+00  -8.0258405973718006e+00  -8.0256113395788002e+00  -8.0243629697546570e+00  -8.0220960517328184e+00  -8.0188647886063347e+00  -8.0147542412025317e+00  -8.0098738317831071e+00  -8.0043534585505558e+00  -7.9983397645808454e+00  -7.9919921446318245e+00  -7.9854784876158247e+00  -7.9789707378306520e+00  -7.9726403699156130e+00  -7.9666538707805739e+00  -7.9611683218922185e+00  -7.9563271767573447e+00  -7.9522563135419002e+00  -7.9490603428674653e+00  -7.9468186795691729e+00  -7.9455786958993757e+00  -7.9453318305461540e+00  -8.0302511383537087e+00  -8.0299980411323411e+00  -8.0286165526045608e+00  -8.0261067787717284e+00  -8.0225284043388676e+00  -8.0179756216319600e+00  -8.0125698449394527e+00  -8.0064552297274485e+00  -7.9997943907003943e+00  -7.9927639062007163e+00  -7.9855496094543259e+00  -7.9783417385885791e+00  -7.9713300209831495e+00  -7.9646987628138959e+00  -7.9586220161501977e+00  -7.9532589027426024e+00  -7.9487491672386987e+00  -7.9452089400127619e+00  -7.9427261983429105e+00  -7.9413530295342012e+00  -7.9410791613465221e+00  -8.0352950213167311e+00  -8.0350139468947344e+00  -8.0334788289012415e+00  -8.0306897177882881e+00  -8.0267130425355333e+00  -8.0216537691908751e+00  -8.0156471965124521e+00  -8.0088538165906211e+00  -8.0014544266803949e+00  -7.9936450803652317e+00  -7.9856318887411026e+00  -7.9776257345847092e+00  -7.9698369501786086e+00  -7.9624699972168003e+00  -7.9557181900176541e+00  -7.9497585196058838e+00  -7.9447466454651741e+00  -7.9408120424712516e+00  -7.9380527726697689e+00  -7.9365267240351329e+00  -7.9362221232510795e+00  -8.0409891859292610e+00  -8.0406758489538745e+00  -8.0389658742552896e+00  -8.0358596532129205e+00  -8.0314317351565965e+00  -8.0257996927784685e+00  -8.0191148012929805e+00  -8.0115561202881178e+00  -8.0033249148093404e+00  -7.9946390003727279e+00  -7.9857270329911447e+00  -7.9768227928413129e+00  -7.9681594749904461e+00  -7.9599639765986145e+00  -7.9524511742929587e+00  -7.9458182158638619e+00  -7.9402388828596999e+00  -7.9358580215341457e+00  -7.9327854931198800e+00  -7.9310861870934870e+00  -7.9307470248421641e+00  -8.0473483043024512e+00  -8.0469982240920608e+00  -8.0450913231357664e+00  -8.0416288062517438e+00  -8.0366949086474815e+00  -8.0304218886884104e+00  -8.0229793254875741e+00  -8.0145672426259296e+00  -8.0054097198533452e+00  -7.9957485749790367e+00  -7.9858371440951466e+00  -7.9759341811254316e+00  -7.9662978308273367e+00  -7.9571795889222798e+00  -7.9488181692405213e+00  -7.9414332480182921e+00  -7.9352191209967673e+00  -7.9303382812475753e+00  -7.9269143554424319e+00  -7.9250206209306562e+00  -7.9246429482070333e+00  -8.0543815796155815e+00  -8.0539900409045355e+00  -8.0518632071552645e+00  -8.0480037313855366e+00  -8.0425073964001559e+00  -8.0355235675979788e+00  -8.0272427569438900e+00  -8.0178885369000987e+00  -8.0077101837668216e+00  -7.9969756376483963e+00  -7.9859648075548426e+00  -7.9749631919478485e+00  -7.9642556746310929e+00  -7.9541202931941637e+00  -7.9448217860405039e+00  -7.9366048013343020e+00  -7.9296867633508619e+00  -7.9242504132070426e+00  -7.9204354614156589e+00  -7.9183252473792738e+00  -7.9179049818290999e+00  -8.0620888847147132e+00  -8.0616509003012293e+00  -8.0592801059104442e+00  -8.0549815098270887e+00  -8.0488647523736141e+00  -8.0410992165477531e+00  -8.0318993807787873e+00  -8.0215151740008412e+00  -8.0102234421747873e+00  -7.9983201318495061e+00  -7.9861132065542444e+00  -7.9739161787370447e+00  -7.9620419707981336e+00  -7.9507967270579654e+00  -7.9404732106918221e+00  -7.9313435325831572e+00  -7.9236511353392052e+00  -7.9176020525308166e+00  -7.9133549015578373e+00  -7.9110051935475845e+00  -7.9105381069370164e+00  -8.0704560764381270e+00  -8.0699663436042179e+00  -8.0673264321795823e+00  -8.0625450414909459e+00  -8.0557486507754152e+00  -8.0471302787768408e+00  -8.0369319607280083e+00  -8.0254330598662609e+00  -8.0129402882207845e+00  -7.9997790760505110e+00  -7.9862862662412883e+00  -7.9728038709235935e+00  -7.9596733828924435e+00  -7.9472300072051931e+00  -7.9357961944442046e+00  -7.9256740138651125e+00  -7.9171361649752470e+00  -7.9104156333838764e+00  -7.9056934978287279e+00  -7.9030802038551862e+00  -7.9025619014198414e+00  -8.0794492983333566e+00  -8.0789021366254428e+00  -8.0759666393703977e+00  -8.0706571958566897e+00  -8.0631211121862449e+00  -8.0535796911918034e+00  -8.0423068891840774e+00  -8.0296149115808273e+00  -8.0158424502761179e+00  -8.0013452425657139e+00  -7.9864888336165896e+00  -7.9716430445340398e+00  -7.9571773150856906e+00  -7.9434559247071874e+00  -7.9308321151654360e+00  -7.9196403422983312e+00  -7.9101862454865497e+00  -7.9027342835093375e+00  -7.8974926178242830e+00  -7.8945903701188591e+00  -7.8940162488331689e+00  -8.0890080556421484e+00  -8.0883973056879555e+00  -8.0851380944458420e+00  -8.0792535255155560e+00  -8.0709172358406267e+00  -8.0603849644785281e+00  -8.0479680270798699e+00  -8.0340152724039875e+00  -8.0188991352777865e+00  -8.0030054779125646e+00  -7.9867268976238348e+00  -7.9704586304930647e+00  -7.9545957628912989e+00  -7.9395302673008077e+00  -7.9256463999596223e+00  -7.9133132389192822e+00  -7.9028736041672110e+00  -7.8946291544999152e+00  -7.8888213170886683e+00  -7.8856031053888227e+00  -7.8849682712454747e+00  -8.0990368069852661e+00  -8.0983556563512913e+00  -8.0947422958125639e+00  -8.0882331664854039e+00  -8.0790360376088088e+00  -8.0674494275790600e+00  -8.0538289175756148e+00  -8.0385642326888984e+00  -8.0220626897232563e+00  -8.0047385944686891e+00  -7.9870078511739511e+00  -7.9692863363665900e+00  -7.9519901317773911e+00  -7.9355355175826476e+00  -7.9203366432312521e+00  -7.9067990305272424e+00  -7.8953075868820646e+00  -7.8862085665371495e+00  -7.8797851315078340e+00  -7.8762216359422235e+00  -7.8755207494043775e+00  -8.1093947568292410e+00  -8.1086354353155450e+00  -8.1046340165751296e+00  -8.0974474316845271e+00  -8.0873288881536478e+00  -8.0746311948358418e+00  -8.0597630449853419e+00  -8.0431596488629449e+00  -8.0252632670090502e+00  -8.0065127853330846e+00  -7.9873407898638904e+00  -7.9681758238137164e+00  -7.9494471411651979e+00  -7.9315891552632660e+00  -7.9150427785210491e+00  -7.9002509856292136e+00  -7.8876463836030082e+00  -7.8776294694653988e+00  -7.8705369439346260e+00  -7.8665953623823652e+00  -7.8658223640279417e+00  -8.1198834309035277e+00  -8.1190366757738186e+00  -8.1146077870870137e+00  -8.1066854212400727e+00  -8.0955849097735779e+00  -8.0817293717657339e+00  -8.0655918640633271e+00  -8.0476577639259617e+00  -8.0284025019115930e+00  -8.0082825766616708e+00  -7.9877368277179084e+00  -7.9671943972140129e+00  -7.9470858070653154e+00  -7.9278536850222308e+00  -7.9099596288905696e+00  -7.8938835454464256e+00  -7.8801118795563427e+00  -7.8691119167112973e+00  -7.8612905207382795e+00  -7.8569325712121607e+00  -7.8560802120291386e+00  -8.1302314322849440e+00  -8.1292855459172841e+00  -8.1243808330885035e+00  -8.1156556778746332e+00  -8.1035125226467137e+00  -8.0884670448356957e+00  -8.0710705269948146e+00  -8.0518624159395333e+00  -8.0313464465804341e+00  -8.0099854674853024e+00  -7.9882093833128032e+00  -7.9664309759418312e+00  -7.9450652153636243e+00  -7.9245482304356649e+00  -7.9053519916748076e+00  -7.8879900142428498e+00  -7.8730085334382576e+00  -7.8609575701276562e+00  -7.8523376190530856e+00  -7.8475162141918631e+00  -7.8465752687354531e+00  -8.1400754278168819e+00  -8.1390145948368797e+00  -8.1335710285343126e+00  -8.1239624276218461e+00  -8.1107161552373022e+00  -8.0944708185939653e+00  -8.0758717434179115e+00  -8.0555136205742581e+00  -8.0339185192558524e+00  -8.0115386645720825e+00  -7.9887743435825316e+00  -7.9659997810481080e+00  -7.9435922429136419e+00  -7.9219609236872408e+00  -7.9015719544351750e+00  -7.8829641530968511e+00  -7.8667474639480393e+00  -7.8535738016932681e+00  -7.8440701331041502e+00  -7.8387239183516098e+00  -7.8376818767909313e+00  -8.1489357410706198e+00  -8.1477369338472663e+00  -8.1416673438142730e+00  -8.1310741480498319e+00  -8.1166670588382885e+00  -8.0992473327474066e+00  -8.0795693101248638e+00  -8.0582774543319768e+00  -8.0358940930174949e+00  -8.0128367580138899e+00  -7.9894499417306850e+00  -7.9660425916493747e+00  -7.9429273924975581e+00  -7.9204601257714113e+00  -7.8990770902126011e+00  -7.8793256229552764e+00  -7.8618772214963748e+00  -7.8475059029087628e+00  -7.8370098444695131e+00  -7.8310542618762904e+00  -7.8298931406680143e+00  -8.1561836001513690e+00  -8.1548105835499367e+00  -8.1479881348624872e+00  -8.1362809880848932e+00  -8.1206675641440373e+00  -8.1021588859337488e+00  -8.0816250348610676e+00  -8.0597411449844198e+00  -8.0369997395827077e+00  -8.0137518447552427e+00  -7.9902560924089787e+00  -7.9667275661742032e+00  -7.9433853062006197e+00  -7.9205003584533342e+00  -7.8984459799879394e+00  -7.8777477866479586e+00  -7.8591227907466923e+00  -7.8434815178316413e+00  -7.8318505361342456e+00  -7.8251631294441086e+00  -7.8238557193165521e+00  -8.1609944175927982e+00  -8.1593851532625461e+00  -8.1516183608256458e+00  -8.1386360982750450e+00  -8.1218100984688082e+00  -8.1024042038053015e+00  -8.0813868017211679e+00  -8.0594203648527110e+00  -8.0369220440121776e+00  -8.0141384468314332e+00  -7.9912128367441992e+00  -7.9682415516102028e+00  -7.9453242633752685e+00  -7.9226152900814784e+00  -7.9003831748507229e+00  -7.8790826901803843e+00  -7.8594333158897296e+00  -7.8424739570035129e+00  -7.8295217867917444e+00  -7.8219177932752695e+00  -7.8204209404739338e+00  -8.1622759284777739e+00  -8.1603131390094443e+00  -8.1513085814738115e+00  -8.1368758164566408e+00  -8.1189388646819030e+00  -8.0990187599291730e+00  -8.0781122229833908e+00  -8.0567897978859442e+00  -8.0353328888149615e+00  -8.0138463034478402e+00  -7.9923375249807806e+00  -7.9707719117814193e+00  -7.9491164980915761e+00  -7.9273850840394475e+00  -7.9056978039173096e+00  -7.8843691394442104e+00  -7.8640338589413279e+00  -7.8457941363249866e+00  -7.8312935507827692e+00  -7.8224853259596472e+00  -7.8207270240405666e+00  -8.1585473006059814e+00  -8.1559820855060554e+00  -8.1453047948258739e+00  -8.1293219496524678e+00  -8.1106406059601444e+00  -8.0909252492884800e+00  -8.0710416618390148e+00  -8.0513516763390847e+00  -8.0319387513578633e+00  -8.0127439692203613e+00  -7.9936404784728028e+00  -7.9744741401508366e+00  -7.9550900923012406e+00  -7.9353602494147584e+00  -7.9152275723374492e+00  -7.8947899094749845e+00  -7.8744577956065873e+00  -7.8552194177749524e+00  -7.8389619866402933e+00  -7.8284953997948445e+00  -7.8263473811114483e+00  -8.1477059706167605e+00  -8.1439523277297567e+00  -8.1310679540049193e+00  -8.1138107394051993e+00  -8.0953359357219874e+00  -8.0770907020939511e+00  -8.0595523967716485e+00  -8.0427556040854356e+00  -8.0265577206432432e+00  -8.0107535647989057e+00  -7.9951189760483228e+00  -7.9794242730238789e+00  -7.9634368724175300e+00  -7.9469239399845009e+00  -7.9296664734036781e+00  -7.9115067020211516e+00  -7.8924789562201196e+00  -7.8731326143947511e+00  -7.8551973377361328e+00  -7.8423889291094584e+00  -7.8396001994253801e+00  -8.1264426150461446e+00  -8.1201054378563882e+00  -8.1049107739329749e+00  -8.0878363410239995e+00  -8.0716301205759073e+00  -8.0568703892146711e+00  -8.0434171134088377e+00  -8.0309663598057295e+00  -8.0192141130902321e+00  -8.0078891901521576e+00  -7.9967481250088275e+00  -7.9855605667928469e+00  -7.9740926131011802e+00  -7.9620893797802577e+00  -7.9492578433953618e+00  -7.9352568731526070e+00  -7.9197249181226965e+00  -7.9024588917143053e+00  -7.8841277460613268e+00  -7.8683243718575113e+00  -7.8643228778990544e+00  -8.0880060403019467e+00  -8.0767147405892512e+00  -8.0620838623321998e+00  -8.0494635595172284e+00  -8.0391713557639459e+00  -8.0305778850304801e+00  -8.0231255432333235e+00  -8.0164251681303274e+00  -8.0102066854231708e+00  -8.0042708517413441e+00  -7.9984566255641711e+00  -7.9926188265574591e+00  -7.9866101678879273e+00  -7.9802626873467313e+00  -7.9733631089352599e+00  -7.9656140193455292e+00  -7.9565685897836049e+00  -7.9455354106008489e+00  -7.9315842646201906e+00  -7.9148840563591092e+00  -7.9084541038714038e+00  -8.0000000000000000e+00  -8.0000000000000000e+00  -8.0000000000000000e+00  -8.0000000000000000e+00  -8.0000000000000000e+00  -8.0000000000000000e+00  -8.0000000000000000e+00  -8.0000000000000000e+00  -8.0000000000000000e+00  -8.0000000000000000e+00  -8.0000000000000000e+00  -8.0000000000000000e+00  -8.0000000000000000e+00  -8.0000000000000000e+00  -8.0000000000000000e+00  -8.0000000000000000e+00  -8.0000000000000000e+00  -8.0000000000000000e+00  -8.0000000000000000e+00  -8.0000000000000000e+00  -8.0000000000000000e+00  </DataArray> 
</PointData> 
</Piece>
</UnstructuredGrid>
</VTKFile>