<?xml version="1.0"?>
<VTKFile type="UnstructuredGrid"  version="0.1"  >
<UnstructuredGrid>
<Piece  NumberOfPoints="651" NumberOfCells="1200">
<Points>
<DataArray  type="Float64"  NumberOfComponents="3"  format="ascii">0 0 0  50000 0 0  100000 0 0  150000 0 0  200000 0 0  250000 0 0  300000 0 0  350000 0 0  400000 0 0  450000 0 0  500000 0 0  550000 0 0  600000 0 0  650000 0 0  700000 0 0  750000 0 0  800000 0 0  850000 0 0  900000 0 0  950000 0 0  1000000 0 0  0 50000 0  50000 50000 0  100000 50000 0  150000 50000 0  200000 50000 0  250000 50000 0  300000 50000 0  350000 50000 0  400000 50000 0  450000 50000 0  500000 50000 0  550000 50000 0  600000 50000 0  650000 50000 0  700000 50000 0  750000 50000 0  800000 50000 0  850000 50000 0  900000 50000 0  950000 50000 0  1000000 50000 0  0 100000 0  50000 100000 0  100000 100000 0  150000 100000 0  200000 100000 0  250000 100000 0  300000 100000 0  350000 100000 0  400000 100000 0  450000 100000 0  500000 100000 0  550000 100000 0  600000 100000 0  650000 100000 0  700000 100000 0  750000 100000 0  800000 100000 0  850000 100000 0  900000 100000 0  950000 100000 0  1000000 100000 0  0 150000 0  50000 150000 0  100000 150000 0  150000 150000 0  200000 150000 0  250000 150000 0  300000 150000 0  350000 150000 0  400000 150000 0  450000 150000 0  500000 150000 0  550000 150000 0  600000 150000 0  650000 150000 0  700000 150000 0  750000 150000 0  800000 150000 0  850000 150000 0  900000 150000 0  950000 150000 0  1000000 150000 0  0 200000 0  50000 200000 0  100000 200000 0  150000 200000 0  200000 200000 0  250000 200000 0  300000 200000 0  350000 200000 0  400000 200000 0  450000 200000 0  500000 200000 0  550000 200000 0  600000 200000 0  650000 200000 0  700000 200000 0  750000 200000 0  800000 200000 0  850000 200000 0  900000 200000 0  950000 200000 0  1000000 200000 0  0 250000 0  50000 250000 0  100000 250000 0  150000 250000 0  200000 250000 0  250000 250000 0  300000 250000 0  350000 250000 0  400000 250000 0  450000 250000 0  500000 250000 0  550000 250000 0  600000 250000 0  650000 250000 0  700000 250000 0  750000 250000 0  800000 250000 0  850000 250000 0  900000 250000 0  950000 250000 0  1000000 250000 0  0 300000 0  50000 300000 0  100000 300000 0  150000 300000 0  200000 300000 0  250000 300000 0  300000 300000 0  350000 300000 0  400000 300000 0  450000 300000 0  500000 300000 0  550000 300000 0  600000 300000 0  650000 300000 0  700000 300000 0  750000 300000 0  800000 300000 0  850000 300000 0  900000 300000 0  950000 300000 0  1000000 300000 0  0 350000 0  50000 350000 0  100000 350000 0  150000 350000 0  200000 350000 0  250000 350000 0  300000 350000 0  350000 350000 0  400000 350000 0  450000 350000 0  500000 350000 0  550000 350000 0  600000 350000 0  650000 350000 0  700000 350000 0  750000 350000 0  800000 350000 0  850000 350000 0  900000 350000 0  950000 350000 0  1000000 350000 0  0 400000 0  50000 400000 0  100000 400000 0  150000 400000 0  200000 400000 0  250000 400000 0  300000 400000 0  350000 400000 0  400000 400000 0  450000 400000 0  500000 400000 0  550000 400000 0  600000 400000 0  650000 400000 0  700000 400000 0  750000 400000 0  800000 400000 0  850000 400000 0  900000 400000 0  950000 400000 0  1000000 400000 0  0 450000 0  50000 450000 0  100000 450000 0  150000 450000 0  200000 450000 0  250000 450000 0  300000 450000 0  350000 450000 0  400000 450000 0  450000 450000 0  500000 450000 0  550000 450000 0  600000 450000 0  650000 450000 0  700000 450000 0  750000 450000 0  800000 450000 0  850000 450000 0  900000 450000 0  950000 450000 0  1000000 450000 0  0 500000 0  50000 500000 0  100000 500000 0  150000 500000 0  200000 500000 0  250000 500000 0  300000 500000 0  350000 500000 0  400000 500000 0  450000 500000 0  500000 500000 0  550000 500000 0  600000 500000 0  650000 500000 0  700000 500000 0  750000 500000 0  800000 500000 0  850000 500000 0  900000 500000 0  950000 500000 0  1000000 500000 0  0 550000 0  50000 550000 0  100000 550000 0  150000 550000 0  200000 550000 0  250000 550000 0  300000 550000 0  350000 550000 0  400000 550000 0  450000 550000 0  500000 550000 0  550000 550000 0  600000 550000 0  650000 550000 0  700000 550000 0  750000 550000 0  800000 550000 0  850000 550000 0  900000 550000 0  950000 550000 0  1000000 550000 0  0 600000 0  50000 600000 0  100000 600000 0  150000 600000 0  200000 600000 0  250000 600000 0  300000 600000 0  350000 600000 0  400000 600000 0  450000 600000 0  500000 600000 0  550000 600000 0  600000 600000 0  650000 600000 0  700000 600000 0  750000 600000 0  800000 600000 0  850000 600000 0  900000 600000 0  950000 600000 0  1000000 600000 0  0 650000 0  50000 650000 0  100000 650000 0  150000 650000 0  200000 650000 0  250000 650000 0  300000 650000 0  350000 650000 0  400000 650000 0  450000 650000 0  500000 650000 0  550000 650000 0  600000 650000 0  650000 650000 0  700000 650000 0  750000 650000 0  800000 650000 0  850000 650000 0  900000 650000 0  950000 650000 0  1000000 650000 0  0 700000 0  50000 700000 0  100000 700000 0  150000 700000 0  200000 700000 0  250000 700000 0  300000 700000 0  350000 700000 0  400000 700000 0  450000 700000 0  500000 700000 0  550000 700000 0  600000 700000 0  650000 700000 0  700000 700000 0  750000 700000 0  800000 700000 0  850000 700000 0  900000 700000 0  950000 700000 0  1000000 700000 0  0 750000 0  50000 750000 0  100000 750000 0  150000 750000 0  200000 750000 0  250000 750000 0  300000 750000 0  350000 750000 0  400000 750000 0  450000 750000 0  500000 750000 0  550000 750000 0  600000 750000 0  650000 750000 0  700000 750000 0  750000 750000 0  800000 750000 0  850000 750000 0  900000 750000 0  950000 750000 0  1000000 750000 0  0 800000 0  50000 800000 0  100000 800000 0  150000 800000 0  200000 800000 0  250000 800000 0  300000 800000 0  350000 800000 0  400000 800000 0  450000 800000 0  500000 800000 0  550000 800000 0  600000 800000 0  650000 800000 0  700000 800000 0  750000 800000 0  800000 800000 0  850000 800000 0  900000 800000 0  950000 800000 0  1000000 800000 0  0 850000 0  50000 850000 0  100000 850000 0  150000 850000 0  200000 850000 0  250000 850000 0  300000 850000 0  350000 850000 0  400000 850000 0  450000 850000 0  500000 850000 0  550000 850000 0  600000 850000 0  650000 850000 0  700000 850000 0  750000 850000 0  800000 850000 0  850000 850000 0  900000 850000 0  950000 850000 0  1000000 850000 0  0 900000 0  50000 900000 0  100000 900000 0  150000 900000 0  200000 900000 0  250000 900000 0  300000 900000 0  350000 900000 0  400000 900000 0  450000 900000 0  500000 900000 0  550000 900000 0  600000 900000 0  650000 900000 0  700000 900000 0  750000 900000 0  800000 900000 0  850000 900000 0  900000 900000 0  950000 900000 0  1000000 900000 0  0 950000 0  50000 950000 0  100000 950000 0  150000 950000 0  200000 950000 0  250000 950000 0  300000 950000 0  350000 950000 0  400000 950000 0  450000 950000 0  500000 950000 0  550000 950000 0  600000 950000 0  650000 950000 0  700000 950000 0  750000 950000 0  800000 950000 0  850000 950000 0  900000 950000 0  950000 950000 0  1000000 950000 0  0 1000000 0  50000 1000000 0  100000 1000000 0  150000 1000000 0  200000 1000000 0  250000 1000000 0  300000 1000000 0  350000 1000000 0  400000 1000000 0  450000 1000000 0  500000 1000000 0  550000 1000000 0  600000 1000000 0  650000 1000000 0  700000 1000000 0  750000 1000000 0  800000 1000000 0  850000 1000000 0  900000 1000000 0  950000 1000000 0  1000000 1000000 0  0 1050000 0  50000 1050000 0  100000 1050000 0  150000 1050000 0  200000 1050000 0  250000 1050000 0  300000 1050000 0  350000 1050000 0  400000 1050000 0  450000 1050000 0  500000 1050000 0  550000 1050000 0  600000 1050000 0  650000 1050000 0  700000 1050000 0  750000 1050000 0  800000 1050000 0  850000 1050000 0  900000 1050000 0  950000 1050000 0  1000000 1050000 0  0 1100000 0  50000 1100000 0  100000 1100000 0  150000 1100000 0  200000 1100000 0  250000 1100000 0  300000 1100000 0  350000 1100000 0  400000 1100000 0  450000 1100000 0  500000 1100000 0  550000 1100000 0  600000 1100000 0  650000 1100000 0  700000 1100000 0  750000 1100000 0  800000 1100000 0  850000 1100000 0  900000 1100000 0  950000 1100000 0  1000000 1100000 0  0 1150000 0  50000 1150000 0  100000 1150000 0  150000 1150000 0  200000 1150000 0  250000 1150000 0  300000 1150000 0  350000 1150000 0  400000 1150000 0  450000 1150000 0  500000 1150000 0  550000 1150000 0  600000 1150000 0  650000 1150000 0  700000 1150000 0  750000 1150000 0  800000 1150000 0  850000 1150000 0  900000 1150000 0  950000 1150000 0  1000000 1150000 0  0 1200000 0  50000 1200000 0  100000 1200000 0  150000 1200000 0  200000 1200000 0  250000 1200000 0  300000 1200000 0  350000 1200000 0  400000 1200000 0  450000 1200000 0  500000 1200000 0  550000 1200000 0  600000 1200000 0  650000 1200000 0  700000 1200000 0  750000 1200000 0  800000 1200000 0  850000 1200000 0  900000 1200000 0  950000 1200000 0  1000000 1200000 0  0 1250000 0  50000 1250000 0  100000 1250000 0  150000 1250000 0  200000 1250000 0  250000 1250000 0  300000 1250000 0  350000 1250000 0  400000 1250000 0  450000 1250000 0  500000 1250000 0  550000 1250000 0  600000 1250000 0  650000 1250000 0  700000 1250000 0  750000 1250000 0  800000 1250000 0  850000 1250000 0  900000 1250000 0  950000 1250000 0  1000000 1250000 0  0 1300000 0  50000 1300000 0  100000 1300000 0  150000 1300000 0  200000 1300000 0  250000 1300000 0  300000 1300000 0  350000 1300000 0  400000 1300000 0  450000 1300000 0  500000 1300000 0  550000 1300000 0  600000 1300000 0  650000 1300000 0  700000 1300000 0  750000 1300000 0  800000 1300000 0  850000 1300000 0  900000 1300000 0  950000 1300000 0  1000000 1300000 0  0 1350000 0  50000 1350000 0  100000 1350000 0  150000 1350000 0  200000 1350000 0  250000 1350000 0  300000 1350000 0  350000 1350000 0  400000 1350000 0  450000 1350000 0  500000 1350000 0  550000 1350000 0  600000 1350000 0  650000 1350000 0  700000 135
[...]
<PointData  Scalars="f_4491"> 
<DataArray  type="Float64"  Name="f_4491"  format="ascii">-8.0700967608184389e+00  -8.0691129956479219e+00  -8.0642928102840354e+00  -8.0556208653000851e+00  -8.0433204584550815e+00  -8.0277177304764002e+00  -8.0092264929423020e+00  -7.9883363627516690e+00  -7.9655995564330455e+00  -7.9416160972022976e+00  -7.9170178036696326e+00  -7.8924514932197685e+00  -7.8685618380681071e+00  -7.8459743172850489e+00  -7.8252787246098583e+00  -7.8070137536033313e+00  -7.7916534165223181e+00  -7.7795967885572139e+00  -7.7711634372509915e+00  -7.7665776136930749e+00  -7.7655796253060574e+00  -8.0710235615354833e+00  -8.0700614296859019e+00  -8.0651726456818409e+00  -8.0564432633882230e+00  -8.0440786913149811e+00  -8.0283990431514365e+00  -8.0098166915395321e+00  -7.9888220515344557e+00  -7.9659692805047939e+00  -7.9418609843057730e+00  -7.9171319459407048e+00  -7.8924321591421531e+00  -7.8684095463068884e+00  -7.8456927744346565e+00  -7.8248745965791864e+00  -7.8064961489945937e+00  -7.7910325770648168e+00  -7.7788799129200399e+00  -7.7703406737883576e+00  -7.7655944481500843e+00  -7.7645962511220450e+00  -8.0755424421067517e+00  -8.0746458866308757e+00  -8.0696443946008021e+00  -8.0606518228409012e+00  -8.0479140220147141e+00  -8.0317673775649503e+00  -8.0126366797555679e+00  -7.9910255371562240e+00  -7.9675030661820836e+00  -7.9426884207067010e+00  -7.9172340358214832e+00  -7.8918081234206845e+00  -7.8670768543931766e+00  -7.8436866492963597e+00  -7.8222470111959765e+00  -7.8033143614914611e+00  -7.7873773823217345e+00  -7.7748443736426562e+00  -7.7660326382070188e+00  -7.7611552978496725e+00  -7.7602582158031570e+00  -8.0835978066361047e+00  -8.0827104639645331e+00  -8.0775206500609240e+00  -8.0681004168956836e+00  -8.0547207280087960e+00  -8.0377488497359977e+00  -8.0176377551660050e+00  -7.9949192593808291e+00  -7.9701921719310995e+00  -7.9441070803624161e+00  -7.9173492205851570e+00  -7.8906203228055674e+00  -7.8646200477711519e+00  -7.8400275293865951e+00  -7.8174835368054714e+00  -7.7975738374974997e+00  -7.7808144814567797e+00  -7.7676398025572997e+00  -7.7583927557356089e+00  -7.7533072459845123e+00  -7.7524086628852702e+00  -8.0950659517928205e+00  -8.0941528017478035e+00  -8.0886668480122008e+00  -8.0786438515053138e+00  -8.0643655428607115e+00  -8.0462307829686175e+00  -8.0247307067524538e+00  -8.0004383655225482e+00  -7.9739963956815547e+00  -7.9461014803964574e+00  -7.9174866098473125e+00  -7.8889020962046850e+00  -7.8610960691398741e+00  -7.8347950583840547e+00  -7.8106852524944044e+00  -7.7893950799759955e+00  -7.7714798217672758e+00  -7.7574086633691008e+00  -7.7475520716298725e+00  -7.7421539268974193e+00  -7.7412051129490855e+00  -8.1098769969268183e+00  -8.1089117184359925e+00  -8.1030175931331989e+00  -8.0922062503676706e+00  -8.0767703268660451e+00  -8.0571413504926230e+00  -8.0338553193673885e+00  -8.0075371929421788e+00  -7.9788862231616582e+00  -7.9486590600098754e+00  -7.9176508558343777e+00  -7.8866751061711966e+00  -7.8565429279209615e+00  -7.8280424003621860e+00  -7.8019185728954312e+00  -7.7788547579501603e+00  -7.7594556559338965e+00  -7.7442322035465940e+00  -7.7335847640461957e+00  -7.7277666985791980e+00  -7.7267409914386107e+00  -8.1280109795294209e+00  -8.1269711199117936e+00  -8.1205577329824656e+00  -8.1087676020167851e+00  -8.0919100629928291e+00  -8.0704540339126059e+00  -8.0449873057013175e+00  -8.0161964854450201e+00  -7.9848492631507373e+00  -7.9517753572467011e+00  -7.9178458725548611e+00  -7.8839515506131717e+00  -7.8509804978600242e+00  -7.8197959582392569e+00  -7.7912146823518436e+00  -7.7659864287819405e+00  -7.7447749757364228e+00  -7.7281401959896865e+00  -7.7165171979198881e+00  -7.7101733344677523e+00  -7.7090505833707006e+00  -8.1494876363500808e+00  -8.1483523563777975e+00  -8.1413094826278343e+00  -8.1283470039686883e+00  -8.1097984466480479e+00  -8.0861773707781044e+00  -8.0581316157989082e+00  -8.0264193891941797e+00  -7.9918883342400644e+00  -7.9554538606281344e+00  -7.9180763002015162e+00  -7.8807371944880753e+00  -7.8444151612448705e+00  -7.8100617942723041e+00  -7.7785780478447943e+00  -7.7507915404186543e+00  -7.7274350424141893e+00  -7.7091255556058389e+00  -7.6963397022367186e+00  -7.6893650014050339e+00  -7.6881269653144866e+00  -8.1743550424270790e+00  -8.1731040062785247e+00  -8.1653209838027649e+00  -8.1509891757876378e+00  -8.1304741826575047e+00  -8.1043429482840299e+00  -8.0733129352958084e+00  -8.0382245932271008e+00  -8.0000171777530529e+00  -7.9597042094810178e+00  -7.9183481311861295e+00  -7.8770343767416904e+00  -7.8368451599558462e+00  -7.7988332866281613e+00  -7.7639963009401400e+00  -7.7332512907542821e+00  -7.7074105523611021e+00  -7.6871574903150721e+00  -7.6730182703962688e+00  -7.6653072204169641e+00  -7.6639361751039061e+00  -8.2026774186809366e+00  -8.2012901727550975e+00  -8.1926545895717577e+00  -8.1767520822516193e+00  -8.1539884135182259e+00  -8.1249936914072922e+00  -8.0905657278011862e+00  -8.0516386670011180e+00  -8.0092553748492037e+00  -7.9645398261720040e+00  -7.9186690973735141e+00  -7.8728451127694994e+00  -7.8282662942217662e+00  -7.7860992164243790e+00  -7.7474503872235401e+00  -7.7133383416196901e+00  -7.6846662024422177e+00  -7.6621940977564513e+00  -7.6465067368079138e+00  -7.6379521706725315e+00  -7.6364303879474722e+00  -8.2345216484308068e+00  -8.2329772221956627e+00  -8.2233738769530778e+00  -8.2056939576333487e+00  -8.1803919363291993e+00  -8.1481718789508211e+00  -8.1099237886733864e+00  -8.0666877917192217e+00  -8.0196227219930698e+00  -7.9699752264937569e+00  -7.9190490404491758e+00  -7.8681744911445195e+00  -7.8186781591186021e+00  -7.7718525114148482e+00  -7.7289253481238394e+00  -7.6910290538739252e+00  -7.6591697393870080e+00  -7.6341956882072486e+00  -7.6167601668226075e+00  -7.6072523443155697e+00  -7.6055618497531228e+00  -8.2699418871922816e+00  -8.2682185077773926e+00  -8.2575286524435878e+00  -8.2378585925443080e+00  -8.2097209676934053e+00  -8.1739058786875631e+00  -8.1314086226410911e+00  -8.0833884684673425e+00  -8.0311328509840045e+00  -7.9760229562808487e+00  -7.9195003579754824e+00  -7.8630345978619527e+00  -7.8080912985823794e+00  -7.7561001902476194e+00  -7.7084224714494916e+00  -7.6663171872820461e+00  -7.6309065818343189e+00  -7.6031398604860794e+00  -7.5837501789545181e+00  -7.5731761093104710e+00  -7.5712985574371263e+00  -8.3089615651539273e+00  -8.3070364324280277e+00  -8.2951372246757131e+00  -8.2732579419125489e+00  -8.2419803811683714e+00  -8.2021945608481719e+00  -8.1550157701632813e+00  -8.1017365503671819e+00  -8.0437856767821447e+00  -7.9826899730107623e+00  -7.9200385758191212e+00  -7.8574492451870377e+00  -7.7965357714771191e+00  -7.7388752044152795e+00  -7.6859736831312908e+00  -7.6392300593965530e+00  -7.5998970346031172e+00  -7.5690392495458694e+00  -7.5474829507071384e+00  -7.5357258776839080e+00  -7.5336424820028718e+00  -8.3515519947267585e+00  -8.3494010794763831e+00  -8.3361651237233918e+00  -8.3118511004407356e+00  -8.2771233487937526e+00  -8.2329883060415856e+00  -8.1806981005588444e+00  -8.1216938107522321e+00  -8.0575581367337943e+00  -7.9899732178799168e+00  -7.9206830851461199e+00  -7.8514598311591328e+00  -7.7840717230375729e+00  -7.7202509994770434e+00  -7.6616591688856142e+00  -7.6098482346777443e+00  -7.5662171495143422e+00  -7.5319628991039353e+00  -7.5080207426421586e+00  -7.4949596666782838e+00  -7.4926511411196905e+00  -8.3976066968714989e+00  -8.3952045219257290e+00  -8.3804993100551872e+00  -8.3535185648991614e+00  -8.3150261979052651e+00  -8.2661653967820570e+00  -8.2083449552257317e+00  -8.1431711321135634e+00  -8.0723925855119756e+00  -7.9978540685735462e+00  -7.9214580795720257e+00  -7.8451327075996344e+00  -7.7708026560574721e+00  -7.7003597544747553e+00  -7.6356293684084084e+00  -7.5783299655119052e+00  -7.5300244244513692e+00  -7.4920623419686168e+00  -7.4655079003752682e+00  -7.4510169433339160e+00  -7.4484634067267255e+00  -8.4469104424708110e+00  -8.4442297896021898e+00  -8.4279167417116589e+00  -8.3980304947382347e+00  -8.3554570749140158e+00  -8.3015023725174775e+00  -8.2377558437641110e+00  -8.1660072610898382e+00  -8.0881821167346057e+00  -8.0062913158842797e+00  -7.9223937270931764e+00  -7.8385684822773944e+00  -7.7568921972251630e+00  -7.6794154138089414e+00  -7.6081326862483749e+00  -7.5449418354140523e+00  -7.4915897626010537e+00  -7.4496036788825606e+00  -7.4202024644602957e+00  -7.4041497735092507e+00  -7.4013305496638138e+00  -8.4991018559188625e+00  -8.4961133071170245e+00  -8.4780459356923732e+00  -8.4450073871168971e+00  -8.3980366939644657e+00  -8.3386366494489010e+00  -8.2686071880774641e+00  -8.1899419447431061e+00  -8.1047520137808249e+00  -8.0152122772598453e+00  -7.9235276058400093e+00  -7.8319137044629894e+00  -7.7425852278600313e+00  -7.6577427748193756e+00  -7.5795504984970679e+00  -7.5100973591084763e+00  -7.4513374435911413e+00  -7.4050072476486157e+00  -7.3725147539578355e+00  -7.3547604717446866e+00  -7.3516536841288582e+00  -8.5536282206011176e+00  -8.5502993815016968e+00  -8.5303198248232199e+00  -8.4938711613279505e+00  -8.4421890276001417e+00  -8.3770193811124578e+00  -8.3004104277410793e+00  -8.2145822094178182e+00  -8.1218365467225784e+00  -8.0245016772085105e+00  -7.9249064142902146e+00  -7.8253753382983193e+00  -7.7282342289906651e+00  -7.6358139710135919e+00  -7.5504412590336596e+00  -7.4744056657427080e+00  -7.4098953126168707e+00  -7.3588969123604242e+00  -7.3230546361531470e+00  -7.3034472040845966e+00  -7.3000290105144554e+00  -8.6096908052035115e+00  -8.6059849516338147e+00  -8.5839176880322601e+00  -8.5437840228328827e+00  -8.4870792441555079e+00  -8.4158562150411012e+00  -8.3324597584630133e+00  -8.2393607042525350e+00  -8.1390505472924843e+00  -8.0339880494595750e+00  -7.9265879222449698e+00  -7.8192382311190354e+00  -7.7143314471281812e+00  -7.6142935573581187e+00  -7.5215956237458528e+00  -7.4387328017251981e+00  -7.3681580178843085e+00  -7.3121616664308311e+00  -7.2726897424436725e+00  -7.2510594031364670e+00  -7.2473026315756988e+00  -8.6661784860742692e+00  -8.6620521816836735e+00  -8.6376930492719577e+00  -8.5935715058529798e+00  -8.5315354863747714e+00  -8.4540334079946113e+00  -8.3637681071917864e+00  -8.2634856699866290e+00  -8.1558558233939920e+00  -8.0434277580416378e+00  -7.9286430372956644e+00  -7.8138852864029165e+00  -7.7015467797983801e+00  -7.5940927937564568e+00  -7.4941043055429866e+00  -7.4042785565189426e+00  -7.3273669878298540e+00  -7.2660332982238680e+00  -7.2226178152837237e+00  -7.1987655538813256e+00  -7.1946373647141408e+00  -8.7215864579440616e+00  -8.7169853230495296e+00  -8.6900828580343816e+00  -8.6416245236396207e+00  -8.5739502234322984e+00  -8.4900269848644427e+00  -8.3929911096887420e+00  -8.2858836810549459e+00  -8.1715238786147655e+00  -8.0524874716478241e+00  -7.9311576902540510e+00  -7.8098190136636703e+00  -7.6907696998240462e+00  -7.5764321462863933e+00  -7.4694394188432582e+00  -7.3726718242152867e+00  -7.2892120167649699e+00  -7.2221856175216734e+00  -7.1744580217468696e+00  -7.1481371784484091e+00  -7.1435951504483342e+00  -8.7739149784523711e+00  -8.7687660343743765e+00  -8.7389902958496357e+00  -8.6857726669580853e+00  -8.6121560427234893e+00  -8.5217939189159200e+00  -8.4183417163173253e+00  -8.3051396367916208e+00  -8.1850991325134341e+00  -8.0607273165202322e+00  -7.9342339494967460e+00  -7.8076812008595136e+00  -7.6831504382432456e+00  -7.5629076266291815e+00  -7.4495475202684149e+00  -7.3460868364142291e+00  -7.2559608527485038e+00  -7.1828637303839686e+00  -7.1303691471044974e+00  -7.1012552488955407e+00  -7.0962408794198213e+00  -8.8205395395760888e+00  -8.8147368456138722e+00  -8.7816277942032137e+00  -8.7231167732476038e+00  -8.6432705105142453e+00  -8.5466481310858899e+00  -8.4375041850523775e+00  -8.3194447641705001e+00  -8.1953716261925607e+00  -8.0675892896407877e+00  -7.9379893199713356e+00  -7.8082642190500913e+00  -7.6801301234112440e+00  -7.5555499593233542e+00  -7.4369467546256658e+00  -7.3273798599568014e+00  -7.2306248111032891e+00  -7.1510570245136016e+00  -7.0932085395768230e+00  -7.0608499588447717e+00  -7.0552777912922835e+00  -8.8580369041532059e+00  -8.8514129100786647e+00  -8.8142954165296477e+00  -8.7498024058280421e+00  -8.6635072125853885e+00  -8.5611336110594163e+00  -8.4475683090094904e+00  -8.3265742436090058e+00  -8.2008757455480694e+00  -8.0723990598822226e+00  -7.9425525791083871e+00  -7.8125026404128270e+00  -7.6834406511340561e+00  -7.5568536102994459e+00  -7.4348083584050766e+00  -7.3202380907007347e+00  -7.2171688926996129e+00  -7.1307383735134238e+00  -7.0667576389611675e+00  -7.0304943726342382e+00  -7.0242333537465562e+00  -8.8819375798552755e+00  -8.8742005888989528e+00  -8.8320469057146447e+00  -8.7607084239441448e+00  -8.6679614488183301e+00  -8.5609286613345823e+00  -8.4450267990618872e+00  -8.3239328883345767e+00  -8.1999417678214410e+00  -8.0743937621043553e+00  -7.9480539025232559e+00  -7.8214278478255839e+00  -7.6950424638646764e+00  -7.5697329823997963e+00  -7.4469787000622407e+00  -7.3293122132380297e+00  -7.2207693879855608e+00  -7.1272062817103716e+00  -7.0560648778091615e+00  -7.0148931586973502e+00  -7.0077331515151133e+00  -8.8863468889207660e+00  -8.8769283723323937e+00  -8.8281515055976225e+00  -8.7490253617122242e+00  -8.6504158936938058e+00  -8.5408612940366790e+00  -8.4259152040466638e+00  -8.3087292829719885e+00  -8.1908376009893917e+00  -8.0727922241475270e+00  -7.9546068235191507e+00  -7.8360633628679821e+00  -7.7169546355914544e+00  -7.5973348596049313e+00  -7.4778536888419431e+00  -7.3602545931418408e+00  -7.2480940366428097e+00  -7.1475847757089692e+00  -7.0680108395538079e+00  -7.0203561329364650e+00  -7.0119430150050546e+00  -8.8633131359975774e+00  -8.8509545408687007e+00  -8.7931864687792203e+00  -8.7057461299971255e+00  -8.6033137882085455e+00  -8.4952040354597944e+00  -8.3862239914674088e+00  -8.2783577780904132e+00  -8.1720410149584577e+00  -8.0669229610087694e+00  -7.9622801660459857e+00  -7.8572400365754627e+00  -7.7509257541660421e+00  -7.6426070907645567e+00  -7.5319466986351138e+00  -7.4194724687355658e+00  -7.3074759595852834e+00  -7.2015309739560971e+00  -7.1123206750652237e+00  -7.0556740532034823e+00  -7.0453691949519772e+00  -8.8016240514396920e+00  -8.7832280475849114e+00  -8.7135469126565823e+00  -8.6193216879506487e+00  -8.5182930415103133e+00  -8.4185555763475719e+00  -8.3227535934479810e+00  -8.2310581693871221e+00  -8.1426602361465452e+00  -8.0564102807325089e+00  -7.9710583782092250e+00  -7.8853255374034266e+00  -7.7979147823356643e+00  -7.7075226271578172e+00  -7.6129148400596565e+00  -7.5131906697137172e+00  -7.4085233586816814e+00  -7.3020080328850305e+00  -7.2034833836881953e+00  -7.1340063758685721e+00  -7.1205340308736469e+00  -8.6837966099907398e+00  -8.6517283319622642e+00  -8.5695569660737068e+00  -8.4765158625087889e+00  -8.3881437875979969e+00  -8.3077377036275646e+00  -8.2345293307700000e+00  -8.1668263692734548e+00  -8.1029407540519962e+00  -8.0413726895412605e+00  -7.9807794310816966e+00  -7.9198912367452339e+00  -7.8574161314034310e+00  -7.7919401742892456e+00  -7.7218284074900447e+00  -7.6451653061915952e+00  -7.5599089327103721e+00  -7.4649110464658204e+00  -7.3640148533074044e+00  -7.2778438391843743e+00  -7.2581727307813217e+00  -8.4745469688599915e+00  -8.4152407862477094e+00  -8.3360964627383343e+00  -8.2674481853101032e+00  -8.2115037788481882e+00  -8.1648852433550339e+00  -8.1245171788478849e+00  -8.0882487295888996e+00  -8.0545933711313342e+00  -8.0224598486362257e+00  -7.9909690441629850e+00  -7.9593288990504520e+00  -7.9267340666025987e+00  -7.8922620039507052e+00  -7.8547343652700281e+00  -7.8124975462011861e+00  -7.7630535430583674e+00  -7.7025293136868562e+00  -7.6257603186616540e+00  -7.5339836267027138e+00  -7.5011248433777036e+00  -8.0000000000000000e+00  -8.0000000000000000e+00  -8.0000000000000000e+00  -8.0000000000000000e+00  -8.0000000000000000e+00  -8.0000000000000000e+00  -8.0000000000000000e+00  -8.0000000000000000e+00  -8.0000000000000000e+00  -8.0000000000000000e+00  -8.0000000000000000e+00  -8.0000000000000000e+00  -8.0000000000000000e+00  -8.0000000000000000e+00  -8.0000000000000000e+00  -8.0000000000000000e+00  -8.0000000000000000e+00  -8.0000000000000000e+00  -8.0000000000000000e+00  -8.0000000000000000e+00  -8.0000000000000000e+00  </DataArray> 
</PointData> 
</Piece>
</UnstructuredGrid>
</VTKFile>