<?xml version="1.0"?>
<VTKFile type="UnstructuredGrid"  version="0.1"  >
<UnstructuredGrid>
<Piece  NumberOfPoints="651" NumberOfCells="1200">
<Points>
<DataArray  type="Float64"  NumberOfComponents="3"  format="ascii">0 0 0  50000 0 0  100000 0 0  150000 0 0  200000 0 0  250000 0 0  300000 0 0  350000 0 0  400000 0 0  450000 0 0  500000 0 0  550000 0 0  600000 0 0  650000 0 0  700000 0 0  750000 0 0  800000 0 0  850000 0 0  900000 0 0  950000 0 0  1000000 0 0  0 50000 0  50000 50000 0  100000 50000 0  150000 50000 0  200000 50000 0  250000 50000 0  300000 50000 0  350000 50000 0  400000 50000 0  450000 50000 0  500000 50000 0  550000 50000 0  600000 50000 0  650000 50000 0  700000 50000 0  750000 50000 0  800000 50000 0  850000 50000 0  900000 50000 0  950000 50000 0  1000000 50000 0  0 100000 0  50000 100000 0  100000 100000 0  150000 100000 0  200000 100000 0  250000 100000 0  300000 100000 0  350000 100000 0  400000 100000 0  450000 100000 0  500000 100000 0  550000 100000 0  600000 100000 0  650000 100000 0  700000 100000 0  750000 100000 0  800000 100000 0  850000 100000 0  900000 100000 0  950000 100000 0  1000000 100000 0  0 150000 0  50000 150000 0  100000 150000 0  150000 150000 0  200000 150000 0  250000 150000 0  300000 150000 0  350000 150000 0  400000 150000 0  450000 150000 0  500000 150000 0  550000 150000 0  600000 150000 0  650000 150000 0  700000 150000 0  750000 150000 0  800000 150000 0  850000 150000 0  900000 150000 0  950000 150000 0  1000000 150000 0  0 200000 0  50000 200000 0  100000 200000 0  150000 200000 0  200000 200000 0  250000 200000 0  300000 200000 0  350000 200000 0  400000 200000 0  450000 200000 0  500000 200000 0  550000 200000 0  600000 200000 0  650000 200000 0  700000 200000 0  750000 200000 0  800000 200000 0  850000 200000 0  900000 200000 0  950000 200000 0  1000000 200000 0  0 250000 0  50000 250000 0  100000 250000 0  150000 250000 0  200000 250000 0  250000 250000 0  300000 250000 0  350000 250000 0  400000 250000 0  450000 250000 0  500000 250000 0  550000 250000 0  600000 250000 0  650000 250000 0  700000 250000 0  750000 250000 0  800000 250000 0  850000 250000 0  900000 250000 0  950000 250000 0  1000000 250000 0  0 300000 0  50000 300000 0  100000 300000 0  150000 300000 0  200000 300000 0  250000 300000 0  300000 300000 0  350000 300000 0  400000 300000 0  450000 300000 0  500000 300000 0  550000 300000 0  600000 300000 0  650000 300000 0  700000 300000 0  750000 300000 0  800000 300000 0  850000 300000 0  900000 300000 0  950000 300000 0  1000000 300000 0  0 350000 0  50000 350000 0  100000 350000 0  150000 350000 0  200000 350000 0  250000 350000 0  300000 350000 0  350000 350000 0  400000 350000 0  450000 350000 0  500000 350000 0  550000 350000 0  600000 350000 0  650000 350000 0  700000 350000 0  750000 350000 0  800000 350000 0  850000 350000 0  900000 350000 0  950000 350000 0  1000000 350000 0  0 400000 0  50000 400000 0  100000 400000 0  150000 400000 0  200000 400000 0  250000 400000 0  300000 400000 0  350000 400000 0  400000 400000 0  450000 400000 0  500000 400000 0  550000 400000 0  600000 400000 0  650000 400000 0  700000 400000 0  750000 400000 0  800000 400000 0  850000 400000 0  900000 400000 0  950000 400000 0  1000000 400000 0  0 450000 0  50000 450000 0  100000 450000 0  150000 450000 0  200000 450000 0  250000 450000 0  300000 450000 0  350000 450000 0  400000 450000 0  450000 450000 0  500000 450000 0  550000 450000 0  600000 450000 0  650000 450000 0  700000 450000 0  750000 450000 0  800000 450000 0  850000 450000 0  900000 450000 0  950000 450000 0  1000000 450000 0  0 500000 0  50000 500000 0  100000 500000 0  150000 500000 0  200000 500000 0  250000 500000 0  300000 500000 0  350000 500000 0  400000 500000 0  450000 500000 0  500000 500000 0  550000 500000 0  600000 500000 0  650000 500000 0  700000 500000 0  750000 500000 0  800000 500000 0  850000 500000 0  900000 500000 0  950000 500000 0  1000000 500000 0  0 550000 0  50000 550000 0  100000 550000 0  150000 550000 0  200000 550000 0  250000 550000 0  300000 550000 0  350000 550000 0  400000 550000 0  450000 550000 0  500000 550000 0  550000 550000 0  600000 550000 0  650000 550000 0  700000 550000 0  750000 550000 0  800000 550000 0  850000 550000 0  900000 550000 0  950000 550000 0  1000000 550000 0  0 600000 0  50000 600000 0  100000 600000 0  150000 600000 0  200000 600000 0  250000 600000 0  300000 600000 0  350000 600000 0  400000 600000 0  450000 600000 0  500000 600000 0  550000 600000 0  600000 600000 0  650000 600000 0  700000 600000 0  750000 600000 0  800000 600000 0  850000 600000 0  900000 600000 0  950000 600000 0  1000000 600000 0  0 650000 0  50000 650000 0  100000 650000 0  150000 650000 0  200000 650000 0  250000 650000 0  300000 650000 0  350000 650000 0  400000 650000 0  450000 650000 0  500000 650000 0  550000 650000 0  600000 650000 0  650000 650000 0  700000 650000 0  750000 650000 0  800000 650000 0  850000 650000 0  900000 650000 0  950000 650000 0  1000000 650000 0  0 700000 0  50000 700000 0  100000 700000 0  150000 700000 0  200000 700000 0  250000 700000 0  300000 700000 0  350000 700000 0  400000 700000 0  450000 700000 0  500000 700000 0  550000 700000 0  600000 700000 0  650000 700000 0  700000 700000 0  750000 700000 0  800000 700000 0  850000 700000 0  900000 700000 0  950000 700000 0  1000000 700000 0  0 750000 0  50000 750000 0  100000 750000 0  150000 750000 0  200000 750000 0  250000 750000 0  300000 750000 0  350000 750000 0  400000 750000 0  450000 750000 0  500000 750000 0  550000 750000 0  600000 750000 0  650000 750000 0  700000 750000 0  750000 750000 0  800000 750000 0  850000 750000 0  900000 750000 0  950000 750000 0  1000000 750000 0  0 800000 0  50000 800000 0  100000 800000 0  150000 800000 0  200000 800000 0  250000 800000 0  300000 800000 0  350000 800000 0  400000 800000 0  450000 800000 0  500000 800000 0  550000 800000 0  600000 800000 0  650000 800000 0  700000 800000 0  750000 800000 0  800000 800000 0  850000 800000 0  900000 800000 0  950000 800000 0  1000000 800000 0  0 850000 0  50000 850000 0  100000 850000 0  150000 850000 0  200000 850000 0  250000 850000 0  300000 850000 0  350000 850000 0  400000 850000 0  450000 850000 0  500000 850000 0  550000 850000 0  600000 850000 0  650000 850000 0  700000 850000 0  750000 850000 0  800000 850000 0  850000 850000 0  900000 850000 0  950000 850000 0  1000000 850000 0  0 900000 0  50000 900000 0  100000 900000 0  150000 900000 0  200000 900000 0  250000 900000 0  300000 900000 0  350000 900000 0  400000 900000 0  450000 900000 0  500000 900000 0  550000 900000 0  600000 900000 0  650000 900000 0  700000 900000 0  750000 900000 0  800000 900000 0  850000 900000 0  900000 900000 0  950000 900000 0  1000000 900000 0  0 950000 0  50000 950000 0  100000 950000 0  150000 950000 0  200000 950000 0  250000 950000 0  300000 950000 0  350000 950000 0  400000 950000 0  450000 950000 0  500000 950000 0  550000 950000 0  600000 950000 0  650000 950000 0  700000 950000 0  750000 950000 0  800000 950000 0  850000 950000 0  900000 950000 0  950000 950000 0  1000000 950000 0  0 1000000 0  50000 1000000 0  100000 1000000 0  150000 1000000 0  200000 1000000 0  250000 1000000 0  300000 1000000 0  350000 1000000 0  400000 1000000 0  450000 1000000 0  500000 1000000 0  550000 1000000 0  600000 1000000 0  650000 1000000 0  700000 1000000 0  750000 1000000 0  800000 1000000 0  850000 1000000 0  900000 1000000 0  950000 1000000 0  1000000 1000000 0  0 1050000 0  50000 1050000 0  100000 1050000 0  150000 1050000 0  200000 1050000 0  250000 1050000 0  300000 1050000 0  350000 1050000 0  400000 1050000 0  450000 1050000 0  500000 1050000 0  550000 1050000 0  600000 1050000 0  650000 1050000 0  700000 1050000 0  750000 1050000 0  800000 1050000 0  850000 1050000 0  900000 1050000 0  950000 1050000 0  1000000 1050000 0  0 1100000 0  50000 1100000 0  100000 1100000 0  150000 1100000 0  200000 1100000 0  250000 1100000 0  300000 1100000 0  350000 1100000 0  400000 1100000 0  450000 1100000 0  500000 1100000 0  550000 1100000 0  600000 1100000 0  650000 1100000 0  700000 1100000 0  750000 1100000 0  800000 1100000 0  850000 1100000 0  900000 1100000 0  950000 1100000 0  1000000 1100000 0  0 1150000 0  50000 1150000 0  100000 1150000 0  150000 1150000 0  200000 1150000 0  250000 1150000 0  300000 1150000 0  350000 1150000 0  400000 1150000 0  450000 1150000 0  500000 1150000 0  550000 1150000 0  600000 1150000 0  650000 1150000 0  700000 1150000 0  750000 1150000 0  800000 1150000 0  850000 1150000 0  900000 1150000 0  950000 1150000 0  1000000 1150000 0  0 1200000 0  50000 1200000 0  100000 1200000 0  150000 1200000 0  200000 1200000 0  250000 1200000 0  300000 1200000 0  350000 1200000 0  400000 1200000 0  450000 1200000 0  500000 1200000 0  550000 1200000 0  600000 1200000 0  650000 1200000 0  700000 1200000 0  750000 1200000 0  800000 1200000 0  850000 1200000 0  900000 1200000 0  950000 1200000 0  1000000 1200000 0  0 1250000 0  50000 1250000 0  100000 1250000 0  150000 1250000 0  200000 1250000 0  250000 1250000 0  300000 1250000 0  350000 1250000 0  400000 1250000 0  450000 1250000 0  500000 1250000 0  550000 1250000 0  600000 1250000 0  650000 1250000 0  700000 1250000 0  750000 1250000 0  800000 1250000 0  850000 1250000 0  900000 1250000 0  950000 1250000 0  1000000 1250000 0  0 1300000 0  50000 1300000 0  100000 1300000 0  150000 1300000 0  200000 1300000 0  250000 1300000 0  300000 1300000 0  350000 1300000 0  400000 1300000 0  450000 1300000 0  500000 1300000 0  550000 1300000 0  600000 1300000 0  650000 1300000 0  700000 1300000 0  750000 1300000 0  800000 1300000 0  850000 1300000 0  900000 1300000 0  950000 1300000 0  1000000 1300000 0  0 1350000 0  50000 1350000 0  100000 1350000 0  150000 1350000 0  200000 1350000 0  250000 1350000 0  300000 1350000 0  350000 1350000 0  400000 1350000 0  450000 1350000 0  500000 1350000 0  550000 1350000 0  600000 1350000 0  650000 1350000 0  700000 135
[...]
<PointData  Vectors="f_4485"> 
<DataArray  type="Float64"  Name="f_4485"  NumberOfComponents="3" format="ascii">-2.4209717030707599e-10 2.1881133062354257e-10 0.0000000000000000e+00  -4.4726546870548481e-10 1.7845551258759547e-10 0.0000000000000000e+00  -8.1294951655075342e-10 1.6019919568732415e-10 0.0000000000000000e+00  -1.1670173687869070e-09 1.4393074986863001e-10 0.0000000000000000e+00  -1.4911552875290270e-09 1.2547742876048750e-10 0.0000000000000000e+00  -1.7758071723431476e-09 1.0433940590287403e-10 0.0000000000000000e+00  -2.0133944676010493e-09 8.0709231491554768e-11 0.0000000000000000e+00  -2.1978843528009254e-09 5.5027036481057352e-11 0.0000000000000000e+00  -2.3247036629640754e-09 2.7861848041656249e-11 0.0000000000000000e+00  -2.3907757721510653e-09 -1.4610866089246246e-13 0.0000000000000000e+00  -2.3945612253174343e-09 -2.8319722439760533e-11 0.0000000000000000e+00  -2.3360761024290035e-09 -5.5969565504017596e-11 0.0000000000000000e+00  -2.2168825385963610e-09 -8.2414715226648371e-11 0.0000000000000000e+00  -2.0400507618784456e-09 -1.0700316176821802e-10 0.0000000000000000e+00  -1.8101006236566034e-09 -1.2913648878172605e-10 0.0000000000000000e+00  -1.5329740087522948e-09 -1.4831309951549957e-10 0.0000000000000000e+00  -1.2163109996983525e-09 -1.6423590007471708e-10 0.0000000000000000e+00  -8.7127689815658950e-10 -1.7709737556051418e-10 0.0000000000000000e+00  -5.2090411500549492e-10 -1.8732221143931621e-10 0.0000000000000000e+00  -2.3499649137103769e-10 -1.8071260893469098e-10 0.0000000000000000e+00  -1.1453567215650889e-10 -1.1647136921777641e-10 0.0000000000000000e+00  -2.0643735294892310e-10 4.0567071628169401e-10 0.0000000000000000e+00  -3.6983431071937879e-10 3.6265319009077054e-10 0.0000000000000000e+00  -6.5638251589028901e-10 3.7298467962459607e-10 0.0000000000000000e+00  -9.7287456047946120e-10 3.5540345920058411e-10 0.0000000000000000e+00  -1.2750373047667546e-09 3.2347102203613896e-10 0.0000000000000000e+00  -1.5477019122178379e-09 2.8135610814862538e-10 0.0000000000000000e+00  -1.7818783741688429e-09 2.3124655373603071e-10 0.0000000000000000e+00  -1.9707364115085621e-09 1.7487038091978723e-10 0.0000000000000000e+00  -2.1090471192901982e-09 1.1387829245603904e-10 0.0000000000000000e+00  -2.1930952399846129e-09 4.9936602992067397e-11 0.0000000000000000e+00  -2.2206803531405549e-09 -1.5263460090236831e-11 0.0000000000000000e+00  -2.1911277435228042e-09 -8.0023922311390346e-11 0.0000000000000000e+00  -2.1052842274775326e-09 -1.4266736230649249e-10 0.0000000000000000e+00  -1.9654927146198950e-09 -2.0156570642819477e-10 0.0000000000000000e+00  -1.7755520800112802e-09 -2.5516463337802615e-10 0.0000000000000000e+00  -1.5406972629737619e-09 -3.0199229973217605e-10 0.0000000000000000e+00  -1.2677404546771701e-09 -3.4060810407296970e-10 0.0000000000000000e+00  -9.6596688349323841e-10 -3.6923936264929629e-10 0.0000000000000000e+00  -6.5123033133792117e-10 -3.8359897561194680e-10 0.0000000000000000e+00  -3.6258427275536240e-10 -3.6703299468330545e-10 0.0000000000000000e+00  -1.8285959054825160e-10 -2.3060917522424798e-10 0.0000000000000000e+00  -2.0347646885165552e-10 7.3586272002047003e-10 0.0000000000000000e+00  -3.7575995676621017e-10 6.4234949642485178e-10 0.0000000000000000e+00  -6.4589153995381868e-10 6.4798356879831538e-10 0.0000000000000000e+00  -9.3420852323542727e-10 6.2134386781524190e-10 0.0000000000000000e+00  -1.2105255886942203e-09 5.6997809630369519e-10 0.0000000000000000e+00  -1.4615960085973163e-09 4.9964763856035786e-10 0.0000000000000000e+00  -1.6783791045912818e-09 4.1434984178624445e-10 0.0000000000000000e+00  -1.8540516106759602e-09 3.1733197757862393e-10 0.0000000000000000e+00  -1.9833930169797166e-09 2.1163844529123673e-10 0.0000000000000000e+00  -2.0626735372087451e-09 1.0030035201618283e-10 0.0000000000000000e+00  -2.0896505033531973e-09 -1.3624836305761908e-11 0.0000000000000000e+00  -2.0635759618770480e-09 -1.2707304552832584e-10 0.0000000000000000e+00  -1.9851909074489584e-09 -2.3701518839955420e-10 0.0000000000000000e+00  -1.8566995652741010e-09 -3.4050148680307957e-10 0.0000000000000000e+00  -1.6817292691927960e-09 -4.3469137413820689e-10 0.0000000000000000e+00  -1.4653051701889320e-09 -5.1683827373081089e-10 0.0000000000000000e+00  -1.2139454622811517e-09 -5.8415091397628017e-10 0.0000000000000000e+00  -9.3626248326270155e-10 -6.3331951238910981e-10 0.0000000000000000e+00  -6.4550334699734340e-10 -6.5916605552711424e-10 0.0000000000000000e+00  -3.7207861049630975e-10 -6.5185077259598734e-10 0.0000000000000000e+00  -1.9284775188520331e-10 -4.9899843151359470e-10 0.0000000000000000e+00  -2.1150388875861183e-10 1.0584872375557163e-09 0.0000000000000000e+00  -3.7194130937465001e-10 9.4869124333590578e-10 0.0000000000000000e+00  -6.3495474501364270e-10 9.3679166792886881e-10 0.0000000000000000e+00  -9.1183007271344435e-10 8.9493070628490831e-10 0.0000000000000000e+00  -1.1743217584252290e-09 8.2218125413251435e-10 0.0000000000000000e+00  -1.4118761815456631e-09 7.2297388606657803e-10 0.0000000000000000e+00  -1.6169448322541127e-09 6.0196751393999166e-10 0.0000000000000000e+00  -1.7832790836408484e-09 4.6359801418640875e-10 0.0000000000000000e+00  -1.9059012533925177e-09 3.1224524375422675e-10 0.0000000000000000e+00  -1.9811846787148539e-09 1.5233615358081894e-10 0.0000000000000000e+00  -2.0069135352883297e-09 -1.1643382442831959e-11 0.0000000000000000e+00  -1.9823140250172885e-09 -1.7519077225119495e-10 0.0000000000000000e+00  -1.9080545729787478e-09 -3.3385332059863748e-10 0.0000000000000000e+00  -1.7862145959161214e-09 -4.8329927949071459e-10 0.0000000000000000e+00  -1.6202236754006021e-09 -6.1937577398002642e-10 0.0000000000000000e+00  -1.4147826703452475e-09 -7.3813185518425593e-10 0.0000000000000000e+00  -1.1758237581420911e-09 -8.3578044405557698e-10 0.0000000000000000e+00  -9.1079673743252573e-10 -9.0860276005651240e-10 0.0000000000000000e+00  -6.3075999010860950e-10 -9.5283264543440465e-10 0.0000000000000000e+00  -3.6398270036637494e-10 -9.6352244694330765e-10 0.0000000000000000e+00  -1.9386580450027310e-10 -8.2471880080894454e-10 0.0000000000000000e+00  -2.2546630004631054e-10 1.3712853524792184e-09 0.0000000000000000e+00  -3.7007386576285393e-10 1.2534333748156679e-09 0.0000000000000000e+00  -6.2768793894202654e-10 1.2250970667036470e-09 0.0000000000000000e+00  -8.9988752328527115e-10 1.1650104292391578e-09 0.0000000000000000e+00  -1.1565905183314109e-09 1.0694865733099432e-09 0.0000000000000000e+00  -1.3877257800408120e-09 9.4142837122546260e-10 0.0000000000000000e+00  -1.5866300929010390e-09 7.8548384350091404e-10 0.0000000000000000e+00  -1.7476955904493508e-09 6.0685864744232725e-10 0.0000000000000000e+00  -1.8662972679954813e-09 4.1105919937630156e-10 0.0000000000000000e+00  -1.9389834727249354e-09 2.0380853256144814e-10 0.0000000000000000e+00  -1.9636112004877437e-09 -9.0297172288065245e-12 0.0000000000000000e+00  -1.9394125210759809e-09 -2.2154640694054981e-10 0.0000000000000000e+00  -1.8670068988365357e-09 -4.2789652623375722e-10 0.0000000000000000e+00  -1.7483660408796795e-09 -6.2241410085245138e-10 0.0000000000000000e+00  -1.5867323534733350e-09 -7.9972453559115253e-10 0.0000000000000000e+00  -1.3864971946021244e-09 -9.5485289068225042e-10 0.0000000000000000e+00  -1.1531002632022209e-09 -1.0833486394177415e-09 0.0000000000000000e+00  -8.9332296249983713e-10 -1.1815019953559354e-09 0.0000000000000000e+00  -6.1785867900680971e-10 -1.2465956890097470e-09 0.0000000000000000e+00  -3.5671852180127616e-10 -1.2750961040169293e-09 0.0000000000000000e+00  -2.0101562519505081e-10 -1.1520360151197338e-09 0.0000000000000000e+00  -2.4428839451276666e-10 1.6782182806539816e-09 0.0000000000000000e+00  -3.7240826949857082e-10 1.5548805530315198e-09 0.0000000000000000e+00  -6.2633280803936032e-10 1.5125555326041382e-09 0.0000000000000000e+00  -8.9757326346474399e-10 1.4336436824435311e-09 0.0000000000000000e+00  -1.1533881844829252e-09 1.3143823026639845e-09 0.0000000000000000e+00  -1.3831041661862508e-09 1.1570498095903411e-09 0.0000000000000000e+00  -1.5802165000945319e-09 9.6628459608069244e-10 0.0000000000000000e+00  -1.7394368451900438e-09 7.4787468583417485e-10 0.0000000000000000e+00  -1.8563974486573863e-09 5.0829439369548535e-10 0.0000000000000000e+00  -1.9278080298743003e-09 2.5445775748361888e-10 0.0000000000000000e+00  -1.9516094821619257e-09 -6.4622330015121218e-12 0.0000000000000000e+00  -1.9270604140114071e-09 -2.6720018217250167e-10 0.0000000000000000e+00  -1.8547600160774121e-09 -5.2056544817892444e-10 0.0000000000000000e+00  -1.7366142430991462e-09 -7.5961347687270878e-10 0.0000000000000000e+00  -1.5757487823055796e-09 -9.7782437445223809e-10 0.0000000000000000e+00  -1.3763832716231383e-09 -1.1692992344515506e-09 0.0000000000000000e+00  -1.1437615055014112e-09 -1.3290021467528344e-09 0.0000000000000000e+00  -8.8461842353741740e-10 -1.4530862136718194e-09 0.0000000000000000e+00  -6.1032880162844197e-10 -1.5390580968372268e-09 0.0000000000000000e+00  -3.5356896030087508e-10 -1.5832310843967844e-09 0.0000000000000000e+00  -2.1329291192476567e-10 -1.4723395041964857e-09 0.0000000000000000e+00  -2.6759047111797645e-10 1.9829227051780779e-09 0.0000000000000000e+00  -3.7891613776431743e-10 1.8554615027361610e-09 0.0000000000000000e+00  -6.3089946926872114e-10 1.8010298552700852e-09 0.0000000000000000e+00  -9.0374604263491285e-10 1.7037434328762806e-09 0.0000000000000000e+00  -1.1618079617970482e-09 1.5602998896561183e-09 0.0000000000000000e+00  -1.3934344521166842e-09 1.3731136635368948e-09 0.0000000000000000e+00  -1.5918504208363154e-09 1.1470972679316921e-09 0.0000000000000000e+00  -1.7517762949233713e-09 8.8865428551411776e-10 0.0000000000000000e+00  -1.8689351956859955e-09 6.0518165401331860e-10 0.0000000000000000e+00  -1.9401262246440613e-09 3.0472980863800149e-10 0.0000000000000000e+00  -1.9633535030371989e-09 -4.2651206161056091e-12 0.0000000000000000e+00  -1.9379100513823011e-09 -3.1321900045513827e-10 0.0000000000000000e+00  -1.8644043620353812e-09 -6.1362784975745670e-10 0.0000000000000000e+00  -1.7447324699944973e-09 -8.9729794987062933e-10 0.0000000000000000e+00  -1.5820011684008185e-09 -1.1565874147743764e-09 0.0000000000000000e+00  -1.3804272034903722e-09 -1.3846712219888596e-09 0.0000000000000000e+00  -1.1453360366865422e-09 -1.5758443364514391e-09 0.0000000000000000e+00  -8.8381107037314695e-10 -1.7258523161938998e-09 0.0000000000000000e+00  -6.0830545761941533e-10 -1.8319099060286665e-09 0.0000000000000000e+00  -3.5439017583909435e-10 -1.8897198929907874e-09 0.0000000000000000e+00  -2.2983996130825198e-10 -1.7872666904797312e-09 0.0000000000000000e+00  -2.9523149252810217e-10 2.2881116391819979e-09 0.0000000000000000e+00  -3.8887976370306847e-10 2.1576485689624114e-09 0.0000000000000000e+00  -6.4019825491243746e-10 2.0925987666692184e-09 0.0000000000000000e+00  -9.1642645949224072e-10 1.9775915751374150e-09 0.0000000000000000e+00  -1.1787337006733292e-09 1.8098194693806789e-09 0.0000000000000000e+00  -1.4143621248434498e-09 1.5921975094732520e-09 0.0000000000000000e+00  -1.6160677600635805e-09 1.3301976147390335e-09 0.0000000000000000e+00  -1.7783838921032719e-09 1.0309775379684077e-09 0.0000000000000000e+00  -1.8969854780692647e-09 7.0290319321481239e-10 0.0000000000000000e+00  -1.9686839058345196e-09 3.5516606552798615e-10 0.0000000000000000e+00  -1.9915150180418616e-09 -2.5448616266756359e-12 0.0000000000000000e+00  -1.9648055188577577e-09 -3.6033937623106874e-10 0.0000000000000000e+00  -1.8891968374832749e-09 -7.0840807553449831e-10 0.0000000000000000e+00  -1.7666254921688040e-09 -1.0373044376530788e-09 0.0000000000000000e+00  -1.6002660112141257e-09 -1.3382388167077571e-09 0.0000000000000000e+00  -1.3944667334078290e-09 -1.6033933615840464e-09 0.0000000000000000e+00  -1.1548179823785957e-09 -1.8262583441317879e-09 0.0000000000000000e+00  -8.8895036788107844e-10 -2.0019509454645282e-09 0.0000000000000000e+00  -6.1054713352246909e-10 -2.1271517848800808e-09 0.0000000000000000e+00  -3.5830783783297852e-10 -2.1968814534653144e-09 0.0000000000000000e+00  -2.5030189845281619e-10 -2.0998266752919178e-09 0.0000000000000000e+00  -3.2719860723913781e-10 2.5953159038442959e-09 0.0000000000000000e+00  -4.0130038474299572e-10 2.4631867236119957e-09 0.0000000000000000e+00  -6.5241543319972147e-10 2.3887789900018379e-09 0.0000000000000000e+00  -9.3295161734861477e-10 2.2566831387394099e-09 0.0000000000000000e+00  -1.2005311957392710e-09 2.0645304188573773e-09 0.0000000000000000e+00  -1.4412146993774170e-09 1.8159021784487821e-09 0.0000000000000000e+00  -1.6472115698655367e-09 1.5170427127950783e-09 0.0000000000000000e+00  -1.8127755605934892e-09 1.1760235629131857e-09 0.0000000000000000e+00  -1.9334562163419614e-09 8.0227433822113885e-10 0.0000000000000000e+00  -2.0060289428114647e-09 4.0617491131245528e-10 0.0000000000000000e+00  -2.0285394984684825e-09 -1.3127680348890492e-12 0.0000000000000000e+00  -2.0003458537216700e-09 -4.0898290565300464e-10 0.0000000000000000e+00  -1.9221353602955224e-09 -8.0570788716724452e-10 0.0000000000000000e+00  -1.7959148128324879e-09 -1.1807596237642181e-09 0.0000000000000000e+00  -1.6249781241458927e-09 -1.5241437157131159e-09 0.0000000000000000e+00  -1.4138819612098395e-09 -1.8269533921865891e-09 0.0000000000000000e+00  -1.1685761846566307e-09 -2.0817357905298079e-09 0.0000000000000000e+00  -8.9733063716864565e-10 -2.2828206440046048e-09 0.0000000000000000e+00  -6.1515453250189649e-10 -2.4262462069999779e-09 0.0000000000000000e+00  -3.6420385408504115e-10 -2.5063822918864332e-09 0.0000000000000000e+00  -2.7453722867069918e-10 -2.4123209901626897e-09 0.0000000000000000e+00  -3.6355638318974610e-10 2.9047382082848312e-09 0.0000000000000000e+00  -4.1499266569077885e-10 2.7727887853585668e-09 0.0000000000000000e+00  -6.6529756527457607e-10 2.6901982818417568e-09 0.0000000000000000e+00  -9.5005002786077318e-10 2.5416044455592947e-09 0.0000000000000000e+00  -1.2229034373089952e-09 2.3250369897689020e-09 0.0000000000000000e+00  -1.4686653109532521e-09 2.0448461614780670e-09 0.0000000000000000e+00  -1.6789822984021361e-09 1.7082130731559073e-09 0.0000000000000000e+00  -1.8478139837287435e-09 1.3242774090420450e-09 0.0000000000000000e+00  -1.9705731947980625e-09 9.0364454808324157e-10 0.0000000000000000e+00  -2.0439955503181893e-09 4.5795009036336482e-10 0.0000000000000000e+00  -2.0661381050998794e-09 -5.3676708194859156e-13 0.0000000000000000e+00  -2.0363918125633354e-09 -4.5927643983588008e-10 0.0000000000000000e+00  -1.9554896143624943e-09 -9.0580279243340100e-10 0.0000000000000000e+00  -1.8255083497586799e-09 -1.3280669640529505e-09 0.0000000000000000e+00  -1.6498665910575780e-09 -1.7147989530389592e-09 0.0000000000000000e+00  -1.4333448660870700e-09 -2.0558957433795733e-09 0.0000000000000000e+00  -1.1822786490584931e-09 -2.3428268680944122e-09 0.0000000000000000e+00  -9.0561497601546881e-10 -2.5690048425817202e-09 0.0000000000000000e+00  -6.1978440364724721e-10 -2.7297585102614566e-09 0.0000000000000000e+00  -3.7079315106361467e-10 -2.8188482617907941e-09 0.0000000000000000e+00  -3.0250432091592929e-10 -2.7258625552540493e-09 0.0000000000000000e+00  -4.0442043175849436e-10 3.2150882578233979e-09 0.0000000000000000e+00  -4.2858009653020048e-10 3.0859127975121081e-09 0.0000000000000000e+00  -6.7615992971316351e-10 2.9963544315619043e-09 0.0000000000000000e+00  -9.6379829673166030e-10 2.8318569547038337e-09 0.0000000000000000e+00  -1.2407287888628393e-09 2.5908654187457816e-09 0.0000000000000000e+00  -1.4904344903509294e-09 2.2786057291654393e-09 0.0000000000000000e+00  -1.7040254972590123e-09 1.9033512818042699e-09 0.0000000000000000e+00  -1.8752179087059169e-09 1.4754620147832753e-09 0.0000000000000000e+00  -1.9993430103196505e-09 1.0068338644293230e-09 0.0000000000000000e+00  -2.0731457933568285e-09 5.1042540199879804e-10 0.0000000000000000e+00  -2.0947279787282172e-09 -1.5946055672878132e-13 0.0000000000000000e+00  -2.0635234638302197e-09 -5.1104109977409508e-10 0.0000000000000000e+00  -1.9802949648878853e-09 -1.0084068137950533e-09 0.0000000000000000e+00  -1.8471521074402272e-09 -1.4788552935887300e-09 0.0000000000000000e+00  -1.6675893866351271e-09 -1.9097704158604167e-09 0.0000000000000000e+00  -1.4465636432753204e-09 -2.2897403850736318e-09 0.0000000000000000e+00  -1.1907628756737270e-09 -2.6090164410283158e-09 0.0000000000000000e+00  -9.0981278703574824e-10 -2.8599586763322638e-09 0.0000000000000000e+00  -6.2166584847671144e-10 -3.0371078497821407e-09 0.0000000000000000e+00  -3.7660792297211763e-10 -3.1336340885145245e-09 0.0000000000000000e+00  -3.3421785448082497e-10 -3.0401906262175464e-09 0.0000000000000000e+00  -4.4994317407079010e-10 3.5233638628459603e-09 0.0000000000000000e+00  -4.4045196277223684e-10 3.4005284132764994e-09 0.0000000000000000e+00  -6.8181276763979840e-10 3.3053617403343780e-09 0.0000000000000000e+00  -9.6949215165568988e-10 3.1256209009760910e-09 0.0000000000000000e+00  -1.2478420057705572e-09 2.8602662282804309e-09 0.0000000000000000e+00  -1.4989609748371232e-09 2.5155510441563954e-09 0.0000000000000000e+00  -1.7134951987187713e-09 2.1010210071979319e-09 0.0000000000000000e+00  -1.8850371178125977e-09 1.6284189498039126e-09 0.0000000000000000e+00  -2.0089658282119670e-09 1.1110431469855529e-09 0.0000000000000000e+00  -2.0821478524241252e-09 5.6322465012359917e-10 0.0000000000000000e+00  -2.1028033061362008e-09 -1.0133303829301344e-13 0.0000000000000000e+00  -2.0704305270587417e-09 -5.6374737321022800e-10 0.0000000000000000e+00  -1.9857876023557699e-09 -1.1125840179227293e-09 0.0000000000000000e+00  -1.8509342112589411e-09 -1.6318546302629202e-09 0.0000000000000000e+00  -1.6693273153053045e-09 -2.1075399294286244e-09 0.0000000000000000e+00  -1.4459804521323800e-09 -2.5268024342209309e-09 0.0000000000000000e+00  -1.1878370354521043e-09 -2.8785130896579068e-09 0.0000000000000000e+00  -9.0516324282043449e-10 -3.1538084632528948e-09 0.0000000000000000e+00  -6.1753021178681449e-10 -3.3463158278247225e-09 0.0000000000000000e+00  -3.7994994398595797e-10 -3.4485953943083779e-09 0.0000000000000000e+00  -3.6972869421929096e-10 -3.3534942319643788e-09 0.0000000000000000e+00  -5.0030751586057120e-10 3.8245638470245075e-09 0.0000000000000000e+00  -4.4870140851984796e-10 3.7128351163772293e-09 0.0000000000000000e+00  -6.7844146387677672e-10 3.6136489078741331e-09 0.0000000000000000e+00  -9.6145502278271690e-10 3.4194477228889945e-09 0.0000000000000000e+00  -1.2367505003462399e-09 3.1299188748193263e-09 0.0000000000000000e+00  -1.4850100711341071e-09 2.7525747536430031e-09 0.0000000000000000e+00  -1.6965526528222301e-09 2.2984680084304255e-09 0.0000000000000000e+00  -1.8650543358603699e-09 1.7809124447724898e-09 0.0000000000000000e+00  -1.9861639170431674e-09 1.2147141870630583e-09 0.0000000000000000e+00  -2.0570608136897951e-09 6.1559001957546767e-10 0.0000000000000000e+00  -2.0762086969733319e-09 -2.5659226078940050e-13 0.0000000000000000e+00  -2.0432068931102132e-09 -6.1643459359197369e-10 0.0000000000000000e+00  -1.9587508884775630e-09 -1.2165981954824434e-09 0.0000000000000000e+00  -1.8247095995988038e-09 -1.7846879714078188e-09 0.0000000000000000e+00  -1.6443065424433079e-09 -2.3052533329943229e-09 0.0000000000000000e+00  -1.4224008164741657e-09 -2.7639099446164528e-09 0.0000000000000000e+00  -1.1660119303271232e-09 -3.1479485198511775e-09 0.0000000000000000e+00  -8.8595295502863168e-10 -3.4470453277933221e-09 0.0000000000000000e+00  -6.0349334305731656e-10 -3.6537096109009989e-09 0.0000000000000000e+00  -3.7882551361201027e-10 -3.7598156301479095e-09 0.0000000000000000e+00  -4.0911278453121322e-10 -3.6621841315570408e-09 0.0000000000000000e+00  -5.5572828127211144e-10 4.1113214326234842e-09 0.0000000000000000e+00  -4.5105105207606765e-10 4.0169115142096787e-09 0.0000000000000000e+00  -6.6145345982905055e-10 3.9155848808452045e-09 0.0000000000000000e+00  -9.3279320046738747e-10 3.7078654386005406e-09 0.0000000000000000e+00  -1.1982808565101788e-09 3.3945314451385130e-09 0.0000000000000000e+00  -1.437