<?xml version="1.0"?>
<VTKFile type="UnstructuredGrid"  version="0.1"  >
<UnstructuredGrid>
<Piece  NumberOfPoints="651" NumberOfCells="1200">
<Points>
<DataArray  type="Float64"  NumberOfComponents="3"  format="ascii">0 0 0  50000 0 0  100000 0 0  150000 0 0  200000 0 0  250000 0 0  300000 0 0  350000 0 0  400000 0 0  450000 0 0  500000 0 0  550000 0 0  600000 0 0  650000 0 0  700000 0 0  750000 0 0  800000 0 0  850000 0 0  900000 0 0  950000 0 0  1000000 0 0  0 50000 0  50000 50000 0  100000 50000 0  150000 50000 0  200000 50000 0  250000 50000 0  300000 50000 0  350000 50000 0  400000 50000 0  450000 50000 0  500000 50000 0  550000 50000 0  600000 50000 0  650000 50000 0  700000 50000 0  750000 50000 0  800000 50000 0  850000 50000 0  900000 50000 0  950000 50000 0  1000000 50000 0  0 100000 0  50000 100000 0  100000 100000 0  150000 100000 0  200000 100000 0  250000 100000 0  300000 100000 0  350000 100000 0  400000 100000 0  450000 100000 0  500000 100000 0  550000 100000 0  600000 100000 0  650000 100000 0  700000 100000 0  750000 100000 0  800000 100000 0  850000 100000 0  900000 100000 0  950000 100000 0  1000000 100000 0  0 150000 0  50000 150000 0  100000 150000 0  150000 150000 0  200000 150000 0  250000 150000 0  300000 150000 0  350000 150000 0  400000 150000 0  450000 150000 0  500000 150000 0  550000 150000 0  600000 150000 0  650000 150000 0  700000 150000 0  750000 150000 0  800000 150000 0  850000 150000 0  900000 150000 0  950000 150000 0  1000000 150000 0  0 200000 0  50000 200000 0  100000 200000 0  150000 200000 0  200000 200000 0  250000 200000 0  300000 200000 0  350000 200000 0  400000 200000 0  450000 200000 0  500000 200000 0  550000 200000 0  600000 200000 0  650000 200000 0  700000 200000 0  750000 200000 0  800000 200000 0  850000 200000 0  900000 200000 0  950000 200000 0  1000000 200000 0  0 250000 0  50000 250000 0  100000 250000 0  150000 250000 0  200000 250000 0  250000 250000 0  300000 250000 0  350000 250000 0  400000 250000 0  450000 250000 0  500000 250000 0  550000 250000 0  600000 250000 0  650000 250000 0  700000 250000 0  750000 250000 0  800000 250000 0  850000 250000 0  900000 250000 0  950000 250000 0  1000000 250000 0  0 300000 0  50000 300000 0  100000 300000 0  150000 300000 0  200000 300000 0  250000 300000 0  300000 300000 0  350000 300000 0  400000 300000 0  450000 300000 0  500000 300000 0  550000 300000 0  600000 300000 0  650000 300000 0  700000 300000 0  750000 300000 0  800000 300000 0  850000 300000 0  900000 300000 0  950000 300000 0  1000000 300000 0  0 350000 0  50000 350000 0  100000 350000 0  150000 350000 0  200000 350000 0  250000 350000 0  300000 350000 0  350000 350000 0  400000 350000 0  450000 350000 0  500000 350000 0  550000 350000 0  600000 350000 0  650000 350000 0  700000 350000 0  750000 350000 0  800000 350000 0  850000 350000 0  900000 350000 0  950000 350000 0  1000000 350000 0  0 400000 0  50000 400000 0  100000 400000 0  150000 400000 0  200000 400000 0  250000 400000 0  300000 400000 0  350000 400000 0  400000 400000 0  450000 400000 0  500000 400000 0  550000 400000 0  600000 400000 0  650000 400000 0  700000 400000 0  750000 400000 0  800000 400000 0  850000 400000 0  900000 400000 0  950000 400000 0  1000000 400000 0  0 450000 0  50000 450000 0  100000 450000 0  150000 450000 0  200000 450000 0  250000 450000 0  300000 450000 0  350000 450000 0  400000 450000 0  450000 450000 0  500000 450000 0  550000 450000 0  600000 450000 0  650000 450000 0  700000 450000 0  750000 450000 0  800000 450000 0  850000 450000 0  900000 450000 0  950000 450000 0  1000000 450000 0  0 500000 0  50000 500000 0  100000 500000 0  150000 500000 0  200000 500000 0  250000 500000 0  300000 500000 0  350000 500000 0  400000 500000 0  450000 500000 0  500000 500000 0  550000 500000 0  600000 500000 0  650000 500000 0  700000 500000 0  750000 500000 0  800000 500000 0  850000 500000 0  900000 500000 0  950000 500000 0  1000000 500000 0  0 550000 0  50000 550000 0  100000 550000 0  150000 550000 0  200000 550000 0  250000 550000 0  300000 550000 0  350000 550000 0  400000 550000 0  450000 550000 0  500000 550000 0  550000 550000 0  600000 550000 0  650000 550000 0  700000 550000 0  750000 550000 0  800000 550000 0  850000 550000 0  900000 550000 0  950000 550000 0  1000000 550000 0  0 600000 0  50000 600000 0  100000 600000 0  150000 600000 0  200000 600000 0  250000 600000 0  300000 600000 0  350000 600000 0  400000 600000 0  450000 600000 0  500000 600000 0  550000 600000 0  600000 600000 0  650000 600000 0  700000 600000 0  750000 600000 0  800000 600000 0  850000 600000 0  900000 600000 0  950000 600000 0  1000000 600000 0  0 650000 0  50000 650000 0  100000 650000 0  150000 650000 0  200000 650000 0  250000 650000 0  300000 650000 0  350000 650000 0  400000 650000 0  450000 650000 0  500000 650000 0  550000 650000 0  600000 650000 0  650000 650000 0  700000 650000 0  750000 650000 0  800000 650000 0  850000 650000 0  900000 650000 0  950000 650000 0  1000000 650000 0  0 700000 0  50000 700000 0  100000 700000 0  150000 700000 0  200000 700000 0  250000 700000 0  300000 700000 0  350000 700000 0  400000 700000 0  450000 700000 0  500000 700000 0  550000 700000 0  600000 700000 0  650000 700000 0  700000 700000 0  750000 700000 0  800000 700000 0  850000 700000 0  900000 700000 0  950000 700000 0  1000000 700000 0  0 750000 0  50000 750000 0  100000 750000 0  150000 750000 0  200000 750000 0  250000 750000 0  300000 750000 0  350000 750000 0  400000 750000 0  450000 750000 0  500000 750000 0  550000 750000 0  600000 750000 0  650000 750000 0  700000 750000 0  750000 750000 0  800000 750000 0  850000 750000 0  900000 750000 0  950000 750000 0  1000000 750000 0  0 800000 0  50000 800000 0  100000 800000 0  150000 800000 0  200000 800000 0  250000 800000 0  300000 800000 0  350000 800000 0  400000 800000 0  450000 800000 0  500000 800000 0  550000 800000 0  600000 800000 0  650000 800000 0  700000 800000 0  750000 800000 0  800000 800000 0  850000 800000 0  900000 800000 0  950000 800000 0  1000000 800000 0  0 850000 0  50000 850000 0  100000 850000 0  150000 850000 0  200000 850000 0  250000 850000 0  300000 850000 0  350000 850000 0  400000 850000 0  450000 850000 0  500000 850000 0  550000 850000 0  600000 850000 0  650000 850000 0  700000 850000 0  750000 850000 0  800000 850000 0  850000 850000 0  900000 850000 0  950000 850000 0  1000000 850000 0  0 900000 0  50000 900000 0  100000 900000 0  150000 900000 0  200000 900000 0  250000 900000 0  300000 900000 0  350000 900000 0  400000 900000 0  450000 900000 0  500000 900000 0  550000 900000 0  600000 900000 0  650000 900000 0  700000 900000 0  750000 900000 0  800000 900000 0  850000 900000 0  900000 900000 0  950000 900000 0  1000000 900000 0  0 950000 0  50000 950000 0  100000 950000 0  150000 950000 0  200000 950000 0  250000 950000 0  300000 950000 0  350000 950000 0  400000 950000 0  450000 950000 0  500000 950000 0  550000 950000 0  600000 950000 0  650000 950000 0  700000 950000 0  750000 950000 0  800000 950000 0  850000 950000 0  900000 950000 0  950000 950000 0  1000000 950000 0  0 1000000 0  50000 1000000 0  100000 1000000 0  150000 1000000 0  200000 1000000 0  250000 1000000 0  300000 1000000 0  350000 1000000 0  400000 1000000 0  450000 1000000 0  500000 1000000 0  550000 1000000 0  600000 1000000 0  650000 1000000 0  700000 1000000 0  750000 1000000 0  800000 1000000 0  850000 1000000 0  900000 1000000 0  950000 1000000 0  1000000 1000000 0  0 1050000 0  50000 1050000 0  100000 1050000 0  150000 1050000 0  200000 1050000 0  250000 1050000 0  300000 1050000 0  350000 1050000 0  400000 1050000 0  450000 1050000 0  500000 1050000 0  550000 1050000 0  600000 1050000 0  650000 1050000 0  700000 1050000 0  750000 1050000 0  800000 1050000 0  850000 1050000 0  900000 1050000 0  950000 1050000 0  1000000 1050000 0  0 1100000 0  50000 1100000 0  100000 1100000 0  150000 1100000 0  200000 1100000 0  250000 1100000 0  300000 1100000 0  350000 1100000 0  400000 1100000 0  450000 1100000 0  500000 1100000 0  550000 1100000 0  600000 1100000 0  650000 1100000 0  700000 1100000 0  750000 1100000 0  800000 1100000 0  850000 1100000 0  900000 1100000 0  950000 1100000 0  1000000 1100000 0  0 1150000 0  50000 1150000 0  100000 1150000 0  150000 1150000 0  200000 1150000 0  250000 1150000 0  300000 1150000 0  350000 1150000 0  400000 1150000 0  450000 1150000 0  500000 1150000 0  550000 1150000 0  600000 1150000 0  650000 1150000 0  700000 1150000 0  750000 1150000 0  800000 1150000 0  850000 1150000 0  900000 1150000 0  950000 1150000 0  1000000 1150000 0  0 1200000 0  50000 1200000 0  100000 1200000 0  150000 1200000 0  200000 1200000 0  250000 1200000 0  300000 1200000 0  350000 1200000 0  400000 1200000 0  450000 1200000 0  500000 1200000 0  550000 1200000 0  600000 1200000 0  650000 1200000 0  700000 1200000 0  750000 1200000 0  800000 1200000 0  850000 1200000 0  900000 1200000 0  950000 1200000 0  1000000 1200000 0  0 1250000 0  50000 1250000 0  100000 1250000 0  150000 1250000 0  200000 1250000 0  250000 1250000 0  300000 1250000 0  350000 1250000 0  400000 1250000 0  450000 1250000 0  500000 1250000 0  550000 1250000 0  600000 1250000 0  650000 1250000 0  700000 1250000 0  750000 1250000 0  800000 1250000 0  850000 1250000 0  900000 1250000 0  950000 1250000 0  1000000 1250000 0  0 1300000 0  50000 1300000 0  100000 1300000 0  150000 1300000 0  200000 1300000 0  250000 1300000 0  300000 1300000 0  350000 1300000 0  400000 1300000 0  450000 1300000 0  500000 1300000 0  550000 1300000 0  600000 1300000 0  650000 1300000 0  700000 1300000 0  750000 1300000 0  800000 1300000 0  850000 1300000 0  900000 1300000 0  950000 1300000 0  1000000 1300000 0  0 1350000 0  50000 1350000 0  100000 1350000 0  150000 1350000 0  200000 1350000 0  250000 1350000 0  300000 1350000 0  350000 1350000 0  400000 1350000 0  450000 1350000 0  500000 1350000 0  550000 1350000 0  600000 1350000 0  650000 1350000 0  700000 135
[...]
<PointData  Vectors="f_4485"> 
<DataArray  type="Float64"  Name="f_4485"  NumberOfComponents="3" format="ascii">-2.4499522007445022e-10 2.1644851432070371e-10 0.0000000000000000e+00  -4.5045793229055059e-10 1.7749685809147298e-10 0.0000000000000000e+00  -8.1515150762034896e-10 1.6194410351461686e-10 0.0000000000000000e+00  -1.1673453116417981e-09 1.4823568927670886e-10 0.0000000000000000e+00  -1.4897667666295597e-09 1.3194621259187865e-10 0.0000000000000000e+00  -1.7730401704981609e-09 1.1268268455756510e-10 0.0000000000000000e+00  -2.0095432733772034e-09 9.0684237993103544e-11 0.0000000000000000e+00  -2.1931092683464105e-09 6.6402642987417218e-11 0.0000000000000000e+00  -2.3190224507224803e-09 4.0409407000952233e-11 0.0000000000000000e+00  -2.3841030066528546e-09 1.3346450497358949e-11 0.0000000000000000e+00  -2.3867760803789474e-09 -1.4106330351455762e-11 0.0000000000000000e+00  -2.3271050613477789e-09 -4.1256291280055392e-11 0.0000000000000000e+00  -2.2067855382814768e-09 -6.7420533138594799e-11 0.0000000000000000e+00  -2.0291000460047528e-09 -9.1947990942561599e-11 0.0000000000000000e+00  -1.7988417311538299e-09 -1.1424421043437950e-10 0.0000000000000000e+00  -1.5222566140982774e-09 -1.3380929309725294e-10 0.0000000000000000e+00  -1.2072650264411089e-09 -1.5032803200848823e-10 0.0000000000000000e+00  -8.6515584777309275e-10 -1.6392118935433778e-10 0.0000000000000000e+00  -5.1859214290881742e-10 -1.7490129118712828e-10 0.0000000000000000e+00  -2.3561640595707632e-10 -1.6978417098747490e-10 0.0000000000000000e+00  -1.1649404932295962e-10 -1.0773903720733979e-10 0.0000000000000000e+00  -2.0810073874499309e-10 4.0559584319358181e-10 0.0000000000000000e+00  -3.7265561716123097e-10 3.6590015332756851e-10 0.0000000000000000e+00  -6.6013564057837489e-10 3.7592281389752397e-10 0.0000000000000000e+00  -9.7988765101570592e-10 3.5742539352721757e-10 0.0000000000000000e+00  -1.2844698852931929e-09 3.2516120911525548e-10 0.0000000000000000e+00  -1.5583289963676703e-09 2.8287894767243580e-10 0.0000000000000000e+00  -1.7927175178598835e-09 2.3261720051365981e-10 0.0000000000000000e+00  -1.9809510960071398e-09 1.7605301761140849e-10 0.0000000000000000e+00  -2.1178946484119806e-09 1.1482768135699012e-10 0.0000000000000000e+00  -2.1999237291385769e-09 5.0625551977224895e-11 0.0000000000000000e+00  -2.2249429557670020e-09 -1.4826142339033876e-11 0.0000000000000000e+00  -2.1924066724736370e-09 -7.9782743144803028e-11 0.0000000000000000e+00  -2.1033220627083905e-09 -1.4251494673960564e-10 0.0000000000000000e+00  -1.9602295336752786e-09 -2.0134143736990017e-10 0.0000000000000000e+00  -1.7671680184460840e-09 -2.5465482202101023e-10 0.0000000000000000e+00  -1.5296605826130327e-09 -3.0092862978118546e-10 0.0000000000000000e+00  -1.2548571017010591e-09 -3.3866368964014717e-10 0.0000000000000000e+00  -9.5240697271114502e-10 -3.6604366492850750e-10 0.0000000000000000e+00  -6.3850675493751883e-10 -3.7884869586456041e-10 0.0000000000000000e+00  -3.5337262779776130e-10 -3.6099708828455641e-10 0.0000000000000000e+00  -1.8442317449897779e-10 -2.1803185359051258e-10 0.0000000000000000e+00  -2.0303974556904487e-10 7.4165248078460914e-10 0.0000000000000000e+00  -3.8040867391316333e-10 6.5105391573361626e-10 0.0000000000000000e+00  -6.5450250281166252e-10 6.5673844968636203e-10 0.0000000000000000e+00  -9.4793646336014918e-10 6.2776308859905582e-10 0.0000000000000000e+00  -1.2289549907527586e-09 5.7417406432486129e-10 0.0000000000000000e+00  -1.4833512649549770e-09 5.0184422416076230e-10 0.0000000000000000e+00  -1.7018303628302074e-09 4.1472203067678381e-10 0.0000000000000000e+00  -1.8776544683853226e-09 3.1603158484802968e-10 0.0000000000000000e+00  -2.0057847019907412e-09 2.0881889379319133e-10 0.0000000000000000e+00  -2.0826987016047145e-09 9.6139048611948563e-11 0.0000000000000000e+00  -2.1063685985732901e-09 -1.8908235796616155e-11 0.0000000000000000e+00  -2.0762627253253761e-09 -1.3320216167023334e-10 0.0000000000000000e+00  -1.9933415299350345e-09 -2.4364427592103683e-10 0.0000000000000000e+00  -1.8600409654473969e-09 -3.4720209720545994e-10 0.0000000000000000e+00  -1.6802493720757148e-09 -4.4093493419573633e-10 0.0000000000000000e+00  -1.4593079826054519e-09 -5.2196971998548763e-10 0.0000000000000000e+00  -1.2041431408865596e-09 -5.8734577907309218e-10 0.0000000000000000e+00  -9.2393245062787495e-10 -6.3350456078455825e-10 0.0000000000000000e+00  -6.3282172562560117e-10 -6.5482149841401102e-10 0.0000000000000000e+00  -3.6328591772187802e-10 -6.4098061305408691e-10 0.0000000000000000e+00  -1.9568063545541620e-10 -4.7664400663627562e-10 0.0000000000000000e+00  -2.0905970048702335e-10 1.0727266072790678e-09 0.0000000000000000e+00  -3.7944788283024767e-10 9.6334935927481410e-10 0.0000000000000000e+00  -6.4933050774355993e-10 9.5206286327178888e-10 0.0000000000000000e+00  -9.3283600444498760e-10 9.0744872159703987e-10 0.0000000000000000e+00  -1.2010835437394184e-09 8.3096809735346168e-10 0.0000000000000000e+00  -1.4428572363316939e-09 7.2791175532996719e-10 0.0000000000000000e+00  -1.6502847515856429e-09 6.0323458213185323e-10 0.0000000000000000e+00  -1.8171107759799396e-09 4.6150158912962253e-10 0.0000000000000000e+00  -1.9385264588729543e-09 3.0716324914536154e-10 0.0000000000000000e+00  -2.0111522309753806e-09 1.4469585640388056e-10 0.0000000000000000e+00  -2.0330439331188177e-09 -2.1368989913242381e-11 0.0000000000000000e+00  -2.0036990432709251e-09 -1.8647538775933882e-10 0.0000000000000000e+00  -1.9240510076679325e-09 -3.4609942744188157e-10 0.0000000000000000e+00  -1.7964476223555257e-09 -4.9580796641849005e-10 0.0000000000000000e+00  -1.6246145173894915e-09 -6.3129990418687802e-10 0.0000000000000000e+00  -1.4136159035108044e-09 -7.4840419968036688e-10 0.0000000000000000e+00  -1.1698718126176064e-09 -8.4299914868242497e-10 0.0000000000000000e+00  -9.0152392060735819e-10 -9.1083597050312689e-10 0.0000000000000000e+00  -6.2062795097003690e-10 -9.4729268373339790e-10 0.0000000000000000e+00  -3.5735247540924283e-10 -9.4677590601960864e-10 0.0000000000000000e+00  -1.9807646041418704e-10 -7.9129793923285695e-10 0.0000000000000000e+00  -2.2110538466737185e-10 1.3969363256386107e-09 0.0000000000000000e+00  -3.8018214592193908e-10 1.2769342937615386e-09 0.0000000000000000e+00  -6.4734011152039822e-10 1.2483435881198662e-09 0.0000000000000000e+00  -9.2769309513301195e-10 1.1845664831022966e-09 0.0000000000000000e+00  -1.1909349417530722e-09 1.0837086620875636e-09 0.0000000000000000e+00  -1.4267099373718324e-09 9.4980713717430835e-10 0.0000000000000000e+00  -1.6281740106552061e-09 7.8813188420489483e-10 0.0000000000000000e+00  -1.7897492072532111e-09 6.0422325324368962e-10 0.0000000000000000e+00  -1.9070015428666866e-09 4.0376631167198539e-10 0.0000000000000000e+00  -1.9767572789894814e-09 1.9257792407426648e-10 0.0000000000000000e+00  -1.9971821580513648e-09 -2.3425553428950128e-11 0.0000000000000000e+00  -1.9678148432481990e-09 -2.3829115457523680e-10 0.0000000000000000e+00  -1.8895678531675412e-09 -4.4611041073424608e-10 0.0000000000000000e+00  -1.7647005903501237e-09 -6.4110511428692939e-10 0.0000000000000000e+00  -1.5967639021311235e-09 -8.1770651173753902e-10 0.0000000000000000e+00  -1.3905204465925391e-09 -9.7062200179174447e-10 0.0000000000000000e+00  -1.1518972644814333e-09 -1.0949031627117628e-09 0.0000000000000000e+00  -8.8832869306447176e-10 -1.1860874445004897e-09 0.0000000000000000e+00  -6.1134799099190847e-10 -1.2404081827214116e-09 0.0000000000000000e+00  -3.5263788002733134e-10 -1.2538355525523610e-09 0.0000000000000000e+00  -2.0605728939265826e-10 -1.1090294597236800e-09 0.0000000000000000e+00  -2.3810629483655258e-10 1.7182637625032508e-09 0.0000000000000000e+00  -3.8493039060270407e-10 1.5899360460043154e-09 0.0000000000000000e+00  -6.5076548229574636e-10 1.5454986207713386e-09 0.0000000000000000e+00  -9.3151484499290382e-10 1.4611160782439867e-09 0.0000000000000000e+00  -1.1944815912351162e-09 1.3344697321715963e-09 0.0000000000000000e+00  -1.4289805765280224e-09 1.1690501040402541e-09 0.0000000000000000e+00  -1.6285332550196926e-09 9.7032311298413080e-10 0.0000000000000000e+00  -1.7880062807043880e-09 7.4458388531355539e-10 0.0000000000000000e+00  -1.9033016226649257e-09 4.9859025775349073e-10 0.0000000000000000e+00  -1.9714633660404531e-09 2.3939417196693743e-10 0.0000000000000000e+00  -1.9907828486372829e-09 -2.5776810251709804e-11 0.0000000000000000e+00  -1.9608523594008314e-09 -2.8963314098253293e-10 0.0000000000000000e+00  -1.8825748036105043e-09 -5.4494181012559536e-10 0.0000000000000000e+00  -1.7581364264329126e-09 -7.8464978361778114e-10 0.0000000000000000e+00  -1.5909443167784377e-09 -1.0020128101515046e-09 0.0000000000000000e+00  -1.3855390148706604e-09 -1.1907380110831585e-09 0.0000000000000000e+00  -1.1475673038614745e-09 -1.3451682561315775e-09 0.0000000000000000e+00  -8.8427683466702903e-10 -1.4605605725227179e-09 0.0000000000000000e+00  -6.0766986413948406e-10 -1.5332887016479231e-09 0.0000000000000000e+00  -3.5199866072545704e-10 -1.5593441091521372e-09 0.0000000000000000e+00  -2.1892500161235492e-10 -1.4220341605774869e-09 0.0000000000000000e+00  -2.5969084947156200e-10 2.0403245332433822e-09 0.0000000000000000e+00  -3.9371514857199170e-10 1.9044457473830357e-09 0.0000000000000000e+00  -6.5969969112703304e-10 1.8452683304889452e-09 0.0000000000000000e+00  -9.4316168598818826e-10 1.7399059252126377e-09 0.0000000000000000e+00  -1.2087491456021825e-09 1.5864497168951915e-09 0.0000000000000000e+00  -1.4450289759895673e-09 1.3885924448598013e-09 0.0000000000000000e+00  -1.6454702292340387e-09 1.1522080678704533e-09 0.0000000000000000e+00  -1.8051218932553315e-09 8.8432841139513816e-10 0.0000000000000000e+00  -1.9201039401395600e-09 5.9270683381126999e-10 0.0000000000000000e+00  -1.9876386006929469e-09 2.8555272117950804e-10 0.0000000000000000e+00  -2.0061366662252007e-09 -2.8662587313889702e-11 0.0000000000000000e+00  -1.9752507444457659e-09 -3.4137288318898282e-10 0.0000000000000000e+00  -1.8958886881817614e-09 -6.4407722194812753e-10 0.0000000000000000e+00  -1.7701912489696424e-09 -9.2850360178792169e-10 0.0000000000000000e+00  -1.6014780424582295e-09 -1.1867852377861105e-09 0.0000000000000000e+00  -1.3941819839032299e-09 -1.4116625383556834e-09 0.0000000000000000e+00  -1.1538859847145104e-09 -1.5967310559309729e-09 0.0000000000000000e+00  -8.8799839199565915e-10 -1.7367465886235240e-09 0.0000000000000000e+00  -6.0939453170227558e-10 -1.8277265877749950e-09 0.0000000000000000e+00  -3.5523322805174165e-10 -1.8651538871009516e-09 0.0000000000000000e+00  -2.3602084351872442e-10 -1.7321351168525694e-09 0.0000000000000000e+00  -2.8572072500076814e-10 2.3658333141455868e-09 0.0000000000000000e+00  -4.0585624192358244e-10 2.2227210035994147e-09 0.0000000000000000e+00  -6.7299982615576880e-10 2.1494689599013789e-09 0.0000000000000000e+00  -9.6064201913108999e-10 2.0229801615278227e-09 0.0000000000000000e+00  -1.2305193692514815e-09 1.8419513072222835e-09 0.0000000000000000e+00  -1.4703278892681651e-09 1.6106915872496205e-09 0.0000000000000000e+00  -1.6733016352158314e-09 1.3357429090739063e-09 0.0000000000000000e+00  -1.8345101308658255e-09 1.0249687273572503e-09 0.0000000000000000e+00  -1.9501905859269534e-09 6.8712153745693271e-10 0.0000000000000000e+00  -2.0176965480352569e-09 3.3153351026106928e-10 0.0000000000000000e+00  -2.0355435429922686e-09 -3.2127926677674297e-11 0.0000000000000000e+00  -2.0034457919840719e-09 -3.9406967659745323e-10 0.0000000000000000e+00  -1.9223274183709989e-09 -7.4456856701849416e-10 0.0000000000000000e+00  -1.7943084356671945e-09 -1.0741689643853389e-09 0.0000000000000000e+00  -1.6226703634552379e-09 -1.3738962018203898e-09 0.0000000000000000e+00  -1.4118279266812949e-09 -1.6354985337548907e-09 0.0000000000000000e+00  -1.1674388037899677e-09 -1.8517266738700565e-09 0.0000000000000000e+00  -8.9724123539982376e-10 -2.0166358213276366e-09 0.0000000000000000e+00  -6.1513704235858966e-10 -2.1256219274880428e-09 0.0000000000000000e+00  -3.6147585873682933e-10 -2.1735057452804021e-09 0.0000000000000000e+00  -2.5709343427337905e-10 -2.0423683186412986e-09 0.0000000000000000e+00  -3.1618005942218492e-10 2.6963594571112790e-09 0.0000000000000000e+00  -4.2037029347857403e-10 2.5463318281411898e-09 0.0000000000000000e+00  -6.8884730666309309e-10 2.4593104002418841e-09 0.0000000000000000e+00  -9.8121636572970119e-10 2.3114823892189538e-09 0.0000000000000000e+00  -1.2559797240290547e-09 2.1021849726508739e-09 0.0000000000000000e+00  -1.4999246075229739e-09 1.8365566605823163e-09 0.0000000000000000e+00  -1.7060052248756521e-09 1.5220130471910629e-09 0.0000000000000000e+00  -1.8692544762015519e-09 1.1673726047369320e-09 0.0000000000000000e+00  -1.9859841277578684e-09 7.8243417406631393e-10 0.0000000000000000e+00  -2.0536584238183233e-09 3.7764919681200811e-10 0.0000000000000000e+00  -2.0708921736319925e-09 -3.6150102341221586e-11 0.0000000000000000e+00  -2.0374619921682539e-09 -4.4798552677254599e-10 0.0000000000000000e+00  -1.9543111620123781e-09 -8.4694996966514615e-10 0.0000000000000000e+00  -1.8235463590277062e-09 -1.2224259989378394e-09 0.0000000000000000e+00  -1.6484301011745333e-09 -1.5643230653163512e-09 0.0000000000000000e+00  -1.4333967246617133e-09 -1.8633454883795157e-09 0.0000000000000000e+00  -1.1842339033950040e-09 -2.1112933428694933e-09 0.0000000000000000e+00  -9.0906877462895259e-10 -2.3013702074894429e-09 0.0000000000000000e+00  -6.2290370520336985e-10 -2.4282086243285450e-09 0.0000000000000000e+00  -3.6961546660861356e-10 -2.4859305389128748e-09 0.0000000000000000e+00  -2.8206028886127004e-10 -2.3550510660959946e-09 0.0000000000000000e+00  -3.5112560929634784e-10 3.0321694227512472e-09 0.0000000000000000e+00  -4.3605904194052059e-10 2.8758067225343309e-09 0.0000000000000000e+00  -7.0492551586778044e-10 2.7750567272007603e-09 0.0000000000000000e+00  -1.0014568141468384e-09 2.6055395924455890e-09 0.0000000000000000e+00  -1.2805589173901036e-09 2.3672562426409943e-09 0.0000000000000000e+00  -1.5280971879255344e-09 2.0663084866146800e-09 0.0000000000000000e+00  -1.7367791651943109e-09 1.7111420847143601e-09 0.0000000000000000e+00  -1.9016289653315034e-09 1.3116477784733608e-09 0.0000000000000000e+00  -2.0190572428310537e-09 8.7872940025721702e-10 0.0000000000000000e+00  -2.0866617611263643e-09 4.2396395011626801e-10 0.0000000000000000e+00  -2.1031735163106382e-09 -4.0681102936359463e-11 0.0000000000000000e+00  -2.0684366221440366e-09 -5.0308847177589761e-10 0.0000000000000000e+00  -1.9834044634722126e-09 -9.5121016577680539e-10 0.0000000000000000e+00  -1.8501501475869782e-09 -1.3732890932511451e-09 0.0000000000000000e+00  -1.6718927487852122e-09 -1.7581052121985592e-09 0.0000000000000000e+00  -1.4530645839443457e-09 -2.0952605823598025e-09 0.0000000000000000e+00  -1.1995674652657285e-09 -2.3755036968700042e-09 0.0000000000000000e+00  -9.1991078641058517e-10 -2.5910643612393584e-09 0.0000000000000000e+00  -6.3024714768218635e-10 -2.7357158476453159e-09 0.0000000000000000e+00  -3.7835508864328015e-10 -2.8028716726994378e-09 0.0000000000000000e+00  -3.1092118457442690e-10 -2.6713316577058171e-09 0.0000000000000000e+00  -3.9066005046441227e-10 3.3720390645057415e-09 0.0000000000000000e+00  -4.5150213602551225e-10 3.2103783139683075e-09 0.0000000000000000e+00  -7.1842552051024333e-10 3.0957548247971150e-09 0.0000000000000000e+00  -1.0171971090721673e-09 2.9040724004974410e-09 0.0000000000000000e+00  -1.2987557207050465e-09 2.6360587104342003e-09 0.0000000000000000e+00  -1.5480503809251241e-09 2.2989008998746349e-09 0.0000000000000000e+00  -1.7576323342420319e-09 1.9022116237220261e-09 0.0000000000000000e+00  -1.9226185735423420e-09 1.4570601739243626e-09 0.0000000000000000e+00  -2.0396124602888473e-09 9.7550703370360305e-10 0.0000000000000000e+00  -2.1064210065956906e-09 4.7024980066521435e-10 0.0000000000000000e+00  -2.1219393366170482e-09 -4.5657100600160803e-11 0.0000000000000000e+00  -2.0860919090833799e-09 -5.5902713696332987e-10 0.0000000000000000e+00  -1.9998181560422736e-09 -1.0567379963785981e-09 0.0000000000000000e+00  -1.8651016450163160e-09 -1.5259328587528088e-09 0.0000000000000000e+00  -1.6850406871197556e-09 -1.9542579621638588e-09 0.0000000000000000e+00  -1.4639800030896699e-09 -2.3301574298803091e-09 0.0000000000000000e+00  -1.2078549716634833e-09 -2.6432283723352142e-09 0.0000000000000000e+00  -9.2550121781199128e-10 -2.8846080313741676e-09 0.0000000000000000e+00  -6.3425603404241370e-10 -3.0471158735538071e-09 0.0000000000000000e+00  -3.8618930233226057e-10 -3.1234427959550117e-09 0.0000000000000000e+00  -3.4372541183919001e-10 -2.9909992952084851e-09 0.0000000000000000e+00  -4.3491667355715016e-10 3.7130050283472656e-09 0.0000000000000000e+00  -4.6501119401382186e-10 3.5477183415791112e-09 0.0000000000000000e+00  -7.2596941217952091e-10 3.4189500350345707e-09 0.0000000000000000e+00  -1.0233992393973279e-09 3.2045370705674924e-09 0.0000000000000000e+00  -1.3039148183431662e-09 2.9060612682073659e-09 0.0000000000000000e+00  -1.5515836402048337e-09 2.5319443989218106e-09 0.0000000000000000e+00  -1.7589506546242697e-09 2.0931103546433467e-09 0.0000000000000000e+00  -1.9214042086668793e-09 1.6019086282129981e-09 0.0000000000000000e+00  -2.0359110298672736e-09 1.0715909996972454e-09 0.0000000000000000e+00  -2.1006255498347457e-09 5.1593989829498570e-10 0.0000000000000000e+00  -2.1146935647690325e-09 -5.0994520429757753e-11 0.0000000000000000e+00  -2.0781428505306679e-09 -6.1507581332604884e-10 0.0000000000000000e+00  -1.9918559397684911e-09 -1.1622219667900920e-09 0.0000000000000000e+00  -1.8576260864297779e-09 -1.6785549995490332e-09 0.0000000000000000e+00  -1.6782894137072215e-09 -2.1506067697550778e-09 0.0000000000000000e+00  -1.4579441330028075e-09 -2.5656144622739611e-09 0.0000000000000000e+00  -1.2024091986849095e-09 -2.9119155860297833e-09 0.0000000000000000e+00  -9.2073943131808616e-10 -3.1794158226054979e-09 0.0000000000000000e+00  -6.3147036431285513e-10 -3.3598583654714471e-09 0.0000000000000000e+00  -3.9135140269244041e-10 -3.4451776901038891e-09 0.0000000000000000e+00  -3.8055526644585808e-10 -3.3122883907362218e-09 0.0000000000000000e+00  -4.8405181168822341e-10 4.0500419122175850e-09 0.0000000000000000e+00  -4.7456414086803568e-10 3.8836224853003932e-09 0.0000000000000000e+00  -7.2348628365331361e-10 3.7403529659679863e-09 0.0000000000000000e+00  -1.0139576193382849e-09 3.5025945308136232e-09 0.0000000000000000e+00  -1.2879398684980928e-09 3.1729980438996136e-09 0.0000000000000000e+00  -1.5286999126552844e-09 2.7614268337998115e-09 0.0000000000000000e+00  -1.7290024451625670e-09 2.2802923854579172e-09 0.0000000000000000e+00  -1.8847787908914546e-09 1.7433303843623939e-09 0.0000000000000000e+00  -1.9936227300143511e-09 1.1649939374041582e-09 0.0000000000000000e+00  -2.0542507826098117e-09 5.6006309336676555e-10 0.0000000000000000e+00  -2.0661937240789863e-09 -5.6579278309863599e-11 0.0000000000000000e+00  -2.0296178655941665e-09 -6.7004794451766336e-10 0.0000000000000000e+00  -1.9452813684786588e-09 -1.2654950521773922e-09 0.0000000000000000e+00  -1.8146291618377240e-09 -1.8281643220444998e-09 0.0000000000000000e+00  -1.6400128819887312e-09 -2.3435320553136047e-09 0.0000000000000000e+00  -1.4250342265609511e-09 -2.7975888696869032e-09 0.0000000000000000e+00  -1.1751605320636789e-09 -3.1772841184510519e-09 0.0000000000000000e+00  -8.9949506771814474e-10 -3.4711090131492122e-09 0.0000000000000000e+00  -6.1775393682149143e-10 -3.6695536862791581e-09 0.0000000000000000e+00  -3.9174325784414644e-10 -3.7637288515322580e-09 0.0000000000000000e+00  -4.2151599883115350e-10 -3.6316225297393457e-09 0.0000000000000000e+00  -5.3824521628944394e-10 4.3756535528626514e-09 0.0000000000000000e+00  -4.7772663773659602e-10 4.2116237450177290e-09 0.0000000000000000e+00  -7.0605406786885610e-10 4.0534336412418547e-09 0.0000000000000000e+00  -9.8144970834260789e-10 3.7916931346848659e-09 0.0000000000000000e+00  -1.2409384789891763e-09 3.4304562180585391e-09 0.0000000000000000e+00  -1.4671