<?xml version="1.0"?>
<VTKFile type="UnstructuredGrid"  version="0.1"  >
<UnstructuredGrid>
<Piece  NumberOfPoints="651" NumberOfCells="1200">
<Points>
<DataArray  type="Float64"  NumberOfComponents="3"  format="ascii">0 0 0  50000 0 0  100000 0 0  150000 0 0  200000 0 0  250000 0 0  300000 0 0  350000 0 0  400000 0 0  450000 0 0  500000 0 0  550000 0 0  600000 0 0  650000 0 0  700000 0 0  750000 0 0  800000 0 0  850000 0 0  900000 0 0  950000 0 0  1000000 0 0  0 50000 0  50000 50000 0  100000 50000 0  150000 50000 0  200000 50000 0  250000 50000 0  300000 50000 0  350000 50000 0  400000 50000 0  450000 50000 0  500000 50000 0  550000 50000 0  600000 50000 0  650000 50000 0  700000 50000 0  750000 50000 0  800000 50000 0  850000 50000 0  900000 50000 0  950000 50000 0  1000000 50000 0  0 100000 0  50000 100000 0  100000 100000 0  150000 100000 0  200000 100000 0  250000 100000 0  300000 100000 0  350000 100000 0  400000 100000 0  450000 100000 0  500000 100000 0  550000 100000 0  600000 100000 0  650000 100000 0  700000 100000 0  750000 100000 0  800000 100000 0  850000 100000 0  900000 100000 0  950000 100000 0  1000000 100000 0  0 150000 0  50000 150000 0  100000 150000 0  150000 150000 0  200000 150000 0  250000 150000 0  300000 150000 0  350000 150000 0  400000 150000 0  450000 150000 0  500000 150000 0  550000 150000 0  600000 150000 0  650000 150000 0  700000 150000 0  750000 150000 0  800000 150000 0  850000 150000 0  900000 150000 0  950000 150000 0  1000000 150000 0  0 200000 0  50000 200000 0  100000 200000 0  150000 200000 0  200000 200000 0  250000 200000 0  300000 200000 0  350000 200000 0  400000 200000 0  450000 200000 0  500000 200000 0  550000 200000 0  600000 200000 0  650000 200000 0  700000 200000 0  750000 200000 0  800000 200000 0  850000 200000 0  900000 200000 0  950000 200000 0  1000000 200000 0  0 250000 0  50000 250000 0  100000 250000 0  150000 250000 0  200000 250000 0  250000 250000 0  300000 250000 0  350000 250000 0  400000 250000 0  450000 250000 0  500000 250000 0  550000 250000 0  600000 250000 0  650000 250000 0  700000 250000 0  750000 250000 0  800000 250000 0  850000 250000 0  900000 250000 0  950000 250000 0  1000000 250000 0  0 300000 0  50000 300000 0  100000 300000 0  150000 300000 0  200000 300000 0  250000 300000 0  300000 300000 0  350000 300000 0  400000 300000 0  450000 300000 0  500000 300000 0  550000 300000 0  600000 300000 0  650000 300000 0  700000 300000 0  750000 300000 0  800000 300000 0  850000 300000 0  900000 300000 0  950000 300000 0  1000000 300000 0  0 350000 0  50000 350000 0  100000 350000 0  150000 350000 0  200000 350000 0  250000 350000 0  300000 350000 0  350000 350000 0  400000 350000 0  450000 350000 0  500000 350000 0  550000 350000 0  600000 350000 0  650000 350000 0  700000 350000 0  750000 350000 0  800000 350000 0  850000 350000 0  900000 350000 0  950000 350000 0  1000000 350000 0  0 400000 0  50000 400000 0  100000 400000 0  150000 400000 0  200000 400000 0  250000 400000 0  300000 400000 0  350000 400000 0  400000 400000 0  450000 400000 0  500000 400000 0  550000 400000 0  600000 400000 0  650000 400000 0  700000 400000 0  750000 400000 0  800000 400000 0  850000 400000 0  900000 400000 0  950000 400000 0  1000000 400000 0  0 450000 0  50000 450000 0  100000 450000 0  150000 450000 0  200000 450000 0  250000 450000 0  300000 450000 0  350000 450000 0  400000 450000 0  450000 450000 0  500000 450000 0  550000 450000 0  600000 450000 0  650000 450000 0  700000 450000 0  750000 450000 0  800000 450000 0  850000 450000 0  900000 450000 0  950000 450000 0  1000000 450000 0  0 500000 0  50000 500000 0  100000 500000 0  150000 500000 0  200000 500000 0  250000 500000 0  300000 500000 0  350000 500000 0  400000 500000 0  450000 500000 0  500000 500000 0  550000 500000 0  600000 500000 0  650000 500000 0  700000 500000 0  750000 500000 0  800000 500000 0  850000 500000 0  900000 500000 0  950000 500000 0  1000000 500000 0  0 550000 0  50000 550000 0  100000 550000 0  150000 550000 0  200000 550000 0  250000 550000 0  300000 550000 0  350000 550000 0  400000 550000 0  450000 550000 0  500000 550000 0  550000 550000 0  600000 550000 0  650000 550000 0  700000 550000 0  750000 550000 0  800000 550000 0  850000 550000 0  900000 550000 0  950000 550000 0  1000000 550000 0  0 600000 0  50000 600000 0  100000 600000 0  150000 600000 0  200000 600000 0  250000 600000 0  300000 600000 0  350000 600000 0  400000 600000 0  450000 600000 0  500000 600000 0  550000 600000 0  600000 600000 0  650000 600000 0  700000 600000 0  750000 600000 0  800000 600000 0  850000 600000 0  900000 600000 0  950000 600000 0  1000000 600000 0  0 650000 0  50000 650000 0  100000 650000 0  150000 650000 0  200000 650000 0  250000 650000 0  300000 650000 0  350000 650000 0  400000 650000 0  450000 650000 0  500000 650000 0  550000 650000 0  600000 650000 0  650000 650000 0  700000 650000 0  750000 650000 0  800000 650000 0  850000 650000 0  900000 650000 0  950000 650000 0  1000000 650000 0  0 700000 0  50000 700000 0  100000 700000 0  150000 700000 0  200000 700000 0  250000 700000 0  300000 700000 0  350000 700000 0  400000 700000 0  450000 700000 0  500000 700000 0  550000 700000 0  600000 700000 0  650000 700000 0  700000 700000 0  750000 700000 0  800000 700000 0  850000 700000 0  900000 700000 0  950000 700000 0  1000000 700000 0  0 750000 0  50000 750000 0  100000 750000 0  150000 750000 0  200000 750000 0  250000 750000 0  300000 750000 0  350000 750000 0  400000 750000 0  450000 750000 0  500000 750000 0  550000 750000 0  600000 750000 0  650000 750000 0  700000 750000 0  750000 750000 0  800000 750000 0  850000 750000 0  900000 750000 0  950000 750000 0  1000000 750000 0  0 800000 0  50000 800000 0  100000 800000 0  150000 800000 0  200000 800000 0  250000 800000 0  300000 800000 0  350000 800000 0  400000 800000 0  450000 800000 0  500000 800000 0  550000 800000 0  600000 800000 0  650000 800000 0  700000 800000 0  750000 800000 0  800000 800000 0  850000 800000 0  900000 800000 0  950000 800000 0  1000000 800000 0  0 850000 0  50000 850000 0  100000 850000 0  150000 850000 0  200000 850000 0  250000 850000 0  300000 850000 0  350000 850000 0  400000 850000 0  450000 850000 0  500000 850000 0  550000 850000 0  600000 850000 0  650000 850000 0  700000 850000 0  750000 850000 0  800000 850000 0  850000 850000 0  900000 850000 0  950000 850000 0  1000000 850000 0  0 900000 0  50000 900000 0  100000 900000 0  150000 900000 0  200000 900000 0  250000 900000 0  300000 900000 0  350000 900000 0  400000 900000 0  450000 900000 0  500000 900000 0  550000 900000 0  600000 900000 0  650000 900000 0  700000 900000 0  750000 900000 0  800000 900000 0  850000 900000 0  900000 900000 0  950000 900000 0  1000000 900000 0  0 950000 0  50000 950000 0  100000 950000 0  150000 950000 0  200000 950000 0  250000 950000 0  300000 950000 0  350000 950000 0  400000 950000 0  450000 950000 0  500000 950000 0  550000 950000 0  600000 950000 0  650000 950000 0  700000 950000 0  750000 950000 0  800000 950000 0  850000 950000 0  900000 950000 0  950000 950000 0  1000000 950000 0  0 1000000 0  50000 1000000 0  100000 1000000 0  150000 1000000 0  200000 1000000 0  250000 1000000 0  300000 1000000 0  350000 1000000 0  400000 1000000 0  450000 1000000 0  500000 1000000 0  550000 1000000 0  600000 1000000 0  650000 1000000 0  700000 1000000 0  750000 1000000 0  800000 1000000 0  850000 1000000 0  900000 1000000 0  950000 1000000 0  1000000 1000000 0  0 1050000 0  50000 1050000 0  100000 1050000 0  150000 1050000 0  200000 1050000 0  250000 1050000 0  300000 1050000 0  350000 1050000 0  400000 1050000 0  450000 1050000 0  500000 1050000 0  550000 1050000 0  600000 1050000 0  650000 1050000 0  700000 1050000 0  750000 1050000 0  800000 1050000 0  850000 1050000 0  900000 1050000 0  950000 1050000 0  1000000 1050000 0  0 1100000 0  50000 1100000 0  100000 1100000 0  150000 1100000 0  200000 1100000 0  250000 1100000 0  300000 1100000 0  350000 1100000 0  400000 1100000 0  450000 1100000 0  500000 1100000 0  550000 1100000 0  600000 1100000 0  650000 1100000 0  700000 1100000 0  750000 1100000 0  800000 1100000 0  850000 1100000 0  900000 1100000 0  950000 1100000 0  1000000 1100000 0  0 1150000 0  50000 1150000 0  100000 1150000 0  150000 1150000 0  200000 1150000 0  250000 1150000 0  300000 1150000 0  350000 1150000 0  400000 1150000 0  450000 1150000 0  500000 1150000 0  550000 1150000 0  600000 1150000 0  650000 1150000 0  700000 1150000 0  750000 1150000 0  800000 1150000 0  850000 1150000 0  900000 1150000 0  950000 1150000 0  1000000 1150000 0  0 1200000 0  50000 1200000 0  100000 1200000 0  150000 1200000 0  200000 1200000 0  250000 1200000 0  300000 1200000 0  350000 1200000 0  400000 1200000 0  450000 1200000 0  500000 1200000 0  550000 1200000 0  600000 1200000 0  650000 1200000 0  700000 1200000 0  750000 1200000 0  800000 1200000 0  850000 1200000 0  900000 1200000 0  950000 1200000 0  1000000 1200000 0  0 1250000 0  50000 1250000 0  100000 1250000 0  150000 1250000 0  200000 1250000 0  250000 1250000 0  300000 1250000 0  350000 1250000 0  400000 1250000 0  450000 1250000 0  500000 1250000 0  550000 1250000 0  600000 1250000 0  650000 1250000 0  700000 1250000 0  750000 1250000 0  800000 1250000 0  850000 1250000 0  900000 1250000 0  950000 1250000 0  1000000 1250000 0  0 1300000 0  50000 1300000 0  100000 1300000 0  150000 1300000 0  200000 1300000 0  250000 1300000 0  300000 1300000 0  350000 1300000 0  400000 1300000 0  450000 1300000 0  500000 1300000 0  550000 1300000 0  600000 1300000 0  650000 1300000 0  700000 1300000 0  750000 1300000 0  800000 1300000 0  850000 1300000 0  900000 1300000 0  950000 1300000 0  1000000 1300000 0  0 1350000 0  50000 1350000 0  100000 1350000 0  150000 1350000 0  200000 1350000 0  250000 1350000 0  300000 1350000 0  350000 1350000 0  400000 1350000 0  450000 1350000 0  500000 1350000 0  550000 1350000 0  600000 1350000 0  650000 1350000 0  700000 135
[...]
<PointData  Vectors="f_4485"> 
<DataArray  type="Float64"  Name="f_4485"  NumberOfComponents="3" format="ascii">-2.4493268102180437e-10 2.1805524435509340e-10 0.0000000000000000e+00  -4.5033514764421616e-10 1.7903327064896043e-10 0.0000000000000000e+00  -8.1496293285638139e-10 1.6335893317266453e-10 0.0000000000000000e+00  -1.1671056507170653e-09 1.4953666020036392e-10 0.0000000000000000e+00  -1.4894833368023043e-09 1.3314657479418249e-10 0.0000000000000000e+00  -1.7727186391818592e-09 1.1379187299358919e-10 0.0000000000000000e+00  -2.0091885133307800e-09 9.1709504598402098e-11 0.0000000000000000e+00  -2.1927257322992006e-09 6.7350220408829239e-11 0.0000000000000000e+00  -2.3186142638073838e-09 4.1285054283929727e-11 0.0000000000000000e+00  -2.3836739354083705e-09 1.4155762008876568e-11 0.0000000000000000e+00  -2.3863294480056355e-09 -1.3357725513554999e-11 0.0000000000000000e+00  -2.3266436345988227e-09 -4.0562596042889967e-11 0.0000000000000000e+00  -2.2063113972798749e-09 -6.6775694199269784e-11 0.0000000000000000e+00  -2.0286144416514719e-09 -9.1345641337690873e-11 0.0000000000000000e+00  -1.7983449296196277e-09 -1.1367763081478577e-10 0.0000000000000000e+00  -1.5217477212924366e-09 -1.3327137791563164e-10 0.0000000000000000e+00  -1.2067417696952645e-09 -1.4981123454251007e-10 0.0000000000000000e+00  -8.6461431006352545e-10 -1.6341737103725811e-10 0.0000000000000000e+00  -5.1802723276950614e-10 -1.7440151643938677e-10 0.0000000000000000e+00  -2.3502705087395510e-10 -1.6928105539705081e-10 0.0000000000000000e+00  -1.1589072297696144e-10 -1.0722035801865118e-10 0.0000000000000000e+00  -2.0812266352066534e-10 4.0718555372439358e-10 0.0000000000000000e+00  -3.7284683772131438e-10 3.6639911345990575e-10 0.0000000000000000e+00  -6.6058516546318347e-10 3.7603232445423338e-10 0.0000000000000000e+00  -9.8018142650605070e-10 3.5754487783753787e-10 0.0000000000000000e+00  -1.2845876691375070e-09 3.2529093455248117e-10 0.0000000000000000e+00  -1.5583220273854866e-09 2.8301401940591848e-10 0.0000000000000000e+00  -1.7926201928732054e-09 2.3275405294955419e-10 0.0000000000000000e+00  -1.9807869525806823e-09 1.7618928445936003e-10 0.0000000000000000e+00  -2.1176817668669152e-09 1.1496207137275746e-10 0.0000000000000000e+00  -2.1996764739952689e-09 5.0757446287943452e-11 0.0000000000000000e+00  -2.2246729401132110e-09 -1.4696969880168475e-11 0.0000000000000000e+00  -2.1921234471972817e-09 -7.9656255018364200e-11 0.0000000000000000e+00  -2.1030336341736144e-09 -1.4239086470104539e-10 0.0000000000000000e+00  -1.9599428248259192e-09 -2.0121916343729481e-10 0.0000000000000000e+00  -1.7668894076812127e-09 -2.5453320256876068e-10 0.0000000000000000e+00  -1.5293967036662790e-09 -3.0080539987543560e-10 0.0000000000000000e+00  -1.2546160254131880e-09 -3.3853425049946657e-10 0.0000000000000000e+00  -9.5219830707421502e-10 -3.6589907179131012e-10 0.0000000000000000e+00  -6.3833264397171669e-10 -3.7867343050166470e-10 0.0000000000000000e+00  -3.5321126689383421e-10 -3.6074629559877930e-10 0.0000000000000000e+00  -1.8382954075242354e-10 -2.1753586192880181e-10 0.0000000000000000e+00  -2.0318963073376241e-10 7.4316866589476114e-10 0.0000000000000000e+00  -3.8058896810489943e-10 6.5143398817935922e-10 0.0000000000000000e+00  -6.5501157536961437e-10 6.5650129478954265e-10 0.0000000000000000e+00  -9.4847510935642965e-10 6.2749744028587871e-10 0.0000000000000000e+00  -1.2293940626404061e-09 5.7395162173984791e-10 0.0000000000000000e+00  -1.4836633747333216e-09 5.0167006164690155e-10 0.0000000000000000e+00  -1.7020293465112801e-09 4.1459036435843612e-10 0.0000000000000000e+00  -1.8777612301329017e-09 3.1593524047372286e-10 0.0000000000000000e+00  -2.0058188326693238e-09 2.0875183506752165e-10 0.0000000000000000e+00  -2.0826771990508736e-09 9.6096630809045133e-11 0.0000000000000000e+00  -2.1063058830999389e-09 -1.8929545490681767e-11 0.0000000000000000e+00  -2.0761709795955766e-09 -1.3320502477026761e-10 0.0000000000000000e+00  -1.9932311575262493e-09 -2.4363056902286108e-10 0.0000000000000000e+00  -1.8599211137554470e-09 -3.4717279867737053e-10 0.0000000000000000e+00  -1.6801285328109662e-09 -4.4088972069499307e-10 0.0000000000000000e+00  -1.4591946607755408e-09 -5.2190609633198018e-10 0.0000000000000000e+00  -1.2040462942576010e-09 -5.8725752642865376e-10 0.0000000000000000e+00  -9.2386038439857384e-10 -6.3337954130949449e-10 0.0000000000000000e+00  -6.3277382376772087e-10 -6.5463889249238374e-10 0.0000000000000000e+00  -3.6321534056629828e-10 -6.4073734302397467e-10 0.0000000000000000e+00  -1.9508933919650591e-10 -4.7620082254538405e-10 0.0000000000000000e+00  -2.0933083466332618e-10 1.0741494074974404e-09 0.0000000000000000e+00  -3.7951690201408987e-10 9.6394657309937171e-10 0.0000000000000000e+00  -6.4963681961005397e-10 9.5190288487547015e-10 0.0000000000000000e+00  -9.3326613812984120e-10 9.0710838000937579e-10 0.0000000000000000e+00  -1.2015251414003218e-09 8.3062246087812901e-10 0.0000000000000000e+00  -1.4432445853435957e-09 7.2760985035417122e-10 0.0000000000000000e+00  -1.6505963413747397e-09 6.0298664803293283e-10 0.0000000000000000e+00  -1.8173471753653722e-09 4.6130556170679109e-10 0.0000000000000000e+00  -1.9386969805613369e-09 3.0701358359712185e-10 0.0000000000000000e+00  -2.0112687845211146e-09 1.4458663040258588e-10 0.0000000000000000e+00  -2.0331185239806393e-09 -2.1443079684235207e-11 0.0000000000000000e+00  -2.0037428436216554e-09 -1.8651872944740584e-10 0.0000000000000000e+00  -1.9240741124143651e-09 -3.4611534476382705e-10 0.0000000000000000e+00  -1.7964591172734541e-09 -4.9579848465577081e-10 0.0000000000000000e+00  -1.6246226585359168e-09 -6.3126529957144722e-10 0.0000000000000000e+00  -1.4136281959054792e-09 -7.4834225107217405e-10 0.0000000000000000e+00  -1.1698945387261960e-09 -8.4290417087719477e-10 0.0000000000000000e+00  -9.0155972134341858e-10 -9.1069831673693020e-10 0.0000000000000000e+00  -6.2066421760239041e-10 -9.4710171917227198e-10 0.0000000000000000e+00  -3.5732358687356952e-10 -9.4656190500140351e-10 0.0000000000000000e+00  -1.9749660532091306e-10 -7.9091745628022571e-10 0.0000000000000000e+00  -2.2148585859464712e-10 1.3982516670521208e-09 0.0000000000000000e+00  -3.8019504765104654e-10 1.2776691040267406e-09 0.0000000000000000e+00  -6.4748715474299648e-10 1.2483348529515230e-09 0.0000000000000000e+00  -9.2796098750729281e-10 1.1842788661606345e-09 0.0000000000000000e+00  -1.1912704011856278e-09 1.0833423527334099e-09 0.0000000000000000e+00  -1.4270545636658432e-09 9.4944994077835380e-10 0.0000000000000000e+00  -1.6284925108382506e-09 7.8781816310151944e-10 0.0000000000000000e+00  -1.7900266305796251e-09 6.0396342098607382e-10 0.0000000000000000e+00  -1.9072352925528539e-09 4.0356055421665349e-10 0.0000000000000000e+00  -1.9769511729353703e-09 1.9242244203358011e-10 0.0000000000000000e+00  -1.9973428865798252e-09 -2.3535741263756029e-11 0.0000000000000000e+00  -1.9679500451631846e-09 -2.3836093200861962e-10 0.0000000000000000e+00  -1.8896851201780933e-09 -4.4614391125336368e-10 0.0000000000000000e+00  -1.7648069427389047e-09 -6.4110527228236811e-10 0.0000000000000000e+00  -1.5968654230035567e-09 -8.1767463182730564e-10 0.0000000000000000e+00  -1.3906217831079678e-09 -9.7055733375426437e-10 0.0000000000000000e+00  -1.1520005552598276e-09 -1.0948027416725637e-09 0.0000000000000000e+00  -8.8843067334811019e-10 -1.1859471666798315e-09 0.0000000000000000e+00  -6.1142888080089426e-10 -1.2402281147928518e-09 0.0000000000000000e+00  -3.5263247407094342e-10 -1.2536637783047282e-09 0.0000000000000000e+00  -2.0549585507650767e-10 -1.1087150109702717e-09 0.0000000000000000e+00  -2.3858484164032513e-10 1.7194592746696174e-09 0.0000000000000000e+00  -3.8491274741568978e-10 1.5907147382431199e-09 0.0000000000000000e+00  -6.5079973566541089e-10 1.5456134971112296e-09 0.0000000000000000e+00  -9.3163940870793722e-10 1.4609191489138979e-09 0.0000000000000000e+00  -1.1946879766755566e-09 1.3341413073150842e-09 0.0000000000000000e+00  -1.4292327316295342e-09 1.1686915455372585e-09 0.0000000000000000e+00  -1.6287991966677235e-09 9.6998600660326397e-10 0.0000000000000000e+00  -1.7882655457066736e-09 7.4429153038343162e-10 0.0000000000000000e+00  -1.9035439891077286e-09 4.9835084721555765e-10 0.0000000000000000e+00  -1.9716856399084715e-09 2.3920831425485780e-10 0.0000000000000000e+00  -1.9909860220239546e-09 -2.5911998541965701e-11 0.0000000000000000e+00  -1.9610395824352407e-09 -2.8972184355781738e-10 0.0000000000000000e+00  -1.8827500302547591e-09 -5.4498830966872473e-10 0.0000000000000000e+00  -1.7583034785579843e-09 -7.8465775911971802e-10 0.0000000000000000e+00  -1.5911061157310846e-09 -1.0019849111197968e-09 0.0000000000000000e+00  -1.3856967365055937e-09 -1.1906757007829659e-09 0.0000000000000000e+00  -1.1477191344202657e-09 -1.3450721814603044e-09 0.0000000000000000e+00  -8.8441537576555287e-10 -1.4604322934613798e-09 0.0000000000000000e+00  -6.0777255833572170e-10 -1.5331362321401554e-09 0.0000000000000000e+00  -3.5200652367519506e-10 -1.5592277535991473e-09 0.0000000000000000e+00  -2.1838870039631746e-10 -1.4217872017424366e-09 0.0000000000000000e+00  -2.6025539268044308e-10 2.0413891505032830e-09 0.0000000000000000e+00  -3.9367966631927763e-10 1.9052115066282569e-09 0.0000000000000000e+00  -6.5965282797516462e-10 1.8454606046072367e-09 0.0000000000000000e+00  -9.4317169961808852e-10 1.7397956533447807e-09 0.0000000000000000e+00  -1.2088352182311606e-09 1.5861837098972675e-09 0.0000000000000000e+00  -1.4451762400858652e-09 1.3882672035749854e-09 0.0000000000000000e+00  -1.6456567083492437e-09 1.1518816771916993e-09 0.0000000000000000e+00  -1.8053287800732855e-09 8.8403263617944514e-10 0.0000000000000000e+00  -1.9203183290547440e-09 5.9245687150033994e-10 0.0000000000000000e+00  -1.9878530155483866e-09 2.8535400744555199e-10 0.0000000000000000e+00  -2.0063476121734205e-09 -2.8810028173082013e-11 0.0000000000000000e+00  -1.9754572105887722e-09 -3.4147178943143159e-10 0.0000000000000000e+00  -1.8960908773457900e-09 -6.4413152105339194e-10 0.0000000000000000e+00  -1.7703895302082600e-09 -9.2851750109418381e-10 0.0000000000000000e+00  -1.6016720222665231e-09 -1.1867627670052878e-09 0.0000000000000000e+00  -1.3943695652241949e-09 -1.4116075109256756e-09 0.0000000000000000e+00  -1.1540622252721750e-09 -1.5966476207697879e-09 0.0000000000000000e+00  -8.8815341341342405e-10 -1.7366410074473519e-09 0.0000000000000000e+00  -6.0950526323049906e-10 -1.8276124544335187e-09 0.0000000000000000e+00  -3.5524888132173640e-10 -1.8651004279527761e-09 0.0000000000000000e+00  -2.3551591169796017e-10 -1.7319560251728279e-09 0.0000000000000000e+00  -2.8635763330000973e-10 2.3667574758439176e-09 0.0000000000000000e+00  -4.0580976345443966e-10 2.2234372948941556e-09 0.0000000000000000e+00  -6.7289347332057790e-10 2.1496997899852988e-09 0.0000000000000000e+00  -9.6056309391816488e-10 2.0229386072866531e-09 0.0000000000000000e+00  -1.2305032472809112e-09 1.8417518786515193e-09 0.0000000000000000e+00  -1.4703754913809503e-09 1.6104175190001595e-09 0.0000000000000000e+00  -1.6734016599258914e-09 1.3354504849024588e-09 0.0000000000000000e+00  -1.8346487300319017e-09 1.0246928562633375e-09 0.0000000000000000e+00  -1.9503556366897902e-09 6.8688174209065299e-10 0.0000000000000000e+00  -2.0178789524488377e-09 3.3133903508214385e-10 0.0000000000000000e+00  -2.0357370595242876e-09 -3.2274319981962365e-11 0.0000000000000000e+00  -2.0036462773407584e-09 -3.9416911383182357e-10 0.0000000000000000e+00  -1.9225319097913263e-09 -7.4462438711821997e-10 0.0000000000000000e+00  -1.7945142374400666e-09 -1.0741857125719096e-09 0.0000000000000000e+00  -1.6228741699931215e-09 -1.3738791300930099e-09 0.0000000000000000e+00  -1.4120249623967643e-09 -1.6354535589036556e-09 0.0000000000000000e+00  -1.1676218908953617e-09 -1.8516608843692476e-09 0.0000000000000000e+00  -8.9739914972307075e-10 -2.0165590428724337e-09 0.0000000000000000e+00  -6.1524725907967938e-10 -2.1255515529163709e-09 0.0000000000000000e+00  -3.6149638087499418e-10 -2.1735177325181812e-09 0.0000000000000000e+00  -2.5662546144720890e-10 -2.0422564686361658e-09 0.0000000000000000e+00  -3.1687406201157323e-10 2.6971355942613794e-09 0.0000000000000000e+00  -4.2031677424996278e-10 2.5469736372178546e-09 0.0000000000000000e+00  -6.8869695834136867e-10 2.4595504899243777e-09 0.0000000000000000e+00  -9.8106953533805662e-10 2.3114896369270599e-09 0.0000000000000000e+00  -1.2558807970551672e-09 2.1020464645337614e-09 0.0000000000000000e+00  -1.4998851236910286e-09 1.8363399703801734e-09 0.0000000000000000e+00  -1.7060228094944381e-09 1.5217679264429636e-09 0.0000000000000000e+00  -1.8693209706834161e-09 1.1671328791955066e-09 0.0000000000000000e+00  -1.9860899877052371e-09 7.8222080767181373e-10 0.0000000000000000e+00  -2.0537948385541568e-09 3.7747359268338958e-10 0.0000000000000000e+00  -2.0710517615978286e-09 -3.6283242583251758e-11 0.0000000000000000e+00  -2.0376387009923020e-09 -4.4807601378682522e-10 0.0000000000000000e+00  -1.9544997794284096e-09 -8.4700059001770643e-10 0.0000000000000000e+00  -1.8237418619194579e-09 -1.2224415334611360e-09 0.0000000000000000e+00  -1.6486269578746910e-09 -1.5643097707362720e-09 0.0000000000000000e+00  -1.4335882064114180e-09 -1.8633109963703606e-09 0.0000000000000000e+00  -1.1844113748435422e-09 -2.1112470244330459e-09 0.0000000000000000e+00  -9.0922038770793005e-10 -2.3013244638600339e-09 0.0000000000000000e+00  -6.2300794483887592e-10 -2.4281834170153885e-09 0.0000000000000000e+00  -3.6963920528162274e-10 -2.4860071824010857e-09 0.0000000000000000e+00  -2.8163412566649205e-10 -2.3550048918781482e-09 0.0000000000000000e+00  -3.5186005860761765e-10 3.0327925008095098e-09 0.0000000000000000e+00  -4.3600113335475749e-10 2.8763570881641494e-09 0.0000000000000000e+00  -7.0474322325741984e-10 2.7752844745586583e-09 0.0000000000000000e+00  -1.0012594470316557e-09 2.6055777733720988e-09 0.0000000000000000e+00  -1.2803953669405589e-09 2.3671691403422544e-09 0.0000000000000000e+00  -1.5279856256357359e-09 2.0661483627736256e-09 0.0000000000000000e+00  -1.7367238565196758e-09 1.7109500667050570e-09 0.0000000000000000e+00  -1.9016268964815641e-09 1.3114539034164109e-09 0.0000000000000000e+00  -2.0191020435574207e-09 8.7855373913837315e-10 0.0000000000000000e+00  -2.0867460162379856e-09 4.2381840474902267e-10 0.0000000000000000e+00  -2.1032899117353938e-09 -4.0790920266379063e-11 0.0000000000000000e+00  -2.0685783082128333e-09 -5.0316161143722816e-10 0.0000000000000000e+00  -1.9835649450591332e-09 -9.5124909203571762e-10 0.0000000000000000e+00  -1.8503229197468112e-09 -1.3732988261220075e-09 0.0000000000000000e+00  -1.6720708222372412e-09 -1.7580928308044353e-09 0.0000000000000000e+00  -1.4532399922798119e-09 -2.0952350626121762e-09 0.0000000000000000e+00  -1.1997307516217405e-09 -2.3754761216838310e-09 0.0000000000000000e+00  -9.2004994599836337e-10 -2.5910489685264942e-09 0.0000000000000000e+00  -6.3034188319445543e-10 -2.7357343875756312e-09 0.0000000000000000e+00  -3.7838106323646740e-10 -2.8030099264555618e-09 0.0000000000000000e+00  -3.1054087749277259e-10 -2.6713487297582406e-09 0.0000000000000000e+00  -3.9141741611514559e-10 3.3725070594796770e-09 0.0000000000000000e+00  -4.5144196358493030e-10 3.2108265157001481e-09 0.0000000000000000e+00  -7.1822147267548163e-10 3.0959546276308207e-09 0.0000000000000000e+00  -1.0169639972726854e-09 2.9041266230268476e-09 0.0000000000000000e+00  -1.2985440032976461e-09 2.6360125585486944e-09 0.0000000000000000e+00  -1.5478819878512673e-09 2.2987926723151443e-09 0.0000000000000000e+00  -1.7575160870320328e-09 1.9020733025972483e-09 0.0000000000000000e+00  -1.9225555991084704e-09 1.4569165788857063e-09 0.0000000000000000e+00  -2.0395994760253025e-09 9.7537575623760965e-10 0.0000000000000000e+00  -2.1064524921279871e-09 4.7014189295341398e-10 0.0000000000000000e+00  -2.1220088301750188e-09 -4.5736096057527856e-11 0.0000000000000000e+00  -2.0861926354649703e-09 -5.5907613432437526e-10 0.0000000000000000e+00  -1.9999431930349145e-09 -1.0567594657041602e-09 0.0000000000000000e+00  -1.8652438049824331e-09 -1.5259321505558056e-09 0.0000000000000000e+00  -1.6851922514872564e-09 -1.9542428726417252e-09 0.0000000000000000e+00  -1.4641324080724175e-09 -2.3301380027610401e-09 0.0000000000000000e+00  -1.2079984519881506e-09 -2.6432169864004433e-09 0.0000000000000000e+00  -9.2562393885747501e-10 -2.8846202708244386e-09 0.0000000000000000e+00  -6.3433903699383547e-10 -3.0471748227878343e-09 0.0000000000000000e+00  -3.8621692084687213e-10 -3.1236380684510146e-09 0.0000000000000000e+00  -3.4339415566351449e-10 -2.9910764073961284e-09 0.0000000000000000e+00  -4.3567920202456254e-10 3.7133192575664596e-09 0.0000000000000000e+00  -4.6495069223121119e-10 3.5480587964122297e-09 0.0000000000000000e+00  -7.2575271289010079e-10 3.4191110138275801e-09 0.0000000000000000e+00  -1.0231433371910465e-09 3.2045953303352844e-09 0.0000000000000000e+00  -1.3036696937144092e-09 2.9060459356518631e-09 0.0000000000000000e+00  -1.5513729486917259e-09 2.5318814346314981e-09 0.0000000000000000e+00  -1.7587860923002628e-09 2.0930229152328085e-09 0.0000000000000000e+00  -1.9212899914681350e-09 1.6018157784161631e-09 0.0000000000000000e+00  -2.0358465633450131e-09 1.0715069407846995e-09 0.0000000000000000e+00  -2.1006073209896131e-09 5.1587389265889604e-10 0.0000000000000000e+00  -2.1147164059251853e-09 -5.1037786791346671e-11 0.0000000000000000e+00  -2.0782006758826219e-09 -6.1509568521563418e-10 0.0000000000000000e+00  -1.9919420795063831e-09 -1.1622212643644853e-09 0.0000000000000000e+00  -1.8577333462098992e-09 -1.6785395484707237e-09 0.0000000000000000e+00  -1.6784099734173717e-09 -2.1505850576530880e-09 0.0000000000000000e+00  -1.4580693729734380e-09 -2.5655974376385897e-09 0.0000000000000000e+00  -1.2025294601483841e-09 -2.9119166676030964e-09 0.0000000000000000e+00  -9.2084330197926806e-10 -3.1794516579408991e-09 0.0000000000000000e+00  -6.3154032525244712e-10 -3.3599531389340877e-09 0.0000000000000000e+00  -3.9138031185216403e-10 -3.4454243396324917e-09 0.0000000000000000e+00  -3.8027537432487284e-10 -3.3124216568479778e-09 0.0000000000000000e+00  -4.8480228739738579e-10 4.0502071619072134e-09 0.0000000000000000e+00  -4.7450515112718894e-10 3.8838539795755301e-09 0.0000000000000000e+00  -7.2326522638918238e-10 3.7404679933026033e-09 0.0000000000000000e+00  -1.0136903994169284e-09 3.5026473274513291e-09 0.0000000000000000e+00  -1.2876744759373112e-09 3.1730041858099232e-09 0.0000000000000000e+00  -1.5284602868821017e-09 2.7614015977025725e-09 0.0000000000000000e+00  -1.7288018704088410e-09 2.2802508462934286e-09 0.0000000000000000e+00  -1.8846236409169414e-09 1.7432858834401293e-09 0.0000000000000000e+00  -1.9935146008868616e-09 1.1649568951514545e-09 0.0000000000000000e+00  -2.0541880673610794e-09 5.6004042625458576e-10 0.0000000000000000e+00  -2.0661727483934272e-09 -5.6584288296157937e-11 0.0000000000000000e+00  -2.0296336271277377e-09 -6.7003551750482105e-10 0.0000000000000000e+00  -1.9453279475205668e-09 -1.2654686633740801e-09 0.0000000000000000e+00  -1.8146998878707228e-09 -1.8281304347798758e-09 0.0000000000000000e+00  -1.6401003420164159e-09 -2.3434998847958765e-09 0.0000000000000000e+00  -1.4251301868180178e-09 -2.7975702074448186e-09 0.0000000000000000e+00  -1.1752557775829931e-09 -3.1772933044179023e-09 0.0000000000000000e+00  -8.9957881785239535e-10 -3.4711636339881612e-09 0.0000000000000000e+00  -6.1781021249340212e-10 -3.6696789367375963e-09 0.0000000000000000e+00  -3.9177325224409270e-10 -3.7640205475174405e-09 0.0000000000000000e+00  -4.2128889090016955e-10 -3.6318074877525870e-09 0.0000000000000000e+00  -5.3896775145686964e-10 4.3756779649621609e-09 0.0000000000000000e+00  -4.7767087471162606e-10 4.2117487824140336e-09 0.0000000000000000e+00  -7.0583611671153262e-10 4.0534985797213712e-09 0.0000000000000000e+00  -9.8118123590998257e-10 3.7917330409811160e-09 0.0000000000000000e+00  -1.2406643296629561e-09 3.4304753801847541e-09 0.0000000000000000e+00  -1.4668