<?xml version="1.0"?>
<VTKFile type="UnstructuredGrid"  version="0.1"  >
<UnstructuredGrid>
<Piece  NumberOfPoints="651" NumberOfCells="1200">
<Points>
<DataArray  type="Float64"  NumberOfComponents="3"  format="ascii">0 0 0  50000 0 0  100000 0 0  150000 0 0  200000 0 0  250000 0 0  300000 0 0  350000 0 0  400000 0 0  450000 0 0  500000 0 0  550000 0 0  600000 0 0  650000 0 0  700000 0 0  750000 0 0  800000 0 0  850000 0 0  900000 0 0  950000 0 0  1000000 0 0  0 50000 0  50000 50000 0  100000 50000 0  150000 50000 0  200000 50000 0  250000 50000 0  300000 50000 0  350000 50000 0  400000 50000 0  450000 50000 0  500000 50000 0  550000 50000 0  600000 50000 0  650000 50000 0  700000 50000 0  750000 50000 0  800000 50000 0  850000 50000 0  900000 50000 0  950000 50000 0  1000000 50000 0  0 100000 0  50000 100000 0  100000 100000 0  150000 100000 0  200000 100000 0  250000 100000 0  300000 100000 0  350000 100000 0  400000 100000 0  450000 100000 0  500000 100000 0  550000 100000 0  600000 100000 0  650000 100000 0  700000 100000 0  750000 100000 0  800000 100000 0  850000 100000 0  900000 100000 0  950000 100000 0  1000000 100000 0  0 150000 0  50000 150000 0  100000 150000 0  150000 150000 0  200000 150000 0  250000 150000 0  300000 150000 0  350000 150000 0  400000 150000 0  450000 150000 0  500000 150000 0  550000 150000 0  600000 150000 0  650000 150000 0  700000 150000 0  750000 150000 0  800000 150000 0  850000 150000 0  900000 150000 0  950000 150000 0  1000000 150000 0  0 200000 0  50000 200000 0  100000 200000 0  150000 200000 0  200000 200000 0  250000 200000 0  300000 200000 0  350000 200000 0  400000 200000 0  450000 200000 0  500000 200000 0  550000 200000 0  600000 200000 0  650000 200000 0  700000 200000 0  750000 200000 0  800000 200000 0  850000 200000 0  900000 200000 0  950000 200000 0  1000000 200000 0  0 250000 0  50000 250000 0  100000 250000 0  150000 250000 0  200000 250000 0  250000 250000 0  300000 250000 0  350000 250000 0  400000 250000 0  450000 250000 0  500000 250000 0  550000 250000 0  600000 250000 0  650000 250000 0  700000 250000 0  750000 250000 0  800000 250000 0  850000 250000 0  900000 250000 0  950000 250000 0  1000000 250000 0  0 300000 0  50000 300000 0  100000 300000 0  150000 300000 0  200000 300000 0  250000 300000 0  300000 300000 0  350000 300000 0  400000 300000 0  450000 300000 0  500000 300000 0  550000 300000 0  600000 300000 0  650000 300000 0  700000 300000 0  750000 300000 0  800000 300000 0  850000 300000 0  900000 300000 0  950000 300000 0  1000000 300000 0  0 350000 0  50000 350000 0  100000 350000 0  150000 350000 0  200000 350000 0  250000 350000 0  300000 350000 0  350000 350000 0  400000 350000 0  450000 350000 0  500000 350000 0  550000 350000 0  600000 350000 0  650000 350000 0  700000 350000 0  750000 350000 0  800000 350000 0  850000 350000 0  900000 350000 0  950000 350000 0  1000000 350000 0  0 400000 0  50000 400000 0  100000 400000 0  150000 400000 0  200000 400000 0  250000 400000 0  300000 400000 0  350000 400000 0  400000 400000 0  450000 400000 0  500000 400000 0  550000 400000 0  600000 400000 0  650000 400000 0  700000 400000 0  750000 400000 0  800000 400000 0  850000 400000 0  900000 400000 0  950000 400000 0  1000000 400000 0  0 450000 0  50000 450000 0  100000 450000 0  150000 450000 0  200000 450000 0  250000 450000 0  300000 450000 0  350000 450000 0  400000 450000 0  450000 450000 0  500000 450000 0  550000 450000 0  600000 450000 0  650000 450000 0  700000 450000 0  750000 450000 0  800000 450000 0  850000 450000 0  900000 450000 0  950000 450000 0  1000000 450000 0  0 500000 0  50000 500000 0  100000 500000 0  150000 500000 0  200000 500000 0  250000 500000 0  300000 500000 0  350000 500000 0  400000 500000 0  450000 500000 0  500000 500000 0  550000 500000 0  600000 500000 0  650000 500000 0  700000 500000 0  750000 500000 0  800000 500000 0  850000 500000 0  900000 500000 0  950000 500000 0  1000000 500000 0  0 550000 0  50000 550000 0  100000 550000 0  150000 550000 0  200000 550000 0  250000 550000 0  300000 550000 0  350000 550000 0  400000 550000 0  450000 550000 0  500000 550000 0  550000 550000 0  600000 550000 0  650000 550000 0  700000 550000 0  750000 550000 0  800000 550000 0  850000 550000 0  900000 550000 0  950000 550000 0  1000000 550000 0  0 600000 0  50000 600000 0  100000 600000 0  150000 600000 0  200000 600000 0  250000 600000 0  300000 600000 0  350000 600000 0  400000 600000 0  450000 600000 0  500000 600000 0  550000 600000 0  600000 600000 0  650000 600000 0  700000 600000 0  750000 600000 0  800000 600000 0  850000 600000 0  900000 600000 0  950000 600000 0  1000000 600000 0  0 650000 0  50000 650000 0  100000 650000 0  150000 650000 0  200000 650000 0  250000 650000 0  300000 650000 0  350000 650000 0  400000 650000 0  450000 650000 0  500000 650000 0  550000 650000 0  600000 650000 0  650000 650000 0  700000 650000 0  750000 650000 0  800000 650000 0  850000 650000 0  900000 650000 0  950000 650000 0  1000000 650000 0  0 700000 0  50000 700000 0  100000 700000 0  150000 700000 0  200000 700000 0  250000 700000 0  300000 700000 0  350000 700000 0  400000 700000 0  450000 700000 0  500000 700000 0  550000 700000 0  600000 700000 0  650000 700000 0  700000 700000 0  750000 700000 0  800000 700000 0  850000 700000 0  900000 700000 0  950000 700000 0  1000000 700000 0  0 750000 0  50000 750000 0  100000 750000 0  150000 750000 0  200000 750000 0  250000 750000 0  300000 750000 0  350000 750000 0  400000 750000 0  450000 750000 0  500000 750000 0  550000 750000 0  600000 750000 0  650000 750000 0  700000 750000 0  750000 750000 0  800000 750000 0  850000 750000 0  900000 750000 0  950000 750000 0  1000000 750000 0  0 800000 0  50000 800000 0  100000 800000 0  150000 800000 0  200000 800000 0  250000 800000 0  300000 800000 0  350000 800000 0  400000 800000 0  450000 800000 0  500000 800000 0  550000 800000 0  600000 800000 0  650000 800000 0  700000 800000 0  750000 800000 0  800000 800000 0  850000 800000 0  900000 800000 0  950000 800000 0  1000000 800000 0  0 850000 0  50000 850000 0  100000 850000 0  150000 850000 0  200000 850000 0  250000 850000 0  300000 850000 0  350000 850000 0  400000 850000 0  450000 850000 0  500000 850000 0  550000 850000 0  600000 850000 0  650000 850000 0  700000 850000 0  750000 850000 0  800000 850000 0  850000 850000 0  900000 850000 0  950000 850000 0  1000000 850000 0  0 900000 0  50000 900000 0  100000 900000 0  150000 900000 0  200000 900000 0  250000 900000 0  300000 900000 0  350000 900000 0  400000 900000 0  450000 900000 0  500000 900000 0  550000 900000 0  600000 900000 0  650000 900000 0  700000 900000 0  750000 900000 0  800000 900000 0  850000 900000 0  900000 900000 0  950000 900000 0  1000000 900000 0  0 950000 0  50000 950000 0  100000 950000 0  150000 950000 0  200000 950000 0  250000 950000 0  300000 950000 0  350000 950000 0  400000 950000 0  450000 950000 0  500000 950000 0  550000 950000 0  600000 950000 0  650000 950000 0  700000 950000 0  750000 950000 0  800000 950000 0  850000 950000 0  900000 950000 0  950000 950000 0  1000000 950000 0  0 1000000 0  50000 1000000 0  100000 1000000 0  150000 1000000 0  200000 1000000 0  250000 1000000 0  300000 1000000 0  350000 1000000 0  400000 1000000 0  450000 1000000 0  500000 1000000 0  550000 1000000 0  600000 1000000 0  650000 1000000 0  700000 1000000 0  750000 1000000 0  800000 1000000 0  850000 1000000 0  900000 1000000 0  950000 1000000 0  1000000 1000000 0  0 1050000 0  50000 1050000 0  100000 1050000 0  150000 1050000 0  200000 1050000 0  250000 1050000 0  300000 1050000 0  350000 1050000 0  400000 1050000 0  450000 1050000 0  500000 1050000 0  550000 1050000 0  600000 1050000 0  650000 1050000 0  700000 1050000 0  750000 1050000 0  800000 1050000 0  850000 1050000 0  900000 1050000 0  950000 1050000 0  1000000 1050000 0  0 1100000 0  50000 1100000 0  100000 1100000 0  150000 1100000 0  200000 1100000 0  250000 1100000 0  300000 1100000 0  350000 1100000 0  400000 1100000 0  450000 1100000 0  500000 1100000 0  550000 1100000 0  600000 1100000 0  650000 1100000 0  700000 1100000 0  750000 1100000 0  800000 1100000 0  850000 1100000 0  900000 1100000 0  950000 1100000 0  1000000 1100000 0  0 1150000 0  50000 1150000 0  100000 1150000 0  150000 1150000 0  200000 1150000 0  250000 1150000 0  300000 1150000 0  350000 1150000 0  400000 1150000 0  450000 1150000 0  500000 1150000 0  550000 1150000 0  600000 1150000 0  650000 1150000 0  700000 1150000 0  750000 1150000 0  800000 1150000 0  850000 1150000 0  900000 1150000 0  950000 1150000 0  1000000 1150000 0  0 1200000 0  50000 1200000 0  100000 1200000 0  150000 1200000 0  200000 1200000 0  250000 1200000 0  300000 1200000 0  350000 1200000 0  400000 1200000 0  450000 1200000 0  500000 1200000 0  550000 1200000 0  600000 1200000 0  650000 1200000 0  700000 1200000 0  750000 1200000 0  800000 1200000 0  850000 1200000 0  900000 1200000 0  950000 1200000 0  1000000 1200000 0  0 1250000 0  50000 1250000 0  100000 1250000 0  150000 1250000 0  200000 1250000 0  250000 1250000 0  300000 1250000 0  350000 1250000 0  400000 1250000 0  450000 1250000 0  500000 1250000 0  550000 1250000 0  600000 1250000 0  650000 1250000 0  700000 1250000 0  750000 1250000 0  800000 1250000 0  850000 1250000 0  900000 1250000 0  950000 1250000 0  1000000 1250000 0  0 1300000 0  50000 1300000 0  100000 1300000 0  150000 1300000 0  200000 1300000 0  250000 1300000 0  300000 1300000 0  350000 1300000 0  400000 1300000 0  450000 1300000 0  500000 1300000 0  550000 1300000 0  600000 1300000 0  650000 1300000 0  700000 1300000 0  750000 1300000 0  800000 1300000 0  850000 1300000 0  900000 1300000 0  950000 1300000 0  1000000 1300000 0  0 1350000 0  50000 1350000 0  100000 1350000 0  150000 1350000 0  200000 1350000 0  250000 1350000 0  300000 1350000 0  350000 1350000 0  400000 1350000 0  450000 1350000 0  500000 1350000 0  550000 1350000 0  600000 1350000 0  650000 1350000 0  700000 135
[...]
<PointData  Vectors="f_4485"> 
<DataArray  type="Float64"  Name="f_4485"  NumberOfComponents="3" format="ascii">-2.3680672629161251e-10 2.3370240588494428e-10 0.0000000000000000e+00  -4.4118429888365167e-10 1.9343933057028491e-10 0.0000000000000000e+00  -8.0495489836961296e-10 1.7565005348056092e-10 0.0000000000000000e+00  -1.1566196807520601e-09 1.6003973263226121e-10 0.0000000000000000e+00  -1.4786341520250250e-09 1.4223348716822079e-10 0.0000000000000000e+00  -1.7615768705843865e-09 1.2170720106663019e-10 0.0000000000000000e+00  -1.9977981393986933e-09 9.8634204793120258e-11 0.0000000000000000e+00  -2.1811145471577279e-09 7.3434492876067872e-11 0.0000000000000000e+00  -2.3067990544815323e-09 4.6661116722665510e-11 0.0000000000000000e+00  -2.3716622744474975e-09 1.8944429878008731e-11 0.0000000000000000e+00  -2.3741201384380728e-09 -9.0430778127175075e-12 0.0000000000000000e+00  -2.3142265984583780e-09 -3.6613572020346741e-11 0.0000000000000000e+00  -2.1936672888200662e-09 -6.3087318354827759e-11 0.0000000000000000e+00  -2.0157140878119403e-09 -8.7815349672537320e-11 0.0000000000000000e+00  -1.7851486121052516e-09 -1.1020456421154726e-10 0.0000000000000000e+00  -1.5082042456080286e-09 -1.2975574850707692e-10 0.0000000000000000e+00  -1.1927870774013610e-09 -1.4615330143452102e-10 0.0000000000000000e+00  -8.5017004255917030e-10 -1.5951449704595077e-10 0.0000000000000000e+00  -5.0301752847759729e-10 -1.7014483761318337e-10 0.0000000000000000e+00  -2.1949763889847103e-10 -1.6462177067250608e-10 0.0000000000000000e+00  -1.0002359798997465e-10 -1.0216375821222634e-10 0.0000000000000000e+00  -2.0142621295159755e-10 4.2231831913313628e-10 0.0000000000000000e+00  -3.7237937878083451e-10 3.6920525956129979e-10 0.0000000000000000e+00  -6.6346296415725213e-10 3.7621504462783534e-10 0.0000000000000000e+00  -9.8016296442182425e-10 3.5856555887645692e-10 0.0000000000000000e+00  -1.2820323546625353e-09 3.2670230051306951e-10 0.0000000000000000e+00  -1.5542372142669090e-09 2.8460468837823929e-10 0.0000000000000000e+00  -1.7876145226762275e-09 2.3441415016676013e-10 0.0000000000000000e+00  -1.9752454132286197e-09 1.7785745731027518e-10 0.0000000000000000e+00  -2.1118723228199092e-09 1.1660721393827302e-10 0.0000000000000000e+00  -2.1937909105672013e-09 5.2365797048437628e-11 0.0000000000000000e+00  -2.2188508578900274e-09 -1.3128822138375619e-11 0.0000000000000000e+00  -2.1864691667870973e-09 -7.8124223701832389e-11 0.0000000000000000e+00  -2.0976293299782071e-09 -1.4088357158756560e-10 0.0000000000000000e+00  -1.9548608825639425e-09 -1.9971562303047974e-10 0.0000000000000000e+00  -1.7622071743489787e-09 -2.5299659408422967e-10 0.0000000000000000e+00  -1.5252180735756560e-09 -2.9916874665321062e-10 0.0000000000000000e+00  -1.2511056569951144e-09 -3.3666760537749821e-10 0.0000000000000000e+00  -9.4961239809187065e-10 -3.6354224472827612e-10 0.0000000000000000e+00  -6.3688512282073204e-10 -3.7533524028739694e-10 0.0000000000000000e+00  -3.5197433963442502e-10 -3.5471711283321281e-10 0.0000000000000000e+00  -1.6816750765157052e-10 -2.1300814359586166e-10 0.0000000000000000e+00  -1.9853056722631704e-10 7.5652204539241469e-10 0.0000000000000000e+00  -3.8053437494619214e-10 6.5069070587401815e-10 0.0000000000000000e+00  -6.5936905851945891e-10 6.5125350793396848e-10 0.0000000000000000e+00  -9.5255613934857628e-10 6.2341656518953324e-10 0.0000000000000000e+00  -1.2315968429788405e-09 5.7123525061069465e-10 0.0000000000000000e+00  -1.4839718126742677e-09 5.0002116617091295e-10 0.0000000000000000e+00  -1.7008897294187050e-09 4.1373426192781859e-10 0.0000000000000000e+00  -1.8756159088826543e-09 3.1566243849640034e-10 0.0000000000000000e+00  -2.0030279667811757e-09 2.0891355799435993e-10 0.0000000000000000e+00  -2.0795252626053908e-09 9.6589223357743372e-11 0.0000000000000000e+00  -2.1030170707147457e-09 -1.8177674068704103e-11 0.0000000000000000e+00  -2.0729243419255245e-09 -1.3224076722668803e-10 0.0000000000000000e+00  -1.9901747823592227e-09 -2.4247836111319807e-10 0.0000000000000000e+00  -1.8571858098233941e-09 -3.4583183519300651e-10 0.0000000000000000e+00  -1.6778416283362572e-09 -4.3932479766956769e-10 0.0000000000000000e+00  -1.4574928196048778e-09 -5.2002924778255354e-10 0.0000000000000000e+00  -1.2030776946667288e-09 -5.8489895648481817e-10 0.0000000000000000e+00  -9.2373453321432449e-10 -6.3026122738833288e-10 0.0000000000000000e+00  -6.3329954290238868e-10 -6.5039753395017269e-10 0.0000000000000000e+00  -3.6234049351793770e-10 -6.3512069696595258e-10 0.0000000000000000e+00  -1.7916416808333437e-10 -4.7297172578449386e-10 0.0000000000000000e+00  -2.0631024508195836e-10 1.0854652432754620e-09 0.0000000000000000e+00  -3.7816984928450878e-10 9.6528466983978703e-10 0.0000000000000000e+00  -6.5190594085639051e-10 9.4653501173191770e-10 0.0000000000000000e+00  -9.3673944566569523e-10 9.0131980604698670e-10 0.0000000000000000e+00  -1.2046769510822253e-09 8.2595276654944023e-10 0.0000000000000000e+00  -1.4454366977418485e-09 7.2424281221001575e-10 0.0000000000000000e+00  -1.6517773838284003e-09 6.0076938658521403e-10 0.0000000000000000e+00  -1.8177085503720372e-09 4.6002628007159831e-10 0.0000000000000000e+00  -1.9384934497377484e-09 3.0647942037896195e-10 0.0000000000000000e+00  -2.0107473118848796e-09 1.4464179539352935e-10 0.0000000000000000e+00  -2.0324961093478190e-09 -2.0917376869789934e-11 0.0000000000000000e+00  -2.0032030107186949e-09 -1.8560752201178409e-10 0.0000000000000000e+00  -1.9237700305270106e-09 -3.4487130262477170e-10 0.0000000000000000e+00  -1.7965181753620869e-09 -4.9423990527955699e-10 0.0000000000000000e+00  -1.6251486218670831e-09 -6.2937051817567985e-10 0.0000000000000000e+00  -1.4146947190034888e-09 -7.4604288496125586e-10 0.0000000000000000e+00  -1.1715161094915744e-09 -8.4008810015412997e-10 0.0000000000000000e+00  -9.0360540291422515e-10 -9.0725375622452822e-10 0.0000000000000000e+00  -6.2258515148357864e-10 -9.4305920572761715e-10 0.0000000000000000e+00  -3.5677817799499778e-10 -9.4226017104998537e-10 0.0000000000000000e+00  -1.8140704291590531e-10 -7.8914118297415086e-10 0.0000000000000000e+00  -2.1972277484095317e-10 1.4074516102304942e-09 0.0000000000000000e+00  -3.7826937342938237e-10 1.2802832426994781e-09 0.0000000000000000e+00  -6.4809041776407269e-10 1.2443004143537621e-09 0.0000000000000000e+00  -9.2996224530033391e-10 1.1786138566985137e-09 0.0000000000000000e+00  -1.1938494309708740e-09 1.0780625035685327e-09 0.0000000000000000e+00  -1.4295772514586959e-09 9.4525689287828465e-10 0.0000000000000000e+00  -1.6306750490688892e-09 7.8483677537196695e-10 0.0000000000000000e+00  -1.7918362177573638e-09 6.0209893825156616e-10 0.0000000000000000e+00  -1.9087687287653872e-09 4.0265279573819706e-10 0.0000000000000000e+00  -1.9783552283085350e-09 1.9230834666400434e-10 0.0000000000000000e+00  -1.9987710256013074e-09 -2.2998705454350455e-11 0.0000000000000000e+00  -1.9695411824202834e-09 -2.3728680168864541e-10 0.0000000000000000e+00  -1.8915532282470581e-09 -4.4461559232646911e-10 0.0000000000000000e+00  -1.7670340047185973e-09 -6.3917362786027102e-10 0.0000000000000000e+00  -1.5994918108416263e-09 -8.1535974430189872e-10 0.0000000000000000e+00  -1.3936276284867286e-09 -9.6785721216666249e-10 0.0000000000000000e+00  -1.1552695134272411e-09 -1.0917227082126853e-09 0.0000000000000000e+00  -8.9167894494756711e-10 -1.1825714962196440e-09 0.0000000000000000e+00  -6.1400317732867010e-10 -1.2368349637243347e-09 0.0000000000000000e+00  -3.5229170304496216e-10 -1.2506852655247878e-09 0.0000000000000000e+00  -1.8930830782941106e-10 -1.1084243664840395e-09 0.0000000000000000e+00  -2.3780978907020342e-10 1.7265077912003021e-09 0.0000000000000000e+00  -3.8272372025107979e-10 1.5935294389482636e-09 0.0000000000000000e+00  -6.5029464093299348e-10 1.5428131810927536e-09 0.0000000000000000e+00  -9.3231634522743506e-10 1.4560908916005042e-09 0.0000000000000000e+00  -1.1962793740679822e-09 1.3291370541459059e-09 0.0000000000000000e+00  -1.4313460786865494e-09 1.1644264074772931e-09 0.0000000000000000e+00  -1.6311462394442303e-09 9.6680648830185215e-10 0.0000000000000000e+00  -1.7907098056915606e-09 7.4224754717510939e-10 0.0000000000000000e+00  -1.9060645987213415e-09 4.9735616760741785e-10 0.0000000000000000e+00  -1.9743275105164564e-09 2.3912631342585901e-10 0.0000000000000000e+00  -1.9938203059089955e-09 -2.5225847201106499e-11 0.0000000000000000e+00  -1.9641367101735283e-09 -2.8840032948671761e-10 0.0000000000000000e+00  -1.8861612540908461e-09 -5.4314464691154487e-10 0.0000000000000000e+00  -1.7620459313638175e-09 -7.8238490472314624e-10 0.0000000000000000e+00  -1.5951468286877333e-09 -9.9936205859184766e-10 0.0000000000000000e+00  -1.3899319147669850e-09 -1.1877862855257593e-09 0.0000000000000000e+00  -1.1519462076973964e-09 -1.3420414905253512e-09 0.0000000000000000e+00  -8.8828951457252862e-10 -1.4574898354017954e-09 0.0000000000000000e+00  -6.1064993207294724e-10 -1.5306734706188945e-09 0.0000000000000000e+00  -3.5178120715630118e-10 -1.5576950849637096e-09 0.0000000000000000e+00  -2.0217863548027708e-10 -1.4230046142811576e-09 0.0000000000000000e+00  -2.6025292217667490e-10 2.0462811115769064e-09 0.0000000000000000e+00  -3.9138313094353823e-10 1.9076418679708864e-09 0.0000000000000000e+00  -6.5843559579209624e-10 1.8434507503731363e-09 0.0000000000000000e+00  -9.4284271493707887e-10 1.7359209503977031e-09 0.0000000000000000e+00  -1.2094686192110798e-09 1.5819000314334567e-09 0.0000000000000000e+00  -1.4466263538516684e-09 1.3844577757280562e-09 0.0000000000000000e+00  -1.6477311287140238e-09 1.1489853115298108e-09 0.0000000000000000e+00  -1.8078821424067403e-09 8.8219906577476040e-10 0.0000000000000000e+00  -1.9232710170309371e-09 5.9166995638220339e-10 0.0000000000000000e+00  -1.9911756639250728e-09 2.8551355967481149e-10 0.0000000000000000e+00  -2.0100369419102415e-09 -2.7839507449133515e-11 0.0000000000000000e+00  -1.9795132932745085e-09 -3.3983476984122062e-10 0.0000000000000000e+00  -1.9004978296379127e-09 -6.4196962905417347e-10 0.0000000000000000e+00  -1.7750984393347192e-09 -9.2596810498452665e-10 0.0000000000000000e+00  -1.6065843268648028e-09 -1.1839672054416413e-09 0.0000000000000000e+00  -1.3993200931827206e-09 -1.4087307857675736e-09 0.0000000000000000e+00  -1.1588024047309471e-09 -1.5939117904031019e-09 0.0000000000000000e+00  -8.9232637342371278e-10 -1.7343679097402891e-09 0.0000000000000000e+00  -6.1250411242823347e-10 -1.8262420283669704e-09 0.0000000000000000e+00  -3.5508813358713832e-10 -1.8651040363644646e-09 0.0000000000000000e+00  -2.1936271434863363e-10 -1.7347041832820856e-09 0.0000000000000000e+00  -2.8694135851127585e-10 2.3695108444145364e-09 0.0000000000000000e+00  -4.0348858558954064e-10 2.2251570474210569e-09 0.0000000000000000e+00  -6.7123272416778879e-10 2.1480985335164589e-09 0.0000000000000000e+00  -9.5952185125218889e-10 2.0199078581982806e-09 0.0000000000000000e+00  -1.2303494321267280e-09 1.8383475913985089e-09 0.0000000000000000e+00  -1.4711498766295208e-09 1.6073696584279649e-09 0.0000000000000000e+00  -1.6750264411876699e-09 1.3331818144534239e-09 0.0000000000000000e+00  -1.8370175787852271e-09 1.0233882930963413e-09 0.0000000000000000e+00  -1.9533755200195641e-09 6.8656536504157582e-10 0.0000000000000000e+00  -2.0214783423014373e-09 3.3193722562910233e-10 0.0000000000000000e+00  -2.0398577621363391e-09 -3.0888898282590145e-11 0.0000000000000000e+00  -2.0082293806504898e-09 -3.9215066374499258e-10 0.0000000000000000e+00  -1.9275026132955100e-09 -7.4214066679996822e-10 0.0000000000000000e+00  -1.7997671781666955e-09 -1.0714156029705562e-09 0.0000000000000000e+00  -1.6282598404953646e-09 -1.3710199066185461e-09 0.0000000000000000e+00  -1.4173382376061542e-09 -1.6327375868436336e-09 0.0000000000000000e+00  -1.1725936639358725e-09 -1.8493803575872101e-09 0.0000000000000000e+00  -9.0168001956377019e-10 -2.0150913557571695e-09 0.0000000000000000e+00  -6.1826710769597156e-10 -2.1253563978718222e-09 0.0000000000000000e+00  -3.6137662574775412e-10 -2.1750995695394804e-09 0.0000000000000000e+00  -2.4060842679880193e-10 -2.0465540486980704e-09 0.0000000000000000e+00  -3.1787869447837858e-10 2.6977885291933284e-09 0.0000000000000000e+00  -4.1801557596326341e-10 2.5477939049797964e-09 0.0000000000000000e+00  -6.8677474188246747e-10 2.4580811082706512e-09 0.0000000000000000e+00  -9.7955086744071408e-10 2.3091389497071903e-09 0.0000000000000000e+00  -1.2551343070069284e-09 2.0995309393598893e-09 0.0000000000000000e+00  -1.5000756183792281e-09 1.8341972270166269e-09 0.0000000000000000e+00  -1.7071707890476601e-09 1.5203395405884575e-09 0.0000000000000000e+00  -1.8713735893705164e-09 1.1665839731023773e-09 0.0000000000000000e+00  -1.9889665523648913e-09 7.8257985437699514e-10 0.0000000000000000e+00  -2.0574069834811069e-09 3.7867398589152990e-10 0.0000000000000000e+00  -2.0753070839865492e-09 -3.4369492785224542e-11 0.0000000000000000e+00  -2.0424355936853405e-09 -4.4561533200156547e-10 0.0000000000000000e+00  -1.9597184358836089e-09 -8.4418539119907584e-10 0.0000000000000000e+00  -1.8292343148843684e-09 -1.2194871702721967e-09 0.0000000000000000e+00  -1.6542080412727125e-09 -1.5614597521099918e-09 0.0000000000000000e+00  -1.4390291724048833e-09 -1.8608491347127409e-09 0.0000000000000000e+00  -1.1894366001260933e-09 -2.1095137002381019e-09 0.0000000000000000e+00  -9.1349369967888420e-10 -2.3007298262678136e-09 0.0000000000000000e+00  -6.2598966373114783e-10 -2.4291951249493095e-09 0.0000000000000000e+00  -3.6954995581694160e-10 -2.4891762818258687e-09 0.0000000000000000e+00  -2.6583064685359975e-10 -2.3608639486873050e-09 0.0000000000000000e+00  -3.5313881503981337e-10 3.0314022024895572e-09 0.0000000000000000e+00  -4.3374572264892839e-10 2.8761770540554000e-09 0.0000000000000000e+00  -7.0268754371845932e-10 2.7737548135502542e-09 0.0000000000000000e+00  -9.9944514200030941e-10 2.6037516925043312e-09 0.0000000000000000e+00  -1.2792357200315346e-09 2.3654855463427286e-09 0.0000000000000000e+00  -1.5277208391688437e-09 2.0649531022788745e-09 0.0000000000000000e+00  -1.7374472301764135e-09 1.7104724443368038e-09 0.0000000000000000e+00  -1.9033358966576441e-09 1.3118020775530717e-09 0.0000000000000000e+00  -2.0217388057621399e-09 8.7972989020382893e-10 0.0000000000000000e+00  -2.0902213691127486e-09 4.2574207824856006e-10 0.0000000000000000e+00  -2.1074940200262525e-09 -3.8260322811935122e-11 0.0000000000000000e+00  -2.0733825678066733e-09 -5.0020777451917737e-10 0.0000000000000000e+00  -1.9888190776571029e-09 -9.4808875828218083e-10 0.0000000000000000e+00  -1.8558501878184581e-09 -1.3701788257835927e-09 0.0000000000000000e+00  -1.6776635866830196e-09 -1.7552933716276685e-09 0.0000000000000000e+00  -1.4586573468198868e-09 -2.0930777130719853e-09 0.0000000000000000e+00  -1.2046979131452620e-09 -2.3743335700731790e-09 0.0000000000000000e+00  -9.2424456569650176e-10 -2.5913508138597284e-09 0.0000000000000000e+00  -6.3324888930206706e-10 -2.7379527003480177e-09 0.0000000000000000e+00  -3.7831797192766046e-10 -2.8077540782105721e-09 0.0000000000000000e+00  -2.9502528381990242e-10 -2.6787733832866314e-09 0.0000000000000000e+00  -3.9284167052007053e-10 3.3691485402715595e-09 0.0000000000000000e+00  -4.4924897555628130e-10 3.2096058757476736e-09 0.0000000000000000e+00  -7.1612713920549609e-10 3.0942366139598255e-09 0.0000000000000000e+00  -1.0149958904409290e-09 2.9026963471952245e-09 0.0000000000000000e+00  -1.2971269074098311e-09 2.6350820336695623e-09 0.0000000000000000e+00  -1.5472972602477483e-09 2.2985311044928082e-09 0.0000000000000000e+00  -1.7579058056232057e-09 1.9025873520502512e-09 0.0000000000000000e+00  -1.9239573407099664e-09 1.4582360651736205e-09 0.0000000000000000e+00  -2.0419793425021163e-09 9.7745450753689147e-10 0.0000000000000000e+00  -2.1097286106061378e-09 4.7286799485902775e-10 0.0000000000000000e+00  -2.1260653303187490e-09 -4.2527445239547918e-11 0.0000000000000000e+00  -2.0908863499851381e-09 -5.5559161231784918e-10 0.0000000000000000e+00  -2.0051057139316528e-09 -1.0532406843740102e-09 0.0000000000000000e+00  -1.8706812639136167e-09 -1.5226534367545400e-09 0.0000000000000000e+00  -1.6906847960439687e-09 -1.9515133433700864e-09 0.0000000000000000e+00  -1.4694347631508561e-09 -2.3283065889002949e-09 0.0000000000000000e+00  -1.2128406130721932e-09 -2.6426779811681435e-09 0.0000000000000000e+00  -9.2969666583805446e-10 -2.8858153531588121e-09 0.0000000000000000e+00  -6.3714830010804653e-10 -3.0505806451365558e-09 0.0000000000000000e+00  -3.8617877352408213e-10 -3.1299308365583796e-09 0.0000000000000000e+00  -3.2823681597436802e-10 -3.0000622237662092e-09 0.0000000000000000e+00  -4.3713915062964160e-10 3.7080834418076290e-09 0.0000000000000000e+00  -4.6283196956620269e-10 3.5458004946949396e-09 0.0000000000000000e+00  -7.2369313915049217e-10 3.4171254114215911e-09 0.0000000000000000e+00  -1.0211344011410325e-09 3.2034619797003052e-09 0.0000000000000000e+00  -1.3021281860732702e-09 2.9057894915221593e-09 0.0000000000000000e+00  -1.5505983806336549e-09 2.5325129140167067e-09 0.0000000000000000e+00  -1.7589499016831200e-09 2.0945267445557139e-09 0.0000000000000000e+00  -1.9224581378095426e-09 1.6041331670615128e-09 0.0000000000000000e+00  -2.0380053992652414e-09 1.0745294469402720e-09 0.0000000000000000e+00  -2.1036847660205584e-09 5.1944528219713808e-10 0.0000000000000000e+00  -2.1185969793693317e-09 -4.7115927635820788e-11 0.0000000000000000e+00  -2.0827350885322160e-09 -6.1105816341702358e-10 0.0000000000000000e+00  -1.9969528690826885e-09 -1.1583354572793492e-09 0.0000000000000000e+00  -1.8630181973221379e-09 -1.6751044116713562e-09 0.0000000000000000e+00  -1.6837442030095100e-09 -2.1479328213415449e-09 0.0000000000000000e+00  -1.4632085217525819e-09 -2.5640970129986161e-09 0.0000000000000000e+00  -1.2072105872772824e-09 -2.9119770026243918e-09 0.0000000000000000e+00  -9.2476972951476266e-10 -3.1815225681246071e-09 0.0000000000000000e+00  -6.3423782084827370e-10 -3.3645172983178263e-09 0.0000000000000000e+00  -3.9136764238063909e-10 -3.4532296337296534e-09 0.0000000000000000e+00  -3.6554197491256677e-10 -3.3229555018524880e-09 0.0000000000000000e+00  -4.8620786370270940e-10 4.0431981945046964e-09 0.0000000000000000e+00  -4.7246966831596315e-10 3.8805929205595082e-09 0.0000000000000000e+00  -7.2129885283082539e-10 3.7381735472641920e-09 0.0000000000000000e+00  -1.0117324440930490e-09 3.5017407793726519e-09 0.0000000000000000e+00  -1.2861224812364443e-09 3.1733533655550911e-09 0.0000000000000000e+00  -1.5276168158028474e-09 2.7628767717929141e-09 0.0000000000000000e+00  -1.7288529646549422e-09 2.2827194012075592e-09 0.0000000000000000e+00  -1.8856526796280114e-09 1.7465969937116378e-09 0.0000000000000000e+00  -1.9955223389136056e-09 1.1689321947291695e-09 0.0000000000000000e+00  -2.0571111321688556e-09 5.6447106598967694e-10 0.0000000000000000e+00  -2.0698985609333698e-09 -5.1936975456632839e-11 0.0000000000000000e+00  -2.0340115393615220e-09 -6.6543831738308333e-10 0.0000000000000000e+00  -1.9501772335316785e-09 -1.2612154715939235e-09 0.0000000000000000e+00  -1.8198155654696783e-09 -1.8245427572668936e-09 0.0000000000000000e+00  -1.6452577963369962e-09 -2.3409288740254619e-09 0.0000000000000000e+00  -1.4300891186043533e-09 -2.7963996077567525e-09 0.0000000000000000e+00  -1.1797617897572990e-09 -3.1779421740972529e-09 0.0000000000000000e+00  -9.0334782013707902e-10 -3.4740877095559764e-09 0.0000000000000000e+00  -6.2038837277334453e-10 -3.6753682718270896e-09 0.0000000000000000e+00  -3.9178760701555267e-10 -3.7732958938231166e-09 0.0000000000000000e+00  -4.0703985787880375e-10 -3.6438677375296168e-09 0.0000000000000000e+00  -5.4024927974182852e-10 4.3670098071592475e-09 0.0000000000000000e+00  -4.7572555377012245e-10 4.2075439348464215e-09 0.0000000000000000e+00  -7.0400996393471336e-10 4.0508844905470500e-09 0.0000000000000000e+00  -9.7935002326280671e-10 3.7910098777019293e-09 0.0000000000000000e+00  -1.2392002722192627e-09 3.4313775747373865e-09 0.0000000000000000e+00  -1.4660