<?xml version="1.0"?>
<VTKFile type="UnstructuredGrid"  version="0.1"  >
<UnstructuredGrid>
<Piece  NumberOfPoints="651" NumberOfCells="1200">
<Points>
<DataArray  type="Float64"  NumberOfComponents="3"  format="ascii">0 0 0  50000 0 0  100000 0 0  150000 0 0  200000 0 0  250000 0 0  300000 0 0  350000 0 0  400000 0 0  450000 0 0  500000 0 0  550000 0 0  600000 0 0  650000 0 0  700000 0 0  750000 0 0  800000 0 0  850000 0 0  900000 0 0  950000 0 0  1000000 0 0  0 50000 0  50000 50000 0  100000 50000 0  150000 50000 0  200000 50000 0  250000 50000 0  300000 50000 0  350000 50000 0  400000 50000 0  450000 50000 0  500000 50000 0  550000 50000 0  600000 50000 0  650000 50000 0  700000 50000 0  750000 50000 0  800000 50000 0  850000 50000 0  900000 50000 0  950000 50000 0  1000000 50000 0  0 100000 0  50000 100000 0  100000 100000 0  150000 100000 0  200000 100000 0  250000 100000 0  300000 100000 0  350000 100000 0  400000 100000 0  450000 100000 0  500000 100000 0  550000 100000 0  600000 100000 0  650000 100000 0  700000 100000 0  750000 100000 0  800000 100000 0  850000 100000 0  900000 100000 0  950000 100000 0  1000000 100000 0  0 150000 0  50000 150000 0  100000 150000 0  150000 150000 0  200000 150000 0  250000 150000 0  300000 150000 0  350000 150000 0  400000 150000 0  450000 150000 0  500000 150000 0  550000 150000 0  600000 150000 0  650000 150000 0  700000 150000 0  750000 150000 0  800000 150000 0  850000 150000 0  900000 150000 0  950000 150000 0  1000000 150000 0  0 200000 0  50000 200000 0  100000 200000 0  150000 200000 0  200000 200000 0  250000 200000 0  300000 200000 0  350000 200000 0  400000 200000 0  450000 200000 0  500000 200000 0  550000 200000 0  600000 200000 0  650000 200000 0  700000 200000 0  750000 200000 0  800000 200000 0  850000 200000 0  900000 200000 0  950000 200000 0  1000000 200000 0  0 250000 0  50000 250000 0  100000 250000 0  150000 250000 0  200000 250000 0  250000 250000 0  300000 250000 0  350000 250000 0  400000 250000 0  450000 250000 0  500000 250000 0  550000 250000 0  600000 250000 0  650000 250000 0  700000 250000 0  750000 250000 0  800000 250000 0  850000 250000 0  900000 250000 0  950000 250000 0  1000000 250000 0  0 300000 0  50000 300000 0  100000 300000 0  150000 300000 0  200000 300000 0  250000 300000 0  300000 300000 0  350000 300000 0  400000 300000 0  450000 300000 0  500000 300000 0  550000 300000 0  600000 300000 0  650000 300000 0  700000 300000 0  750000 300000 0  800000 300000 0  850000 300000 0  900000 300000 0  950000 300000 0  1000000 300000 0  0 350000 0  50000 350000 0  100000 350000 0  150000 350000 0  200000 350000 0  250000 350000 0  300000 350000 0  350000 350000 0  400000 350000 0  450000 350000 0  500000 350000 0  550000 350000 0  600000 350000 0  650000 350000 0  700000 350000 0  750000 350000 0  800000 350000 0  850000 350000 0  900000 350000 0  950000 350000 0  1000000 350000 0  0 400000 0  50000 400000 0  100000 400000 0  150000 400000 0  200000 400000 0  250000 400000 0  300000 400000 0  350000 400000 0  400000 400000 0  450000 400000 0  500000 400000 0  550000 400000 0  600000 400000 0  650000 400000 0  700000 400000 0  750000 400000 0  800000 400000 0  850000 400000 0  900000 400000 0  950000 400000 0  1000000 400000 0  0 450000 0  50000 450000 0  100000 450000 0  150000 450000 0  200000 450000 0  250000 450000 0  300000 450000 0  350000 450000 0  400000 450000 0  450000 450000 0  500000 450000 0  550000 450000 0  600000 450000 0  650000 450000 0  700000 450000 0  750000 450000 0  800000 450000 0  850000 450000 0  900000 450000 0  950000 450000 0  1000000 450000 0  0 500000 0  50000 500000 0  100000 500000 0  150000 500000 0  200000 500000 0  250000 500000 0  300000 500000 0  350000 500000 0  400000 500000 0  450000 500000 0  500000 500000 0  550000 500000 0  600000 500000 0  650000 500000 0  700000 500000 0  750000 500000 0  800000 500000 0  850000 500000 0  900000 500000 0  950000 500000 0  1000000 500000 0  0 550000 0  50000 550000 0  100000 550000 0  150000 550000 0  200000 550000 0  250000 550000 0  300000 550000 0  350000 550000 0  400000 550000 0  450000 550000 0  500000 550000 0  550000 550000 0  600000 550000 0  650000 550000 0  700000 550000 0  750000 550000 0  800000 550000 0  850000 550000 0  900000 550000 0  950000 550000 0  1000000 550000 0  0 600000 0  50000 600000 0  100000 600000 0  150000 600000 0  200000 600000 0  250000 600000 0  300000 600000 0  350000 600000 0  400000 600000 0  450000 600000 0  500000 600000 0  550000 600000 0  600000 600000 0  650000 600000 0  700000 600000 0  750000 600000 0  800000 600000 0  850000 600000 0  900000 600000 0  950000 600000 0  1000000 600000 0  0 650000 0  50000 650000 0  100000 650000 0  150000 650000 0  200000 650000 0  250000 650000 0  300000 650000 0  350000 650000 0  400000 650000 0  450000 650000 0  500000 650000 0  550000 650000 0  600000 650000 0  650000 650000 0  700000 650000 0  750000 650000 0  800000 650000 0  850000 650000 0  900000 650000 0  950000 650000 0  1000000 650000 0  0 700000 0  50000 700000 0  100000 700000 0  150000 700000 0  200000 700000 0  250000 700000 0  300000 700000 0  350000 700000 0  400000 700000 0  450000 700000 0  500000 700000 0  550000 700000 0  600000 700000 0  650000 700000 0  700000 700000 0  750000 700000 0  800000 700000 0  850000 700000 0  900000 700000 0  950000 700000 0  1000000 700000 0  0 750000 0  50000 750000 0  100000 750000 0  150000 750000 0  200000 750000 0  250000 750000 0  300000 750000 0  350000 750000 0  400000 750000 0  450000 750000 0  500000 750000 0  550000 750000 0  600000 750000 0  650000 750000 0  700000 750000 0  750000 750000 0  800000 750000 0  850000 750000 0  900000 750000 0  950000 750000 0  1000000 750000 0  0 800000 0  50000 800000 0  100000 800000 0  150000 800000 0  200000 800000 0  250000 800000 0  300000 800000 0  350000 800000 0  400000 800000 0  450000 800000 0  500000 800000 0  550000 800000 0  600000 800000 0  650000 800000 0  700000 800000 0  750000 800000 0  800000 800000 0  850000 800000 0  900000 800000 0  950000 800000 0  1000000 800000 0  0 850000 0  50000 850000 0  100000 850000 0  150000 850000 0  200000 850000 0  250000 850000 0  300000 850000 0  350000 850000 0  400000 850000 0  450000 850000 0  500000 850000 0  550000 850000 0  600000 850000 0  650000 850000 0  700000 850000 0  750000 850000 0  800000 850000 0  850000 850000 0  900000 850000 0  950000 850000 0  1000000 850000 0  0 900000 0  50000 900000 0  100000 900000 0  150000 900000 0  200000 900000 0  250000 900000 0  300000 900000 0  350000 900000 0  400000 900000 0  450000 900000 0  500000 900000 0  550000 900000 0  600000 900000 0  650000 900000 0  700000 900000 0  750000 900000 0  800000 900000 0  850000 900000 0  900000 900000 0  950000 900000 0  1000000 900000 0  0 950000 0  50000 950000 0  100000 950000 0  150000 950000 0  200000 950000 0  250000 950000 0  300000 950000 0  350000 950000 0  400000 950000 0  450000 950000 0  500000 950000 0  550000 950000 0  600000 950000 0  650000 950000 0  700000 950000 0  750000 950000 0  800000 950000 0  850000 950000 0  900000 950000 0  950000 950000 0  1000000 950000 0  0 1000000 0  50000 1000000 0  100000 1000000 0  150000 1000000 0  200000 1000000 0  250000 1000000 0  300000 1000000 0  350000 1000000 0  400000 1000000 0  450000 1000000 0  500000 1000000 0  550000 1000000 0  600000 1000000 0  650000 1000000 0  700000 1000000 0  750000 1000000 0  800000 1000000 0  850000 1000000 0  900000 1000000 0  950000 1000000 0  1000000 1000000 0  0 1050000 0  50000 1050000 0  100000 1050000 0  150000 1050000 0  200000 1050000 0  250000 1050000 0  300000 1050000 0  350000 1050000 0  400000 1050000 0  450000 1050000 0  500000 1050000 0  550000 1050000 0  600000 1050000 0  650000 1050000 0  700000 1050000 0  750000 1050000 0  800000 1050000 0  850000 1050000 0  900000 1050000 0  950000 1050000 0  1000000 1050000 0  0 1100000 0  50000 1100000 0  100000 1100000 0  150000 1100000 0  200000 1100000 0  250000 1100000 0  300000 1100000 0  350000 1100000 0  400000 1100000 0  450000 1100000 0  500000 1100000 0  550000 1100000 0  600000 1100000 0  650000 1100000 0  700000 1100000 0  750000 1100000 0  800000 1100000 0  850000 1100000 0  900000 1100000 0  950000 1100000 0  1000000 1100000 0  0 1150000 0  50000 1150000 0  100000 1150000 0  150000 1150000 0  200000 1150000 0  250000 1150000 0  300000 1150000 0  350000 1150000 0  400000 1150000 0  450000 1150000 0  500000 1150000 0  550000 1150000 0  600000 1150000 0  650000 1150000 0  700000 1150000 0  750000 1150000 0  800000 1150000 0  850000 1150000 0  900000 1150000 0  950000 1150000 0  1000000 1150000 0  0 1200000 0  50000 1200000 0  100000 1200000 0  150000 1200000 0  200000 1200000 0  250000 1200000 0  300000 1200000 0  350000 1200000 0  400000 1200000 0  450000 1200000 0  500000 1200000 0  550000 1200000 0  600000 1200000 0  650000 1200000 0  700000 1200000 0  750000 1200000 0  800000 1200000 0  850000 1200000 0  900000 1200000 0  950000 1200000 0  1000000 1200000 0  0 1250000 0  50000 1250000 0  100000 1250000 0  150000 1250000 0  200000 1250000 0  250000 1250000 0  300000 1250000 0  350000 1250000 0  400000 1250000 0  450000 1250000 0  500000 1250000 0  550000 1250000 0  600000 1250000 0  650000 1250000 0  700000 1250000 0  750000 1250000 0  800000 1250000 0  850000 1250000 0  900000 1250000 0  950000 1250000 0  1000000 1250000 0  0 1300000 0  50000 1300000 0  100000 1300000 0  150000 1300000 0  200000 1300000 0  250000 1300000 0  300000 1300000 0  350000 1300000 0  400000 1300000 0  450000 1300000 0  500000 1300000 0  550000 1300000 0  600000 1300000 0  650000 1300000 0  700000 1300000 0  750000 1300000 0  800000 1300000 0  850000 1300000 0  900000 1300000 0  950000 1300000 0  1000000 1300000 0  0 1350000 0  50000 1350000 0  100000 1350000 0  150000 1350000 0  200000 1350000 0  250000 1350000 0  300000 1350000 0  350000 1350000 0  400000 1350000 0  450000 1350000 0  500000 1350000 0  550000 1350000 0  600000 1350000 0  650000 1350000 0  700000 135
[...]
<PointData  Vectors="f_4485"> 
<DataArray  type="Float64"  Name="f_4485"  NumberOfComponents="3" format="ascii">-2.4584719476391991e-10 2.0649520691897051e-10 0.0000000000000000e+00  -4.5142161103989147e-10 1.6773883749730887e-10 0.0000000000000000e+00  -8.1630505379376361e-10 1.5253409933057522e-10 0.0000000000000000e+00  -1.1687228916587014e-09 1.3923195980312948e-10 0.0000000000000000e+00  -1.4913711304895187e-09 1.2337314079722156e-10 0.0000000000000000e+00  -1.7748680662032515e-09 1.0455100540951767e-10 0.0000000000000000e+00  -2.0115852305129869e-09 8.2999260438699358e-11 0.0000000000000000e+00  -2.1953506946171235e-09 5.9166140170159009e-11 0.0000000000000000e+00  -2.3214450536289581e-09 3.3619701330930003e-11 0.0000000000000000e+00  -2.3866860059070681e-09 6.9981331734289772e-12 0.0000000000000000e+00  -2.3894973944094023e-09 -2.0022848479701329e-11 0.0000000000000000e+00  -2.3299425959085661e-09 -4.6755320753482027e-11 0.0000000000000000e+00  -2.2097186391877213e-09 -7.2521657122760497e-11 0.0000000000000000e+00  -2.0321111541947726e-09 -9.6676567173799291e-11 0.0000000000000000e+00  -1.8019182746204651e-09 -1.1863179815796161e-10 0.0000000000000000e+00  -1.5253931997013880e-09 -1.3789402725620571e-10 0.0000000000000000e+00  -1.2104661086417511e-09 -1.5415506975109923e-10 0.0000000000000000e+00  -8.6843905516919047e-10 -1.6754363770542182e-10 0.0000000000000000e+00  -5.2198866654261545e-10 -1.7838163401453737e-10 0.0000000000000000e+00  -2.3914719162739068e-10 -1.7318674882345681e-10 0.0000000000000000e+00  -1.2008780384104341e-10 -1.1120634227033767e-10 0.0000000000000000e+00  -2.0871015003601903e-10 3.9559806542498940e-10 0.0000000000000000e+00  -3.7145277232107043e-10 3.6232650509108507e-10 0.0000000000000000e+00  -6.5720644793901876e-10 3.7485637044948534e-10 0.0000000000000000e+00  -9.7773155703218206e-10 3.5640178112045600e-10 0.0000000000000000e+00  -1.2833038021476077e-09 3.2412135489182489e-10 0.0000000000000000e+00  -1.5579279064115123e-09 2.8183747571034022e-10 0.0000000000000000e+00  -1.7929191702533332e-09 2.3158759617566285e-10 0.0000000000000000e+00  -1.9816378472499172e-09 1.7504347375599943e-10 0.0000000000000000e+00  -2.1189693874928955e-09 1.1384163237365103e-10 0.0000000000000000e+00  -2.2013026537016629e-09 4.9663512270760756e-11 0.0000000000000000e+00  -2.2265518960948771e-09 -1.5765368517261369e-11 0.0000000000000000e+00  -2.1941785393162402e-09 -8.0701541472061049e-11 0.0000000000000000e+00  -2.1051949337540956e-09 -1.4341688210770187e-10 0.0000000000000000e+00  -1.9621448237207316e-09 -2.0223179358378784e-10 0.0000000000000000e+00  -1.7690680109245009e-09 -2.5554206921437652e-10 0.0000000000000000e+00  -1.5314842566651241e-09 -3.0182784028253489e-10 0.0000000000000000e+00  -1.2565335983590465e-09 -3.3960400941176340e-10 0.0000000000000000e+00  -9.5385605025243467e-10 -3.6708046976379471e-10 0.0000000000000000e+00  -6.3969634312793231e-10 -3.8007810938823351e-10 0.0000000000000000e+00  -3.5440210030810915e-10 -3.6269488154332323e-10 0.0000000000000000e+00  -1.8796467685787855e-10 -2.2138959280035604e-10 0.0000000000000000e+00  -2.0320321639017112e-10 7.3163635279511644e-10 0.0000000000000000e+00  -3.7904584194665902e-10 6.4790388874150794e-10 0.0000000000000000e+00  -6.5081866993650365e-10 6.5765034173055124e-10 0.0000000000000000e+00  -9.4393693412405590e-10 6.2911754717667524e-10 0.0000000000000000e+00  -1.2254888742684021e-09 5.7544102348815873e-10 0.0000000000000000e+00  -1.4806521194468726e-09 5.0293470879880733e-10 0.0000000000000000e+00  -1.6998694410589089e-09 4.1563206055637069e-10 0.0000000000000000e+00  -1.8763409368592529e-09 3.1677559863991687e-10 0.0000000000000000e+00  -2.0050199487788934e-09 2.0941147476420620e-10 0.0000000000000000e+00  -2.0823883307995318e-09 9.6591334937150056e-11 0.0000000000000000e+00  -2.1064254016741725e-09 -1.8588384461517072e-11 0.0000000000000000e+00  -2.0766068213051072e-09 -1.3300969481581115e-10 0.0000000000000000e+00  -1.9938991669193727e-09 -2.4357703377409628e-10 0.0000000000000000e+00  -1.8607424527504960e-09 -3.4726187269591526e-10 0.0000000000000000e+00  -1.6810261659660730e-09 -4.4113018879989243e-10 0.0000000000000000e+00  -1.4600890528761636e-09 -5.2232114611563146e-10 0.0000000000000000e+00  -1.2048524580253574e-09 -5.8789619143029722e-10 0.0000000000000000e+00  -9.2449538725914686e-10 -6.3433328276198507e-10 0.0000000000000000e+00  -6.3321342394449333e-10 -6.5606418053963300e-10 0.0000000000000000e+00  -3.6372105987138197e-10 -6.4264612227032771e-10 0.0000000000000000e+00  -1.9911935571014172e-10 -4.7976958225224797e-10 0.0000000000000000e+00  -2.0865259979230402e-10 1.0627486191026521e-09 0.0000000000000000e+00  -3.7867253765495190e-10 9.5858005334756192e-10 0.0000000000000000e+00  -6.4664772408016775e-10 9.5233874981036104e-10 0.0000000000000000e+00  -9.2926122700862400e-10 9.0916511346949369e-10 0.0000000000000000e+00  -1.1973880173414634e-09 8.3297865386096832e-10 0.0000000000000000e+00  -1.4395014157002820e-09 7.2984133884625201e-10 0.0000000000000000e+00  -1.6474492496779812e-09 6.0496039975134276e-10 0.0000000000000000e+00  -1.8148282702761317e-09 4.6298950554364253e-10 0.0000000000000000e+00  -1.9367631125263273e-09 3.0841107835990431e-10 0.0000000000000000e+00  -2.0098471835698393e-09 1.4571190671713854e-10 0.0000000000000000e+00  -2.0321269213023905e-09 -2.0574122687158520e-11 0.0000000000000000e+00  -2.0030981049612300e-09 -1.8589224871463074e-10 0.0000000000000000e+00  -1.9236955046400884e-09 -3.4572177728102557e-10 0.0000000000000000e+00  -1.7962688683458861e-09 -4.9563504689159974e-10 0.0000000000000000e+00  -1.6245452868034474e-09 -6.3133985057706649e-10 0.0000000000000000e+00  -1.4135901551616268e-09 -7.4867927348000415e-10 0.0000000000000000e+00  -1.1698273680749308e-09 -8.4355255237618605e-10 0.0000000000000000e+00  -9.0141644680752970e-10 -9.1173620696300552e-10 0.0000000000000000e+00  -6.2049960361243903e-10 -9.4861569334669874e-10 0.0000000000000000e+00  -3.5751180757218606e-10 -9.4830159394952042e-10 0.0000000000000000e+00  -2.0134291394910827e-10 -7.9412570603074699e-10 0.0000000000000000e+00  -2.2004301463266758e-10 1.3870745764330460e-09 0.0000000000000000e+00  -3.7972326186786177e-10 1.2709492910538986e-09 0.0000000000000000e+00  -6.4553359424927221e-10 1.2475184765406257e-09 0.0000000000000000e+00  -9.2499280382219574e-10 1.1858732370302716e-09 0.0000000000000000e+00  -1.1877779042211159e-09 1.0858295159254732e-09 0.0000000000000000e+00  -1.4235168485324727e-09 9.5211740649404425e-10 0.0000000000000000e+00  -1.6252069447131569e-09 7.9034618391842457e-10 0.0000000000000000e+00  -1.7871331961236013e-09 6.0621683306536710e-10 0.0000000000000000e+00  -1.9047746715622821e-09 4.0548981299202549e-10 0.0000000000000000e+00  -1.9749085212730018e-09 1.9401689117446311e-10 0.0000000000000000e+00  -1.9956747258076685e-09 -2.2270191518508452e-11 0.0000000000000000e+00  -1.9665995026966978e-09 -2.3741295615240114e-10 0.0000000000000000e+00  -1.8885902434360750e-09 -4.4550305400026421e-10 0.0000000000000000e+00  -1.7639052703528020e-09 -6.4076643585963979e-10 0.0000000000000000e+00  -1.5960970402415286e-09 -8.1764221771683318e-10 0.0000000000000000e+00  -1.3899329766736665e-09 -9.7084928502701575e-10 0.0000000000000000e+00  -1.1513512691959067e-09 -1.0954527497055059e-09 0.0000000000000000e+00  -8.8781457012013635e-10 -1.1869976541874104e-09 0.0000000000000000e+00  -6.1094958651317003e-10 -1.2416891470541611e-09 0.0000000000000000e+00  -3.5264127335792006e-10 -1.2551381968220330e-09 0.0000000000000000e+00  -2.0909851098004942e-10 -1.1115355694883575e-09 0.0000000000000000e+00  -2.3632818836634445e-10 1.7086091624888077e-09 0.0000000000000000e+00  -3.8465058365089901e-10 1.5832779336126288e-09 0.0000000000000000e+00  -6.4963419519617791e-10 1.5437255359432364e-09 0.0000000000000000e+00  -9.2967351238831670e-10 1.4617867719966459e-09 0.0000000000000000e+00  -1.1920988094202220e-09 1.3363515893140056e-09 0.0000000000000000e+00  -1.4263432990947619e-09 1.1714161074730624e-09 0.0000000000000000e+00  -1.6258818706649019e-09 9.7276766736091924e-10 0.0000000000000000e+00  -1.7854970112947966e-09 7.4689085074804192e-10 0.0000000000000000e+00  -1.9010174158049603e-09 5.0065068704738914e-10 0.0000000000000000e+00  -1.9694354012263035e-09 2.4115787343608008e-10 0.0000000000000000e+00  -1.9890093765443240e-09 -2.4328894896971815e-11 0.0000000000000000e+00  -1.9593123006861122e-09 -2.8850471240943834e-10 0.0000000000000000e+00  -1.8812369451829744e-09 -5.4413057139629258e-10 0.0000000000000000e+00  -1.7569657588798408e-09 -7.8415340263856747e-10 0.0000000000000000e+00  -1.5899070598233362e-09 -1.0018329234734431e-09 0.0000000000000000e+00  -1.3846078788910326e-09 -1.1908823982728374e-09 0.0000000000000000e+00  -1.1467290382753653e-09 -1.3456495334942938e-09 0.0000000000000000e+00  -8.8354758344013745e-10 -1.4613854088715512e-09 0.0000000000000000e+00  -6.0714896208312030e-10 -1.5344184104613041e-09 0.0000000000000000e+00  -3.5191334038210628e-10 -1.5603438929425988e-09 0.0000000000000000e+00  -2.2169499581322210e-10 -1.4242123916704756e-09 0.0000000000000000e+00  -2.5715724156710585e-10 2.0309831084308383e-09 0.0000000000000000e+00  -3.9354938145309927e-10 1.8974843783554061e-09 0.0000000000000000e+00  -6.5911005771773587e-10 1.8428325358464338e-09 0.0000000000000000e+00  -9.4208203544552753e-10 1.7399712698476803e-09 0.0000000000000000e+00  -1.2071690918355936e-09 1.5879492738300757e-09 0.0000000000000000e+00  -1.4431023504013063e-09 1.3908057393067847e-09 0.0000000000000000e+00  -1.6433729073819337e-09 1.1546742181195944e-09 0.0000000000000000e+00  -1.8029968740783230e-09 8.8676782095449874e-10 0.0000000000000000e+00  -1.9180483504784747e-09 5.9495839813616696e-10 0.0000000000000000e+00  -1.9857086667158674e-09 2.8752908600976615e-10 0.0000000000000000e+00  -2.0043579103468698e-09 -2.7004623742524929e-11 0.0000000000000000e+00  -1.9736280738815444e-09 -3.4005125985201367e-10 0.0000000000000000e+00  -1.8944148076308976e-09 -6.4309654580404096e-10 0.0000000000000000e+00  -1.7688534733302830e-09 -9.2786264406767619e-10 0.0000000000000000e+00  -1.6002641854170524e-09 -1.1864813404242407e-09 0.0000000000000000e+00  -1.3930861764070102e-09 -1.4116931478664645e-09 0.0000000000000000e+00  -1.1529155816895478e-09 -1.5970911553416953e-09 0.0000000000000000e+00  -8.8718586742381104e-10 -1.7374171429405186e-09 0.0000000000000000e+00  -6.0884065595112842e-10 -1.8286363411545212e-09 0.0000000000000000e+00  -3.5509522990016472e-10 -1.8658104994805272e-09 0.0000000000000000e+00  -2.3848121852369989e-10 -1.7339894245922750e-09 0.0000000000000000e+00  -2.8241478361158709e-10 2.3569247529648800e-09 0.0000000000000000e+00  -4.0577545393442716e-10 2.2157324283569273e-09 0.0000000000000000e+00  -6.7287032796785473e-10 2.1466314786953158e-09 0.0000000000000000e+00  -9.6023222108281382e-10 2.0225621380852197e-09 0.0000000000000000e+00  -1.2297002958202550e-09 1.8430488439286244e-09 0.0000000000000000e+00  -1.4691474996626529e-09 1.6126431528195565e-09 0.0000000000000000e+00  -1.6718645473406626e-09 1.3380839572178949e-09 0.0000000000000000e+00  -1.8329248504133684e-09 1.0273900177779094e-09 0.0000000000000000e+00  -1.9485467732996521e-09 6.8942758241847153e-10 0.0000000000000000e+00  -2.0160589869774783e-09 3.3360725873709517e-10 0.0000000000000000e+00  -2.0339542862563475e-09 -3.0351823016341615e-11 0.0000000000000000e+00  -2.0019294652647172e-09 -3.9262375765953545e-10 0.0000000000000000e+00  -1.9208972280705352e-09 -7.4346535459877233e-10 0.0000000000000000e+00  -1.7929719663706629e-09 -1.0734092416219780e-09 0.0000000000000000e+00  -1.6214350187900437e-09 -1.3734738044331233e-09 0.0000000000000000e+00  -1.4107061633441934e-09 -1.6354019494844181e-09 0.0000000000000000e+00  -1.1664536069041688e-09 -1.8519367007055436e-09 0.0000000000000000e+00  -8.9643471941460884e-10 -2.0171152424022823e-09 0.0000000000000000e+00  -6.1460498152013781e-10 -2.1262798161730396e-09 0.0000000000000000e+00  -3.6130425771886561e-10 -2.1738118807298405e-09 0.0000000000000000e+00  -2.5921384465003409e-10 -2.0439098722176893e-09 0.0000000000000000e+00  -3.1211118880009201e-10 2.6880135526578947e-09 0.0000000000000000e+00  -4.2036377748155161e-10 2.5395428040659684e-09 0.0000000000000000e+00  -6.8912771624598529e-10 2.4562886221274011e-09 0.0000000000000000e+00  -9.8140195550421607e-10 2.3107211768866753e-09 0.0000000000000000e+00  -1.2558599335896195e-09 2.1029208197987717e-09 0.0000000000000000e+00  -1.4994690351746184e-09 1.8382056016567510e-09 0.0000000000000000e+00  -1.7052556813583505e-09 1.5241384353678146e-09 0.0000000000000000e+00  -1.8682794965490074e-09 1.1696634750692498e-09 0.0000000000000000e+00  -1.9848545595900818e-09 7.8468000150004202e-10 0.0000000000000000e+00  -2.0524358573878643e-09 3.7971470630568882e-10 0.0000000000000000e+00  -2.0696254178053177e-09 -3.4346470834259295e-11 0.0000000000000000e+00  -2.0361880361785386e-09 -4.4648833144973342e-10 0.0000000000000000e+00  -1.9530583040087176e-09 -8.4577889902219322e-10 0.0000000000000000e+00  -1.8223381989722252e-09 -1.2215841193700484e-09 0.0000000000000000e+00  -1.6472897359668136e-09 -1.5638018074142718e-09 0.0000000000000000e+00  -1.4323507983598445e-09 -1.8631266585577001e-09 0.0000000000000000e+00  -1.1833165128961926e-09 -2.1113477203776286e-09 0.0000000000000000e+00  -9.0832744990236458e-10 -2.3016491116476310e-09 0.0000000000000000e+00  -6.2242683593871057e-10 -2.4286106408042899e-09 0.0000000000000000e+00  -3.6942067182472485e-10 -2.4859007061306889e-09 0.0000000000000000e+00  -2.8381852067400748e-10 -2.3562961848695508e-09 0.0000000000000000e+00  -3.4633225501122799e-10 3.0245210026313138e-09 0.0000000000000000e+00  -4.3612444253636170e-10 2.8694111772247348e-09 0.0000000000000000e+00  -7.0558031385072572e-10 2.7720301866542999e-09 0.0000000000000000e+00  -1.0021753393466107e-09 2.6045665355085517e-09 0.0000000000000000e+00  -1.2810716681277292e-09 2.3676938038914870e-09 0.0000000000000000e+00  -1.5283171751007164e-09 2.0676538675366537e-09 0.0000000000000000e+00  -1.7366979495405369e-09 1.7130032516470555e-09 0.0000000000000000e+00  -1.9012778106591238e-09 1.3137313775530911e-09 0.0000000000000000e+00  -2.0184843706216027e-09 8.8082619561663901e-10 0.0000000000000000e+00  -2.0859188412364625e-09 4.2593211739583632e-10 0.0000000000000000e+00  -2.1023088660533733e-09 -3.8931921884483548e-11 0.0000000000000000e+00  -2.0674929605516242e-09 -5.0161065729120056e-10 0.0000000000000000e+00  -1.9824194439761268e-09 -9.5002860659675530e-10 0.0000000000000000e+00  -1.8491583920007687e-09 -1.3724087422262079e-09 0.0000000000000000e+00  -1.6709285178769640e-09 -1.7575159857157190e-09 0.0000000000000000e+00  -1.4521644843356866e-09 -2.0949398093486585e-09 0.0000000000000000e+00  -1.1987729598919950e-09 -2.3754157986776211e-09 0.0000000000000000e+00  -9.1927220815034018e-10 -2.5911542559688569e-09 0.0000000000000000e+00  -6.2984495690715953e-10 -2.7358775344674981e-09 0.0000000000000000e+00  -3.7814278753829558e-10 -2.8025343163166591e-09 0.0000000000000000e+00  -3.1230302290388657e-10 -2.6723001803994008e-09 0.0000000000000000e+00  -3.8521141841810018e-10 3.3652214709916500e-09 0.0000000000000000e+00  -4.5163958646592226e-10 3.2045435141189594e-09 0.0000000000000000e+00  -7.1942240826468092e-10 3.0928711449719999e-09 0.0000000000000000e+00  -1.0183900097980901e-09 2.9030015702034076e-09 0.0000000000000000e+00  -1.2998311477090398e-09 2.6362655796414298e-09 0.0000000000000000e+00  -1.5488810239862623e-09 2.2999624128346323e-09 0.0000000000000000e+00  -1.7581716723899553e-09 1.9037882588747674e-09 0.0000000000000000e+00  -1.9228665803697626e-09 1.4588881872912057e-09 0.0000000000000000e+00  -2.0395953272830409e-09 9.7739045734297826e-10 0.0000000000000000e+00  -2.1061775900644354e-09 4.7205010915774807e-10 0.0000000000000000e+00  -2.1215128388264151e-09 -4.4031937235394544e-11 0.0000000000000000e+00  -2.0855256044181381e-09 -5.5763271384296516e-10 0.0000000000000000e+00  -1.9991539473931925e-09 -1.0556018537220591e-09 0.0000000000000000e+00  -1.8643803875835573e-09 -1.5250609219594272e-09 0.0000000000000000e+00  -1.6843034255045741e-09 -1.9536390741243334e-09 0.0000000000000000e+00  -1.4632694557314655e-09 -2.3297660749946857e-09 0.0000000000000000e+00  -1.2072169357381381e-09 -2.6430252665016132e-09 0.0000000000000000e+00  -9.2498711558719773e-10 -2.8845349992272232e-09 0.0000000000000000e+00  -6.3393851181022952e-10 -3.0470656923171814e-09 0.0000000000000000e+00  -3.8596243482739343e-10 -3.1228349419686114e-09 0.0000000000000000e+00  -3.4472431190540914e-10 -2.9917132691756455e-09 0.0000000000000000e+00  -4.2891283932393030e-10 3.7071423830794428e-09 0.0000000000000000e+00  -4.6521964884182013e-10 3.5425858605326125e-09 0.0000000000000000e+00  -7.2727190981702449e-10 3.4163288182588357e-09 0.0000000000000000e+00  -1.0250050883878755e-09 3.2034634708446990e-09 0.0000000000000000e+00  -1.3054780500612955e-09 2.9061006076184889e-09 0.0000000000000000e+00  -1.5529489329457629e-09 2.5327509079893403e-09 0.0000000000000000e+00  -1.7600438655085581e-09 2.0944001517717363e-09 0.0000000000000000e+00  -1.9222007196341196e-09 1.6034543094759350e-09 0.0000000000000000e+00  -2.0364177144019593e-09 1.0732177684017253e-09 0.0000000000000000e+00  -2.1008679896151542e-09 5.1751986688136751e-10 0.0000000000000000e+00  -2.1147073136417758e-09 -4.9549155455273110e-11 0.0000000000000000e+00  -2.0779680867524765e-09 -6.1381965290705735e-10 0.0000000000000000e+00  -1.9915347185613844e-09 -1.1611825975255456e-09 0.0000000000000000e+00  -1.8572013819985580e-09 -1.6777381120698504e-09 0.0000000000000000e+00  -1.6778052128767633e-09 -2.1500001024047061e-09 0.0000000000000000e+00  -1.4574459591674793e-09 -2.5651905715691560e-09 0.0000000000000000e+00  -1.2019447191623744e-09 -2.9116330490760884e-09 0.0000000000000000e+00  -9.2035989198977080e-10 -3.1792151499507623e-09 0.0000000000000000e+00  -6.3124082722908263e-10 -3.3596326359756109e-09 0.0000000000000000e+00  -3.9111129271144130e-10 -3.4443411444240723e-09 0.0000000000000000e+00  -3.8117184274128174e-10 -3.3127710384977048e-09 0.0000000000000000e+00  -4.7762173608365419e-10 4.0452406183825329e-09 0.0000000000000000e+00  -4.7483898290522715e-10 3.8793062681531183e-09 0.0000000000000000e+00  -7.2504934134733086e-10 3.7380881382310282e-09 0.0000000000000000e+00  -1.0159077226712239e-09 3.5015947188878913e-09 0.0000000000000000e+00  -1.2899090018752115e-09 3.1729253921192178e-09 0.0000000000000000e+00  -1.5305145255436706e-09 2.7620104254510411e-09 0.0000000000000000e+00  -1.7305694264696609e-09 2.2813045035383955e-09 0.0000000000000000e+00  -1.8860552020958607e-09 1.7445831294079019e-09 0.0000000000000000e+00  -1.9945995530517699e-09 1.1663382986556561e-09 0.0000000000000000e+00  -2.0549411712388518e-09 5.6138670695171990e-10 0.0000000000000000e+00  -2.0666244748020828e-09 -5.5355642964211613e-11 0.0000000000000000e+00  -2.0298236774876306e-09 -6.6897450128023033e-10 0.0000000000000000e+00  -1.9453013775583496e-09 -1.2645971181790795e-09 0.0000000000000000e+00  -1.8145051571471830e-09 -1.8274460650116600e-09 0.0000000000000000e+00  -1.6397886126993519e-09 -2.3429797027358730e-09 0.0000000000000000e+00  -1.4247552713189728e-09 -2.7971733067650689e-09 0.0000000000000000e+00  -1.1748743932253402e-09 -3.1769623958838919e-09 0.0000000000000000e+00  -8.9925175088552209e-10 -3.4708209000547532e-09 0.0000000000000000e+00  -6.1761105532316266e-10 -3.6691927916951148e-09 0.0000000000000000e+00  -3.9149035841363717e-10 -3.7627074526317154e-09 0.0000000000000000e+00  -4.2175735974487111e-10 -3.6318974766774651e-09 0.0000000000000000e+00  -5.3154231947911992e-10 4.3719937029677924e-09 0.0000000000000000e+00  -4.7805824157726077e-10 4.2082069157970653e-09 0.0000000000000000e+00  -7.0782210991266465e-10 4.0515949366053423e-09 0.0000000000000000e+00  -9.8366617883967066e-10 3.7908268304207053e-09 0.0000000000000000e+00  -1.2432238324050252e-09 3.4303191252176845e-09 0.0000000000000000e+00  -1.4693