<?xml version="1.0"?>
<VTKFile type="UnstructuredGrid"  version="0.1"  >
<UnstructuredGrid>
<Piece  NumberOfPoints="651" NumberOfCells="1200">
<Points>
<DataArray  type="Float64"  NumberOfComponents="3"  format="ascii">0 0 0  50000 0 0  100000 0 0  150000 0 0  200000 0 0  250000 0 0  300000 0 0  350000 0 0  400000 0 0  450000 0 0  500000 0 0  550000 0 0  600000 0 0  650000 0 0  700000 0 0  750000 0 0  800000 0 0  850000 0 0  900000 0 0  950000 0 0  1000000 0 0  0 50000 0  50000 50000 0  100000 50000 0  150000 50000 0  200000 50000 0  250000 50000 0  300000 50000 0  350000 50000 0  400000 50000 0  450000 50000 0  500000 50000 0  550000 50000 0  600000 50000 0  650000 50000 0  700000 50000 0  750000 50000 0  800000 50000 0  850000 50000 0  900000 50000 0  950000 50000 0  1000000 50000 0  0 100000 0  50000 100000 0  100000 100000 0  150000 100000 0  200000 100000 0  250000 100000 0  300000 100000 0  350000 100000 0  400000 100000 0  450000 100000 0  500000 100000 0  550000 100000 0  600000 100000 0  650000 100000 0  700000 100000 0  750000 100000 0  800000 100000 0  850000 100000 0  900000 100000 0  950000 100000 0  1000000 100000 0  0 150000 0  50000 150000 0  100000 150000 0  150000 150000 0  200000 150000 0  250000 150000 0  300000 150000 0  350000 150000 0  400000 150000 0  450000 150000 0  500000 150000 0  550000 150000 0  600000 150000 0  650000 150000 0  700000 150000 0  750000 150000 0  800000 150000 0  850000 150000 0  900000 150000 0  950000 150000 0  1000000 150000 0  0 200000 0  50000 200000 0  100000 200000 0  150000 200000 0  200000 200000 0  250000 200000 0  300000 200000 0  350000 200000 0  400000 200000 0  450000 200000 0  500000 200000 0  550000 200000 0  600000 200000 0  650000 200000 0  700000 200000 0  750000 200000 0  800000 200000 0  850000 200000 0  900000 200000 0  950000 200000 0  1000000 200000 0  0 250000 0  50000 250000 0  100000 250000 0  150000 250000 0  200000 250000 0  250000 250000 0  300000 250000 0  350000 250000 0  400000 250000 0  450000 250000 0  500000 250000 0  550000 250000 0  600000 250000 0  650000 250000 0  700000 250000 0  750000 250000 0  800000 250000 0  850000 250000 0  900000 250000 0  950000 250000 0  1000000 250000 0  0 300000 0  50000 300000 0  100000 300000 0  150000 300000 0  200000 300000 0  250000 300000 0  300000 300000 0  350000 300000 0  400000 300000 0  450000 300000 0  500000 300000 0  550000 300000 0  600000 300000 0  650000 300000 0  700000 300000 0  750000 300000 0  800000 300000 0  850000 300000 0  900000 300000 0  950000 300000 0  1000000 300000 0  0 350000 0  50000 350000 0  100000 350000 0  150000 350000 0  200000 350000 0  250000 350000 0  300000 350000 0  350000 350000 0  400000 350000 0  450000 350000 0  500000 350000 0  550000 350000 0  600000 350000 0  650000 350000 0  700000 350000 0  750000 350000 0  800000 350000 0  850000 350000 0  900000 350000 0  950000 350000 0  1000000 350000 0  0 400000 0  50000 400000 0  100000 400000 0  150000 400000 0  200000 400000 0  250000 400000 0  300000 400000 0  350000 400000 0  400000 400000 0  450000 400000 0  500000 400000 0  550000 400000 0  600000 400000 0  650000 400000 0  700000 400000 0  750000 400000 0  800000 400000 0  850000 400000 0  900000 400000 0  950000 400000 0  1000000 400000 0  0 450000 0  50000 450000 0  100000 450000 0  150000 450000 0  200000 450000 0  250000 450000 0  300000 450000 0  350000 450000 0  400000 450000 0  450000 450000 0  500000 450000 0  550000 450000 0  600000 450000 0  650000 450000 0  700000 450000 0  750000 450000 0  800000 450000 0  850000 450000 0  900000 450000 0  950000 450000 0  1000000 450000 0  0 500000 0  50000 500000 0  100000 500000 0  150000 500000 0  200000 500000 0  250000 500000 0  300000 500000 0  350000 500000 0  400000 500000 0  450000 500000 0  500000 500000 0  550000 500000 0  600000 500000 0  650000 500000 0  700000 500000 0  750000 500000 0  800000 500000 0  850000 500000 0  900000 500000 0  950000 500000 0  1000000 500000 0  0 550000 0  50000 550000 0  100000 550000 0  150000 550000 0  200000 550000 0  250000 550000 0  300000 550000 0  350000 550000 0  400000 550000 0  450000 550000 0  500000 550000 0  550000 550000 0  600000 550000 0  650000 550000 0  700000 550000 0  750000 550000 0  800000 550000 0  850000 550000 0  900000 550000 0  950000 550000 0  1000000 550000 0  0 600000 0  50000 600000 0  100000 600000 0  150000 600000 0  200000 600000 0  250000 600000 0  300000 600000 0  350000 600000 0  400000 600000 0  450000 600000 0  500000 600000 0  550000 600000 0  600000 600000 0  650000 600000 0  700000 600000 0  750000 600000 0  800000 600000 0  850000 600000 0  900000 600000 0  950000 600000 0  1000000 600000 0  0 650000 0  50000 650000 0  100000 650000 0  150000 650000 0  200000 650000 0  250000 650000 0  300000 650000 0  350000 650000 0  400000 650000 0  450000 650000 0  500000 650000 0  550000 650000 0  600000 650000 0  650000 650000 0  700000 650000 0  750000 650000 0  800000 650000 0  850000 650000 0  900000 650000 0  950000 650000 0  1000000 650000 0  0 700000 0  50000 700000 0  100000 700000 0  150000 700000 0  200000 700000 0  250000 700000 0  300000 700000 0  350000 700000 0  400000 700000 0  450000 700000 0  500000 700000 0  550000 700000 0  600000 700000 0  650000 700000 0  700000 700000 0  750000 700000 0  800000 700000 0  850000 700000 0  900000 700000 0  950000 700000 0  1000000 700000 0  0 750000 0  50000 750000 0  100000 750000 0  150000 750000 0  200000 750000 0  250000 750000 0  300000 750000 0  350000 750000 0  400000 750000 0  450000 750000 0  500000 750000 0  550000 750000 0  600000 750000 0  650000 750000 0  700000 750000 0  750000 750000 0  800000 750000 0  850000 750000 0  900000 750000 0  950000 750000 0  1000000 750000 0  0 800000 0  50000 800000 0  100000 800000 0  150000 800000 0  200000 800000 0  250000 800000 0  300000 800000 0  350000 800000 0  400000 800000 0  450000 800000 0  500000 800000 0  550000 800000 0  600000 800000 0  650000 800000 0  700000 800000 0  750000 800000 0  800000 800000 0  850000 800000 0  900000 800000 0  950000 800000 0  1000000 800000 0  0 850000 0  50000 850000 0  100000 850000 0  150000 850000 0  200000 850000 0  250000 850000 0  300000 850000 0  350000 850000 0  400000 850000 0  450000 850000 0  500000 850000 0  550000 850000 0  600000 850000 0  650000 850000 0  700000 850000 0  750000 850000 0  800000 850000 0  850000 850000 0  900000 850000 0  950000 850000 0  1000000 850000 0  0 900000 0  50000 900000 0  100000 900000 0  150000 900000 0  200000 900000 0  250000 900000 0  300000 900000 0  350000 900000 0  400000 900000 0  450000 900000 0  500000 900000 0  550000 900000 0  600000 900000 0  650000 900000 0  700000 900000 0  750000 900000 0  800000 900000 0  850000 900000 0  900000 900000 0  950000 900000 0  1000000 900000 0  0 950000 0  50000 950000 0  100000 950000 0  150000 950000 0  200000 950000 0  250000 950000 0  300000 950000 0  350000 950000 0  400000 950000 0  450000 950000 0  500000 950000 0  550000 950000 0  600000 950000 0  650000 950000 0  700000 950000 0  750000 950000 0  800000 950000 0  850000 950000 0  900000 950000 0  950000 950000 0  1000000 950000 0  0 1000000 0  50000 1000000 0  100000 1000000 0  150000 1000000 0  200000 1000000 0  250000 1000000 0  300000 1000000 0  350000 1000000 0  400000 1000000 0  450000 1000000 0  500000 1000000 0  550000 1000000 0  600000 1000000 0  650000 1000000 0  700000 1000000 0  750000 1000000 0  800000 1000000 0  850000 1000000 0  900000 1000000 0  950000 1000000 0  1000000 1000000 0  0 1050000 0  50000 1050000 0  100000 1050000 0  150000 1050000 0  200000 1050000 0  250000 1050000 0  300000 1050000 0  350000 1050000 0  400000 1050000 0  450000 1050000 0  500000 1050000 0  550000 1050000 0  600000 1050000 0  650000 1050000 0  700000 1050000 0  750000 1050000 0  800000 1050000 0  850000 1050000 0  900000 1050000 0  950000 1050000 0  1000000 1050000 0  0 1100000 0  50000 1100000 0  100000 1100000 0  150000 1100000 0  200000 1100000 0  250000 1100000 0  300000 1100000 0  350000 1100000 0  400000 1100000 0  450000 1100000 0  500000 1100000 0  550000 1100000 0  600000 1100000 0  650000 1100000 0  700000 1100000 0  750000 1100000 0  800000 1100000 0  850000 1100000 0  900000 1100000 0  950000 1100000 0  1000000 1100000 0  0 1150000 0  50000 1150000 0  100000 1150000 0  150000 1150000 0  200000 1150000 0  250000 1150000 0  300000 1150000 0  350000 1150000 0  400000 1150000 0  450000 1150000 0  500000 1150000 0  550000 1150000 0  600000 1150000 0  650000 1150000 0  700000 1150000 0  750000 1150000 0  800000 1150000 0  850000 1150000 0  900000 1150000 0  950000 1150000 0  1000000 1150000 0  0 1200000 0  50000 1200000 0  100000 1200000 0  150000 1200000 0  200000 1200000 0  250000 1200000 0  300000 1200000 0  350000 1200000 0  400000 1200000 0  450000 1200000 0  500000 1200000 0  550000 1200000 0  600000 1200000 0  650000 1200000 0  700000 1200000 0  750000 1200000 0  800000 1200000 0  850000 1200000 0  900000 1200000 0  950000 1200000 0  1000000 1200000 0  0 1250000 0  50000 1250000 0  100000 1250000 0  150000 1250000 0  200000 1250000 0  250000 1250000 0  300000 1250000 0  350000 1250000 0  400000 1250000 0  450000 1250000 0  500000 1250000 0  550000 1250000 0  600000 1250000 0  650000 1250000 0  700000 1250000 0  750000 1250000 0  800000 1250000 0  850000 1250000 0  900000 1250000 0  950000 1250000 0  1000000 1250000 0  0 1300000 0  50000 1300000 0  100000 1300000 0  150000 1300000 0  200000 1300000 0  250000 1300000 0  300000 1300000 0  350000 1300000 0  400000 1300000 0  450000 1300000 0  500000 1300000 0  550000 1300000 0  600000 1300000 0  650000 1300000 0  700000 1300000 0  750000 1300000 0  800000 1300000 0  850000 1300000 0  900000 1300000 0  950000 1300000 0  1000000 1300000 0  0 1350000 0  50000 1350000 0  100000 1350000 0  150000 1350000 0  200000 1350000 0  250000 1350000 0  300000 1350000 0  350000 1350000 0  400000 1350000 0  450000 1350000 0  500000 1350000 0  550000 1350000 0  600000 1350000 0  650000 1350000 0  700000 135
[...]
<PointData  Vectors="f_4485"> 
<DataArray  type="Float64"  Name="f_4485"  NumberOfComponents="3" format="ascii">-2.4476761315847453e-10 2.2183246107616502e-10 0.0000000000000000e+00  -4.4998878884662661e-10 1.8261498481686656e-10 0.0000000000000000e+00  -8.1443127159364071e-10 1.6660204702919417e-10 0.0000000000000000e+00  -1.1664445894102979e-09 1.5247667138459289e-10 0.0000000000000000e+00  -1.4887164598735631e-09 1.3583090894144297e-10 0.0000000000000000e+00  -1.7718630906825432e-09 1.1625251042988096e-10 0.0000000000000000e+00  -2.0082577922677336e-09 9.3970245137007830e-11 0.0000000000000000e+00  -2.1917311433127499e-09 6.9430962248218638e-11 0.0000000000000000e+00  -2.3175655112560146e-09 4.3203601283978137e-11 0.0000000000000000e+00  -2.3825792607025823e-09 1.5928788020117748e-11 0.0000000000000000e+00  -2.3851955762939659e-09 -1.1714083627488919e-11 0.0000000000000000e+00  -2.3254756340140663e-09 -3.9032361169692024e-11 0.0000000000000000e+00  -2.2051124920434469e-09 -6.5342807406014614e-11 0.0000000000000000e+00  -2.0273857947603839e-09 -8.9993805377617433e-11 0.0000000000000000e+00  -1.7970853953626071e-09 -1.1239020149897743e-10 0.0000000000000000e+00  -1.5204535526690578e-09 -1.3203126743933364e-10 0.0000000000000000e+00  -1.2054062312477106e-09 -1.4860076232012494e-10 0.0000000000000000e+00  -8.6322720694040213e-10 -1.6221787078223943e-10 0.0000000000000000e+00  -5.1657648324086337e-10 -1.7319284400344395e-10 0.0000000000000000e+00  -2.3351270611945605e-10 -1.6804852239513174e-10 0.0000000000000000e+00  -1.1433803963643176e-10 -1.0594416590552615e-10 0.0000000000000000e+00  -2.0818943575973507e-10 4.1088929280132377e-10 0.0000000000000000e+00  -3.7324815154272328e-10 3.6748946302269044e-10 0.0000000000000000e+00  -6.6158505142502164e-10 3.7623562233394884e-10 0.0000000000000000e+00  -9.8078093643989038e-10 3.5779605460563037e-10 0.0000000000000000e+00  -1.2847568259766232e-09 3.2557620222456769e-10 0.0000000000000000e+00  -1.5581980209850773e-09 2.8331749783935915e-10 0.0000000000000000e+00  -1.7922917964134453e-09 2.3306517783049322e-10 0.0000000000000000e+00  -1.9803130811485041e-09 1.7650110606620238e-10 0.0000000000000000e+00  -2.1171063016456076e-09 1.1527072115614001e-10 0.0000000000000000e+00  -2.1990331411869317e-09 5.1060972430447770e-11 0.0000000000000000e+00  -2.2239880458212309e-09 -1.4399397239261972e-11 0.0000000000000000e+00  -2.1914178250512459e-09 -7.9364713064985943e-11 0.0000000000000000e+00  -2.1023241012538721e-09 -1.4210475769705306e-10 0.0000000000000000e+00  -1.9592434626294426e-09 -2.0093703499166787e-10 0.0000000000000000e+00  -1.7662130237983458e-09 -2.5425214528037046e-10 0.0000000000000000e+00  -1.5287569482406014e-09 -3.0051964838041361e-10 0.0000000000000000e+00  -1.2540304840013370e-09 -3.3823206714689421e-10 0.0000000000000000e+00  -9.5168891108459028e-10 -3.6555758201512783e-10 0.0000000000000000e+00  -6.3790316970261978e-10 -3.7825301992021013e-10 0.0000000000000000e+00  -3.5280260626165396e-10 -3.6013223635598467e-10 0.0000000000000000e+00  -1.8230214128595437e-10 -2.1632094154681610e-10 0.0000000000000000e+00  -2.0359106318620398e-10 7.4661350072779388e-10 0.0000000000000000e+00  -3.8094553947934088e-10 6.5218282730776514e-10 0.0000000000000000e+00  -6.5611935278120115e-10 6.5585123198457210e-10 0.0000000000000000e+00  -9.4963452076024188e-10 6.2683390984520808e-10 0.0000000000000000e+00  -1.2303055902333638e-09 5.7342171020730629e-10 0.0000000000000000e+00  -1.4842724703414309e-09 5.0127276722695351e-10 0.0000000000000000e+00  -1.7023773343345777e-09 4.1430423289354683e-10 0.0000000000000000e+00  -1.8779027519024591e-09 3.1573817634075263e-10 0.0000000000000000e+00  -2.0058028176165370e-09 2.0862611177807717e-10 0.0000000000000000e+00  -2.0825447268660715e-09 9.6028902448684674e-11 0.0000000000000000e+00  -2.1060908100644752e-09 -1.8949280817629647e-11 0.0000000000000000e+00  -2.0759011382389423e-09 -1.3318420636825226e-10 0.0000000000000000e+00  -1.9929297230556350e-09 -2.4357438373007092e-10 0.0000000000000000e+00  -1.8596080562076486e-09 -3.4708394431919375e-10 0.0000000000000000e+00  -1.6798222204096079e-09 -4.4076741433588882e-10 0.0000000000000000e+00  -1.4589136075072977e-09 -5.2174389343005295e-10 0.0000000000000000e+00  -1.2038102944155675e-09 -5.8703942466415453e-10 0.0000000000000000e+00  -9.2368763663647784e-10 -6.3307452042400807e-10 0.0000000000000000e+00  -6.3265951371388891e-10 -6.5419429545365924e-10 0.0000000000000000e+00  -3.6303026074193893e-10 -6.4014247556459294e-10 0.0000000000000000e+00  -1.9355380515900793e-10 -4.7513174982292331e-10 0.0000000000000000e+00  -2.1002035771139105e-10 1.0772881062044912e-09 0.0000000000000000e+00  -3.7960173936370559e-10 9.6517244870943161e-10 0.0000000000000000e+00  -6.5024326265957702e-10 9.5141212607280609e-10 0.0000000000000000e+00  -9.3415336540163747e-10 9.0625315612000507e-10 0.0000000000000000e+00  -1.2024340621244397e-09 8.2979885840792646e-10 0.0000000000000000e+00  -1.4440264188641534e-09 7.2691794841822488e-10 0.0000000000000000e+00  -1.6512065503823351e-09 6.0243938098963068e-10 0.0000000000000000e+00  -1.8177918218217874e-09 4.6089020768612157e-10 0.0000000000000000e+00  -1.9390010017652493e-09 3.0671158560512573e-10 0.0000000000000000e+00  -2.0114617510085769e-09 1.4438020035352007e-10 0.0000000000000000e+00  -2.0332291063118911e-09 -2.1569113914945065e-11 0.0000000000000000e+00  -2.0037969394463412e-09 -1.8657655160140706e-10 0.0000000000000000e+00  -1.9240945152085575e-09 -3.4611398712939453e-10 0.0000000000000000e+00  -1.7964658555671214e-09 -4.9574336229892255e-10 0.0000000000000000e+00  -1.6246335388586591e-09 -6.3115715279561626e-10 0.0000000000000000e+00  -1.4136590319088374e-09 -7.4817532606160066e-10 0.0000000000000000e+00  -1.1699579235798069e-09 -8.4266388302858520e-10 0.0000000000000000e+00  -9.0165874485239206e-10 -9.1036017535281931e-10 0.0000000000000000e+00  -6.2076252587669917e-10 -9.4663893402780435e-10 0.0000000000000000e+00  -3.5724052426676773e-10 -9.4604405651865888e-10 0.0000000000000000e+00  -1.9597281634602249e-10 -7.9001762935443880e-10 0.0000000000000000e+00  -2.2241072611231252e-10 1.4010598225200491e-09 0.0000000000000000e+00  -3.8014972553965965e-10 1.2791777509686442e-09 0.0000000000000000e+00  -6.4771712437796341e-10 1.2481837397608714e-09 0.0000000000000000e+00  -9.2846471322320481e-10 1.1835389654892693e-09 0.0000000000000000e+00  -1.1919314959737123e-09 1.0824684275156655e-09 0.0000000000000000e+00  -1.4277410569035110e-09 9.4863305775240825e-10 0.0000000000000000e+00  -1.6291259688567446e-09 7.8712656304345145e-10 0.0000000000000000e+00  -1.7905756269479432e-09 6.0341205808316027e-10 0.0000000000000000e+00  -1.9076963833775699e-09 4.0314286308951947e-10 0.0000000000000000e+00  -1.9773349274559102e-09 1.9212442532333210e-10 0.0000000000000000e+00  -1.9976656861054271e-09 -2.3729424189688805e-11 0.0000000000000000e+00  -1.9682297221358043e-09 -2.3846432849162129e-10 0.0000000000000000e+00  -1.8899387617383515e-09 -4.4616848658787968e-10 0.0000000000000000e+00  -1.7650497584163673e-09 -6.4105900079505462e-10 0.0000000000000000e+00  -1.5971099243022263e-09 -8.1756106178084416e-10 0.0000000000000000e+00  -1.3908765617120807e-09 -9.7037464279942695e-10 0.0000000000000000e+00  -1.1522675563453495e-09 -1.0945434754627549e-09 0.0000000000000000e+00  -8.8869776735792405e-10 -1.1856010618369732e-09 0.0000000000000000e+00  -6.1164111946733104e-10 -1.2397950720296144e-09 0.0000000000000000e+00  -3.5260663670128588e-10 -1.2532546978340231e-09 0.0000000000000000e+00  -2.0399877531227334e-10 -1.1079916140341722e-09 0.0000000000000000e+00  -2.3970175517248817e-10 1.7219195943336545e-09 0.0000000000000000e+00  -3.8480100543178196e-10 1.5922848426767600e-09 0.0000000000000000e+00  -6.5077583327381991e-10 1.5457374389180664e-09 0.0000000000000000e+00  -9.3181820944824952e-10 1.4603875403400663e-09 0.0000000000000000e+00  -1.1950587271530101e-09 1.3333579243526724e-09 0.0000000000000000e+00  -1.4297162201515871e-09 1.1678780469816305e-09 0.0000000000000000e+00  -1.6293242234484547e-09 9.6925013776112270e-10 0.0000000000000000e+00  -1.7887870891818436e-09 7.4367749192698708e-10 0.0000000000000000e+00  -1.9040402965691738e-09 4.9786985966187923e-10 0.0000000000000000e+00  -1.9721506793564177e-09 2.3885579670637519e-10 0.0000000000000000e+00  -1.9914228327151432e-09 -2.6147275449622289e-11 0.0000000000000000e+00  -1.9614555608001422e-09 -2.8985298438193700e-10 0.0000000000000000e+00  -1.8831537969578775e-09 -5.4502774965859478e-10 0.0000000000000000e+00  -1.7587027026986327e-09 -7.8461580912231006e-10 0.0000000000000000e+00  -1.5915056875079869e-09 -1.0018689020107899e-09 0.0000000000000000e+00  -1.3860966952710870e-09 -1.1904897553381780e-09 0.0000000000000000e+00  -1.1481115531888600e-09 -1.3448182791038432e-09 0.0000000000000000e+00  -8.8477772636962727e-10 -1.4601146141521399e-09 0.0000000000000000e+00  -6.0804256641491389e-10 -1.5327743402622725e-09 0.0000000000000000e+00  -3.5201286538360656e-10 -1.5589609663117226e-09 0.0000000000000000e+00  -2.1693334426310163e-10 -1.4212437997265601e-09 0.0000000000000000e+00  -2.6152448342995486e-10 2.0434899463526326e-09 0.0000000000000000e+00  -3.9353341683323701e-10 1.9067171603015987e-09 0.0000000000000000e+00  -6.5945780456007729e-10 1.8457521821387768e-09 0.0000000000000000e+00  -9.4310332650860622e-10 1.7394642882284089e-09 0.0000000000000000e+00  -1.2089456191496949e-09 1.5855499134732782e-09 0.0000000000000000e+00  -1.4454355236173783e-09 1.3875392656981988e-09 0.0000000000000000e+00  -1.6460168049753430e-09 1.1511815946068422e-09 0.0000000000000000e+00  -1.8057481740938581e-09 8.8342370989579294e-10 0.0000000000000000e+00  -1.9207686951830078e-09 5.9196603185429333e-10 0.0000000000000000e+00  -1.9883181501659422e-09 2.8498728320019485e-10 0.0000000000000000e+00  -2.0068200234319033e-09 -2.9057743201756706e-11 0.0000000000000000e+00  -1.9759345862884635e-09 -3.4161088775257277e-10 0.0000000000000000e+00  -1.8965730826294983e-09 -6.4417427883963124e-10 0.0000000000000000e+00  -1.7708761148239263e-09 -9.2847616858964783e-10 0.0000000000000000e+00  -1.6021599823653938e-09 -1.1866486796229017e-09 0.0000000000000000e+00  -1.3948510436800613e-09 -1.4114311771404997e-09 0.0000000000000000e+00  -1.1545216783615925e-09 -1.5964202190784020e-09 0.0000000000000000e+00  -8.8856221978027865e-10 -1.7363787580492685e-09 0.0000000000000000e+00  -6.0979949519459189e-10 -1.8273488217726750e-09 0.0000000000000000e+00  -3.5527407189621052e-10 -1.8649959611648931e-09 0.0000000000000000e+00  -2.3411676093238186e-10 -1.7315942744762608e-09 0.0000000000000000e+00  -2.8773990921170452e-10 2.3684923103817320e-09 0.0000000000000000e+00  -4.0564645826393612e-10 2.2248039201632198e-09 0.0000000000000000e+00  -6.7258343653519217e-10 2.1500712549916543e-09 0.0000000000000000e+00  -9.6031430671405866e-10 2.0227664295740674e-09 0.0000000000000000e+00  -1.2304024330509015e-09 1.8412776201653416e-09 0.0000000000000000e+00  -1.4704286676962056e-09 1.6098166271970741e-09 0.0000000000000000e+00  -1.6735852889518508e-09 1.3348398151841116e-09 0.0000000000000000e+00  -1.8349326242173469e-09 1.0241424696959950e-09 0.0000000000000000e+00  -1.9507131312210524e-09 6.8642816479484625e-10 0.0000000000000000e+00  -2.0182899766653326e-09 3.3099666130415152e-10 0.0000000000000000e+00  -2.0361877016309709e-09 -3.2504783226407792e-11 0.0000000000000000e+00  -2.0041269458779614e-09 -3.9429492696289231e-10 0.0000000000000000e+00  -1.9230351156348672e-09 -7.4465714406919981e-10 0.0000000000000000e+00  -1.7950323814398903e-09 -1.0741392148285415e-09 0.0000000000000000e+00  -1.6233974100813806e-09 -1.3737684131025630e-09 0.0000000000000000e+00  -1.4125391118310738e-09 -1.6352949747209250e-09 0.0000000000000000e+00  -1.1681061067659884e-09 -1.8514734638580067e-09 0.0000000000000000e+00  -8.9782159762424660e-10 -2.0163682914971785e-09 0.0000000000000000e+00  -6.1554497039919027e-10 -2.1254006307321581e-09 0.0000000000000000e+00  -3.6153340479320610e-10 -2.1735838419416315e-09 0.0000000000000000e+00  -2.5529599316436564e-10 -2.0420759942176365e-09 0.0000000000000000e+00  -3.1833105166356283e-10 2.6985035372729603e-09 0.0000000000000000e+00  -4.2014645277547405e-10 2.5481551001254627e-09 0.0000000000000000e+00  -6.8831114504832224e-10 2.4599379562126213e-09 0.0000000000000000e+00  -9.8069326910085585e-10 2.3114312061338293e-09 0.0000000000000000e+00  -1.2556179518897642e-09 2.1017180930052663e-09 0.0000000000000000e+00  -1.4997650309002373e-09 1.8358794520432438e-09 0.0000000000000000e+00  -1.7060421498603069e-09 1.5212762367647082e-09 0.0000000000000000e+00  -1.8694625661176182e-09 1.1666771334267526e-09 0.0000000000000000e+00  -1.9863330857228269e-09 7.8184051678884113e-10 0.0000000000000000e+00  -2.0541200292333345e-09 3.7718775985119648e-10 0.0000000000000000e+00  -2.0714425239027656e-09 -3.6469895389793194e-11 0.0000000000000000e+00  -2.0380810725682755e-09 -4.4816828153201439e-10 0.0000000000000000e+00  -1.9549811137533870e-09 -8.4700947288106694e-10 0.0000000000000000e+00  -1.8242492101017463e-09 -1.2223821682185146e-09 0.0000000000000000e+00  -1.6491453472999752e-09 -1.5642004075812763e-09 0.0000000000000000e+00  -1.4340989468154567e-09 -1.8631729259798062e-09 0.0000000000000000e+00  -1.1848902801452647e-09 -2.1111055678410545e-09 0.0000000000000000e+00  -9.0963420561807794e-10 -2.3012120697687229e-09 0.0000000000000000e+00  -6.2329580011735182e-10 -2.4281501149981028e-09 0.0000000000000000e+00  -3.6968413740991236e-10 -2.4862441501486592e-09 0.0000000000000000e+00  -2.8038656714581606e-10 -2.3550032334464492e-09 0.0000000000000000e+00  -3.5335428430192681e-10 3.0337984618914301e-09 0.0000000000000000e+00  -4.3583016370485177e-10 2.8773263133198740e-09 0.0000000000000000e+00  -7.0431059103193063e-10 2.7756426204124242e-09 0.0000000000000000e+00  -1.0007972811831991e-09 2.6055926580787619e-09 0.0000000000000000e+00  -1.2800140483921915e-09 2.3669637467701222e-09 0.0000000000000000e+00  -1.5277282618811363e-09 2.0658246491572833e-09 0.0000000000000000e+00  -1.7366018495720986e-09 1.7105887498982100e-09 0.0000000000000000e+00  -1.9016347481785657e-09 1.3111130984797549e-09 0.0000000000000000e+00  -2.0192263122838210e-09 8.7827064179833208e-10 0.0000000000000000e+00  -2.0869705761458636e-09 4.2361284452197378e-10 0.0000000000000000e+00  -2.1035984962779461e-09 -4.0912552946287490e-11 0.0000000000000000e+00  -2.0689552285692301e-09 -5.0320291322047295e-10 0.0000000000000000e+00  -1.9839947104849102e-09 -9.5122099949330127e-10 0.0000000000000000e+00  -1.8507892741717417e-09 -1.3732178246613226e-09 0.0000000000000000e+00  -1.6725555375972968e-09 -1.7579799657011664e-09 0.0000000000000000e+00  -1.4537216316741342e-09 -2.0951156964990544e-09 0.0000000000000000e+00  -1.2001833466136675e-09 -2.3753805272001812e-09 0.0000000000000000e+00  -9.2043996443201749e-10 -2.5910148251343350e-09 0.0000000000000000e+00  -6.3061105506190279e-10 -2.7358168647746104e-09 0.0000000000000000e+00  -3.7843157867460495e-10 -2.8034126019949656e-09 0.0000000000000000e+00  -3.0938602979291058e-10 -2.6715213794766671e-09 0.0000000000000000e+00  -3.9291325016820081e-10 3.3731619101279491e-09 0.0000000000000000e+00  -4.5127484936548312e-10 3.2115702216980798e-09 0.0000000000000000e+00  -7.1776458895409193e-10 3.0962520433956549e-09 0.0000000000000000e+00  -1.0164489925258915e-09 2.9041813778440945e-09 0.0000000000000000e+00  -1.2980811764743081e-09 2.6359049668354092e-09 0.0000000000000000e+00  -1.5475215221346665e-09 2.2985929962263480e-09 0.0000000000000000e+00  -1.7572791864009943e-09 1.9018413506650695e-09 0.0000000000000000e+00  -1.9224460593071071e-09 1.4566984463426530e-09 0.0000000000000000e+00  -2.0396109499447353e-09 9.7520279810377299e-10 0.0000000000000000e+00  -2.1065733110607509e-09 4.7003172131721863e-10 0.0000000000000000e+00  -2.1222248358303159e-09 -4.5777650108765801e-11 0.0000000000000000e+00  -2.0864884797545169e-09 -5.5905289240798532e-10 0.0000000000000000e+00  -2.0003025803408089e-09 -1.0566830516495760e-09 0.0000000000000000e+00  -1.8656490876114200e-09 -1.5258206081724501e-09 0.0000000000000000e+00  -1.6856237007548736e-09 -1.9541197990588763e-09 0.0000000000000000e+00  -1.4645673862960198e-09 -2.3300321937756846e-09 0.0000000000000000e+00  -1.2084104433169662e-09 -2.6431627105770057e-09 0.0000000000000000e+00  -9.2597991207669313e-10 -2.8846593355872878e-09 0.0000000000000000e+00  -6.3458363386347013e-10 -3.0473665848937540e-09 0.0000000000000000e+00  -3.8627159740020044e-10 -3.1241974802943737e-09 0.0000000000000000e+00  -3.4234125116381610e-10 -2.9914169038102080e-09 0.0000000000000000e+00  -4.3714388731291915e-10 3.7136396273518295e-09 0.0000000000000000e+00  -4.6479084742657005e-10 3.5485740545900078e-09 0.0000000000000000e+00  -7.2528976507727756e-10 3.4193267262917929e-09 0.0000000000000000e+00  -1.0226020773464527e-09 3.2046631085414704e-09 0.0000000000000000e+00  -1.3031561274165894e-09 2.9060117424954139e-09 0.0000000000000000e+00  -1.5509397667473187e-09 2.5317884848675346e-09 0.0000000000000000e+00  -1.7584604115530762e-09 2.0929113858332532e-09 0.0000000000000000e+00  -1.9210824341942632e-09 1.6017188086278771e-09 0.0000000000000000e+00  -2.0357569244402554e-09 1.0714481089240203e-09 0.0000000000000000e+00  -2.1006286395646955e-09 5.1586651362677729e-10 0.0000000000000000e+00  -2.1148376633666020e-09 -5.0990207206056616e-11 0.0000000000000000e+00  -2.0784083129345702e-09 -6.1499847438284507e-10 0.0000000000000000e+00  -1.9922206055462321e-09 -1.1620875141596619e-09 0.0000000000000000e+00  -1.8580653314066298e-09 -1.6783891906256920e-09 0.0000000000000000e+00  -1.6787756875379806e-09 -2.1504441854872960e-09 0.0000000000000000e+00  -1.4584462699150769e-09 -2.5654979161601529e-09 0.0000000000000000e+00  -1.2028914612188563e-09 -2.9118961970055688e-09 0.0000000000000000e+00  -9.2115847027082168e-10 -3.1795555724051340e-09 0.0000000000000000e+00  -6.3175648078578388e-10 -3.3602445456317433e-09 0.0000000000000000e+00  -3.9143826975848450e-10 -3.4461287836925358e-09 0.0000000000000000e+00  -3.7933196329175058e-10 -3.3129217248496325e-09 0.0000000000000000e+00  -4.8620695692328984e-10 4.0502148727690626e-09 0.0000000000000000e+00  -4.7435517590197771e-10 3.8841457463870293e-09 0.0000000000000000e+00  -7.2281094433735655e-10 3.7405888636723400e-09 0.0000000000000000e+00  -1.0131442193535189e-09 3.5027068744501243e-09 0.0000000000000000e+00  -1.2871353451469364e-09 3.1730208976423836e-09 0.0000000000000000e+00  -1.5279803268427221e-09 2.7613961605710208e-09 0.0000000000000000e+00  -1.7284112067574010e-09 2.2802459752540121e-09 0.0000000000000000e+00  -1.8843375620639356e-09 1.7433021162374640e-09 0.0000000000000000e+00  -1.9933378630677995e-09 1.1650093037060273e-09 0.0000000000000000e+00  -2.0541181570441751e-09 5.6013685022391068e-10 0.0000000000000000e+00  -2.0662022359314263e-09 -5.6443865758239027e-11 0.0000000000000000e+00  -2.0297516588569293e-09 -6.6985891395134698e-10 0.0000000000000000e+00  -1.9455210091088141e-09 -1.2652711183668925e-09 0.0000000000000000e+00  -1.8149520243848248e-09 -1.8279341343512086e-09 0.0000000000000000e+00  -1.6403930305987119e-09 -2.3433335088213244e-09 0.0000000000000000e+00  -1.4254420214215288e-09 -2.7974685717112021e-09 0.0000000000000000e+00  -1.1755619112654030e-09 -3.1772973100481737e-09 0.0000000000000000e+00  -8.9984889707788430e-10 -3.4713219220436529e-09 0.0000000000000000e+00  -6.1799550336379546e-10 -3.6700582623762402e-09 0.0000000000000000e+00  -3.9183394421480803e-10 -3.7648563592316308e-09 0.0000000000000000e+00  -4.2046075757636162e-10 -3.6324572179211782e-09 0.0000000000000000e+00  -5.4028830953178674e-10 4.3753991203544897e-09 0.0000000000000000e+00  -4.7753260077289482e-10 4.2118279256328032e-09 0.0000000000000000e+00  -7.0540213005347696e-10 4.0535173274282415e-09 0.0000000000000000e+00  -9.8064689791193471e-10 3.7917676379387493e-09 0.0000000000000000e+00  -1.2401197188733879e-09 3.4305227060888094e-09 0.0000000000000000e+00  -1.4663