<?xml version="1.0"?>
<VTKFile type="UnstructuredGrid"  version="0.1"  >
<UnstructuredGrid>
<Piece  NumberOfPoints="651" NumberOfCells="1200">
<Points>
<DataArray  type="Float64"  NumberOfComponents="3"  format="ascii">0 0 0  50000 0 0  100000 0 0  150000 0 0  200000 0 0  250000 0 0  300000 0 0  350000 0 0  400000 0 0  450000 0 0  500000 0 0  550000 0 0  600000 0 0  650000 0 0  700000 0 0  750000 0 0  800000 0 0  850000 0 0  900000 0 0  950000 0 0  1000000 0 0  0 50000 0  50000 50000 0  100000 50000 0  150000 50000 0  200000 50000 0  250000 50000 0  300000 50000 0  350000 50000 0  400000 50000 0  450000 50000 0  500000 50000 0  550000 50000 0  600000 50000 0  650000 50000 0  700000 50000 0  750000 50000 0  800000 50000 0  850000 50000 0  900000 50000 0  950000 50000 0  1000000 50000 0  0 100000 0  50000 100000 0  100000 100000 0  150000 100000 0  200000 100000 0  250000 100000 0  300000 100000 0  350000 100000 0  400000 100000 0  450000 100000 0  500000 100000 0  550000 100000 0  600000 100000 0  650000 100000 0  700000 100000 0  750000 100000 0  800000 100000 0  850000 100000 0  900000 100000 0  950000 100000 0  1000000 100000 0  0 150000 0  50000 150000 0  100000 150000 0  150000 150000 0  200000 150000 0  250000 150000 0  300000 150000 0  350000 150000 0  400000 150000 0  450000 150000 0  500000 150000 0  550000 150000 0  600000 150000 0  650000 150000 0  700000 150000 0  750000 150000 0  800000 150000 0  850000 150000 0  900000 150000 0  950000 150000 0  1000000 150000 0  0 200000 0  50000 200000 0  100000 200000 0  150000 200000 0  200000 200000 0  250000 200000 0  300000 200000 0  350000 200000 0  400000 200000 0  450000 200000 0  500000 200000 0  550000 200000 0  600000 200000 0  650000 200000 0  700000 200000 0  750000 200000 0  800000 200000 0  850000 200000 0  900000 200000 0  950000 200000 0  1000000 200000 0  0 250000 0  50000 250000 0  100000 250000 0  150000 250000 0  200000 250000 0  250000 250000 0  300000 250000 0  350000 250000 0  400000 250000 0  450000 250000 0  500000 250000 0  550000 250000 0  600000 250000 0  650000 250000 0  700000 250000 0  750000 250000 0  800000 250000 0  850000 250000 0  900000 250000 0  950000 250000 0  1000000 250000 0  0 300000 0  50000 300000 0  100000 300000 0  150000 300000 0  200000 300000 0  250000 300000 0  300000 300000 0  350000 300000 0  400000 300000 0  450000 300000 0  500000 300000 0  550000 300000 0  600000 300000 0  650000 300000 0  700000 300000 0  750000 300000 0  800000 300000 0  850000 300000 0  900000 300000 0  950000 300000 0  1000000 300000 0  0 350000 0  50000 350000 0  100000 350000 0  150000 350000 0  200000 350000 0  250000 350000 0  300000 350000 0  350000 350000 0  400000 350000 0  450000 350000 0  500000 350000 0  550000 350000 0  600000 350000 0  650000 350000 0  700000 350000 0  750000 350000 0  800000 350000 0  850000 350000 0  900000 350000 0  950000 350000 0  1000000 350000 0  0 400000 0  50000 400000 0  100000 400000 0  150000 400000 0  200000 400000 0  250000 400000 0  300000 400000 0  350000 400000 0  400000 400000 0  450000 400000 0  500000 400000 0  550000 400000 0  600000 400000 0  650000 400000 0  700000 400000 0  750000 400000 0  800000 400000 0  850000 400000 0  900000 400000 0  950000 400000 0  1000000 400000 0  0 450000 0  50000 450000 0  100000 450000 0  150000 450000 0  200000 450000 0  250000 450000 0  300000 450000 0  350000 450000 0  400000 450000 0  450000 450000 0  500000 450000 0  550000 450000 0  600000 450000 0  650000 450000 0  700000 450000 0  750000 450000 0  800000 450000 0  850000 450000 0  900000 450000 0  950000 450000 0  1000000 450000 0  0 500000 0  50000 500000 0  100000 500000 0  150000 500000 0  200000 500000 0  250000 500000 0  300000 500000 0  350000 500000 0  400000 500000 0  450000 500000 0  500000 500000 0  550000 500000 0  600000 500000 0  650000 500000 0  700000 500000 0  750000 500000 0  800000 500000 0  850000 500000 0  900000 500000 0  950000 500000 0  1000000 500000 0  0 550000 0  50000 550000 0  100000 550000 0  150000 550000 0  200000 550000 0  250000 550000 0  300000 550000 0  350000 550000 0  400000 550000 0  450000 550000 0  500000 550000 0  550000 550000 0  600000 550000 0  650000 550000 0  700000 550000 0  750000 550000 0  800000 550000 0  850000 550000 0  900000 550000 0  950000 550000 0  1000000 550000 0  0 600000 0  50000 600000 0  100000 600000 0  150000 600000 0  200000 600000 0  250000 600000 0  300000 600000 0  350000 600000 0  400000 600000 0  450000 600000 0  500000 600000 0  550000 600000 0  600000 600000 0  650000 600000 0  700000 600000 0  750000 600000 0  800000 600000 0  850000 600000 0  900000 600000 0  950000 600000 0  1000000 600000 0  0 650000 0  50000 650000 0  100000 650000 0  150000 650000 0  200000 650000 0  250000 650000 0  300000 650000 0  350000 650000 0  400000 650000 0  450000 650000 0  500000 650000 0  550000 650000 0  600000 650000 0  650000 650000 0  700000 650000 0  750000 650000 0  800000 650000 0  850000 650000 0  900000 650000 0  950000 650000 0  1000000 650000 0  0 700000 0  50000 700000 0  100000 700000 0  150000 700000 0  200000 700000 0  250000 700000 0  300000 700000 0  350000 700000 0  400000 700000 0  450000 700000 0  500000 700000 0  550000 700000 0  600000 700000 0  650000 700000 0  700000 700000 0  750000 700000 0  800000 700000 0  850000 700000 0  900000 700000 0  950000 700000 0  1000000 700000 0  0 750000 0  50000 750000 0  100000 750000 0  150000 750000 0  200000 750000 0  250000 750000 0  300000 750000 0  350000 750000 0  400000 750000 0  450000 750000 0  500000 750000 0  550000 750000 0  600000 750000 0  650000 750000 0  700000 750000 0  750000 750000 0  800000 750000 0  850000 750000 0  900000 750000 0  950000 750000 0  1000000 750000 0  0 800000 0  50000 800000 0  100000 800000 0  150000 800000 0  200000 800000 0  250000 800000 0  300000 800000 0  350000 800000 0  400000 800000 0  450000 800000 0  500000 800000 0  550000 800000 0  600000 800000 0  650000 800000 0  700000 800000 0  750000 800000 0  800000 800000 0  850000 800000 0  900000 800000 0  950000 800000 0  1000000 800000 0  0 850000 0  50000 850000 0  100000 850000 0  150000 850000 0  200000 850000 0  250000 850000 0  300000 850000 0  350000 850000 0  400000 850000 0  450000 850000 0  500000 850000 0  550000 850000 0  600000 850000 0  650000 850000 0  700000 850000 0  750000 850000 0  800000 850000 0  850000 850000 0  900000 850000 0  950000 850000 0  1000000 850000 0  0 900000 0  50000 900000 0  100000 900000 0  150000 900000 0  200000 900000 0  250000 900000 0  300000 900000 0  350000 900000 0  400000 900000 0  450000 900000 0  500000 900000 0  550000 900000 0  600000 900000 0  650000 900000 0  700000 900000 0  750000 900000 0  800000 900000 0  850000 900000 0  900000 900000 0  950000 900000 0  1000000 900000 0  0 950000 0  50000 950000 0  100000 950000 0  150000 950000 0  200000 950000 0  250000 950000 0  300000 950000 0  350000 950000 0  400000 950000 0  450000 950000 0  500000 950000 0  550000 950000 0  600000 950000 0  650000 950000 0  700000 950000 0  750000 950000 0  800000 950000 0  850000 950000 0  900000 950000 0  950000 950000 0  1000000 950000 0  0 1000000 0  50000 1000000 0  100000 1000000 0  150000 1000000 0  200000 1000000 0  250000 1000000 0  300000 1000000 0  350000 1000000 0  400000 1000000 0  450000 1000000 0  500000 1000000 0  550000 1000000 0  600000 1000000 0  650000 1000000 0  700000 1000000 0  750000 1000000 0  800000 1000000 0  850000 1000000 0  900000 1000000 0  950000 1000000 0  1000000 1000000 0  0 1050000 0  50000 1050000 0  100000 1050000 0  150000 1050000 0  200000 1050000 0  250000 1050000 0  300000 1050000 0  350000 1050000 0  400000 1050000 0  450000 1050000 0  500000 1050000 0  550000 1050000 0  600000 1050000 0  650000 1050000 0  700000 1050000 0  750000 1050000 0  800000 1050000 0  850000 1050000 0  900000 1050000 0  950000 1050000 0  1000000 1050000 0  0 1100000 0  50000 1100000 0  100000 1100000 0  150000 1100000 0  200000 1100000 0  250000 1100000 0  300000 1100000 0  350000 1100000 0  400000 1100000 0  450000 1100000 0  500000 1100000 0  550000 1100000 0  600000 1100000 0  650000 1100000 0  700000 1100000 0  750000 1100000 0  800000 1100000 0  850000 1100000 0  900000 1100000 0  950000 1100000 0  1000000 1100000 0  0 1150000 0  50000 1150000 0  100000 1150000 0  150000 1150000 0  200000 1150000 0  250000 1150000 0  300000 1150000 0  350000 1150000 0  400000 1150000 0  450000 1150000 0  500000 1150000 0  550000 1150000 0  600000 1150000 0  650000 1150000 0  700000 1150000 0  750000 1150000 0  800000 1150000 0  850000 1150000 0  900000 1150000 0  950000 1150000 0  1000000 1150000 0  0 1200000 0  50000 1200000 0  100000 1200000 0  150000 1200000 0  200000 1200000 0  250000 1200000 0  300000 1200000 0  350000 1200000 0  400000 1200000 0  450000 1200000 0  500000 1200000 0  550000 1200000 0  600000 1200000 0  650000 1200000 0  700000 1200000 0  750000 1200000 0  800000 1200000 0  850000 1200000 0  900000 1200000 0  950000 1200000 0  1000000 1200000 0  0 1250000 0  50000 1250000 0  100000 1250000 0  150000 1250000 0  200000 1250000 0  250000 1250000 0  300000 1250000 0  350000 1250000 0  400000 1250000 0  450000 1250000 0  500000 1250000 0  550000 1250000 0  600000 1250000 0  650000 1250000 0  700000 1250000 0  750000 1250000 0  800000 1250000 0  850000 1250000 0  900000 1250000 0  950000 1250000 0  1000000 1250000 0  0 1300000 0  50000 1300000 0  100000 1300000 0  150000 1300000 0  200000 1300000 0  250000 1300000 0  300000 1300000 0  350000 1300000 0  400000 1300000 0  450000 1300000 0  500000 1300000 0  550000 1300000 0  600000 1300000 0  650000 1300000 0  700000 1300000 0  750000 1300000 0  800000 1300000 0  850000 1300000 0  900000 1300000 0  950000 1300000 0  1000000 1300000 0  0 1350000 0  50000 1350000 0  100000 1350000 0  150000 1350000 0  200000 1350000 0  250000 1350000 0  300000 1350000 0  350000 1350000 0  400000 1350000 0  450000 1350000 0  500000 1350000 0  550000 1350000 0  600000 1350000 0  650000 1350000 0  700000 135
[...]
<PointData  Vectors="f_4485"> 
<DataArray  type="Float64"  Name="f_4485"  NumberOfComponents="3" format="ascii">-2.3703392676448612e-10 2.2865772432796434e-10 0.0000000000000000e+00  -4.4165047108162281e-10 1.8865332939890055e-10 0.0000000000000000e+00  -8.0566586651215549e-10 1.7131206831923478e-10 0.0000000000000000e+00  -1.1575023767440066e-09 1.5610358272567130e-10 0.0000000000000000e+00  -1.4796576468163815e-09 1.3863702891509385e-10 0.0000000000000000e+00  -1.7627186272337229e-09 1.1840846492345575e-10 0.0000000000000000e+00  -1.9990403484305545e-09 9.5601921579243436e-11 0.0000000000000000e+00  -2.1824422345308599e-09 7.0642488666698581e-11 0.0000000000000000e+00  -2.3081993162466637e-09 4.4085938890026875e-11 0.0000000000000000e+00  -2.3731241091498354e-09 1.6564077572546807e-11 0.0000000000000000e+00  -2.3756345294062019e-09 -1.1249936216958099e-11 0.0000000000000000e+00  -2.3157867113898793e-09 -3.8668098047655143e-11 0.0000000000000000e+00  -2.1952687307362912e-09 -6.5010823701751837e-11 0.0000000000000000e+00  -2.0173552067711974e-09 -8.9629503803647811e-11 0.0000000000000000e+00  -1.7868308373866148e-09 -1.1193153820093112e-10 0.0000000000000000e+00  -1.5099324884033866e-09 -1.3141834281967711e-10 0.0000000000000000e+00  -1.1945702583535854e-09 -1.4777514366482933e-10 0.0000000000000000e+00  -8.5202173290748099e-10 -1.6112056469366004e-10 0.0000000000000000e+00  -5.0495387543364219e-10 -1.7176211557432501e-10 0.0000000000000000e+00  -2.2151871443801234e-10 -1.6627005670084611e-10 0.0000000000000000e+00  -1.0209564817207419e-10 -1.0387006003559991e-10 0.0000000000000000e+00  -2.0134655670983078e-10 4.1736953730696777e-10 0.0000000000000000e+00  -3.7184272278935032e-10 3.6774334523066606e-10 0.0000000000000000e+00  -6.6212541032575230e-10 3.7593945253407052e-10 0.0000000000000000e+00  -9.7935835488708946e-10 3.5822732336491440e-10 0.0000000000000000e+00  -1.2818017348532321e-09 3.2631908935334902e-10 0.0000000000000000e+00  -1.5543983054675315e-09 2.8419750059148681e-10 0.0000000000000000e+00  -1.7880492276094626e-09 2.3399698270679889e-10 0.0000000000000000e+00  -1.9758752628167985e-09 1.7743951140039894e-10 0.0000000000000000e+00  -2.1126387921739639e-09 1.1619360251460307e-10 0.0000000000000000e+00  -2.1946489464025300e-09 5.1959090984430276e-11 0.0000000000000000e+00  -2.2197652531444450e-09 -1.3527539374871827e-11 0.0000000000000000e+00  -2.1874119790696250e-09 -7.8514866528956915e-11 0.0000000000000000e+00  -2.0985779512240736e-09 -1.4126694775753596e-10 0.0000000000000000e+00  -1.9557963388289832e-09 -2.0009368548089981e-10 0.0000000000000000e+00  -1.7631121820527857e-09 -2.5337323008937215e-10 0.0000000000000000e+00  -1.5260742200035096e-09 -2.9955165706374919e-10 0.0000000000000000e+00  -1.2518892766323225e-09 -3.3707246289561202e-10 0.0000000000000000e+00  -9.5029403309623277e-10 -3.6399958781734645e-10 0.0000000000000000e+00  -6.3745958421041599e-10 -3.7589796095230954e-10 0.0000000000000000e+00  -3.5252027812016009e-10 -3.5553837593420066e-10 0.0000000000000000e+00  -1.7020587641468257e-10 -2.1463290770262015e-10 0.0000000000000000e+00  -1.9800697797506200e-10 7.5191293349990815e-10 0.0000000000000000e+00  -3.8005442864392432e-10 6.4968142954689304e-10 0.0000000000000000e+00  -6.5788242563809835e-10 6.5211613276361916e-10 0.0000000000000000e+00  -9.5099947201255239e-10 6.2430028827574879e-10 0.0000000000000000e+00  -1.2303708023847379e-09 5.7194242550011582e-10 0.0000000000000000e+00  -1.4831498958133556e-09 5.0055240653535625e-10 0.0000000000000000e+00  -1.7004172594382685e-09 4.1411775906361135e-10 0.0000000000000000e+00  -1.8754202124435701e-09 3.1592737786469319e-10 0.0000000000000000e+00  -2.0030438362184122e-09 2.0908338398191409e-10 0.0000000000000000e+00  -2.0796978631342317e-09 9.6681594833348806e-11 0.0000000000000000e+00  -2.1033011403865064e-09 -1.8149520185455888e-11 0.0000000000000000e+00  -2.0732826138129341e-09 -1.3226698544618842e-10 0.0000000000000000e+00  -1.9905761762131968e-09 -2.4255209117336062e-10 0.0000000000000000e+00  -1.8576035037660790e-09 -3.4594952294929207e-10 0.0000000000000000e+00  -1.6782509247649320e-09 -4.3948752289280504e-10 0.0000000000000000e+00  -1.4578688156930157e-09 -5.2024563919212460e-10 0.0000000000000000e+00  -1.2033937687982122e-09 -5.8519039791077901e-10 0.0000000000000000e+00  -9.2396618104469841e-10 -6.3066915628695284e-10 0.0000000000000000e+00  -6.3345295226577646e-10 -6.5099230268031050e-10 0.0000000000000000e+00  -3.6258756018401400e-10 -6.3591647063762846e-10 0.0000000000000000e+00  -1.8121264091310579e-10 -4.7440256826606008e-10 0.0000000000000000e+00  -2.0540269820663742e-10 1.0812585157115984e-09 0.0000000000000000e+00  -3.7805188090127759e-10 9.6363508117350934e-10 0.0000000000000000e+00  -6.5108639777281813e-10 9.4718341575871430e-10 0.0000000000000000e+00  -9.3554380642223713e-10 9.0245888504736726e-10 0.0000000000000000e+00  -1.2034521897125459e-09 8.2705240536573079e-10 0.0000000000000000e+00  -1.4443820884496556e-09 7.2516838403889629e-10 0.0000000000000000e+00  -1.6509528423683360e-09 6.0150291094456362e-10 0.0000000000000000e+00  -1.8171062691705606e-09 4.6058423973474028e-10 0.0000000000000000e+00  -1.9380802800827929e-09 3.0688623487182949e-10 0.0000000000000000e+00  -2.0104838127421249e-09 1.4492096057619772e-10 0.0000000000000000e+00  -2.0323439652008008e-09 -2.0745785981808498e-11 0.0000000000000000e+00  -2.0031275550881240e-09 -1.8552737010343216e-10 0.0000000000000000e+00  -1.9237407040062727e-09 -3.4487062645468397e-10 0.0000000000000000e+00  -1.7965080826463673e-09 -4.9431154566758798e-10 0.0000000000000000e+00  -1.6251338122306817e-09 -6.2951353960679047e-10 0.0000000000000000e+00  -1.4146538820430228e-09 -7.4626501170259397e-10 0.0000000000000000e+00  -1.1714322121708047e-09 -8.4040884473982825e-10 0.0000000000000000e+00  -9.0347407064525260e-10 -9.0770586707945187e-10 0.0000000000000000e+00  -6.2245462096776922e-10 -9.4367851445449889e-10 0.0000000000000000e+00  -3.5688884133837223e-10 -9.4295343939433790e-10 0.0000000000000000e+00  -1.8343894439079654e-10 -7.9034680813692428e-10 0.0000000000000000e+00  -2.1849976134183136e-10 1.4036802185997904e-09 0.0000000000000000e+00  -3.7832520734394388e-10 1.2782520100065768e-09 0.0000000000000000e+00  -6.4777315791245912e-10 1.2444936364978310e-09 0.0000000000000000e+00  -9.2927804929900095e-10 1.1795983665243071e-09 0.0000000000000000e+00  -1.1929549240777218e-09 1.0792295270155834e-09 0.0000000000000000e+00  -1.4286493078735456e-09 9.4635010571133076e-10 0.0000000000000000e+00  -1.6298188303618068e-09 7.8576415513760479e-10 0.0000000000000000e+00  -1.7910939653407358e-09 6.0283985448688946e-10 0.0000000000000000e+00  -1.9081451979510782e-09 4.0321553559536893e-10 0.0000000000000000e+00  -1.9778363675554716e-09 1.9271125581098344e-10 0.0000000000000000e+00  -1.9983349498603698e-09 -2.2735391015190218e-11 0.0000000000000000e+00  -1.9691640142100115e-09 -2.3714450461263259e-10 0.0000000000000000e+00  -1.8912120435314972e-09 -4.4457913539917488e-10 0.0000000000000000e+00  -1.7667083531794909e-09 -6.3923246268077115e-10 0.0000000000000000e+00  -1.5991648156303874e-09 -8.1550921147101582e-10 0.0000000000000000e+00  -1.3932876185909756e-09 -9.6809981264717729e-10 0.0000000000000000e+00  -1.1549136627901994e-09 -1.0920684624995492e-09 0.0000000000000000e+00  -8.9132318555249472e-10 -1.1830341814501084e-09 0.0000000000000000e+00  -6.1372055115374366e-10 -1.2374147643182071e-09 0.0000000000000000e+00  -3.5232584494451491e-10 -1.2512335858506363e-09 0.0000000000000000e+00  -1.9130354742384744e-10 -1.1093951361014572e-09 0.0000000000000000e+00  -2.3632765470342188e-10 1.7231954937223878e-09 0.0000000000000000e+00  -3.8286852197247893e-10 1.5914121002704027e-09 0.0000000000000000e+00  -6.5031702809995868e-10 1.5426373497213232e-09 0.0000000000000000e+00  -9.3206668296738654e-10 1.4567966852296965e-09 0.0000000000000000e+00  -1.1957731610003785e-09 1.3301833523017385e-09 0.0000000000000000e+00  -1.4306897319255458e-09 1.1655157978076180e-09 0.0000000000000000e+00  -1.6304352460434737e-09 9.6779402477728872e-10 0.0000000000000000e+00  -1.7900045502544962e-09 7.4307341190766543e-10 0.0000000000000000e+00  -1.9053942865647574e-09 4.9800479357271215e-10 0.0000000000000000e+00  -1.9737002708518315e-09 2.3960339205419499e-10 0.0000000000000000e+00  -1.9932320887755375e-09 -2.4905631116880610e-11 0.0000000000000000e+00  -1.9635775947127331e-09 -2.8821970498322482e-10 0.0000000000000000e+00  -1.8856196416972485e-09 -5.4308717977228078e-10 0.0000000000000000e+00  -1.7615114572837262e-09 -7.8243695947218767e-10 0.0000000000000000e+00  -1.5946128053353085e-09 -9.9951395566825764e-10 0.0000000000000000e+00  -1.3893980994374967e-09 -1.1880326178981640e-09 0.0000000000000000e+00  -1.1514229622376918e-09 -1.3423797111922783e-09 0.0000000000000000e+00  -8.8780665993096089e-10 -1.4579144562428280e-09 0.0000000000000000e+00  -6.1029027856111661e-10 -1.5311584116304473e-09 0.0000000000000000e+00  -3.5177231447796279e-10 -1.5580536969841890e-09 0.0000000000000000e+00  -2.0411709916660614e-10 -1.4237357787568351e-09 0.0000000000000000e+00  -2.5856376273090612e-10 2.0434444582655906e-09 0.0000000000000000e+00  -3.9157447073363370e-10 1.9056071753070961e-09 0.0000000000000000e+00  -6.5868784637195953e-10 1.8430494308000680e-09 0.0000000000000000e+00  -9.4292469003933398e-10 1.7363587898051460e-09 0.0000000000000000e+00  -1.2093116163700844e-09 1.5827467157895671e-09 0.0000000000000000e+00  -1.4462708438361887e-09 1.3854335157452416e-09 0.0000000000000000e+00  -1.6472416687818938e-09 1.1499259772336595e-09 0.0000000000000000e+00  -1.8073144152049083e-09 8.8301922066819759e-10 0.0000000000000000e+00  -1.9226630013885883e-09 5.9233296800417630e-10 0.0000000000000000e+00  -1.9905490815220450e-09 2.8601088266790172e-10 0.0000000000000000e+00  -2.0094018236736774e-09 -2.7501420626545323e-11 0.0000000000000000e+00  -1.9788727051334269e-09 -3.3964231574992841e-10 0.0000000000000000e+00  -1.8998518879970179e-09 -6.4190662534099039e-10 0.0000000000000000e+00  -1.7744476437950592e-09 -9.2601836201871124e-10 0.0000000000000000e+00  -1.6059325512012282e-09 -1.1841157299893216e-09 0.0000000000000000e+00  -1.3986776571472605e-09 -1.4089636763285619e-09 0.0000000000000000e+00  -1.1581898572582169e-09 -1.5942142460858776e-09 0.0000000000000000e+00  -8.9178168364116048e-10 -1.7347183873305825e-09 0.0000000000000000e+00  -6.1211228362965663e-10 -1.8265958941318635e-09 0.0000000000000000e+00  -3.5505403288344299e-10 -1.8652462495805921e-09 0.0000000000000000e+00  -2.2122503890288825e-10 -1.7351935782820000e-09 0.0000000000000000e+00  -2.8509640553318303e-10 2.3671596028465177e-09 0.0000000000000000e+00  -4.0370331357480192e-10 2.2233055078472905e-09 0.0000000000000000e+00  -6.7164043744829894e-10 2.1475892458997044e-09 0.0000000000000000e+00  -9.5984697382305952e-10 2.0201326515212316e-09 0.0000000000000000e+00  -1.2304767321126093e-09 1.8389813185888128e-09 0.0000000000000000e+00  -1.4710717297784426e-09 1.6081762144741366e-09 0.0000000000000000e+00  -1.6747745744806396e-09 1.3340038174885060e-09 0.0000000000000000e+00  -1.8366325142883172e-09 1.0241311930315522e-09 0.0000000000000000e+00  -1.9528930100665618e-09 6.8717964749615002e-10 0.0000000000000000e+00  -2.0209252794537568e-09 3.3240311802824363e-10 0.0000000000000000e+00  -2.0392527675242671e-09 -3.0572754363991333e-11 0.0000000000000000e+00  -2.0075852637044590e-09 -3.9197488983054482e-10 0.0000000000000000e+00  -1.9268293366443363e-09 -7.4209003029154342e-10 0.0000000000000000e+00  -1.7990748138166713e-09 -1.0714718792402655e-09 0.0000000000000000e+00  -1.6275614189821628e-09 -1.3711631967701459e-09 0.0000000000000000e+00  -1.4166525549029957e-09 -1.6329462202400374e-09 0.0000000000000000e+00  -1.1719483668901368e-09 -1.8496290798368117e-09 0.0000000000000000e+00  -9.0111738266567462e-10 -2.0153462534284425e-09 0.0000000000000000e+00  -6.1787083900907638e-10 -2.1255599154469774e-09 0.0000000000000000e+00  -3.6132670164564570e-10 -2.1750144434145443e-09 0.0000000000000000e+00  -2.4237662669498459e-10 -2.0468022392057904e-09 0.0000000000000000e+00  -3.1592881340892560e-10 2.6959252819043421e-09 0.0000000000000000e+00  -4.1824040768733020e-10 2.5461882005210346e-09 0.0000000000000000e+00  -6.8728588414990419e-10 2.4575496347000103e-09 0.0000000000000000e+00  -9.8004888436921506e-10 2.3092115176085938e-09 0.0000000000000000e+00  -1.2554806944233120e-09 2.0999698881627730e-09 0.0000000000000000e+00  -1.5002314457026004e-09 1.8348166419293032e-09 0.0000000000000000e+00  -1.7071406931996590e-09 1.5210031784024000e-09 0.0000000000000000e+00  -1.8711806760729492e-09 1.1672011643582276e-09 0.0000000000000000e+00  -1.9886386641002083e-09 7.8309705308615462e-10 0.0000000000000000e+00  -2.0569701344773493e-09 3.7906522322832672e-10 0.0000000000000000e+00  -2.0747833954452933e-09 -3.4110975890109657e-11 0.0000000000000000e+00  -2.0418437345481177e-09 -4.4548348698939141e-10 0.0000000000000000e+00  -1.9590752822117125e-09 -8.4416581501993253e-10 0.0000000000000000e+00  -1.8285571103940305e-09 -1.2195598913749522e-09 0.0000000000000000e+00  -1.6535166954810940e-09 -1.5616006147134359e-09 0.0000000000000000e+00  -1.4383485218201618e-09 -1.8610299091384227e-09 0.0000000000000000e+00  -1.1887987798551797e-09 -2.1097007681100550e-09 0.0000000000000000e+00  -9.1294289394402105e-10 -2.3008800389114049e-09 0.0000000000000000e+00  -6.2560677332329164e-10 -2.4292417945610459e-09 0.0000000000000000e+00  -3.6948945843807363e-10 -2.4888635415201165e-09 0.0000000000000000e+00  -2.6748844002474635e-10 -2.3608742871559279e-09 0.0000000000000000e+00  -3.5113389650679136e-10 3.0300218277501241e-09 0.0000000000000000e+00  -4.3397223436502243e-10 2.8748544846604803e-09 0.0000000000000000e+00  -7.0326364703626805e-10 2.7732621963206943e-09 0.0000000000000000e+00  -1.0000607532959109e-09 2.6037261947165274e-09 0.0000000000000000e+00  -1.2797432649271371e-09 2.3657602629693239e-09 0.0000000000000000e+00  -1.5280628074095453e-09 2.0653899702317368e-09 0.0000000000000000e+00  -1.7376085016531940e-09 1.7109622634456897e-09 0.0000000000000000e+00  -1.9033239303567956e-09 1.3122661810304443e-09 0.0000000000000000e+00  -2.0215716626564922e-09 8.8011780235062156e-10 0.0000000000000000e+00  -2.0899206789905943e-09 4.2602670080144419e-10 0.0000000000000000e+00  -2.1070815778105900e-09 -3.8088006345157913e-11 0.0000000000000000e+00  -2.0728793691303237e-09 -5.0014334772031383e-10 0.0000000000000000e+00  -1.9882458222290644e-09 -9.4811793684510311e-10 0.0000000000000000e+00  -1.8552285632847514e-09 -1.3702798724586773e-09 0.0000000000000000e+00  -1.6770178778674489e-09 -1.7554384345698349e-09 0.0000000000000000e+00  -1.4580160851667471e-09 -2.0932331626415560e-09 0.0000000000000000e+00  -1.2040956383310558e-09 -2.3744592150802915e-09 0.0000000000000000e+00  -9.2372585322346546e-10 -2.5913965640568692e-09 0.0000000000000000e+00  -6.3289115366402798e-10 -2.7378450574262175e-09 0.0000000000000000e+00  -3.7825000807062361e-10 -2.8072207099097118e-09 0.0000000000000000e+00  -2.9655832531447902e-10 -2.6785519491553793e-09 0.0000000000000000e+00  -3.9082949413879229e-10 3.3682379583791011e-09 0.0000000000000000e+00  -4.4947117942142054e-10 3.2085853057548193e-09 0.0000000000000000e+00  -7.1673810007450040e-10 3.0938253140778232e-09 0.0000000000000000e+00  -1.0156849640881877e-09 2.9026176163258401e-09 0.0000000000000000e+00  -1.2977462641334719e-09 2.6352260934019837e-09 0.0000000000000000e+00  -1.5477797641901768e-09 2.2988023023602750e-09 0.0000000000000000e+00  -1.7582231500306780e-09 1.9029044554119188e-09 0.0000000000000000e+00  -1.9241045227987423e-09 1.4585364794919755e-09 0.0000000000000000e+00  -2.0419649281777886e-09 9.7769555952430551e-10 0.0000000000000000e+00  -2.1095682757468796e-09 4.7302553715863486e-10 0.0000000000000000e+00  -2.1257780650464950e-09 -4.2461701579559987e-11 0.0000000000000000e+00  -2.0904927133216527e-09 -5.5561297632588297e-10 0.0000000000000000e+00  -2.0046275035267507e-09 -1.0533339844438509e-09 0.0000000000000000e+00  -1.8701420514139550e-09 -1.5227948883978814e-09 0.0000000000000000e+00  -1.6901108967271833e-09 -1.9516717235638828e-09 0.0000000000000000e+00  -1.4688563380312891e-09 -2.3284437225541682e-09 0.0000000000000000e+00  -1.2122929568437595e-09 -2.6427483835740555e-09 0.0000000000000000e+00  -9.2922370367985374e-10 -2.8857634703138031e-09 0.0000000000000000e+00  -6.3682355632075287e-10 -3.0503274486733435e-09 0.0000000000000000e+00  -3.8610523938768293e-10 -3.1291889248365083e-09 0.0000000000000000e+00  -3.2963288530895812e-10 -2.9996176901698014e-09 0.0000000000000000e+00  -4.3516400522072320e-10 3.7076217872954875e-09 0.0000000000000000e+00  -4.6304526868517909e-10 3.5450868681314694e-09 0.0000000000000000e+00  -7.2431452984500483e-10 3.4168239092837547e-09 0.0000000000000000e+00  -1.0218612524395682e-09 3.2033660214234884e-09 0.0000000000000000e+00  -1.3028180770787566e-09 2.9058354394383542e-09 0.0000000000000000e+00  -1.5511806682770034e-09 2.5326413967784699e-09 0.0000000000000000e+00  -1.7593882939338384e-09 2.0946828435473383e-09 0.0000000000000000e+00  -1.9227384669579191e-09 1.6042716441141519e-09 0.0000000000000000e+00  -2.0381280066727072e-09 1.0746180389639134e-09 0.0000000000000000e+00  -2.1036590357196175e-09 5.1946558487246524e-10 0.0000000000000000e+00  -2.1184377154233434e-09 -4.7169107780970386e-11 0.0000000000000000e+00  -2.0824604755764936e-09 -6.1117814432765670e-10 0.0000000000000000e+00  -1.9965836491795945e-09 -1.1585051337010854e-09 0.0000000000000000e+00  -1.8625776735509639e-09 -1.6752975099873692e-09 0.0000000000000000e+00  -1.6832587165100180e-09 -2.1481148212848389e-09 0.0000000000000000e+00  -1.4627081352159658e-09 -2.5642256808935736e-09 0.0000000000000000e+00  -1.2067300345207031e-09 -2.9120023157889636e-09 0.0000000000000000e+00  -9.2435149380194309e-10 -3.1813843147172402e-09 0.0000000000000000e+00  -6.3395118606158651e-10 -3.3641315078567129e-09 0.0000000000000000e+00  -3.9128970606464243e-10 -3.4522948991748300e-09 0.0000000000000000e+00  -3.6679112347980037e-10 -3.3222989427649466e-09 0.0000000000000000e+00  -4.8430914041295591e-10 4.0431574724193358e-09 0.0000000000000000e+00  -4.7267048463192900e-10 3.8801804848236796e-09 0.0000000000000000e+00  -7.2191069695675078e-10 3.7379997877172745e-09 0.0000000000000000e+00  -1.0124682126538303e-09 3.5016561082398502e-09 0.0000000000000000e+00  -1.2868489149428397e-09 3.1733312027435437e-09 0.0000000000000000e+00  -1.5282639000910110e-09 2.7628880569855932e-09 0.0000000000000000e+00  -1.7293803123311348e-09 2.2827326748832303e-09 0.0000000000000000e+00  -1.8860398467311156e-09 1.7465839291230921e-09 0.0000000000000000e+00  -1.9957630178347492e-09 1.1688719327271355e-09 0.0000000000000000e+00  -2.0572087593025036e-09 5.6435253170808290e-10 0.0000000000000000e+00  -2.0698631495832138e-09 -5.2114271992174954e-11 0.0000000000000000e+00  -2.0338576705680729e-09 -6.6566438225583829e-10 0.0000000000000000e+00  -1.9499230249130798e-09 -1.2614703542889206e-09 0.0000000000000000e+00  -1.8194823687084218e-09 -1.8247972034082830e-09 0.0000000000000000e+00  -1.6448703605142864e-09 -2.3411449443792304e-09 0.0000000000000000e+00  -1.4296760052391479e-09 -2.7965311682015659e-09 0.0000000000000000e+00  -1.1793561091120361e-09 -3.1779349727333348e-09 0.0000000000000000e+00  -9.0298996081741908e-10 -3.4738771713090832e-09 0.0000000000000000e+00  -6.2014302588870199e-10 -3.6748656222175973e-09 0.0000000000000000e+00  -3.9170599042529533e-10 -3.7721866546256822e-09 0.0000000000000000e+00  -4.0813451567797539e-10 -3.6430123842766144e-09 0.0000000000000000e+00  -5.3846022200163353e-10 4.3673560230769276e-09 0.0000000000000000e+00  -4.7591127276305077e-10 4.2074188195778402e-09 0.0000000000000000e+00  -7.0459628295380686e-10 4.0508485027100330e-09 0.0000000000000000e+00  -9.8007180185549749e-10 3.7909589262713729e-09 0.0000000000000000e+00  -1.2399359060225646e-09 3.4313143745812712e-09 0.0000000000000000e+00  -1.4667