<?xml version="1.0"?>
<VTKFile type="UnstructuredGrid"  version="0.1"  >
<UnstructuredGrid>
<Piece  NumberOfPoints="651" NumberOfCells="1200">
<Points>
<DataArray  type="Float64"  NumberOfComponents="3"  format="ascii">0 0 0  50000 0 0  100000 0 0  150000 0 0  200000 0 0  250000 0 0  300000 0 0  350000 0 0  400000 0 0  450000 0 0  500000 0 0  550000 0 0  600000 0 0  650000 0 0  700000 0 0  750000 0 0  800000 0 0  850000 0 0  900000 0 0  950000 0 0  1000000 0 0  0 50000 0  50000 50000 0  100000 50000 0  150000 50000 0  200000 50000 0  250000 50000 0  300000 50000 0  350000 50000 0  400000 50000 0  450000 50000 0  500000 50000 0  550000 50000 0  600000 50000 0  650000 50000 0  700000 50000 0  750000 50000 0  800000 50000 0  850000 50000 0  900000 50000 0  950000 50000 0  1000000 50000 0  0 100000 0  50000 100000 0  100000 100000 0  150000 100000 0  200000 100000 0  250000 100000 0  300000 100000 0  350000 100000 0  400000 100000 0  450000 100000 0  500000 100000 0  550000 100000 0  600000 100000 0  650000 100000 0  700000 100000 0  750000 100000 0  800000 100000 0  850000 100000 0  900000 100000 0  950000 100000 0  1000000 100000 0  0 150000 0  50000 150000 0  100000 150000 0  150000 150000 0  200000 150000 0  250000 150000 0  300000 150000 0  350000 150000 0  400000 150000 0  450000 150000 0  500000 150000 0  550000 150000 0  600000 150000 0  650000 150000 0  700000 150000 0  750000 150000 0  800000 150000 0  850000 150000 0  900000 150000 0  950000 150000 0  1000000 150000 0  0 200000 0  50000 200000 0  100000 200000 0  150000 200000 0  200000 200000 0  250000 200000 0  300000 200000 0  350000 200000 0  400000 200000 0  450000 200000 0  500000 200000 0  550000 200000 0  600000 200000 0  650000 200000 0  700000 200000 0  750000 200000 0  800000 200000 0  850000 200000 0  900000 200000 0  950000 200000 0  1000000 200000 0  0 250000 0  50000 250000 0  100000 250000 0  150000 250000 0  200000 250000 0  250000 250000 0  300000 250000 0  350000 250000 0  400000 250000 0  450000 250000 0  500000 250000 0  550000 250000 0  600000 250000 0  650000 250000 0  700000 250000 0  750000 250000 0  800000 250000 0  850000 250000 0  900000 250000 0  950000 250000 0  1000000 250000 0  0 300000 0  50000 300000 0  100000 300000 0  150000 300000 0  200000 300000 0  250000 300000 0  300000 300000 0  350000 300000 0  400000 300000 0  450000 300000 0  500000 300000 0  550000 300000 0  600000 300000 0  650000 300000 0  700000 300000 0  750000 300000 0  800000 300000 0  850000 300000 0  900000 300000 0  950000 300000 0  1000000 300000 0  0 350000 0  50000 350000 0  100000 350000 0  150000 350000 0  200000 350000 0  250000 350000 0  300000 350000 0  350000 350000 0  400000 350000 0  450000 350000 0  500000 350000 0  550000 350000 0  600000 350000 0  650000 350000 0  700000 350000 0  750000 350000 0  800000 350000 0  850000 350000 0  900000 350000 0  950000 350000 0  1000000 350000 0  0 400000 0  50000 400000 0  100000 400000 0  150000 400000 0  200000 400000 0  250000 400000 0  300000 400000 0  350000 400000 0  400000 400000 0  450000 400000 0  500000 400000 0  550000 400000 0  600000 400000 0  650000 400000 0  700000 400000 0  750000 400000 0  800000 400000 0  850000 400000 0  900000 400000 0  950000 400000 0  1000000 400000 0  0 450000 0  50000 450000 0  100000 450000 0  150000 450000 0  200000 450000 0  250000 450000 0  300000 450000 0  350000 450000 0  400000 450000 0  450000 450000 0  500000 450000 0  550000 450000 0  600000 450000 0  650000 450000 0  700000 450000 0  750000 450000 0  800000 450000 0  850000 450000 0  900000 450000 0  950000 450000 0  1000000 450000 0  0 500000 0  50000 500000 0  100000 500000 0  150000 500000 0  200000 500000 0  250000 500000 0  300000 500000 0  350000 500000 0  400000 500000 0  450000 500000 0  500000 500000 0  550000 500000 0  600000 500000 0  650000 500000 0  700000 500000 0  750000 500000 0  800000 500000 0  850000 500000 0  900000 500000 0  950000 500000 0  1000000 500000 0  0 550000 0  50000 550000 0  100000 550000 0  150000 550000 0  200000 550000 0  250000 550000 0  300000 550000 0  350000 550000 0  400000 550000 0  450000 550000 0  500000 550000 0  550000 550000 0  600000 550000 0  650000 550000 0  700000 550000 0  750000 550000 0  800000 550000 0  850000 550000 0  900000 550000 0  950000 550000 0  1000000 550000 0  0 600000 0  50000 600000 0  100000 600000 0  150000 600000 0  200000 600000 0  250000 600000 0  300000 600000 0  350000 600000 0  400000 600000 0  450000 600000 0  500000 600000 0  550000 600000 0  600000 600000 0  650000 600000 0  700000 600000 0  750000 600000 0  800000 600000 0  850000 600000 0  900000 600000 0  950000 600000 0  1000000 600000 0  0 650000 0  50000 650000 0  100000 650000 0  150000 650000 0  200000 650000 0  250000 650000 0  300000 650000 0  350000 650000 0  400000 650000 0  450000 650000 0  500000 650000 0  550000 650000 0  600000 650000 0  650000 650000 0  700000 650000 0  750000 650000 0  800000 650000 0  850000 650000 0  900000 650000 0  950000 650000 0  1000000 650000 0  0 700000 0  50000 700000 0  100000 700000 0  150000 700000 0  200000 700000 0  250000 700000 0  300000 700000 0  350000 700000 0  400000 700000 0  450000 700000 0  500000 700000 0  550000 700000 0  600000 700000 0  650000 700000 0  700000 700000 0  750000 700000 0  800000 700000 0  850000 700000 0  900000 700000 0  950000 700000 0  1000000 700000 0  0 750000 0  50000 750000 0  100000 750000 0  150000 750000 0  200000 750000 0  250000 750000 0  300000 750000 0  350000 750000 0  400000 750000 0  450000 750000 0  500000 750000 0  550000 750000 0  600000 750000 0  650000 750000 0  700000 750000 0  750000 750000 0  800000 750000 0  850000 750000 0  900000 750000 0  950000 750000 0  1000000 750000 0  0 800000 0  50000 800000 0  100000 800000 0  150000 800000 0  200000 800000 0  250000 800000 0  300000 800000 0  350000 800000 0  400000 800000 0  450000 800000 0  500000 800000 0  550000 800000 0  600000 800000 0  650000 800000 0  700000 800000 0  750000 800000 0  800000 800000 0  850000 800000 0  900000 800000 0  950000 800000 0  1000000 800000 0  0 850000 0  50000 850000 0  100000 850000 0  150000 850000 0  200000 850000 0  250000 850000 0  300000 850000 0  350000 850000 0  400000 850000 0  450000 850000 0  500000 850000 0  550000 850000 0  600000 850000 0  650000 850000 0  700000 850000 0  750000 850000 0  800000 850000 0  850000 850000 0  900000 850000 0  950000 850000 0  1000000 850000 0  0 900000 0  50000 900000 0  100000 900000 0  150000 900000 0  200000 900000 0  250000 900000 0  300000 900000 0  350000 900000 0  400000 900000 0  450000 900000 0  500000 900000 0  550000 900000 0  600000 900000 0  650000 900000 0  700000 900000 0  750000 900000 0  800000 900000 0  850000 900000 0  900000 900000 0  950000 900000 0  1000000 900000 0  0 950000 0  50000 950000 0  100000 950000 0  150000 950000 0  200000 950000 0  250000 950000 0  300000 950000 0  350000 950000 0  400000 950000 0  450000 950000 0  500000 950000 0  550000 950000 0  600000 950000 0  650000 950000 0  700000 950000 0  750000 950000 0  800000 950000 0  850000 950000 0  900000 950000 0  950000 950000 0  1000000 950000 0  0 1000000 0  50000 1000000 0  100000 1000000 0  150000 1000000 0  200000 1000000 0  250000 1000000 0  300000 1000000 0  350000 1000000 0  400000 1000000 0  450000 1000000 0  500000 1000000 0  550000 1000000 0  600000 1000000 0  650000 1000000 0  700000 1000000 0  750000 1000000 0  800000 1000000 0  850000 1000000 0  900000 1000000 0  950000 1000000 0  1000000 1000000 0  0 1050000 0  50000 1050000 0  100000 1050000 0  150000 1050000 0  200000 1050000 0  250000 1050000 0  300000 1050000 0  350000 1050000 0  400000 1050000 0  450000 1050000 0  500000 1050000 0  550000 1050000 0  600000 1050000 0  650000 1050000 0  700000 1050000 0  750000 1050000 0  800000 1050000 0  850000 1050000 0  900000 1050000 0  950000 1050000 0  1000000 1050000 0  0 1100000 0  50000 1100000 0  100000 1100000 0  150000 1100000 0  200000 1100000 0  250000 1100000 0  300000 1100000 0  350000 1100000 0  400000 1100000 0  450000 1100000 0  500000 1100000 0  550000 1100000 0  600000 1100000 0  650000 1100000 0  700000 1100000 0  750000 1100000 0  800000 1100000 0  850000 1100000 0  900000 1100000 0  950000 1100000 0  1000000 1100000 0  0 1150000 0  50000 1150000 0  100000 1150000 0  150000 1150000 0  200000 1150000 0  250000 1150000 0  300000 1150000 0  350000 1150000 0  400000 1150000 0  450000 1150000 0  500000 1150000 0  550000 1150000 0  600000 1150000 0  650000 1150000 0  700000 1150000 0  750000 1150000 0  800000 1150000 0  850000 1150000 0  900000 1150000 0  950000 1150000 0  1000000 1150000 0  0 1200000 0  50000 1200000 0  100000 1200000 0  150000 1200000 0  200000 1200000 0  250000 1200000 0  300000 1200000 0  350000 1200000 0  400000 1200000 0  450000 1200000 0  500000 1200000 0  550000 1200000 0  600000 1200000 0  650000 1200000 0  700000 1200000 0  750000 1200000 0  800000 1200000 0  850000 1200000 0  900000 1200000 0  950000 1200000 0  1000000 1200000 0  0 1250000 0  50000 1250000 0  100000 1250000 0  150000 1250000 0  200000 1250000 0  250000 1250000 0  300000 1250000 0  350000 1250000 0  400000 1250000 0  450000 1250000 0  500000 1250000 0  550000 1250000 0  600000 1250000 0  650000 1250000 0  700000 1250000 0  750000 1250000 0  800000 1250000 0  850000 1250000 0  900000 1250000 0  950000 1250000 0  1000000 1250000 0  0 1300000 0  50000 1300000 0  100000 1300000 0  150000 1300000 0  200000 1300000 0  250000 1300000 0  300000 1300000 0  350000 1300000 0  400000 1300000 0  450000 1300000 0  500000 1300000 0  550000 1300000 0  600000 1300000 0  650000 1300000 0  700000 1300000 0  750000 1300000 0  800000 1300000 0  850000 1300000 0  900000 1300000 0  950000 1300000 0  1000000 1300000 0  0 1350000 0  50000 1350000 0  100000 1350000 0  150000 1350000 0  200000 1350000 0  250000 1350000 0  300000 1350000 0  350000 1350000 0  400000 1350000 0  450000 1350000 0  500000 1350000 0  550000 1350000 0  600000 1350000 0  650000 1350000 0  700000 135
[...]
<PointData  Vectors="f_4485"> 
<DataArray  type="Float64"  Name="f_4485"  NumberOfComponents="3" format="ascii">-2.3396323927350577e-10 2.5375478163800727e-10 0.0000000000000000e+00  -4.3884089927321211e-10 2.1424202949117491e-10 0.0000000000000000e+00  -8.0272967184415963e-10 1.9758214571380788e-10 0.0000000000000000e+00  -1.1541944984559056e-09 1.8263688544732139e-10 0.0000000000000000e+00  -1.4759199132166091e-09 1.6507895269437744e-10 0.0000000000000000e+00  -1.7585144844325816e-09 1.4452683492723055e-10 0.0000000000000000e+00  -1.9943513474647967e-09 1.2122465143178076e-10 0.0000000000000000e+00  -2.1772624746145660e-09 9.5630049790666747e-11 0.0000000000000000e+00  -2.3025314980150142e-09 6.8320491612762339e-11 0.0000000000000000e+00  -2.3669778114899897e-09 3.9943448550733608e-11 0.0000000000000000e+00  -2.3690254763795014e-09 1.1184172100472663e-11 0.0000000000000000e+00  -2.3087364597788727e-09 -1.7258930841964902e-11 0.0000000000000000e+00  -2.1878044337780353e-09 -4.4695890725443140e-11 0.0000000000000000e+00  -2.0095090095651937e-09 -7.0466064808855117e-11 0.0000000000000000e+00  -1.7786381889033512e-09 -9.3961406426433411e-11 0.0000000000000000e+00  -1.5014281700380385e-09 -1.1466258032669418e-10 0.0000000000000000e+00  -1.1857800146193182e-09 -1.3222671520168508e-10 0.0000000000000000e+00  -8.4294604049769825e-10 -1.4673454347739937e-10 0.0000000000000000e+00  -4.9554307785680212e-10 -1.5844241909848586e-10 0.0000000000000000e+00  -2.1167239814935434e-10 -1.5383649187508366e-10 0.0000000000000000e+00  -9.2178458186575046e-11 -9.1464296563928753e-11 0.0000000000000000e+00  -1.9774871323319637e-10 4.4253552176418352e-10 0.0000000000000000e+00  -3.7416755660564114e-10 3.7780541642121831e-10 0.0000000000000000e+00  -6.6904810459316902e-10 3.7989994178557853e-10 0.0000000000000000e+00  -9.8504619819042645e-10 3.6201351350149337e-10 0.0000000000000000e+00  -1.2855085509560553e-09 3.3015379999125134e-10 0.0000000000000000e+00  -1.5564247557650491e-09 2.8803315740191121e-10 0.0000000000000000e+00  -1.7886204813161399e-09 2.3778443672953492e-10 0.0000000000000000e+00  -1.9751463270723127e-09 1.8114708483283707e-10 0.0000000000000000e+00  -2.1107391537471644e-09 1.1980368959502166e-10 0.0000000000000000e+00  -2.1916986397247208e-09 5.5463415334478884e-11 0.0000000000000000e+00  -2.2158839784356827e-09 -1.0130484737343127e-11 0.0000000000000000e+00  -2.1827262451892065e-09 -7.5220408932428556e-11 0.0000000000000000e+00  -2.0932276147063580e-09 -1.3806325569966825e-10 0.0000000000000000e+00  -1.9499419056603520e-09 -1.9695912071927583e-10 0.0000000000000000e+00  -1.7569446744102808e-09 -2.5027103311873017e-10 0.0000000000000000e+00  -1.5198304584993979e-09 -2.9641904206998904e-10 0.0000000000000000e+00  -1.2458741067400842e-09 -3.3379786282960016e-10 0.0000000000000000e+00  -9.4488025411058164e-10 -3.6038582530466737e-10 0.0000000000000000e+00  -6.3291762856381998e-10 -3.7160624140074902e-10 0.0000000000000000e+00  -3.4895382224071800e-10 -3.4963662750098333e-10 0.0000000000000000e+00  -1.6042403226934787e-10 -2.0233524119985292e-10 0.0000000000000000e+00  -1.9375902297101481e-10 7.7776574735018510e-10 0.0000000000000000e+00  -3.8307955463394566e-10 6.5935608096950696e-10 0.0000000000000000e+00  -6.6742362748637244e-10 6.5165076042668457e-10 0.0000000000000000e+00  -9.6194874667850525e-10 6.2224798688004165e-10 0.0000000000000000e+00  -1.2405486588463530e-09 5.6969045810778558e-10 0.0000000000000000e+00  -1.4917764283554456e-09 4.9837549105468802e-10 0.0000000000000000e+00  -1.7073356500033235e-09 4.1206973468594699e-10 0.0000000000000000e+00  -1.8806562180852416e-09 3.1401597399530377e-10 0.0000000000000000e+00  -2.0066804766946177e-09 2.0731500558495519e-10 0.0000000000000000e+00  -2.0818452977401041e-09 9.5070844985395704e-11 0.0000000000000000e+00  -2.1040882260710605e-09 -1.9578537028318797e-11 0.0000000000000000e+00  -2.0728555612437975e-09 -1.3347967240200971e-10 0.0000000000000000e+00  -1.9891009945567330e-09 -2.4350067326466415e-10 0.0000000000000000e+00  -1.8552715014814579e-09 -3.4656758074176744e-10 0.0000000000000000e+00  -1.6752875974403820e-09 -4.3967981611650934e-10 0.0000000000000000e+00  -1.4545461557387275e-09 -5.1986936217756064e-10 0.0000000000000000e+00  -1.2000413668904521e-09 -5.8402198113126828e-10 0.0000000000000000e+00  -9.2096131962496756e-10 -6.2835127130252469e-10 0.0000000000000000e+00  -6.3110696761183295e-10 -6.4694344236090640e-10 0.0000000000000000e+00  -3.6085978931302638e-10 -6.2996653529754785e-10 0.0000000000000000e+00  -1.7233032954769049e-10 -4.6207212447217506e-10 0.0000000000000000e+00  -2.0097005863129755e-10 1.1080271829322630e-09 0.0000000000000000e+00  -3.7989052294153326e-10 9.7790196212890890e-10 0.0000000000000000e+00  -6.5903631816345749e-10 9.4888845296875095e-10 0.0000000000000000e+00  -9.4633669083640967e-10 9.0007477775191311e-10 0.0000000000000000e+00  -1.2150219313430182e-09 8.2330008044033325e-10 0.0000000000000000e+00  -1.4554117120190916e-09 7.2100016893814683e-10 0.0000000000000000e+00  -1.6607813633492566e-09 5.9728664869627348e-10 0.0000000000000000e+00  -1.8254459940912815e-09 4.5648318676126929e-10 0.0000000000000000e+00  -1.9448386911380510e-09 3.0298948944704486e-10 0.0000000000000000e+00  -2.0156747270122833e-09 1.4129267671293369e-10 0.0000000000000000e+00  -2.0360461063624059e-09 -2.4046328242808726e-11 0.0000000000000000e+00  -2.0054652040447716e-09 -1.8843547535248495e-10 0.0000000000000000e+00  -1.9248754337001420e-09 -3.4730799790152938e-10 0.0000000000000000e+00  -1.7966369421224043e-09 -4.9617663714999910e-10 0.0000000000000000e+00  -1.6244914540734547e-09 -6.3066785123390645e-10 0.0000000000000000e+00  -1.4135156941756081e-09 -7.4651273851144686e-10 0.0000000000000000e+00  -1.1701115150509819e-09 -8.3946860898907094e-10 0.0000000000000000e+00  -9.0229117762643840e-10 -9.0518339939710891e-10 0.0000000000000000e+00  -6.2155991216921000e-10 -9.3910382299471957e-10 0.0000000000000000e+00  -3.5604285477120251e-10 -9.3690941887491083e-10 0.0000000000000000e+00  -1.7561998153492720e-10 -7.7815966476583363e-10 0.0000000000000000e+00  -2.1430166752537757e-10 1.4314445023759524e-09 0.0000000000000000e+00  -3.7952726830284181e-10 1.2965142823625057e-09 0.0000000000000000e+00  -6.5426448429824281e-10 1.2496116782510253e-09 0.0000000000000000e+00  -9.3876129673276932e-10 1.1787994733591040e-09 0.0000000000000000e+00  -1.2040253175519921e-09 1.0755891517009277e-09 0.0000000000000000e+00  -1.4400439004892601e-09 9.4139529556117040e-10 0.0000000000000000e+00  -1.6406710798102796e-09 7.8026841973424375e-10 0.0000000000000000e+00  -1.8008897789538006e-09 5.9721868787482958e-10 0.0000000000000000e+00  -1.9166156608250958e-09 3.9771382749410515e-10 0.0000000000000000e+00  -1.9848733447690461e-09 1.8749260468775122e-10 0.0000000000000000e+00  -2.0039367918120624e-09 -2.7544106392054056e-11 0.0000000000000000e+00  -1.9734030287188526e-09 -2.4142824446712084e-10 0.0000000000000000e+00  -1.8942156743525839e-09 -4.4821771790713612e-10 0.0000000000000000e+00  -1.7686485277650802e-09 -6.4208568656369201e-10 0.0000000000000000e+00  -1.6002513827269002e-09 -8.1740109858485861e-10 0.0000000000000000e+00  -1.3937614700278440e-09 -9.6880109780433938e-10 0.0000000000000000e+00  -1.1550318784754449e-09 -1.0912809560260462e-09 0.0000000000000000e+00  -8.9131488853864127e-10 -1.1803976667140471e-09 0.0000000000000000e+00  -6.1361722146038419e-10 -1.2326197430480548e-09 0.0000000000000000e+00  -3.5200299051744475e-10 -1.2452993892484436e-09 0.0000000000000000e+00  -1.8463292701883863e-10 -1.0974090095829117e-09 0.0000000000000000e+00  -2.3270106421179606e-10 1.7520090941270776e-09 0.0000000000000000e+00  -3.8378260367408274e-10 1.6127122700479799e-09 0.0000000000000000e+00  -6.5576912002930960e-10 1.5509624614608783e-09 0.0000000000000000e+00  -9.4019846832487874e-10 1.4581614341173095e-09 0.0000000000000000e+00  -1.2057094442826947e-09 1.3274799160034778e-09 0.0000000000000000e+00  -1.4414346638214765e-09 1.1605265916528060e-09 0.0000000000000000e+00  -1.6411550186439258e-09 9.6160654173466831e-10 0.0000000000000000e+00  -1.8001070456443638e-09 7.3636054488622314e-10 0.0000000000000000e+00  -1.9145062803186848e-09 4.9119894427405676e-10 0.0000000000000000e+00  -1.9816182884259465e-09 2.3300033493238074e-10 0.0000000000000000e+00  -1.9998773094064757e-09 -3.1085283885267022e-11 0.0000000000000000e+00  -1.9689618229213538e-09 -2.9379248478971785e-10 0.0000000000000000e+00  -1.8898213214434968e-09 -5.4788084262892153e-10 0.0000000000000000e+00  -1.7646587140826525e-09 -7.8627042621649280e-10 0.0000000000000000e+00  -1.5968700911078435e-09 -1.0021802315743838e-09 0.0000000000000000e+00  -1.3909524705859581e-09 -1.1892849371908460e-09 0.0000000000000000e+00  -1.1524640142550831e-09 -1.3419266484163918e-09 0.0000000000000000e+00  -8.8848541924037892e-10 -1.4554464899031906e-09 0.0000000000000000e+00  -6.1058783624565711e-10 -1.5264846797382871e-09 0.0000000000000000e+00  -3.5177714785853054e-10 -1.5524562048165615e-09 0.0000000000000000e+00  -1.9863416122540220e-10 -1.4119486680378781e-09 0.0000000000000000e+00  -2.5582217139515198e-10 2.0733303547949253e-09 0.0000000000000000e+00  -3.9239667892526197e-10 1.9293185250788717e-09 0.0000000000000000e+00  -6.6339531610678877e-10 1.8540426218243771e-09 0.0000000000000000e+00  -9.4987337680226442e-10 1.7398494410479672e-09 0.0000000000000000e+00  -1.2179649642809055e-09 1.5812964178643604e-09 0.0000000000000000e+00  -1.4559053745466421e-09 1.3808558834195894e-09 0.0000000000000000e+00  -1.6571600663403505e-09 1.1434867207331519e-09 0.0000000000000000e+00  -1.8169553964722582e-09 8.7559133343152827e-10 0.0000000000000000e+00  -1.9316272936565556e-09 5.8452277768729083e-10 0.0000000000000000e+00  -1.9985845924873014e-09 2.7825118741670923e-10 0.0000000000000000e+00  -2.0163761967088440e-09 -3.4886414429156494e-11 0.0000000000000000e+00  -1.9847459340303764e-09 -3.4639200983098491e-10 0.0000000000000000e+00  -1.9046530445454736e-09 -6.4779185167277144e-10 0.0000000000000000e+00  -1.7782557903844621e-09 -9.3081726171252173e-10 0.0000000000000000e+00  -1.6088602563775123e-09 -1.1875954616302743e-09 0.0000000000000000e+00  -1.4008547954111525e-09 -1.4108685906700062e-09 0.0000000000000000e+00  -1.1597444198059348e-09 -1.5942659794206584e-09 0.0000000000000000e+00  -8.9280916026174944e-10 -1.7326478585379930e-09 0.0000000000000000e+00  -6.1258335611751307e-10 -1.8222803788646475e-09 0.0000000000000000e+00  -3.5528769457766633e-10 -1.8601105774450103e-09 0.0000000000000000e+00  -2.1693462005800914e-10 -1.7235828594417861e-09 0.0000000000000000e+00  -2.8355402737066594e-10 2.3981059776584779e-09 0.0000000000000000e+00  -4.0454442148417664e-10 2.2489818074039046e-09 0.0000000000000000e+00  -6.7577046936345956e-10 2.1607259843586832e-09 0.0000000000000000e+00  -9.6575989165442234e-10 2.0254705932832647e-09 0.0000000000000000e+00  -1.2378470899345895e-09 1.8387900406226633e-09 0.0000000000000000e+00  -1.4793948396090741e-09 1.6042052025841053e-09 0.0000000000000000e+00  -1.6835128960228166e-09 1.3275939644999585e-09 0.0000000000000000e+00  -1.8453119562284011e-09 1.0162861583856676e-09 0.0000000000000000e+00  -1.9611451401239905e-09 6.7864233831060688e-10 0.0000000000000000e+00  -2.0284936000153982e-09 3.2372671439312449e-10 0.0000000000000000e+00  -2.0459810871569563e-09 -3.8966414983650821e-11 0.0000000000000000e+00  -2.0133995914510966e-09 -3.9974991372698933e-10 0.0000000000000000e+00  -1.9317189750231322e-09 -7.4896170810690983e-10 0.0000000000000000e+00  -1.8030747232886476e-09 -1.0771801641612529e-09 0.0000000000000000e+00  -1.6307360648814400e-09 -1.3754531600597560e-09 0.0000000000000000e+00  -1.4190807172088328e-09 -1.6355561252131323e-09 0.0000000000000000e+00  -1.1737079702544260e-09 -1.8502903200473480e-09 0.0000000000000000e+00  -9.0226607174067607e-10 -2.0138122123950384e-09 0.0000000000000000e+00  -6.1838564547197210e-10 -2.1217339663868031e-09 0.0000000000000000e+00  -3.6174058276760822e-10 -2.1703835481476485e-09 0.0000000000000000e+00  -2.3925877383359368e-10 -2.0353446511675749e-09 0.0000000000000000e+00  -3.1590853197855235e-10 2.7278782813418550e-09 0.0000000000000000e+00  -4.1916097174766431e-10 2.5734605565372891e-09 0.0000000000000000e+00  -6.9090804585082559e-10 2.4723623534896155e-09 0.0000000000000000e+00  -9.8500368874464290e-10 2.3160401175404483e-09 0.0000000000000000e+00  -1.2615830542548432e-09 2.1008779981206015e-09 0.0000000000000000e+00  -1.5071431452128843e-09 1.8314713580670335e-09 0.0000000000000000e+00  -1.7144741153385464e-09 1.5147633260293126e-09 0.0000000000000000e+00  -1.8785697768616407e-09 1.1591448295963365e-09 0.0000000000000000e+00  -1.9957789197816819e-09 7.7406201147559485e-10 0.0000000000000000e+00  -2.0636333356207530e-09 3.6969802610057215e-10 0.0000000000000000e+00  -2.0808163218107811e-09 -4.3307283805413431e-11 0.0000000000000000e+00  -2.0471583359461531e-09 -4.5410778883115794e-10 0.0000000000000000e+00  -1.9636353542414859e-09 -8.5188461266612576e-10 0.0000000000000000e+00  -1.8323641865411920e-09 -1.2260799618668341e-09 0.0000000000000000e+00  -1.6565964810491492e-09 -1.5666482926847247e-09 0.0000000000000000e+00  -1.4407386458469297e-09 -1.8643375329074408e-09 0.0000000000000000e+00  -1.1905384075308622e-09 -2.1110033620769015e-09 0.0000000000000000e+00  -9.1406244425256878e-10 -2.2999372064231523e-09 0.0000000000000000e+00  -6.2609232128759870e-10 -2.4259543473657809e-09 0.0000000000000000e+00  -3.7005865597594694e-10 -2.4847312189974741e-09 0.0000000000000000e+00  -2.6550649367054461e-10 -2.3495557852198824e-09 0.0000000000000000e+00  -3.5296904705165200e-10 3.0628751437641101e-09 0.0000000000000000e+00  -4.3499925866655669e-10 2.9033771430558769e-09 0.0000000000000000e+00  -7.0637477528252848e-10 2.7893221817025741e-09 0.0000000000000000e+00  -1.0040629117583195e-09 2.6116701973158605e-09 0.0000000000000000e+00  -1.2845599983493160e-09 2.3675278788556089e-09 0.0000000000000000e+00  -1.5334860881908501e-09 2.0625813638010012e-09 0.0000000000000000e+00  -1.7433829623848514e-09 1.7049295233558754e-09 0.0000000000000000e+00  -1.9091942418128209e-09 1.3041237213747558e-09 0.0000000000000000e+00  -2.0273127614377863e-09 8.7076197044223959e-10 0.0000000000000000e+00  -2.0953531221440601e-09 4.1616850631244465e-10 0.0000000000000000e+00  -2.1120753346686447e-09 -4.7885452420041592e-11 0.0000000000000000e+00  -2.0773499748387987e-09 -5.0942862689240369e-10 0.0000000000000000e+00  -1.9921462750539215e-09 -9.5651919874085500e-10 0.0000000000000000e+00  -1.8585394011091041e-09 -1.3774778037160808e-09 0.0000000000000000e+00  -1.6797371410076252e-09 -1.7611446096972745e-09 0.0000000000000000e+00  -1.4601505835006491e-09 -2.0971742006912531e-09 0.0000000000000000e+00  -1.2056547920298782e-09 -2.3763689945400271e-09 0.0000000000000000e+00  -9.2471796728096959e-10 -2.5910303260851997e-09 0.0000000000000000e+00  -6.3330711669566207e-10 -2.7350855002533536e-09 0.0000000000000000e+00  -3.7896063997959005e-10 -2.8035531549840573e-09 0.0000000000000000e+00  -2.9566568151894562e-10 -2.6673720470794510e-09 0.0000000000000000e+00  -3.9486093425542562e-10 3.4018203016003615e-09 0.0000000000000000e+00  -4.5060491692298658e-10 3.2380000336898208e-09 0.0000000000000000e+00  -7.1927834388181548e-10 3.1107211621863881e-09 0.0000000000000000e+00  -1.0186763092905906e-09 2.9113012482389218e-09 0.0000000000000000e+00  -1.3012143592699216e-09 2.6375791065441576e-09 0.0000000000000000e+00  -1.5516265672480147e-09 2.2963826889645089e-09 0.0000000000000000e+00  -1.7623101945609888e-09 1.8970502931325086e-09 0.0000000000000000e+00  -1.9282825364385975e-09 1.4503746069212126e-09 0.0000000000000000e+00  -2.0460931713471523e-09 9.6815238336217638e-10 0.0000000000000000e+00  -2.1135267869650473e-09 4.6285008156547633e-10 0.0000000000000000e+00  -2.1294731456175866e-09 -5.2668039420614972e-11 0.0000000000000000e+00  -2.0938568519955375e-09 -5.6536526875559053e-10 0.0000000000000000e+00  -2.0076154734073443e-09 -1.0622343999544669e-09 0.0000000000000000e+00  -1.8727249008972098e-09 -1.5305066150464595e-09 0.0000000000000000e+00  -1.6922694097391447e-09 -1.9578967390411512e-09 0.0000000000000000e+00  -1.4705755050670228e-09 -2.3329047068632254e-09 0.0000000000000000e+00  -1.2135589535776275e-09 -2.6451765420871964e-09 0.0000000000000000e+00  -9.3002446230780690e-10 -2.8859056040110123e-09 0.0000000000000000e+00  -6.3714808026596064e-10 -3.0480433595333413e-09 0.0000000000000000e+00  -3.8694824083190408e-10 -3.1259374535436919e-09 0.0000000000000000e+00  -3.2977851667776250e-10 -2.9885904803813120e-09 0.0000000000000000e+00  -4.4173209774806983e-10 3.7416828379883254e-09 0.0000000000000000e+00  -4.6426107539581506e-10 3.5749970013861599e-09 0.0000000000000000e+00  -7.2617734724263732e-10 3.4341444349078838e-09 0.0000000000000000e+00  -1.0237304401921901e-09 3.2124176048020420e-09 0.0000000000000000e+00  -1.3048308463453591e-09 2.9084904701136401e-09 0.0000000000000000e+00  -1.5533411876407186e-09 2.5304381521260399e-09 0.0000000000000000e+00  -1.7616645143886104e-09 2.0889446053106354e-09 0.0000000000000000e+00  -1.9250804717711599e-09 1.5961221754108376e-09 0.0000000000000000e+00  -2.0404782885978867e-09 1.0649918756965972e-09 0.0000000000000000e+00  -2.1059608688504679e-09 5.0912714674997666e-10 0.0000000000000000e+00  -2.1206406968983387e-09 -5.7600354585284991e-11 0.0000000000000000e+00  -2.0845227001467739e-09 -6.2120038130050672e-10 0.0000000000000000e+00  -1.9984709283710810e-09 -1.1677074232889822e-09 0.0000000000000000e+00  -1.8642607393509282e-09 -1.6833349681985591e-09 0.0000000000000000e+00  -1.6847096015240608e-09 -2.1546862211828789e-09 0.0000000000000000e+00  -1.4638970907644728e-09 -2.5690536176492039e-09 0.0000000000000000e+00  -1.2076244526977042e-09 -2.9148174295106288e-09 0.0000000000000000e+00  -9.2491902221292747e-10 -3.1819267479991322e-09 0.0000000000000000e+00  -6.3417221514323019e-10 -3.3622415427152737e-09 0.0000000000000000e+00  -3.9225756036816024e-10 -3.4494031733232514e-09 0.0000000000000000e+00  -3.6792389896545018e-10 -3.3114519522814096e-09 0.0000000000000000e+00  -4.9373976175089678e-10 4.0773530727587967e-09 0.0000000000000000e+00  -4.7391841446056505e-10 3.9101317123282433e-09 0.0000000000000000e+00  -7.2295034621610910e-10 3.7553225248141460e-09 0.0000000000000000e+00  -1.0130618854108396e-09 3.5107098901651506e-09 0.0000000000000000e+00  -1.2872647663284121e-09 3.1760107938969021e-09 0.0000000000000000e+00  -1.5286088578155883e-09 2.7607267375982052e-09 0.0000000000000000e+00  -1.7297224379221066e-09 2.2770378895193404e-09 0.0000000000000000e+00  -1.8864216394431400e-09 1.7384644104961187e-09 0.0000000000000000e+00  -1.9962057370871237e-09 1.1592527827745233e-09 0.0000000000000000e+00  -2.0577178457691138e-09 5.5399457727872209e-10 0.0000000000000000e+00  -2.0704335138139830e-09 -6.2591272257872339e-11 0.0000000000000000e+00  -2.0344773268894701e-09 -6.7575697914543386e-10 0.0000000000000000e+00  -1.9505745767165123e-09 -1.2707668559917164e-09 0.0000000000000000e+00  -1.8201426294322780e-09 -1.8329542438936947e-09 0.0000000000000000e+00  -1.6455088675007951e-09 -2.3478653852273809e-09 0.0000000000000000e+00  -1.4302534875157466e-09 -2.8015432552672124e-09 0.0000000000000000e+00  -1.1798242519825121e-09 -3.1809740721393692e-09 0.0000000000000000e+00  -9.0329575293022028e-10 -3.4746832059215379e-09 0.0000000000000000e+00  -6.2025274819788814e-10 -3.6732686068094861e-09 0.0000000000000000e+00  -3.9279086332642877e-10 -3.7695943634467338e-09 0.0000000000000000e+00  -4.1020639896451133e-10 -3.6323839678546086e-09 0.0000000000000000e+00  -5.5104368597597507e-10 4.4012339986938580e-09 0.0000000000000000e+00  -4.7711518528047126e-10 4.2368860428863528e-09 0.0000000000000000e+00  -7.0463580529159780e-10 4.0677342901904512e-09 0.0000000000000000e+00  -9.7920771181160982e-10 3.7996583714315660e-09 0.0000000000000000e+00  -1.2385920859996879e-09 3.4337584297876307e-09 0.0000000000000000e+00  -1.46515