<?xml version="1.0"?>
<VTKFile type="UnstructuredGrid"  version="0.1"  >
<UnstructuredGrid>
<Piece  NumberOfPoints="651" NumberOfCells="1200">
<Points>
<DataArray  type="Float64"  NumberOfComponents="3"  format="ascii">0 0 0  50000 0 0  100000 0 0  150000 0 0  200000 0 0  250000 0 0  300000 0 0  350000 0 0  400000 0 0  450000 0 0  500000 0 0  550000 0 0  600000 0 0  650000 0 0  700000 0 0  750000 0 0  800000 0 0  850000 0 0  900000 0 0  950000 0 0  1000000 0 0  0 50000 0  50000 50000 0  100000 50000 0  150000 50000 0  200000 50000 0  250000 50000 0  300000 50000 0  350000 50000 0  400000 50000 0  450000 50000 0  500000 50000 0  550000 50000 0  600000 50000 0  650000 50000 0  700000 50000 0  750000 50000 0  800000 50000 0  850000 50000 0  900000 50000 0  950000 50000 0  1000000 50000 0  0 100000 0  50000 100000 0  100000 100000 0  150000 100000 0  200000 100000 0  250000 100000 0  300000 100000 0  350000 100000 0  400000 100000 0  450000 100000 0  500000 100000 0  550000 100000 0  600000 100000 0  650000 100000 0  700000 100000 0  750000 100000 0  800000 100000 0  850000 100000 0  900000 100000 0  950000 100000 0  1000000 100000 0  0 150000 0  50000 150000 0  100000 150000 0  150000 150000 0  200000 150000 0  250000 150000 0  300000 150000 0  350000 150000 0  400000 150000 0  450000 150000 0  500000 150000 0  550000 150000 0  600000 150000 0  650000 150000 0  700000 150000 0  750000 150000 0  800000 150000 0  850000 150000 0  900000 150000 0  950000 150000 0  1000000 150000 0  0 200000 0  50000 200000 0  100000 200000 0  150000 200000 0  200000 200000 0  250000 200000 0  300000 200000 0  350000 200000 0  400000 200000 0  450000 200000 0  500000 200000 0  550000 200000 0  600000 200000 0  650000 200000 0  700000 200000 0  750000 200000 0  800000 200000 0  850000 200000 0  900000 200000 0  950000 200000 0  1000000 200000 0  0 250000 0  50000 250000 0  100000 250000 0  150000 250000 0  200000 250000 0  250000 250000 0  300000 250000 0  350000 250000 0  400000 250000 0  450000 250000 0  500000 250000 0  550000 250000 0  600000 250000 0  650000 250000 0  700000 250000 0  750000 250000 0  800000 250000 0  850000 250000 0  900000 250000 0  950000 250000 0  1000000 250000 0  0 300000 0  50000 300000 0  100000 300000 0  150000 300000 0  200000 300000 0  250000 300000 0  300000 300000 0  350000 300000 0  400000 300000 0  450000 300000 0  500000 300000 0  550000 300000 0  600000 300000 0  650000 300000 0  700000 300000 0  750000 300000 0  800000 300000 0  850000 300000 0  900000 300000 0  950000 300000 0  1000000 300000 0  0 350000 0  50000 350000 0  100000 350000 0  150000 350000 0  200000 350000 0  250000 350000 0  300000 350000 0  350000 350000 0  400000 350000 0  450000 350000 0  500000 350000 0  550000 350000 0  600000 350000 0  650000 350000 0  700000 350000 0  750000 350000 0  800000 350000 0  850000 350000 0  900000 350000 0  950000 350000 0  1000000 350000 0  0 400000 0  50000 400000 0  100000 400000 0  150000 400000 0  200000 400000 0  250000 400000 0  300000 400000 0  350000 400000 0  400000 400000 0  450000 400000 0  500000 400000 0  550000 400000 0  600000 400000 0  650000 400000 0  700000 400000 0  750000 400000 0  800000 400000 0  850000 400000 0  900000 400000 0  950000 400000 0  1000000 400000 0  0 450000 0  50000 450000 0  100000 450000 0  150000 450000 0  200000 450000 0  250000 450000 0  300000 450000 0  350000 450000 0  400000 450000 0  450000 450000 0  500000 450000 0  550000 450000 0  600000 450000 0  650000 450000 0  700000 450000 0  750000 450000 0  800000 450000 0  850000 450000 0  900000 450000 0  950000 450000 0  1000000 450000 0  0 500000 0  50000 500000 0  100000 500000 0  150000 500000 0  200000 500000 0  250000 500000 0  300000 500000 0  350000 500000 0  400000 500000 0  450000 500000 0  500000 500000 0  550000 500000 0  600000 500000 0  650000 500000 0  700000 500000 0  750000 500000 0  800000 500000 0  850000 500000 0  900000 500000 0  950000 500000 0  1000000 500000 0  0 550000 0  50000 550000 0  100000 550000 0  150000 550000 0  200000 550000 0  250000 550000 0  300000 550000 0  350000 550000 0  400000 550000 0  450000 550000 0  500000 550000 0  550000 550000 0  600000 550000 0  650000 550000 0  700000 550000 0  750000 550000 0  800000 550000 0  850000 550000 0  900000 550000 0  950000 550000 0  1000000 550000 0  0 600000 0  50000 600000 0  100000 600000 0  150000 600000 0  200000 600000 0  250000 600000 0  300000 600000 0  350000 600000 0  400000 600000 0  450000 600000 0  500000 600000 0  550000 600000 0  600000 600000 0  650000 600000 0  700000 600000 0  750000 600000 0  800000 600000 0  850000 600000 0  900000 600000 0  950000 600000 0  1000000 600000 0  0 650000 0  50000 650000 0  100000 650000 0  150000 650000 0  200000 650000 0  250000 650000 0  300000 650000 0  350000 650000 0  400000 650000 0  450000 650000 0  500000 650000 0  550000 650000 0  600000 650000 0  650000 650000 0  700000 650000 0  750000 650000 0  800000 650000 0  850000 650000 0  900000 650000 0  950000 650000 0  1000000 650000 0  0 700000 0  50000 700000 0  100000 700000 0  150000 700000 0  200000 700000 0  250000 700000 0  300000 700000 0  350000 700000 0  400000 700000 0  450000 700000 0  500000 700000 0  550000 700000 0  600000 700000 0  650000 700000 0  700000 700000 0  750000 700000 0  800000 700000 0  850000 700000 0  900000 700000 0  950000 700000 0  1000000 700000 0  0 750000 0  50000 750000 0  100000 750000 0  150000 750000 0  200000 750000 0  250000 750000 0  300000 750000 0  350000 750000 0  400000 750000 0  450000 750000 0  500000 750000 0  550000 750000 0  600000 750000 0  650000 750000 0  700000 750000 0  750000 750000 0  800000 750000 0  850000 750000 0  900000 750000 0  950000 750000 0  1000000 750000 0  0 800000 0  50000 800000 0  100000 800000 0  150000 800000 0  200000 800000 0  250000 800000 0  300000 800000 0  350000 800000 0  400000 800000 0  450000 800000 0  500000 800000 0  550000 800000 0  600000 800000 0  650000 800000 0  700000 800000 0  750000 800000 0  800000 800000 0  850000 800000 0  900000 800000 0  950000 800000 0  1000000 800000 0  0 850000 0  50000 850000 0  100000 850000 0  150000 850000 0  200000 850000 0  250000 850000 0  300000 850000 0  350000 850000 0  400000 850000 0  450000 850000 0  500000 850000 0  550000 850000 0  600000 850000 0  650000 850000 0  700000 850000 0  750000 850000 0  800000 850000 0  850000 850000 0  900000 850000 0  950000 850000 0  1000000 850000 0  0 900000 0  50000 900000 0  100000 900000 0  150000 900000 0  200000 900000 0  250000 900000 0  300000 900000 0  350000 900000 0  400000 900000 0  450000 900000 0  500000 900000 0  550000 900000 0  600000 900000 0  650000 900000 0  700000 900000 0  750000 900000 0  800000 900000 0  850000 900000 0  900000 900000 0  950000 900000 0  1000000 900000 0  0 950000 0  50000 950000 0  100000 950000 0  150000 950000 0  200000 950000 0  250000 950000 0  300000 950000 0  350000 950000 0  400000 950000 0  450000 950000 0  500000 950000 0  550000 950000 0  600000 950000 0  650000 950000 0  700000 950000 0  750000 950000 0  800000 950000 0  850000 950000 0  900000 950000 0  950000 950000 0  1000000 950000 0  0 1000000 0  50000 1000000 0  100000 1000000 0  150000 1000000 0  200000 1000000 0  250000 1000000 0  300000 1000000 0  350000 1000000 0  400000 1000000 0  450000 1000000 0  500000 1000000 0  550000 1000000 0  600000 1000000 0  650000 1000000 0  700000 1000000 0  750000 1000000 0  800000 1000000 0  850000 1000000 0  900000 1000000 0  950000 1000000 0  1000000 1000000 0  0 1050000 0  50000 1050000 0  100000 1050000 0  150000 1050000 0  200000 1050000 0  250000 1050000 0  300000 1050000 0  350000 1050000 0  400000 1050000 0  450000 1050000 0  500000 1050000 0  550000 1050000 0  600000 1050000 0  650000 1050000 0  700000 1050000 0  750000 1050000 0  800000 1050000 0  850000 1050000 0  900000 1050000 0  950000 1050000 0  1000000 1050000 0  0 1100000 0  50000 1100000 0  100000 1100000 0  150000 1100000 0  200000 1100000 0  250000 1100000 0  300000 1100000 0  350000 1100000 0  400000 1100000 0  450000 1100000 0  500000 1100000 0  550000 1100000 0  600000 1100000 0  650000 1100000 0  700000 1100000 0  750000 1100000 0  800000 1100000 0  850000 1100000 0  900000 1100000 0  950000 1100000 0  1000000 1100000 0  0 1150000 0  50000 1150000 0  100000 1150000 0  150000 1150000 0  200000 1150000 0  250000 1150000 0  300000 1150000 0  350000 1150000 0  400000 1150000 0  450000 1150000 0  500000 1150000 0  550000 1150000 0  600000 1150000 0  650000 1150000 0  700000 1150000 0  750000 1150000 0  800000 1150000 0  850000 1150000 0  900000 1150000 0  950000 1150000 0  1000000 1150000 0  0 1200000 0  50000 1200000 0  100000 1200000 0  150000 1200000 0  200000 1200000 0  250000 1200000 0  300000 1200000 0  350000 1200000 0  400000 1200000 0  450000 1200000 0  500000 1200000 0  550000 1200000 0  600000 1200000 0  650000 1200000 0  700000 1200000 0  750000 1200000 0  800000 1200000 0  850000 1200000 0  900000 1200000 0  950000 1200000 0  1000000 1200000 0  0 1250000 0  50000 1250000 0  100000 1250000 0  150000 1250000 0  200000 1250000 0  250000 1250000 0  300000 1250000 0  350000 1250000 0  400000 1250000 0  450000 1250000 0  500000 1250000 0  550000 1250000 0  600000 1250000 0  650000 1250000 0  700000 1250000 0  750000 1250000 0  800000 1250000 0  850000 1250000 0  900000 1250000 0  950000 1250000 0  1000000 1250000 0  0 1300000 0  50000 1300000 0  100000 1300000 0  150000 1300000 0  200000 1300000 0  250000 1300000 0  300000 1300000 0  350000 1300000 0  400000 1300000 0  450000 1300000 0  500000 1300000 0  550000 1300000 0  600000 1300000 0  650000 1300000 0  700000 1300000 0  750000 1300000 0  800000 1300000 0  850000 1300000 0  900000 1300000 0  950000 1300000 0  1000000 1300000 0  0 1350000 0  50000 1350000 0  100000 1350000 0  150000 1350000 0  200000 1350000 0  250000 1350000 0  300000 1350000 0  350000 1350000 0  400000 1350000 0  450000 1350000 0  500000 1350000 0  550000 1350000 0  600000 1350000 0  650000 1350000 0  700000 135
[...]
<PointData  Vectors="f_4485"> 
<DataArray  type="Float64"  Name="f_4485"  NumberOfComponents="3" format="ascii">-2.3426350254515581e-10 2.5225693992126681e-10 0.0000000000000000e+00  -4.3889027174608592e-10 2.1226320655293007e-10 0.0000000000000000e+00  -8.0265871821015081e-10 1.9484474939335573e-10 0.0000000000000000e+00  -1.1540875123981088e-09 1.7929540292644341e-10 0.0000000000000000e+00  -1.4757914710311609e-09 1.6129052986891403e-10 0.0000000000000000e+00  -1.7583763354705136e-09 1.4039734840909884e-10 0.0000000000000000e+00  -1.9942147350211253e-09 1.1683394684932591e-10 0.0000000000000000e+00  -2.1771398428894555e-09 9.1044730913995615e-11 0.0000000000000000e+00  -2.3024370794080356e-09 6.3599565955431767e-11 0.0000000000000000e+00  -2.3669273314091912e-09 3.5141934203814368e-11 0.0000000000000000e+00  -2.3690353753112946e-09 6.3558346051248765e-12 0.0000000000000000e+00  -2.3088226917225471e-09 -2.2059480975181974e-11 0.0000000000000000e+00  -2.1879808182571260e-09 -4.9411759684117575e-11 0.0000000000000000e+00  -2.0097851892580242e-09 -7.5037464066487126e-11 0.0000000000000000e+00  -1.7790174316193124e-09 -9.8326119196292376e-11 0.0000000000000000e+00  -1.5019055716836028e-09 -1.1875775416400109e-10 0.0000000000000000e+00  -1.1863421539644171e-09 -1.3599209576324290e-10 0.0000000000000000e+00  -8.4357405815838101e-10 -1.5011693137937451e-10 0.0000000000000000e+00  -4.9622514159438289e-10 -1.6140199056526920e-10 0.0000000000000000e+00  -2.1243748948448205e-10 -1.5637870571056611e-10 0.0000000000000000e+00  -9.2900805209385847e-11 -9.3894370879168307e-11 0.0000000000000000e+00  -1.9859294927252171e-10 4.4103272035159399e-10 0.0000000000000000e+00  -3.7424111384232216e-10 3.7670443019930518e-10 0.0000000000000000e+00  -6.6878554176232050e-10 3.7909068155498200e-10 0.0000000000000000e+00  -9.8450922834918906e-10 3.6126159386870501e-10 0.0000000000000000e+00  -1.2848425459453654e-09 3.2939209072712137e-10 0.0000000000000000e+00  -1.5557418915972632e-09 2.8726442499103870e-10 0.0000000000000000e+00  -1.7879911916910805e-09 2.3701787957502179e-10 0.0000000000000000e+00  -1.9746241851261900e-09 1.8039052395463310e-10 0.0000000000000000e+00  -2.1103682613106653e-09 1.1906395099124568e-10 0.0000000000000000e+00  -2.1915143800835114e-09 5.4746323255890696e-11 0.0000000000000000e+00  -2.2159127118651776e-09 -1.0820313223621948e-11 0.0000000000000000e+00  -2.1829844476408371e-09 -7.5879942004585339e-11 0.0000000000000000e+00  -2.0937203497003400e-09 -1.3869170966215018e-10 0.0000000000000000e+00  -1.9506605628656808e-09 -1.9755895890939791e-10 0.0000000000000000e+00  -1.7578638832739917e-09 -2.5084936211323172e-10 0.0000000000000000e+00  -1.5209039808087667e-09 -2.9698964764051990e-10 0.0000000000000000e+00  -1.2470297322951595e-09 -3.3438453848858665e-10 0.0000000000000000e+00  -9.4601759048511271e-10 -3.6102745762331447e-10 0.0000000000000000e+00  -6.3392412776536021e-10 -3.7237052457239688e-10 0.0000000000000000e+00  -3.4961453240043069e-10 -3.5069268128490282e-10 0.0000000000000000e+00  -1.6113719655697292e-10 -2.0486168297603009e-10 0.0000000000000000e+00  -1.9543900437130919e-10 7.7589896692152714e-10 0.0000000000000000e+00  -3.8304278446932424e-10 6.5792617962045269e-10 0.0000000000000000e+00  -6.6677772856693468e-10 6.5080728404278107e-10 0.0000000000000000e+00  -9.6094092489088069e-10 6.2174920327510986e-10 0.0000000000000000e+00  -1.2393091494506299e-09 5.6940254071553063e-10 0.0000000000000000e+00  -1.4904390174088225e-09 4.9824741510698410e-10 0.0000000000000000e+00  -1.7060174989790950e-09 4.1207576806458629e-10 0.0000000000000000e+00  -1.8794516109956575e-09 3.1413691516349062e-10 0.0000000000000000e+00  -2.0056635656390272e-09 2.0753395332217737e-10 0.0000000000000000e+00  -2.0810722692106978e-09 9.5371393703962224e-11 0.0000000000000000e+00  -2.1035981338684605e-09 -1.9213689098197322e-11 0.0000000000000000e+00  -2.0726704736985982e-09 -1.3307013156648352e-10 0.0000000000000000e+00  -1.9892255914996410e-09 -2.4307002897269400e-10 0.0000000000000000e+00  -1.8556920271133661e-09 -3.4614550361337902e-10 0.0000000000000000e+00  -1.6759700002435720e-09 -4.3930478266779775e-10 0.0000000000000000e+00  -1.4554332204176303e-09 -5.1959256654008313e-10 0.0000000000000000e+00  -1.2010488883122322e-09 -5.8391381706414447e-10 0.0000000000000000e+00  -9.2197368351513072e-10 -6.2851354920422902e-10 0.0000000000000000e+00  -6.3197317098377717e-10 -6.4753717278686157e-10 0.0000000000000000e+00  -3.6128603913461258e-10 -6.3110079181744766e-10 0.0000000000000000e+00  -1.7265419369390396e-10 -4.6496273524664349e-10 0.0000000000000000e+00  -2.0338160625577134e-10 1.1056418899070289e-09 0.0000000000000000e+00  -3.7981256310734671e-10 9.7601155432886910e-10 0.0000000000000000e+00  -6.5809820954520195e-10 9.4766399798755109e-10 0.0000000000000000e+00  -9.4498093673659384e-10 8.9931920282785693e-10 0.0000000000000000e+00  -1.2133997566103141e-09 8.2291676139428657e-10 0.0000000000000000e+00  -1.4536637355139740e-09 7.2092125034821917e-10 0.0000000000000000e+00  -1.6590403233678541e-09 5.9746243141502995e-10 0.0000000000000000e+00  -1.8238261274987074e-09 4.5687144173386486e-10 0.0000000000000000e+00  -1.9434319882321589e-09 3.0355112308521791e-10 0.0000000000000000e+00  -2.0145503450600649e-09 1.4198977300453640e-10 0.0000000000000000e+00  -2.0352507379405514e-09 -2.3252095346283232e-11 0.0000000000000000e+00  -2.0050235104627690e-09 -1.8758464464570900e-10 0.0000000000000000e+00  -1.9247901713908158e-09 -3.4644557960892481e-10 0.0000000000000000e+00  -1.7968885482342088e-09 -4.9535500547119311e-10 0.0000000000000000e+00  -1.6250368933813851e-09 -6.2995055589741525e-10 0.0000000000000000e+00  -1.4142864483019041e-09 -7.4597986184441180e-10 0.0000000000000000e+00  -1.1710108772930201e-09 -8.3922485573123628e-10 0.0000000000000000e+00  -9.0319196061679881e-10 -9.0536969887394627e-10 0.0000000000000000e+00  -6.2231013850375704e-10 -9.3990343319838008e-10 0.0000000000000000e+00  -3.5633753813294736e-10 -9.3831686380114534e-10 0.0000000000000000e+00  -1.7556689049647936e-10 -7.8140278156394779e-10 0.0000000000000000e+00  -2.1733444366157355e-10 1.4284403940612556e-09 0.0000000000000000e+00  -3.7944394050509903e-10 1.2940218438900550e-09 0.0000000000000000e+00  -6.5311036490747189e-10 1.2479221557771564e-09 0.0000000000000000e+00  -9.3711796918247012e-10 1.1776994429772926e-09 0.0000000000000000e+00  -1.2020879529719320e-09 1.0750101386750591e-09 0.0000000000000000e+00  -1.4379683111410347e-09 9.4126967825330827e-10 0.0000000000000000e+00  -1.6386004598916055e-09 7.8052961378110639e-10 0.0000000000000000e+00  -1.7989487632306417e-09 5.9780156838512683e-10 0.0000000000000000e+00  -1.9149053268951991e-09 3.9855473371571228e-10 0.0000000000000000e+00  -1.9834694156583100e-09 1.8852895305398750e-10 0.0000000000000000e+00  -2.0028895102434996e-09 -2.6374851642457036e-11 0.0000000000000000e+00  -1.9727376602685461e-09 -2.4019036549205562e-10 0.0000000000000000e+00  -1.8939330357442643e-09 -4.4697985465046198e-10 0.0000000000000000e+00  -1.7687251885353760e-09 -6.4092433544952724e-10 0.0000000000000000e+00  -1.6006393745875692e-09 -8.1640516827141034e-10 0.0000000000000000e+00  -1.3943875849460997e-09 -9.6807782714330806e-10 0.0000000000000000e+00  -1.1557971808493521e-09 -1.0909632796308676e-09 0.0000000000000000e+00  -8.9209630410294882e-10 -1.1806501477227696e-09 0.0000000000000000e+00  -6.1427514345871577e-10 -1.2336251020061720e-09 0.0000000000000000e+00  -3.5220363624574191e-10 -1.2469784943394843e-09 0.0000000000000000e+00  -1.8423593771033817e-10 -1.1010003900784938e-09 0.0000000000000000e+00  -2.3627394512306385e-10 1.7482820503252539e-09 0.0000000000000000e+00  -3.8367488377861450e-10 1.6094929755311053e-09 0.0000000000000000e+00  -6.5441176056931698e-10 1.5487409948217911e-09 0.0000000000000000e+00  -9.3829587297901339e-10 1.4566820221224103e-09 0.0000000000000000e+00  -1.2034934155064405e-09 1.3266817370953773e-09 0.0000000000000000e+00  -1.4390783494475542e-09 1.1603384061552915e-09 0.0000000000000000e+00  -1.6388106310845266e-09 9.6194509469719745e-10 0.0000000000000000e+00  -1.7979046392535724e-09 7.3713706877355965e-10 0.0000000000000000e+00  -1.9125502149421493e-09 4.9232336914018135e-10 0.0000000000000000e+00  -1.9799857386219956e-09 2.3438316208716387e-10 0.0000000000000000e+00  -1.9986183497573811e-09 -2.9532969734366264e-11 0.0000000000000000e+00  -1.9681002744178120e-09 -2.9216050205028224e-10 0.0000000000000000e+00  -1.8893557845412497e-09 -5.4626265028006831e-10 0.0000000000000000e+00  -1.7645634632162299e-09 -7.8476696297705722e-10 0.0000000000000000e+00  -1.5970957405575008e-09 -1.0009047687732821e-09 0.0000000000000000e+00  -1.3914266241363436e-09 -1.1883687683580798e-09 0.0000000000000000e+00  -1.1530925810211047e-09 -1.3415246880610642e-09 0.0000000000000000e+00  -8.8915553876616235e-10 -1.4557381491940992e-09 0.0000000000000000e+00  -6.1116995586864601e-10 -1.5276508246110825e-09 0.0000000000000000e+00  -3.5190255978551731e-10 -1.5543824118357348e-09 0.0000000000000000e+00  -1.9793988263677916e-10 -1.4158916957185165e-09 0.0000000000000000e+00  -2.5985473820430014e-10 2.0687690242146083e-09 0.0000000000000000e+00  -3.9223781694104426e-10 1.9252747430524474e-09 0.0000000000000000e+00  -6.6182670200064008e-10 1.8512319892850078e-09 0.0000000000000000e+00  -9.4772031721911813e-10 1.7379677868184642e-09 0.0000000000000000e+00  -1.2154922580977156e-09 1.5802752322940981e-09 0.0000000000000000e+00  -1.4533021230138885e-09 1.3806107170181667e-09 0.0000000000000000e+00  -1.6545853861373034e-09 1.1439131131325367e-09 0.0000000000000000e+00  -1.8145411028727256e-09 8.7657423829287527e-10 0.0000000000000000e+00  -1.9294766017751325e-09 5.8594384287271574e-10 0.0000000000000000e+00  -1.9967719305013302e-09 2.7999260928856292e-10 0.0000000000000000e+00  -2.0149481570979564e-09 -3.2940842576341807e-11 0.0000000000000000e+00  -1.9837228154856242e-09 -3.4435799749746889e-10 0.0000000000000000e+00  -1.9040305520919731e-09 -6.4578734972837176e-10 0.0000000000000000e+00  -1.7780066569445395e-09 -9.2896645176099313e-10 0.0000000000000000e+00  -1.6089357546198125e-09 -1.1860336388584609e-09 0.0000000000000000e+00  -1.4011863312292663e-09 -1.4097473933782796e-09 0.0000000000000000e+00  -1.1602455674540416e-09 -1.5937575769588749e-09 0.0000000000000000e+00  -8.9337772968411657e-10 -1.7329433035237322e-09 0.0000000000000000e+00  -6.1309623210666993e-10 -1.8235641011416914e-09 0.0000000000000000e+00  -3.5534559066255866e-10 -1.8622613861109346e-09 0.0000000000000000e+00  -2.1599552047095857e-10 -1.7278776035983607e-09 0.0000000000000000e+00  -2.8794998201837336e-10 2.3925912900474037e-09 0.0000000000000000e+00  -4.0430637265560802e-10 2.2440230012474554e-09 0.0000000000000000e+00  -6.7398017684306960e-10 2.1572830068709410e-09 0.0000000000000000e+00  -9.6336208795369876e-10 2.0231766630170818e-09 0.0000000000000000e+00  -1.2351385025435333e-09 1.8375556028848640e-09 0.0000000000000000e+00  -1.4765786398447124e-09 1.6039218790564546e-09 0.0000000000000000e+00  -1.6807524372071714e-09 1.3281292467254912e-09 0.0000000000000000e+00  -1.8427372821435758e-09 1.0174947627521280e-09 0.0000000000000000e+00  -1.9588543966803454e-09 6.8037552723781018e-10 0.0000000000000000e+00  -2.0265547529900024e-09 3.2583751882245660e-10 0.0000000000000000e+00  -2.0444341991459644e-09 -3.6621437609893812e-11 0.0000000000000000e+00  -2.0122593302795539e-09 -3.9731154591957385e-10 0.0000000000000000e+00  -1.9309770828375001e-09 -7.4657085322840900e-10 0.0000000000000000e+00  -1.8027023133646623e-09 -1.0749819630717356e-09 0.0000000000000000e+00  -1.6306857447870472e-09 -1.3736019005160098e-09 0.0000000000000000e+00  -1.4192886258536673e-09 -1.6342202336838182e-09 0.0000000000000000e+00  -1.1740957056013844e-09 -1.8496560321022089e-09 0.0000000000000000e+00  -9.0274109764605777e-10 -2.0140816096465243e-09 0.0000000000000000e+00  -6.1883003339142371e-10 -2.1231007018898546e-09 0.0000000000000000e+00  -3.6173408144694380e-10 -2.1727376779172193e-09 0.0000000000000000e+00  -2.3812707859045110e-10 -2.0399818289779397e-09 0.0000000000000000e+00  -3.2054527534427101e-10 2.7212863515103601e-09 0.0000000000000000e+00  -4.1881554625114621e-10 2.5675004940519128e-09 0.0000000000000000e+00  -6.8889138864038037e-10 2.4682581761412836e-09 0.0000000000000000e+00  -9.8237495424258942e-10 2.3133393191890401e-09 0.0000000000000000e+00  -1.2586690368467290e-09 2.0994547176169644e-09 0.0000000000000000e+00  -1.5041585207422403e-09 1.8311813435388195e-09 0.0000000000000000e+00  -1.7115830384588040e-09 1.5154380317557620e-09 0.0000000000000000e+00  -1.8758966516554939e-09 1.1606041122178404e-09 0.0000000000000000e+00  -1.9934129457264571e-09 7.7612460675760117e-10 0.0000000000000000e+00  -2.0616325062303674e-09 3.7218740184822458e-10 0.0000000000000000e+00  -2.0792112959190216e-09 -4.0560982217644840e-11 0.0000000000000000e+00  -2.0459560474747787e-09 -4.5126870370726131e-10 0.0000000000000000e+00  -1.9628222574634281e-09 -8.4911419507242302e-10 0.0000000000000000e+00  -1.8319091129874322e-09 -1.2235413523563395e-09 0.0000000000000000e+00  -1.6564531321650837e-09 -1.5645114410174204e-09 0.0000000000000000e+00  -1.4408477159656191e-09 -1.8627843514706756e-09 0.0000000000000000e+00  -1.1908290520385788e-09 -2.1102317067614279e-09 0.0000000000000000e+00  -9.1445113762133399e-10 -2.3001599433315065e-09 0.0000000000000000e+00  -6.2646733483530475e-10 -2.4273778000292686e-09 0.0000000000000000e+00  -3.6998967167944947e-10 -2.4872660773363189e-09 0.0000000000000000e+00  -2.6422992150330815e-10 -2.3545151102487590e-09 0.0000000000000000e+00  -3.5768916144630696e-10 3.0550833585422603e-09 0.0000000000000000e+00  -4.3452033954553087e-10 2.8963396683193985e-09 0.0000000000000000e+00  -7.0413962685521473e-10 2.7845449208216765e-09 0.0000000000000000e+00  -1.0012338910482529e-09 2.6085860651569068e-09 0.0000000000000000e+00  -1.2814896248359779e-09 2.3659562061498380e-09 0.0000000000000000e+00  -1.5303964410676801e-09 2.0623287457348378e-09 0.0000000000000000e+00  -1.7404344649496349e-09 1.7057828061164244e-09 0.0000000000000000e+00  -1.9065011967294345e-09 1.3058631921920795e-09 0.0000000000000000e+00  -2.0249513903169999e-09 8.7317200552055834e-10 0.0000000000000000e+00  -2.0933680464618879e-09 4.1904318770583347e-10 0.0000000000000000e+00  -2.1104851244847168e-09 -4.4740858802781825e-11 0.0000000000000000e+00  -2.0761518496594244e-09 -5.0619918883724967e-10 0.0000000000000000e+00  -1.9913200388442338e-09 -9.5338388361543398e-10 0.0000000000000000e+00  -1.8580507106692514e-09 -1.3746143545934928e-09 0.0000000000000000e+00  -1.6795401783984281e-09 -1.7587351266270648e-09 0.0000000000000000e+00  -1.4601900909060987e-09 -2.0954108267107118e-09 0.0000000000000000e+00  -1.2058670692520512e-09 -2.3754587538673403e-09 0.0000000000000000e+00  -9.2502864846620288e-10 -2.5911958375982385e-09 0.0000000000000000e+00  -6.3361300945658040e-10 -2.7365464949312487e-09 0.0000000000000000e+00  -3.7883138101527344e-10 -2.8062440115872639e-09 0.0000000000000000e+00  -2.9428450056785518e-10 -2.6726227890061405e-09 0.0000000000000000e+00  -3.9946507658148061e-10 3.3927167245032789e-09 0.0000000000000000e+00  -4.4997154616972402e-10 3.2298284136546233e-09 0.0000000000000000e+00  -7.1685197140616315e-10 3.1052812379337665e-09 0.0000000000000000e+00  -1.0157022854826099e-09 2.9078783535937254e-09 0.0000000000000000e+00  -1.2980628801815485e-09 2.6359164133421919e-09 0.0000000000000000e+00  -1.5485207891519690e-09 2.2962234015170042e-09 0.0000000000000000e+00  -1.7594009261093561e-09 1.8981281251999744e-09 0.0000000000000000e+00  -1.9256688561503882e-09 1.4524260897182315e-09 0.0000000000000000e+00  -2.0438341540240836e-09 9.7092643054525419e-10 0.0000000000000000e+00  -2.1116504676490585e-09 4.6611235159033153e-10 0.0000000000000000e+00  -2.1279836409953725e-09 -4.9134884436639414e-11 0.0000000000000000e+00  -2.0927399993205708e-09 -5.6176415068507906e-10 0.0000000000000000e+00  -2.0068432843569251e-09 -1.0587582822452982e-09 0.0000000000000000e+00  -1.8722590738930380e-09 -1.5273441236612182e-09 0.0000000000000000e+00  -1.6920640477397438e-09 -1.9552384283051013e-09 0.0000000000000000e+00  -1.4705790191957346e-09 -2.3309495242897000e-09 0.0000000000000000e+00  -1.2137147429137513e-09 -2.6441377824507277e-09 0.0000000000000000e+00  -9.3026811954714564e-10 -2.8860134171735730e-09 0.0000000000000000e+00  -6.3738778773893208e-10 -3.0495291797840484e-09 0.0000000000000000e+00  -3.8676177887470973e-10 -3.1287579481923341e-09 0.0000000000000000e+00  -3.2832369590693362e-10 -2.9940930837938048e-09 0.0000000000000000e+00  -4.4597401686901274e-10 3.7311794495567550e-09 0.0000000000000000e+00  -4.6346149156100742e-10 3.5656662578576039e-09 0.0000000000000000e+00  -7.2361339475367923e-10 3.4280813229620487e-09 0.0000000000000000e+00  -1.0206983897258567e-09 3.2087243160476432e-09 0.0000000000000000e+00  -1.3017057655379686e-09 2.9068109375870693e-09 0.0000000000000000e+00  -1.5503383333709585e-09 2.5304379491772431e-09 0.0000000000000000e+00  -1.7589178046868617e-09 2.0902967130212128e-09 0.0000000000000000e+00  -1.9226681284595644e-09 1.5985164059622608e-09 0.0000000000000000e+00  -2.0384381486235782e-09 1.0681417750089393e-09 0.0000000000000000e+00  -2.1043015789310273e-09 5.1277194107843811e-10 0.0000000000000000e+00  -2.1193501034484115e-09 -5.3697518550527686e-11 0.0000000000000000e+00  -2.0835741361629688e-09 -6.1725661375773014e-10 0.0000000000000000e+00  -1.9978279408067673e-09 -1.1639257645118127e-09 0.0000000000000000e+00  -1.8638806621014714e-09 -1.6799109569426660e-09 0.0000000000000000e+00  -1.6845462194539324e-09 -2.1518149819902632e-09 0.0000000000000000e+00  -1.4639024353561685e-09 -2.5669371999495285e-09 0.0000000000000000e+00  -1.2077493639219664e-09 -2.9136719068972393e-09 0.0000000000000000e+00  -9.2511021764345484e-10 -3.1819863988047813e-09 0.0000000000000000e+00  -6.3435203780508222e-10 -3.3637458409855362e-09 0.0000000000000000e+00  -3.9201796559083256e-10 -3.4523266081213531e-09 0.0000000000000000e+00  -3.6641618176423956e-10 -3.3171601331206176e-09 0.0000000000000000e+00  -4.9732483892932941e-10 4.0654033010396029e-09 0.0000000000000000e+00  -4.7295512026615091e-10 3.8996636434104713e-09 0.0000000000000000e+00  -7.2033569174953388e-10 3.7487118346901815e-09 0.0000000000000000e+00  -1.0100963066067444e-09 3.5068401576520128e-09 0.0000000000000000e+00  -1.2843098712818464e-09 3.1744037212352815e-09 0.0000000000000000e+00  -1.5258602944056038e-09 2.7609575397676451e-09 0.0000000000000000e+00  -1.7272888287661667e-09 2.2787132806862845e-09 0.0000000000000000e+00  -1.8843546011862666e-09 1.7412265264397576e-09 0.0000000000000000e+00  -1.9945182501764142e-09 1.1627815597243095e-09 0.0000000000000000e+00  -2.0563971211999318e-09 5.5800604733895842e-10 0.0000000000000000e+00  -2.0694501414021281e-09 -5.8349531246085655e-11 0.0000000000000000e+00  -2.0337917962840111e-09 -6.7151206111212258e-10 0.0000000000000000e+00  -1.9501419732231625e-09 -1.2667276559998684e-09 0.0000000000000000e+00  -1.8199160716043794e-09 -1.8293190825004031e-09 0.0000000000000000e+00  -1.6454420347392290e-09 -2.3448299397123333e-09 0.0000000000000000e+00  -1.4303023528360452e-09 -2.7993087234601188e-09 0.0000000000000000e+00  -1.1799477162265055e-09 -3.1797552767114370e-09 0.0000000000000000e+00  -9.0345291534325439e-10 -3.4747141747623708e-09 0.0000000000000000e+00  -6.2038248962254819e-10 -3.6747917157559696e-09 0.0000000000000000e+00  -3.9250315735802116e-10 -3.7725953877664249e-09 0.0000000000000000e+00  -4.0865611447380867e-10 -3.6382469771271721e-09 0.0000000000000000e+00  -5.5363300697253555e-10 4.3878545686922793e-09 0.0000000000000000e+00  -4.7601080623955968e-10 4.2253661329472108e-09 0.0000000000000000e+00  -7.0209642125505525e-10 4.0606939795107362e-09 0.0000000000000000e+00  -9.7647415997456685e-10 3.7957315273477732e-09 0.0000000000000000e+00  -1.2359883848062997e-09 3.4323243539328031e-09 0.0000000000000000e+00  -1.46283