<?xml version="1.0"?>
<VTKFile type="UnstructuredGrid"  version="0.1"  >
<UnstructuredGrid>
<Piece  NumberOfPoints="651" NumberOfCells="1200">
<Points>
<DataArray  type="Float64"  NumberOfComponents="3"  format="ascii">0 0 0  50000 0 0  100000 0 0  150000 0 0  200000 0 0  250000 0 0  300000 0 0  350000 0 0  400000 0 0  450000 0 0  500000 0 0  550000 0 0  600000 0 0  650000 0 0  700000 0 0  750000 0 0  800000 0 0  850000 0 0  900000 0 0  950000 0 0  1000000 0 0  0 50000 0  50000 50000 0  100000 50000 0  150000 50000 0  200000 50000 0  250000 50000 0  300000 50000 0  350000 50000 0  400000 50000 0  450000 50000 0  500000 50000 0  550000 50000 0  600000 50000 0  650000 50000 0  700000 50000 0  750000 50000 0  800000 50000 0  850000 50000 0  900000 50000 0  950000 50000 0  1000000 50000 0  0 100000 0  50000 100000 0  100000 100000 0  150000 100000 0  200000 100000 0  250000 100000 0  300000 100000 0  350000 100000 0  400000 100000 0  450000 100000 0  500000 100000 0  550000 100000 0  600000 100000 0  650000 100000 0  700000 100000 0  750000 100000 0  800000 100000 0  850000 100000 0  900000 100000 0  950000 100000 0  1000000 100000 0  0 150000 0  50000 150000 0  100000 150000 0  150000 150000 0  200000 150000 0  250000 150000 0  300000 150000 0  350000 150000 0  400000 150000 0  450000 150000 0  500000 150000 0  550000 150000 0  600000 150000 0  650000 150000 0  700000 150000 0  750000 150000 0  800000 150000 0  850000 150000 0  900000 150000 0  950000 150000 0  1000000 150000 0  0 200000 0  50000 200000 0  100000 200000 0  150000 200000 0  200000 200000 0  250000 200000 0  300000 200000 0  350000 200000 0  400000 200000 0  450000 200000 0  500000 200000 0  550000 200000 0  600000 200000 0  650000 200000 0  700000 200000 0  750000 200000 0  800000 200000 0  850000 200000 0  900000 200000 0  950000 200000 0  1000000 200000 0  0 250000 0  50000 250000 0  100000 250000 0  150000 250000 0  200000 250000 0  250000 250000 0  300000 250000 0  350000 250000 0  400000 250000 0  450000 250000 0  500000 250000 0  550000 250000 0  600000 250000 0  650000 250000 0  700000 250000 0  750000 250000 0  800000 250000 0  850000 250000 0  900000 250000 0  950000 250000 0  1000000 250000 0  0 300000 0  50000 300000 0  100000 300000 0  150000 300000 0  200000 300000 0  250000 300000 0  300000 300000 0  350000 300000 0  400000 300000 0  450000 300000 0  500000 300000 0  550000 300000 0  600000 300000 0  650000 300000 0  700000 300000 0  750000 300000 0  800000 300000 0  850000 300000 0  900000 300000 0  950000 300000 0  1000000 300000 0  0 350000 0  50000 350000 0  100000 350000 0  150000 350000 0  200000 350000 0  250000 350000 0  300000 350000 0  350000 350000 0  400000 350000 0  450000 350000 0  500000 350000 0  550000 350000 0  600000 350000 0  650000 350000 0  700000 350000 0  750000 350000 0  800000 350000 0  850000 350000 0  900000 350000 0  950000 350000 0  1000000 350000 0  0 400000 0  50000 400000 0  100000 400000 0  150000 400000 0  200000 400000 0  250000 400000 0  300000 400000 0  350000 400000 0  400000 400000 0  450000 400000 0  500000 400000 0  550000 400000 0  600000 400000 0  650000 400000 0  700000 400000 0  750000 400000 0  800000 400000 0  850000 400000 0  900000 400000 0  950000 400000 0  1000000 400000 0  0 450000 0  50000 450000 0  100000 450000 0  150000 450000 0  200000 450000 0  250000 450000 0  300000 450000 0  350000 450000 0  400000 450000 0  450000 450000 0  500000 450000 0  550000 450000 0  600000 450000 0  650000 450000 0  700000 450000 0  750000 450000 0  800000 450000 0  850000 450000 0  900000 450000 0  950000 450000 0  1000000 450000 0  0 500000 0  50000 500000 0  100000 500000 0  150000 500000 0  200000 500000 0  250000 500000 0  300000 500000 0  350000 500000 0  400000 500000 0  450000 500000 0  500000 500000 0  550000 500000 0  600000 500000 0  650000 500000 0  700000 500000 0  750000 500000 0  800000 500000 0  850000 500000 0  900000 500000 0  950000 500000 0  1000000 500000 0  0 550000 0  50000 550000 0  100000 550000 0  150000 550000 0  200000 550000 0  250000 550000 0  300000 550000 0  350000 550000 0  400000 550000 0  450000 550000 0  500000 550000 0  550000 550000 0  600000 550000 0  650000 550000 0  700000 550000 0  750000 550000 0  800000 550000 0  850000 550000 0  900000 550000 0  950000 550000 0  1000000 550000 0  0 600000 0  50000 600000 0  100000 600000 0  150000 600000 0  200000 600000 0  250000 600000 0  300000 600000 0  350000 600000 0  400000 600000 0  450000 600000 0  500000 600000 0  550000 600000 0  600000 600000 0  650000 600000 0  700000 600000 0  750000 600000 0  800000 600000 0  850000 600000 0  900000 600000 0  950000 600000 0  1000000 600000 0  0 650000 0  50000 650000 0  100000 650000 0  150000 650000 0  200000 650000 0  250000 650000 0  300000 650000 0  350000 650000 0  400000 650000 0  450000 650000 0  500000 650000 0  550000 650000 0  600000 650000 0  650000 650000 0  700000 650000 0  750000 650000 0  800000 650000 0  850000 650000 0  900000 650000 0  950000 650000 0  1000000 650000 0  0 700000 0  50000 700000 0  100000 700000 0  150000 700000 0  200000 700000 0  250000 700000 0  300000 700000 0  350000 700000 0  400000 700000 0  450000 700000 0  500000 700000 0  550000 700000 0  600000 700000 0  650000 700000 0  700000 700000 0  750000 700000 0  800000 700000 0  850000 700000 0  900000 700000 0  950000 700000 0  1000000 700000 0  0 750000 0  50000 750000 0  100000 750000 0  150000 750000 0  200000 750000 0  250000 750000 0  300000 750000 0  350000 750000 0  400000 750000 0  450000 750000 0  500000 750000 0  550000 750000 0  600000 750000 0  650000 750000 0  700000 750000 0  750000 750000 0  800000 750000 0  850000 750000 0  900000 750000 0  950000 750000 0  1000000 750000 0  0 800000 0  50000 800000 0  100000 800000 0  150000 800000 0  200000 800000 0  250000 800000 0  300000 800000 0  350000 800000 0  400000 800000 0  450000 800000 0  500000 800000 0  550000 800000 0  600000 800000 0  650000 800000 0  700000 800000 0  750000 800000 0  800000 800000 0  850000 800000 0  900000 800000 0  950000 800000 0  1000000 800000 0  0 850000 0  50000 850000 0  100000 850000 0  150000 850000 0  200000 850000 0  250000 850000 0  300000 850000 0  350000 850000 0  400000 850000 0  450000 850000 0  500000 850000 0  550000 850000 0  600000 850000 0  650000 850000 0  700000 850000 0  750000 850000 0  800000 850000 0  850000 850000 0  900000 850000 0  950000 850000 0  1000000 850000 0  0 900000 0  50000 900000 0  100000 900000 0  150000 900000 0  200000 900000 0  250000 900000 0  300000 900000 0  350000 900000 0  400000 900000 0  450000 900000 0  500000 900000 0  550000 900000 0  600000 900000 0  650000 900000 0  700000 900000 0  750000 900000 0  800000 900000 0  850000 900000 0  900000 900000 0  950000 900000 0  1000000 900000 0  0 950000 0  50000 950000 0  100000 950000 0  150000 950000 0  200000 950000 0  250000 950000 0  300000 950000 0  350000 950000 0  400000 950000 0  450000 950000 0  500000 950000 0  550000 950000 0  600000 950000 0  650000 950000 0  700000 950000 0  750000 950000 0  800000 950000 0  850000 950000 0  900000 950000 0  950000 950000 0  1000000 950000 0  0 1000000 0  50000 1000000 0  100000 1000000 0  150000 1000000 0  200000 1000000 0  250000 1000000 0  300000 1000000 0  350000 1000000 0  400000 1000000 0  450000 1000000 0  500000 1000000 0  550000 1000000 0  600000 1000000 0  650000 1000000 0  700000 1000000 0  750000 1000000 0  800000 1000000 0  850000 1000000 0  900000 1000000 0  950000 1000000 0  1000000 1000000 0  0 1050000 0  50000 1050000 0  100000 1050000 0  150000 1050000 0  200000 1050000 0  250000 1050000 0  300000 1050000 0  350000 1050000 0  400000 1050000 0  450000 1050000 0  500000 1050000 0  550000 1050000 0  600000 1050000 0  650000 1050000 0  700000 1050000 0  750000 1050000 0  800000 1050000 0  850000 1050000 0  900000 1050000 0  950000 1050000 0  1000000 1050000 0  0 1100000 0  50000 1100000 0  100000 1100000 0  150000 1100000 0  200000 1100000 0  250000 1100000 0  300000 1100000 0  350000 1100000 0  400000 1100000 0  450000 1100000 0  500000 1100000 0  550000 1100000 0  600000 1100000 0  650000 1100000 0  700000 1100000 0  750000 1100000 0  800000 1100000 0  850000 1100000 0  900000 1100000 0  950000 1100000 0  1000000 1100000 0  0 1150000 0  50000 1150000 0  100000 1150000 0  150000 1150000 0  200000 1150000 0  250000 1150000 0  300000 1150000 0  350000 1150000 0  400000 1150000 0  450000 1150000 0  500000 1150000 0  550000 1150000 0  600000 1150000 0  650000 1150000 0  700000 1150000 0  750000 1150000 0  800000 1150000 0  850000 1150000 0  900000 1150000 0  950000 1150000 0  1000000 1150000 0  0 1200000 0  50000 1200000 0  100000 1200000 0  150000 1200000 0  200000 1200000 0  250000 1200000 0  300000 1200000 0  350000 1200000 0  400000 1200000 0  450000 1200000 0  500000 1200000 0  550000 1200000 0  600000 1200000 0  650000 1200000 0  700000 1200000 0  750000 1200000 0  800000 1200000 0  850000 1200000 0  900000 1200000 0  950000 1200000 0  1000000 1200000 0  0 1250000 0  50000 1250000 0  100000 1250000 0  150000 1250000 0  200000 1250000 0  250000 1250000 0  300000 1250000 0  350000 1250000 0  400000 1250000 0  450000 1250000 0  500000 1250000 0  550000 1250000 0  600000 1250000 0  650000 1250000 0  700000 1250000 0  750000 1250000 0  800000 1250000 0  850000 1250000 0  900000 1250000 0  950000 1250000 0  1000000 1250000 0  0 1300000 0  50000 1300000 0  100000 1300000 0  150000 1300000 0  200000 1300000 0  250000 1300000 0  300000 1300000 0  350000 1300000 0  400000 1300000 0  450000 1300000 0  500000 1300000 0  550000 1300000 0  600000 1300000 0  650000 1300000 0  700000 1300000 0  750000 1300000 0  800000 1300000 0  850000 1300000 0  900000 1300000 0  950000 1300000 0  1000000 1300000 0  0 1350000 0  50000 1350000 0  100000 1350000 0  150000 1350000 0  200000 1350000 0  250000 1350000 0  300000 1350000 0  350000 1350000 0  400000 1350000 0  450000 1350000 0  500000 1350000 0  550000 1350000 0  600000 1350000 0  650000 1350000 0  700000 135
[...]
<PointData  Vectors="f_4485"> 
<DataArray  type="Float64"  Name="f_4485"  NumberOfComponents="3" format="ascii">-1.7127804651725429e-10 1.5393615008793005e-10 0.0000000000000000e+00  -2.7545269109258002e-10 1.3325854596882642e-10 0.0000000000000000e+00  -4.6218953746212060e-10 1.2284673655809392e-10 0.0000000000000000e+00  -6.4549277950027826e-10 1.1244642410317075e-10 0.0000000000000000e+00  -8.1681696427986897e-10 9.9625929916389940e-11 0.0000000000000000e+00  -9.7016985204405131e-10 8.4443284613547691e-11 0.0000000000000000e+00  -1.1003005796385369e-09 6.7229296652562647e-11 0.0000000000000000e+00  -1.2027590429720504e-09 4.8382767542888090e-11 0.0000000000000000e+00  -1.2740256872450512e-09 2.8351328377399873e-11 0.0000000000000000e+00  -1.3116450671628729e-09 7.6179928345137329e-12 0.0000000000000000e+00  -1.3143223350349308e-09 -1.3313023035768510e-11 0.0000000000000000e+00  -1.2819741347840618e-09 -3.3930993514687943e-11 0.0000000000000000e+00  -1.2157319263783289e-09 -5.3733551758003834e-11 0.0000000000000000e+00  -1.1178981336327041e-09 -7.2241326926885129e-11 0.0000000000000000e+00  -9.9185956812852731e-10 -8.9011610217376897e-11 0.0000000000000000e+00  -8.4197785945993823e-10 -1.0364886854880644e-10 0.0000000000000000e+00  -6.7355000839933971e-10 -1.1580454890723425e-10 0.0000000000000000e+00  -4.9330760844635807e-10 -1.2513264373261548e-10 0.0000000000000000e+00  -3.1286282662764062e-10 -1.3089115985460240e-10 0.0000000000000000e+00  -1.6434039620520135e-10 -1.2898150993914126e-10 0.0000000000000000e+00  -1.0078131221879499e-10 -9.4543366915066919e-11 0.0000000000000000e+00  -1.5628712495740397e-10 2.4989131468241074e-10 0.0000000000000000e+00  -2.2194985945054943e-10 2.1406703370564612e-10 0.0000000000000000e+00  -3.8606336319969434e-10 2.1063902455808166e-10 0.0000000000000000e+00  -5.6985559527870523e-10 2.0181220156670562e-10 0.0000000000000000e+00  -7.4762167387446244e-10 1.8622336958950063e-10 0.0000000000000000e+00  -9.1053190735368863e-10 1.6419387406778257e-10 0.0000000000000000e+00  -1.0524480909941319e-09 1.3639829006930527e-10 0.0000000000000000e+00  -1.1681448659430656e-09 1.0375834574423157e-10 0.0000000000000000e+00  -1.2533628029772240e-09 6.7384851822713934e-11 0.0000000000000000e+00  -1.3049607424409457e-09 2.8534361359374218e-11 0.0000000000000000e+00  -1.3210359077562529e-09 -1.1438489381099734e-11 0.0000000000000000e+00  -1.3009977590863977e-09 -5.1132835118713540e-11 0.0000000000000000e+00  -1.2455910718735461e-09 -8.9155311226765936e-11 0.0000000000000000e+00  -1.1568673704389385e-09 -1.2417359893096370e-10 0.0000000000000000e+00  -1.0381075897998060e-09 -1.5496748369642769e-10 0.0000000000000000e+00  -8.9370956285459131e-10 -1.8047356997705792e-10 0.0000000000000000e+00  -7.2910241999994253e-10 -1.9981326925119430e-10 0.0000000000000000e+00  -5.5099485109940086e-10 -2.1226176275562114e-10 0.0000000000000000e+00  -3.6945034908126069e-10 -2.1695380005177061e-10 0.0000000000000000e+00  -2.0806613992320133e-10 -2.1075707311809933e-10 0.0000000000000000e+00  -1.3905078034373996e-10 -1.5278281967556305e-10 0.0000000000000000e+00  -1.5986329552039199e-10 4.2367816214963939e-10 0.0000000000000000e+00  -2.2240392414399141e-10 3.7780888228197318e-10 0.0000000000000000e+00  -3.8651625846020144e-10 3.7738132544077684e-10 0.0000000000000000e+00  -5.7113455389952625e-10 3.6564737089186866e-10 0.0000000000000000e+00  -7.5222458579965284e-10 3.4065882102897252e-10 0.0000000000000000e+00  -9.1958555481957917e-10 3.0309679067792780e-10 0.0000000000000000e+00  -1.0661593007885765e-09 2.5428239205447497e-10 0.0000000000000000e+00  -1.1861990490847290e-09 1.9596848881573101e-10 0.0000000000000000e+00  -1.2750506626850873e-09 1.3027732675940087e-10 0.0000000000000000e+00  -1.3292730560823904e-09 5.9621545943097119e-11 0.0000000000000000e+00  -1.3467667943228854e-09 -1.3389156585626187e-11 0.0000000000000000e+00  -1.3268555194966610e-09 -8.6049628317623999e-11 0.0000000000000000e+00  -1.2703124709659817e-09 -1.5566465329416660e-10 0.0000000000000000e+00  -1.1793309548253366e-09 -2.1965414644519950e-10 0.0000000000000000e+00  -1.0574413244201768e-09 -2.7565382904962606e-10 0.0000000000000000e+00  -9.0938718134216780e-10 -3.2160494958741909e-10 0.0000000000000000e+00  -7.4101892774395626e-10 -3.5581873544713772e-10 0.0000000000000000e+00  -5.5949022720948655e-10 -3.7696662830390785e-10 0.0000000000000000e+00  -3.7518189405816223e-10 -3.8372997779046161e-10 0.0000000000000000e+00  -2.1205008067616083e-10 -3.7148518410774238e-10 0.0000000000000000e+00  -1.4810977954884618e-10 -2.8778430044641763e-10 0.0000000000000000e+00  -1.6992578610714521e-10 6.0370154412757535e-10 0.0000000000000000e+00  -2.3019455949615432e-10 5.6424195072435070e-10 0.0000000000000000e+00  -3.9839658477750250e-10 5.6583059581908258e-10 0.0000000000000000e+00  -5.8853743962355805e-10 5.5078014896255853e-10 0.0000000000000000e+00  -7.7572448109131695e-10 5.1537915190940755e-10 0.0000000000000000e+00  -9.4923882059150924e-10 4.6050687121495074e-10 0.0000000000000000e+00  -1.1015852821641654e-09 3.8813241813340145e-10 0.0000000000000000e+00  -1.2265605256727219e-09 3.0093938658987727e-10 0.0000000000000000e+00  -1.3191387031155700e-09 2.0219808284870137e-10 0.0000000000000000e+00  -1.3756066299972747e-09 9.5635814348910397e-11 0.0000000000000000e+00  -1.3936997959675276e-09 -1.4709850317792488e-11 0.0000000000000000e+00  -1.3726905174818633e-09 -1.2464949004430595e-10 0.0000000000000000e+00  -1.3134169108895995e-09 -2.3000562141728751e-10 0.0000000000000000e+00  -1.2182508697795667e-09 -3.2677640186434839e-10 0.0000000000000000e+00  -1.0910071632286116e-09 -4.1129350946111226e-10 0.0000000000000000e+00  -9.3680548028806577e-10 -4.8036636426621284e-10 0.0000000000000000e+00  -7.6194308907911944e-10 -5.3139760154881660e-10 0.0000000000000000e+00  -5.7407072515891131e-10 -5.6242150855821138e-10 0.0000000000000000e+00  -3.8416221882866429e-10 -5.7178117870094909e-10 0.0000000000000000e+00  -2.1734973326417876e-10 -5.5459183601796936e-10 0.0000000000000000e+00  -1.5523253350885496e-10 -4.5607405411744226e-10 0.0000000000000000e+00  -1.8347243635036108e-10 7.9034962616703619e-10 0.0000000000000000e+00  -2.4208245411043635e-10 7.5941312856669881e-10 0.0000000000000000e+00  -4.1713580402281685e-10 7.6480943630415015e-10 0.0000000000000000e+00  -6.1602097951754260e-10 7.4676655087539008e-10 0.0000000000000000e+00  -8.1222769870532915e-10 7.0077878277525111e-10 0.0000000000000000e+00  -9.9441920954099599e-10 6.2791545867562333e-10 0.0000000000000000e+00  -1.1545797595653484e-09 5.3078284804246569e-10 0.0000000000000000e+00  -1.2860572291214826e-09 4.1304451557250225e-10 0.0000000000000000e+00  -1.3834474035502631e-09 2.7920734858597537e-10 0.0000000000000000e+00  -1.4427542803113426e-09 1.3442501145132087e-10 0.0000000000000000e+00  -1.4615432078578737e-09 -1.5712360867147865e-11 0.0000000000000000e+00  -1.4390371402194139e-09 -1.6540017327140603e-10 0.0000000000000000e+00  -1.3761481277868348e-09 -3.0884727767847801e-10 0.0000000000000000e+00  -1.2754428200152568e-09 -4.4050403924126919e-10 0.0000000000000000e+00  -1.1410435831494216e-09 -5.5528450264999702e-10 0.0000000000000000e+00  -9.7847626731175715e-10 -6.4877478618190289e-10 0.0000000000000000e+00  -7.9452415821683816e-10 -7.1741358658218212e-10 0.0000000000000000e+00  -5.9740059917288051e-10 -7.5859883708853109e-10 0.0000000000000000e+00  -3.9884146034642953e-10 -7.7042832076900237e-10 0.0000000000000000e+00  -2.2566875156529168e-10 -7.4807861364995521e-10 0.0000000000000000e+00  -1.6459038837175173e-10 -6.3524421025256637e-10 0.0000000000000000e+00  -2.0039948763541163e-10 9.8551000244710511e-10 0.0000000000000000e+00  -2.5732957285899131e-10 9.6408317411419753e-10 0.0000000000000000e+00  -4.4148162463694811e-10 9.7459555075420959e-10 0.0000000000000000e+00  -6.5197548310462937e-10 9.5391983985044808e-10 0.0000000000000000e+00  -8.6007197485825290e-10 8.9714587073595195e-10 0.0000000000000000e+00  -1.0535424457672676e-09 8.0551694173447640e-10 0.0000000000000000e+00  -1.2237446007313203e-09 6.8231989990307537e-10 0.0000000000000000e+00  -1.3635029853497312e-09 5.3226370416566970e-10 0.0000000000000000e+00  -1.4669883900868800e-09 3.6118504775753610e-10 0.0000000000000000e+00  -1.5298935565927456e-09 1.7577684980604315e-10 0.0000000000000000e+00  -1.5495980765232191e-09 -1.6693589236254409e-11 0.0000000000000000e+00  -1.5252716413354754e-09 -2.0867632055245268e-10 0.0000000000000000e+00  -1.4579079623211585e-09 -3.9263577018584968e-10 0.0000000000000000e+00  -1.3502886329216640e-09 -5.6134821845640401e-10 0.0000000000000000e+00  -1.2068781949751093e-09 -7.0819443629533673e-10 0.0000000000000000e+00  -1.0336611257175478e-09 -8.2744023552921268e-10 0.0000000000000000e+00  -8.3798455445874074e-10 -9.1449116377191589e-10 0.0000000000000000e+00  -6.2874824866510698e-10 -9.6607347278279968e-10 0.0000000000000000e+00  -4.1868585264248756e-10 -9.8002985732353364e-10 0.0000000000000000e+00  -2.3688915784488930e-10 -9.5156659247729878e-10 0.0000000000000000e+00  -1.7685922724151872e-10 -8.2239901908503531e-10 0.0000000000000000e+00  -2.2090164738461219e-10 1.1908597728720075e-09 0.0000000000000000e+00  -2.7556070641194376e-10 1.1805252191508909e-09 0.0000000000000000e+00  -4.7070456370181076e-10 1.1974428184808320e-09 0.0000000000000000e+00  -6.9537550291182697e-10 1.1746175254434348e-09 0.0000000000000000e+00  -9.1803659434012214e-10 1.1067398846627058e-09 0.0000000000000000e+00  -1.1253020693799044e-09 9.9532759431700178e-10 0.0000000000000000e+00  -1.3077472516649176e-09 8.4442261051183818e-10 0.0000000000000000e+00  -1.4575720059822510e-09 6.5987655480308527e-10 0.0000000000000000e+00  -1.5684568412950687e-09 4.4897231915930904e-10 0.0000000000000000e+00  -1.6357427280842687e-09 2.2007174926599460e-10 0.0000000000000000e+00  -1.6566018754781605e-09 -1.7742969712601347e-11 0.0000000000000000e+00  -1.6301443517277039e-09 -2.5503481386065827e-10 0.0000000000000000e+00  -1.5574534586305346e-09 -4.8238119558955726e-10 0.0000000000000000e+00  -1.4415494608127059e-09 -6.9074408962040584e-10 0.0000000000000000e+00  -1.2872823757696459e-09 -8.7183745753804633e-10 0.0000000000000000e+00  -1.1011642340572001e-09 -1.0184856637348296e-09 0.0000000000000000e+00  -8.9120993211691221e-10 -1.1249582324948162e-09 0.0000000000000000e+00  -6.6716264492797076e-10 -1.1872274062701308e-09 0.0000000000000000e+00  -4.4301675480635692e-10 -1.2028113951934970e-09 0.0000000000000000e+00  -2.5071973186136227e-10 -1.1668546145712400e-09 0.0000000000000000e+00  -1.9228386068601628e-10 -1.0185672277317550e-09 0.0000000000000000e+00  -2.4522095970096603e-10 1.4077075876756282e-09 0.0000000000000000e+00  -2.9645330908361629e-10 1.4107687042893607e-09 0.0000000000000000e+00  -5.0408992788138527e-10 1.4357252637285374e-09 0.0000000000000000e+00  -7.4517884421733776e-10 1.4113720188981733e-09 0.0000000000000000e+00  -9.8480174949033814e-10 1.3320304909714553e-09 0.0000000000000000e+00  -1.2081574745750330e-09 1.1996034338533026e-09 0.0000000000000000e+00  -1.4048770995806930e-09 1.0190102843033244e-09 0.0000000000000000e+00  -1.5664275336553133e-09 7.9738188244992657e-10 0.0000000000000000e+00  -1.6859286029845880e-09 5.4359360749387160e-10 0.0000000000000000e+00  -1.7583273116576698e-09 2.6782831396232874e-10 0.0000000000000000e+00  -1.7805663705608669e-09 -1.8862243305520082e-11 0.0000000000000000e+00  -1.7516891373096615e-09 -3.0499794064027973e-10 0.0000000000000000e+00  -1.6728749835033203e-09 -5.7911190540395850e-10 0.0000000000000000e+00  -1.5474051259386881e-09 -8.3019358080115227e-10 0.0000000000000000e+00  -1.3805586627372230e-09 -1.0481327623485749e-09 0.0000000000000000e+00  -1.1794481006804494e-09 -1.2241598978703652e-09 0.0000000000000000e+00  -9.5286831334689658e-10 -1.3512666214444458e-09 0.0000000000000000e+00  -7.1157275514472634e-10 -1.4245457180759499e-09 0.0000000000000000e+00  -4.7108606429223575e-10 -1.4410860551935548e-09 0.0000000000000000e+00  -2.6680966500701577e-10 -1.3958757389621933e-09 0.0000000000000000e+00  -2.1107386316131789e-10 -1.2252041990632826e-09 0.0000000000000000e+00  -2.7362993495128980e-10 1.6368599849785552e-09 0.0000000000000000e+00  -3.1961433597784921e-10 1.6564354521429517e-09 0.0000000000000000e+00  -5.4076622476905109e-10 1.6914925675254303e-09 0.0000000000000000e+00  -8.0009410729231524e-10 1.6664267377904254e-09 0.0000000000000000e+00  -1.0586873107794054e-09 1.5752607615438632e-09 0.0000000000000000e+00  -1.3000748098973429e-09 1.4204186869279624e-09 0.0000000000000000e+00  -1.5127907674425697e-09 1.2078635115623311e-09 0.0000000000000000e+00  -1.6874704947539063e-09 9.4618191860353819e-10 0.0000000000000000e+00  -1.8166132920265375e-09 6.4602041692850263e-10 0.0000000000000000e+00  -1.8947394763539952e-09 3.1955792110841884e-10 0.0000000000000000e+00  -1.9185464688785957e-09 -2.0014011554917629e-11 0.0000000000000000e+00  -1.8870052061229168e-09 -3.5900441661294307e-10 0.0000000000000000e+00  -1.8013934980638072e-09 -6.8373263941776571e-10 0.0000000000000000e+00  -1.6652672382904761e-09 -9.8104042762711951e-10 0.0000000000000000e+00  -1.4843675145917205e-09 -1.2388112426351327e-09 0.0000000000000000e+00  -1.2664701352661399e-09 -1.4464952573737132e-09 0.0000000000000000e+00  -1.0212546921798407e-09 -1.5956231753552793e-09 0.0000000000000000e+00  -7.6064774370025538e-10 -1.6802405209771596e-09 0.0000000000000000e+00  -5.0197563558733251e-10 -1.6968701511386865e-09 0.0000000000000000e+00  -2.8471841590962880e-10 -1.6402502463148360e-09 0.0000000000000000e+00  -2.3344951135643325e-10 -1.4434910403442836e-09 0.0000000000000000e+00  -3.0642831446005314e-10 1.8784746495309223e-09 0.0000000000000000e+00  -3.4451802366343635e-10 1.9186204075629796e-09 0.0000000000000000e+00  -5.7958610838028741e-10 1.9663095798070384e-09 0.0000000000000000e+00  -8.5840746724933416e-10 1.9415729274238369e-09 0.0000000000000000e+00  -1.1374341552770452e-09 1.8382489582963546e-09 0.0000000000000000e+00  -1.3982747630913672e-09 1.6594620562487449e-09 0.0000000000000000e+00  -1.6282327406846207e-09 1.4124307945626220e-09 0.0000000000000000e+00  -1.8170381844031001e-09 1.1074169517094921e-09 0.0000000000000000e+00  -1.9565361808572390e-09 7.5704863882309283e-10 0.0000000000000000e+00  -2.0408101679206059e-09 3.7569526147870827e-10 0.0000000000000000e+00  -2.0663111440178228e-09 -2.1132540758600346e-11 0.0000000000000000e+00  -2.0319358112157695e-09 -4.1736164423664871e-10 0.0000000000000000e+00  -1.9390551482008588e-09 -7.9692380897628581e-10 0.0000000000000000e+00  -1.7914958571961700e-09 -1.1443268545338056e-09 0.0000000000000000e+00  -1.5954699838661566e-09 -1.4452435081791358e-09 0.0000000000000000e+00  -1.3594539569154356e-09 -1.6871224662559964e-09 0.0000000000000000e+00  -1.0940946713721998e-09 -1.8598055295983758e-09 0.0000000000000000e+00  -8.1264046524054661e-10 -1.9560751142366914e-09 0.0000000000000000e+00  -5.3449155636200425e-10 -1.9717117585781113e-09 0.0000000000000000e+00  -3.0386786136156600e-10 -1.9011027758078966e-09 0.0000000000000000e+00  -2.5965040990854711e-10 -1.6741119868819149e-09 0.0000000000000000e+00  -3.4394184565122658e-10 2.1318687262430378e-09 0.0000000000000000e+00  -3.7045251042342074e-10 2.1977232215476785e-09 0.0000000000000000e+00  -6.1901477916961221e-10 2.2610851628469576e-09 0.0000000000000000e+00  -9.1781067941074619e-10 2.2379628512788287e-09 0.0000000000000000e+00  -1.2179714446658389e-09 2.1221921800617969e-09 0.0000000000000000e+00  -1.4989427493156524e-09 1.9178364170842163e-09 0.0000000000000000e+00  -1.7466941534766014e-09 1.6336391819611764e-09 0.0000000000000000e+00  -1.9500191087976043e-09 1.2818039667064778e-09 0.0000000000000000e+00  -2.1001193743224251e-09 8.7718136936995345e-10 0.0000000000000000e+00  -2.1906697042869166e-09 4.3653756363003374e-10 0.0000000000000000e+00  -2.2178985437066469e-09 -2.2121783264820379e-11 0.0000000000000000e+00  -2.1806335283512114e-09 -4.8018141894459582e-10 0.0000000000000000e+00  -2.0803212364016364e-09 -9.1902200097926554e-10 0.0000000000000000e+00  -1.9210261046622893e-09 -1.3206315162691617e-09 0.0000000000000000e+00  -1.7093995940973223e-09 -1.6682512993028812e-09 0.0000000000000000e+00  -1.4546120681597780e-09 -1.9470719512749130e-09 0.0000000000000000e+00  -1.1683214673020422e-09 -2.1449664568990023e-09 0.0000000000000000e+00  -8.6522139232397657e-10 -2.2531778410253187e-09 0.0000000000000000e+00  -5.6705627616532642e-10 -2.2665124714753807e-09 0.0000000000000000e+00  -3.2349084996998368e-10 -2.1788854778350481e-09 0.0000000000000000e+00  -2.8993637810428659e-10 -1.9170819958847946e-09 0.0000000000000000e+00  -3.8652262027374055e-10 2.3952730187307881e-09 0.0000000000000000e+00  -3.9646300954664910e-10 2.4932235526874421e-09 0.0000000000000000e+00  -6.5700914793283556e-10 2.5758414625335148e-09 0.0000000000000000e+00  -9.7520855679943615e-10 2.5558656330345881e-09 0.0000000000000000e+00  -1.2961467643391055e-09 2.4274109355859600e-09 0.0000000000000000e+00  -1.5968801411165989e-09 2.1958025135548141e-09 0.0000000000000000e+00  -1.8619888017262812e-09 1.8716542110794163e-09 0.0000000000000000e+00  -2.0793630521108494e-09 1.4694336289193045e-09 0.0000000000000000e+00  -2.2396407579463082e-09 1.0064829571137003e-09 0.0000000000000000e+00  -2.3361751243690202e-09 5.0217111391141577e-10 0.0000000000000000e+00  -2.3650343017143361e-09 -2.2848319881404479e-11 0.0000000000000000e+00  -2.3249929073943167e-09 -5.4729299233685933e-10 0.0000000000000000e+00  -2.2175369954741839e-09 -1.0498624415096894e-09 0.0000000000000000e+00  -2.0468910900605304e-09 -1.5098576770378604e-09 0.0000000000000000e+00  -1.8200521990686221e-09 -1.9078617930035925e-09 0.0000000000000000e+00  -1.5468096773767644e-09 -2.2265148472049334e-09 0.0000000000000000e+00  -1.2398154670034359e-09 -2.4513780874862972e-09 0.0000000000000000e+00  -9.1529156446179358e-10 -2.5717986634909048e-09 0.0000000000000000e+00  -5.9758978847242509e-10 -2.5812971805674339e-09 0.0000000000000000e+00  -3.4257414984544608e-10 -2.4731566774793924e-09 0.0000000000000000e+00  -3.2458667010103155e-10 -2.1715429776331974e-09 0.0000000000000000e+00  -4.3455211511392384e-10 2.6655239265555451e-09 0.0000000000000000e+00  -4.2128791898547636e-10 2.8033920040086889e-09 0.0000000000000000e+00  -6.9087915062473833e-10 2.9094101385698593e-09 0.0000000000000000e+00  -1.0264934532488084e-09 2.8943420623946323e-09 0.0000000000000000e+00  -1.3664028185849443e-09 2.7530070250503195e-09 0.0000000000000000e+00  -1.6850773359626539e-09 2.4924354217945989e-09 0.0000000000000000e+00  -1.9657246833389429e-09 2.1255587230352734e-09 0.0000000000000000e+00  -2.1954622517460481e-09 1.6694992752877570e-09 0.0000000000000000e+00  -2.3645446097507579e-09 1.1443846681064153e-09 0.0000000000000000e+00  -2.4661769814413743e-09 5.7237393961650225e-10 0.0000000000000000e+00  -2.4963855743436840e-09 -2.3131005259506495e-11 0.0000000000000000e+00  -2.4539239818675229e-09 -6.1812589857765027e-10 0.0000000000000000e+00  -2.3402546639349103e-09 -1.1885672987060475e-09 0.0000000000000000e+00  -2.1596194216112440e-09 -1.7109487453455657e-09 0.0000000000000000e+00  -1.9191751566400498e-09 -2.1629778059436261e-09 0.0000000000000000e+00  -1.6291538473940292e-09 -2.5244158705187757e-09 0.0000000000000000e+00  -1.3030930133948237e-09 -2.7780905499594492e-09 0.0000000000000000e+00  -9.5876389347121657e-10 -2.9109874069139193e-09 0.0000000000000000e+00  -6.2337274435164562e-10 -2.9149148848222322e-09 0.0000000000000000e+00  -3.5979298865369488e-10 -2.7822993305493740e-09 0.0000000000000000e+00  -3.6389954713836388e-10 -2.4355085115062365e-09 0.0000000000000000e+00  -4.8844921990863123e-10 2.9376827760195797e-09 0.0000000000000000e+00  -4.4328617991020269e-10 3.1249260158461450e-09 0.0000000000000000e+00  -7.1712565810814290e-10 3.2590413509539621e-09 0.0000000000000000e+00  -1.0662764831393963e-09 3.2508178619790227e-09 0.0000000000000000e+00  -1.4213849574185141e-09 3.0964088464127109e-09 0.0000000000000000e+00  -1.7541