<?xml version="1.0"?>
<VTKFile type="UnstructuredGrid"  version="0.1"  >
<UnstructuredGrid>
<Piece  NumberOfPoints="651" NumberOfCells="1200">
<Points>
<DataArray  type="Float64"  NumberOfComponents="3"  format="ascii">0 0 0  50000 0 0  100000 0 0  150000 0 0  200000 0 0  250000 0 0  300000 0 0  350000 0 0  400000 0 0  450000 0 0  500000 0 0  550000 0 0  600000 0 0  650000 0 0  700000 0 0  750000 0 0  800000 0 0  850000 0 0  900000 0 0  950000 0 0  1000000 0 0  0 50000 0  50000 50000 0  100000 50000 0  150000 50000 0  200000 50000 0  250000 50000 0  300000 50000 0  350000 50000 0  400000 50000 0  450000 50000 0  500000 50000 0  550000 50000 0  600000 50000 0  650000 50000 0  700000 50000 0  750000 50000 0  800000 50000 0  850000 50000 0  900000 50000 0  950000 50000 0  1000000 50000 0  0 100000 0  50000 100000 0  100000 100000 0  150000 100000 0  200000 100000 0  250000 100000 0  300000 100000 0  350000 100000 0  400000 100000 0  450000 100000 0  500000 100000 0  550000 100000 0  600000 100000 0  650000 100000 0  700000 100000 0  750000 100000 0  800000 100000 0  850000 100000 0  900000 100000 0  950000 100000 0  1000000 100000 0  0 150000 0  50000 150000 0  100000 150000 0  150000 150000 0  200000 150000 0  250000 150000 0  300000 150000 0  350000 150000 0  400000 150000 0  450000 150000 0  500000 150000 0  550000 150000 0  600000 150000 0  650000 150000 0  700000 150000 0  750000 150000 0  800000 150000 0  850000 150000 0  900000 150000 0  950000 150000 0  1000000 150000 0  0 200000 0  50000 200000 0  100000 200000 0  150000 200000 0  200000 200000 0  250000 200000 0  300000 200000 0  350000 200000 0  400000 200000 0  450000 200000 0  500000 200000 0  550000 200000 0  600000 200000 0  650000 200000 0  700000 200000 0  750000 200000 0  800000 200000 0  850000 200000 0  900000 200000 0  950000 200000 0  1000000 200000 0  0 250000 0  50000 250000 0  100000 250000 0  150000 250000 0  200000 250000 0  250000 250000 0  300000 250000 0  350000 250000 0  400000 250000 0  450000 250000 0  500000 250000 0  550000 250000 0  600000 250000 0  650000 250000 0  700000 250000 0  750000 250000 0  800000 250000 0  850000 250000 0  900000 250000 0  950000 250000 0  1000000 250000 0  0 300000 0  50000 300000 0  100000 300000 0  150000 300000 0  200000 300000 0  250000 300000 0  300000 300000 0  350000 300000 0  400000 300000 0  450000 300000 0  500000 300000 0  550000 300000 0  600000 300000 0  650000 300000 0  700000 300000 0  750000 300000 0  800000 300000 0  850000 300000 0  900000 300000 0  950000 300000 0  1000000 300000 0  0 350000 0  50000 350000 0  100000 350000 0  150000 350000 0  200000 350000 0  250000 350000 0  300000 350000 0  350000 350000 0  400000 350000 0  450000 350000 0  500000 350000 0  550000 350000 0  600000 350000 0  650000 350000 0  700000 350000 0  750000 350000 0  800000 350000 0  850000 350000 0  900000 350000 0  950000 350000 0  1000000 350000 0  0 400000 0  50000 400000 0  100000 400000 0  150000 400000 0  200000 400000 0  250000 400000 0  300000 400000 0  350000 400000 0  400000 400000 0  450000 400000 0  500000 400000 0  550000 400000 0  600000 400000 0  650000 400000 0  700000 400000 0  750000 400000 0  800000 400000 0  850000 400000 0  900000 400000 0  950000 400000 0  1000000 400000 0  0 450000 0  50000 450000 0  100000 450000 0  150000 450000 0  200000 450000 0  250000 450000 0  300000 450000 0  350000 450000 0  400000 450000 0  450000 450000 0  500000 450000 0  550000 450000 0  600000 450000 0  650000 450000 0  700000 450000 0  750000 450000 0  800000 450000 0  850000 450000 0  900000 450000 0  950000 450000 0  1000000 450000 0  0 500000 0  50000 500000 0  100000 500000 0  150000 500000 0  200000 500000 0  250000 500000 0  300000 500000 0  350000 500000 0  400000 500000 0  450000 500000 0  500000 500000 0  550000 500000 0  600000 500000 0  650000 500000 0  700000 500000 0  750000 500000 0  800000 500000 0  850000 500000 0  900000 500000 0  950000 500000 0  1000000 500000 0  0 550000 0  50000 550000 0  100000 550000 0  150000 550000 0  200000 550000 0  250000 550000 0  300000 550000 0  350000 550000 0  400000 550000 0  450000 550000 0  500000 550000 0  550000 550000 0  600000 550000 0  650000 550000 0  700000 550000 0  750000 550000 0  800000 550000 0  850000 550000 0  900000 550000 0  950000 550000 0  1000000 550000 0  0 600000 0  50000 600000 0  100000 600000 0  150000 600000 0  200000 600000 0  250000 600000 0  300000 600000 0  350000 600000 0  400000 600000 0  450000 600000 0  500000 600000 0  550000 600000 0  600000 600000 0  650000 600000 0  700000 600000 0  750000 600000 0  800000 600000 0  850000 600000 0  900000 600000 0  950000 600000 0  1000000 600000 0  0 650000 0  50000 650000 0  100000 650000 0  150000 650000 0  200000 650000 0  250000 650000 0  300000 650000 0  350000 650000 0  400000 650000 0  450000 650000 0  500000 650000 0  550000 650000 0  600000 650000 0  650000 650000 0  700000 650000 0  750000 650000 0  800000 650000 0  850000 650000 0  900000 650000 0  950000 650000 0  1000000 650000 0  0 700000 0  50000 700000 0  100000 700000 0  150000 700000 0  200000 700000 0  250000 700000 0  300000 700000 0  350000 700000 0  400000 700000 0  450000 700000 0  500000 700000 0  550000 700000 0  600000 700000 0  650000 700000 0  700000 700000 0  750000 700000 0  800000 700000 0  850000 700000 0  900000 700000 0  950000 700000 0  1000000 700000 0  0 750000 0  50000 750000 0  100000 750000 0  150000 750000 0  200000 750000 0  250000 750000 0  300000 750000 0  350000 750000 0  400000 750000 0  450000 750000 0  500000 750000 0  550000 750000 0  600000 750000 0  650000 750000 0  700000 750000 0  750000 750000 0  800000 750000 0  850000 750000 0  900000 750000 0  950000 750000 0  1000000 750000 0  0 800000 0  50000 800000 0  100000 800000 0  150000 800000 0  200000 800000 0  250000 800000 0  300000 800000 0  350000 800000 0  400000 800000 0  450000 800000 0  500000 800000 0  550000 800000 0  600000 800000 0  650000 800000 0  700000 800000 0  750000 800000 0  800000 800000 0  850000 800000 0  900000 800000 0  950000 800000 0  1000000 800000 0  0 850000 0  50000 850000 0  100000 850000 0  150000 850000 0  200000 850000 0  250000 850000 0  300000 850000 0  350000 850000 0  400000 850000 0  450000 850000 0  500000 850000 0  550000 850000 0  600000 850000 0  650000 850000 0  700000 850000 0  750000 850000 0  800000 850000 0  850000 850000 0  900000 850000 0  950000 850000 0  1000000 850000 0  0 900000 0  50000 900000 0  100000 900000 0  150000 900000 0  200000 900000 0  250000 900000 0  300000 900000 0  350000 900000 0  400000 900000 0  450000 900000 0  500000 900000 0  550000 900000 0  600000 900000 0  650000 900000 0  700000 900000 0  750000 900000 0  800000 900000 0  850000 900000 0  900000 900000 0  950000 900000 0  1000000 900000 0  0 950000 0  50000 950000 0  100000 950000 0  150000 950000 0  200000 950000 0  250000 950000 0  300000 950000 0  350000 950000 0  400000 950000 0  450000 950000 0  500000 950000 0  550000 950000 0  600000 950000 0  650000 950000 0  700000 950000 0  750000 950000 0  800000 950000 0  850000 950000 0  900000 950000 0  950000 950000 0  1000000 950000 0  0 1000000 0  50000 1000000 0  100000 1000000 0  150000 1000000 0  200000 1000000 0  250000 1000000 0  300000 1000000 0  350000 1000000 0  400000 1000000 0  450000 1000000 0  500000 1000000 0  550000 1000000 0  600000 1000000 0  650000 1000000 0  700000 1000000 0  750000 1000000 0  800000 1000000 0  850000 1000000 0  900000 1000000 0  950000 1000000 0  1000000 1000000 0  0 1050000 0  50000 1050000 0  100000 1050000 0  150000 1050000 0  200000 1050000 0  250000 1050000 0  300000 1050000 0  350000 1050000 0  400000 1050000 0  450000 1050000 0  500000 1050000 0  550000 1050000 0  600000 1050000 0  650000 1050000 0  700000 1050000 0  750000 1050000 0  800000 1050000 0  850000 1050000 0  900000 1050000 0  950000 1050000 0  1000000 1050000 0  0 1100000 0  50000 1100000 0  100000 1100000 0  150000 1100000 0  200000 1100000 0  250000 1100000 0  300000 1100000 0  350000 1100000 0  400000 1100000 0  450000 1100000 0  500000 1100000 0  550000 1100000 0  600000 1100000 0  650000 1100000 0  700000 1100000 0  750000 1100000 0  800000 1100000 0  850000 1100000 0  900000 1100000 0  950000 1100000 0  1000000 1100000 0  0 1150000 0  50000 1150000 0  100000 1150000 0  150000 1150000 0  200000 1150000 0  250000 1150000 0  300000 1150000 0  350000 1150000 0  400000 1150000 0  450000 1150000 0  500000 1150000 0  550000 1150000 0  600000 1150000 0  650000 1150000 0  700000 1150000 0  750000 1150000 0  800000 1150000 0  850000 1150000 0  900000 1150000 0  950000 1150000 0  1000000 1150000 0  0 1200000 0  50000 1200000 0  100000 1200000 0  150000 1200000 0  200000 1200000 0  250000 1200000 0  300000 1200000 0  350000 1200000 0  400000 1200000 0  450000 1200000 0  500000 1200000 0  550000 1200000 0  600000 1200000 0  650000 1200000 0  700000 1200000 0  750000 1200000 0  800000 1200000 0  850000 1200000 0  900000 1200000 0  950000 1200000 0  1000000 1200000 0  0 1250000 0  50000 1250000 0  100000 1250000 0  150000 1250000 0  200000 1250000 0  250000 1250000 0  300000 1250000 0  350000 1250000 0  400000 1250000 0  450000 1250000 0  500000 1250000 0  550000 1250000 0  600000 1250000 0  650000 1250000 0  700000 1250000 0  750000 1250000 0  800000 1250000 0  850000 1250000 0  900000 1250000 0  950000 1250000 0  1000000 1250000 0  0 1300000 0  50000 1300000 0  100000 1300000 0  150000 1300000 0  200000 1300000 0  250000 1300000 0  300000 1300000 0  350000 1300000 0  400000 1300000 0  450000 1300000 0  500000 1300000 0  550000 1300000 0  600000 1300000 0  650000 1300000 0  700000 1300000 0  750000 1300000 0  800000 1300000 0  850000 1300000 0  900000 1300000 0  950000 1300000 0  1000000 1300000 0  0 1350000 0  50000 1350000 0  100000 1350000 0  150000 1350000 0  200000 1350000 0  250000 1350000 0  300000 1350000 0  350000 1350000 0  400000 1350000 0  450000 1350000 0  500000 1350000 0  550000 1350000 0  600000 1350000 0  650000 1350000 0  700000 135
[...]
<PointData  Vectors="f_4485"> 
<DataArray  type="Float64"  Name="f_4485"  NumberOfComponents="3" format="ascii">-2.3769525578837594e-10 2.4829049211133218e-10 0.0000000000000000e+00  -4.4285258568471050e-10 2.0986170089323477e-10 0.0000000000000000e+00  -8.0642951777493731e-10 1.9527345235863818e-10 0.0000000000000000e+00  -1.1573967548681535e-09 1.8217263729379320e-10 0.0000000000000000e+00  -1.4787320477302724e-09 1.6612861428814212e-10 0.0000000000000000e+00  -1.7610854947377123e-09 1.4686462069603785e-10 0.0000000000000000e+00  -1.9968276484161324e-09 1.2468518333593741e-10 0.0000000000000000e+00  -2.1797719040663789e-09 1.0007871353113736e-10 0.0000000000000000e+00  -2.3051772440986756e-09 7.3641188102219508e-11 0.0000000000000000e+00  -2.3698358551038480e-09 4.6032352650165812e-11 0.0000000000000000e+00  -2.3721433586670825e-09 1.7945231101409054e-11 0.0000000000000000e+00  -2.3121325550150835e-09 -9.9183855086984600e-12 0.0000000000000000e+00  -2.1914673598673540e-09 -3.6870491452404687e-11 0.0000000000000000e+00  -2.0133972047370281e-09 -6.2259920792214530e-11 0.0000000000000000e+00  -1.7826803845178361e-09 -8.5499440465430751e-11 0.0000000000000000e+00  -1.5055269932134282e-09 -1.0610792195874093e-10 0.0000000000000000e+00  -1.1898244078723510e-09 -1.2380676187270258e-10 0.0000000000000000e+00  -8.4684311997223650e-10 -1.3877840694939302e-10 0.0000000000000000e+00  -4.9925181704118637e-10 -1.5141841560505956e-10 0.0000000000000000e+00  -2.1508760026398413e-10 -1.4818118413442394e-10 0.0000000000000000e+00  -9.5820468504532466e-11 -8.6815493341898259e-11 0.0000000000000000e+00  -2.0020816712446603e-10 4.3841805361015867e-10 0.0000000000000000e+00  -3.7508068751180720e-10 3.7778448486450511e-10 0.0000000000000000e+00  -6.6874901649335626e-10 3.8084654404209398e-10 0.0000000000000000e+00  -9.8636716094625361e-10 3.6240494497894475e-10 0.0000000000000000e+00  -1.2879985316302828e-09 3.3045678438053459e-10 0.0000000000000000e+00  -1.5593776808970785e-09 2.8840495228332448e-10 0.0000000000000000e+00  -1.7916411387404888e-09 2.3827355024964956e-10 0.0000000000000000e+00  -1.9779938957850562e-09 1.8176198261915086e-10 0.0000000000000000e+00  -2.1132416210354794e-09 1.2053275890647546e-10 0.0000000000000000e+00  -2.1937229860319559e-09 5.6284948681528697e-11 0.0000000000000000e+00  -2.2173219078867413e-09 -9.2434697830823776e-12 0.0000000000000000e+00  -2.1834863822015903e-09 -7.4298309641456003e-11 0.0000000000000000e+00  -2.0932320634254061e-09 -1.3713947423558078e-10 0.0000000000000000e+00  -1.9491267719323772e-09 -1.9607011519862460e-10 0.0000000000000000e+00  -1.7552657592570758e-09 -2.4945570865724873e-10 0.0000000000000000e+00  -1.5172774339592087e-09 -2.9571532769677676e-10 0.0000000000000000e+00  -1.2424996459439808e-09 -3.3323162420073378e-10 0.0000000000000000e+00  -9.4085999387087290e-10 -3.5993741357050934e-10 0.0000000000000000e+00  -6.2870722304575410e-10 -3.7108306680270721e-10 0.0000000000000000e+00  -3.4607905801782158e-10 -3.4844448252159567e-10 0.0000000000000000e+00  -1.6399925920377250e-10 -1.9639402337513076e-10 0.0000000000000000e+00  -1.9409503376168084e-10 7.7671729750193239e-10 0.0000000000000000e+00  -3.8373466265151035e-10 6.6187953896675413e-10 0.0000000000000000e+00  -6.6712466735184691e-10 6.5541685474468827e-10 0.0000000000000000e+00  -9.6254585197164069e-10 6.2460271330157030e-10 0.0000000000000000e+00  -1.2424011667777723e-09 5.7097323626152052e-10 0.0000000000000000e+00  -1.4945301637651399e-09 4.9893266121731333e-10 0.0000000000000000e+00  -1.7104683352701873e-09 4.1211321538394502e-10 0.0000000000000000e+00  -1.8837079219497062e-09 3.1367624987283271e-10 0.0000000000000000e+00  -2.0092780275406994e-09 2.0667267367014392e-10 0.0000000000000000e+00  -2.0836896344907715e-09 9.4176857828028220e-11 0.0000000000000000e+00  -2.1049446290191997e-09 -2.0690119620484129e-11 0.0000000000000000e+00  -2.0725489206622420e-09 -1.3478370624439894e-10 0.0000000000000000e+00  -1.9875158917714295e-09 -2.4497478485245424e-10 0.0000000000000000e+00  -1.8523581706749739e-09 -3.4818509657108164e-10 0.0000000000000000e+00  -1.6710761895865230e-09 -4.4139831483357693e-10 0.0000000000000000e+00  -1.4491736576907395e-09 -5.2160871087936750e-10 0.0000000000000000e+00  -1.1937993234199745e-09 -5.8561833520278903e-10 0.0000000000000000e+00  -9.1438332245343962e-10 -6.2945415160879496e-10 0.0000000000000000e+00  -6.2515274378781374e-10 -6.4678543772016641e-10 0.0000000000000000e+00  -3.5769842536896193e-10 -6.2721360964355185e-10 0.0000000000000000e+00  -1.7702483577974140e-10 -4.5267238672423976e-10 0.0000000000000000e+00  -1.9924656703160766e-10 1.1101711407400868e-09 0.0000000000000000e+00  -3.8119801291256049e-10 9.8073971906270517e-10 0.0000000000000000e+00  -6.6042238188516016e-10 9.5357761713762697e-10 0.0000000000000000e+00  -9.4819784641558552e-10 9.0376323082098772e-10 0.0000000000000000e+00  -1.2176274542450697e-09 8.2558505501212692e-10 0.0000000000000000e+00  -1.4586399321027489e-09 7.2204008696307505e-10 0.0000000000000000e+00  -1.6642504115136556e-09 5.9729873168421740e-10 0.0000000000000000e+00  -1.8287042902779974e-09 4.5565491996153493e-10 0.0000000000000000e+00  -1.9474603569321287e-09 3.0147316050392976e-10 0.0000000000000000e+00  -2.0172971817204326e-09 1.3921397579018982e-10 0.0000000000000000e+00  -2.0363841333778594e-09 -2.6578047446062949e-11 0.0000000000000000e+00  -2.0043184556952323e-09 -1.9131735543814213e-10 0.0000000000000000e+00  -1.9221364716717146e-09 -3.5043291620914740e-10 0.0000000000000000e+00  -1.7923037889139065e-09 -4.9941855979709489e-10 0.0000000000000000e+00  -1.6186881808481685e-09 -6.3385858280607561e-10 0.0000000000000000e+00  -1.4065249235235080e-09 -7.4940183213896830e-10 0.0000000000000000e+00  -1.1624231671364449e-09 -8.4165118434067542e-10 0.0000000000000000e+00  -8.9467270348049085e-10 -9.0597121774025049e-10 0.0000000000000000e+00  -6.1516997812657113e-10 -9.3732960493162639e-10 0.0000000000000000e+00  -3.5305223508257084e-10 -9.3108682632741846e-10 0.0000000000000000e+00  -1.8089775960206839e-10 -7.6503189354289680e-10 0.0000000000000000e+00  -2.1055352473699660e-10 1.4368451789588626e-09 0.0000000000000000e+00  -3.8097547572429761e-10 1.3004062251753423e-09 0.0000000000000000e+00  -6.5682754944592179e-10 1.2549073835479612e-09 0.0000000000000000e+00  -9.4201044629648459e-10 1.1832879567941982e-09 0.0000000000000000e+00  -1.2077948779845327e-09 1.0785796724004523e-09 0.0000000000000000e+00  -1.4441499872324212e-09 9.4278687250182299e-10 0.0000000000000000e+00  -1.6447800284850922e-09 7.8017989438204111e-10 0.0000000000000000e+00  -1.8045866920829789e-09 5.9583679919518076e-10 0.0000000000000000e+00  -1.9194840037331018e-09 3.9523972034054340e-10 0.0000000000000000e+00  -1.9865464482545203e-09 1.8412639010751671e-10 0.0000000000000000e+00  -2.0041279341870450e-09 -3.1603961001870603e-11 0.0000000000000000e+00  -1.9719242525852555e-09 -2.4597838186453963e-10 0.0000000000000000e+00  -1.8909928773963207e-09 -4.5303745130201442e-10 0.0000000000000000e+00  -1.7637379419455376e-09 -6.4691679709282048e-10 0.0000000000000000e+00  -1.5938608800788585e-09 -8.2191571756671231e-10 0.0000000000000000e+00  -1.3862784097840813e-09 -9.7255086152363900e-10 0.0000000000000000e+00  -1.1470560723548492e-09 -1.0936180226068802e-09 0.0000000000000000e+00  -8.8369113742975523e-10 -1.1803623870673969e-09 0.0000000000000000e+00  -6.0748125220670161e-10 -1.2288325244183288e-09 0.0000000000000000e+00  -3.4932903598772258e-10 -1.2363196513967280e-09 0.0000000000000000e+00  -1.9012534140494693e-10 -1.0805813541632908e-09 0.0000000000000000e+00  -2.2686145321610609e-10 1.7607346545695279e-09 0.0000000000000000e+00  -3.8516913820867102e-10 1.6184521158198406e-09 0.0000000000000000e+00  -6.5913562859349242e-10 1.5571892698898978e-09 0.0000000000000000e+00  -9.4462160551756898e-10 1.4633379785295824e-09 0.0000000000000000e+00  -1.2106849168799206e-09 1.3309455410094013e-09 0.0000000000000000e+00  -1.4466076995427653e-09 1.1620572594953078e-09 0.0000000000000000e+00  -1.6461424017011904e-09 9.6123828594254583e-10 0.0000000000000000e+00  -1.8044942714418997e-09 7.3426515060283454e-10 0.0000000000000000e+00  -1.9178903797027968e-09 4.8761607679671664e-10 0.0000000000000000e+00  -1.9836503442824717e-09 2.2820423455174459e-10 0.0000000000000000e+00  -2.0002940500634981e-09 -3.6798662485874687e-11 0.0000000000000000e+00  -1.9676078956415582e-09 -3.0010510679911201e-10 0.0000000000000000e+00  -1.8866664785705265e-09 -5.5444148576231890e-10 0.0000000000000000e+00  -1.7598136814134786e-09 -7.9267239079077723e-10 0.0000000000000000e+00  -1.5906033443561416e-09 -1.0079255868227803e-09 0.0000000000000000e+00  -1.3837075934415403e-09 -1.1937320673472360e-09 0.0000000000000000e+00  -1.1448733482727727e-09 -1.3442193263382324e-09 0.0000000000000000e+00  -8.8137342499066597e-10 -1.4544333555954243e-09 0.0000000000000000e+00  -6.0498799053247171e-10 -1.5206814316009478e-09 0.0000000000000000e+00  -3.4946167401745431e-10 -1.5404740585111293e-09 0.0000000000000000e+00  -2.0406072965645921e-10 -1.3915491893794670e-09 0.0000000000000000e+00  -2.4776396679097477e-10 2.0854952178776499e-09 0.0000000000000000e+00  -3.9365128503102575e-10 1.9374073956914030e-09 0.0000000000000000e+00  -6.6739884956992350e-10 1.8616529261659764e-09 0.0000000000000000e+00  -9.5531624896033655e-10 1.7458633134559538e-09 0.0000000000000000e+00  -1.2241099890534862e-09 1.5851836542882786e-09 0.0000000000000000e+00  -1.4622276421268727e-09 1.3823878380046256e-09 0.0000000000000000e+00  -1.6631846477568705e-09 1.1426786423489042e-09 0.0000000000000000e+00  -1.8222338353139941e-09 8.7262609322339440e-10 0.0000000000000000e+00  -1.9357566226171823e-09 5.7969005557608852e-10 0.0000000000000000e+00  -2.0012352915893055e-09 2.7190741754184781e-10 0.0000000000000000e+00  -2.0173166792829241e-09 -4.2339551581531072e-11 0.0000000000000000e+00  -1.9838610102562547e-09 -3.5451351775748603e-10 0.0000000000000000e+00  -1.9019576154691410e-09 -6.5609351233060462e-10 0.0000000000000000e+00  -1.7739057371981684e-09 -9.3874234972913385e-10 0.0000000000000000e+00  -1.6031614882413240e-09 -1.1944838554375722e-09 0.0000000000000000e+00  -1.3942692356782829e-09 -1.4159085994340400e-09 0.0000000000000000e+00  -1.1528889487186555e-09 -1.5964365392645500e-09 0.0000000000000000e+00  -8.8644484647626796e-10 -1.7306656925705242e-09 0.0000000000000000e+00  -6.0762789379866908e-10 -1.8146022545848752e-09 0.0000000000000000e+00  -3.5333319561884956e-10 -1.8453739120846003e-09 0.0000000000000000e+00  -2.2210134833092349e-10 -1.6997957718444511e-09 0.0000000000000000e+00  -2.7311595350237136e-10 2.4138917904849261e-09 0.0000000000000000e+00  -4.0566143060440721e-10 2.2598148711501122e-09 0.0000000000000000e+00  -6.8037972267396057e-10 2.1701267464079616e-09 0.0000000000000000e+00  -9.7217421035087461e-10 2.0325610948275927e-09 0.0000000000000000e+00  -1.2451497226947112e-09 1.8431600525994052e-09 0.0000000000000000e+00  -1.4869138526767318e-09 1.6056814994857772e-09 0.0000000000000000e+00  -1.6906724987918827e-09 1.3262304553264433e-09 0.0000000000000000e+00  -1.8516122761111514e-09 1.0123182418577921e-09 0.0000000000000000e+00  -1.9661713748500103e-09 6.7243624522680520e-10 0.0000000000000000e+00  -2.0319319279330594e-09 3.1573806217925554e-10 0.0000000000000000e+00  -2.0476329914312650e-09 -4.8219536983012780e-11 0.0000000000000000e+00  -2.0131919717664600e-09 -4.0969819461036646e-10 0.0000000000000000e+00  -1.9297101756698757e-09 -7.5898055042452912e-10 0.0000000000000000e+00  -1.7994573898982930e-09 -1.0865711079910673e-09 0.0000000000000000e+00  -1.6258371796314829e-09 -1.3834121119138143e-09 0.0000000000000000e+00  -1.4133577854636940e-09 -1.6411311322430857e-09 0.0000000000000000e+00  -1.1677391426502059e-09 -1.8523351840643564e-09 0.0000000000000000e+00  -8.9673562688549069e-10 -2.0109513151254458e-09 0.0000000000000000e+00  -6.1410069974455566e-10 -2.1123826210317554e-09 0.0000000000000000e+00  -3.6013393512249617e-10 -2.1531846488706499e-09 0.0000000000000000e+00  -2.4405360367013530e-10 -2.0083944255808393e-09 0.0000000000000000e+00  -3.0291260722726891e-10 2.7475479832539625e-09 0.0000000000000000e+00  -4.2017448925405980e-10 2.5874244907714420e-09 0.0000000000000000e+00  -6.9617946640978384e-10 2.4839175745822286e-09 0.0000000000000000e+00  -9.9242594018785247e-10 2.3244569579703425e-09 0.0000000000000000e+00  -1.2700731830551122e-09 2.1058339803268128e-09 0.0000000000000000e+00  -1.5158966904542053e-09 1.8328756447349181e-09 0.0000000000000000e+00  -1.7228167127735561e-09 1.5127545809466728e-09 0.0000000000000000e+00  -1.8859455729806783e-09 1.1540543327407459e-09 0.0000000000000000e+00  -2.0017571075296856e-09 7.6636603200938281e-10 0.0000000000000000e+00  -2.0679150572087385e-09 3.5997421435671131e-10 0.0000000000000000e+00  -2.0832381610330932e-09 -5.4411315119099441e-11 0.0000000000000000e+00  -2.0476917029503490e-09 -4.6589030279254254e-10 0.0000000000000000e+00  -1.9623823049591528e-09 -8.6358937103158077e-10 0.0000000000000000e+00  -1.8295505208546159e-09 -1.2368805985958964e-09 0.0000000000000000e+00  -1.6525625673518326e-09 -1.5756196975441160e-09 0.0000000000000000e+00  -1.4359277150299792e-09 -1.8704182392365452e-09 0.0000000000000000e+00  -1.1854819732272855e-09 -2.1129560113948010e-09 0.0000000000000000e+00  -9.0936693903622380e-10 -2.2963214489457614e-09 0.0000000000000000e+00  -6.2246144510400955e-10 -2.4151518217011963e-09 0.0000000000000000e+00  -3.6878362391773370e-10 -2.4653791521029274e-09 0.0000000000000000e+00  -2.6988956362980423e-10 -2.3196945645693791e-09 0.0000000000000000e+00  -3.3723691698853948e-10 3.0867876232371159e-09 0.0000000000000000e+00  -4.3597353060692299e-10 2.9208931408560117e-09 0.0000000000000000e+00  -7.1242312855560678e-10 2.8033755403912857e-09 0.0000000000000000e+00  -1.0125864610601046e-09 2.6216418117769925e-09 0.0000000000000000e+00  -1.2942961010058009e-09 2.3731634673731718e-09 0.0000000000000000e+00  -1.5434989334174178e-09 2.0638916307706879e-09 0.0000000000000000e+00  -1.7529030663901038e-09 1.7021775903266272e-09 0.0000000000000000e+00  -1.9176129775656774e-09 1.2977797010510014e-09 0.0000000000000000e+00  -2.0341874896547246e-09 8.6144865650233935e-10 0.0000000000000000e+00  -2.1004059017789128e-09 4.0461161905471070e-10 0.0000000000000000e+00  -2.1151850245265058e-09 -6.0894178204539448e-11 0.0000000000000000e+00  -2.0785394673292816e-09 -5.2305163308960829e-10 0.0000000000000000e+00  -1.9915666292802508e-09 -9.6987578265883206e-10 0.0000000000000000e+00  -1.8564523151499757e-09 -1.3896305567827709e-09 0.0000000000000000e+00  -1.6764967361681103e-09 -1.7710724608146056e-09 0.0000000000000000e+00  -1.4561851290749500e-09 -2.1037365513917803e-09 0.0000000000000000e+00  -1.2014494587787453e-09 -2.3782678897885559e-09 0.0000000000000000e+00  -9.2080406175898443e-10 -2.5867837512055123e-09 0.0000000000000000e+00  -6.3028920561914549e-10 -2.7230487266536722e-09 0.0000000000000000e+00  -3.7800347844608785e-10 -2.7823564934360559e-09 0.0000000000000000e+00  -2.9965834487650441e-10 -2.6348716607689173e-09 0.0000000000000000e+00  -3.7623364420586536e-10 3.4304469922516025e-09 0.0000000000000000e+00  -4.5163273716843206e-10 3.2595477422574800e-09 0.0000000000000000e+00  -7.2625874905397426e-10 3.1276063867888501e-09 0.0000000000000000e+00  -1.0284261975053426e-09 2.9230162453035548e-09 0.0000000000000000e+00  -1.3122601014562267e-09 2.6439398413978107e-09 0.0000000000000000e+00  -1.5628916776129997e-09 2.2975288899950831e-09 0.0000000000000000e+00  -1.7729325639716283e-09 1.8934124035529723e-09 0.0000000000000000e+00  -1.9376095877861747e-09 1.4426070329952930e-09 0.0000000000000000e+00  -2.0536828055280579e-09 9.5706347501355529e-10 0.0000000000000000e+00  -2.1191361973431796e-09 4.4934150655015100e-10 0.0000000000000000e+00  -2.1330380544641694e-09 -6.7645343509144944e-11 0.0000000000000000e+00  -2.0954652443028408e-09 -5.8083549791945852e-10 0.0000000000000000e+00  -2.0074790331618923e-09 -1.0772015474149798e-09 0.0000000000000000e+00  -1.8711504065281535e-09 -1.5439413129903762e-09 0.0000000000000000e+00  -1.6896316601452124e-09 -1.9687086189525569e-09 0.0000000000000000e+00  -1.4672931082675550e-09 -2.3399048993185315e-09 0.0000000000000000e+00  -1.2100749658970418e-09 -2.6470367958979077e-09 0.0000000000000000e+00  -9.2679791969310646e-10 -2.8811260724199566e-09 0.0000000000000000e+00  -6.3468481628192829e-10 -3.0349648504096090e-09 0.0000000000000000e+00  -3.8629928021157600e-10 -3.1031922857324346e-09 0.0000000000000000e+00  -3.3345344311387912e-10 -2.9537387009826858e-09 0.0000000000000000e+00  -4.2009678940244131e-10 3.7756257406323715e-09 0.0000000000000000e+00  -4.6546607428427896e-10 3.6011276282922963e-09 0.0000000000000000e+00  -7.3427256461934217e-10 3.4541823533489947e-09 0.0000000000000000e+00  -1.0348397242457958e-09 3.2260033563866831e-09 0.0000000000000000e+00  -1.3172266791461923e-09 2.9155385801977672e-09 0.0000000000000000e+00  -1.5657912813030003e-09 2.5312630135541314e-09 0.0000000000000000e+00  -1.7732177471832547e-09 2.0841979774328909e-09 0.0000000000000000e+00  -1.9350554364727220e-09 1.5866947828997857e-09 0.0000000000000000e+00  -2.0484545786405754e-09 1.0519201834853083e-09 0.0000000000000000e+00  -2.1117541454307858e-09 4.9351789914571611e-10 0.0000000000000000e+00  -2.1242664572643215e-09 -7.4622465627355727e-11 0.0000000000000000e+00  -2.0861548717220042e-09 -6.3852067385634132e-10 0.0000000000000000e+00  -1.9983997522836252e-09 -1.1842262095589730e-09 0.0000000000000000e+00  -1.8628528539291965e-09 -1.6979525605053250e-09 0.0000000000000000e+00  -1.6823722625426742e-09 -2.1662718861326921e-09 0.0000000000000000e+00  -1.4610482014025247e-09 -2.5764031148247289e-09 0.0000000000000000e+00  -1.2046708063847896e-09 -2.9166050459495650e-09 0.0000000000000000e+00  -9.2224904555627646e-10 -3.1766630636160921e-09 0.0000000000000000e+00  -6.3218972529105351e-10 -3.3482726428862232e-09 0.0000000000000000e+00  -3.9191034687082693e-10 -3.4253833949013901e-09 0.0000000000000000e+00  -3.7139748181426581e-10 -3.2745512676420370e-09 0.0000000000000000e+00  -4.6906666886313255e-10 4.1173625457080141e-09 0.0000000000000000e+00  -4.7545858352678144e-10 3.9414715383934029e-09 0.0000000000000000e+00  -7.3235771136780991e-10 3.7788049407235120e-09 0.0000000000000000e+00  -1.0256453255739891e-09 3.5262022577252432e-09 0.0000000000000000e+00  -1.3009935430353276e-09 3.1835872149879313e-09 0.0000000000000000e+00  -1.5420794655580219e-09 2.7609475048976443e-09 0.0000000000000000e+00  -1.7419036902052118e-09 2.2708472445203026e-09 0.0000000000000000e+00  -1.8966273223794871e-09 1.7270512701393088e-09 0.0000000000000000e+00  -2.0040684899278630e-09 1.1439286120657608e-09 0.0000000000000000e+00  -2.0631448817670846e-09 5.3610083740813932e-10 0.0000000000000000e+00  -2.0735513765154281e-09 -8.1743465744309300e-11 0.0000000000000000e+00  -2.0355734648649089e-09 -6.9491658335603437e-10 0.0000000000000000e+00  -1.9500409932023149e-09 -1.2887457076988187e-09 0.0000000000000000e+00  -1.8184246986969391e-09 -1.8486074875111356e-09 0.0000000000000000e+00  -1.6430611412485692e-09 -2.3600541960427734e-09 0.0000000000000000e+00  -1.4275040154412650e-09 -2.8090844709455893e-09 0.0000000000000000e+00  -1.1771497899367225e-09 -3.1825819846261156e-09 0.0000000000000000e+00  -9.0101429922667732e-10 -3.4689139874721774e-09 0.0000000000000000e+00  -6.1865982679090854e-10 -3.6585035383937151e-09 0.0000000000000000e+00  -3.9273978658482636e-10 -3.7445423390656073e-09 0.0000000000000000e+00  -4.1363386173609368e-10 -3.5937510176085744e-09 0.0000000000000000e+00  -5.2343706062071927e-10 4.4482231957452521e-09 0.0000000000000000e+00  -4.7918543603333150e-10 4.2741284525411372e-09 0.0000000000000000e+00  -7.1554871223650883e-10 4.0948931581320137e-09 0.0000000000000000e+00  -9.9332766828088944e-10 3.8169598370928201e-09 0.0000000000000000e+00  -1.2535354026271893e-09 3.4415392244230836e-09 0.0000000000000000e+00  -1.47933