<?xml version="1.0"?>
<VTKFile type="UnstructuredGrid"  version="0.1"  >
<UnstructuredGrid>
<Piece  NumberOfPoints="651" NumberOfCells="1200">
<Points>
<DataArray  type="Float64"  NumberOfComponents="3"  format="ascii">0 0 0  50000 0 0  100000 0 0  150000 0 0  200000 0 0  250000 0 0  300000 0 0  350000 0 0  400000 0 0  450000 0 0  500000 0 0  550000 0 0  600000 0 0  650000 0 0  700000 0 0  750000 0 0  800000 0 0  850000 0 0  900000 0 0  950000 0 0  1000000 0 0  0 50000 0  50000 50000 0  100000 50000 0  150000 50000 0  200000 50000 0  250000 50000 0  300000 50000 0  350000 50000 0  400000 50000 0  450000 50000 0  500000 50000 0  550000 50000 0  600000 50000 0  650000 50000 0  700000 50000 0  750000 50000 0  800000 50000 0  850000 50000 0  900000 50000 0  950000 50000 0  1000000 50000 0  0 100000 0  50000 100000 0  100000 100000 0  150000 100000 0  200000 100000 0  250000 100000 0  300000 100000 0  350000 100000 0  400000 100000 0  450000 100000 0  500000 100000 0  550000 100000 0  600000 100000 0  650000 100000 0  700000 100000 0  750000 100000 0  800000 100000 0  850000 100000 0  900000 100000 0  950000 100000 0  1000000 100000 0  0 150000 0  50000 150000 0  100000 150000 0  150000 150000 0  200000 150000 0  250000 150000 0  300000 150000 0  350000 150000 0  400000 150000 0  450000 150000 0  500000 150000 0  550000 150000 0  600000 150000 0  650000 150000 0  700000 150000 0  750000 150000 0  800000 150000 0  850000 150000 0  900000 150000 0  950000 150000 0  1000000 150000 0  0 200000 0  50000 200000 0  100000 200000 0  150000 200000 0  200000 200000 0  250000 200000 0  300000 200000 0  350000 200000 0  400000 200000 0  450000 200000 0  500000 200000 0  550000 200000 0  600000 200000 0  650000 200000 0  700000 200000 0  750000 200000 0  800000 200000 0  850000 200000 0  900000 200000 0  950000 200000 0  1000000 200000 0  0 250000 0  50000 250000 0  100000 250000 0  150000 250000 0  200000 250000 0  250000 250000 0  300000 250000 0  350000 250000 0  400000 250000 0  450000 250000 0  500000 250000 0  550000 250000 0  600000 250000 0  650000 250000 0  700000 250000 0  750000 250000 0  800000 250000 0  850000 250000 0  900000 250000 0  950000 250000 0  1000000 250000 0  0 300000 0  50000 300000 0  100000 300000 0  150000 300000 0  200000 300000 0  250000 300000 0  300000 300000 0  350000 300000 0  400000 300000 0  450000 300000 0  500000 300000 0  550000 300000 0  600000 300000 0  650000 300000 0  700000 300000 0  750000 300000 0  800000 300000 0  850000 300000 0  900000 300000 0  950000 300000 0  1000000 300000 0  0 350000 0  50000 350000 0  100000 350000 0  150000 350000 0  200000 350000 0  250000 350000 0  300000 350000 0  350000 350000 0  400000 350000 0  450000 350000 0  500000 350000 0  550000 350000 0  600000 350000 0  650000 350000 0  700000 350000 0  750000 350000 0  800000 350000 0  850000 350000 0  900000 350000 0  950000 350000 0  1000000 350000 0  0 400000 0  50000 400000 0  100000 400000 0  150000 400000 0  200000 400000 0  250000 400000 0  300000 400000 0  350000 400000 0  400000 400000 0  450000 400000 0  500000 400000 0  550000 400000 0  600000 400000 0  650000 400000 0  700000 400000 0  750000 400000 0  800000 400000 0  850000 400000 0  900000 400000 0  950000 400000 0  1000000 400000 0  0 450000 0  50000 450000 0  100000 450000 0  150000 450000 0  200000 450000 0  250000 450000 0  300000 450000 0  350000 450000 0  400000 450000 0  450000 450000 0  500000 450000 0  550000 450000 0  600000 450000 0  650000 450000 0  700000 450000 0  750000 450000 0  800000 450000 0  850000 450000 0  900000 450000 0  950000 450000 0  1000000 450000 0  0 500000 0  50000 500000 0  100000 500000 0  150000 500000 0  200000 500000 0  250000 500000 0  300000 500000 0  350000 500000 0  400000 500000 0  450000 500000 0  500000 500000 0  550000 500000 0  600000 500000 0  650000 500000 0  700000 500000 0  750000 500000 0  800000 500000 0  850000 500000 0  900000 500000 0  950000 500000 0  1000000 500000 0  0 550000 0  50000 550000 0  100000 550000 0  150000 550000 0  200000 550000 0  250000 550000 0  300000 550000 0  350000 550000 0  400000 550000 0  450000 550000 0  500000 550000 0  550000 550000 0  600000 550000 0  650000 550000 0  700000 550000 0  750000 550000 0  800000 550000 0  850000 550000 0  900000 550000 0  950000 550000 0  1000000 550000 0  0 600000 0  50000 600000 0  100000 600000 0  150000 600000 0  200000 600000 0  250000 600000 0  300000 600000 0  350000 600000 0  400000 600000 0  450000 600000 0  500000 600000 0  550000 600000 0  600000 600000 0  650000 600000 0  700000 600000 0  750000 600000 0  800000 600000 0  850000 600000 0  900000 600000 0  950000 600000 0  1000000 600000 0  0 650000 0  50000 650000 0  100000 650000 0  150000 650000 0  200000 650000 0  250000 650000 0  300000 650000 0  350000 650000 0  400000 650000 0  450000 650000 0  500000 650000 0  550000 650000 0  600000 650000 0  650000 650000 0  700000 650000 0  750000 650000 0  800000 650000 0  850000 650000 0  900000 650000 0  950000 650000 0  1000000 650000 0  0 700000 0  50000 700000 0  100000 700000 0  150000 700000 0  200000 700000 0  250000 700000 0  300000 700000 0  350000 700000 0  400000 700000 0  450000 700000 0  500000 700000 0  550000 700000 0  600000 700000 0  650000 700000 0  700000 700000 0  750000 700000 0  800000 700000 0  850000 700000 0  900000 700000 0  950000 700000 0  1000000 700000 0  0 750000 0  50000 750000 0  100000 750000 0  150000 750000 0  200000 750000 0  250000 750000 0  300000 750000 0  350000 750000 0  400000 750000 0  450000 750000 0  500000 750000 0  550000 750000 0  600000 750000 0  650000 750000 0  700000 750000 0  750000 750000 0  800000 750000 0  850000 750000 0  900000 750000 0  950000 750000 0  1000000 750000 0  0 800000 0  50000 800000 0  100000 800000 0  150000 800000 0  200000 800000 0  250000 800000 0  300000 800000 0  350000 800000 0  400000 800000 0  450000 800000 0  500000 800000 0  550000 800000 0  600000 800000 0  650000 800000 0  700000 800000 0  750000 800000 0  800000 800000 0  850000 800000 0  900000 800000 0  950000 800000 0  1000000 800000 0  0 850000 0  50000 850000 0  100000 850000 0  150000 850000 0  200000 850000 0  250000 850000 0  300000 850000 0  350000 850000 0  400000 850000 0  450000 850000 0  500000 850000 0  550000 850000 0  600000 850000 0  650000 850000 0  700000 850000 0  750000 850000 0  800000 850000 0  850000 850000 0  900000 850000 0  950000 850000 0  1000000 850000 0  0 900000 0  50000 900000 0  100000 900000 0  150000 900000 0  200000 900000 0  250000 900000 0  300000 900000 0  350000 900000 0  400000 900000 0  450000 900000 0  500000 900000 0  550000 900000 0  600000 900000 0  650000 900000 0  700000 900000 0  750000 900000 0  800000 900000 0  850000 900000 0  900000 900000 0  950000 900000 0  1000000 900000 0  0 950000 0  50000 950000 0  100000 950000 0  150000 950000 0  200000 950000 0  250000 950000 0  300000 950000 0  350000 950000 0  400000 950000 0  450000 950000 0  500000 950000 0  550000 950000 0  600000 950000 0  650000 950000 0  700000 950000 0  750000 950000 0  800000 950000 0  850000 950000 0  900000 950000 0  950000 950000 0  1000000 950000 0  0 1000000 0  50000 1000000 0  100000 1000000 0  150000 1000000 0  200000 1000000 0  250000 1000000 0  300000 1000000 0  350000 1000000 0  400000 1000000 0  450000 1000000 0  500000 1000000 0  550000 1000000 0  600000 1000000 0  650000 1000000 0  700000 1000000 0  750000 1000000 0  800000 1000000 0  850000 1000000 0  900000 1000000 0  950000 1000000 0  1000000 1000000 0  0 1050000 0  50000 1050000 0  100000 1050000 0  150000 1050000 0  200000 1050000 0  250000 1050000 0  300000 1050000 0  350000 1050000 0  400000 1050000 0  450000 1050000 0  500000 1050000 0  550000 1050000 0  600000 1050000 0  650000 1050000 0  700000 1050000 0  750000 1050000 0  800000 1050000 0  850000 1050000 0  900000 1050000 0  950000 1050000 0  1000000 1050000 0  0 1100000 0  50000 1100000 0  100000 1100000 0  150000 1100000 0  200000 1100000 0  250000 1100000 0  300000 1100000 0  350000 1100000 0  400000 1100000 0  450000 1100000 0  500000 1100000 0  550000 1100000 0  600000 1100000 0  650000 1100000 0  700000 1100000 0  750000 1100000 0  800000 1100000 0  850000 1100000 0  900000 1100000 0  950000 1100000 0  1000000 1100000 0  0 1150000 0  50000 1150000 0  100000 1150000 0  150000 1150000 0  200000 1150000 0  250000 1150000 0  300000 1150000 0  350000 1150000 0  400000 1150000 0  450000 1150000 0  500000 1150000 0  550000 1150000 0  600000 1150000 0  650000 1150000 0  700000 1150000 0  750000 1150000 0  800000 1150000 0  850000 1150000 0  900000 1150000 0  950000 1150000 0  1000000 1150000 0  0 1200000 0  50000 1200000 0  100000 1200000 0  150000 1200000 0  200000 1200000 0  250000 1200000 0  300000 1200000 0  350000 1200000 0  400000 1200000 0  450000 1200000 0  500000 1200000 0  550000 1200000 0  600000 1200000 0  650000 1200000 0  700000 1200000 0  750000 1200000 0  800000 1200000 0  850000 1200000 0  900000 1200000 0  950000 1200000 0  1000000 1200000 0  0 1250000 0  50000 1250000 0  100000 1250000 0  150000 1250000 0  200000 1250000 0  250000 1250000 0  300000 1250000 0  350000 1250000 0  400000 1250000 0  450000 1250000 0  500000 1250000 0  550000 1250000 0  600000 1250000 0  650000 1250000 0  700000 1250000 0  750000 1250000 0  800000 1250000 0  850000 1250000 0  900000 1250000 0  950000 1250000 0  1000000 1250000 0  0 1300000 0  50000 1300000 0  100000 1300000 0  150000 1300000 0  200000 1300000 0  250000 1300000 0  300000 1300000 0  350000 1300000 0  400000 1300000 0  450000 1300000 0  500000 1300000 0  550000 1300000 0  600000 1300000 0  650000 1300000 0  700000 1300000 0  750000 1300000 0  800000 1300000 0  850000 1300000 0  900000 1300000 0  950000 1300000 0  1000000 1300000 0  0 1350000 0  50000 1350000 0  100000 1350000 0  150000 1350000 0  200000 1350000 0  250000 1350000 0  300000 1350000 0  350000 1350000 0  400000 1350000 0  450000 1350000 0  500000 1350000 0  550000 1350000 0  600000 1350000 0  650000 1350000 0  700000 135
[...]
<PointData  Vectors="f_4485"> 
<DataArray  type="Float64"  Name="f_4485"  NumberOfComponents="3" format="ascii">-2.4535326945115266e-10 2.1071704407848964e-10 0.0000000000000000e+00  -4.5094014097702934e-10 1.7193839679531284e-10 0.0000000000000000e+00  -8.1579324749605360e-10 1.5668667811085884e-10 0.0000000000000000e+00  -1.1681391361545330e-09 1.4328870630583299e-10 0.0000000000000000e+00  -1.4907030450535273e-09 1.2729887781027491e-10 0.0000000000000000e+00  -1.7741093024572150e-09 1.0832457365117760e-10 0.0000000000000000e+00  -2.0107344860943713e-09 8.6606086036372244e-11 0.0000000000000000e+00  -2.1944105292905526e-09 6.2595398862229071e-11 0.0000000000000000e+00  -2.3204208939371698e-09 3.6863471941458312e-11 0.0000000000000000e+00  -2.3855854512779800e-09 1.0051125954686131e-11 0.0000000000000000e+00  -2.3883296115966433e-09 -1.7163284489923071e-11 0.0000000000000000e+00  -2.3287176814792663e-09 -4.4089020136200790e-11 0.0000000000000000e+00  -2.2084468883608148e-09 -7.0045373784202677e-11 0.0000000000000000e+00  -2.0308021981696953e-09 -9.4383685467709880e-11 0.0000000000000000e+00  -1.8005800588395174e-09 -1.1651205901077966e-10 0.0000000000000000e+00  -1.5240307676513438e-09 -1.3593328088168910e-10 0.0000000000000000e+00  -1.2090801038353312e-09 -1.5233501554807750e-10 0.0000000000000000e+00  -8.6702382298406939e-10 -1.6584139089018198e-10 0.0000000000000000e+00  -5.2053119951159879e-10 -1.7676904742550688e-10 0.0000000000000000e+00  -2.3763527491486426e-10 -1.7163195761125663e-10 0.0000000000000000e+00  -1.1855428069458556e-10 -1.0963120930814018e-10 0.0000000000000000e+00  -2.0824753234859950e-10 3.9986631379804004e-10 0.0000000000000000e+00  -3.7194686928049169e-10 3.6394995859981292e-10 0.0000000000000000e+00  -6.5846551579314025e-10 3.7540303656420753e-10 0.0000000000000000e+00  -9.7870796591773658e-10 3.5691012072711278e-10 0.0000000000000000e+00  -1.2838855805742935e-09 3.2462708473276786e-10 0.0000000000000000e+00  -1.5581894175532391e-09 2.8233699831384604e-10 0.0000000000000000e+00  -1.7929167935370799e-09 2.3207667998101094e-10 0.0000000000000000e+00  -1.9814139728059842e-09 1.7551988021391613e-10 0.0000000000000000e+00  -2.1185607653372674e-09 1.1430484771179677e-10 0.0000000000000000e+00  -2.2007427618602447e-09 5.0114064679493824e-11 0.0000000000000000e+00  -2.2258720371831145e-09 -1.5326328166273498e-11 0.0000000000000000e+00  -2.1934085667263817e-09 -8.0272407013920427e-11 0.0000000000000000e+00  -2.1043637898759354e-09 -1.4299557077082429e-10 0.0000000000000000e+00  -1.9612810983452744e-09 -2.0181550559165589e-10 0.0000000000000000e+00  -1.7682008098495791e-09 -2.5512665543467805e-10 0.0000000000000000e+00  -1.5306448296744325e-09 -3.0140632837277990e-10 0.0000000000000000e+00  -1.2557579925031242e-09 -3.3916337625725739e-10 0.0000000000000000e+00  -9.5318464566365458e-10 -3.6659641043704547e-10 0.0000000000000000e+00  -6.3914832823313209e-10 -3.7950850069083313e-10 0.0000000000000000e+00  -3.5394381181166480e-10 -3.6191946565814597e-10 0.0000000000000000e+00  -1.8645198891061475e-10 -2.1985443749728800e-10 0.0000000000000000e+00  -2.0283591025403153e-10 7.3601270676072608e-10 0.0000000000000000e+00  -3.7966333385700387e-10 6.4941521279027840e-10 0.0000000000000000e+00  -6.5249350464893316e-10 6.5739497685661730e-10 0.0000000000000000e+00  -9.4578006066793332e-10 6.2861835932468311e-10 0.0000000000000000e+00  -1.2271281622047845e-09 5.7493826248676474e-10 0.0000000000000000e+00  -1.4819732518767384e-09 5.0247732335938371e-10 0.0000000000000000e+00  -1.7008705667811317e-09 4.1523008664134444e-10 0.0000000000000000e+00  -1.8770505325573868e-09 3.1642960860190732e-10 0.0000000000000000e+00  -2.0054734863123082e-09 2.0912065271646077e-10 0.0000000000000000e+00  -2.0826224021833039e-09 9.6355321841922946e-11 0.0000000000000000e+00  -2.1064758185760929e-09 -1.8769272563172026e-11 0.0000000000000000e+00  -2.0765080629264988e-09 -1.3313446310478826e-10 0.0000000000000000e+00  -1.9936845180158273e-09 -2.4364384379553612e-10 0.0000000000000000e+00  -1.8604446183639697e-09 -3.4726750690475571e-10 0.0000000000000000e+00  -1.6806783394528182e-09 -4.4106882833022697e-10 0.0000000000000000e+00  -1.4597263710376901e-09 -5.2218191733250829e-10 0.0000000000000000e+00  -1.2045130446367900e-09 -5.8765879493450107e-10 0.0000000000000000e+00  -9.2421766990123939e-10 -6.3396152793657329e-10 0.0000000000000000e+00  -6.3301573681588631e-10 -6.5549666347348915e-10 0.0000000000000000e+00  -3.6352873969611231e-10 -6.4188059851846291e-10 0.0000000000000000e+00  -1.9767287494076103e-10 -4.7831164273095059e-10 0.0000000000000000e+00  -2.0846782568372336e-10 1.0672300764441352e-09 0.0000000000000000e+00  -3.7906728204560886e-10 9.6084387547436508e-10 0.0000000000000000e+00  -6.4796479518826037e-10 9.5239257577502879e-10 0.0000000000000000e+00  -9.3099121532081088e-10 9.0853877072101679e-10 0.0000000000000000e+00  -1.1991846169406176e-09 8.3216768657159287e-10 0.0000000000000000e+00  -1.4411557922806661e-09 7.2901864140357130e-10 0.0000000000000000e+00  -1.6488726243376654e-09 6.0419063351258563e-10 0.0000000000000000e+00  -1.8159971904873562e-09 4.6229776635453479e-10 0.0000000000000000e+00  -1.9376853151265852e-09 3.0780701114418328e-10 0.0000000000000000e+00  -2.0105446080449045e-09 1.4519909169507467e-10 0.0000000000000000e+00  -2.0326277883269132e-09 -2.0994340343858697e-11 0.0000000000000000e+00  -2.0034332115723248e-09 -1.8621899301923439e-10 0.0000000000000000e+00  -1.9238965921754017e-09 -3.4595351389624702e-10 0.0000000000000000e+00  -1.7963681114667973e-09 -4.9576842629307836e-10 0.0000000000000000e+00  -1.6245753618496462e-09 -6.3136808621961568e-10 0.0000000000000000e+00  -1.4135843123075400e-09 -7.4858972622180689e-10 0.0000000000000000e+00  -1.1698183277581720e-09 -8.4332356539026391e-10 0.0000000000000000e+00  -9.0143055129577112e-10 -9.1133489685634651e-10 0.0000000000000000e+00  -6.2052767958593854e-10 -9.4800559542163716e-10 0.0000000000000000e+00  -3.5744344255695432e-10 -9.4758527410044892e-10 0.0000000000000000e+00  -1.9999545021637631e-10 -7.9277414592455673e-10 0.0000000000000000e+00  -2.2011186615508929e-10 1.3916363737738357e-09 0.0000000000000000e+00  -3.7999491281170824e-10 1.2738190446466845e-09 0.0000000000000000e+00  -6.4651447064764802e-10 1.2480828144179005e-09 0.0000000000000000e+00  -9.2639349167431290e-10 1.1854443153103723e-09 0.0000000000000000e+00  -1.1893852652769513e-09 1.0849790833310292e-09 0.0000000000000000e+00  -1.4251370058933787e-09 9.5112625892574787e-10 0.0000000000000000e+00  -1.6267171911084752e-09 7.8935099672398342e-10 0.0000000000000000e+00  -1.7884717215515726e-09 6.0528435388584786e-10 0.0000000000000000e+00  -1.9059191930147750e-09 4.0465261826469520e-10 0.0000000000000000e+00  -1.9758600135048632e-09 1.9329070330082813e-10 0.0000000000000000e+00  -1.9964471960273390e-09 -2.2877880610307411e-11 0.0000000000000000e+00  -1.9672140099315009e-09 -2.3789831963891538e-10 0.0000000000000000e+00  -1.8890715134173402e-09 -4.4586319596202740e-10 0.0000000000000000e+00  -1.7642797797370507e-09 -6.4099737735090536e-10 0.0000000000000000e+00  -1.5963917639456655e-09 -8.1773704974913163e-10 0.0000000000000000e+00  -1.3901740125178160e-09 -9.7079636280503885e-10 0.0000000000000000e+00  -1.1515611350175529e-09 -1.0952345477575034e-09 0.0000000000000000e+00  -8.8800492097437506e-10 -1.1865931813977188e-09 0.0000000000000000e+00  -6.1109371537140535e-10 -1.2410902299317922e-09 0.0000000000000000e+00  -3.5264305455622804e-10 -1.2545076208266729e-09 0.0000000000000000e+00  -2.0787475358304580e-10 -1.1103010981280292e-09 0.0000000000000000e+00  -2.3670700772047228e-10 1.7132160744096141e-09 0.0000000000000000e+00  -3.8485325257292329e-10 1.5865367567531209e-09 0.0000000000000000e+00  -6.5034513740561986e-10 1.5447416019068493e-09 0.0000000000000000e+00  -9.3072883376675232e-10 1.4616499052917167e-09 0.0000000000000000e+00  -1.1933956817071552e-09 1.3356065036839384e-09 0.0000000000000000e+00  -1.4277428940874161e-09 1.1703915735389881e-09 0.0000000000000000e+00  -1.6272707367234403e-09 9.7165478713227037e-10 0.0000000000000000e+00  -1.7868007951123688e-09 7.4579811658671990e-10 0.0000000000000000e+00  -1.9021954708226326e-09 4.9963855778768926e-10 0.0000000000000000e+00  -1.9704712433464893e-09 2.4025945986485428e-10 0.0000000000000000e+00  -1.9899023659151943e-09 -2.5095748337022931e-11 0.0000000000000000e+00  -1.9600715982414747e-09 -2.8913030219544747e-10 0.0000000000000000e+00  -1.8818773941545397e-09 -5.4460894206365689e-10 0.0000000000000000e+00  -1.7575050449276608e-09 -7.8447943368817637e-10 0.0000000000000000e+00  -1.5903634922042127e-09 -1.0020002865076864e-09 0.0000000000000000e+00  -1.3849981198721011e-09 -1.1908823283324638e-09 0.0000000000000000e+00  -1.1470648803089040e-09 -1.3454711597878409e-09 0.0000000000000000e+00  -8.8382945604371498e-10 -1.4610204652646017e-09 0.0000000000000000e+00  -6.0734380350397519e-10 -1.5338796105156838e-09 0.0000000000000000e+00  -3.5195516671228544e-10 -1.5598332467332801e-09 0.0000000000000000e+00  -2.2061524369350020e-10 -1.4230967084178415e-09 0.0000000000000000e+00  -2.5789192963854817e-10 2.0355881881720694e-09 0.0000000000000000e+00  -3.9370800638608978e-10 1.9009759404847323e-09 0.0000000000000000e+00  -6.5959341497661882e-10 1.8441811373862785e-09 0.0000000000000000e+00  -9.4281430607058846e-10 1.7401122055942932e-09 0.0000000000000000e+00  -1.2081236942934459e-09 1.5873676231708486e-09 0.0000000000000000e+00  -1.4441968303687956e-09 1.3898337141935263e-09 0.0000000000000000e+00  -1.6445216258321932e-09 1.1535304457925049e-09 0.0000000000000000e+00  -1.8041318435020567e-09 8.8559072416008294e-10 0.0000000000000000e+00  -1.9191236459984499e-09 5.9383295333250587e-10 0.0000000000000000e+00  -1.9866977221615991e-09 2.8650613729650482e-10 0.0000000000000000e+00  -2.0052488239378905e-09 -2.7895340081167120e-11 0.0000000000000000e+00  -1.9744190790662987e-09 -3.4079259184289510e-10 0.0000000000000000e+00  -1.8951105327228951e-09 -6.4367837217673733e-10 0.0000000000000000e+00  -1.7694619408954426e-09 -9.2827824683319577e-10 0.0000000000000000e+00  -1.6007942526453281e-09 -1.1867251435047663e-09 0.0000000000000000e+00  -1.3935450390332586e-09 -1.4117597454347284e-09 0.0000000000000000e+00  -1.1533058425409480e-09 -1.5969762193243193e-09 0.0000000000000000e+00  -8.8750064100708582e-10 -1.7371225709600626e-09 0.0000000000000000e+00  -6.0904663560362449e-10 -1.8281882688099342e-09 0.0000000000000000e+00  -3.5516105502664368e-10 -1.8654359930254377e-09 0.0000000000000000e+00  -2.3756130606378811e-10 -1.7329891340990150e-09 0.0000000000000000e+00  -2.8354042689893523e-10 2.3614694743601071e-09 0.0000000000000000e+00  -4.0589944706786398e-10 2.2193322734391544e-09 0.0000000000000000e+00  -6.7314771716414949e-10 2.1481983007062563e-09 0.0000000000000000e+00  -9.6066355809245658e-10 2.0229262913625703e-09 0.0000000000000000e+00  -1.2303123443174569e-09 1.8426365724368763e-09 0.0000000000000000e+00  -1.4699041912267547e-09 1.6117682545408677e-09 0.0000000000000000e+00  -1.6727116251692997e-09 1.3369709015209776e-09 0.0000000000000000e+00  -1.8338099754591110e-09 1.0261927542284915e-09 0.0000000000000000e+00  -1.9494280104248892e-09 6.8824784437342122e-10 0.0000000000000000e+00  -2.0169067120946250e-09 3.3251018648512454e-10 0.0000000000000000e+00  -2.0347498985360783e-09 -3.1325700847922886e-11 0.0000000000000000e+00  -2.0026629137794471e-09 -3.9344989477083521e-10 0.0000000000000000e+00  -1.9215643315580677e-09 -7.4412919768517295e-10 0.0000000000000000e+00  -1.7935718815045720e-09 -1.0739022185653685e-09 0.0000000000000000e+00  -1.6219679008963454e-09 -1.3737908644349840e-09 0.0000000000000000e+00  -1.4111709467419094e-09 -1.6355405477667801e-09 0.0000000000000000e+00  -1.1668457343710372e-09 -1.8518976106290480e-09 0.0000000000000000e+00  -8.9674281093233311e-10 -2.0169071706556509e-09 0.0000000000000000e+00  -6.1479821468399332e-10 -2.1259362670698284e-09 0.0000000000000000e+00  -3.6138569974048972e-10 -2.1735749622251156e-09 0.0000000000000000e+00  -2.5846514648467011e-10 -2.0430184207926196e-09 0.0000000000000000e+00  -3.1364991430313351e-10 2.6924288055348164e-09 0.0000000000000000e+00  -4.2045417862207648e-10 2.5431411811420980e-09 0.0000000000000000e+00  -6.8920791398344989e-10 2.4579736129455266e-09 0.0000000000000000e+00  -9.8154843211228533e-10 2.3112444517978408e-09 0.0000000000000000e+00  -1.2561392478251920e-09 2.1026583642947176e-09 0.0000000000000000e+00  -1.4998810932298240e-09 1.8374444269848501e-09 0.0000000000000000e+00  -1.7057747026160392e-09 1.5230951525996520e-09 0.0000000000000000e+00  -1.8688714065468310e-09 1.1684954112471469e-09 0.0000000000000000e+00  -1.9854863118068195e-09 7.8349712092222038e-10 0.0000000000000000e+00  -2.0530797484875189e-09 3.7859126986548550e-10 0.0000000000000000e+00  -2.0702602520727822e-09 -3.5361933438803746e-11 0.0000000000000000e+00  -2.0367985416665931e-09 -4.4736520245293927e-10 0.0000000000000000e+00  -1.9536337196988058e-09 -8.4649869245528410e-10 0.0000000000000000e+00  -1.8228705493417809e-09 -1.2221364376741672e-09 0.0000000000000000e+00  -1.6477720558834359e-09 -1.5641817678878354e-09 0.0000000000000000e+00  -1.4327754540677892e-09 -1.8633336775941591e-09 0.0000000000000000e+00  -1.1836736601623020e-09 -2.1113858901393119e-09 0.0000000000000000e+00  -9.0860296506852449e-10 -2.3015309247612127e-09 0.0000000000000000e+00  -6.2259324685020874e-10 -2.4283726304630341e-09 0.0000000000000000e+00  -3.6951330612173098e-10 -2.4857932516684735e-09 0.0000000000000000e+00  -2.8324808735213923e-10 -2.3555051857779082e-09 0.0000000000000000e+00  -3.4829070663532163e-10 3.0287289537719091e-09 0.0000000000000000e+00  -4.3617811989013949e-10 2.8729067427280430e-09 0.0000000000000000e+00  -7.0546625285008398e-10 2.7737462693073094e-09 0.0000000000000000e+00  -1.0020492324334179e-09 2.6051873247059523e-09 0.0000000000000000e+00  -1.2810320407904468e-09 2.3675519244156138e-09 0.0000000000000000e+00  -1.5283916154823282e-09 2.0670069788992406e-09 0.0000000000000000e+00  -1.7368843354406086e-09 1.7120522793722550e-09 0.0000000000000000e+00  -1.9015594044128138e-09 1.3126282675031725e-09 0.0000000000000000e+00  -2.0188386762399814e-09 8.7968177477704748e-10 0.0000000000000000e+00  -2.0863228890503393e-09 4.2482445538026054e-10 0.0000000000000000e+00  -2.1027418672395887e-09 -3.9949729858774402e-11 0.0000000000000000e+00  -2.0679371576440742e-09 -5.0250393340285095e-10 0.0000000000000000e+00  -1.9828598560590759e-09 -9.5077594766410177e-10 0.0000000000000000e+00  -1.8495819652381783e-09 -1.3729982327297379e-09 0.0000000000000000e+00  -1.6713230350031420e-09 -1.7579426330462460e-09 0.0000000000000000e+00  -1.4525174936473574e-09 -2.0952041094051681e-09 0.0000000000000000e+00  -1.1990708777530433e-09 -2.3755235941363420e-09 0.0000000000000000e+00  -9.1949919485280663e-10 -2.5911195593336408e-09 0.0000000000000000e+00  -6.2997688181403302e-10 -2.7357371375930967e-09 0.0000000000000000e+00  -3.7824435520956584e-10 -2.8025423154713178e-09 0.0000000000000000e+00  -3.1191382475092598e-10 -2.6716004020293663e-09 0.0000000000000000e+00  -3.8757837655252471e-10 3.3691385067224362e-09 0.0000000000000000e+00  -4.5165193698859454e-10 3.2078414915590119e-09 0.0000000000000000e+00  -7.1911655215167393e-10 3.0945426837727628e-09 0.0000000000000000e+00  -1.0180037485559360e-09 2.9036650443394176e-09 0.0000000000000000e+00  -1.2994900459032243e-09 2.6362137165758684e-09 0.0000000000000000e+00  -1.5486340963928280e-09 2.2994226559018583e-09 0.0000000000000000e+00  -1.7580355927145701e-09 1.9029414439194905e-09 0.0000000000000000e+00  -1.9228395053899091e-09 1.4578750365208409e-09 0.0000000000000000e+00  -2.0396650365123514e-09 9.7631703519500361e-10 0.0000000000000000e+00  -2.1063269979186175e-09 4.7099371652430739e-10 0.0000000000000000e+00  -2.1217234323951277e-09 -4.5016960628136219e-11 0.0000000000000000e+00  -2.0857792490395606e-09 -5.5850980843142366e-10 0.0000000000000000e+00  -1.9994335360779604e-09 -1.0563479485627970e-09 0.0000000000000000e+00  -1.8646697642283791e-09 -1.5256630961346249e-09 0.0000000000000000e+00  -1.6845869382336163e-09 -1.9540921258409748e-09 0.0000000000000000e+00  -1.4635314347649640e-09 -2.3300709373202533e-09 0.0000000000000000e+00  -1.2074412975886373e-09 -2.6431884157567531e-09 0.0000000000000000e+00  -9.2515692643744602e-10 -2.8845705261645916e-09 0.0000000000000000e+00  -6.3403265609685832e-10 -3.0470091269879983e-09 0.0000000000000000e+00  -3.8607191919431188e-10 -3.1229410211243911e-09 0.0000000000000000e+00  -3.4451558472085761e-10 -2.9910953695440709e-09 0.0000000000000000e+00  -4.3165742518000354e-10 3.7106831963957810e-09 0.0000000000000000e+00  -4.6518657897968304e-10 3.5455987442993217e-09 0.0000000000000000e+00  -7.2678026011374485e-10 3.4178909300837908e-09 0.0000000000000000e+00  -1.0243749726093374e-09 3.2041230224335783e-09 0.0000000000000000e+00  -1.3048581705074706e-09 2.9061108877138842e-09 0.0000000000000000e+00  -1.5524048548027358e-09 2.5323083617964473e-09 0.0000000000000000e+00  -1.7596067115527366e-09 2.0936629252226424e-09 0.0000000000000000e+00  -1.9218806667643369e-09 1.6025481686758060e-09 0.0000000000000000e+00  -2.0362115780911818e-09 1.0722400603931402e-09 0.0000000000000000e+00  -2.1007646581904334e-09 5.1654359464865870e-10 0.0000000000000000e+00  -2.1146915252098230e-09 -5.0471200849313041e-11 0.0000000000000000e+00  -2.0780227962533862e-09 -6.1465102231130418e-10 0.0000000000000000e+00  -1.9916423696396636e-09 -1.1618998059896446e-09 0.0000000000000000e+00  -1.8573444196924780e-09 -1.6783278530211031e-09 0.0000000000000000e+00  -1.6779661520982555e-09 -2.1504570555542952e-09 0.0000000000000000e+00  -1.4576072888236365e-09 -2.5655157736950158e-09 0.0000000000000000e+00  -1.2020888556472346e-09 -2.9118329878222884e-09 0.0000000000000000e+00  -9.2046923738411230e-10 -3.1793032833483280e-09 0.0000000000000000e+00  -6.3129691187614424e-10 -3.3596426450151385e-09 0.0000000000000000e+00  -3.9122837208527552e-10 -3.4445263503523607e-09 0.0000000000000000e+00  -3.8113951967267240e-10 -3.3122260789326770e-09 0.0000000000000000e+00  -4.8069265725288519e-10 4.0483233415857672e-09 0.0000000000000000e+00  -4.7475849783025434e-10 3.8819561678493099e-09 0.0000000000000000e+00  -7.2438435612761654e-10 3.7394866797216525e-09 0.0000000000000000e+00  -1.0150567972721939e-09 3.5022122742433063e-09 0.0000000000000000e+00  -1.2890399769444509e-09 3.1729742111006196e-09 0.0000000000000000e+00  -1.5297054050707634e-09 2.7616548988763642e-09 0.0000000000000000e+00  -1.7298620114698091e-09 2.2806784666010992e-09 0.0000000000000000e+00  -1.8854688900736843e-09 1.7437951215395180e-09 0.0000000000000000e+00  -1.9941386051739038e-09 1.1654743799657826e-09 0.0000000000000000e+00  -2.0545999739170881e-09 5.6051310596799781e-10 0.0000000000000000e+00  -2.0663913971016704e-09 -5.6189796924207419e-11 0.0000000000000000e+00  -2.0296837107119115e-09 -6.6973449141146157e-10 0.0000000000000000e+00  -1.9452377780390689e-09 -1.2652601547807771e-09 0.0000000000000000e+00  -1.8145003498032154e-09 -1.8279990936563693e-09 0.0000000000000000e+00  -1.6398246156312370e-09 -2.3434175277936050e-09 0.0000000000000000e+00  -1.4248138847307126e-09 -2.7974970244025748e-09 0.0000000000000000e+00  -1.1749373625953142e-09 -3.1771783220950143e-09 0.0000000000000000e+00  -8.9930117693973600e-10 -3.4709417331758591e-09 0.0000000000000000e+00  -6.1763082366832991e-10 -3.6692504488789168e-09 0.0000000000000000e+00  -3.9161503725556886e-10 -3.7629525171205923e-09 0.0000000000000000e+00  -4.2189456475228685e-10 -3.6314172328917417e-09 0.0000000000000000e+00  -5.3486858506410209e-10 4.3745458088089949e-09 0.0000000000000000e+00  -4.7793170306606793e-10 4.2104288273440859e-09 0.0000000000000000e+00  -7.0700459536596738e-10 4.0527868489359048e-09 0.0000000000000000e+00  -9.8262601220913881e-10 3.7913725832735357e-09 0.0000000000000000e+00  -1.2421433057565507e-09 3.4303873430076580e-09 0.0000000000000000e+00  -1.4682