<?xml version="1.0"?>
<VTKFile type="UnstructuredGrid"  version="0.1"  >
<UnstructuredGrid>
<Piece  NumberOfPoints="651" NumberOfCells="1200">
<Points>
<DataArray  type="Float64"  NumberOfComponents="3"  format="ascii">0 0 0  50000 0 0  100000 0 0  150000 0 0  200000 0 0  250000 0 0  300000 0 0  350000 0 0  400000 0 0  450000 0 0  500000 0 0  550000 0 0  600000 0 0  650000 0 0  700000 0 0  750000 0 0  800000 0 0  850000 0 0  900000 0 0  950000 0 0  1000000 0 0  0 50000 0  50000 50000 0  100000 50000 0  150000 50000 0  200000 50000 0  250000 50000 0  300000 50000 0  350000 50000 0  400000 50000 0  450000 50000 0  500000 50000 0  550000 50000 0  600000 50000 0  650000 50000 0  700000 50000 0  750000 50000 0  800000 50000 0  850000 50000 0  900000 50000 0  950000 50000 0  1000000 50000 0  0 100000 0  50000 100000 0  100000 100000 0  150000 100000 0  200000 100000 0  250000 100000 0  300000 100000 0  350000 100000 0  400000 100000 0  450000 100000 0  500000 100000 0  550000 100000 0  600000 100000 0  650000 100000 0  700000 100000 0  750000 100000 0  800000 100000 0  850000 100000 0  900000 100000 0  950000 100000 0  1000000 100000 0  0 150000 0  50000 150000 0  100000 150000 0  150000 150000 0  200000 150000 0  250000 150000 0  300000 150000 0  350000 150000 0  400000 150000 0  450000 150000 0  500000 150000 0  550000 150000 0  600000 150000 0  650000 150000 0  700000 150000 0  750000 150000 0  800000 150000 0  850000 150000 0  900000 150000 0  950000 150000 0  1000000 150000 0  0 200000 0  50000 200000 0  100000 200000 0  150000 200000 0  200000 200000 0  250000 200000 0  300000 200000 0  350000 200000 0  400000 200000 0  450000 200000 0  500000 200000 0  550000 200000 0  600000 200000 0  650000 200000 0  700000 200000 0  750000 200000 0  800000 200000 0  850000 200000 0  900000 200000 0  950000 200000 0  1000000 200000 0  0 250000 0  50000 250000 0  100000 250000 0  150000 250000 0  200000 250000 0  250000 250000 0  300000 250000 0  350000 250000 0  400000 250000 0  450000 250000 0  500000 250000 0  550000 250000 0  600000 250000 0  650000 250000 0  700000 250000 0  750000 250000 0  800000 250000 0  850000 250000 0  900000 250000 0  950000 250000 0  1000000 250000 0  0 300000 0  50000 300000 0  100000 300000 0  150000 300000 0  200000 300000 0  250000 300000 0  300000 300000 0  350000 300000 0  400000 300000 0  450000 300000 0  500000 300000 0  550000 300000 0  600000 300000 0  650000 300000 0  700000 300000 0  750000 300000 0  800000 300000 0  850000 300000 0  900000 300000 0  950000 300000 0  1000000 300000 0  0 350000 0  50000 350000 0  100000 350000 0  150000 350000 0  200000 350000 0  250000 350000 0  300000 350000 0  350000 350000 0  400000 350000 0  450000 350000 0  500000 350000 0  550000 350000 0  600000 350000 0  650000 350000 0  700000 350000 0  750000 350000 0  800000 350000 0  850000 350000 0  900000 350000 0  950000 350000 0  1000000 350000 0  0 400000 0  50000 400000 0  100000 400000 0  150000 400000 0  200000 400000 0  250000 400000 0  300000 400000 0  350000 400000 0  400000 400000 0  450000 400000 0  500000 400000 0  550000 400000 0  600000 400000 0  650000 400000 0  700000 400000 0  750000 400000 0  800000 400000 0  850000 400000 0  900000 400000 0  950000 400000 0  1000000 400000 0  0 450000 0  50000 450000 0  100000 450000 0  150000 450000 0  200000 450000 0  250000 450000 0  300000 450000 0  350000 450000 0  400000 450000 0  450000 450000 0  500000 450000 0  550000 450000 0  600000 450000 0  650000 450000 0  700000 450000 0  750000 450000 0  800000 450000 0  850000 450000 0  900000 450000 0  950000 450000 0  1000000 450000 0  0 500000 0  50000 500000 0  100000 500000 0  150000 500000 0  200000 500000 0  250000 500000 0  300000 500000 0  350000 500000 0  400000 500000 0  450000 500000 0  500000 500000 0  550000 500000 0  600000 500000 0  650000 500000 0  700000 500000 0  750000 500000 0  800000 500000 0  850000 500000 0  900000 500000 0  950000 500000 0  1000000 500000 0  0 550000 0  50000 550000 0  100000 550000 0  150000 550000 0  200000 550000 0  250000 550000 0  300000 550000 0  350000 550000 0  400000 550000 0  450000 550000 0  500000 550000 0  550000 550000 0  600000 550000 0  650000 550000 0  700000 550000 0  750000 550000 0  800000 550000 0  850000 550000 0  900000 550000 0  950000 550000 0  1000000 550000 0  0 600000 0  50000 600000 0  100000 600000 0  150000 600000 0  200000 600000 0  250000 600000 0  300000 600000 0  350000 600000 0  400000 600000 0  450000 600000 0  500000 600000 0  550000 600000 0  600000 600000 0  650000 600000 0  700000 600000 0  750000 600000 0  800000 600000 0  850000 600000 0  900000 600000 0  950000 600000 0  1000000 600000 0  0 650000 0  50000 650000 0  100000 650000 0  150000 650000 0  200000 650000 0  250000 650000 0  300000 650000 0  350000 650000 0  400000 650000 0  450000 650000 0  500000 650000 0  550000 650000 0  600000 650000 0  650000 650000 0  700000 650000 0  750000 650000 0  800000 650000 0  850000 650000 0  900000 650000 0  950000 650000 0  1000000 650000 0  0 700000 0  50000 700000 0  100000 700000 0  150000 700000 0  200000 700000 0  250000 700000 0  300000 700000 0  350000 700000 0  400000 700000 0  450000 700000 0  500000 700000 0  550000 700000 0  600000 700000 0  650000 700000 0  700000 700000 0  750000 700000 0  800000 700000 0  850000 700000 0  900000 700000 0  950000 700000 0  1000000 700000 0  0 750000 0  50000 750000 0  100000 750000 0  150000 750000 0  200000 750000 0  250000 750000 0  300000 750000 0  350000 750000 0  400000 750000 0  450000 750000 0  500000 750000 0  550000 750000 0  600000 750000 0  650000 750000 0  700000 750000 0  750000 750000 0  800000 750000 0  850000 750000 0  900000 750000 0  950000 750000 0  1000000 750000 0  0 800000 0  50000 800000 0  100000 800000 0  150000 800000 0  200000 800000 0  250000 800000 0  300000 800000 0  350000 800000 0  400000 800000 0  450000 800000 0  500000 800000 0  550000 800000 0  600000 800000 0  650000 800000 0  700000 800000 0  750000 800000 0  800000 800000 0  850000 800000 0  900000 800000 0  950000 800000 0  1000000 800000 0  0 850000 0  50000 850000 0  100000 850000 0  150000 850000 0  200000 850000 0  250000 850000 0  300000 850000 0  350000 850000 0  400000 850000 0  450000 850000 0  500000 850000 0  550000 850000 0  600000 850000 0  650000 850000 0  700000 850000 0  750000 850000 0  800000 850000 0  850000 850000 0  900000 850000 0  950000 850000 0  1000000 850000 0  0 900000 0  50000 900000 0  100000 900000 0  150000 900000 0  200000 900000 0  250000 900000 0  300000 900000 0  350000 900000 0  400000 900000 0  450000 900000 0  500000 900000 0  550000 900000 0  600000 900000 0  650000 900000 0  700000 900000 0  750000 900000 0  800000 900000 0  850000 900000 0  900000 900000 0  950000 900000 0  1000000 900000 0  0 950000 0  50000 950000 0  100000 950000 0  150000 950000 0  200000 950000 0  250000 950000 0  300000 950000 0  350000 950000 0  400000 950000 0  450000 950000 0  500000 950000 0  550000 950000 0  600000 950000 0  650000 950000 0  700000 950000 0  750000 950000 0  800000 950000 0  850000 950000 0  900000 950000 0  950000 950000 0  1000000 950000 0  0 1000000 0  50000 1000000 0  100000 1000000 0  150000 1000000 0  200000 1000000 0  250000 1000000 0  300000 1000000 0  350000 1000000 0  400000 1000000 0  450000 1000000 0  500000 1000000 0  550000 1000000 0  600000 1000000 0  650000 1000000 0  700000 1000000 0  750000 1000000 0  800000 1000000 0  850000 1000000 0  900000 1000000 0  950000 1000000 0  1000000 1000000 0  0 1050000 0  50000 1050000 0  100000 1050000 0  150000 1050000 0  200000 1050000 0  250000 1050000 0  300000 1050000 0  350000 1050000 0  400000 1050000 0  450000 1050000 0  500000 1050000 0  550000 1050000 0  600000 1050000 0  650000 1050000 0  700000 1050000 0  750000 1050000 0  800000 1050000 0  850000 1050000 0  900000 1050000 0  950000 1050000 0  1000000 1050000 0  0 1100000 0  50000 1100000 0  100000 1100000 0  150000 1100000 0  200000 1100000 0  250000 1100000 0  300000 1100000 0  350000 1100000 0  400000 1100000 0  450000 1100000 0  500000 1100000 0  550000 1100000 0  600000 1100000 0  650000 1100000 0  700000 1100000 0  750000 1100000 0  800000 1100000 0  850000 1100000 0  900000 1100000 0  950000 1100000 0  1000000 1100000 0  0 1150000 0  50000 1150000 0  100000 1150000 0  150000 1150000 0  200000 1150000 0  250000 1150000 0  300000 1150000 0  350000 1150000 0  400000 1150000 0  450000 1150000 0  500000 1150000 0  550000 1150000 0  600000 1150000 0  650000 1150000 0  700000 1150000 0  750000 1150000 0  800000 1150000 0  850000 1150000 0  900000 1150000 0  950000 1150000 0  1000000 1150000 0  0 1200000 0  50000 1200000 0  100000 1200000 0  150000 1200000 0  200000 1200000 0  250000 1200000 0  300000 1200000 0  350000 1200000 0  400000 1200000 0  450000 1200000 0  500000 1200000 0  550000 1200000 0  600000 1200000 0  650000 1200000 0  700000 1200000 0  750000 1200000 0  800000 1200000 0  850000 1200000 0  900000 1200000 0  950000 1200000 0  1000000 1200000 0  0 1250000 0  50000 1250000 0  100000 1250000 0  150000 1250000 0  200000 1250000 0  250000 1250000 0  300000 1250000 0  350000 1250000 0  400000 1250000 0  450000 1250000 0  500000 1250000 0  550000 1250000 0  600000 1250000 0  650000 1250000 0  700000 1250000 0  750000 1250000 0  800000 1250000 0  850000 1250000 0  900000 1250000 0  950000 1250000 0  1000000 1250000 0  0 1300000 0  50000 1300000 0  100000 1300000 0  150000 1300000 0  200000 1300000 0  250000 1300000 0  300000 1300000 0  350000 1300000 0  400000 1300000 0  450000 1300000 0  500000 1300000 0  550000 1300000 0  600000 1300000 0  650000 1300000 0  700000 1300000 0  750000 1300000 0  800000 1300000 0  850000 1300000 0  900000 1300000 0  950000 1300000 0  1000000 1300000 0  0 1350000 0  50000 1350000 0  100000 1350000 0  150000 1350000 0  200000 1350000 0  250000 1350000 0  300000 1350000 0  350000 1350000 0  400000 1350000 0  450000 1350000 0  500000 1350000 0  550000 1350000 0  600000 1350000 0  650000 1350000 0  700000 135
[...]
<PointData  Vectors="f_4485"> 
<DataArray  type="Float64"  Name="f_4485"  NumberOfComponents="3" format="ascii">-2.4618396054232622e-10 2.0443582360694343e-10 0.0000000000000000e+00  -4.5171280464135260e-10 1.6564199038053072e-10 0.0000000000000000e+00  -8.1657867895474035e-10 1.5038163634231020e-10 0.0000000000000000e+00  -1.1690151304148879e-09 1.3706409505131248e-10 0.0000000000000000e+00  -1.4916950467352997e-09 1.2122444800836213e-10 0.0000000000000000e+00  -1.7752319773409514e-09 1.0244387071000494e-10 0.0000000000000000e+00  -2.0119937320240316e-09 8.0950018129964407e-11 0.0000000000000000e+00  -2.1958056078709986e-09 5.7187813397376470e-11 0.0000000000000000e+00  -2.3219460782307026e-09 3.1722998240267753e-11 0.0000000000000000e+00  -2.3872310918000607e-09 5.1918829148935363e-12 0.0000000000000000e+00  -2.3900830185119504e-09 -2.1731549474127534e-11 0.0000000000000000e+00  -2.3305640448046390e-09 -4.8361157461546423e-11 0.0000000000000000e+00  -2.2103703581749666e-09 -7.4021271945858978e-11 0.0000000000000000e+00  -2.0327872075167353e-09 -9.8068809369717649e-11 0.0000000000000000e+00  -1.8026129536851781e-09 -1.1991800368475327e-10 0.0000000000000000e+00  -1.5261018178731224e-09 -1.3907829998251369e-10 0.0000000000000000e+00  -1.2111860498190406e-09 -1.5524456213664482e-10 0.0000000000000000e+00  -8.6917118508031946e-10 -1.6854888974811243e-10 0.0000000000000000e+00  -5.2273874382007286e-10 -1.7931705059648516e-10 0.0000000000000000e+00  -2.3992367357914769e-10 -1.7407128821249403e-10 0.0000000000000000e+00  -1.2087099087521086e-10 -1.1209493438276179e-10 0.0000000000000000e+00  -2.0908896581891596e-10 3.9350579029145180e-10 0.0000000000000000e+00  -3.7124025036334811e-10 3.6146436479181112e-10 0.0000000000000000e+00  -6.5659758699325566e-10 3.7451899596294208e-10 0.0000000000000000e+00  -9.7722560152667203e-10 3.5609283972577597e-10 0.0000000000000000e+00  -1.2829682500123546e-09 3.2381826321454574e-10 0.0000000000000000e+00  -1.5577414471152040e-09 2.8154132021308114e-10 0.0000000000000000e+00  -1.7928640527740625e-09 2.3130009834675841e-10 0.0000000000000000e+00  -1.9817000545965561e-09 1.7476530920273841e-10 0.0000000000000000e+00  -2.1191355835778245e-09 1.1357267218847962e-10 0.0000000000000000e+00  -2.2015593481090467e-09 4.9403135528708469e-11 0.0000000000000000e+00  -2.2268851187110344e-09 -1.6018113764061426e-11 0.0000000000000000e+00  -2.1945736499216992e-09 -8.0947887657352617e-11 0.0000000000000000e+00  -2.1056364829184771e-09 -1.4365837109202839e-10 0.0000000000000000e+00  -1.9626163764121545e-09 -2.0247040353902835e-10 0.0000000000000000e+00  -1.7695517979990606e-09 -2.5578053318941152e-10 0.0000000000000000e+00  -1.5319604289967073e-09 -3.0207039738598906e-10 0.0000000000000000e+00  -1.2569789575358408e-09 -3.3985807039736065e-10 0.0000000000000000e+00  -9.5424449542462518e-10 -3.6735931983810057e-10 0.0000000000000000e+00  -6.4001267621097543e-10 -3.8040456913508981e-10 0.0000000000000000e+00  -3.5465444674811533e-10 -3.6313337246213885e-10 0.0000000000000000e+00  -1.8873826966566552e-10 -2.2226366604803660e-10 0.0000000000000000e+00  -2.0361703774066575e-10 7.2943407429007936e-10 0.0000000000000000e+00  -3.7873792294953071e-10 6.4705320093977710e-10 0.0000000000000000e+00  -6.4994285103278081e-10 6.5767710679778739e-10 0.0000000000000000e+00  -9.4294977864783452e-10 6.2929695334356293e-10 0.0000000000000000e+00  -1.2245792296319840e-09 5.7564961623376833e-10 0.0000000000000000e+00  -1.4798869039969661e-09 5.0314312796134852e-10 0.0000000000000000e+00  -1.6992608005397933e-09 4.1583075615046606e-10 0.0000000000000000e+00  -1.8758838167084647e-09 3.1696012101716211e-10 0.0000000000000000e+00  -2.0047033191386939e-09 2.0957856182541645e-10 0.0000000000000000e+00  -2.0821983873849861e-09 9.6737924973720114e-11 0.0000000000000000e+00  -2.1063468218894602e-09 -1.8465389559527975e-11 0.0000000000000000e+00  -2.0766233158916347e-09 -1.3291354121428453e-10 0.0000000000000000e+00  -1.9939936390982624e-09 -2.4351127529478924e-10 0.0000000000000000e+00  -1.8608968609307762e-09 -3.4723068858562519e-10 0.0000000000000000e+00  -1.6812210971876832e-09 -4.4113903499749031e-10 0.0000000000000000e+00  -1.4603030394339937e-09 -5.2237804569403626e-10 0.0000000000000000e+00  -1.2050614483093860e-09 -5.8801406642296358e-10 0.0000000000000000e+00  -9.2467404548613508e-10 -6.3453352592069304e-10 0.0000000000000000e+00  -6.3334525732862163e-10 -6.5638220649917600e-10 0.0000000000000000e+00  -3.6382859743718461e-10 -6.4308323634640700e-10 0.0000000000000000e+00  -1.9983965933367059e-10 -4.8062384268375439e-10 0.0000000000000000e+00  -2.0904067433209308e-10 1.0604183323704237e-09 0.0000000000000000e+00  -3.7845330173829787e-10 9.5731854499840126e-10 0.0000000000000000e+00  -6.4589346504137553e-10 9.5218372895251636e-10 0.0000000000000000e+00  -9.2827545201314350e-10 9.0938235503835229e-10 0.0000000000000000e+00  -1.1963526193653829e-09 8.3332678785439319e-10 0.0000000000000000e+00  -1.4385283912278237e-09 7.3023012240632174e-10 0.0000000000000000e+00  -1.6465919624382018e-09 6.0535129369201472e-10 0.0000000000000000e+00  -1.8141067754242798e-09 4.6336348114517121e-10 0.0000000000000000e+00  -1.9361801562873757e-09 3.0875726789653969e-10 0.0000000000000000e+00  -2.0093964326261406e-09 1.4602309154180145e-10 0.0000000000000000e+00  -2.0317970221905086e-09 -2.0303475367345326e-11 0.0000000000000000e+00  -2.0028747430118479e-09 -1.8566698983054060e-10 0.0000000000000000e+00  -1.9235624252101645e-09 -3.4554676739902517e-10 0.0000000000000000e+00  -1.7962082904772118e-09 -4.9551585219034788e-10 0.0000000000000000e+00  -1.6245379600562959e-09 -6.3128367121644419e-10 0.0000000000000000e+00  -1.4136153419683646e-09 -7.4869629997737203e-10 0.0000000000000000e+00  -1.1698633514893134e-09 -8.4365777778142156e-10 0.0000000000000000e+00  -9.0144338250451709e-10 -9.1195085056992155e-10 0.0000000000000000e+00  -6.2051418777541005e-10 -9.4896332097496357e-10 0.0000000000000000e+00  -3.5755155186435260e-10 -9.4872461674404745e-10 0.0000000000000000e+00  -2.0199148326857547e-10 -7.9494486746542588e-10 0.0000000000000000e+00  -2.2034981304606769e-10 1.3846163791935350e-09 0.0000000000000000e+00  -3.7955325660910325e-10 1.2693271941626283e-09 0.0000000000000000e+00  -6.4490811851281053e-10 1.2470788845871330e-09 0.0000000000000000e+00  -9.2412649265476656e-10 1.1859711633776224e-09 0.0000000000000000e+00  -1.1867955235314214e-09 1.0861856931678800e-09 0.0000000000000000e+00  -1.4225251023968869e-09 9.5258860170223687e-10 0.0000000000000000e+00  -1.6242755334001379e-09 7.9085708116517283e-10 0.0000000000000000e+00  -1.7863003357060765e-09 6.0672589689199517e-10 0.0000000000000000e+00  -1.9040573343175420e-09 4.0597274752456171e-10 0.0000000000000000e+00  -1.9743103560535977e-09 1.9445847720289948e-10 0.0000000000000000e+00  -1.9951911828532151e-09 -2.1880320160964297e-11 0.0000000000000000e+00  -1.9662209487745370e-09 -2.3708268543049352e-10 0.0000000000000000e+00  -1.8883038037852680e-09 -4.4523931337190311e-10 0.0000000000000000e+00  -1.7636959082794875e-09 -6.4057638216306704e-10 0.0000000000000000e+00  -1.5959482530398401e-09 -8.1753434669769007e-10 0.0000000000000000e+00  -1.3898274985305916e-09 -9.7083454282559190e-10 0.0000000000000000e+00  -1.1512724076637796e-09 -1.0955453321369190e-09 0.0000000000000000e+00  -8.8774985442107132e-10 -1.1872138830111651e-09 0.0000000000000000e+00  -6.1090449795155930e-10 -1.2420383459384510e-09 0.0000000000000000e+00  -3.5264257921667325e-10 -1.2555283598960685e-09 0.0000000000000000e+00  -2.0966217207623885e-10 -1.1123142807427628e-09 0.0000000000000000e+00  -2.3650677437946296e-10 1.7060304824798050e-09 0.0000000000000000e+00  -3.8450497861443755e-10 1.5813855901667210e-09 0.0000000000000000e+00  -6.4911571356669594e-10 1.5430232937150192e-09 0.0000000000000000e+00  -9.2894711191621686e-10 1.4617197210723642e-09 0.0000000000000000e+00  -1.1912402485676853e-09 1.3366480956415814e-09 0.0000000000000000e+00  -1.4254346179105800e-09 1.1719068233143461e-09 0.0000000000000000e+00  -1.6249885961140190e-09 9.7334845744767913e-10 0.0000000000000000e+00  -1.7846630337425274e-09 7.4749760619596568e-10 0.0000000000000000e+00  -1.9002680590488132e-09 5.0124339997298187e-10 0.0000000000000000e+00  -1.9687823051815750e-09 2.4171091143575378e-10 0.0000000000000000e+00  -1.9884547557212000e-09 -2.3832661191068700e-11 0.0000000000000000e+00  -1.9588520849413299e-09 -2.8807753959237987e-10 0.0000000000000000e+00  -1.8808629562220986e-09 -5.4378221656724225e-10 0.0000000000000000e+00  -1.7566672217923607e-09 -7.8389280110606790e-10 0.0000000000000000e+00  -1.5896717659447024e-09 -1.0016694466820613e-09 0.0000000000000000e+00  -1.3844233404454986e-09 -1.1908267021977495e-09 0.0000000000000000e+00  -1.1465841071696157e-09 -1.3457135729460998e-09 0.0000000000000000e+00  -8.8343568419199944e-10 -1.4615799587606711e-09 0.0000000000000000e+00  -6.0707866460129459e-10 -1.5347424372017420e-09 0.0000000000000000e+00  -3.5189245003492762e-10 -1.5606838589270949e-09 0.0000000000000000e+00  -2.2216408534181032e-10 -1.4249509391088462e-09 0.0000000000000000e+00  -2.5716492437831074e-10 2.0282996759343456e-09 0.0000000000000000e+00  -3.9341649125790209e-10 1.8953907271138835e-09 0.0000000000000000e+00  -6.5868595075235342e-10 1.8419216213934941e-09 0.0000000000000000e+00  -9.4149601207446301e-10 1.7397465619020874e-09 0.0000000000000000e+00  -1.2064619371743450e-09 1.5881605710032833e-09 0.0000000000000000e+00  -1.4423297860540528e-09 1.3912774104810659e-09 0.0000000000000000e+00  -1.6425870096457700e-09 1.1552855130770218e-09 0.0000000000000000e+00  -1.8022379280035022e-09 8.8743752763673160e-10 0.0000000000000000e+00  -1.9173435540418905e-09 5.9563245541143852e-10 0.0000000000000000e+00  -1.9850739204665904e-09 2.8817141733458901e-10 0.0000000000000000e+00  -2.0038004142165540e-09 -2.6418497967605836e-11 0.0000000000000000e+00  -1.9731487570969817e-09 -3.3953857952321002e-10 0.0000000000000000e+00  -1.8940103149890601e-09 -6.4267029793930151e-10 0.0000000000000000e+00  -1.7685177418875210e-09 -9.2753363606211910e-10 0.0000000000000000e+00  -1.5999897652551627e-09 -1.1862596009720215e-09 0.0000000000000000e+00  -1.3928654917936817e-09 -1.4115886590559267e-09 0.0000000000000000e+00  -1.1527423863686058e-09 -1.5971135479270446e-09 0.0000000000000000e+00  -8.8705756526373283e-10 -1.7375729170723748e-09 0.0000000000000000e+00  -6.0876571622001168e-10 -1.8289183277157855e-09 0.0000000000000000e+00  -3.5506060448230805e-10 -1.8660926386954666e-09 0.0000000000000000e+00  -2.3884936010506109e-10 -1.7346910169035616e-09 0.0000000000000000e+00  -2.8221247433530554e-10 2.3541612716418048e-09 0.0000000000000000e+00  -4.0565149453113312e-10 2.2134962576685854e-09 0.0000000000000000e+00  -6.7253807222014875e-10 2.1455674249311695e-09 0.0000000000000000e+00  -9.5978699682470564e-10 2.0222081688152616e-09 0.0000000000000000e+00  -1.2291570974693570e-09 1.8431749524770954e-09 0.0000000000000000e+00  -1.4685394179858325e-09 1.6130770550526531e-09 0.0000000000000000e+00  -1.6712278974906502e-09 1.3386982095465601e-09 0.0000000000000000e+00  -1.8322915376272538e-09 1.0280930785858516e-09 0.0000000000000000e+00  -1.9479412296739867e-09 6.9015513315987548e-10 0.0000000000000000e+00  -2.0154978736062975e-09 3.3431459826857845e-10 0.0000000000000000e+00  -2.0334475128619760e-09 -2.9695797311830523e-11 0.0000000000000000e+00  -2.0014816460281853e-09 -3.9204104766529481e-10 0.0000000000000000e+00  -1.9205091492890488e-09 -7.4297212423914844e-10 0.0000000000000000e+00  -1.7926419213467199e-09 -1.0730181258281665e-09 0.0000000000000000e+00  -1.6211600050223532e-09 -1.3731954415050135e-09 0.0000000000000000e+00  -1.4104829858611306e-09 -1.6352457545132201e-09 0.0000000000000000e+00  -1.1662799572436583e-09 -1.8519106192992357e-09 0.0000000000000000e+00  -8.9631057479298953e-10 -2.0172232681470212e-09 0.0000000000000000e+00  -6.1453737014861830e-10 -2.1265121398383999e-09 0.0000000000000000e+00  -3.6126012870398248e-10 -2.1740363056475137e-09 0.0000000000000000e+00  -2.5947768350282728e-10 -2.0445790562132821e-09 0.0000000000000000e+00  -3.1166460743024343e-10 2.6852042276810515e-09 0.0000000000000000e+00  -4.2024982457943761e-10 2.5372205359227870e-09 0.0000000000000000e+00  -6.8889198616724153e-10 2.4551235826752207e-09 0.0000000000000000e+00  -9.8110153109676192e-10 2.3102727562893282e-09 0.0000000000000000e+00  -1.2554888222150099e-09 2.1029746036749001e-09 0.0000000000000000e+00  -1.4990416664810229e-09 1.8385963105692780e-09 0.0000000000000000e+00  -1.7047933836114702e-09 1.5247383563322629e-09 0.0000000000000000e+00  -1.8678041995433820e-09 1.1703766075319725e-09 0.0000000000000000e+00  -1.9843854060479689e-09 7.8543602616797210e-10 0.0000000000000000e+00  -2.0519877987830020e-09 3.8046300659303648e-10 0.0000000000000000e+00  -2.0692090733232824e-09 -3.3642041415393122e-11 0.0000000000000000e+00  -2.0358102338613447e-09 -4.4585367353734713e-10 0.0000000000000000e+00  -1.9527229196516511e-09 -8.4523290660429116e-10 0.0000000000000000e+00  -1.8220470789253496e-09 -1.2211410576316110e-09 0.0000000000000000e+00  -1.6470435956456344e-09 -1.5634729403437900e-09 0.0000000000000000e+00  -1.4321500289611904e-09 -1.8629211569541835e-09 0.0000000000000000e+00  -1.1831618455940227e-09 -2.1112726811332220e-09 0.0000000000000000e+00  -9.0822060586360334e-10 -2.3017076190394759e-09 0.0000000000000000e+00  -6.2237314006955175e-10 -2.4287927353186930e-09 0.0000000000000000e+00  -3.6936909638314291e-10 -2.4860723298433640e-09 0.0000000000000000e+00  -2.8397741276262730e-10 -2.3569378108329170e-09 0.0000000000000000e+00  -3.4561392323924806e-10 3.0217097258155639e-09 0.0000000000000000e+00  -4.3602465759870035e-10 2.8670601778620328e-09 0.0000000000000000e+00  -7.0544991959792067e-10 2.7708131128199735e-09 0.0000000000000000e+00  -1.0020264514509054e-09 2.6040588102046781e-09 0.0000000000000000e+00  -1.2808793412070769e-09 2.3676931350920451e-09 0.0000000000000000e+00  -1.5280802177806458e-09 2.0680032620592657e-09 0.0000000000000000e+00  -1.7364244663519099e-09 1.7135786601979137e-09 0.0000000000000000e+00  -1.9009799159732610e-09 1.3144367955644107e-09 0.0000000000000000e+00  -2.0181750018120746e-09 8.8158912576645313e-10 0.0000000000000000e+00  -2.0856098654426437e-09 4.2669886734831359e-10 0.0000000000000000e+00  -2.1020101927123663e-09 -3.8200620319761268e-11 0.0000000000000000e+00  -2.0672123588466059e-09 -5.0094339275070603e-10 0.0000000000000000e+00  -1.9821627904534649e-09 -9.4944630184875665e-10 0.0000000000000000e+00  -1.8489301392943673e-09 -1.3719269634135655e-09 0.0000000000000000e+00  -1.6707322317921715e-09 -1.7571466099248360e-09 0.0000000000000000e+00  -1.4520033218713359e-09 -2.0946920877874051e-09 0.0000000000000000e+00  -1.1986499731059288e-09 -2.3752967041396552e-09 0.0000000000000000e+00  -9.1919044512038386e-10 -2.5911671220802371e-09 0.0000000000000000e+00  -6.2980830253144233e-10 -2.7360137769858471e-09 0.0000000000000000e+00  -3.7808466775144306e-10 -2.8026607752786045e-09 0.0000000000000000e+00  -3.1235867077479414e-10 -2.6729187034567397e-09 0.0000000000000000e+00  -3.8420310007987880e-10 3.3624613457780420e-09 0.0000000000000000e+00  -4.5155998902822325e-10 3.2022232383834956e-09 0.0000000000000000e+00  -7.1940756729817431e-10 3.0916481273107390e-09 0.0000000000000000e+00  -1.0183999893654245e-09 2.9024674638260764e-09 0.0000000000000000e+00  -1.2998226794173738e-09 2.6362289053256884e-09 0.0000000000000000e+00  -1.5488394605596951e-09 2.3002753484667529e-09 0.0000000000000000e+00  -1.7580937986993022e-09 1.9043330230608507e-09 0.0000000000000000e+00  -1.9227556836718695e-09 1.4595720327834790e-09 0.0000000000000000e+00  -2.0394582347966352e-09 9.7814181382985254e-10 0.0000000000000000e+00  -2.1060225731716824e-09 4.7281475506168289e-10 0.0000000000000000e+00  -2.1213482727622384e-09 -4.3294501442291606e-11 0.0000000000000000e+00  -2.0853592650924820e-09 -5.5695247079492912e-10 0.0000000000000000e+00  -1.9989927753967874e-09 -1.0550009486399975e-09 0.0000000000000000e+00  -1.8642305465442082e-09 -1.5245558060794843e-09 0.0000000000000000e+00  -1.6841704978953226e-09 -1.9532421499808003e-09 0.0000000000000000e+00  -1.4631586293037940e-09 -2.3294868832406725e-09 0.0000000000000000e+00  -1.2071330384363454e-09 -2.6428711315887284e-09 0.0000000000000000e+00  -9.2493434048210281e-10 -2.8845101721265078e-09 0.0000000000000000e+00  -6.3391975809879121e-10 -3.0471636958429600e-09 0.0000000000000000e+00  -3.8589806017444869e-10 -3.1229251992293644e-09 0.0000000000000000e+00  -3.4468035793183257e-10 -2.9923123032585745e-09 0.0000000000000000e+00  -4.2760815453317063e-10 3.7044943513811481e-09 0.0000000000000000e+00  -4.6516703516291548e-10 3.5403574988433562e-09 0.0000000000000000e+00  -7.2738176081779564e-10 3.4151429281306205e-09 0.0000000000000000e+00  -1.0251793945246814e-09 3.2029324085635231e-09 0.0000000000000000e+00  -1.3056554434352842e-09 2.9060445402038231e-09 0.0000000000000000e+00  -1.5531029597564179e-09 2.5330324904220243e-09 0.0000000000000000e+00  -1.7601617989751075e-09 2.0949099098069195e-09 0.0000000000000000e+00  -1.9222783409072593e-09 1.6041051836288339e-09 0.0000000000000000e+00  -2.0364563921974811e-09 1.0739415155295124e-09 0.0000000000000000e+00  -2.1008724635065487e-09 5.1826382044916681e-10 0.0000000000000000e+00  -2.1146840747061354e-09 -4.8825081849035253e-11 0.0000000000000000e+00  -2.0779243209984612e-09 -6.1314564152414006e-10 0.0000000000000000e+00  -1.9914777127930123e-09 -1.1605812253444813e-09 0.0000000000000000e+00  -1.8571382581192096e-09 -1.6772262659014391e-09 0.0000000000000000e+00  -1.6777428492946134e-09 -2.1495905420620229e-09 0.0000000000000000e+00  -1.4573909574475831e-09 -2.5648931813109935e-09 0.0000000000000000e+00  -1.2019032674463545e-09 -2.9114557044515569e-09 0.0000000000000000e+00  -9.2033724970022530e-10 -3.1791632462331653e-09 0.0000000000000000e+00  -6.3123937134392134e-10 -3.3597019262782634e-09 0.0000000000000000e+00  -3.9104066666121844e-10 -3.4444045423557047e-09 0.0000000000000000e+00  -3.8103344142210338e-10 -3.3133531220008566e-09 0.0000000000000000e+00  -4.7602861206011645e-10 4.0427710203003241e-09 0.0000000000000000e+00  -4.7481981494172494e-10 3.8772311653067909e-09 0.0000000000000000e+00  -7.2528960103201779e-10 3.7369787777308467e-09 0.0000000000000000e+00  -1.0162475073897155e-09 3.5010918606477403e-09 0.0000000000000000e+00  -1.2902693602694373e-09 3.1728634913391171e-09 0.0000000000000000e+00  -1.5308586873304228e-09 2.7622645324045181e-09 0.0000000000000000e+00  -1.7308768593764690e-09 2.2817752930893503e-09 0.0000000000000000e+00  -1.8863155967691277e-09 1.7451911016077347e-09 0.0000000000000000e+00  -1.9948097278485110e-09 1.1670203352498746e-09 0.0000000000000000e+00  -2.0551027241999581e-09 5.6209329025755390e-10 0.0000000000000000e+00  -2.0667419800402820e-09 -5.4662879319808785e-11 0.0000000000000000e+00  -2.0299034005442113e-09 -6.6832494539319123e-10 0.0000000000000000e+00  -1.9453504402831092e-09 -1.2640130829162818e-09 0.0000000000000000e+00  -1.8145310461130343e-09 -1.8269444360381972e-09 0.0000000000000000e+00  -1.6397989105767332e-09 -2.3425733669238506e-09 0.0000000000000000e+00  -1.4247574854121148e-09 -2.7968724003671379e-09 0.0000000000000000e+00  -1.1748757358667599e-09 -3.1767752991165533e-09 0.0000000000000000e+00  -8.9925848673575572e-10 -3.4707540254087673e-09 0.0000000000000000e+00  -6.1762541809915057e-10 -3.6692438007385801e-09 0.0000000000000000e+00  -3.9141341522428621e-10 -3.7627530869917232e-09 0.0000000000000000e+00  -4.2153075353124197e-10 -3.6324640197343727e-09 0.0000000000000000e+00  -5.2968487138064029e-10 4.3697706945696802e-09 0.0000000000000000e+00  -4.7807746861419658e-10 4.2063439801897194e-09 0.0000000000000000e+00  -7.0819290639634863e-10 4.0505968393508419e-09 0.0000000000000000e+00  -9.8416610430111639e-10 3.7903726009501245e-09 0.0000000000000000e+00  -1.2437576334349527e-09 3.4302614586413662e-09 0.0000000000000000e+00  -1.4698