<?xml version="1.0"?>
<VTKFile type="UnstructuredGrid"  version="0.1"  >
<UnstructuredGrid>
<Piece  NumberOfPoints="651" NumberOfCells="1200">
<Points>
<DataArray  type="Float64"  NumberOfComponents="3"  format="ascii">0 0 0  50000 0 0  100000 0 0  150000 0 0  200000 0 0  250000 0 0  300000 0 0  350000 0 0  400000 0 0  450000 0 0  500000 0 0  550000 0 0  600000 0 0  650000 0 0  700000 0 0  750000 0 0  800000 0 0  850000 0 0  900000 0 0  950000 0 0  1000000 0 0  0 50000 0  50000 50000 0  100000 50000 0  150000 50000 0  200000 50000 0  250000 50000 0  300000 50000 0  350000 50000 0  400000 50000 0  450000 50000 0  500000 50000 0  550000 50000 0  600000 50000 0  650000 50000 0  700000 50000 0  750000 50000 0  800000 50000 0  850000 50000 0  900000 50000 0  950000 50000 0  1000000 50000 0  0 100000 0  50000 100000 0  100000 100000 0  150000 100000 0  200000 100000 0  250000 100000 0  300000 100000 0  350000 100000 0  400000 100000 0  450000 100000 0  500000 100000 0  550000 100000 0  600000 100000 0  650000 100000 0  700000 100000 0  750000 100000 0  800000 100000 0  850000 100000 0  900000 100000 0  950000 100000 0  1000000 100000 0  0 150000 0  50000 150000 0  100000 150000 0  150000 150000 0  200000 150000 0  250000 150000 0  300000 150000 0  350000 150000 0  400000 150000 0  450000 150000 0  500000 150000 0  550000 150000 0  600000 150000 0  650000 150000 0  700000 150000 0  750000 150000 0  800000 150000 0  850000 150000 0  900000 150000 0  950000 150000 0  1000000 150000 0  0 200000 0  50000 200000 0  100000 200000 0  150000 200000 0  200000 200000 0  250000 200000 0  300000 200000 0  350000 200000 0  400000 200000 0  450000 200000 0  500000 200000 0  550000 200000 0  600000 200000 0  650000 200000 0  700000 200000 0  750000 200000 0  800000 200000 0  850000 200000 0  900000 200000 0  950000 200000 0  1000000 200000 0  0 250000 0  50000 250000 0  100000 250000 0  150000 250000 0  200000 250000 0  250000 250000 0  300000 250000 0  350000 250000 0  400000 250000 0  450000 250000 0  500000 250000 0  550000 250000 0  600000 250000 0  650000 250000 0  700000 250000 0  750000 250000 0  800000 250000 0  850000 250000 0  900000 250000 0  950000 250000 0  1000000 250000 0  0 300000 0  50000 300000 0  100000 300000 0  150000 300000 0  200000 300000 0  250000 300000 0  300000 300000 0  350000 300000 0  400000 300000 0  450000 300000 0  500000 300000 0  550000 300000 0  600000 300000 0  650000 300000 0  700000 300000 0  750000 300000 0  800000 300000 0  850000 300000 0  900000 300000 0  950000 300000 0  1000000 300000 0  0 350000 0  50000 350000 0  100000 350000 0  150000 350000 0  200000 350000 0  250000 350000 0  300000 350000 0  350000 350000 0  400000 350000 0  450000 350000 0  500000 350000 0  550000 350000 0  600000 350000 0  650000 350000 0  700000 350000 0  750000 350000 0  800000 350000 0  850000 350000 0  900000 350000 0  950000 350000 0  1000000 350000 0  0 400000 0  50000 400000 0  100000 400000 0  150000 400000 0  200000 400000 0  250000 400000 0  300000 400000 0  350000 400000 0  400000 400000 0  450000 400000 0  500000 400000 0  550000 400000 0  600000 400000 0  650000 400000 0  700000 400000 0  750000 400000 0  800000 400000 0  850000 400000 0  900000 400000 0  950000 400000 0  1000000 400000 0  0 450000 0  50000 450000 0  100000 450000 0  150000 450000 0  200000 450000 0  250000 450000 0  300000 450000 0  350000 450000 0  400000 450000 0  450000 450000 0  500000 450000 0  550000 450000 0  600000 450000 0  650000 450000 0  700000 450000 0  750000 450000 0  800000 450000 0  850000 450000 0  900000 450000 0  950000 450000 0  1000000 450000 0  0 500000 0  50000 500000 0  100000 500000 0  150000 500000 0  200000 500000 0  250000 500000 0  300000 500000 0  350000 500000 0  400000 500000 0  450000 500000 0  500000 500000 0  550000 500000 0  600000 500000 0  650000 500000 0  700000 500000 0  750000 500000 0  800000 500000 0  850000 500000 0  900000 500000 0  950000 500000 0  1000000 500000 0  0 550000 0  50000 550000 0  100000 550000 0  150000 550000 0  200000 550000 0  250000 550000 0  300000 550000 0  350000 550000 0  400000 550000 0  450000 550000 0  500000 550000 0  550000 550000 0  600000 550000 0  650000 550000 0  700000 550000 0  750000 550000 0  800000 550000 0  850000 550000 0  900000 550000 0  950000 550000 0  1000000 550000 0  0 600000 0  50000 600000 0  100000 600000 0  150000 600000 0  200000 600000 0  250000 600000 0  300000 600000 0  350000 600000 0  400000 600000 0  450000 600000 0  500000 600000 0  550000 600000 0  600000 600000 0  650000 600000 0  700000 600000 0  750000 600000 0  800000 600000 0  850000 600000 0  900000 600000 0  950000 600000 0  1000000 600000 0  0 650000 0  50000 650000 0  100000 650000 0  150000 650000 0  200000 650000 0  250000 650000 0  300000 650000 0  350000 650000 0  400000 650000 0  450000 650000 0  500000 650000 0  550000 650000 0  600000 650000 0  650000 650000 0  700000 650000 0  750000 650000 0  800000 650000 0  850000 650000 0  900000 650000 0  950000 650000 0  1000000 650000 0  0 700000 0  50000 700000 0  100000 700000 0  150000 700000 0  200000 700000 0  250000 700000 0  300000 700000 0  350000 700000 0  400000 700000 0  450000 700000 0  500000 700000 0  550000 700000 0  600000 700000 0  650000 700000 0  700000 700000 0  750000 700000 0  800000 700000 0  850000 700000 0  900000 700000 0  950000 700000 0  1000000 700000 0  0 750000 0  50000 750000 0  100000 750000 0  150000 750000 0  200000 750000 0  250000 750000 0  300000 750000 0  350000 750000 0  400000 750000 0  450000 750000 0  500000 750000 0  550000 750000 0  600000 750000 0  650000 750000 0  700000 750000 0  750000 750000 0  800000 750000 0  850000 750000 0  900000 750000 0  950000 750000 0  1000000 750000 0  0 800000 0  50000 800000 0  100000 800000 0  150000 800000 0  200000 800000 0  250000 800000 0  300000 800000 0  350000 800000 0  400000 800000 0  450000 800000 0  500000 800000 0  550000 800000 0  600000 800000 0  650000 800000 0  700000 800000 0  750000 800000 0  800000 800000 0  850000 800000 0  900000 800000 0  950000 800000 0  1000000 800000 0  0 850000 0  50000 850000 0  100000 850000 0  150000 850000 0  200000 850000 0  250000 850000 0  300000 850000 0  350000 850000 0  400000 850000 0  450000 850000 0  500000 850000 0  550000 850000 0  600000 850000 0  650000 850000 0  700000 850000 0  750000 850000 0  800000 850000 0  850000 850000 0  900000 850000 0  950000 850000 0  1000000 850000 0  0 900000 0  50000 900000 0  100000 900000 0  150000 900000 0  200000 900000 0  250000 900000 0  300000 900000 0  350000 900000 0  400000 900000 0  450000 900000 0  500000 900000 0  550000 900000 0  600000 900000 0  650000 900000 0  700000 900000 0  750000 900000 0  800000 900000 0  850000 900000 0  900000 900000 0  950000 900000 0  1000000 900000 0  0 950000 0  50000 950000 0  100000 950000 0  150000 950000 0  200000 950000 0  250000 950000 0  300000 950000 0  350000 950000 0  400000 950000 0  450000 950000 0  500000 950000 0  550000 950000 0  600000 950000 0  650000 950000 0  700000 950000 0  750000 950000 0  800000 950000 0  850000 950000 0  900000 950000 0  950000 950000 0  1000000 950000 0  0 1000000 0  50000 1000000 0  100000 1000000 0  150000 1000000 0  200000 1000000 0  250000 1000000 0  300000 1000000 0  350000 1000000 0  400000 1000000 0  450000 1000000 0  500000 1000000 0  550000 1000000 0  600000 1000000 0  650000 1000000 0  700000 1000000 0  750000 1000000 0  800000 1000000 0  850000 1000000 0  900000 1000000 0  950000 1000000 0  1000000 1000000 0  0 1050000 0  50000 1050000 0  100000 1050000 0  150000 1050000 0  200000 1050000 0  250000 1050000 0  300000 1050000 0  350000 1050000 0  400000 1050000 0  450000 1050000 0  500000 1050000 0  550000 1050000 0  600000 1050000 0  650000 1050000 0  700000 1050000 0  750000 1050000 0  800000 1050000 0  850000 1050000 0  900000 1050000 0  950000 1050000 0  1000000 1050000 0  0 1100000 0  50000 1100000 0  100000 1100000 0  150000 1100000 0  200000 1100000 0  250000 1100000 0  300000 1100000 0  350000 1100000 0  400000 1100000 0  450000 1100000 0  500000 1100000 0  550000 1100000 0  600000 1100000 0  650000 1100000 0  700000 1100000 0  750000 1100000 0  800000 1100000 0  850000 1100000 0  900000 1100000 0  950000 1100000 0  1000000 1100000 0  0 1150000 0  50000 1150000 0  100000 1150000 0  150000 1150000 0  200000 1150000 0  250000 1150000 0  300000 1150000 0  350000 1150000 0  400000 1150000 0  450000 1150000 0  500000 1150000 0  550000 1150000 0  600000 1150000 0  650000 1150000 0  700000 1150000 0  750000 1150000 0  800000 1150000 0  850000 1150000 0  900000 1150000 0  950000 1150000 0  1000000 1150000 0  0 1200000 0  50000 1200000 0  100000 1200000 0  150000 1200000 0  200000 1200000 0  250000 1200000 0  300000 1200000 0  350000 1200000 0  400000 1200000 0  450000 1200000 0  500000 1200000 0  550000 1200000 0  600000 1200000 0  650000 1200000 0  700000 1200000 0  750000 1200000 0  800000 1200000 0  850000 1200000 0  900000 1200000 0  950000 1200000 0  1000000 1200000 0  0 1250000 0  50000 1250000 0  100000 1250000 0  150000 1250000 0  200000 1250000 0  250000 1250000 0  300000 1250000 0  350000 1250000 0  400000 1250000 0  450000 1250000 0  500000 1250000 0  550000 1250000 0  600000 1250000 0  650000 1250000 0  700000 1250000 0  750000 1250000 0  800000 1250000 0  850000 1250000 0  900000 1250000 0  950000 1250000 0  1000000 1250000 0  0 1300000 0  50000 1300000 0  100000 1300000 0  150000 1300000 0  200000 1300000 0  250000 1300000 0  300000 1300000 0  350000 1300000 0  400000 1300000 0  450000 1300000 0  500000 1300000 0  550000 1300000 0  600000 1300000 0  650000 1300000 0  700000 1300000 0  750000 1300000 0  800000 1300000 0  850000 1300000 0  900000 1300000 0  950000 1300000 0  1000000 1300000 0  0 1350000 0  50000 1350000 0  100000 1350000 0  150000 1350000 0  200000 1350000 0  250000 1350000 0  300000 1350000 0  350000 1350000 0  400000 1350000 0  450000 1350000 0  500000 1350000 0  550000 1350000 0  600000 1350000 0  650000 1350000 0  700000 135
[...]
<PointData  Vectors="f_4485"> 
<DataArray  type="Float64"  Name="f_4485"  NumberOfComponents="3" format="ascii">-2.4779952792972051e-10 1.9744613751612455e-10 0.0000000000000000e+00  -4.5279359669749258e-10 1.5784032316643130e-10 0.0000000000000000e+00  -8.1735972229587572e-10 1.4130524832107188e-10 0.0000000000000000e+00  -1.1697328404507300e-09 1.2704267940803148e-10 0.0000000000000000e+00  -1.4924260397306720e-09 1.1058156725891692e-10 0.0000000000000000e+00  -1.7760328887815578e-09 9.1398066225562987e-11 0.0000000000000000e+00  -2.0129073608888118e-09 6.9666313813662272e-11 0.0000000000000000e+00  -2.1968661118372537e-09 4.5803400899702210e-11 0.0000000000000000e+00  -2.3231815401088446e-09 2.0358187505597142e-11 0.0000000000000000e+00  -2.3886638921191317e-09 -6.0435756708673220e-12 0.0000000000000000e+00  -2.3917291696876601e-09 -3.2734495002069564e-11 0.0000000000000000e+00  -2.3324319799732218e-09 -5.9032854693593291e-11 0.0000000000000000e+00  -2.2124594936584565e-09 -8.4266873035605778e-11 0.0000000000000000e+00  -2.0350866897057650e-09 -1.0779841626101701e-10 0.0000000000000000e+00  -1.8051012123926697e-09 -1.2904934537938457e-10 0.0000000000000000e+00  -1.5287478813113457e-09 -1.4754098375806233e-10 0.0000000000000000e+00  -1.2139541292062670e-09 -1.6298573423888307e-10 0.0000000000000000e+00  -8.7203111772383301e-10 -1.7553997521429974e-10 0.0000000000000000e+00  -5.2568825289508141e-10 -1.8556246806904968e-10 0.0000000000000000e+00  -2.4302561470849907e-10 -1.7964840534836127e-10 0.0000000000000000e+00  -1.2392931788073628e-10 -1.1754638700397810e-10 0.0000000000000000e+00  -2.1163410212303216e-10 3.8642134564080916e-10 0.0000000000000000e+00  -3.7093928250493074e-10 3.5778493021513631e-10 0.0000000000000000e+00  -6.5480356896667112e-10 3.7248769426309725e-10 0.0000000000000000e+00  -9.7526719348315124e-10 3.5421697112355057e-10 0.0000000000000000e+00  -1.2812199077129528e-09 3.2195886891578084e-10 0.0000000000000000e+00  -1.5563227216155441e-09 2.7970686024972576e-10 0.0000000000000000e+00  -1.7918441840539136e-09 2.2950634765641686e-10 0.0000000000000000e+00  -1.9811302677479192e-09 1.7302236125798918e-10 0.0000000000000000e+00  -2.1190512256508224e-09 1.1188683577523292e-10 0.0000000000000000e+00  -2.2019788099276516e-09 4.7777847702452077e-11 0.0000000000000000e+00  -2.2278088365441372e-09 -1.7582220113392246e-11 0.0000000000000000e+00  -2.1959828513039466e-09 -8.2453417270498476e-11 0.0000000000000000e+00  -2.1074913425745094e-09 -1.4511205502612144e-10 0.0000000000000000e+00  -1.9648533641049553e-09 -2.0388448187324984e-10 0.0000000000000000e+00  -1.7720798482155079e-09 -2.5717492843005855e-10 0.0000000000000000e+00  -1.5346551486540453e-09 -3.0347665763439862e-10 0.0000000000000000e+00  -1.2596746073931237e-09 -3.4132725662488058e-10 0.0000000000000000e+00  -9.5673493008921174e-10 -3.6897464521116492e-10 0.0000000000000000e+00  -6.4211354749519170e-10 -3.8230642647500871e-10 0.0000000000000000e+00  -3.5613614057648470e-10 -3.6569169567516101e-10 0.0000000000000000e+00  -1.9176368282447536e-10 -2.2779003260980824e-10 0.0000000000000000e+00  -2.0750121762418318e-10 7.2151045173419663e-10 0.0000000000000000e+00  -3.7794155486139099e-10 6.4291213047041470e-10 0.0000000000000000e+00  -6.4679980187559494e-10 6.5646330975776810e-10 0.0000000000000000e+00  -9.3900210059131276e-10 6.2895181344669668e-10 0.0000000000000000e+00  -1.2204851885925390e-09 5.7570387881546599e-10 0.0000000000000000e+00  -1.4760068947157177e-09 5.0345578577828574e-10 0.0000000000000000e+00  -1.6957975879315589e-09 4.1633707677194793e-10 0.0000000000000000e+00  -1.8729633362447184e-09 3.1761425825603816e-10 0.0000000000000000e+00  -2.0024048744507578e-09 2.1034014793494145e-10 0.0000000000000000e+00  -2.0805656217203309e-09 9.7567864940625332e-11 0.0000000000000000e+00  -2.1053926289162377e-09 -1.7607222169536618e-11 0.0000000000000000e+00  -2.0763323166997599e-09 -1.3207037975767612e-10 0.0000000000000000e+00  -1.9943230510241997e-09 -2.4273183805510541e-10 0.0000000000000000e+00  -1.8617758186140020e-09 -3.4657221777258437e-10 0.0000000000000000e+00  -1.6825482062038186e-09 -4.4067169145160501e-10 0.0000000000000000e+00  -1.4619420195208868e-09 -5.2219220849246897e-10 0.0000000000000000e+00  -1.2068361410240416e-09 -5.8823334023785220e-10 0.0000000000000000e+00  -9.2636809910082096e-10 -6.3533763436648265e-10 0.0000000000000000e+00  -6.3472779174766846e-10 -6.5805317064886795e-10 0.0000000000000000e+00  -3.6460508993832308e-10 -6.4572538523394138e-10 0.0000000000000000e+00  -2.0222524363983843e-10 -4.8653435005533478e-10 0.0000000000000000e+00  -2.1394388929852364e-10 1.0513532566082215e-09 0.0000000000000000e+00  -3.7776533859116506e-10 9.5145120300543195e-10 0.0000000000000000e+00  -6.4253714007869736e-10 9.4996027576973517e-10 0.0000000000000000e+00  -9.2373177080728671e-10 9.0875316016900655e-10 0.0000000000000000e+00  -1.1913084280678069e-09 8.3358454737711019e-10 0.0000000000000000e+00  -1.4334673862287609e-09 7.3105948043598944e-10 0.0000000000000000e+00  -1.6418377303993514e-09 6.0657951149167090e-10 0.0000000000000000e+00  -1.8098713611983261e-09 4.6487255704344669e-10 0.0000000000000000e+00  -1.9325983928283933e-09 3.1045311543163677e-10 0.0000000000000000e+00  -2.0065459514733752e-09 1.4782306599794188e-10 0.0000000000000000e+00  -2.0297097035448320e-09 -1.8477102417273752e-11 0.0000000000000000e+00  -2.0015435063503710e-09 -1.8389173116299022e-10 0.0000000000000000e+00  -1.9229450756495154e-09 -3.4390437260437133e-10 0.0000000000000000e+00  -1.7962290893016674e-09 -4.9409735605259931e-10 0.0000000000000000e+00  -1.6250872536131168e-09 -6.3019590830889586e-10 0.0000000000000000e+00  -1.4145478410673009e-09 -7.4807115044659392e-10 0.0000000000000000e+00  -1.1709969444262251e-09 -8.4366559530575994e-10 0.0000000000000000e+00  -9.0256493680335961e-10 -9.1281637780229626e-10 0.0000000000000000e+00  -6.2142793587483573e-10 -9.5095863975853640e-10 0.0000000000000000e+00  -3.5797899610866791e-10 -9.5163852416960577e-10 0.0000000000000000e+00  -2.0368293872495941e-10 -8.0118198231724976e-10 0.0000000000000000e+00  -2.2594233264437090e-10 1.3742362260310910e-09 0.0000000000000000e+00  -3.7893563166666880e-10 1.2616199493648775e-09 0.0000000000000000e+00  -6.4148959573270106e-10 1.2434607166934078e-09 0.0000000000000000e+00  -9.1939093528648232e-10 1.1845527458585367e-09 0.0000000000000000e+00  -1.1813624802763774e-09 1.0861925183810911e-09 0.0000000000000000e+00  -1.4168910661580861e-09 9.5356818054857068e-10 0.0000000000000000e+00  -1.6188183995844955e-09 7.9251723919541566e-10 0.0000000000000000e+00  -1.7812887889561032e-09 6.0885687155338710e-10 0.0000000000000000e+00  -1.8996710454697934e-09 4.0840972698971726e-10 0.0000000000000000e+00  -1.9706584492261306e-09 1.9706249124285091e-10 0.0000000000000000e+00  -1.9923260118404807e-09 -1.9233641002623694e-11 0.0000000000000000e+00  -1.9641477086977319e-09 -2.3451118898647491e-10 0.0000000000000000e+00  -1.8869869331863230e-09 -4.4286139254947409e-10 0.0000000000000000e+00  -1.7630630344912627e-09 -6.3851815370640154e-10 0.0000000000000000e+00  -1.5958923893237876e-09 -8.1593770116844149e-10 0.0000000000000000e+00  -1.3902085998386465e-09 -9.6986653565178198e-10 0.0000000000000000e+00  -1.1519207434696303e-09 -1.0954080335625934e-09 0.0000000000000000e+00  -8.8847801727169146e-10 -1.1881463669723486e-09 0.0000000000000000e+00  -6.1155377921734053e-10 -1.2442710409620416e-09 0.0000000000000000e+00  -3.5285487610649079e-10 -1.2586588123676636e-09 0.0000000000000000e+00  -2.1064993590476469e-10 -1.1188623498319691e-09 0.0000000000000000e+00  -2.4251167146105632e-10 1.6941795575276907e-09 0.0000000000000000e+00  -3.8387151686803528e-10 1.5718626669752748e-09 0.0000000000000000e+00  -6.4561926778881154e-10 1.5379616336535829e-09 0.0000000000000000e+00  -9.2413854370261364e-10 1.4593544422156304e-09 0.0000000000000000e+00  -1.1856759012029517e-09 1.3362143487971770e-09 0.0000000000000000e+00  -1.4195768312345786e-09 1.1728702139310688e-09 0.0000000000000000e+00  -1.6192166934808460e-09 9.7531447360177173e-10 0.0000000000000000e+00  -1.7792647244997917e-09 7.5016271486896737e-10 0.0000000000000000e+00  -1.8954454192518887e-09 5.0436419776700815e-10 0.0000000000000000e+00  -1.9646640235287081e-09 2.4508389983866959e-10 0.0000000000000000e+00  -1.9851084351933445e-09 -2.0385203945984386e-11 0.0000000000000000e+00  -1.9562944580563895e-09 -2.8471853007724832e-10 0.0000000000000000e+00  -1.8790676974287507e-09 -5.4066929933272192e-10 0.0000000000000000e+00  -1.7555706967497482e-09 -7.8118739557963818e-10 0.0000000000000000e+00  -1.5891773986610081e-09 -9.9954573093832239e-10 0.0000000000000000e+00  -1.3844057301881526e-09 -1.1894802106496551e-09 0.0000000000000000e+00  -1.1468949512728611e-09 -1.3453669668539542e-09 0.0000000000000000e+00  -8.8391557609683365e-10 -1.4624753926825588e-09 0.0000000000000000e+00  -6.0758623190505105e-10 -1.5370803734980937e-09 0.0000000000000000e+00  -3.5195958236118053e-10 -1.5639588582340909e-09 0.0000000000000000e+00  -2.2247103881846125e-10 -1.4318240282291509e-09 0.0000000000000000e+00  -2.6330621671703115e-10 2.0148408355564313e-09 0.0000000000000000e+00  -3.9270281260921241e-10 1.8840756891240670e-09 0.0000000000000000e+00  -6.5509119657638912e-10 1.8354712945052907e-09 0.0000000000000000e+00  -9.3666011965727639e-10 1.7364295765594909e-09 0.0000000000000000e+00  -1.2009021066049291e-09 1.5872300254875267e-09 0.0000000000000000e+00  -1.4364647943976489e-09 1.3921488553082658e-09 0.0000000000000000e+00  -1.6367700285600074e-09 1.1574838723383750e-09 0.0000000000000000e+00  -1.7967469703933591e-09 8.9057480113773827e-10 0.0000000000000000e+00  -1.9123807356165027e-09 5.9938857322957747e-10 0.0000000000000000e+00  -1.9807724460293171e-09 2.9227724567643866e-10 0.0000000000000000e+00  -2.0002341853986950e-09 -2.2195733154743253e-11 0.0000000000000000e+00  -1.9703417478086002e-09 -3.3540795372062753e-10 0.0000000000000000e+00  -1.8919446318329037e-09 -6.3882855913477306e-10 0.0000000000000000e+00  -1.7671402420566061e-09 -9.2417569946265239e-10 0.0000000000000000e+00  -1.5992176188809410e-09 -1.1835881784689214e-09 0.0000000000000000e+00  -1.3925914253940026e-09 -1.4098222393315062e-09 0.0000000000000000e+00  -1.1528406437530955e-09 -1.5964899051038191e-09 0.0000000000000000e+00  -8.8739154459483259e-10 -1.7383380414053747e-09 0.0000000000000000e+00  -6.0919800364495018e-10 -1.8312631074409281e-09 0.0000000000000000e+00  -3.5501492604024343e-10 -1.8694729966308746e-09 0.0000000000000000e+00  -2.3852064880811511e-10 -1.7419092042477447e-09 0.0000000000000000e+00  -2.8819019649537029e-10 2.3389811416501180e-09 0.0000000000000000e+00  -4.0481393529748881e-10 2.2004126985112104e-09 0.0000000000000000e+00  -6.6885210296281162e-10 2.1378185031398112e-09 0.0000000000000000e+00  -9.5497103463871896e-10 2.0180114007995153e-09 0.0000000000000000e+00  -1.2237044433618408e-09 1.8417760079965858e-09 0.0000000000000000e+00  -1.4628278976030855e-09 1.6138481468064194e-09 0.0000000000000000e+00  -1.6655727885207069e-09 1.3410979022442279e-09 0.0000000000000000e+00  -1.8269433253966099e-09 1.0316603832837610e-09 0.0000000000000000e+00  -1.9430847888741054e-09 6.9450062654764947e-10 0.0000000000000000e+00  -2.0112571532454864e-09 3.3910790107288793e-10 0.0000000000000000e+00  -2.0298930434761382e-09 -2.4739591291187883e-11 0.0000000000000000e+00  -1.9986386343144727e-09 -3.8717465903386167e-10 0.0000000000000000e+00  -1.9183650108592258e-09 -7.3842861679991961e-10 0.0000000000000000e+00  -1.7911528767540982e-09 -1.0690224779833591e-09 0.0000000000000000e+00  -1.6202568011711547e-09 -1.3699748313377454e-09 0.0000000000000000e+00  -1.4100759684505898e-09 -1.6330376612986422e-09 0.0000000000000000e+00  -1.1662635510392935e-09 -1.8509662502480205e-09 0.0000000000000000e+00  -8.9656590731096509e-10 -2.0177974820844519e-09 0.0000000000000000e+00  -6.1492632489643599e-10 -2.1288043156653409e-09 0.0000000000000000e+00  -3.6111532319576202e-10 -2.1775068037597833e-09 0.0000000000000000e+00  -2.5857178758952278e-10 -2.0521541771730774e-09 0.0000000000000000e+00  -3.1714492983520318e-10 2.6682239954120392e-09 0.0000000000000000e+00  -4.1926149032607302e-10 2.5224103032281665e-09 0.0000000000000000e+00  -6.8515585201211039e-10 2.4461895820338088e-09 0.0000000000000000e+00  -9.7638024039080203e-10 2.3053117212439750e-09 0.0000000000000000e+00  -1.2502541450647034e-09 2.1011893241539246e-09 0.0000000000000000e+00  -1.4936325872552905e-09 1.8393074718614854e-09 0.0000000000000000e+00  -1.6994820425451189e-09 1.5273435815929075e-09 0.0000000000000000e+00  -1.8628031682766388e-09 1.1743512788626127e-09 0.0000000000000000e+00  -1.9798504969643267e-09 7.9033038401486124e-10 0.0000000000000000e+00  -2.0480230013060097e-09 3.8589295277034441e-10 0.0000000000000000e+00  -2.0658730697505995e-09 -2.8007377944679696e-11 0.0000000000000000e+00  -2.0331233557485272e-09 -4.4030537971997429e-10 0.0000000000000000e+00  -1.9506737817407120e-09 -8.4003554153748268e-10 0.0000000000000000e+00  -1.8205985281970469e-09 -1.2165450809105132e-09 0.0000000000000000e+00  -1.6461378358602398e-09 -1.5597258023962709e-09 0.0000000000000000e+00  -1.4317127565197953e-09 -1.8602762694587220e-09 0.0000000000000000e+00  -1.1831048093180954e-09 -2.1099943404201829e-09 0.0000000000000000e+00  -9.0844000210120256e-10 -2.3020642458337443e-09 0.0000000000000000e+00  -6.2273167141187930e-10 -2.4310041525940455e-09 0.0000000000000000e+00  -3.6913078696596314e-10 -2.4896288656446603e-09 0.0000000000000000e+00  -2.8255897278169969e-10 -2.3648668165482822e-09 0.0000000000000000e+00  -3.5022618328722266e-10 3.0029003594302450e-09 0.0000000000000000e+00  -4.3487577906670036e-10 2.8506029064189871e-09 0.0000000000000000e+00  -7.0174149965703940e-10 2.7608346253496576e-09 0.0000000000000000e+00  -9.9751202022280451e-10 2.5984793869840828e-09 0.0000000000000000e+00  -1.2760002108772172e-09 2.3656374733761280e-09 0.0000000000000000e+00  -1.5231341983302671e-09 2.0687265501873025e-09 0.0000000000000000e+00  -1.7316365965525660e-09 1.7164176614711772e-09 0.0000000000000000e+00  -1.8965184452286348e-09 1.3188101431361692e-09 0.0000000000000000e+00  -2.0141590809720597e-09 8.8699576845622477e-10 0.0000000000000000e+00  -2.0821161065495431e-09 4.3270994374955883e-10 0.0000000000000000e+00  -2.0990790276534133e-09 -3.1953884171175712e-11 0.0000000000000000e+00  -2.0648541274278769e-09 -4.9478339281394047e-10 0.0000000000000000e+00  -1.9803633535431337e-09 -9.4366292074253461e-10 0.0000000000000000e+00  -1.8476558462225581e-09 -1.3667907779577367e-09 0.0000000000000000e+00  -1.6699340595836601e-09 -1.7529209279973368e-09 0.0000000000000000e+00  -1.4516198302700669e-09 -2.0916432633007754e-09 0.0000000000000000e+00  -1.1986081797858113e-09 -2.3737013464180927e-09 0.0000000000000000e+00  -9.1940128421489805e-10 -2.5913094314122119e-09 0.0000000000000000e+00  -6.3014009588151083e-10 -2.7381394226782902e-09 0.0000000000000000e+00  -3.7775560493161730e-10 -2.8063025348735923e-09 0.0000000000000000e+00  -3.1049259052904563e-10 -2.6811813655100046e-09 0.0000000000000000e+00  -3.8754280503774479e-10 3.3418618652619758e-09 0.0000000000000000e+00  -4.5026027603765681e-10 3.1842548380105128e-09 0.0000000000000000e+00  -7.1584361557311215e-10 3.0807995915555231e-09 0.0000000000000000e+00  -1.0142455666336367e-09 2.8964405329221504e-09 0.0000000000000000e+00  -1.2954704959667329e-09 2.6340396793261848e-09 0.0000000000000000e+00  -1.5445389718019260e-09 2.3010998033858059e-09 0.0000000000000000e+00  -1.7540182235614227e-09 1.9074457481947138e-09 0.0000000000000000e+00  -1.9190244734561452e-09 1.4643407146734644e-09 0.0000000000000000e+00  -2.0361492818635779e-09 9.8402299760592321e-10 0.0000000000000000e+00  -2.1031806363322337e-09 4.7934435713852522e-10 0.0000000000000000e+00  -2.1189914673841167e-09 -3.6514161355110857e-11 0.0000000000000000e+00  -2.0834844150699917e-09 -5.5026709358937890e-10 0.0000000000000000e+00  -1.9975799729152212e-09 -1.0487188165804066e-09 0.0000000000000000e+00  -1.8632470168199770e-09 -1.5189617579629839e-09 0.0000000000000000e+00  -1.6835736629533274e-09 -1.9486106068263665e-09 0.0000000000000000e+00  -1.4628979892990537e-09 -2.3260936507770019e-09 0.0000000000000000e+00  -1.2071498945549962e-09 -2.6410030387548874e-09 0.0000000000000000e+00  -9.2515556884868138e-10 -2.8844663603894883e-09 0.0000000000000000e+00  -6.3422526400139292e-10 -3.0492154314190838e-09 0.0000000000000000e+00  -3.8548067636070699e-10 -3.1266507909183741e-09 0.0000000000000000e+00  -3.4242711874498184e-10 -3.0008715457691476e-09 0.0000000000000000e+00  -4.2924670367879398e-10 3.6822320958141491e-09 0.0000000000000000e+00  -4.6374871782633976e-10 3.5210873415285099e-09 0.0000000000000000e+00  -7.2411852098143915e-10 3.4036386089550275e-09 0.0000000000000000e+00  -1.0215783363780558e-09 3.1966503657271434e-09 0.0000000000000000e+00  -1.3020352055082231e-09 2.9038694463806030e-09 0.0000000000000000e+00  -1.5496535270080488e-09 2.5340515954984017e-09 0.0000000000000000e+00  -1.7569988789652959e-09 2.0983361252070959e-09 0.0000000000000000e+00  -1.9194692887109421e-09 1.6092617180990361e-09 0.0000000000000000e+00  -2.0340355453273014e-09 1.0802517317995500e-09 0.0000000000000000e+00  -2.0988508190685847e-09 5.2523827940337936e-10 0.0000000000000000e+00  -2.1130556755340923e-09 -4.1603610670854508e-11 0.0000000000000000e+00  -2.0766707839737291e-09 -6.0603782306773870e-10 0.0000000000000000e+00  -1.9905716952792201e-09 -1.1539065492819557e-09 0.0000000000000000e+00  -1.8565462199062162e-09 -1.6712777525317049e-09 0.0000000000000000e+00  -1.6774271351486332e-09 -2.1446486595271288e-09 0.0000000000000000e+00  -1.4573108907193736e-09 -2.5612389894323382e-09 0.0000000000000000e+00  -1.2020143165364369e-09 -2.9093826294160978e-09 0.0000000000000000e+00  -9.2058414802919413e-10 -3.1789817024491075e-09 0.0000000000000000e+00  -6.3151940449972183e-10 -3.3617041064819702e-09 0.0000000000000000e+00  -3.9053834961147742e-10 -3.4482106885212405e-09 0.0000000000000000e+00  -3.7844561935075421e-10 -3.3221570438025494e-09 0.0000000000000000e+00  -4.7553086340387161e-10 4.0190824502085828e-09 0.0000000000000000e+00  -4.7334046684677951e-10 3.8569569517499359e-09 0.0000000000000000e+00  -7.2252076258799096e-10 3.7250760788432070e-09 0.0000000000000000e+00  -1.0134282116998110e-09 3.4947641408554477e-09 0.0000000000000000e+00  -1.2876133860945452e-09 3.1708517883316826e-09 0.0000000000000000e+00  -1.5284830134801743e-09 2.7635649714280181e-09 0.0000000000000000e+00  -1.7288337496606157e-09 2.2855437737106458e-09 0.0000000000000000e+00  -1.8846182784514321e-09 1.7507149411509856e-09 0.0000000000000000e+00  -1.9934487685486133e-09 1.1736998501873061e-09 0.0000000000000000e+00  -2.0540557655471782e-09 5.6942385131994417e-10 0.0000000000000000e+00  -2.0659793994702691e-09 -4.7108683147201322e-11 0.0000000000000000e+00  -2.0293917413553566e-09 -6.6091450644782979e-10 0.0000000000000000e+00  -1.9450547088236864e-09 -1.2570700302983748e-09 0.0000000000000000e+00  -1.8144164264625307e-09 -1.8207639368092587e-09 0.0000000000000000e+00  -1.6398320482281327e-09 -2.3374366901131927e-09 0.0000000000000000e+00  -1.4249071362256984e-09 -2.7930610388422064e-09 0.0000000000000000e+00  -1.1751119222946484e-09 -3.1745843246367256e-09 0.0000000000000000e+00  -8.9954575356094621e-10 -3.4704992027548102e-09 0.0000000000000000e+00  -6.1788325090578339e-10 -3.6712303487309545e-09 0.0000000000000000e+00  -3.9083112597761114e-10 -3.7666349473892966e-09 0.0000000000000000e+00  -4.1865067829584408e-10 -3.6414490094593833e-09 0.0000000000000000e+00  -5.2663561906281179e-10 4.3450204447718969e-09 0.0000000000000000e+00  -4.7662155247514952e-10 4.1854623617736960e-09 0.0000000000000000e+00  -7.0614336711483044e-10 4.0385955368484080e-09 0.0000000000000000e+00  -9.8238147810223762e-10 3.7842187834287380e-09 0.0000000000000000e+00  -1.2423132545113571e-09 3.4285541772025208e-09 0.0000000000000000e+00  -1.468