<?xml version="1.0"?>
<VTKFile type="UnstructuredGrid"  version="0.1"  >
<UnstructuredGrid>
<Piece  NumberOfPoints="651" NumberOfCells="1200">
<Points>
<DataArray  type="Float64"  NumberOfComponents="3"  format="ascii">0 0 0  50000 0 0  100000 0 0  150000 0 0  200000 0 0  250000 0 0  300000 0 0  350000 0 0  400000 0 0  450000 0 0  500000 0 0  550000 0 0  600000 0 0  650000 0 0  700000 0 0  750000 0 0  800000 0 0  850000 0 0  900000 0 0  950000 0 0  1000000 0 0  0 50000 0  50000 50000 0  100000 50000 0  150000 50000 0  200000 50000 0  250000 50000 0  300000 50000 0  350000 50000 0  400000 50000 0  450000 50000 0  500000 50000 0  550000 50000 0  600000 50000 0  650000 50000 0  700000 50000 0  750000 50000 0  800000 50000 0  850000 50000 0  900000 50000 0  950000 50000 0  1000000 50000 0  0 100000 0  50000 100000 0  100000 100000 0  150000 100000 0  200000 100000 0  250000 100000 0  300000 100000 0  350000 100000 0  400000 100000 0  450000 100000 0  500000 100000 0  550000 100000 0  600000 100000 0  650000 100000 0  700000 100000 0  750000 100000 0  800000 100000 0  850000 100000 0  900000 100000 0  950000 100000 0  1000000 100000 0  0 150000 0  50000 150000 0  100000 150000 0  150000 150000 0  200000 150000 0  250000 150000 0  300000 150000 0  350000 150000 0  400000 150000 0  450000 150000 0  500000 150000 0  550000 150000 0  600000 150000 0  650000 150000 0  700000 150000 0  750000 150000 0  800000 150000 0  850000 150000 0  900000 150000 0  950000 150000 0  1000000 150000 0  0 200000 0  50000 200000 0  100000 200000 0  150000 200000 0  200000 200000 0  250000 200000 0  300000 200000 0  350000 200000 0  400000 200000 0  450000 200000 0  500000 200000 0  550000 200000 0  600000 200000 0  650000 200000 0  700000 200000 0  750000 200000 0  800000 200000 0  850000 200000 0  900000 200000 0  950000 200000 0  1000000 200000 0  0 250000 0  50000 250000 0  100000 250000 0  150000 250000 0  200000 250000 0  250000 250000 0  300000 250000 0  350000 250000 0  400000 250000 0  450000 250000 0  500000 250000 0  550000 250000 0  600000 250000 0  650000 250000 0  700000 250000 0  750000 250000 0  800000 250000 0  850000 250000 0  900000 250000 0  950000 250000 0  1000000 250000 0  0 300000 0  50000 300000 0  100000 300000 0  150000 300000 0  200000 300000 0  250000 300000 0  300000 300000 0  350000 300000 0  400000 300000 0  450000 300000 0  500000 300000 0  550000 300000 0  600000 300000 0  650000 300000 0  700000 300000 0  750000 300000 0  800000 300000 0  850000 300000 0  900000 300000 0  950000 300000 0  1000000 300000 0  0 350000 0  50000 350000 0  100000 350000 0  150000 350000 0  200000 350000 0  250000 350000 0  300000 350000 0  350000 350000 0  400000 350000 0  450000 350000 0  500000 350000 0  550000 350000 0  600000 350000 0  650000 350000 0  700000 350000 0  750000 350000 0  800000 350000 0  850000 350000 0  900000 350000 0  950000 350000 0  1000000 350000 0  0 400000 0  50000 400000 0  100000 400000 0  150000 400000 0  200000 400000 0  250000 400000 0  300000 400000 0  350000 400000 0  400000 400000 0  450000 400000 0  500000 400000 0  550000 400000 0  600000 400000 0  650000 400000 0  700000 400000 0  750000 400000 0  800000 400000 0  850000 400000 0  900000 400000 0  950000 400000 0  1000000 400000 0  0 450000 0  50000 450000 0  100000 450000 0  150000 450000 0  200000 450000 0  250000 450000 0  300000 450000 0  350000 450000 0  400000 450000 0  450000 450000 0  500000 450000 0  550000 450000 0  600000 450000 0  650000 450000 0  700000 450000 0  750000 450000 0  800000 450000 0  850000 450000 0  900000 450000 0  950000 450000 0  1000000 450000 0  0 500000 0  50000 500000 0  100000 500000 0  150000 500000 0  200000 500000 0  250000 500000 0  300000 500000 0  350000 500000 0  400000 500000 0  450000 500000 0  500000 500000 0  550000 500000 0  600000 500000 0  650000 500000 0  700000 500000 0  750000 500000 0  800000 500000 0  850000 500000 0  900000 500000 0  950000 500000 0  1000000 500000 0  0 550000 0  50000 550000 0  100000 550000 0  150000 550000 0  200000 550000 0  250000 550000 0  300000 550000 0  350000 550000 0  400000 550000 0  450000 550000 0  500000 550000 0  550000 550000 0  600000 550000 0  650000 550000 0  700000 550000 0  750000 550000 0  800000 550000 0  850000 550000 0  900000 550000 0  950000 550000 0  1000000 550000 0  0 600000 0  50000 600000 0  100000 600000 0  150000 600000 0  200000 600000 0  250000 600000 0  300000 600000 0  350000 600000 0  400000 600000 0  450000 600000 0  500000 600000 0  550000 600000 0  600000 600000 0  650000 600000 0  700000 600000 0  750000 600000 0  800000 600000 0  850000 600000 0  900000 600000 0  950000 600000 0  1000000 600000 0  0 650000 0  50000 650000 0  100000 650000 0  150000 650000 0  200000 650000 0  250000 650000 0  300000 650000 0  350000 650000 0  400000 650000 0  450000 650000 0  500000 650000 0  550000 650000 0  600000 650000 0  650000 650000 0  700000 650000 0  750000 650000 0  800000 650000 0  850000 650000 0  900000 650000 0  950000 650000 0  1000000 650000 0  0 700000 0  50000 700000 0  100000 700000 0  150000 700000 0  200000 700000 0  250000 700000 0  300000 700000 0  350000 700000 0  400000 700000 0  450000 700000 0  500000 700000 0  550000 700000 0  600000 700000 0  650000 700000 0  700000 700000 0  750000 700000 0  800000 700000 0  850000 700000 0  900000 700000 0  950000 700000 0  1000000 700000 0  0 750000 0  50000 750000 0  100000 750000 0  150000 750000 0  200000 750000 0  250000 750000 0  300000 750000 0  350000 750000 0  400000 750000 0  450000 750000 0  500000 750000 0  550000 750000 0  600000 750000 0  650000 750000 0  700000 750000 0  750000 750000 0  800000 750000 0  850000 750000 0  900000 750000 0  950000 750000 0  1000000 750000 0  0 800000 0  50000 800000 0  100000 800000 0  150000 800000 0  200000 800000 0  250000 800000 0  300000 800000 0  350000 800000 0  400000 800000 0  450000 800000 0  500000 800000 0  550000 800000 0  600000 800000 0  650000 800000 0  700000 800000 0  750000 800000 0  800000 800000 0  850000 800000 0  900000 800000 0  950000 800000 0  1000000 800000 0  0 850000 0  50000 850000 0  100000 850000 0  150000 850000 0  200000 850000 0  250000 850000 0  300000 850000 0  350000 850000 0  400000 850000 0  450000 850000 0  500000 850000 0  550000 850000 0  600000 850000 0  650000 850000 0  700000 850000 0  750000 850000 0  800000 850000 0  850000 850000 0  900000 850000 0  950000 850000 0  1000000 850000 0  0 900000 0  50000 900000 0  100000 900000 0  150000 900000 0  200000 900000 0  250000 900000 0  300000 900000 0  350000 900000 0  400000 900000 0  450000 900000 0  500000 900000 0  550000 900000 0  600000 900000 0  650000 900000 0  700000 900000 0  750000 900000 0  800000 900000 0  850000 900000 0  900000 900000 0  950000 900000 0  1000000 900000 0  0 950000 0  50000 950000 0  100000 950000 0  150000 950000 0  200000 950000 0  250000 950000 0  300000 950000 0  350000 950000 0  400000 950000 0  450000 950000 0  500000 950000 0  550000 950000 0  600000 950000 0  650000 950000 0  700000 950000 0  750000 950000 0  800000 950000 0  850000 950000 0  900000 950000 0  950000 950000 0  1000000 950000 0  0 1000000 0  50000 1000000 0  100000 1000000 0  150000 1000000 0  200000 1000000 0  250000 1000000 0  300000 1000000 0  350000 1000000 0  400000 1000000 0  450000 1000000 0  500000 1000000 0  550000 1000000 0  600000 1000000 0  650000 1000000 0  700000 1000000 0  750000 1000000 0  800000 1000000 0  850000 1000000 0  900000 1000000 0  950000 1000000 0  1000000 1000000 0  0 1050000 0  50000 1050000 0  100000 1050000 0  150000 1050000 0  200000 1050000 0  250000 1050000 0  300000 1050000 0  350000 1050000 0  400000 1050000 0  450000 1050000 0  500000 1050000 0  550000 1050000 0  600000 1050000 0  650000 1050000 0  700000 1050000 0  750000 1050000 0  800000 1050000 0  850000 1050000 0  900000 1050000 0  950000 1050000 0  1000000 1050000 0  0 1100000 0  50000 1100000 0  100000 1100000 0  150000 1100000 0  200000 1100000 0  250000 1100000 0  300000 1100000 0  350000 1100000 0  400000 1100000 0  450000 1100000 0  500000 1100000 0  550000 1100000 0  600000 1100000 0  650000 1100000 0  700000 1100000 0  750000 1100000 0  800000 1100000 0  850000 1100000 0  900000 1100000 0  950000 1100000 0  1000000 1100000 0  0 1150000 0  50000 1150000 0  100000 1150000 0  150000 1150000 0  200000 1150000 0  250000 1150000 0  300000 1150000 0  350000 1150000 0  400000 1150000 0  450000 1150000 0  500000 1150000 0  550000 1150000 0  600000 1150000 0  650000 1150000 0  700000 1150000 0  750000 1150000 0  800000 1150000 0  850000 1150000 0  900000 1150000 0  950000 1150000 0  1000000 1150000 0  0 1200000 0  50000 1200000 0  100000 1200000 0  150000 1200000 0  200000 1200000 0  250000 1200000 0  300000 1200000 0  350000 1200000 0  400000 1200000 0  450000 1200000 0  500000 1200000 0  550000 1200000 0  600000 1200000 0  650000 1200000 0  700000 1200000 0  750000 1200000 0  800000 1200000 0  850000 1200000 0  900000 1200000 0  950000 1200000 0  1000000 1200000 0  0 1250000 0  50000 1250000 0  100000 1250000 0  150000 1250000 0  200000 1250000 0  250000 1250000 0  300000 1250000 0  350000 1250000 0  400000 1250000 0  450000 1250000 0  500000 1250000 0  550000 1250000 0  600000 1250000 0  650000 1250000 0  700000 1250000 0  750000 1250000 0  800000 1250000 0  850000 1250000 0  900000 1250000 0  950000 1250000 0  1000000 1250000 0  0 1300000 0  50000 1300000 0  100000 1300000 0  150000 1300000 0  200000 1300000 0  250000 1300000 0  300000 1300000 0  350000 1300000 0  400000 1300000 0  450000 1300000 0  500000 1300000 0  550000 1300000 0  600000 1300000 0  650000 1300000 0  700000 1300000 0  750000 1300000 0  800000 1300000 0  850000 1300000 0  900000 1300000 0  950000 1300000 0  1000000 1300000 0  0 1350000 0  50000 1350000 0  100000 1350000 0  150000 1350000 0  200000 1350000 0  250000 1350000 0  300000 1350000 0  350000 1350000 0  400000 1350000 0  450000 1350000 0  500000 1350000 0  550000 1350000 0  600000 1350000 0  650000 1350000 0  700000 135
[...]
<PointData  Vectors="f_4485"> 
<DataArray  type="Float64"  Name="f_4485"  NumberOfComponents="3" format="ascii">-2.4338843899992148e-10 2.0454943379041916e-10 0.0000000000000000e+00  -4.4808758908603301e-10 1.6378215100606792e-10 0.0000000000000000e+00  -8.1305694446573068e-10 1.4490687663453495e-10 0.0000000000000000e+00  -1.1661168487855383e-09 1.2850491111309021e-10 0.0000000000000000e+00  -1.4894098755513617e-09 1.1026114823981331e-10 0.0000000000000000e+00  -1.7734548043380114e-09 8.9548969263989920e-11 0.0000000000000000e+00  -2.0105902450170854e-09 6.6479001876293309e-11 0.0000000000000000e+00  -2.1946425133387483e-09 4.1435463028449177e-11 0.0000000000000000e+00  -2.3209051660974837e-09 1.4947618846789513e-11 0.0000000000000000e+00  -2.3862154836364317e-09 -1.2371433810171967e-11 0.0000000000000000e+00  -2.3890196405293387e-09 -3.9861999753437799e-11 0.0000000000000000e+00  -2.3294040510901830e-09 -6.6845490091347469e-11 0.0000000000000000e+00  -2.2090885618696131e-09 -9.2648133594367216e-11 0.0000000000000000e+00  -2.0313813584530187e-09 -1.1662312137664565e-10 0.0000000000000000e+00  -1.8011034278676304e-09 -1.3817371772403816e-10 0.0000000000000000e+00  -1.5245313657964867e-09 -1.5678651652267869e-10 0.0000000000000000e+00  -1.2096160430798558e-09 -1.7211185939055874e-10 0.0000000000000000e+00  -8.6766476914576162e-10 -1.8419811580955350e-10 0.0000000000000000e+00  -5.2135307262908417e-10 -1.9323766360339080e-10 0.0000000000000000e+00  -2.3888254496083607e-10 -1.8583019385806931e-10 0.0000000000000000e+00  -1.1948380061099867e-10 -1.2250281728773724e-10 0.0000000000000000e+00  -2.0863554072858195e-10 3.9162345324987315e-10 0.0000000000000000e+00  -3.6965964250493951e-10 3.5795068634350002e-10 0.0000000000000000e+00  -6.5499615554539104e-10 3.7145383499185105e-10 0.0000000000000000e+00  -9.7352959755666266e-10 3.5392072062108505e-10 0.0000000000000000e+00  -1.2781129479777692e-09 3.2183202124475283e-10 0.0000000000000000e+00  -1.5527252836560336e-09 2.7953576028695333e-10 0.0000000000000000e+00  -1.7882576866693079e-09 2.2921251180325957e-10 0.0000000000000000e+00  -1.9778587453672878e-09 1.7258078200392858e-10 0.0000000000000000e+00  -2.1163042260124396e-09 1.1130050684160850e-10 0.0000000000000000e+00  -2.1999090798414019e-09 4.7064609799633031e-11 0.0000000000000000e+00  -2.2265311212643503e-09 -1.8396486344382592e-11 0.0000000000000000e+00  -2.1955845254393563e-09 -8.3338007613751690e-11 0.0000000000000000e+00  -2.1080375634172072e-09 -1.4603281456524027e-10 0.0000000000000000e+00  -1.9663876070159862e-09 -2.0480427118844996e-10 0.0000000000000000e+00  -1.7746190473718108e-09 -2.5805396035827830e-10 0.0000000000000000e+00  -1.5381763893271891e-09 -3.0427430703498148e-10 0.0000000000000000e+00  -1.2640862329599803e-09 -3.4201008389465086e-10 0.0000000000000000e+00  -9.6181155960813304e-10 -3.6954841109236643e-10 0.0000000000000000e+00  -6.4731012984862995e-10 -3.8295901612544741e-10 0.0000000000000000e+00  -3.5968146880045848e-10 -3.6704122912860628e-10 0.0000000000000000e+00  -1.8742805403776800e-10 -2.3436631752303344e-10 0.0000000000000000e+00  -2.0687749145047909e-10 7.2260872365689914e-10 0.0000000000000000e+00  -3.7684232740896794e-10 6.3984602549709242e-10 0.0000000000000000e+00  -6.4677926624679667e-10 6.5187125268480082e-10 0.0000000000000000e+00  -9.3786098965950658e-10 6.2613313204955987e-10 0.0000000000000000e+00  -1.2178246689948403e-09 5.7426766846806149e-10 0.0000000000000000e+00  -1.4722862903915432e-09 5.0296458361496324e-10 0.0000000000000000e+00  -1.6916768228302307e-09 4.1650844095326767e-10 0.0000000000000000e+00  -1.8690207806860826e-09 3.1826605478875677e-10 0.0000000000000000e+00  -1.9991051147894701e-09 2.1135405978351672e-10 0.0000000000000000e+00  -2.0782743102993257e-09 9.8864752290374334e-11 0.0000000000000000e+00  -2.1043890944443040e-09 -1.6083448592667821e-11 0.0000000000000000e+00  -2.0768165769009893e-09 -1.3036324578841400e-10 0.0000000000000000e+00  -1.9964172796337086e-09 -2.4088033901042456e-10 0.0000000000000000e+00  -1.8655189975762236e-09 -3.4461923024114044e-10 0.0000000000000000e+00  -1.6878810899328727e-09 -4.3867623099027378e-10 0.0000000000000000e+00  -1.4686769727679069e-09 -5.2025213210805316e-10 0.0000000000000000e+00  -1.2146012591736600e-09 -5.8653429462296761e-10 0.0000000000000000e+00  -9.3450171274519821e-10 -6.3426818914409660e-10 0.0000000000000000e+00  -6.4205740001406760e-10 -6.5847030644921497e-10 0.0000000000000000e+00  -3.6855974171674041e-10 -6.4915798749007398e-10 0.0000000000000000e+00  -1.9669675203415260e-10 -4.9737664913539108e-10 0.0000000000000000e+00  -2.1566956555230588e-10 1.0481996108823776e-09 0.0000000000000000e+00  -3.7579314236502102e-10 9.4777352749421881e-10 0.0000000000000000e+00  -6.4034810914092726e-10 9.4413190789636530e-10 0.0000000000000000e+00  -9.2086200344183357e-10 9.0425810291119863e-10 0.0000000000000000e+00  -1.1874914087596622e-09 8.3091131355165808e-10 0.0000000000000000e+00  -1.4288965493784427e-09 7.2999526152403358e-10 0.0000000000000000e+00  -1.6370121420981804e-09 6.0682998040648635e-10 0.0000000000000000e+00  -1.8053664827742980e-09 4.6617809249682680e-10 0.0000000000000000e+00  -1.9289499908923416e-09 3.1259925592741285e-10 0.0000000000000000e+00  -2.0042044283788371e-09 1.5063126981156112e-10 0.0000000000000000e+00  -2.0290237210539775e-09 -1.5161862435967879e-11 0.0000000000000000e+00  -2.0027521665785170e-09 -1.8021327925431523e-10 0.0000000000000000e+00  -1.9261698266923707e-09 -3.4000863331896356e-10 0.0000000000000000e+00  -1.8014603263991198e-09 -4.9014969042866978e-10 0.0000000000000000e+00  -1.6321610545457229e-09 -6.2640761226560480e-10 0.0000000000000000e+00  -1.4231076328535196e-09 -7.4474456432914590e-10 0.0000000000000000e+00  -1.1804341572395053e-09 -8.4127604386158821e-10 0.0000000000000000e+00  -9.1193213262376112e-10 -9.1216104221878612e-10 0.0000000000000000e+00  -6.2930111587753161e-10 -9.5338624574846763e-10 0.0000000000000000e+00  -3.6177329033386158e-10 -9.5890218405574788e-10 0.0000000000000000e+00  -1.9756759169082189e-10 -8.1671393975246355e-10 0.0000000000000000e+00  -2.3000473460392225e-10 1.3667358786381129e-09 0.0000000000000000e+00  -3.7672184870713142e-10 1.2563820671715385e-09 0.0000000000000000e+00  -6.3777853942173494e-10 1.2367260561929500e-09 0.0000000000000000e+00  -9.1470662742541349e-10 1.1789971173103250e-09 0.0000000000000000e+00  -1.1759705197005487e-09 1.0826298113646646e-09 0.0000000000000000e+00  -1.4110707751700553e-09 9.5208777703212001e-10 0.0000000000000000e+00  -1.6130185238942273e-09 7.9293522003999476e-10 0.0000000000000000e+00  -1.7760460641599121e-09 6.1090565242896724e-10 0.0000000000000000e+00  -1.8955147430249307e-09 4.1180663955418447e-10 0.0000000000000000e+00  -1.9680487176804480e-09 2.0153038399057344e-10 0.0000000000000000e+00  -1.9916184804538310e-09 -1.3965007379033065e-11 0.0000000000000000e+00  -1.9655721027564281e-09 -2.2871303294090670e-10 0.0000000000000000e+00  -1.8906303966776521e-09 -4.3682106723486824e-10 0.0000000000000000e+00  -1.7688516763350224e-09 -6.3256333113229599e-10 0.0000000000000000e+00  -1.6035664749889013e-09 -8.1047417263351349e-10 0.0000000000000000e+00  -1.3992887618560019e-09 -9.6543754956655650e-10 0.0000000000000000e+00  -1.1616663636502406e-09 -1.0927864732926906e-09 0.0000000000000000e+00  -8.9784451488626952e-10 -1.1884666033368957e-09 0.0000000000000000e+00  -6.1913585846936717e-10 -1.2491580871225170e-09 0.0000000000000000e+00  -3.5629597695255643e-10 -1.2698493207289728e-09 0.0000000000000000e+00  -2.0435364123793002e-10 -1.1391035723424627e-09 0.0000000000000000e+00  -2.4899172832291198e-10 1.6822340198983234e-09 0.0000000000000000e+00  -3.8167861362313135e-10 1.5640793929513320e-09 0.0000000000000000e+00  -6.4087168636797304e-10 1.5298908096439424e-09 0.0000000000000000e+00  -9.1794990291691790e-10 1.4528444682906796e-09 0.0000000000000000e+00  -1.1787251552661002e-09 1.3320236066314348e-09 0.0000000000000000e+00  -1.4123564072989071e-09 1.1712219580047883e-09 0.0000000000000000e+00  -1.6122404940410907e-09 9.7611321666456554e-10 0.0000000000000000e+00  -1.7730724756473715e-09 7.5314857340218618e-10 0.0000000000000000e+00  -1.8905523407539027e-09 5.0919838499781480e-10 0.0000000000000000e+00  -1.9615107942009825e-09 2.5139114503131849e-10 0.0000000000000000e+00  -1.9840244699877695e-09 -1.3000095280616328e-11 0.0000000000000000e+00  -1.9574725903570120e-09 -2.7667088548657069e-10 0.0000000000000000e+00  -1.8825449869332176e-09 -5.3240816444554261e-10 0.0000000000000000e+00  -1.7612104929377399e-09 -7.7322266221915477e-10 0.0000000000000000e+00  -1.5966495329069030e-09 -9.9249125743958730e-10 0.0000000000000000e+00  -1.3931647100835257e-09 -1.1841166441948229e-09 0.0000000000000000e+00  -1.1561608602606795e-09 -1.3427264066354494e-09 0.0000000000000000e+00  -8.9266577709830624e-10 -1.4639377675112629e-09 0.0000000000000000e+00  -6.1453352633453570e-10 -1.5444213526803706e-09 0.0000000000000000e+00  -3.5498497284232712e-10 -1.5788882175718438e-09 0.0000000000000000e+00  -2.1629836236299600e-10 -1.4566454263133832e-09 0.0000000000000000e+00  -2.7234316909995710e-10 1.9982963393897817e-09 0.0000000000000000e+00  -3.9062733550715797e-10 1.8731238631281738e-09 0.0000000000000000e+00  -6.4953763173727740e-10 1.8254997005414801e-09 0.0000000000000000e+00  -9.2919856810419757e-10 1.7287711818227162e-09 0.0000000000000000e+00  -1.1924955158868995e-09 1.5824689580659873e-09 0.0000000000000000e+00  -1.4278148432184465e-09 1.3904978474202204e-09 0.0000000000000000e+00  -1.6285039524357042e-09 1.1588586015742850e-09 0.0000000000000000e+00  -1.7894464304231487e-09 8.9468995203009905e-10 0.0000000000000000e+00  -1.9065606789665716e-09 6.0583454022208851e-10 0.0000000000000000e+00  -1.9768492803764081e-09 3.0057072438865485e-10 0.0000000000000000e+00  -1.9984981668077458e-09 -1.2584624049769905e-11 0.0000000000000000e+00  -1.9709366183541919e-09 -3.2504826359029523e-10 0.0000000000000000e+00  -1.8948528179291365e-09 -6.2833846926775783e-10 0.0000000000000000e+00  -1.7721709270894578e-09 -9.1424907240997512e-10 0.0000000000000000e+00  -1.6059961022606139e-09 -1.1750377596818726e-09 0.0000000000000000e+00  -1.4005507563188901e-09 -1.4036389912480763e-09 0.0000000000000000e+00  -1.1612199151365485e-09 -1.5939140606401687e-09 0.0000000000000000e+00  -8.9524431125167158e-10 -1.7409247279359066e-09 0.0000000000000000e+00  -6.1537583263962849e-10 -1.8408845256400014e-09 0.0000000000000000e+00  -3.5761205251440624e-10 -1.8878399021586216e-09 0.0000000000000000e+00  -2.3267491730776482e-10 -1.7710980666553815e-09 0.0000000000000000e+00  -2.9995711207052496e-10 2.3176036050624292e-09 0.0000000000000000e+00  -4.0287050494751358e-10 2.1858085326804947e-09 0.0000000000000000e+00  -6.6255621781651134e-10 2.1254520254281551e-09 0.0000000000000000e+00  -9.4633610258667738e-10 2.0089171292197081e-09 0.0000000000000000e+00  -1.2139111809511250e-09 1.8363762623276212e-09 0.0000000000000000e+00  -1.4527567605748269e-09 1.6122711303522322e-09 0.0000000000000000e+00  -1.6559725701801313e-09 1.3431967225462711e-09 0.0000000000000000e+00  -1.8184559520452420e-09 1.0370726372834479e-09 0.0000000000000000e+00  -1.9362364593851329e-09 7.0271286297967959e-10 0.0000000000000000e+00  -2.0064415866460881e-09 3.4950788706344449e-10 0.0000000000000000e+00  -2.0273566595487349e-09 -1.2829231352669606e-11 0.0000000000000000e+00  -1.9984707253378494e-09 -3.7448274270454915e-10 0.0000000000000000e+00  -1.9204925506553072e-09 -7.2574111930655562e-10 0.0000000000000000e+00  -1.7953385473739008e-09 -1.0572065783043906e-09 0.0000000000000000e+00  -1.6260993963105636e-09 -1.3600195879554544e-09 0.0000000000000000e+00  -1.4170139439390128e-09 -1.6261079145885438e-09 0.0000000000000000e+00  -1.1735839946593719e-09 -1.8484621143843990e-09 0.0000000000000000e+00  -9.0341745716282874e-10 -2.0214011557354086e-09 0.0000000000000000e+00  -6.2029734217942369e-10 -2.1404626803954653e-09 0.0000000000000000e+00  -3.6329039358818327e-10 -2.1989543542224310e-09 0.0000000000000000e+00  -2.5316178041718053e-10 -2.0854383425971770e-09 0.0000000000000000e+00  -3.3183111137011375e-10 2.6416831511594496e-09 0.0000000000000000e+00  -4.1741655236623775e-10 2.5036927966958243e-09 0.0000000000000000e+00  -6.7807569205990020e-10 2.4310005835844533e-09 0.0000000000000000e+00  -9.6656901289138836e-10 2.2944962377611489e-09 0.0000000000000000e+00  -1.2390924114330589e-09 2.0950442583596390e-09 0.0000000000000000e+00  -1.4821596572644208e-09 1.8378417828395359e-09 0.0000000000000000e+00  -1.6885627679513740e-09 1.5302902004653087e-09 0.0000000000000000e+00  -1.8531424653420326e-09 1.1812167973896771e-09 0.0000000000000000e+00  -1.9719880253330131e-09 8.0045601572269196e-10 0.0000000000000000e+00  -2.0423277544571627e-09 3.9850943778863457e-10 0.0000000000000000e+00  -2.0625421537286515e-09 -1.3740732346674839e-11 0.0000000000000000e+00  -2.0321856571469501e-09 -4.2528163954943717e-10 0.0000000000000000e+00  -1.9519976482451611e-09 -8.2520185640907239e-10 0.0000000000000000e+00  -1.8239021048419351e-09 -1.2029239989106863e-09 0.0000000000000000e+00  -1.6510010823354010e-09 -1.5484534327921433e-09 0.0000000000000000e+00  -1.4375909709045480e-09 -1.8526524101352219e-09 0.0000000000000000e+00  -1.1893436426289856e-09 -2.1075359553411295e-09 0.0000000000000000e+00  -9.1428718204616732e-10 -2.3065450781546279e-09 0.0000000000000000e+00  -6.2730789251087634e-10 -2.4444341250831082e-09 0.0000000000000000e+00  -3.7089272109875338e-10 -2.5137775305502090e-09 0.0000000000000000e+00  -2.7761194648545060e-10 -2.4019303224541919e-09 0.0000000000000000e+00  -3.6802028632486682e-10 2.9707544988963774e-09 0.0000000000000000e+00  -4.3306232790413359e-10 2.8272828276046005e-09 0.0000000000000000e+00  -6.9376884310193037e-10 2.7424346273687357e-09 0.0000000000000000e+00  -9.8645665954476997e-10 2.5856971242186934e-09 0.0000000000000000e+00  -1.2634567883844107e-09 2.3586640374897608e-09 0.0000000000000000e+00  -1.5102971383702986e-09 2.0674257633063173e-09 0.0000000000000000e+00  -1.7194801307888548e-09 1.7203522766078336e-09 0.0000000000000000e+00  -1.8858040107149844e-09 1.3273022931637101e-09 0.0000000000000000e+00  -2.0054320477764024e-09 8.9919613069363518e-10 0.0000000000000000e+00  -2.0757106713930672e-09 4.4766014818988902e-10 0.0000000000000000e+00  -2.0951312760434449e-09 -1.5275550218299194e-11 0.0000000000000000e+00  -2.0633210283383911e-09 -4.7743779481712232e-10 0.0000000000000000e+00  -1.9810453037100292e-09 -9.2674851262480612e-10 0.0000000000000000e+00  -1.8502206486995491e-09 -1.3514632456097259e-09 0.0000000000000000e+00  -1.6739406858093639e-09 -1.7404306607346671e-09 0.0000000000000000e+00  -1.4565406742965081e-09 -2.0833852132244999e-09 0.0000000000000000e+00  -1.2038479904644337e-09 -2.3712687973300722e-09 0.0000000000000000e+00  -9.2430617985007995e-10 -2.5965358776863432e-09 0.0000000000000000e+00  -6.3396213505526399e-10 -2.7530851356643493e-09 0.0000000000000000e+00  -3.7910968163963588e-10 -2.8327704506542069e-09 0.0000000000000000e+00  -3.0596789201905920e-10 -2.7216728215544042e-09 0.0000000000000000e+00  -4.0861263962251129e-10 3.3035416467805296e-09 0.0000000000000000e+00  -4.4838257981764501e-10 3.1557879025503815e-09 0.0000000000000000e+00  -7.0682875051417975e-10 3.0588270086733119e-09 0.0000000000000000e+00  -1.0018467097862816e-09 2.8815074524880529e-09 0.0000000000000000e+00  -1.2815316341118495e-09 2.6262241973689239e-09 0.0000000000000000e+00  -1.5304187428617915e-09 2.3000844113916472e-09 0.0000000000000000e+00  -1.7407951423660760e-09 1.9125691477633622e-09 0.0000000000000000e+00  -1.9075036679289605e-09 1.4746839997924337e-09 0.0000000000000000e+00  -2.0268644662084469e-09 9.9849783718632272e-10 0.0000000000000000e+00  -2.0964112790201302e-09 4.9676872632461998e-10 0.0000000000000000e+00  -2.1147919468331073e-09 -1.7361453535068882e-11 0.0000000000000000e+00  -2.0817201160801237e-09 -5.3061709069800595e-10 0.0000000000000000e+00  -1.9979661568769123e-09 -1.0298087482417490e-09 0.0000000000000000e+00  -1.8653872985420597e-09 -1.5020549487178975e-09 0.0000000000000000e+00  -1.6869956529094580e-09 -1.9350360683602212e-09 0.0000000000000000e+00  -1.4670838869809337e-09 -2.3172998049589939e-09 0.0000000000000000e+00  -1.2115590315521748e-09 -2.6386176607986922e-09 0.0000000000000000e+00  -9.2923138339788203e-10 -2.8903481326303738e-09 0.0000000000000000e+00  -6.3735500747006113e-10 -3.0654547501704851e-09 0.0000000000000000e+00  -3.8642764239753070e-10 -3.1550679261753526e-09 0.0000000000000000e+00  -3.3822746913241650e-10 -3.0444073917839391e-09 0.0000000000000000e+00  -4.5371259936169830e-10 3.6370239130269940e-09 0.0000000000000000e+00  -4.6168226880137086e-10 3.4868612855087677e-09 0.0000000000000000e+00  -7.1388773110831565e-10 3.3777624983443902e-09 0.0000000000000000e+00  -1.0077352149146275e-09 3.1794688388148613e-09 0.0000000000000000e+00  -1.2867220044769965e-09 2.8953090494790831e-09 0.0000000000000000e+00  -1.5344096412701767e-09 2.5335556920060066e-09 0.0000000000000000e+00  -1.7430013981552260e-09 2.1049521222032053e-09 0.0000000000000000e+00  -1.9075472687136958e-09 1.6217649501136258e-09 0.0000000000000000e+00  -2.0246835017973964e-09 1.0972617253235936e-09 0.0000000000000000e+00  -2.0922627048295689e-09 5.4531285700230953e-10 0.0000000000000000e+00  -2.1091733468727753e-09 -1.9903273696347154e-11 0.0000000000000000e+00  -2.0752393884658041e-09 -5.8411327980202207e-10 0.0000000000000000e+00  -1.9911961976402997e-09 -1.1331181222930185e-09 0.0000000000000000e+00  -1.8587450105126542e-09 -1.6529672890874894e-09 0.0000000000000000e+00  -1.6806797524672483e-09 -2.1301844852800091e-09 0.0000000000000000e+00  -1.4610971463361943e-09 -2.5520775478238538e-09 0.0000000000000000e+00  -1.2058412068265456e-09 -2.9071396177623655e-09 0.0000000000000000e+00  -9.2399250819530846e-10 -3.1854990476332240e-09 0.0000000000000000e+00  -6.3404000902278563e-10 -3.3790702613434711e-09 0.0000000000000000e+00  -3.9107657046876499e-10 -3.4782309817922540e-09 0.0000000000000000e+00  -3.7442501605059263e-10 -3.3683225220627687e-09 0.0000000000000000e+00  -5.0342960701120538e-10 3.9661129913311631e-09 0.0000000000000000e+00  -4.7093021467353494e-10 3.8162901564742665e-09 0.0000000000000000e+00  -7.1089273736725174e-10 3.6950151153536604e-09 0.0000000000000000e+00  -9.9806988099194851e-10 3.4753578624208159e-09 0.0000000000000000e+00  -1.2710222242713055e-09 3.1617988761268504e-09 0.0000000000000000e+00  -1.5123971164937097e-09 2.7639819002025633e-09 0.0000000000000000e+00  -1.7145178299965739e-09 2.2940987916131564e-09 0.0000000000000000e+00  -1.8728957207695956e-09 1.7658005359520692e-09 0.0000000000000000e+00  -1.9847355129360838e-09 1.1935843037011188e-09 0.0000000000000000e+00  -2.0484177737700287e-09 5.9236697578062126e-10 0.0000000000000000e+00  -2.0632048911055700e-09 -2.2779785390048096e-11 0.0000000000000000e+00  -2.0290684569867048e-09 -6.3676869194821127e-10 0.0000000000000000e+00  -1.9466452822178984e-09 -1.2345706236456231e-09 0.0000000000000000e+00  -1.8173274596805303e-09 -1.8012974879835233e-09 0.0000000000000000e+00  -1.6434739702200476e-09 -2.3223666248406774e-09 0.0000000000000000e+00  -1.4287422397343630e-09 -2.7838007805017946e-09 0.0000000000000000e+00  -1.1786868950484948e-09 -3.1726835601280715e-09 0.0000000000000000e+00  -9.0250024100071191e-10 -3.4777305689144805e-09 0.0000000000000000e+00  -6.1990336233213841e-10 -3.6896332465468038e-09 0.0000000000000000e+00  -3.9096047702025331e-10 -3.7979489916534380e-09 0.0000000000000000e+00  -4.1461889431313719e-10 -3.6897993030514565e-09 0.0000000000000000e+00  -5.5787171157384535e-10 4.2832453298162792e-09 0.0000000000000000e+00  -4.7368056110671087e-10 4.1376150377337603e-09 0.0000000000000000e+00  -6.9294970741872264e-10 4.0041532293584166e-09 0.0000000000000000e+00  -9.6550442285499927e-10 3.7627807577032699e-09 0.0000000000000000e+00  -1.2246645590109906e-09 3.4194675314554313e-09 0.0000000000000000e+00  -1.452