<?xml version="1.0"?>
<VTKFile type="UnstructuredGrid"  version="0.1"  >
<UnstructuredGrid>
<Piece  NumberOfPoints="651" NumberOfCells="1200">
<Points>
<DataArray  type="Float64"  NumberOfComponents="3"  format="ascii">0 0 0  50000 0 0  100000 0 0  150000 0 0  200000 0 0  250000 0 0  300000 0 0  350000 0 0  400000 0 0  450000 0 0  500000 0 0  550000 0 0  600000 0 0  650000 0 0  700000 0 0  750000 0 0  800000 0 0  850000 0 0  900000 0 0  950000 0 0  1000000 0 0  0 50000 0  50000 50000 0  100000 50000 0  150000 50000 0  200000 50000 0  250000 50000 0  300000 50000 0  350000 50000 0  400000 50000 0  450000 50000 0  500000 50000 0  550000 50000 0  600000 50000 0  650000 50000 0  700000 50000 0  750000 50000 0  800000 50000 0  850000 50000 0  900000 50000 0  950000 50000 0  1000000 50000 0  0 100000 0  50000 100000 0  100000 100000 0  150000 100000 0  200000 100000 0  250000 100000 0  300000 100000 0  350000 100000 0  400000 100000 0  450000 100000 0  500000 100000 0  550000 100000 0  600000 100000 0  650000 100000 0  700000 100000 0  750000 100000 0  800000 100000 0  850000 100000 0  900000 100000 0  950000 100000 0  1000000 100000 0  0 150000 0  50000 150000 0  100000 150000 0  150000 150000 0  200000 150000 0  250000 150000 0  300000 150000 0  350000 150000 0  400000 150000 0  450000 150000 0  500000 150000 0  550000 150000 0  600000 150000 0  650000 150000 0  700000 150000 0  750000 150000 0  800000 150000 0  850000 150000 0  900000 150000 0  950000 150000 0  1000000 150000 0  0 200000 0  50000 200000 0  100000 200000 0  150000 200000 0  200000 200000 0  250000 200000 0  300000 200000 0  350000 200000 0  400000 200000 0  450000 200000 0  500000 200000 0  550000 200000 0  600000 200000 0  650000 200000 0  700000 200000 0  750000 200000 0  800000 200000 0  850000 200000 0  900000 200000 0  950000 200000 0  1000000 200000 0  0 250000 0  50000 250000 0  100000 250000 0  150000 250000 0  200000 250000 0  250000 250000 0  300000 250000 0  350000 250000 0  400000 250000 0  450000 250000 0  500000 250000 0  550000 250000 0  600000 250000 0  650000 250000 0  700000 250000 0  750000 250000 0  800000 250000 0  850000 250000 0  900000 250000 0  950000 250000 0  1000000 250000 0  0 300000 0  50000 300000 0  100000 300000 0  150000 300000 0  200000 300000 0  250000 300000 0  300000 300000 0  350000 300000 0  400000 300000 0  450000 300000 0  500000 300000 0  550000 300000 0  600000 300000 0  650000 300000 0  700000 300000 0  750000 300000 0  800000 300000 0  850000 300000 0  900000 300000 0  950000 300000 0  1000000 300000 0  0 350000 0  50000 350000 0  100000 350000 0  150000 350000 0  200000 350000 0  250000 350000 0  300000 350000 0  350000 350000 0  400000 350000 0  450000 350000 0  500000 350000 0  550000 350000 0  600000 350000 0  650000 350000 0  700000 350000 0  750000 350000 0  800000 350000 0  850000 350000 0  900000 350000 0  950000 350000 0  1000000 350000 0  0 400000 0  50000 400000 0  100000 400000 0  150000 400000 0  200000 400000 0  250000 400000 0  300000 400000 0  350000 400000 0  400000 400000 0  450000 400000 0  500000 400000 0  550000 400000 0  600000 400000 0  650000 400000 0  700000 400000 0  750000 400000 0  800000 400000 0  850000 400000 0  900000 400000 0  950000 400000 0  1000000 400000 0  0 450000 0  50000 450000 0  100000 450000 0  150000 450000 0  200000 450000 0  250000 450000 0  300000 450000 0  350000 450000 0  400000 450000 0  450000 450000 0  500000 450000 0  550000 450000 0  600000 450000 0  650000 450000 0  700000 450000 0  750000 450000 0  800000 450000 0  850000 450000 0  900000 450000 0  950000 450000 0  1000000 450000 0  0 500000 0  50000 500000 0  100000 500000 0  150000 500000 0  200000 500000 0  250000 500000 0  300000 500000 0  350000 500000 0  400000 500000 0  450000 500000 0  500000 500000 0  550000 500000 0  600000 500000 0  650000 500000 0  700000 500000 0  750000 500000 0  800000 500000 0  850000 500000 0  900000 500000 0  950000 500000 0  1000000 500000 0  0 550000 0  50000 550000 0  100000 550000 0  150000 550000 0  200000 550000 0  250000 550000 0  300000 550000 0  350000 550000 0  400000 550000 0  450000 550000 0  500000 550000 0  550000 550000 0  600000 550000 0  650000 550000 0  700000 550000 0  750000 550000 0  800000 550000 0  850000 550000 0  900000 550000 0  950000 550000 0  1000000 550000 0  0 600000 0  50000 600000 0  100000 600000 0  150000 600000 0  200000 600000 0  250000 600000 0  300000 600000 0  350000 600000 0  400000 600000 0  450000 600000 0  500000 600000 0  550000 600000 0  600000 600000 0  650000 600000 0  700000 600000 0  750000 600000 0  800000 600000 0  850000 600000 0  900000 600000 0  950000 600000 0  1000000 600000 0  0 650000 0  50000 650000 0  100000 650000 0  150000 650000 0  200000 650000 0  250000 650000 0  300000 650000 0  350000 650000 0  400000 650000 0  450000 650000 0  500000 650000 0  550000 650000 0  600000 650000 0  650000 650000 0  700000 650000 0  750000 650000 0  800000 650000 0  850000 650000 0  900000 650000 0  950000 650000 0  1000000 650000 0  0 700000 0  50000 700000 0  100000 700000 0  150000 700000 0  200000 700000 0  250000 700000 0  300000 700000 0  350000 700000 0  400000 700000 0  450000 700000 0  500000 700000 0  550000 700000 0  600000 700000 0  650000 700000 0  700000 700000 0  750000 700000 0  800000 700000 0  850000 700000 0  900000 700000 0  950000 700000 0  1000000 700000 0  0 750000 0  50000 750000 0  100000 750000 0  150000 750000 0  200000 750000 0  250000 750000 0  300000 750000 0  350000 750000 0  400000 750000 0  450000 750000 0  500000 750000 0  550000 750000 0  600000 750000 0  650000 750000 0  700000 750000 0  750000 750000 0  800000 750000 0  850000 750000 0  900000 750000 0  950000 750000 0  1000000 750000 0  0 800000 0  50000 800000 0  100000 800000 0  150000 800000 0  200000 800000 0  250000 800000 0  300000 800000 0  350000 800000 0  400000 800000 0  450000 800000 0  500000 800000 0  550000 800000 0  600000 800000 0  650000 800000 0  700000 800000 0  750000 800000 0  800000 800000 0  850000 800000 0  900000 800000 0  950000 800000 0  1000000 800000 0  0 850000 0  50000 850000 0  100000 850000 0  150000 850000 0  200000 850000 0  250000 850000 0  300000 850000 0  350000 850000 0  400000 850000 0  450000 850000 0  500000 850000 0  550000 850000 0  600000 850000 0  650000 850000 0  700000 850000 0  750000 850000 0  800000 850000 0  850000 850000 0  900000 850000 0  950000 850000 0  1000000 850000 0  0 900000 0  50000 900000 0  100000 900000 0  150000 900000 0  200000 900000 0  250000 900000 0  300000 900000 0  350000 900000 0  400000 900000 0  450000 900000 0  500000 900000 0  550000 900000 0  600000 900000 0  650000 900000 0  700000 900000 0  750000 900000 0  800000 900000 0  850000 900000 0  900000 900000 0  950000 900000 0  1000000 900000 0  0 950000 0  50000 950000 0  100000 950000 0  150000 950000 0  200000 950000 0  250000 950000 0  300000 950000 0  350000 950000 0  400000 950000 0  450000 950000 0  500000 950000 0  550000 950000 0  600000 950000 0  650000 950000 0  700000 950000 0  750000 950000 0  800000 950000 0  850000 950000 0  900000 950000 0  950000 950000 0  1000000 950000 0  0 1000000 0  50000 1000000 0  100000 1000000 0  150000 1000000 0  200000 1000000 0  250000 1000000 0  300000 1000000 0  350000 1000000 0  400000 1000000 0  450000 1000000 0  500000 1000000 0  550000 1000000 0  600000 1000000 0  650000 1000000 0  700000 1000000 0  750000 1000000 0  800000 1000000 0  850000 1000000 0  900000 1000000 0  950000 1000000 0  1000000 1000000 0  0 1050000 0  50000 1050000 0  100000 1050000 0  150000 1050000 0  200000 1050000 0  250000 1050000 0  300000 1050000 0  350000 1050000 0  400000 1050000 0  450000 1050000 0  500000 1050000 0  550000 1050000 0  600000 1050000 0  650000 1050000 0  700000 1050000 0  750000 1050000 0  800000 1050000 0  850000 1050000 0  900000 1050000 0  950000 1050000 0  1000000 1050000 0  0 1100000 0  50000 1100000 0  100000 1100000 0  150000 1100000 0  200000 1100000 0  250000 1100000 0  300000 1100000 0  350000 1100000 0  400000 1100000 0  450000 1100000 0  500000 1100000 0  550000 1100000 0  600000 1100000 0  650000 1100000 0  700000 1100000 0  750000 1100000 0  800000 1100000 0  850000 1100000 0  900000 1100000 0  950000 1100000 0  1000000 1100000 0  0 1150000 0  50000 1150000 0  100000 1150000 0  150000 1150000 0  200000 1150000 0  250000 1150000 0  300000 1150000 0  350000 1150000 0  400000 1150000 0  450000 1150000 0  500000 1150000 0  550000 1150000 0  600000 1150000 0  650000 1150000 0  700000 1150000 0  750000 1150000 0  800000 1150000 0  850000 1150000 0  900000 1150000 0  950000 1150000 0  1000000 1150000 0  0 1200000 0  50000 1200000 0  100000 1200000 0  150000 1200000 0  200000 1200000 0  250000 1200000 0  300000 1200000 0  350000 1200000 0  400000 1200000 0  450000 1200000 0  500000 1200000 0  550000 1200000 0  600000 1200000 0  650000 1200000 0  700000 1200000 0  750000 1200000 0  800000 1200000 0  850000 1200000 0  900000 1200000 0  950000 1200000 0  1000000 1200000 0  0 1250000 0  50000 1250000 0  100000 1250000 0  150000 1250000 0  200000 1250000 0  250000 1250000 0  300000 1250000 0  350000 1250000 0  400000 1250000 0  450000 1250000 0  500000 1250000 0  550000 1250000 0  600000 1250000 0  650000 1250000 0  700000 1250000 0  750000 1250000 0  800000 1250000 0  850000 1250000 0  900000 1250000 0  950000 1250000 0  1000000 1250000 0  0 1300000 0  50000 1300000 0  100000 1300000 0  150000 1300000 0  200000 1300000 0  250000 1300000 0  300000 1300000 0  350000 1300000 0  400000 1300000 0  450000 1300000 0  500000 1300000 0  550000 1300000 0  600000 1300000 0  650000 1300000 0  700000 1300000 0  750000 1300000 0  800000 1300000 0  850000 1300000 0  900000 1300000 0  950000 1300000 0  1000000 1300000 0  0 1350000 0  50000 1350000 0  100000 1350000 0  150000 1350000 0  200000 1350000 0  250000 1350000 0  300000 1350000 0  350000 1350000 0  400000 1350000 0  450000 1350000 0  500000 1350000 0  550000 1350000 0  600000 1350000 0  650000 1350000 0  700000 135
[...]
<PointData  Vectors="f_4485"> 
<DataArray  type="Float64"  Name="f_4485"  NumberOfComponents="3" format="ascii">-2.3641257275741261e-10 2.5095598857036317e-10 0.0000000000000000e+00  -4.4159841939493263e-10 2.1246135657913139e-10 0.0000000000000000e+00  -8.0534041915651425e-10 1.9757533582379993e-10 0.0000000000000000e+00  -1.1565445424658862e-09 1.8414202453668243e-10 0.0000000000000000e+00  -1.4781019683350746e-09 1.6779221616903773e-10 0.0000000000000000e+00  -1.7606325129778198e-09 1.4825029201195120e-10 0.0000000000000000e+00  -1.9964965516802210e-09 1.2581614947379869e-10 0.0000000000000000e+00  -2.1795059626064307e-09 1.0097534936799073e-10 0.0000000000000000e+00  -2.3049224564011499e-09 7.4322175583203061e-11 0.0000000000000000e+00  -2.3695433373059034e-09 4.6514941546660705e-11 0.0000000000000000e+00  -2.3717706919373186e-09 1.8245019375253140e-11 0.0000000000000000e+00  -2.3116445755361891e-09 -9.7879839204061211e-12 0.0000000000000000e+00  -2.1908368850818602e-09 -3.6898979228179693e-11 0.0000000000000000e+00  -2.0126062629345879e-09 -6.2440305526874728e-11 0.0000000000000000e+00  -1.7817224938641495e-09 -8.5827736853539111e-11 0.0000000000000000e+00  -1.5044104993166027e-09 -1.0657956942570751e-10 0.0000000000000000e+00  -1.1885747599755641e-09 -1.2440665043536494e-10 0.0000000000000000e+00  -8.4549714431993566e-10 -1.3946045389360655e-10 0.0000000000000000e+00  -4.9784048257784859e-10 -1.5207558732663734e-10 0.0000000000000000e+00  -2.1364669291478926e-10 -1.4867292883691371e-10 0.0000000000000000e+00  -9.4306416770782140e-11 -8.6980371630279374e-11 0.0000000000000000e+00  -1.9905290718221086e-10 4.4034773481802029e-10 0.0000000000000000e+00  -3.7452525836124398e-10 3.7821416860241874e-10 0.0000000000000000e+00  -6.6869967732409181e-10 3.8087325782275924e-10 0.0000000000000000e+00  -9.8588752301492062e-10 3.6266694552325966e-10 0.0000000000000000e+00  -1.2872138207420852e-09 3.3080625339703583e-10 0.0000000000000000e+00  -1.5585101839914730e-09 2.8876591805915837e-10 0.0000000000000000e+00  -1.7908178354914510e-09 2.3861059997021173e-10 0.0000000000000000e+00  -1.9772852168038230e-09 1.8205856592139786e-10 0.0000000000000000e+00  -2.1126885253763287e-09 1.2078237528444079e-10 0.0000000000000000e+00  -2.1933486924686418e-09 5.6486603168270102e-11 0.0000000000000000e+00  -2.2171383083702422e-09 -9.0877505372452593e-12 0.0000000000000000e+00  -2.1834981292656199e-09 -7.4184749175478474e-11 0.0000000000000000e+00  -2.0934394357310658e-09 -1.3706290550684528e-10 0.0000000000000000e+00  -1.9495279369681741e-09 -1.9602340429234529e-10 0.0000000000000000e+00  -1.7558585838499267e-09 -2.4942812450198491e-10 0.0000000000000000e+00  -1.5180601334541873e-09 -2.9569008638160964e-10 0.0000000000000000e+00  -1.2434676067797434e-09 -3.3318425710529363e-10 0.0000000000000000e+00  -9.4198929841884773e-10 -3.5984184625095793e-10 0.0000000000000000e+00  -6.2989131907254346e-10 -3.7095037135584972e-10 0.0000000000000000e+00  -3.4692722447432657e-10 -3.4836315104400538e-10 0.0000000000000000e+00  -1.6253388947232362e-10 -1.9703788128874343e-10 0.0000000000000000e+00  -1.9318864111680198e-10 7.7731697099060483e-10 0.0000000000000000e+00  -3.8317609229692466e-10 6.6139097177732566e-10 0.0000000000000000e+00  -6.6699179082649075e-10 6.5438377367017495e-10 0.0000000000000000e+00  -9.6220136162411527e-10 6.2401859169821049e-10 0.0000000000000000e+00  -1.2417297714836523e-09 5.7076141066515462e-10 0.0000000000000000e+00  -1.4936413238469260e-09 4.9896686541642327e-10 0.0000000000000000e+00  -1.7095237656211800e-09 4.1230458344693941e-10 0.0000000000000000e+00  -1.8828462899240791e-09 3.1396602392226827e-10 0.0000000000000000e+00  -2.0086059716678350e-09 2.0702241277840932e-10 0.0000000000000000e+00  -2.0832865520677661e-09 9.4561144086915365e-11 0.0000000000000000e+00  -2.1048673871859660e-09 -2.0288491165630788e-11 0.0000000000000000e+00  -2.0728351556624506e-09 -1.3437662446991807e-10 0.0000000000000000e+00  -1.9881858987259593e-09 -2.4457040968501100e-10 0.0000000000000000e+00  -1.8534150793124088e-09 -3.4778865303124940e-10 0.0000000000000000e+00  -1.6725035243229746e-09 -4.4101289309386163e-10 0.0000000000000000e+00  -1.4509283814135649e-09 -5.2123801479556386e-10 0.0000000000000000e+00  -1.1957966538513502e-09 -5.8527632797277818e-10 0.0000000000000000e+00  -9.1646614454526132e-10 -6.2919339724714667e-10 0.0000000000000000e+00  -6.2702995279384930e-10 -6.4676454841430009e-10 0.0000000000000000e+00  -3.5877431663243953e-10 -6.2782299006322813e-10 0.0000000000000000e+00  -1.7547180405614491e-10 -4.5447250579182337e-10 0.0000000000000000e+00  -1.9863214450767338e-10 1.1094675730575675e-09 0.0000000000000000e+00  -3.8036704050972916e-10 9.8005632015046971e-10 0.0000000000000000e+00  -6.5972631658517902e-10 9.5224961966741617e-10 0.0000000000000000e+00  -9.4739665446963200e-10 9.0278003239706177e-10 0.0000000000000000e+00  -1.2166505326268097e-09 8.2507880043477744e-10 0.0000000000000000e+00  -1.4575315355464311e-09 7.2194130641228011e-10 0.0000000000000000e+00  -1.6631289685185032e-09 5.9751354728244981e-10 0.0000000000000000e+00  -1.8277055613750043e-09 4.5610216496917567e-10 0.0000000000000000e+00  -1.9467084912350670e-09 3.0208821382277785e-10 0.0000000000000000e+00  -2.0168940131266748e-09 1.3994581825937302e-10 0.0000000000000000e+00  -2.0364061689431222e-09 -2.5770674647608390e-11 0.0000000000000000e+00  -2.0048160662356770e-09 -1.9046934391389052e-10 0.0000000000000000e+00  -1.9231328986088707e-09 -3.4957578618352577e-10 0.0000000000000000e+00  -1.7937925197414235e-09 -4.9858375115752316e-10 0.0000000000000000e+00  -1.6206272387506635e-09 -6.3308246514904344e-10 0.0000000000000000e+00  -1.4088263166991508e-09 -7.4873527606630404e-10 0.0000000000000000e+00  -1.1649355920716938e-09 -8.4117917578426724e-10 0.0000000000000000e+00  -8.9715603242229288e-10 -9.0585163906791954e-10 0.0000000000000000e+00  -6.1725614873714750e-10 -9.3785935859016013e-10 0.0000000000000000e+00  -3.5415044787281794e-10 -9.3278095823122842e-10 0.0000000000000000e+00  -1.7941162203103912e-10 -7.6815389177241049e-10 0.0000000000000000e+00  -2.1026903335867812e-10 1.4348511621511819e-09 0.0000000000000000e+00  -3.8004944402820899e-10 1.2992927798118281e-09 0.0000000000000000e+00  -6.5575855907666286e-10 1.2533821137438256e-09 0.0000000000000000e+00  -9.4077036026916850e-10 1.1820941842528066e-09 0.0000000000000000e+00  -1.2064445421100542e-09 1.0779077801524474e-09 0.0000000000000000e+00  -1.4427559941278600e-09 9.4263569745721106e-10 0.0000000000000000e+00  -1.6434467698361854e-09 7.8048028585825542e-10 0.0000000000000000e+00  -1.8034383411431702e-09 5.9650381608527967e-10 0.0000000000000000e+00  -1.9186421657178537e-09 3.9619078536343228e-10 0.0000000000000000e+00  -1.9861156563997335e-09 1.8528594159346085e-10 0.0000000000000000e+00  -2.0041875622608444e-09 -3.0304869656499720e-11 0.0000000000000000e+00  -1.9725238219168564e-09 -2.4460450425336721e-10 0.0000000000000000e+00  -1.8921483218574414e-09 -4.5165309028391077e-10 0.0000000000000000e+00  -1.7654270178970438e-09 -6.4559133020301801e-10 0.0000000000000000e+00  -1.5960163179738267e-09 -8.2073228323821310e-10 0.0000000000000000e+00  -1.3887778995787035e-09 -9.7162066166929684e-10 0.0000000000000000e+00  -1.1497093046630503e-09 -1.0931038560024569e-09 0.0000000000000000e+00  -8.8622605469523777e-10 -1.1805148983865685e-09 0.0000000000000000e+00  -6.0952854592266351e-10 -1.2300349677998954e-09 0.0000000000000000e+00  -3.5037719288148814e-10 -1.2391189097152314e-09 0.0000000000000000e+00  -1.8878099556786617e-10 -1.0850507119828993e-09 0.0000000000000000e+00  -2.2694532171636295e-10 1.7574701288001517e-09 0.0000000000000000e+00  -3.8424201182637128e-10 1.6166843156442576e-09 0.0000000000000000e+00  -6.5785495534944235e-10 1.5553638869711765e-09 0.0000000000000000e+00  -9.4306373871732635e-10 1.4619678213607422e-09 0.0000000000000000e+00  -1.2090076560331673e-09 1.3301839343944979e-09 0.0000000000000000e+00  -1.4449293861553378e-09 1.1619255798734466e-09 0.0000000000000000e+00  -1.6445821309623563e-09 9.6168540250001836e-10 0.0000000000000000e+00  -1.8031754010080848e-09 7.3520683010641547e-10 0.0000000000000000e+00  -1.9169300744921185e-09 4.8895585311350582e-10 0.0000000000000000e+00  -1.9831481405761997e-09 2.2984298547084833e-10 0.0000000000000000e+00  -2.0003231999281194e-09 -3.4959576735762849e-11 0.0000000000000000e+00  -1.9682092652494645e-09 -2.9816457837748602e-10 0.0000000000000000e+00  -1.8878436973712563e-09 -5.5250234979416275e-10 0.0000000000000000e+00  -1.7615282111621198e-09 -7.9084821602253940e-10 0.0000000000000000e+00  -1.5927685249180117e-09 -1.0063514325543018e-09 0.0000000000000000e+00  -1.3861815241786731e-09 -1.1925805389553782e-09 0.0000000000000000e+00  -1.1474518710538817e-09 -1.3437231009366924e-09 0.0000000000000000e+00  -8.8378599844057985e-10 -1.4549132869444261e-09 0.0000000000000000e+00  -6.0689470873418531e-10 -1.5225713935937693e-09 0.0000000000000000e+00  -3.5043206724180142e-10 -1.5443318643742798e-09 0.0000000000000000e+00  -2.0289957521036866e-10 -1.3973379940954268e-09 0.0000000000000000e+00  -2.4826384861417936e-10 2.0809734339600799e-09 0.0000000000000000e+00  -3.9276974729567015e-10 1.9348619540483376e-09 0.0000000000000000e+00  -6.6599949828435919e-10 1.8593994342343189e-09 0.0000000000000000e+00  -9.5353883336825335e-10 1.7442746302847590e-09 0.0000000000000000e+00  -1.2221717317175746e-09 1.5843505333375550e-09 0.0000000000000000e+00  -1.4602945343079048e-09 1.3823186207354003e-09 0.0000000000000000e+00  -1.6614015663282179e-09 1.1433209771368987e-09 0.0000000000000000e+00  -1.8207330744445492e-09 8.7388878101964549e-10 0.0000000000000000e+00  -1.9346545337595076e-09 5.8145987167444188e-10 0.0000000000000000e+00  -2.0006252232244788e-09 2.7405982243561936e-10 0.0000000000000000e+00  -2.0172622980931076e-09 -3.9935074104239310e-11 0.0000000000000000e+00  -1.9843910814885258e-09 -3.5199257660699287e-10 0.0000000000000000e+00  -1.9030619201086656e-09 -6.5359990421188246e-10 0.0000000000000000e+00  -1.7755314105220685e-09 -9.3643512846380229e-10 0.0000000000000000e+00  -1.6052092900072168e-09 -1.1925486514544959e-09 0.0000000000000000e+00  -1.3965899581020995e-09 -1.4145733788740140e-09 0.0000000000000000e+00  -1.1552812163441417e-09 -1.5959911593975133e-09 0.0000000000000000e+00  -8.8865615251232322e-10 -1.7314823047920312e-09 0.0000000000000000e+00  -6.0935581215435541e-10 -1.8171477655554087e-09 0.0000000000000000e+00  -3.5421691991366382e-10 -1.8502131548520232e-09 0.0000000000000000e+00  -2.2113640775796178e-10 -1.7068504997699329e-09 0.0000000000000000e+00  -2.7409196433220122e-10 2.4081137825691719e-09 0.0000000000000000e+00  -4.0484902130715819e-10 2.2564159651797295e-09 0.0000000000000000e+00  -6.7890749836615607e-10 2.1673430853843731e-09 0.0000000000000000e+00  -9.7023641040221790e-10 2.0306904410226972e-09 0.0000000000000000e+00  -1.2430019482652014e-09 1.8422395597386828e-09 0.0000000000000000e+00  -1.4847591968739024e-09 1.6056910130503813e-09 0.0000000000000000e+00  -1.6886824688834657e-09 1.3270996987573032e-09 0.0000000000000000e+00  -1.8499325914574436e-09 1.0139373294357772e-09 0.0000000000000000e+00  -1.9649207637619669e-09 6.7466776634137881e-10 0.0000000000000000e+00  -2.0311982276685335e-09 3.1842728542849668e-10 0.0000000000000000e+00  -2.0474692143628754e-09 -4.5238134352909518e-11 0.0000000000000000e+00  -2.0136133941328508e-09 -4.0659869248744142e-10 0.0000000000000000e+00  -1.9306924719086487e-09 -7.5594781578039698e-10 0.0000000000000000e+00  -1.8009354304009269e-09 -1.0838075056957279e-09 0.0000000000000000e+00  -1.6277042030309787e-09 -1.3811485372302447e-09 0.0000000000000000e+00  -1.4154651021064423e-09 -1.6396417541570626e-09 0.0000000000000000e+00  -1.1698970915687978e-09 -1.8519542817771403e-09 0.0000000000000000e+00  -8.9871646266185989e-10 -2.0120886848758324e-09 0.0000000000000000e+00  -6.1564009829729140e-10 -2.1155299392671798e-09 0.0000000000000000e+00  -3.6092875303899594e-10 -2.1589136307428278e-09 0.0000000000000000e+00  -2.4327476216404586e-10 -2.0166465497466199e-09 0.0000000000000000e+00  -3.0443899110521565e-10 2.7404993375402384e-09 0.0000000000000000e+00  -4.1944349627050166e-10 2.5831131852317336e-09 0.0000000000000000e+00  -6.9465029507896891e-10 2.4805243069172637e-09 0.0000000000000000e+00  -9.9035498820904964e-10 2.3222428065581014e-09 0.0000000000000000e+00  -1.2677469314887095e-09 2.1047984333426346e-09 0.0000000000000000e+00  -1.5135484187997156e-09 1.8329662861918914e-09 0.0000000000000000e+00  -1.7206425638006790e-09 1.5138719651826028e-09 0.0000000000000000e+00  -1.8841056276084490e-09 1.1560582743919341e-09 0.0000000000000000e+00  -2.0003735942204776e-09 7.6908551183386597e-10 0.0000000000000000e+00  -2.0670702923828222e-09 3.6321758392838370e-10 0.0000000000000000e+00  -2.0829734041873282e-09 -5.0848667434720787e-11 0.0000000000000000e+00  -2.0480073197702538e-09 -4.6222239526145504e-10 0.0000000000000000e+00  -1.9632390707749691e-09 -8.6004086237672964e-10 0.0000000000000000e+00  -1.8308716482522685e-09 -1.2336929048208374e-09 0.0000000000000000e+00  -1.6542360902447541e-09 -1.5730615788006474e-09 0.0000000000000000e+00  -1.4378090988263506e-09 -1.8687998105154781e-09 0.0000000000000000e+00  -1.1873970368154149e-09 -2.1126441800178421e-09 0.0000000000000000e+00  -9.1111488000233368e-10 -2.2977532965202390e-09 0.0000000000000000e+00  -6.2381515373039765e-10 -2.4188392535406764e-09 0.0000000000000000e+00  -3.6948758542243429e-10 -2.4719012375573020e-09 0.0000000000000000e+00  -2.6926958406004236e-10 -2.3290654896922190e-09 0.0000000000000000e+00  -3.3940397115194743e-10 3.0784349015782118e-09 0.0000000000000000e+00  -4.3533020819559487e-10 2.9156116366674108e-09 0.0000000000000000e+00  -7.1083332538494798e-10 2.7993057322169831e-09 0.0000000000000000e+00  -1.0103863730256656e-09 2.6190315212413714e-09 0.0000000000000000e+00  -1.2918052172980564e-09 2.3719877709568718e-09 0.0000000000000000e+00  -1.5409793541594812e-09 2.0640658021477804e-09 0.0000000000000000e+00  -1.7505744571473288e-09 1.7035647343935682e-09 0.0000000000000000e+00  -1.9156491876382831e-09 1.3001982844582941e-09 0.0000000000000000e+00  -2.0327133130552009e-09 8.6468366800738784e-10 0.0000000000000000e+00  -2.0994962990994597e-09 4.0842649868735869e-10 0.0000000000000000e+00  -2.1148668517221520e-09 -5.6747987652448944e-11 0.0000000000000000e+00  -2.0787952464918307e-09 -5.1882952067649559e-10 0.0000000000000000e+00  -1.9923396861523142e-09 -9.6584013113076066e-10 0.0000000000000000e+00  -1.8576525619246141e-09 -1.3860563470826977e-09 0.0000000000000000e+00  -1.6780064635884053e-09 -1.7682577566469043e-09 0.0000000000000000e+00  -1.4578643039964449e-09 -2.1020166241463640e-09 0.0000000000000000e+00  -1.2031400577991482e-09 -2.3780309216424216e-09 0.0000000000000000e+00  -9.2233265138769740e-10 -2.5884848326860204e-09 0.0000000000000000e+00  -6.3146562508077485e-10 -2.7272159014280950e-09 0.0000000000000000e+00  -3.7861251124225738e-10 -2.7895753239043715e-09 0.0000000000000000e+00  -2.9915816137177637e-10 -2.6452738908659089e-09 0.0000000000000000e+00  -3.7914988679256220e-10 3.4207329616830867e-09 0.0000000000000000e+00  -4.5107887141731379e-10 3.2532290665566247e-09 0.0000000000000000e+00  -7.2458974133062730e-10 3.1227982917717543e-09 0.0000000000000000e+00  -1.0260838546365395e-09 2.9199681803922858e-09 0.0000000000000000e+00  -1.3096063131749441e-09 2.6426112836866627e-09 0.0000000000000000e+00  -1.5602211719252693e-09 2.2978015848015809e-09 0.0000000000000000e+00  -1.7704894020347255e-09 1.8951033862372669e-09 0.0000000000000000e+00  -1.9355802344864188e-09 1.4454815813062560e-09 0.0000000000000000e+00  -2.0521917760737068e-09 9.6085097721201739e-10 0.0000000000000000e+00  -2.1182468760312250e-09 4.5375133174165503e-10 0.0000000000000000e+00  -2.1327577971277399e-09 -6.2911238935331773e-11 0.0000000000000000e+00  -2.0957533848998843e-09 -5.7607533855654870e-10 0.0000000000000000e+00  -2.0082564612709492e-09 -1.0727128214278197e-09 0.0000000000000000e+00  -1.8723095542532796e-09 -1.5400261807338220e-09 0.0000000000000000e+00  -1.6910459244886713e-09 -1.9656849437264316e-09 0.0000000000000000e+00  -1.4688248549749521e-09 -2.3381215773409284e-09 0.0000000000000000e+00  -1.2115812275293562e-09 -2.6468913893189805e-09 0.0000000000000000e+00  -9.2813261536268545e-10 -2.8830816480462540e-09 0.0000000000000000e+00  -6.3569579918055662e-10 -3.0395597558183906e-09 0.0000000000000000e+00  -3.8680708889891553e-10 -3.1110147011827680e-09 0.0000000000000000e+00  -3.3302581148470517e-10 -2.9650749572605790e-09 0.0000000000000000e+00  -4.2389092770343775e-10 3.7644627090333227e-09 0.0000000000000000e+00  -4.6499827584731508e-10 3.5936872801223397e-09 0.0000000000000000e+00  -7.3249180057096325e-10 3.4485750983000774e-09 0.0000000000000000e+00  -1.0323281884848881e-09 3.2224893561730838e-09 0.0000000000000000e+00  -1.3144044218499263e-09 2.9140656296568944e-09 0.0000000000000000e+00  -1.5629938793255539e-09 2.5316739596885914e-09 0.0000000000000000e+00  -1.7707162802660743e-09 2.0862518498419300e-09 0.0000000000000000e+00  -1.9330471961733951e-09 1.5900891100922118e-09 0.0000000000000000e+00  -2.0470587822607178e-09 1.0563150127599723e-09 0.0000000000000000e+00  -2.1110155033134393e-09 4.9855794030113356e-10 0.0000000000000000e+00  -2.1241647066599447e-09 -6.9290940925586167e-11 0.0000000000000000e+00  -2.0866179144072807e-09 -6.3324012921217120e-10 0.0000000000000000e+00  -1.9993183525951418e-09 -1.1793259992806921e-09 0.0000000000000000e+00  -1.8640952851219341e-09 -1.6937546650322986e-09 0.0000000000000000e+00  -1.6837976347661463e-09 -2.1631033122140599e-09 0.0000000000000000e+00  -1.4625173724750511e-09 -2.5746135751971365e-09 0.0000000000000000e+00  -1.2060537228088066e-09 -2.9165880342508459e-09 0.0000000000000000e+00  -9.2342706258090744e-10 -3.1788773735628743e-09 0.0000000000000000e+00  -6.3305120682284219e-10 -3.3532577193252674e-09 0.0000000000000000e+00  -3.9230951350769160e-10 -3.4337216746977868e-09 0.0000000000000000e+00  -3.7098879426836354e-10 -3.2867130643183722e-09 0.0000000000000000e+00  -4.7388857640899181e-10 4.1046230013321917e-09 0.0000000000000000e+00  -4.7506567750892933e-10 3.9327993462817099e-09 0.0000000000000000e+00  -7.3041695923844205e-10 3.7723368277918579e-09 0.0000000000000000e+00  -1.0229253294590979e-09 3.5222126148941942e-09 0.0000000000000000e+00  -1.2979947031366333e-09 3.1820099325096086e-09 0.0000000000000000e+00  -1.5391900438384346e-09 2.7615743613654204e-09 0.0000000000000000e+00  -1.7394251679325525e-09 2.2733612534470871e-09 0.0000000000000000e+00  -1.8947644731648865e-09 1.7310629475270016e-09 0.0000000000000000e+00  -2.0029272433598359e-09 1.1490117586806553e-09 0.0000000000000000e+00  -2.0627406579634622e-09 5.4182319265137261e-10 0.0000000000000000e+00  -2.0738247142912309e-09 -7.5798036763969993e-11 0.0000000000000000e+00  -2.0364094927842225e-09 -6.8913582009583058e-10 0.0000000000000000e+00  -1.9512900151328398e-09 -1.2834866367665074e-09 0.0000000000000000e+00  -1.8199219376689345e-09 -1.8442032386458657e-09 0.0000000000000000e+00  -1.6446442375378443e-09 -2.3568287008402162e-09 0.0000000000000000e+00  -1.4290271149308506e-09 -2.8073735774380970e-09 0.0000000000000000e+00  -1.1784929745926874e-09 -3.1827592479197574e-09 0.0000000000000000e+00  -9.0208667942944042e-10 -3.4714183343707097e-09 0.0000000000000000e+00  -6.1939398277713991e-10 -3.6638616700322927e-09 0.0000000000000000e+00  -3.9302342082404605e-10 -3.7533168326212106e-09 0.0000000000000000e+00  -4.1318439230891439e-10 -3.6066177302448836e-09 0.0000000000000000e+00  -5.2945632875964447e-10 4.4337267918369102e-09 0.0000000000000000e+00  -4.7884382685660042e-10 4.2640797191696658e-09 0.0000000000000000e+00  -7.1338063366272441e-10 4.0875028462460073e-09 0.0000000000000000e+00  -9.9034866791742895e-10 3.8125122895794334e-09 0.0000000000000000e+00  -1.2503552814560090e-09 3.4399432067212608e-09 0.0000000000000000e+00  -1.47640