<?xml version="1.0"?>
<VTKFile type="UnstructuredGrid"  version="0.1"  >
<UnstructuredGrid>
<Piece  NumberOfPoints="651" NumberOfCells="1200">
<Points>
<DataArray  type="Float64"  NumberOfComponents="3"  format="ascii">0 0 0  50000 0 0  100000 0 0  150000 0 0  200000 0 0  250000 0 0  300000 0 0  350000 0 0  400000 0 0  450000 0 0  500000 0 0  550000 0 0  600000 0 0  650000 0 0  700000 0 0  750000 0 0  800000 0 0  850000 0 0  900000 0 0  950000 0 0  1000000 0 0  0 50000 0  50000 50000 0  100000 50000 0  150000 50000 0  200000 50000 0  250000 50000 0  300000 50000 0  350000 50000 0  400000 50000 0  450000 50000 0  500000 50000 0  550000 50000 0  600000 50000 0  650000 50000 0  700000 50000 0  750000 50000 0  800000 50000 0  850000 50000 0  900000 50000 0  950000 50000 0  1000000 50000 0  0 100000 0  50000 100000 0  100000 100000 0  150000 100000 0  200000 100000 0  250000 100000 0  300000 100000 0  350000 100000 0  400000 100000 0  450000 100000 0  500000 100000 0  550000 100000 0  600000 100000 0  650000 100000 0  700000 100000 0  750000 100000 0  800000 100000 0  850000 100000 0  900000 100000 0  950000 100000 0  1000000 100000 0  0 150000 0  50000 150000 0  100000 150000 0  150000 150000 0  200000 150000 0  250000 150000 0  300000 150000 0  350000 150000 0  400000 150000 0  450000 150000 0  500000 150000 0  550000 150000 0  600000 150000 0  650000 150000 0  700000 150000 0  750000 150000 0  800000 150000 0  850000 150000 0  900000 150000 0  950000 150000 0  1000000 150000 0  0 200000 0  50000 200000 0  100000 200000 0  150000 200000 0  200000 200000 0  250000 200000 0  300000 200000 0  350000 200000 0  400000 200000 0  450000 200000 0  500000 200000 0  550000 200000 0  600000 200000 0  650000 200000 0  700000 200000 0  750000 200000 0  800000 200000 0  850000 200000 0  900000 200000 0  950000 200000 0  1000000 200000 0  0 250000 0  50000 250000 0  100000 250000 0  150000 250000 0  200000 250000 0  250000 250000 0  300000 250000 0  350000 250000 0  400000 250000 0  450000 250000 0  500000 250000 0  550000 250000 0  600000 250000 0  650000 250000 0  700000 250000 0  750000 250000 0  800000 250000 0  850000 250000 0  900000 250000 0  950000 250000 0  1000000 250000 0  0 300000 0  50000 300000 0  100000 300000 0  150000 300000 0  200000 300000 0  250000 300000 0  300000 300000 0  350000 300000 0  400000 300000 0  450000 300000 0  500000 300000 0  550000 300000 0  600000 300000 0  650000 300000 0  700000 300000 0  750000 300000 0  800000 300000 0  850000 300000 0  900000 300000 0  950000 300000 0  1000000 300000 0  0 350000 0  50000 350000 0  100000 350000 0  150000 350000 0  200000 350000 0  250000 350000 0  300000 350000 0  350000 350000 0  400000 350000 0  450000 350000 0  500000 350000 0  550000 350000 0  600000 350000 0  650000 350000 0  700000 350000 0  750000 350000 0  800000 350000 0  850000 350000 0  900000 350000 0  950000 350000 0  1000000 350000 0  0 400000 0  50000 400000 0  100000 400000 0  150000 400000 0  200000 400000 0  250000 400000 0  300000 400000 0  350000 400000 0  400000 400000 0  450000 400000 0  500000 400000 0  550000 400000 0  600000 400000 0  650000 400000 0  700000 400000 0  750000 400000 0  800000 400000 0  850000 400000 0  900000 400000 0  950000 400000 0  1000000 400000 0  0 450000 0  50000 450000 0  100000 450000 0  150000 450000 0  200000 450000 0  250000 450000 0  300000 450000 0  350000 450000 0  400000 450000 0  450000 450000 0  500000 450000 0  550000 450000 0  600000 450000 0  650000 450000 0  700000 450000 0  750000 450000 0  800000 450000 0  850000 450000 0  900000 450000 0  950000 450000 0  1000000 450000 0  0 500000 0  50000 500000 0  100000 500000 0  150000 500000 0  200000 500000 0  250000 500000 0  300000 500000 0  350000 500000 0  400000 500000 0  450000 500000 0  500000 500000 0  550000 500000 0  600000 500000 0  650000 500000 0  700000 500000 0  750000 500000 0  800000 500000 0  850000 500000 0  900000 500000 0  950000 500000 0  1000000 500000 0  0 550000 0  50000 550000 0  100000 550000 0  150000 550000 0  200000 550000 0  250000 550000 0  300000 550000 0  350000 550000 0  400000 550000 0  450000 550000 0  500000 550000 0  550000 550000 0  600000 550000 0  650000 550000 0  700000 550000 0  750000 550000 0  800000 550000 0  850000 550000 0  900000 550000 0  950000 550000 0  1000000 550000 0  0 600000 0  50000 600000 0  100000 600000 0  150000 600000 0  200000 600000 0  250000 600000 0  300000 600000 0  350000 600000 0  400000 600000 0  450000 600000 0  500000 600000 0  550000 600000 0  600000 600000 0  650000 600000 0  700000 600000 0  750000 600000 0  800000 600000 0  850000 600000 0  900000 600000 0  950000 600000 0  1000000 600000 0  0 650000 0  50000 650000 0  100000 650000 0  150000 650000 0  200000 650000 0  250000 650000 0  300000 650000 0  350000 650000 0  400000 650000 0  450000 650000 0  500000 650000 0  550000 650000 0  600000 650000 0  650000 650000 0  700000 650000 0  750000 650000 0  800000 650000 0  850000 650000 0  900000 650000 0  950000 650000 0  1000000 650000 0  0 700000 0  50000 700000 0  100000 700000 0  150000 700000 0  200000 700000 0  250000 700000 0  300000 700000 0  350000 700000 0  400000 700000 0  450000 700000 0  500000 700000 0  550000 700000 0  600000 700000 0  650000 700000 0  700000 700000 0  750000 700000 0  800000 700000 0  850000 700000 0  900000 700000 0  950000 700000 0  1000000 700000 0  0 750000 0  50000 750000 0  100000 750000 0  150000 750000 0  200000 750000 0  250000 750000 0  300000 750000 0  350000 750000 0  400000 750000 0  450000 750000 0  500000 750000 0  550000 750000 0  600000 750000 0  650000 750000 0  700000 750000 0  750000 750000 0  800000 750000 0  850000 750000 0  900000 750000 0  950000 750000 0  1000000 750000 0  0 800000 0  50000 800000 0  100000 800000 0  150000 800000 0  200000 800000 0  250000 800000 0  300000 800000 0  350000 800000 0  400000 800000 0  450000 800000 0  500000 800000 0  550000 800000 0  600000 800000 0  650000 800000 0  700000 800000 0  750000 800000 0  800000 800000 0  850000 800000 0  900000 800000 0  950000 800000 0  1000000 800000 0  0 850000 0  50000 850000 0  100000 850000 0  150000 850000 0  200000 850000 0  250000 850000 0  300000 850000 0  350000 850000 0  400000 850000 0  450000 850000 0  500000 850000 0  550000 850000 0  600000 850000 0  650000 850000 0  700000 850000 0  750000 850000 0  800000 850000 0  850000 850000 0  900000 850000 0  950000 850000 0  1000000 850000 0  0 900000 0  50000 900000 0  100000 900000 0  150000 900000 0  200000 900000 0  250000 900000 0  300000 900000 0  350000 900000 0  400000 900000 0  450000 900000 0  500000 900000 0  550000 900000 0  600000 900000 0  650000 900000 0  700000 900000 0  750000 900000 0  800000 900000 0  850000 900000 0  900000 900000 0  950000 900000 0  1000000 900000 0  0 950000 0  50000 950000 0  100000 950000 0  150000 950000 0  200000 950000 0  250000 950000 0  300000 950000 0  350000 950000 0  400000 950000 0  450000 950000 0  500000 950000 0  550000 950000 0  600000 950000 0  650000 950000 0  700000 950000 0  750000 950000 0  800000 950000 0  850000 950000 0  900000 950000 0  950000 950000 0  1000000 950000 0  0 1000000 0  50000 1000000 0  100000 1000000 0  150000 1000000 0  200000 1000000 0  250000 1000000 0  300000 1000000 0  350000 1000000 0  400000 1000000 0  450000 1000000 0  500000 1000000 0  550000 1000000 0  600000 1000000 0  650000 1000000 0  700000 1000000 0  750000 1000000 0  800000 1000000 0  850000 1000000 0  900000 1000000 0  950000 1000000 0  1000000 1000000 0  0 1050000 0  50000 1050000 0  100000 1050000 0  150000 1050000 0  200000 1050000 0  250000 1050000 0  300000 1050000 0  350000 1050000 0  400000 1050000 0  450000 1050000 0  500000 1050000 0  550000 1050000 0  600000 1050000 0  650000 1050000 0  700000 1050000 0  750000 1050000 0  800000 1050000 0  850000 1050000 0  900000 1050000 0  950000 1050000 0  1000000 1050000 0  0 1100000 0  50000 1100000 0  100000 1100000 0  150000 1100000 0  200000 1100000 0  250000 1100000 0  300000 1100000 0  350000 1100000 0  400000 1100000 0  450000 1100000 0  500000 1100000 0  550000 1100000 0  600000 1100000 0  650000 1100000 0  700000 1100000 0  750000 1100000 0  800000 1100000 0  850000 1100000 0  900000 1100000 0  950000 1100000 0  1000000 1100000 0  0 1150000 0  50000 1150000 0  100000 1150000 0  150000 1150000 0  200000 1150000 0  250000 1150000 0  300000 1150000 0  350000 1150000 0  400000 1150000 0  450000 1150000 0  500000 1150000 0  550000 1150000 0  600000 1150000 0  650000 1150000 0  700000 1150000 0  750000 1150000 0  800000 1150000 0  850000 1150000 0  900000 1150000 0  950000 1150000 0  1000000 1150000 0  0 1200000 0  50000 1200000 0  100000 1200000 0  150000 1200000 0  200000 1200000 0  250000 1200000 0  300000 1200000 0  350000 1200000 0  400000 1200000 0  450000 1200000 0  500000 1200000 0  550000 1200000 0  600000 1200000 0  650000 1200000 0  700000 1200000 0  750000 1200000 0  800000 1200000 0  850000 1200000 0  900000 1200000 0  950000 1200000 0  1000000 1200000 0  0 1250000 0  50000 1250000 0  100000 1250000 0  150000 1250000 0  200000 1250000 0  250000 1250000 0  300000 1250000 0  350000 1250000 0  400000 1250000 0  450000 1250000 0  500000 1250000 0  550000 1250000 0  600000 1250000 0  650000 1250000 0  700000 1250000 0  750000 1250000 0  800000 1250000 0  850000 1250000 0  900000 1250000 0  950000 1250000 0  1000000 1250000 0  0 1300000 0  50000 1300000 0  100000 1300000 0  150000 1300000 0  200000 1300000 0  250000 1300000 0  300000 1300000 0  350000 1300000 0  400000 1300000 0  450000 1300000 0  500000 1300000 0  550000 1300000 0  600000 1300000 0  650000 1300000 0  700000 1300000 0  750000 1300000 0  800000 1300000 0  850000 1300000 0  900000 1300000 0  950000 1300000 0  1000000 1300000 0  0 1350000 0  50000 1350000 0  100000 1350000 0  150000 1350000 0  200000 1350000 0  250000 1350000 0  300000 1350000 0  350000 1350000 0  400000 1350000 0  450000 1350000 0  500000 1350000 0  550000 1350000 0  600000 1350000 0  650000 1350000 0  700000 135
[...]
<PointData  Vectors="f_4485"> 
<DataArray  type="Float64"  Name="f_4485"  NumberOfComponents="3" format="ascii">-2.4482621566309312e-10 2.2074302127384203e-10 0.0000000000000000e+00  -4.5010512507194632e-10 1.8158597300547458e-10 0.0000000000000000e+00  -8.1460500361233972e-10 1.6567781807865555e-10 0.0000000000000000e+00  -1.1666565455208407e-09 1.5164445701179812e-10 0.0000000000000000e+00  -1.4889590345803301e-09 1.3507470923181977e-10 0.0000000000000000e+00  -1.7721308805883679e-09 1.1556173531997189e-10 0.0000000000000000e+00  -2.0085466888407419e-09 9.3337099570116010e-11 0.0000000000000000e+00  -2.1920378363056556e-09 6.8848986098708984e-11 0.0000000000000000e+00  -2.3178872633428142e-09 4.2667074399917990e-11 0.0000000000000000e+00  -2.3829138378301805e-09 1.5432419012086824e-11 0.0000000000000000e+00  -2.3855412423189046e-09 -1.2175345967526436e-11 0.0000000000000000e+00  -2.3258311736999901e-09 -3.9463446073153324e-11 0.0000000000000000e+00  -2.2054772485802484e-09 -6.5748597169725019e-11 0.0000000000000000e+00  -2.0277597166547865e-09 -9.0379184093336821e-11 0.0000000000000000e+00  -1.7974690923883290e-09 -1.1276008927333549e-10 0.0000000000000000e+00  -1.5208483648281917e-09 -1.3239065088599685e-10 0.0000000000000000e+00  -1.2058143243940428e-09 -1.4895474055295562e-10 0.0000000000000000e+00  -8.6365168848063051e-10 -1.6257177524001593e-10 0.0000000000000000e+00  -5.1702087372921236e-10 -1.7355238279280291e-10 0.0000000000000000e+00  -2.3397657513078299e-10 -1.6841753870860524e-10 0.0000000000000000e+00  -1.1481393378914039e-10 -1.0632701959841682e-10 0.0000000000000000e+00  -2.0817685114917985e-10 4.0982616875441481e-10 0.0000000000000000e+00  -3.7314245725419992e-10 3.6718723306728365e-10 0.0000000000000000e+00  -6.6130705201584148e-10 3.7618455613208328e-10 0.0000000000000000e+00  -9.8062402525233322e-10 3.5772714539265360e-10 0.0000000000000000e+00  -1.2847268374611362e-09 3.2549583933232032e-10 0.0000000000000000e+00  -1.5582527118804497e-09 2.8323100847682798e-10 0.0000000000000000e+00  -1.7924043279263982e-09 2.3297597230913402e-10 0.0000000000000000e+00  -1.9804659155659160e-09 1.7641140930839655e-10 0.0000000000000000e+00  -2.1172865774906627e-09 1.1518177493509385e-10 0.0000000000000000e+00  -2.1992311388058095e-09 5.0973410102536362e-11 0.0000000000000000e+00  -2.2241963244476641e-09 -1.4485298240416332e-11 0.0000000000000000e+00  -2.1916306099817034e-09 -7.9448913993049887e-11 0.0000000000000000e+00  -2.1025368265729682e-09 -1.4218743181264366e-10 0.0000000000000000e+00  -1.9594523698973935e-09 -2.0101862330651204e-10 0.0000000000000000e+00  -1.7664147067135349e-09 -2.5433353547074970e-10 0.0000000000000000e+00  -1.5289476979191286e-09 -3.0060260311875177e-10 0.0000000000000000e+00  -1.2542053349918700e-09 -3.3832017459399797e-10 0.0000000000000000e+00  -9.5184149392113587e-10 -3.6565783794042983e-10 0.0000000000000000e+00  -6.3803251052169716e-10 -3.7837753064382248e-10 0.0000000000000000e+00  -3.5292716933214089e-10 -3.6031609107497451e-10 0.0000000000000000e+00  -1.8277028247968049e-10 -2.1668468619001794e-10 0.0000000000000000e+00  -2.0347786521677458e-10 7.4563770188158186e-10 0.0000000000000000e+00  -3.8085377013685411e-10 6.5198910191548804e-10 0.0000000000000000e+00  -6.5581209141866473e-10 6.5605312642918383e-10 0.0000000000000000e+00  -9.4931510283413551e-10 6.2703115690860980e-10 0.0000000000000000e+00  -1.2300601741693130e-09 5.7357539552741973e-10 0.0000000000000000e+00  -1.4841153173557830e-09 5.0138527694401786e-10 0.0000000000000000e+00  -1.7022951507650375e-09 4.1438299764798673e-10 0.0000000000000000e+00  -1.8778789075749877e-09 3.1579037349664408e-10 0.0000000000000000e+00  -2.0058227321341884e-09 2.0865738312930051e-10 0.0000000000000000e+00  -2.0825963490633250e-09 9.6043450211142698e-11 0.0000000000000000e+00  -2.1061643457888961e-09 -1.8948332937742381e-11 0.0000000000000000e+00  -2.0759886422663679e-09 -1.3319455389776695e-10 0.0000000000000000e+00  -1.9930246594676368e-09 -2.4359443677055047e-10 0.0000000000000000e+00  -1.8597048426161640e-09 -3.4711289447489905e-10 0.0000000000000000e+00  -1.6799157312465348e-09 -4.4080553386652760e-10 0.0000000000000000e+00  -1.4589986363039227e-09 -5.2179319694490560e-10 0.0000000000000000e+00  -1.2038812060753706e-09 -5.8710485094977836e-10 0.0000000000000000e+00  -9.2373925334435514e-10 -6.3316558080823844e-10 0.0000000000000000e+00  -6.3269369994445963e-10 -6.5432703462462459e-10 0.0000000000000000e+00  -3.6308777981806697e-10 -6.4032061745599195e-10 0.0000000000000000e+00  -1.9402646896968954e-10 -4.7544957141123081e-10 0.0000000000000000e+00  -2.0982447532483578e-10 1.0764128915518811e-09 0.0000000000000000e+00  -3.7958952525749262e-10 9.6484510427390504e-10 0.0000000000000000e+00  -6.5008331832041969e-10 9.5157134849474001e-10 0.0000000000000000e+00  -9.3391349300831524e-10 9.0650847080930743e-10 0.0000000000000000e+00  -1.2021888735149587e-09 8.3003832411818974e-10 0.0000000000000000e+00  -1.4438181810577293e-09 7.2711504836249231e-10 0.0000000000000000e+00  -1.6510472549625524e-09 6.0259209472842710e-10 0.0000000000000000e+00  -1.8176790021375323e-09 4.6100339426343768e-10 0.0000000000000000e+00  -1.9389269757429127e-09 3.0679141818478249e-10 0.0000000000000000e+00  -2.0114177107822564e-09 1.4443237373650668e-10 0.0000000000000000e+00  -2.0332066670699820e-09 -2.1539837712669568e-11 0.0000000000000000e+00  -2.0037886345708976e-09 -1.8656640168377016e-10 0.0000000000000000e+00  -1.9240938552907131e-09 -3.4612020472454288e-10 0.0000000000000000e+00  -1.7964672021081122e-09 -4.9576432714009945e-10 0.0000000000000000e+00  -1.6246319271468162e-09 -6.3119269563489481e-10 0.0000000000000000e+00  -1.4136500972114277e-09 -7.4822727374671660e-10 0.0000000000000000e+00  -1.1699382790512823e-09 -8.4273675536936628e-10 0.0000000000000000e+00  -9.0162791515535097e-10 -9.1046148718939268e-10 0.0000000000000000e+00  -6.2073213439026034e-10 -9.4677687125127469e-10 0.0000000000000000e+00  -3.5726755492376808e-10 -9.4619855941836826e-10 0.0000000000000000e+00  -1.9644446719076307e-10 -7.9028269765450137e-10 0.0000000000000000e+00  -2.2215077266898093e-10 1.4002905916532938e-09 0.0000000000000000e+00  -3.8017455054605087e-10 1.2787735464099350e-09 0.0000000000000000e+00  -6.4766551616939244e-10 1.2482467935119751e-09 0.0000000000000000e+00  -9.2833497566778888e-10 1.1837622812306846e-09 0.0000000000000000e+00  -1.1917565115568368e-09 1.0827229233379059e-09 0.0000000000000000e+00  -1.4275583831582556e-09 9.4886583116380682e-10 0.0000000000000000e+00  -1.6289576735701371e-09 7.8731976623999328e-10 0.0000000000000000e+00  -1.7904302526277947e-09 6.0356277289475709e-10 0.0000000000000000e+00  -1.9075745136318815e-09 4.0325400384734241e-10 0.0000000000000000e+00  -1.9772332401507712e-09 1.9220076203873721e-10 0.0000000000000000e+00  -1.9975793120592083e-09 -2.3682948023204579e-11 0.0000000000000000e+00  -1.9681534849964069e-09 -2.3844330328529713e-10 0.0000000000000000e+00  -1.8898677930610167e-09 -4.4616937544742942e-10 0.0000000000000000e+00  -1.7649798108164895e-09 -6.4107938528487394e-10 0.0000000000000000e+00  -1.5970376038465571e-09 -8.1759990689634075e-10 0.0000000000000000e+00  -1.3907996919731780e-09 -9.7043256820513077e-10 0.0000000000000000e+00  -1.1521860076839931e-09 -1.0946228167357780e-09 0.0000000000000000e+00  -8.8861572933091850e-10 -1.1857049990705045e-09 0.0000000000000000e+00  -6.1157593273035429e-10 -1.2399237528727546e-09 0.0000000000000000e+00  -3.5261660782280553e-10 -1.2533760749553437e-09 0.0000000000000000e+00  -2.0446530187935750e-10 -1.1082019545577118e-09 0.0000000000000000e+00  -2.3939233295431069e-10 1.7212593393473858e-09 0.0000000000000000e+00  -3.8484399587383168e-10 1.5918677246980126e-09 0.0000000000000000e+00  -6.5079542252949033e-10 1.5457227198733566e-09 0.0000000000000000e+00  -9.3177998675336843e-10 1.4605512567933160e-09 0.0000000000000000e+00  -1.1949650083349602e-09 1.3335861627074713e-09 0.0000000000000000e+00  -1.4295893087082459e-09 1.1681091172870451e-09 0.0000000000000000e+00  -1.6291842058262374e-09 9.6945484208515921e-10 0.0000000000000000e+00  -1.7886465503166193e-09 7.4384457135327035e-10 0.0000000000000000e+00  -1.9039051779789781e-09 4.9799721923381316e-10 0.0000000000000000e+00  -1.9720224782762158e-09 2.3894561394709575e-10 0.0000000000000000e+00  -1.9913005301415252e-09 -2.6091128358210095e-11 0.0000000000000000e+00  -1.9613369823995872e-09 -2.8982626711496174e-10 0.0000000000000000e+00  -1.8830365150502550e-09 -5.4502655187184827e-10 0.0000000000000000e+00  -1.7585846645464376e-09 -7.8463694667858586e-10 0.0000000000000000e+00  -1.5913857500162807e-09 -1.0019101474137848e-09 0.0000000000000000e+00  -1.3859752421052205e-09 -1.1905498856001609e-09 0.0000000000000000e+00  -1.1479914343164322e-09 -1.3448967358915140e-09 0.0000000000000000e+00  -8.8466628300419423e-10 -1.4602101894419363e-09 0.0000000000000000e+00  -6.0795941122293980e-10 -1.5328812905176709e-09 0.0000000000000000e+00  -3.5201327158832367e-10 -1.5590390060211907e-09 0.0000000000000000e+00  -2.1739051902561205e-10 -1.4213983666768125e-09 0.0000000000000000e+00  -2.6117834962177390e-10 2.0429397872198704e-09 0.0000000000000000e+00  -3.9358512445570955e-10 1.9063223248786700e-09 0.0000000000000000e+00  -6.5952368844634120e-10 1.8456904975239294e-09 0.0000000000000000e+00  -9.4313298235908361e-10 1.7395704385849666e-09 0.0000000000000000e+00  -1.2089234880926163e-09 1.5857345524277549e-09 0.0000000000000000e+00  -1.4453697159701652e-09 1.3877447313044533e-09 0.0000000000000000e+00  -1.6459207823592531e-09 1.1513746406321938e-09 0.0000000000000000e+00  -1.8056335714648615e-09 8.8358762666741591e-10 0.0000000000000000e+00  -1.9206433988142957e-09 5.9209426907752794e-10 0.0000000000000000e+00  -1.9881866182548406e-09 2.8507904847611759e-10 0.0000000000000000e+00  -2.0066842842302364e-09 -2.9000245946316825e-11 0.0000000000000000e+00  -1.9757952685514673e-09 -3.4158409872421668e-10 0.0000000000000000e+00  -1.8964302912341594e-09 -6.4417422763141131e-10 0.0000000000000000e+00  -1.7707301601443687e-09 -9.2849899737444379e-10 0.0000000000000000e+00  -1.6020120397249816e-09 -1.1866908762209399e-09 0.0000000000000000e+00  -1.3947038364186265e-09 -1.4114895240780271e-09 0.0000000000000000e+00  -1.1543803271281022e-09 -1.5964913265148723e-09 0.0000000000000000e+00  -8.8843589292243622e-10 -1.7364577550768491e-09 0.0000000000000000e+00  -6.0970836431993327e-10 -1.8274257948335181e-09 0.0000000000000000e+00  -3.5526888377592515e-10 -1.8650244064349912e-09 0.0000000000000000e+00  -2.3456042396047633e-10 -1.7316924735212273e-09 0.0000000000000000e+00  -2.8736886857332432e-10 2.3680517380679449e-09 0.0000000000000000e+00  -4.0570172677836680e-10 2.2244512974140557e-09 0.0000000000000000e+00  -6.7267886805519046e-10 2.1499874664197543e-09 0.0000000000000000e+00  -9.6039188796958693e-10 2.0228267001943348e-09 0.0000000000000000e+00  -1.2304370653881816e-09 1.8414157163578257e-09 0.0000000000000000e+00  -1.4704182306630654e-09 1.6099845180247458e-09 0.0000000000000000e+00  -1.6735362221116566e-09 1.3350058028508104e-09 0.0000000000000000e+00  -1.8348533324882425e-09 1.0242879392450107e-09 0.0000000000000000e+00  -1.9506110487782948e-09 6.8654385200032639e-10 0.0000000000000000e+00  -2.0181706922120744e-09 3.3107943155722319e-10 0.0000000000000000e+00  -2.0360551008892231e-09 -3.2454316145238154e-11 0.0000000000000000e+00  -2.0039837591175362e-09 -3.9427400642424757e-10 0.0000000000000000e+00  -1.9228835736270144e-09 -7.4466188326583468e-10 0.0000000000000000e+00  -1.7948748693685396e-09 -1.0741651811733673e-09 0.0000000000000000e+00  -1.6232370989599796e-09 -1.3738108836674010e-09 0.0000000000000000e+00  -1.4123805820570693e-09 -1.6353488864399612e-09 0.0000000000000000e+00  -1.1679560393416857e-09 -1.8515329908989948e-09 0.0000000000000000e+00  -8.9769011392292370e-10 -2.0164257184217235e-09 0.0000000000000000e+00  -6.1545202122924848e-10 -2.1254431091933728e-09 0.0000000000000000e+00  -3.6152469465158334e-10 -2.1735599036563034e-09 0.0000000000000000e+00  -2.5572220002430329e-10 -2.0421177621004415e-09 0.0000000000000000e+00  -3.1794612484807952e-10 2.6981704808124656e-09 0.0000000000000000e+00  -4.2020237242688331e-10 2.5478563116115685e-09 0.0000000000000000e+00  -6.8842462379423838e-10 2.4598498760567984e-09 0.0000000000000000e+00  -9.8080326065424611e-10 2.3114585505252144e-09 0.0000000000000000e+00  -1.2556949163555268e-09 2.1018136210234555e-09 0.0000000000000000e+00  -1.4998003093606087e-09 1.8360060518068869e-09 0.0000000000000000e+00  -1.7060364266651232e-09 1.5214068205227746e-09 0.0000000000000000e+00  -1.8694205286944030e-09 1.1667939613364773e-09 0.0000000000000000e+00  -1.9862604789746970e-09 7.8193350227230804e-10 0.0000000000000000e+00  -2.0540222563674608e-09 3.7725249751455711e-10 0.0000000000000000e+00  -2.0713242216130312e-09 -3.6433870460458394e-11 0.0000000000000000e+00  -2.0379462275325847e-09 -4.4815882507311141e-10 0.0000000000000000e+00  -1.9548334412081101e-09 -8.4702275261341406e-10 0.0000000000000000e+00  -1.8240926392002450e-09 -1.2224132327413409e-09 0.0000000000000000e+00  -1.6489845344936803e-09 -1.5642434576177425e-09 0.0000000000000000e+00  -1.4339397796042015e-09 -1.8632213132695256e-09 0.0000000000000000e+00  -1.1847404105308617e-09 -2.1111514881822974e-09 0.0000000000000000e+00  -9.0950417064183526e-10 -2.3012456504024072e-09 0.0000000000000000e+00  -6.2320499627407238e-10 -2.4281563899244961e-09 0.0000000000000000e+00  -3.6967305436606583e-10 -2.4861673837623543e-09 0.0000000000000000e+00  -2.8079166376556037e-10 -2.3549890824067841e-09 0.0000000000000000e+00  -3.5296563752397943e-10 3.0335693276206969e-09 0.0000000000000000e+00  -4.3588497828814724e-10 2.8770875573775880e-09 0.0000000000000000e+00  -7.0443390114480403e-10 2.7755626677841283e-09 0.0000000000000000e+00  -1.0009278316845457e-09 2.6055985718974024e-09 0.0000000000000000e+00  -1.2801209174759879e-09 2.3670233915869993e-09 0.0000000000000000e+00  -1.5277990239499518e-09 2.0659111810789779e-09 0.0000000000000000e+00  -1.7366330357164497e-09 1.7106808941775330e-09 0.0000000000000000e+00  -1.9016277165458000e-09 1.3111957070917793e-09 0.0000000000000000e+00  -2.0191847124212327e-09 8.7833431786853911e-10 0.0000000000000000e+00  -2.0868988635698433e-09 4.2365299256363503e-10 0.0000000000000000e+00  -2.1035012263702193e-09 -4.0896805595927641e-11 0.0000000000000000e+00  -2.0688368746139034e-09 -5.0320967118616846e-10 0.0000000000000000e+00  -1.9838597961999390e-09 -9.5124633108688057e-10 0.0000000000000000e+00  -1.8506426721031584e-09 -1.3732562532846506e-09 0.0000000000000000e+00  -1.6724028346195030e-09 -1.7580247347876855e-09 0.0000000000000000e+00  -1.4535695001896122e-09 -2.0951588229556943e-09 0.0000000000000000e+00  -1.2000399460269261e-09 -2.3754126174073896e-09 0.0000000000000000e+00  -9.2031591217279477e-10 -2.5910243445145499e-09 0.0000000000000000e+00  -6.3052504603261324e-10 -2.7357872183265385e-09 0.0000000000000000e+00  -3.7841879877752399e-10 -2.8032841640581822e-09 0.0000000000000000e+00  -3.0976670599641945e-10 -2.6714524066109084e-09 0.0000000000000000e+00  -3.9253003510745463e-10 3.3730316736157550e-09 0.0000000000000000e+00  -4.5132742542065509e-10 3.2113939243174122e-09 0.0000000000000000e+00  -7.1789162610902316e-10 3.0961886743065218e-09 0.0000000000000000e+00  -1.0165910324063318e-09 2.9041753466284110e-09 0.0000000000000000e+00  -1.2982077529115708e-09 2.6359360748544206e-09 0.0000000000000000e+00  -1.5476183658485727e-09 2.2986433544914527e-09 0.0000000000000000e+00  -1.7573400981219194e-09 1.9018956189618380e-09 0.0000000000000000e+00  -1.9224697603143721e-09 1.4567449039161927e-09 0.0000000000000000e+00  -2.0395990579626076e-09 9.7523373496946808e-10 0.0000000000000000e+00  -2.1065289938997434e-09 4.7004321840310284e-10 0.0000000000000000e+00  -2.1221520291059566e-09 -4.5786237225459052e-11 0.0000000000000000e+00  -2.0863915414812333e-09 -5.5907950996191783e-10 0.0000000000000000e+00  -2.0001862469572318e-09 -1.0567234528065311e-09 0.0000000000000000e+00  -1.8655186132258793e-09 -1.5258687299960253e-09 0.0000000000000000e+00  -1.6854850862170690e-09 -1.9541679966871353e-09 0.0000000000000000e+00  -1.4644276334771053e-09 -2.3300713323439535e-09 0.0000000000000000e+00  -1.2082778564794698e-09 -2.6431820806962827e-09 0.0000000000000000e+00  -9.2586496269299900e-10 -2.8846460530415873e-09 0.0000000000000000e+00  -6.3450422825070269e-10 -3.0473026834157741e-09 0.0000000000000000e+00  -3.8625753332934652e-10 -3.1240196653023492e-09 0.0000000000000000e+00  -3.4269458497903034e-10 -2.9912947797309815e-09 0.0000000000000000e+00  -4.3677405833859820e-10 3.7136020014922122e-09 0.0000000000000000e+00  -4.6484043950208201e-10 3.5484599609647860e-09 0.0000000000000000e+00  -7.2541590487492731e-10 3.4192854949610820e-09 0.0000000000000000e+00  -1.0227486617336014e-09 3.2046527389317706e-09 0.0000000000000000e+00  -1.3032942637783446e-09 2.9060214304441156e-09 0.0000000000000000e+00  -1.5510546292168590e-09 2.5318078605996333e-09 0.0000000000000000e+00  -1.7585441853054291e-09 2.0929306167236766e-09 0.0000000000000000e+00  -1.9211319162667989e-09 1.6017298360857366e-09 0.0000000000000000e+00  -2.0357719775929785e-09 1.0714454471168041e-09 0.0000000000000000e+00  -2.1006110723410972e-09 5.1584750664131274e-10 0.0000000000000000e+00  -2.1147904926928565e-09 -5.1025474504416613e-11 0.0000000000000000e+00  -2.0783353601604620e-09 -6.1504742543716068e-10 0.0000000000000000e+00  -1.9921263497239631e-09 -1.1621453642418152e-09 0.0000000000000000e+00  -1.8579549367942190e-09 -1.6784491957442179e-09 0.0000000000000000e+00  -1.6786551291483229e-09 -2.1504978269729983e-09 0.0000000000000000e+00  -1.4583225003308865e-09 -2.5655350087725021e-09 0.0000000000000000e+00  -1.2027726427981243e-09 -2.9119048719376692e-09 0.0000000000000000e+00  -9.2105475850582349e-10 -3.1795217579753627e-09 0.0000000000000000e+00  -6.3168491694986686e-10 -3.3601490095494030e-09 0.0000000000000000e+00  -3.9142317810076780e-10 -3.4459047174728758e-09 0.0000000000000000e+00  -3.7965545829429050e-10 -3.3127486661477903e-09 0.0000000000000000e+00  -4.8585711024486176e-10 4.0502625504731374e-09 0.0000000000000000e+00  -4.7440132891436770e-10 3.8840916967831141e-09 0.0000000000000000e+00  -7.2293271585231439e-10 3.7405732091789964e-09 0.0000000000000000e+00  -1.0132900981328569e-09 3.5026981979259933e-09 0.0000000000000000e+00  -1.2872786937273262e-09 3.1730157185433877e-09 0.0000000000000000e+00  -1.5281066076179986e-09 2.7613902612817606e-09 0.0000000000000000e+00  -1.7285118125496557e-09 2.2802343608223293e-09 0.0000000000000000e+00  -1.8844079864521066e-09 1.7432802580796871e-09 0.0000000000000000e+00  -1.9933765561308796e-09 1.1649741301399587e-09 0.0000000000000000e+00  -2.0541256449920522e-09 5.6008729387047063e-10 0.0000000000000000e+00  -2.0661804874495473e-09 -5.6506655717121410e-11 0.0000000000000000e+00  -2.0297036918608282e-09 -6.6993156134516380e-10 0.0000000000000000e+00  -1.9454507028594637e-09 -1.2653481086849289e-09 0.0000000000000000e+00  -1.8148640847151419e-09 -1.8280079379224156e-09 0.0000000000000000e+00  -1.6402930518483383e-09 -2.3433947048063536e-09 0.0000000000000000e+00  -1.4253365998093863e-09 -2.7975059526434733e-09 0.0000000000000000e+00  -1.1754588363457586e-09 -3.1772979040186501e-09 0.0000000000000000e+00  -8.9975786868442107e-10 -3.4712705180071556e-09 0.0000000000000000e+00  -6.1793261933625326e-10 -3.6699343684211353e-09 0.0000000000000000e+00  -3.9181798697332596e-10 -3.7645897856674044e-09 0.0000000000000000e+00  -4.2075237355680181e-10 -3.6322359459264728e-09 0.0000000000000000e+00  -5.3996357509477894e-10 4.3755240768363623e-09 0.0000000000000000e+00  -4.7757511102690353e-10 4.2118304530425561e-09 0.0000000000000000e+00  -7.0551704227284252e-10 4.0535291608933424e-09 0.0000000000000000e+00  -9.8078823726959022e-10 3.7917654231030567e-09 0.0000000000000000e+00  -1.2402635030753515e-09 3.4305085634191554e-09 0.0000000000000000e+00  -1.4665