<?xml version="1.0"?>
<VTKFile type="UnstructuredGrid"  version="0.1"  >
<UnstructuredGrid>
<Piece  NumberOfPoints="651" NumberOfCells="1200">
<Points>
<DataArray  type="Float64"  NumberOfComponents="3"  format="ascii">0 0 0  50000 0 0  100000 0 0  150000 0 0  200000 0 0  250000 0 0  300000 0 0  350000 0 0  400000 0 0  450000 0 0  500000 0 0  550000 0 0  600000 0 0  650000 0 0  700000 0 0  750000 0 0  800000 0 0  850000 0 0  900000 0 0  950000 0 0  1000000 0 0  0 50000 0  50000 50000 0  100000 50000 0  150000 50000 0  200000 50000 0  250000 50000 0  300000 50000 0  350000 50000 0  400000 50000 0  450000 50000 0  500000 50000 0  550000 50000 0  600000 50000 0  650000 50000 0  700000 50000 0  750000 50000 0  800000 50000 0  850000 50000 0  900000 50000 0  950000 50000 0  1000000 50000 0  0 100000 0  50000 100000 0  100000 100000 0  150000 100000 0  200000 100000 0  250000 100000 0  300000 100000 0  350000 100000 0  400000 100000 0  450000 100000 0  500000 100000 0  550000 100000 0  600000 100000 0  650000 100000 0  700000 100000 0  750000 100000 0  800000 100000 0  850000 100000 0  900000 100000 0  950000 100000 0  1000000 100000 0  0 150000 0  50000 150000 0  100000 150000 0  150000 150000 0  200000 150000 0  250000 150000 0  300000 150000 0  350000 150000 0  400000 150000 0  450000 150000 0  500000 150000 0  550000 150000 0  600000 150000 0  650000 150000 0  700000 150000 0  750000 150000 0  800000 150000 0  850000 150000 0  900000 150000 0  950000 150000 0  1000000 150000 0  0 200000 0  50000 200000 0  100000 200000 0  150000 200000 0  200000 200000 0  250000 200000 0  300000 200000 0  350000 200000 0  400000 200000 0  450000 200000 0  500000 200000 0  550000 200000 0  600000 200000 0  650000 200000 0  700000 200000 0  750000 200000 0  800000 200000 0  850000 200000 0  900000 200000 0  950000 200000 0  1000000 200000 0  0 250000 0  50000 250000 0  100000 250000 0  150000 250000 0  200000 250000 0  250000 250000 0  300000 250000 0  350000 250000 0  400000 250000 0  450000 250000 0  500000 250000 0  550000 250000 0  600000 250000 0  650000 250000 0  700000 250000 0  750000 250000 0  800000 250000 0  850000 250000 0  900000 250000 0  950000 250000 0  1000000 250000 0  0 300000 0  50000 300000 0  100000 300000 0  150000 300000 0  200000 300000 0  250000 300000 0  300000 300000 0  350000 300000 0  400000 300000 0  450000 300000 0  500000 300000 0  550000 300000 0  600000 300000 0  650000 300000 0  700000 300000 0  750000 300000 0  800000 300000 0  850000 300000 0  900000 300000 0  950000 300000 0  1000000 300000 0  0 350000 0  50000 350000 0  100000 350000 0  150000 350000 0  200000 350000 0  250000 350000 0  300000 350000 0  350000 350000 0  400000 350000 0  450000 350000 0  500000 350000 0  550000 350000 0  600000 350000 0  650000 350000 0  700000 350000 0  750000 350000 0  800000 350000 0  850000 350000 0  900000 350000 0  950000 350000 0  1000000 350000 0  0 400000 0  50000 400000 0  100000 400000 0  150000 400000 0  200000 400000 0  250000 400000 0  300000 400000 0  350000 400000 0  400000 400000 0  450000 400000 0  500000 400000 0  550000 400000 0  600000 400000 0  650000 400000 0  700000 400000 0  750000 400000 0  800000 400000 0  850000 400000 0  900000 400000 0  950000 400000 0  1000000 400000 0  0 450000 0  50000 450000 0  100000 450000 0  150000 450000 0  200000 450000 0  250000 450000 0  300000 450000 0  350000 450000 0  400000 450000 0  450000 450000 0  500000 450000 0  550000 450000 0  600000 450000 0  650000 450000 0  700000 450000 0  750000 450000 0  800000 450000 0  850000 450000 0  900000 450000 0  950000 450000 0  1000000 450000 0  0 500000 0  50000 500000 0  100000 500000 0  150000 500000 0  200000 500000 0  250000 500000 0  300000 500000 0  350000 500000 0  400000 500000 0  450000 500000 0  500000 500000 0  550000 500000 0  600000 500000 0  650000 500000 0  700000 500000 0  750000 500000 0  800000 500000 0  850000 500000 0  900000 500000 0  950000 500000 0  1000000 500000 0  0 550000 0  50000 550000 0  100000 550000 0  150000 550000 0  200000 550000 0  250000 550000 0  300000 550000 0  350000 550000 0  400000 550000 0  450000 550000 0  500000 550000 0  550000 550000 0  600000 550000 0  650000 550000 0  700000 550000 0  750000 550000 0  800000 550000 0  850000 550000 0  900000 550000 0  950000 550000 0  1000000 550000 0  0 600000 0  50000 600000 0  100000 600000 0  150000 600000 0  200000 600000 0  250000 600000 0  300000 600000 0  350000 600000 0  400000 600000 0  450000 600000 0  500000 600000 0  550000 600000 0  600000 600000 0  650000 600000 0  700000 600000 0  750000 600000 0  800000 600000 0  850000 600000 0  900000 600000 0  950000 600000 0  1000000 600000 0  0 650000 0  50000 650000 0  100000 650000 0  150000 650000 0  200000 650000 0  250000 650000 0  300000 650000 0  350000 650000 0  400000 650000 0  450000 650000 0  500000 650000 0  550000 650000 0  600000 650000 0  650000 650000 0  700000 650000 0  750000 650000 0  800000 650000 0  850000 650000 0  900000 650000 0  950000 650000 0  1000000 650000 0  0 700000 0  50000 700000 0  100000 700000 0  150000 700000 0  200000 700000 0  250000 700000 0  300000 700000 0  350000 700000 0  400000 700000 0  450000 700000 0  500000 700000 0  550000 700000 0  600000 700000 0  650000 700000 0  700000 700000 0  750000 700000 0  800000 700000 0  850000 700000 0  900000 700000 0  950000 700000 0  1000000 700000 0  0 750000 0  50000 750000 0  100000 750000 0  150000 750000 0  200000 750000 0  250000 750000 0  300000 750000 0  350000 750000 0  400000 750000 0  450000 750000 0  500000 750000 0  550000 750000 0  600000 750000 0  650000 750000 0  700000 750000 0  750000 750000 0  800000 750000 0  850000 750000 0  900000 750000 0  950000 750000 0  1000000 750000 0  0 800000 0  50000 800000 0  100000 800000 0  150000 800000 0  200000 800000 0  250000 800000 0  300000 800000 0  350000 800000 0  400000 800000 0  450000 800000 0  500000 800000 0  550000 800000 0  600000 800000 0  650000 800000 0  700000 800000 0  750000 800000 0  800000 800000 0  850000 800000 0  900000 800000 0  950000 800000 0  1000000 800000 0  0 850000 0  50000 850000 0  100000 850000 0  150000 850000 0  200000 850000 0  250000 850000 0  300000 850000 0  350000 850000 0  400000 850000 0  450000 850000 0  500000 850000 0  550000 850000 0  600000 850000 0  650000 850000 0  700000 850000 0  750000 850000 0  800000 850000 0  850000 850000 0  900000 850000 0  950000 850000 0  1000000 850000 0  0 900000 0  50000 900000 0  100000 900000 0  150000 900000 0  200000 900000 0  250000 900000 0  300000 900000 0  350000 900000 0  400000 900000 0  450000 900000 0  500000 900000 0  550000 900000 0  600000 900000 0  650000 900000 0  700000 900000 0  750000 900000 0  800000 900000 0  850000 900000 0  900000 900000 0  950000 900000 0  1000000 900000 0  0 950000 0  50000 950000 0  100000 950000 0  150000 950000 0  200000 950000 0  250000 950000 0  300000 950000 0  350000 950000 0  400000 950000 0  450000 950000 0  500000 950000 0  550000 950000 0  600000 950000 0  650000 950000 0  700000 950000 0  750000 950000 0  800000 950000 0  850000 950000 0  900000 950000 0  950000 950000 0  1000000 950000 0  0 1000000 0  50000 1000000 0  100000 1000000 0  150000 1000000 0  200000 1000000 0  250000 1000000 0  300000 1000000 0  350000 1000000 0  400000 1000000 0  450000 1000000 0  500000 1000000 0  550000 1000000 0  600000 1000000 0  650000 1000000 0  700000 1000000 0  750000 1000000 0  800000 1000000 0  850000 1000000 0  900000 1000000 0  950000 1000000 0  1000000 1000000 0  0 1050000 0  50000 1050000 0  100000 1050000 0  150000 1050000 0  200000 1050000 0  250000 1050000 0  300000 1050000 0  350000 1050000 0  400000 1050000 0  450000 1050000 0  500000 1050000 0  550000 1050000 0  600000 1050000 0  650000 1050000 0  700000 1050000 0  750000 1050000 0  800000 1050000 0  850000 1050000 0  900000 1050000 0  950000 1050000 0  1000000 1050000 0  0 1100000 0  50000 1100000 0  100000 1100000 0  150000 1100000 0  200000 1100000 0  250000 1100000 0  300000 1100000 0  350000 1100000 0  400000 1100000 0  450000 1100000 0  500000 1100000 0  550000 1100000 0  600000 1100000 0  650000 1100000 0  700000 1100000 0  750000 1100000 0  800000 1100000 0  850000 1100000 0  900000 1100000 0  950000 1100000 0  1000000 1100000 0  0 1150000 0  50000 1150000 0  100000 1150000 0  150000 1150000 0  200000 1150000 0  250000 1150000 0  300000 1150000 0  350000 1150000 0  400000 1150000 0  450000 1150000 0  500000 1150000 0  550000 1150000 0  600000 1150000 0  650000 1150000 0  700000 1150000 0  750000 1150000 0  800000 1150000 0  850000 1150000 0  900000 1150000 0  950000 1150000 0  1000000 1150000 0  0 1200000 0  50000 1200000 0  100000 1200000 0  150000 1200000 0  200000 1200000 0  250000 1200000 0  300000 1200000 0  350000 1200000 0  400000 1200000 0  450000 1200000 0  500000 1200000 0  550000 1200000 0  600000 1200000 0  650000 1200000 0  700000 1200000 0  750000 1200000 0  800000 1200000 0  850000 1200000 0  900000 1200000 0  950000 1200000 0  1000000 1200000 0  0 1250000 0  50000 1250000 0  100000 1250000 0  150000 1250000 0  200000 1250000 0  250000 1250000 0  300000 1250000 0  350000 1250000 0  400000 1250000 0  450000 1250000 0  500000 1250000 0  550000 1250000 0  600000 1250000 0  650000 1250000 0  700000 1250000 0  750000 1250000 0  800000 1250000 0  850000 1250000 0  900000 1250000 0  950000 1250000 0  1000000 1250000 0  0 1300000 0  50000 1300000 0  100000 1300000 0  150000 1300000 0  200000 1300000 0  250000 1300000 0  300000 1300000 0  350000 1300000 0  400000 1300000 0  450000 1300000 0  500000 1300000 0  550000 1300000 0  600000 1300000 0  650000 1300000 0  700000 1300000 0  750000 1300000 0  800000 1300000 0  850000 1300000 0  900000 1300000 0  950000 1300000 0  1000000 1300000 0  0 1350000 0  50000 1350000 0  100000 1350000 0  150000 1350000 0  200000 1350000 0  250000 1350000 0  300000 1350000 0  350000 1350000 0  400000 1350000 0  450000 1350000 0  500000 1350000 0  550000 1350000 0  600000 1350000 0  650000 1350000 0  700000 135
[...]
<PointData  Scalars="f_7495"> 
<DataArray  type="Float64"  Name="f_7495"  format="ascii">-5.1392247068204222e+00  -4.6649377647755585e+00  -4.1389928967567560e+00  -3.5779204641533475e+00  -2.9990461025552384e+00  -2.4077628288385267e+00  -1.8069853825828126e+00  -1.1989364408101313e+00  -5.8561630047766033e-01  3.1034760484085600e-02  6.4907221381480629e-01  1.2665171895820284e+00  1.8813325912635526e+00  2.4913842722575423e+00  3.0943597202199657e+00  3.6875952801466090e+00  4.2677123932076091e+00  4.8298107070460494e+00  5.3651172830881606e+00  5.8512314416453064e+00  6.1666897777295615e+00  -4.8387140767156280e+00  -4.6225653357127845e+00  -4.1301821113547570e+00  -3.5766656243143098e+00  -2.9996630250180805e+00  -2.4088260562474075e+00  -1.8080530130108639e+00  -1.1998276389967162e+00  -5.8623558073470050e-01  3.0750660975793417e-02  6.4917487481334946e-01  1.2670583015719648e+00  1.8823753841578794e+00  2.4930184839296445e+00  3.0967180229301485e+00  3.6908373636230998e+00  4.2717805890321321e+00  4.8330449095575023e+00  5.3582583658465248e+00  5.7963027326128804e+00  5.9857881797447234e+00  -4.4916594849364495e+00  -4.3859863300724733e+00  -4.0152560107242108e+00  -3.5203047957771982e+00  -2.9706290240571223e+00  -2.3933266329175154e+00  -1.7996629007264398e+00  -1.1953205031963272e+00  -5.8389442628887189e-01  3.1839694022056088e-02  6.4942517645645004e-01  1.2664974814959571e+00  1.8806429313622306e+00  2.4892412927607972e+00  3.0891791501123018e+00  3.6762052895357269e+00  4.2433575048570589e+00  4.7770072175158926e+00  5.2471893190030876e+00  5.5872570959134382e+00  5.6736007925135601e+00  -4.1595087601991390e+00  -4.0965369143535177e+00  -3.8178942342312334e+00  -3.3968474994352031e+00  -2.8945549813102245e+00  -2.3462707346734049e+00  -1.7705469748201677e+00  -1.1776119346576752e+00  -5.7377639035622385e-01  3.6490387328127434e-02  6.4955986057875481e-01  1.2621111678728971e+00  1.8707679291607640e+00  2.4717196473791430e+00  3.0601392573589341e+00  3.6290989172345682e+00  4.1674390955347675e+00  4.6556843687485081e+00  5.0591507147360408e+00  5.3205384992629865e+00  5.3702133135738270e+00  -3.8456829493244631e+00  -3.8017343535935280e+00  -3.5830850656136546e+00  -3.2266601222952502e+00  -2.7767244558353221e+00  -2.2664887393570265e+00  -1.7175312627997332e+00  -1.1435284502941312e+00  -5.5354245080963504e-01  4.5888508332638744e-02  6.4951526690805650e-01  1.2526092143462755e+00  1.8503884786450597e+00  2.4374374049070373e+00  3.0069244105037880e+00  3.5493796665395676e+00  4.0507455807706805e+00  4.4895376838843557e+00  4.8338217639683778e+00  5.0417129598411625e+00  5.0768743603864772e+00  -3.5515249638202002e+00  -3.5175828288438411e+00  -3.3383519313786216e+00  -3.0327540710133665e+00  -2.6311804432875450e+00  -2.1611625483697425e+00  -1.6437556396604507e+00  -1.0941566785594001e+00  -5.2340583960354981e-01  6.0072114062411357e-02  6.4932642165143573e-01  1.2380464796910822e+00  1.8198809416151320e+00  2.3877600036975419e+00  2.9330803960040219e+00  3.4446302363597039e+00  3.9072140930752060e+00  4.3002326619131193e+00  4.5972554440758886e+00  4.7692639512738451e+00  4.7972946648914032e+00  -3.2789373859283995e+00  -3.2510362246432285e+00  -3.0988136110913969e+00  -2.8321994716274648e+00  -2.4720731583379232e+00  -2.0402242782581168e+00  -1.5555406786338910e+00  -1.0332354656077098e+00  -4.8538112409266515e-01  7.8197674099231756e-02  6.4906206293065205e-01  1.2194140435623388e+00  1.7814320102962300e+00  2.3266150513262951e+00  2.8450703289109507e+00  3.3247224236929740e+00  3.7505408091881134e+00  4.1041370198666973e+00  4.3645455203992105e+00  4.5116957929846899e+00  4.5354662007330520e+00  -3.0299398435985321e+00  -3.0060590578232205e+00  -2.8731565485181281e+00  -2.6365013487940403e+00  -2.3108003650081681e+00  -1.9131646290923268e+00  -1.4599494793085928e+00  -9.6556778248987596e-01  -4.4237856359783423e-01  9.8929159118118004e-02  6.4878716682352977e-01  1.1981762888189944e+00  1.7380694132931087e+00  2.2588840668050962e+00  2.7499414165685452e+00  3.1989718020988804e+00  3.5918018600490291e+00  3.9125164968352957e+00  4.1446007246369989e+00  4.2738360254272187e+00  4.2947207510533998e+00  -2.8063745380186362e+00  -2.7853476059173903e+00  -2.6667480370693593e+00  -2.4533237583902054e+00  -2.1558205374176813e+00  -1.7878464382689168e+00  -1.3634463266076697e+00  -8.9593223014733958e-01  -3.9748686468856032e-01  1.2078011365928049e-01  6.4854768775557570e-01  1.1759043734831029e+00  1.6929418591536982e+00  2.1893564013630722e+00  2.6540927388217810e+00  3.0750951522963961e+00  3.4392881838019203e+00  3.7329860892985067e+00  3.9430073950011817e+00  4.0589057051042960e+00  4.0776966184791918e+00  -2.6098021108324496e+00  -2.5908848762697461e+00  -2.4831152191884409e+00  -2.2878263624735360e+00  -2.0132069305220130e+00  -1.6703409347234481e+00  -1.2713758713307575e+00  -8.2851538080255716e-01  -3.5353560249339822e-01  1.4234356227698700e-01  6.4836884896894442e-01  1.1540479906368877e+00  1.6488981242113807e+00  2.1221995169333239e+00  2.5628048444322671e+00  2.9590700694507066e+00  3.2990000123040080e+00  3.5707285938151920e+00  3.7634756131345219e+00  3.8692366224548822e+00  3.8864566368617162e+00  -2.4414836744553390e+00  -2.4241607650588377e+00  -2.3246681003499408e+00  -2.1435245139019483e+00  -1.8872514544507550e+00  -1.5651493457022809e+00  -1.1878941137931791e+00  -7.6671080739312802e-01  -3.1289445380412417e-01  1.6241188913750129e-01  6.4825930836319956e-01  1.1338262465683830e+00  1.6083028909061268e+00  2.0607788035781343e+00  2.4801847906631229e+00  2.8553456472381100e+00  3.1752079725110351e+00  3.4293098841991592e+00  3.6085658003095413e+00  3.7065667048903430e+00  3.7225978039833474e+00  -2.3023983684972027e+00  -2.2862863382957270e+00  -2.1930804196476545e+00  -2.0228256403205793e+00  -1.7809507967423406e+00  -1.4755147796567518e+00  -1.1160967777139952e+00  -7.1312335204164734e-01  -2.7742695101461040e-01  1.8001702252808371e-01  6.4821651588970775e-01  1.1161986797616026e+00  1.5730021054372378e+00  2.0076708451833185e+00  2.4092947828326237e+00  2.7671406387013207e+00  3.0709153871366710e+00  3.3111973546918270e+00  3.4800771145931955e+00  3.5721931789749370e+00  3.5873374042048716e+00  -2.1932747681130338e+00  -2.1780692093792449e+00  -2.0895095002895934e+00  -1.9273682151965645e+00  -1.6963643095256591e+00  -1.4037122224716254e+00  -1.0582066600320239e+00  -6.6966452881179028e-01  -2.4852571832027748e-01  1.9442415764528864e-01  6.4823122352256235e-01  1.1018801754852179e+00  1.5443652340716452e+00  1.9647619784115560e+00  2.3523362597607158e+00  2.6967232695764736e+00  2.9882031784864229e+00  3.2180914384831496e+00  3.3792737822738017e+00  3.4670701390921668e+00  3.4815822519666120e+00  -2.1146255129842144e+00  -2.1000701477897361e+00  -2.0147337296608723e+00  -1.8582408422083576e+00  -1.6348677244470102e+00  -1.3512828111930082e+00  -1.0157547209543825e+00  -6.3767213872064732e-01  -2.2717914146440749e-01  2.0510460991525686e-01  6.4829063246314689e-01  1.0913738179792534e+00  1.5233557689563724e+00  1.9333685174673476e+00  2.3108275331412349e+00  2.6456387425167471e+00  2.9284764658429112e+00  3.1511417665524593e+00  3.3070276889427181e+00  3.3918788863109044e+00  3.4059854997407868e+00  -2.0667788998485084e+00  -2.0526464513997418e+00  -1.9692422701060766e+00  -1.8161250138132516e+00  -1.5973274597146481e+00  -1.3192078854798504e+00  -9.8972822294094831e-01  -6.1801963503754254e-01  -2.1404009186574058e-01  2.1170419273620494e-01  6.4838031172247212e-01  1.0850058292151508e+00  1.5106017557016385e+00  1.9143456563689134e+00  2.2857490590872813e+00  2.6148789102234806e+00  2.8926349933446183e+00  3.1110891026133860e+00  3.2639121799275630e+00  3.3470804730828059e+00  3.3609922591036390e+00  -2.0499033251904111e+00  -2.0359829353173140e+00  -1.9532924522827388e+00  -1.8013851902606284e+00  -1.5842137853248082e+00  -1.3080273991128368e+00  -9.8067729579206331e-01  -6.1119959417599767e-01  -2.0948144220243492e-01  2.1401633755374486e-01  6.4848521265766657e-01  1.0829540877615758e+00  1.5064518675177552e+00  1.9081700194913100e+00  2.2776477211073716e+00  2.6049978244281506e+00  2.8811842106401189e+00  3.0983556155759513e+00  3.2502628775980638e+00  3.3329533606326400e+00  3.3468737505057424e+00  -2.0640218337883103e+00  -2.0501100477674790e+00  -1.9669417546122383e+00  -1.8141186772980715e+00  -1.5956645680293060e+00  -1.3179084849081741e+00  -9.8877863377197583e-01  -6.1737523105360437e-01  -2.1363133038632448e-01  2.1196459610017243e-01  6.4859011359286500e-01  1.0852662325791278e+00  1.5110105171810670e+00  1.9149900603528547e+00  2.2866986482562588e+00  2.6161783107951644e+00  2.8942978850299714e+00  3.1130954391285801e+00  3.2662126954214221e+00  3.3496168767150962e+00  3.3637493251638610e+00  -2.1090150744254577e+00  -2.0949084609955819e+00  -2.0100572636273997e+00  -1.8541713412371401e+00  -1.6315060405276025e+00  -1.3486683172014542e+00  -1.0138571078259369e+00  -6.3639809215204057e-01  -2.2638534364105378e-01  2.0559660733607926e-01  6.4867979285220012e-01  1.0918658154000889e+00  1.5241495667797462e+00  1.9346425640359797e+00  2.3127251462697180e+00  2.6482532365083440e+00  2.9318381497623536e+00  3.1552112675237001e+00  3.3117041549762445e+00  3.3970405731051247e+00  3.4115959382995937e+00  -2.1846118266512646e+00  -2.1700997137768194e+00  -2.0823033569584588e+00  -1.9211210131678038e+00  -1.6912327531710947e+00  -1.3997528442611600e+00  -1.0553658344453976e+00  -6.6779155309623361e-01  -2.4739480875630704e-01  1.9509024983012840e-01  6.4873920179280542e-01  1.1025462676700803e+00  1.5454961436356398e+00  1.9666349541271364e+00  2.3551770853473748e+00  2.7006826477869823e+00  2.9933347348410360e+00  3.2243386405119407e+00  3.3864799256049691e+00  3.4750396346946149e+00  3.4902451934284038e+00  -2.2903669788895127e+00  -2.2752227536595817e+00  -2.1831066892778388e+00  -2.0142269293764792e+00  -1.7739449618213268e+00  -1.4701702133859855e+00  -1.1123243575172803e+00  -7.1070041986797150e-01  -2.7603168012187584e-01  1.8077174555376799e-01  6.4875390942567923e-01  1.1169534027873078e+00  1.5743973763299997e+00  2.0100937773570164e+00  2.4130672030293603e+00  2.7724852049721180e+00  3.0779212220577290e+00  3.3197960656359631e+00  3.4900508449630232e+00  3.5832567636110841e+00  3.5993687938125634e+00  -2.4256273786679619e+00  -2.4095962795749610e+00  -2.3115953749941616e+00  -2.1323394588837954e+00  -1.8782375471956609e+00  -1.5583752219227238e+00  -1.1832143653477398e+00  -7.6380837826275005e-01  -3.1133246559072508e-01  1.6314417874702258e-01  6.4871111695221950e-01  1.1345585361779207e+00  1.6098648791195482e+00  2.0636812327085448e+00  2.4848645391085986e+00  2.8621197710176962e+00  3.1842218797661594e+00  3.4404949392173383e+00  3.6216385256653210e+00  3.7211311903742050e+00  3.7384540997707028e+00  -2.5894862115462911e+00  -2.5722661971394714e+00  -2.4665051878191093e+00  -2.2737581684997896e+00  -2.0020295869886047e+00  -1.6620996441352898e+00  -1.2658344191168496e+00  -8.2522909161790203e-01  -3.5192769889594211e-01  1.4292243467856397e-01  6.4860157634651938e-01  1.1546268630384793e+00  1.6505060278088659e+00  2.1254858061180291e+00  2.5683462966462325e+00  2.9673113600389098e+00  3.3101773558374532e+00  3.5847967877889459e+00  3.7800856445038340e+00  3.8878553015851232e+00  3.9067725361478125e+00  -2.7807261931637566e+00  -2.7619352797888692e+00  -2.6460369696857486e+00  -2.4360156639830670e+00  -2.1423177584864828e+00  -1.7781247269809484e+00  -1.3571223135063260e+00  -8.9238597604760106e-01  -3.9597143383821132e-01  1.2106605183239459e-01  6.4842273755993329e-01  1.1761903116562358e+00  1.6944572900040793e+00  2.1929026554628579e+00  2.6604167519231821e+00  3.0848168635844071e+00  3.4527909627331441e+00  3.7502941837056420e+00  3.9637184623847665e+00  4.0823180312327869e+00  4.1033449633340355e+00  -2.9977503257379374e+00  -2.9768656001117484e+00  -2.8476302993215343e+00  -2.6155460715198373e+00  -2.2948314347335557e+00  -1.9020013767833905e+00  -1.4529709912530433e+00  -9.6191364148958181e-01  -4.4109898797758224e-01  9.8794136496543644e-02  6.4818325849201952e-01  1.1980412661974396e+00  1.7393489889133926e+00  2.2625382078054264e+00  2.7569199046241297e+00  3.2101350544078415e+00  3.6077707903236669e+00  3.9334717741095058e+00  4.1701269738335665e+00  4.3030294831386566e+00  4.3269102689139682e+00  -3.2384957754175652e+00  -3.2147253676692040e+00  -3.0675750950837437e+00  -2.8071665945512274e+00  -2.4535703838726119e+00  -2.0277519983774477e+00  -1.5480999035954031e+00  -1.0296446260107295e+00  -4.8446158498065450e-01  7.7556381753246209e-02  6.4790836238494198e-01  1.2187727512163657e+00  1.7823515494082609e+00  2.3302058909232879e+00  2.8525111039494591e+00  3.3371947035736564e+00  3.7690435836534553e+00  4.1291698969429813e+00  4.3957840364068836e+00  4.5480066499587029e+00  4.5759078112438756e+00  -3.5003242395758893e+00  -3.4722935259583374e+00  -3.3002850187603681e+00  -3.0032622365976005e+00  -2.6102436677596650e+00  -2.1476598110441540e+00  -1.6361099706884352e+00  -1.0907895783819261e+00  -5.2291051629951324e-01  5.8923945624541375e-02  6.4764400366420005e-01  1.2368983112532270e+00  1.8203762649191886e+00  2.3911271038750206e+00  2.9407260649760558e+00  3.4581329736853355e+00  3.9281508686031215e+00  4.3297244963289270e+00  4.6353223566941510e+00  4.8145532541593594e+00  4.8484953891357163e+00  -3.7799039350709247e+00  -3.7447425345256127e+00  -3.5368513386528146e+00  -3.1925672585687908e+00  -2.7537751554550995e+00  -2.2524092412239853e+00  -1.7099539851881700e+00  -1.1404669795913926e+00  -5.5341805332940985e-01  4.4361210969376473e-02  6.4745515840760826e-01  1.2510819169830281e+00  1.8505128761252967e+00  2.4404988756097810e+00  3.0145016881153781e+00  3.5634591646726665e+00  4.0736948811509306e+00  4.5236305476108409e+00  4.8800554909292329e+00  5.0987047789090880e+00  5.1426533746400187e+00  -4.0732428882582443e+00  -4.0235680739474011e+00  -3.7621802894204492e+00  -3.3587139434329112e+00  -2.8704686702191635e+00  -2.3321284919189513e+00  -1.7631688320432901e+00  -1.1747492220634814e+00  -5.7379750384509420e-01  3.4859257442774814e-02  6.4741056473692626e-01  1.2604800379875583e+00  1.8707468156719012e+00  2.4745823599733483e+00  3.0675174001358512e+00  3.6432411599890790e+00  4.1915254066258765e+00  4.6938179247508280e+00  5.1148646595468463e+00  5.3935073396691120e+00  5.4564791855147261e+00  -4.3766303671979507e+00  -4.2902866705978102e+00  -3.9502188936874774e+00  -3.4800367922002806e+00  -2.9463870795414535e+00  -2.3792348642201020e+00  -1.7922087247966498e+00  -1.1922708674451259e+00  -5.8367250604655818e-01  3.0472943819723292e-02  6.4754524885924358e-01  1.2651307312936397e+00  1.8808648516045652e+00  2.4922909285120074e+00  3.0966333260421299e+00  3.6902970582331975e+00  4.2675994493727893e+00  4.8172752210928422e+00  5.3122264360398370e+00  5.6829567553880800e+00  5.7886299102520775e+00  -4.6888177544291247e+00  -4.4993323072972755e+00  -4.0612879405309492e+00  -3.5360744842419112e+00  -2.9748101637165236e+00  -2.3938669383074664e+00  -1.7997475976144908e+00  -1.1960480586139723e+00  -5.8540495884219912e-01  2.9912123743721784e-02  6.4779555050234372e-01  1.2662197643399058e+00  1.8832060060503977e+00  2.4967980643124088e+00  3.1050234383265534e+00  3.7057964815630777e+00  4.2966334503337462e+00  4.8736360496299564e+00  5.4271525366704054e+00  5.9195357610284098e+00  6.1356845020312578e+00  -4.8697193524139584e+00  -4.5542610163296979e+00  -4.0681468577725681e+00  -3.5328402817304529e+00  -2.9707419678919931e+00  -2.3906248548309743e+00  -1.7973892949043062e+00  -1.1944138469418712e+00  -5.8436216594786972e-01  3.0453235733662563e-02  6.4789821150089044e-01  1.2659356648316087e+00  1.8825867257933608e+00  2.4959068661258268e+00  3.1039558078985072e+00  3.7047332541541960e+00  4.2960165278709059e+00  4.8748908894690048e+00  5.4359633220723973e+00  5.9619081900911972e+00  6.4361951321360547e+00  </DataArray> 
</PointData> 
</Piece>
</UnstructuredGrid>
</VTKFile>