<?xml version="1.0"?>
<VTKFile type="UnstructuredGrid"  version="0.1"  >
<UnstructuredGrid>
<Piece  NumberOfPoints="651" NumberOfCells="1200">
<Points>
<DataArray  type="Float64"  NumberOfComponents="3"  format="ascii">0 0 0  50000 0 0  100000 0 0  150000 0 0  200000 0 0  250000 0 0  300000 0 0  350000 0 0  400000 0 0  450000 0 0  500000 0 0  550000 0 0  600000 0 0  650000 0 0  700000 0 0  750000 0 0  800000 0 0  850000 0 0  900000 0 0  950000 0 0  1000000 0 0  0 50000 0  50000 50000 0  100000 50000 0  150000 50000 0  200000 50000 0  250000 50000 0  300000 50000 0  350000 50000 0  400000 50000 0  450000 50000 0  500000 50000 0  550000 50000 0  600000 50000 0  650000 50000 0  700000 50000 0  750000 50000 0  800000 50000 0  850000 50000 0  900000 50000 0  950000 50000 0  1000000 50000 0  0 100000 0  50000 100000 0  100000 100000 0  150000 100000 0  200000 100000 0  250000 100000 0  300000 100000 0  350000 100000 0  400000 100000 0  450000 100000 0  500000 100000 0  550000 100000 0  600000 100000 0  650000 100000 0  700000 100000 0  750000 100000 0  800000 100000 0  850000 100000 0  900000 100000 0  950000 100000 0  1000000 100000 0  0 150000 0  50000 150000 0  100000 150000 0  150000 150000 0  200000 150000 0  250000 150000 0  300000 150000 0  350000 150000 0  400000 150000 0  450000 150000 0  500000 150000 0  550000 150000 0  600000 150000 0  650000 150000 0  700000 150000 0  750000 150000 0  800000 150000 0  850000 150000 0  900000 150000 0  950000 150000 0  1000000 150000 0  0 200000 0  50000 200000 0  100000 200000 0  150000 200000 0  200000 200000 0  250000 200000 0  300000 200000 0  350000 200000 0  400000 200000 0  450000 200000 0  500000 200000 0  550000 200000 0  600000 200000 0  650000 200000 0  700000 200000 0  750000 200000 0  800000 200000 0  850000 200000 0  900000 200000 0  950000 200000 0  1000000 200000 0  0 250000 0  50000 250000 0  100000 250000 0  150000 250000 0  200000 250000 0  250000 250000 0  300000 250000 0  350000 250000 0  400000 250000 0  450000 250000 0  500000 250000 0  550000 250000 0  600000 250000 0  650000 250000 0  700000 250000 0  750000 250000 0  800000 250000 0  850000 250000 0  900000 250000 0  950000 250000 0  1000000 250000 0  0 300000 0  50000 300000 0  100000 300000 0  150000 300000 0  200000 300000 0  250000 300000 0  300000 300000 0  350000 300000 0  400000 300000 0  450000 300000 0  500000 300000 0  550000 300000 0  600000 300000 0  650000 300000 0  700000 300000 0  750000 300000 0  800000 300000 0  850000 300000 0  900000 300000 0  950000 300000 0  1000000 300000 0  0 350000 0  50000 350000 0  100000 350000 0  150000 350000 0  200000 350000 0  250000 350000 0  300000 350000 0  350000 350000 0  400000 350000 0  450000 350000 0  500000 350000 0  550000 350000 0  600000 350000 0  650000 350000 0  700000 350000 0  750000 350000 0  800000 350000 0  850000 350000 0  900000 350000 0  950000 350000 0  1000000 350000 0  0 400000 0  50000 400000 0  100000 400000 0  150000 400000 0  200000 400000 0  250000 400000 0  300000 400000 0  350000 400000 0  400000 400000 0  450000 400000 0  500000 400000 0  550000 400000 0  600000 400000 0  650000 400000 0  700000 400000 0  750000 400000 0  800000 400000 0  850000 400000 0  900000 400000 0  950000 400000 0  1000000 400000 0  0 450000 0  50000 450000 0  100000 450000 0  150000 450000 0  200000 450000 0  250000 450000 0  300000 450000 0  350000 450000 0  400000 450000 0  450000 450000 0  500000 450000 0  550000 450000 0  600000 450000 0  650000 450000 0  700000 450000 0  750000 450000 0  800000 450000 0  850000 450000 0  900000 450000 0  950000 450000 0  1000000 450000 0  0 500000 0  50000 500000 0  100000 500000 0  150000 500000 0  200000 500000 0  250000 500000 0  300000 500000 0  350000 500000 0  400000 500000 0  450000 500000 0  500000 500000 0  550000 500000 0  600000 500000 0  650000 500000 0  700000 500000 0  750000 500000 0  800000 500000 0  850000 500000 0  900000 500000 0  950000 500000 0  1000000 500000 0  0 550000 0  50000 550000 0  100000 550000 0  150000 550000 0  200000 550000 0  250000 550000 0  300000 550000 0  350000 550000 0  400000 550000 0  450000 550000 0  500000 550000 0  550000 550000 0  600000 550000 0  650000 550000 0  700000 550000 0  750000 550000 0  800000 550000 0  850000 550000 0  900000 550000 0  950000 550000 0  1000000 550000 0  0 600000 0  50000 600000 0  100000 600000 0  150000 600000 0  200000 600000 0  250000 600000 0  300000 600000 0  350000 600000 0  400000 600000 0  450000 600000 0  500000 600000 0  550000 600000 0  600000 600000 0  650000 600000 0  700000 600000 0  750000 600000 0  800000 600000 0  850000 600000 0  900000 600000 0  950000 600000 0  1000000 600000 0  0 650000 0  50000 650000 0  100000 650000 0  150000 650000 0  200000 650000 0  250000 650000 0  300000 650000 0  350000 650000 0  400000 650000 0  450000 650000 0  500000 650000 0  550000 650000 0  600000 650000 0  650000 650000 0  700000 650000 0  750000 650000 0  800000 650000 0  850000 650000 0  900000 650000 0  950000 650000 0  1000000 650000 0  0 700000 0  50000 700000 0  100000 700000 0  150000 700000 0  200000 700000 0  250000 700000 0  300000 700000 0  350000 700000 0  400000 700000 0  450000 700000 0  500000 700000 0  550000 700000 0  600000 700000 0  650000 700000 0  700000 700000 0  750000 700000 0  800000 700000 0  850000 700000 0  900000 700000 0  950000 700000 0  1000000 700000 0  0 750000 0  50000 750000 0  100000 750000 0  150000 750000 0  200000 750000 0  250000 750000 0  300000 750000 0  350000 750000 0  400000 750000 0  450000 750000 0  500000 750000 0  550000 750000 0  600000 750000 0  650000 750000 0  700000 750000 0  750000 750000 0  800000 750000 0  850000 750000 0  900000 750000 0  950000 750000 0  1000000 750000 0  0 800000 0  50000 800000 0  100000 800000 0  150000 800000 0  200000 800000 0  250000 800000 0  300000 800000 0  350000 800000 0  400000 800000 0  450000 800000 0  500000 800000 0  550000 800000 0  600000 800000 0  650000 800000 0  700000 800000 0  750000 800000 0  800000 800000 0  850000 800000 0  900000 800000 0  950000 800000 0  1000000 800000 0  0 850000 0  50000 850000 0  100000 850000 0  150000 850000 0  200000 850000 0  250000 850000 0  300000 850000 0  350000 850000 0  400000 850000 0  450000 850000 0  500000 850000 0  550000 850000 0  600000 850000 0  650000 850000 0  700000 850000 0  750000 850000 0  800000 850000 0  850000 850000 0  900000 850000 0  950000 850000 0  1000000 850000 0  0 900000 0  50000 900000 0  100000 900000 0  150000 900000 0  200000 900000 0  250000 900000 0  300000 900000 0  350000 900000 0  400000 900000 0  450000 900000 0  500000 900000 0  550000 900000 0  600000 900000 0  650000 900000 0  700000 900000 0  750000 900000 0  800000 900000 0  850000 900000 0  900000 900000 0  950000 900000 0  1000000 900000 0  0 950000 0  50000 950000 0  100000 950000 0  150000 950000 0  200000 950000 0  250000 950000 0  300000 950000 0  350000 950000 0  400000 950000 0  450000 950000 0  500000 950000 0  550000 950000 0  600000 950000 0  650000 950000 0  700000 950000 0  750000 950000 0  800000 950000 0  850000 950000 0  900000 950000 0  950000 950000 0  1000000 950000 0  0 1000000 0  50000 1000000 0  100000 1000000 0  150000 1000000 0  200000 1000000 0  250000 1000000 0  300000 1000000 0  350000 1000000 0  400000 1000000 0  450000 1000000 0  500000 1000000 0  550000 1000000 0  600000 1000000 0  650000 1000000 0  700000 1000000 0  750000 1000000 0  800000 1000000 0  850000 1000000 0  900000 1000000 0  950000 1000000 0  1000000 1000000 0  0 1050000 0  50000 1050000 0  100000 1050000 0  150000 1050000 0  200000 1050000 0  250000 1050000 0  300000 1050000 0  350000 1050000 0  400000 1050000 0  450000 1050000 0  500000 1050000 0  550000 1050000 0  600000 1050000 0  650000 1050000 0  700000 1050000 0  750000 1050000 0  800000 1050000 0  850000 1050000 0  900000 1050000 0  950000 1050000 0  1000000 1050000 0  0 1100000 0  50000 1100000 0  100000 1100000 0  150000 1100000 0  200000 1100000 0  250000 1100000 0  300000 1100000 0  350000 1100000 0  400000 1100000 0  450000 1100000 0  500000 1100000 0  550000 1100000 0  600000 1100000 0  650000 1100000 0  700000 1100000 0  750000 1100000 0  800000 1100000 0  850000 1100000 0  900000 1100000 0  950000 1100000 0  1000000 1100000 0  0 1150000 0  50000 1150000 0  100000 1150000 0  150000 1150000 0  200000 1150000 0  250000 1150000 0  300000 1150000 0  350000 1150000 0  400000 1150000 0  450000 1150000 0  500000 1150000 0  550000 1150000 0  600000 1150000 0  650000 1150000 0  700000 1150000 0  750000 1150000 0  800000 1150000 0  850000 1150000 0  900000 1150000 0  950000 1150000 0  1000000 1150000 0  0 1200000 0  50000 1200000 0  100000 1200000 0  150000 1200000 0  200000 1200000 0  250000 1200000 0  300000 1200000 0  350000 1200000 0  400000 1200000 0  450000 1200000 0  500000 1200000 0  550000 1200000 0  600000 1200000 0  650000 1200000 0  700000 1200000 0  750000 1200000 0  800000 1200000 0  850000 1200000 0  900000 1200000 0  950000 1200000 0  1000000 1200000 0  0 1250000 0  50000 1250000 0  100000 1250000 0  150000 1250000 0  200000 1250000 0  250000 1250000 0  300000 1250000 0  350000 1250000 0  400000 1250000 0  450000 1250000 0  500000 1250000 0  550000 1250000 0  600000 1250000 0  650000 1250000 0  700000 1250000 0  750000 1250000 0  800000 1250000 0  850000 1250000 0  900000 1250000 0  950000 1250000 0  1000000 1250000 0  0 1300000 0  50000 1300000 0  100000 1300000 0  150000 1300000 0  200000 1300000 0  250000 1300000 0  300000 1300000 0  350000 1300000 0  400000 1300000 0  450000 1300000 0  500000 1300000 0  550000 1300000 0  600000 1300000 0  650000 1300000 0  700000 1300000 0  750000 1300000 0  800000 1300000 0  850000 1300000 0  900000 1300000 0  950000 1300000 0  1000000 1300000 0  0 1350000 0  50000 1350000 0  100000 1350000 0  150000 1350000 0  200000 1350000 0  250000 1350000 0  300000 1350000 0  350000 1350000 0  400000 1350000 0  450000 1350000 0  500000 1350000 0  550000 1350000 0  600000 1350000 0  650000 1350000 0  700000 135
[...]
<PointData  Scalars="f_7495"> 
<DataArray  type="Float64"  Name="f_7495"  format="ascii">-5.9314864295081149e+00  -5.3916759774692666e+00  -4.7929303825592813e+00  -4.1541383632816959e+00  -3.4950486133978487e+00  -2.8218094814922909e+00  -2.1377447379557832e+00  -1.4453889053645823e+00  -7.4702268604980826e-01  -4.4858144574425850e-02  6.5888794937705653e-01  1.3619597558427432e+00  2.0620350740848443e+00  2.7566809965826367e+00  3.4432610412969744e+00  4.1187377858235044e+00  4.7792571169846330e+00  5.4192256069366405e+00  6.0286250064839635e+00  6.5818989874974010e+00  6.9408056638806688e+00  -5.5894527833902563e+00  -5.3435465797466781e+00  -4.7829584551412951e+00  -4.1527376352896006e+00  -3.4957605451732836e+00  -2.8230192025877350e+00  -2.1389536536280978e+00  -1.4463936658330969e+00  -7.4771601330891824e-01  -4.5168778282283828e-02  6.5901843801317128e-01  1.3625903188288777e+00  2.0632382167156504e+00  2.7585599469885094e+00  3.4459687778747936e+00  4.1224596632698098e+00  4.7839342902150896e+00  5.4229813812706409e+00  6.0209425216421915e+00  6.5195718032224788e+00  6.7350300733987094e+00  -5.1944752060277981e+00  -5.0743251389230668e+00  -4.6522620888631820e+00  -4.0886947093749786e+00  -3.4627995792851416e+00  -2.8054412811346308e+00  -2.1294482653961118e+00  -1.4412913445771343e+00  -7.4506451071334967e-01  -4.3929222069310082e-02  6.5931595428568568e-01  1.3619772119183011e+00  2.0613047320370943e+00  2.7543134974459074e+00  3.4374569105065143e+00  4.1058925760110396e+00  4.7516901046124964e+00  5.3593246101835046e+00  5.8946590467871900e+00  6.2817669264298495e+00  6.3798445632192351e+00  -4.8164622918941395e+00  -4.7449072475779230e+00  -4.4277016434866026e+00  -3.9482789029068028e+00  -3.3763145662327276e+00  -2.7519705948008486e+00  -2.0963779010659307e+00  -1.4211846075235020e+00  -7.3357711830166106e-01  -3.8644928577966454e-02  6.5947962018224504e-01  1.3570143776649723e+00  2.0501138762722433e+00  2.7344382406320769e+00  3.4044898418967593e+00  4.0523782858769364e+00  4.6653927993285373e+00  5.2213489850004438e+00  5.6807356280752108e+00  5.9782771157244179e+00  6.0346653375308552e+00  -4.4593042654521344e+00  -4.4093890745823154e+00  -4.1604912198086277e+00  -3.7546481726875833e+00  -3.2422884746691163e+00  -2.6612482343749067e+00  -2.0361083056654716e+00  -1.3824459583114370e+00  -7.1058178405804984e-01  -2.7961580592810287e-02  6.5943690788053677e-01  1.3462286652009892e+00  2.0269679114093222e+00  2.6954869473566325e+00  3.3440052611069939e+00  3.9617370794593589e+00  4.5326702667018504e+00  5.0323314221052344e+00  5.4243414745711069e+00  5.6609858598083802e+00  5.7008899511700255e+00  -4.1245266274085992e+00  -4.0859892717857180e+00  -3.8819685432110314e+00  -3.5339969588540066e+00  -3.0766972519575959e+00  -2.5414363611790676e+00  -1.9522010142018824e+00  -1.3263020744898475e+00  -6.7631410520066049e-01  -1.1832055905532921e-02  6.5922817580933835e-01  1.3296798119526305e+00  1.9922895869918760e+00  2.6390057763032284e+00  3.2600297649095160e+00  3.8425911453122601e+00  4.3693810798928752e+00  4.8169337073043357e+00  5.1551389381804560e+00  5.3509394519056892e+00  5.3827501844288257e+00  -3.8142937317019481e+00  -3.7826228439956782e+00  -3.6093475156172383e+00  -3.3057605339709850e+00  -2.8956484164017100e+00  -2.4038371705803363e+00  -1.8518454218101190e+00  -1.2570035933751957e+00  -6.3306308969089964e-01  8.7859540710584477e-03  6.5893229227960626e-01  1.3084947724498159e+00  1.9485653132821081e+00  2.5694619021385723e+00  3.1599167041859793e+00  3.7061751644421870e+00  4.1911156016138156e+00  4.5937898399361945e+00  4.8903126999741735e+00  5.0578199632418199e+00  5.0847964765374272e+00  -3.5309043967000475e+00  -3.5038021097162244e+00  -3.3525181486490512e+00  -3.0830387723834001e+00  -2.7121188573356383e+00  -2.2592546908176998e+00  -1.7430804983160804e+00  -1.1800159489138047e+00  -5.8413967524510280e-01  3.2372949312492232e-02  6.5862376561082814e-01  1.2843402462267723e+00  1.8992408210581124e+00  2.4924111307656225e+00  3.0516875662565406e+00  3.5630937350459821e+00  4.0104836993771995e+00  4.3757261543085315e+00  4.6400053530814409e+00  4.7871231615932972e+00  4.8108251485450513e+00  -3.2764561333600053e+00  -3.2525962525561871e+00  -3.1175914627701928e+00  -2.8745584847615198e+00  -2.5357398721126883e+00  -2.1166414082179719e+00  -1.6332656473151301e+00  -1.1007788375149963e+00  -5.3305945449252257e-01  5.7237333523007652e-02  6.5835529965238782e-01  1.2590050051162951e+00  1.8479006586487436e+00  2.4133058344847327e+00  2.9426276090056289e+00  3.4221327107251884e+00  3.8369252547937269e+00  4.1714129562829969e+00  4.4105771058267953e+00  4.5425162835847512e+00  4.5638418715815794e+00  -3.0527262778686799e+00  -3.0312629586146747e+00  -2.9085835524428414e+00  -2.6861950863246666e+00  -2.3734273030394912e+00  -1.9829106662784783e+00  -1.5284865371170595e+00  -1.0240589792935546e+00  -4.8304387301994173e-01  8.1777455651823816e-02  6.5815584981720809e-01  1.2341397771895932e+00  1.7977884678868201e+00  2.3368911281295177e+00  2.8387494309808057e+00  3.2900985140894514e+00  3.6772725521769978e+00  3.9867516938985967e+00  4.2062523607015150e+00  4.3266545833022425e+00  4.3461967586977099e+00  -2.8611513396613137e+00  -2.8414988522474345e+00  -2.7282387654239781e+00  -2.5219518301975636e+00  -2.2300688342910453e+00  -1.8631884674489383e+00  -1.4334758887867649e+00  -9.5372071801751501e-01  -4.3679121733852383e-01  1.0461833095167375e-01  6.5803539805013633e-01  1.2111328508673205e+00  1.7515969893336447e+00  2.2669992857336645e+00  2.7447299124658016e+00  3.1720575794157573e+00  3.5363888356824558e+00  3.8258030670468059e+00  4.0299468862472168e+00  4.1415175035149714e+00  4.1597094456022381e+00  -2.7028468532509802e+00  -2.6845694260604978e+00  -2.5784632683392217e+00  -2.3845704834030852e+00  -2.1090773666343194e+00  -1.7611683400911335e+00  -1.3517593152152958e+00  -8.9273054706007793e-01  -3.9642369009773659e-01  1.2465755562966468e-01  6.5799108884492175e-01  1.1910769925680105e+00  1.7114284325532627e+00  2.2065645915315515e+00  2.6640564110541645e+00  3.0716755963474576e+00  3.4176945058540227e+00  3.6913771935880924e+00  3.8837098955947376e+00  3.9885829060317706e+00  4.0057671955681684e+00  -2.5786430313274096e+00  -2.5613947191714623e+00  -2.4605752683318038e+00  -2.2759172251283379e+00  -2.0127984404100485e+00  -1.6794414089709937e+00  -1.2858684692553257e+00  -8.4326555029242645e-01  -3.6352737009707808e-01  1.4105826267082697e-01  6.5801239404735501e-01  1.1747863840505650e+00  1.6788424831168749e+00  2.1577354146579579e+00  2.5992362071823365e+00  2.9915359668434087e+00  3.3235597122934659e+00  3.5854109666487486e+00  3.7689816149291642e+00  3.8689380309571284e+00  3.8854037070747394e+00  -2.4891241060166194e+00  -2.4726136605989204e+00  -2.3754614596231902e+00  -2.1972320438351627e+00  -1.9427990720722075e+00  -1.6197630783913366e+00  -1.2375471473261515e+00  -8.0684949757279023e-01  -3.3922803273146590e-01  1.5321827404089480e-01  6.5808471714107009e-01  1.1628340059280597e+00  1.6549365225889661e+00  2.1220110167718582e+00  2.5519986773135801e+00  2.9333987587925239e+00  3.2555850506174053e+00  3.5092140854035900e+00  3.6867555305435236e+00  3.7833594776773642e+00  3.7993637377225036e+00  -2.4346642319450411e+00  -2.4186333709336267e+00  -2.3236790984062705e+00  -2.1492912375421249e+00  -1.9000661900592266e+00  -1.5832511751212219e+00  -1.2079199182188083e+00  -7.8447731833347856e-01  -3.2426935178845334e-01  1.6073412975558485e-01  6.5819159075292977e-01  1.1555914084527634e+00  1.6404259004980277e+00  2.1003655042504854e+00  2.5234606505624586e+00  2.8983938446559314e+00  3.2147955562419313e+00  3.4636305950358550e+00  3.6376851078681627e+00  3.7323729490558741e+00  3.7481549898827571e+00  -2.4154552677223640e+00  -2.3996643899405150e+00  -2.3055213015319018e+00  -2.1325099448881928e+00  -1.8851354647293128e+00  -1.5705207553866782e+00  -1.1976134387372392e+00  -7.7671011832115255e-01  -3.1907608630251683e-01  1.6337049990239336e-01  6.5831583900141055e-01  1.1532611781004154e+00  1.6357077643053253e+00  2.0933417963239536e+00  2.5142451167400393e+00  2.8871524333894856e+00  3.2017671427321144e+00  3.4491416228910090e+00  3.6221529795347189e+00  3.7162960679433334e+00  3.7320869457251900e+00  -2.4315233118799324e+00  -2.4157412710530521e+00  -2.3210534298653465e+00  -2.1469989170330495e+00  -1.8981638782391279e+00  -1.5817621666531358e+00  -1.2068289725596646e+00  -7.8373382624768928e-01  -3.2379422249522910e-01  1.6104026955004783e-01  6.5844008724989711e-01  1.1558975482472367e+00  1.6409010297912690e+00  2.1011089963362788e+00  2.5245515962216101e+00  2.8998828531240313e+00  3.2166978680620426e+00  3.4659229155449442e+00  3.6403107764091120e+00  3.7352650489364807e+00  3.7512959099478937e+00  -2.4827320597196727e+00  -2.4667277996745427e+00  -2.3701238525407096e+00  -2.1925824074007778e+00  -1.9389533726146051e+00  -1.6167670807897438e+00  -1.2353669993107972e+00  -8.0537933876906442e-01  -3.3830484458616139e-01  1.5379767207476311e-01  6.5854696086176823e-01  1.1634134039619410e+00  1.6558597107342945e+00  2.1234811755756127e+00  2.5541788253289797e+00  2.9363947563941668e+00  3.2594307500750417e+00  3.5138637218379962e+00  3.6920931376260602e+00  3.7892453386018152e+00  3.8057557840195049e+00  -2.5687720290718903e+00  -2.5523063529542789e+00  -2.4523499369263217e+00  -2.2687792886459008e+00  -2.0069280342906417e+00  -1.6749042888405998e+00  -1.2826045291795276e+00  -8.4110373665514548e-01  -3.6221080511404635e-01  1.4184529395227535e-01  6.5861928395550895e-01  1.1755734153320372e+00  1.6801590480999333e+00  2.1598972282952649e+00  2.6025001472581706e+00  2.9960730869738468e+00  3.3294301184129207e+00  3.5925489031312119e+00  3.7772069463346787e+00  3.8780263971743292e+00  3.8952747093302773e+00  -2.6891355175653082e+00  -2.6719512280289157e+00  -2.5670782175918792e+00  -2.3747455155852464e+00  -2.1010628278511807e+00  -1.7550439183446245e+00  -1.3474247330513267e+00  -8.8993291352871151e-01  -3.9479675455040641e-01  1.2555468543485590e-01  6.5864058915796386e-01  1.1919741223732263e+00  1.7130553681006233e+00  2.2093622250629408e+00  2.6683909932181549e+00  3.0778000180939920e+00  3.4257090446372036e+00  3.7012021614059654e+00  3.8950949463420845e+00  4.0012011040633437e+00  4.0194785312538315e+00  -2.8430777675993477e+00  -2.8248858255120846e+00  -2.7133152082443326e+00  -2.5091713890439444e+00  -2.2197571576795814e+00  -1.8554259014128689e+00  -1.4280982344629185e+00  -9.5036760773078055e-01  -4.3496531133074329e-01  1.0549882713558591e-01  6.5859627995278558e-01  1.2120133470512515e+00  1.7534228953414506e+00  2.2703523960204341e+00  2.7501075667896875e+00  3.1798201454518540e+00  3.5467005122939441e+00  3.8385835082004465e+00  4.0448704434268539e+00  4.1581305302502880e+00  4.1777830176641642e+00  -3.0295650806947743e+00  -3.0100229052993246e+00  -2.8896206826985931e+00  -2.6701200158956868e+00  -2.3606408741740896e+00  -1.9734668360865284e+00  -1.5221177529778829e+00  -1.0202594501265898e+00  -4.8115678988387683e-01  8.2491900813365812e-02  6.5847582818576478e-01  1.2348542223511523e+00  1.7996755510229183e+00  2.3406906572965380e+00  2.8451182151200496e+00  3.2995423442814498e+00  3.6900589810424331e+00  4.0028267643275726e+00  4.2252152304457296e+00  4.3478946366175393e+00  4.3693579558715268e+00  -3.2472101935786339e+00  -3.2258846055818160e+00  -3.0939454278238512e+00  -2.8547812782800492e+00  -2.5202935767907806e+00  -2.1055010327222332e+00  -1.6259959310026666e+00  -1.0966741564817493e+00  -5.3126898064574279e-01  5.7626672886716683e-02  6.5827637835063646e-01  1.2593943444800251e+00  1.8496911324955572e+00  2.4174105155180339e+00  2.9498973253181608e+00  3.4332730862209746e+00  3.8523715501156599e+00  4.1911901627644577e+00  4.4342231407730965e+00  4.5692279305590775e+00  4.5930878113628992e+00  -3.4941934705420712e+00  -3.4704914835903060e+00  -3.3233736750784568e+00  -3.0590944763055599e+00  -2.6938520213742101e+00  -2.2464620570429772e+00  -1.7350558882535223e+00  -1.1757794527625891e+00  -5.8260914305506628e-01  3.2291431776286635e-02  6.5800791239224254e-01  1.2842587286905871e+00  1.9007713532481814e+00  2.4966476269168747e+00  3.0597121763191373e+00  3.5758863688207283e+00  4.0287505353386495e+00  4.3996704503863695e+00  4.6691498266519869e+00  4.8204337877191641e+00  4.8475360747029868e+00  -3.7681647985344200e+00  -3.7411882852388145e+00  -3.5736810219711890e+00  -3.2771581619332082e+00  -2.8744839236107977e+00  -2.3895434864391425e+00  -1.8432850261829081e+00  -1.2528302241354803e+00  -6.3193363527900481e-01  8.1369055532967954e-03  6.5769938572351505e-01  1.3078457239320667e+00  1.9496947676940215e+00  2.5736352713782988e+00  3.1684770998132077e+00  3.7204688485833928e+00  4.2122800944047594e+00  4.6223922119740175e+00  4.9259791936202335e+00  5.0992545219986596e+00  5.1309254097049353e+00  -4.0661185064257870e+00  -4.0343077739026620e+00  -3.8385072601774146e+00  -3.5003020293012947e+00  -3.0527494018898120e+00  -2.5259594673091907e+00  -1.9433980869064018e+00  -1.3223740983000807e+00  -6.7565790898872347e-01  -1.3048133949475372e-02  6.5740350219382981e-01  1.3284637339087044e+00  1.9929457832038304e+00  2.6429337524929997e+00  3.2688326922050144e+00  3.8580680391821844e+00  4.3933289299606937e+00  4.8506286368570928e+00  5.1986002212140772e+00  5.4026209497887550e+00  5.4411583054116335e+00  -4.3842582731669459e+00  -4.3443541818053051e+00  -4.1077097965680158e+00  -3.7156997441021442e+00  -3.2160385886987433e+00  -2.6451054014562563e+00  -2.0273735831038464e+00  -1.3788552693534517e+00  -7.1033623340613639e-01  -2.9596987197801204e-02  6.5719477012266414e-01  1.3445932585960134e+00  2.0272134620612463e+00  2.6990776363146201e+00  3.3527399836686440e+00  3.9778799123780781e+00  4.5589201526722531e+00  5.0712798506906998e+00  5.4771228978117357e+00  5.7260207525854039e+00  5.7759359434552158e+00  -4.7180336595277410e+00  -4.6616454377212984e+00  -4.3641039500720904e+00  -3.9047173069973171e+00  -3.3487611213254040e+00  -2.7357466078737933e+00  -2.0878581638935811e+00  -1.4178065626288776e+00  -7.3348219826903482e-01  -4.0382699661761660e-02  6.5715205782097508e-01  1.3552766065811916e+00  2.0502087963048750e+00  2.7378162855267112e+00  3.4130095790691515e+00  4.0686022728040632e+00  4.6929462442359169e+00  5.2649105809099597e+00  5.7443333214897496e+00  6.0615389255810550e+00  6.1330939698972635e+00  -5.0632128852160934e+00  -4.9651352484266855e+00  -4.5780273687840483e+00  -4.0426929321803646e+00  -3.4350584266093649e+00  -2.7892608980078859e+00  -2.1208252325033290e+00  -1.4376818194426968e+00  -7.4467305403388429e-01  -4.5345533915080796e-02  6.5731572371754809e-01  1.3605609000725463e+00  2.0616961887165819e+00  2.7579230225803522e+00  3.4460799433993392e+00  4.1220729591378520e+00  4.7794312572883468e+00  5.4053263873781603e+00  5.9688937668663433e+00  6.3909568169262085e+00  6.5111068840309674e+00  -5.4183983953955828e+00  -5.2029401252193477e+00  -4.7043108436390959e+00  -4.1063497032675285e+00  -3.4673026122119546e+00  -2.8058279852666481e+00  -2.1293370998716021e+00  -1.4419282689852981e+00  -7.4660653871243099e-01  -4.5958640825650626e-02  6.5761323999006249e-01  1.3618004562855244e+00  2.0643476913121561e+00  2.7630253438363312e+00  3.4555853316313265e+00  4.1396508805909420e+00  4.8123922231764906e+00  5.4693693132927850e+00  6.0995901331444813e+00  6.6601782577498376e+00  6.9060844613934194e+00  -5.6241739858775377e+00  -5.2652673094942664e+00  -4.7119933284808484e+00  -4.1025939289335209e+00  -3.4626254389814921e+00  -2.8021061078203435e+00  -2.1266293632937807e+00  -1.4400493185794281e+00  -7.4540339608162165e-01  -4.5328077839511059e-02  6.5774372862618136e-01  1.3614898225776608e+00  2.0636543640530496e+00  2.7620205833678186e+00  3.4543764159590178e+00  4.1384411594954988e+00  4.8116802914010579e+00  5.4707700412848945e+00  6.1095620605624568e+00  6.7083076554724412e+00  7.2481181075112815e+00  </DataArray> 
</PointData> 
</Piece>
</UnstructuredGrid>
</VTKFile>