<?xml version="1.0"?>
<VTKFile type="UnstructuredGrid"  version="0.1"  >
<UnstructuredGrid>
<Piece  NumberOfPoints="651" NumberOfCells="1200">
<Points>
<DataArray  type="Float64"  NumberOfComponents="3"  format="ascii">0 0 0  50000 0 0  100000 0 0  150000 0 0  200000 0 0  250000 0 0  300000 0 0  350000 0 0  400000 0 0  450000 0 0  500000 0 0  550000 0 0  600000 0 0  650000 0 0  700000 0 0  750000 0 0  800000 0 0  850000 0 0  900000 0 0  950000 0 0  1000000 0 0  0 50000 0  50000 50000 0  100000 50000 0  150000 50000 0  200000 50000 0  250000 50000 0  300000 50000 0  350000 50000 0  400000 50000 0  450000 50000 0  500000 50000 0  550000 50000 0  600000 50000 0  650000 50000 0  700000 50000 0  750000 50000 0  800000 50000 0  850000 50000 0  900000 50000 0  950000 50000 0  1000000 50000 0  0 100000 0  50000 100000 0  100000 100000 0  150000 100000 0  200000 100000 0  250000 100000 0  300000 100000 0  350000 100000 0  400000 100000 0  450000 100000 0  500000 100000 0  550000 100000 0  600000 100000 0  650000 100000 0  700000 100000 0  750000 100000 0  800000 100000 0  850000 100000 0  900000 100000 0  950000 100000 0  1000000 100000 0  0 150000 0  50000 150000 0  100000 150000 0  150000 150000 0  200000 150000 0  250000 150000 0  300000 150000 0  350000 150000 0  400000 150000 0  450000 150000 0  500000 150000 0  550000 150000 0  600000 150000 0  650000 150000 0  700000 150000 0  750000 150000 0  800000 150000 0  850000 150000 0  900000 150000 0  950000 150000 0  1000000 150000 0  0 200000 0  50000 200000 0  100000 200000 0  150000 200000 0  200000 200000 0  250000 200000 0  300000 200000 0  350000 200000 0  400000 200000 0  450000 200000 0  500000 200000 0  550000 200000 0  600000 200000 0  650000 200000 0  700000 200000 0  750000 200000 0  800000 200000 0  850000 200000 0  900000 200000 0  950000 200000 0  1000000 200000 0  0 250000 0  50000 250000 0  100000 250000 0  150000 250000 0  200000 250000 0  250000 250000 0  300000 250000 0  350000 250000 0  400000 250000 0  450000 250000 0  500000 250000 0  550000 250000 0  600000 250000 0  650000 250000 0  700000 250000 0  750000 250000 0  800000 250000 0  850000 250000 0  900000 250000 0  950000 250000 0  1000000 250000 0  0 300000 0  50000 300000 0  100000 300000 0  150000 300000 0  200000 300000 0  250000 300000 0  300000 300000 0  350000 300000 0  400000 300000 0  450000 300000 0  500000 300000 0  550000 300000 0  600000 300000 0  650000 300000 0  700000 300000 0  750000 300000 0  800000 300000 0  850000 300000 0  900000 300000 0  950000 300000 0  1000000 300000 0  0 350000 0  50000 350000 0  100000 350000 0  150000 350000 0  200000 350000 0  250000 350000 0  300000 350000 0  350000 350000 0  400000 350000 0  450000 350000 0  500000 350000 0  550000 350000 0  600000 350000 0  650000 350000 0  700000 350000 0  750000 350000 0  800000 350000 0  850000 350000 0  900000 350000 0  950000 350000 0  1000000 350000 0  0 400000 0  50000 400000 0  100000 400000 0  150000 400000 0  200000 400000 0  250000 400000 0  300000 400000 0  350000 400000 0  400000 400000 0  450000 400000 0  500000 400000 0  550000 400000 0  600000 400000 0  650000 400000 0  700000 400000 0  750000 400000 0  800000 400000 0  850000 400000 0  900000 400000 0  950000 400000 0  1000000 400000 0  0 450000 0  50000 450000 0  100000 450000 0  150000 450000 0  200000 450000 0  250000 450000 0  300000 450000 0  350000 450000 0  400000 450000 0  450000 450000 0  500000 450000 0  550000 450000 0  600000 450000 0  650000 450000 0  700000 450000 0  750000 450000 0  800000 450000 0  850000 450000 0  900000 450000 0  950000 450000 0  1000000 450000 0  0 500000 0  50000 500000 0  100000 500000 0  150000 500000 0  200000 500000 0  250000 500000 0  300000 500000 0  350000 500000 0  400000 500000 0  450000 500000 0  500000 500000 0  550000 500000 0  600000 500000 0  650000 500000 0  700000 500000 0  750000 500000 0  800000 500000 0  850000 500000 0  900000 500000 0  950000 500000 0  1000000 500000 0  0 550000 0  50000 550000 0  100000 550000 0  150000 550000 0  200000 550000 0  250000 550000 0  300000 550000 0  350000 550000 0  400000 550000 0  450000 550000 0  500000 550000 0  550000 550000 0  600000 550000 0  650000 550000 0  700000 550000 0  750000 550000 0  800000 550000 0  850000 550000 0  900000 550000 0  950000 550000 0  1000000 550000 0  0 600000 0  50000 600000 0  100000 600000 0  150000 600000 0  200000 600000 0  250000 600000 0  300000 600000 0  350000 600000 0  400000 600000 0  450000 600000 0  500000 600000 0  550000 600000 0  600000 600000 0  650000 600000 0  700000 600000 0  750000 600000 0  800000 600000 0  850000 600000 0  900000 600000 0  950000 600000 0  1000000 600000 0  0 650000 0  50000 650000 0  100000 650000 0  150000 650000 0  200000 650000 0  250000 650000 0  300000 650000 0  350000 650000 0  400000 650000 0  450000 650000 0  500000 650000 0  550000 650000 0  600000 650000 0  650000 650000 0  700000 650000 0  750000 650000 0  800000 650000 0  850000 650000 0  900000 650000 0  950000 650000 0  1000000 650000 0  0 700000 0  50000 700000 0  100000 700000 0  150000 700000 0  200000 700000 0  250000 700000 0  300000 700000 0  350000 700000 0  400000 700000 0  450000 700000 0  500000 700000 0  550000 700000 0  600000 700000 0  650000 700000 0  700000 700000 0  750000 700000 0  800000 700000 0  850000 700000 0  900000 700000 0  950000 700000 0  1000000 700000 0  0 750000 0  50000 750000 0  100000 750000 0  150000 750000 0  200000 750000 0  250000 750000 0  300000 750000 0  350000 750000 0  400000 750000 0  450000 750000 0  500000 750000 0  550000 750000 0  600000 750000 0  650000 750000 0  700000 750000 0  750000 750000 0  800000 750000 0  850000 750000 0  900000 750000 0  950000 750000 0  1000000 750000 0  0 800000 0  50000 800000 0  100000 800000 0  150000 800000 0  200000 800000 0  250000 800000 0  300000 800000 0  350000 800000 0  400000 800000 0  450000 800000 0  500000 800000 0  550000 800000 0  600000 800000 0  650000 800000 0  700000 800000 0  750000 800000 0  800000 800000 0  850000 800000 0  900000 800000 0  950000 800000 0  1000000 800000 0  0 850000 0  50000 850000 0  100000 850000 0  150000 850000 0  200000 850000 0  250000 850000 0  300000 850000 0  350000 850000 0  400000 850000 0  450000 850000 0  500000 850000 0  550000 850000 0  600000 850000 0  650000 850000 0  700000 850000 0  750000 850000 0  800000 850000 0  850000 850000 0  900000 850000 0  950000 850000 0  1000000 850000 0  0 900000 0  50000 900000 0  100000 900000 0  150000 900000 0  200000 900000 0  250000 900000 0  300000 900000 0  350000 900000 0  400000 900000 0  450000 900000 0  500000 900000 0  550000 900000 0  600000 900000 0  650000 900000 0  700000 900000 0  750000 900000 0  800000 900000 0  850000 900000 0  900000 900000 0  950000 900000 0  1000000 900000 0  0 950000 0  50000 950000 0  100000 950000 0  150000 950000 0  200000 950000 0  250000 950000 0  300000 950000 0  350000 950000 0  400000 950000 0  450000 950000 0  500000 950000 0  550000 950000 0  600000 950000 0  650000 950000 0  700000 950000 0  750000 950000 0  800000 950000 0  850000 950000 0  900000 950000 0  950000 950000 0  1000000 950000 0  0 1000000 0  50000 1000000 0  100000 1000000 0  150000 1000000 0  200000 1000000 0  250000 1000000 0  300000 1000000 0  350000 1000000 0  400000 1000000 0  450000 1000000 0  500000 1000000 0  550000 1000000 0  600000 1000000 0  650000 1000000 0  700000 1000000 0  750000 1000000 0  800000 1000000 0  850000 1000000 0  900000 1000000 0  950000 1000000 0  1000000 1000000 0  0 1050000 0  50000 1050000 0  100000 1050000 0  150000 1050000 0  200000 1050000 0  250000 1050000 0  300000 1050000 0  350000 1050000 0  400000 1050000 0  450000 1050000 0  500000 1050000 0  550000 1050000 0  600000 1050000 0  650000 1050000 0  700000 1050000 0  750000 1050000 0  800000 1050000 0  850000 1050000 0  900000 1050000 0  950000 1050000 0  1000000 1050000 0  0 1100000 0  50000 1100000 0  100000 1100000 0  150000 1100000 0  200000 1100000 0  250000 1100000 0  300000 1100000 0  350000 1100000 0  400000 1100000 0  450000 1100000 0  500000 1100000 0  550000 1100000 0  600000 1100000 0  650000 1100000 0  700000 1100000 0  750000 1100000 0  800000 1100000 0  850000 1100000 0  900000 1100000 0  950000 1100000 0  1000000 1100000 0  0 1150000 0  50000 1150000 0  100000 1150000 0  150000 1150000 0  200000 1150000 0  250000 1150000 0  300000 1150000 0  350000 1150000 0  400000 1150000 0  450000 1150000 0  500000 1150000 0  550000 1150000 0  600000 1150000 0  650000 1150000 0  700000 1150000 0  750000 1150000 0  800000 1150000 0  850000 1150000 0  900000 1150000 0  950000 1150000 0  1000000 1150000 0  0 1200000 0  50000 1200000 0  100000 1200000 0  150000 1200000 0  200000 1200000 0  250000 1200000 0  300000 1200000 0  350000 1200000 0  400000 1200000 0  450000 1200000 0  500000 1200000 0  550000 1200000 0  600000 1200000 0  650000 1200000 0  700000 1200000 0  750000 1200000 0  800000 1200000 0  850000 1200000 0  900000 1200000 0  950000 1200000 0  1000000 1200000 0  0 1250000 0  50000 1250000 0  100000 1250000 0  150000 1250000 0  200000 1250000 0  250000 1250000 0  300000 1250000 0  350000 1250000 0  400000 1250000 0  450000 1250000 0  500000 1250000 0  550000 1250000 0  600000 1250000 0  650000 1250000 0  700000 1250000 0  750000 1250000 0  800000 1250000 0  850000 1250000 0  900000 1250000 0  950000 1250000 0  1000000 1250000 0  0 1300000 0  50000 1300000 0  100000 1300000 0  150000 1300000 0  200000 1300000 0  250000 1300000 0  300000 1300000 0  350000 1300000 0  400000 1300000 0  450000 1300000 0  500000 1300000 0  550000 1300000 0  600000 1300000 0  650000 1300000 0  700000 1300000 0  750000 1300000 0  800000 1300000 0  850000 1300000 0  900000 1300000 0  950000 1300000 0  1000000 1300000 0  0 1350000 0  50000 1350000 0  100000 1350000 0  150000 1350000 0  200000 1350000 0  250000 1350000 0  300000 1350000 0  350000 1350000 0  400000 1350000 0  450000 1350000 0  500000 1350000 0  550000 1350000 0  600000 1350000 0  650000 1350000 0  700000 135
[...]
<PointData  Scalars="f_7495"> 
<DataArray  type="Float64"  Name="f_7495"  format="ascii">1.2404737793739903e-01  1.7212274690199866e-01  2.2463763051902663e-01  2.8032952321629223e-01  3.3762845906467637e-01  3.9605311539470028e-01  4.5534725084604671e-01  5.1531475240177593e-01  5.7577754136940817e-01  6.3656164369589663e-01  6.9749198999520534e-01  7.5839015296602785e-01  8.1907250743129845e-01  8.7934687922925026e-01  9.3900520882228200e-01  9.9780822981492556e-01  1.0554553483310622e+00  1.1115242112927237e+00  1.1652934996625179e+00  1.2148461898318252e+00  1.2479723204325646e+00  1.5470469313590313e-01  1.7726612745606354e-01  2.2610502513532876e-01  2.8083254162450272e-01  3.3781011544686668e-01  3.9610279909773066e-01  4.5533526076494202e-01  5.1527320990963643e-01  5.7572308869958910e-01  6.3650324553495385e-01  6.9743405271273529e-01  7.5833396122196350e-01  8.1901705567259842e-01  8.7928950711321940e-01  9.3894164568879401e-01  9.9772809399784901e-01  1.0553120111752776e+00  1.1110851485189333e+00  1.1635248414790127e+00  1.2078467322107371e+00  1.2286692844798415e+00  1.9019916428184591e-01  2.0167622307513702e-01  2.3857327446800830e-01  2.8733393781050587e-01  3.4140209324702819e-01  3.9817356572434487e-01  4.5654894100487570e-01  5.1597076327697977e-01  5.7608849815165308e-01  6.3663457568846271e-01  6.9737448410267500e-01  7.5808372434915483e-01  8.1853332272058732e-01  8.7847390701537931e-01  9.3760740722346947e-01  9.9552473307310640e-01  1.0515561364199639e+00  1.1043990352084834e+00  1.1512109602892615e+00  1.1856873603797518e+00  1.1960474878016110e+00  2.2415236162362093e-01  2.3125949367772086e-01  2.5910843828150487e-01  3.0055344814127605e-01  3.4981543858201347e-01  4.0355293854484375e-01  4.5998218968234816e-01  5.1810823962020447e-01  5.7731407368329068e-01  6.3716303651865369e-01  6.9730195376691162e-01  7.5740878999473193e-01  8.1715671898697750e-01  8.7617690308658025e-01  9.3400203897519940e-01  9.8996263754190039e-01  1.0429852355071509e+00  1.0912084450836073e+00  1.1313370949800761e+00  1.1579409555314268e+00  1.1643164528997481e+00  2.5620391232414669e-01  2.6130125666752785e-01  2.8322280071836892e-01  3.1829615736310046e-01  3.6233170251837804e-01  4.1219344856488727e-01  4.6582667020544199e-01  5.2191510909364502e-01  5.7957954170810477e-01  6.3818295395599811e-01  6.9721340933063780e-01  7.5621014162064137e-01  8.1470795795776862e-01  8.7218109911006614e-01  9.2796824053955240e-01  9.8115638894969981e-01  1.0303972802793220e+00  1.0736420619362170e+00  1.1078604996480472e+00  1.1290809553529815e+00  1.1337452951341940e+00  2.8620398841219746e-01  2.9020760094522668e-01  3.0820602465734043e-01  3.3825923431055144e-01  3.7748776305123832e-01  4.2329717499869235e-01  4.7369260355728604e-01  5.2722199055162278e-01  5.8282208481339615e-01  6.3967689957982976e-01  6.9711112812901954e-01  7.5451117168577131e-01  8.1126010742617416e-01  8.6667290661301399e-01  9.1991893714816220e-01  9.6992054946056583e-01  1.0152246266924350e+00  1.0538716484920672e+00  1.0833583750072084e+00  1.1009320545328396e+00  1.1046870895721481e+00  3.1395581765495989e-01  3.1728050594705159e-01  3.3257010408681426e-01  3.5875932508541120e-01  3.9386829199886947e-01  4.3584811122386041e-01  4.8291532004884574e-01  5.3362328359181355e-01  5.8681581038574582e-01  6.4154653946694762e-01  6.9699953174666862e-01  7.5241961600961194e-01  8.0704968578805669e-01  8.6006867322165204e-01  9.1052438692823090e-01  9.5725962902227280e-01  9.9884109794777265e-01  1.0335242155446902e+00  1.0593279326657994e+00  1.0743480686957698e+00  1.0775275219916540e+00  3.3925773656883812e-01  3.4212148195909731e-01  3.5545961597732595e-01  3.7866712496213367e-01  4.1034913536134182e-01  4.4890072083895072e-01  4.9278215969899253e-01  5.4062786143876396e-01  5.9125920494852002e-01  6.4365124096157722e-01  6.9688297220384188e-01  7.5008460701132951e-01  8.0238564589890227e-01  8.5286370022528979e-01  9.0049410533838725e-01  9.4410444709219066e-01  9.8234696022885315e-01  1.0137160413114894e+00  1.0366555699281630e+00  1.0498172508080301e+00  1.0525923015748153e+00  3.6192931832831055e-01  3.6446157970758258e-01  3.7634653348859770e-01  3.9723272805777010e-01  4.2610188943210925e-01  4.6168141211142827e-01  5.0265295445240366e-01  5.4775910301095510e-01  5.9584202821285359e-01  6.4584043636401878e-01  6.9676473356194724e-01  7.4766273295946217e-01  7.9758239801753195e-01  8.4553517861982641e-01  8.9046348761291538e-01  9.3121863795472826e-01  9.6656083791789571e-01  9.9519941535377876e-01  1.0158965590644737e+00  1.0276631293800351e+00  1.0301380625101990e+00  3.8181987676385759e-01  3.8410539714932507e-01  3.9488516593792761e-01  4.1395306751101751e-01  4.4053486269211140e-01  4.7359752963638030e-01  5.1200417332038406e-01  5.5460527531932813e-01  6.0028491015546559e-01  6.4797463835186653e-01  6.9664686970803125e-01  7.4529703759965182e-01  7.9292120689478196e-01  8.3849409044632450e-01  8.8095237816406946e-01  9.1918972461380433e-01  9.5207210229416994e-01  9.7848418542031446e-01  9.9741764347571127e-01  1.0081165274212578e+00  1.0103628188545870e+00  3.9880919804907489e-01  4.0090811027130091e-01  4.1084082151315499e-01  4.2848694340266663e-01  4.5323197706682017e-01  4.8421238089551938e-01  5.2043188385746963e-01  5.6083582498505946e-01  6.0435657877184679e-01  6.4993587802912312e-01  6.9653042652590058e-01  7.4310717890501599e-01  7.8863390806134226e-01  8.3207002406522168e-01  8.7236253362813532e-01  9.0845251476439681e-01  9.3929802622010161e-01  9.6391912676452018e-01  9.8146966456424845e-01  9.9134654781002274e-01  9.9341740756524632e-01  4.1280510378735125e-01  4.1476320075133610e-01  4.2405185876217288e-01  4.4060199444542364e-01  4.6390421262605375e-01  4.9321309177100781e-01  5.2763714772267822e-01  5.6619894442278318e-01  6.0787679147458173e-01  6.5163069493592174e-01  6.9641575393080979e-01  7.4118708629024255e-01  7.8490061674053779e-01  8.2651400593315560e-01  8.6499193946926856e-01  8.9931993032368618e-01  9.2853041273205439e-01  9.5174386992982241e-01  9.6822692318128523e-01  9.7747717478502016e-01  9.7941485313082166e-01  4.2373982221716000e-01  4.2559426608996614e-01  4.3440754408218341e-01  4.5014108824944599e-01  4.7235403381207075e-01  5.0038138265459842e-01  5.3340658959552201e-01  5.7051108349602342e-01  6.1071191299579231e-01  6.5298890527794762e-01  6.9630277581655597e-01  7.3960670037439447e-01  7.8185453008513206e-01  8.2200907822914204e-01  8.5905386697903141e-01  8.9201139637301796e-01  9.1997025547503175e-01  9.4212223820463048e-01  9.5781038077360592e-01  9.6659797537794123e-01  9.6843789368039868e-01  4.3156615787372787e-01  4.3334887591512555e-01  4.4183407755871068e-01  4.5700051825005267e-01  4.7845021696062728e-01  5.0557018742187798e-01  5.3759408957526467e-01  5.7364460681902185e-01  6.1276782803249374e-01  6.5396057087840131e-01  6.9619118208586783e-01  7.3841534521511254e-01  7.7958922093633354e-01  8.1868261986460000e-01  8.5469488380045078e-01  8.8667573058026738e-01  9.1375248317852309e-01  9.3516406137189778e-01  9.5030239061059940e-01  9.5877178892437465e-01  9.6054507715983228e-01  4.3625405561747599e-01  4.3799388841150422e-01  4.4628541616746598e-01  4.6111574895702151e-01  4.8211056709924061e-01  5.0868637231939451e-01  5.4010598054681269e-01  5.7551675364319732e-01  6.1398290831469915e-01  6.5451269361337205e-01  6.9608054852075341e-01  7.3764523715339336e-01  7.7816576896122647e-01  8.1661733086346755e-01  8.5200944707926152e-01  8.8340814202273388e-01  9.0996305405089029e-01  9.3093954009306612e-01  9.4575643017444166e-01  9.5404042113588372e-01  9.5577559317476080e-01  4.3778795649088009e-01  4.3951211742351171e-01  4.4773738182352818e-01  4.6245240190234016e-01  4.8329070294944204e-01  5.0967901888046352e-01  5.4089047137169244e-01  5.7608130435404437e-01  6.1432242555513694e-01  6.5462647709026744e-01  6.9597040295483981e-01  7.3731432881941061e-01  7.7761838035454134e-01  8.1585950155563369e-01  8.5105033453798362e-01  8.8226178702921298e-01  9.0865010296023430e-01  9.2948840400733612e-01  9.4420342408614755e-01  9.5242868848616324e-01  9.5415284941879508e-01  4.3616521273491410e-01  4.3790038477379156e-01  4.4618437573523373e-01  4.6100126581660944e-01  4.8197775185878583e-01  5.0853266388694218e-01  5.3993135883041576e-01  5.7532347504621062e-01  6.1377503694845148e-01  6.5429556875628558e-01  6.9586025738892598e-01  7.3742811229630678e-01  7.7795789759497913e-01  8.1642405226648096e-01  8.5183482536286403e-01  8.8325443359028188e-01  9.0983023881043668e-01  9.3082505695265527e-01  9.4565538974221086e-01  9.5394691749817162e-01  9.5568675029219996e-01  4.3139572874984161e-01  4.3316901698530014e-01  4.4163841529907560e-01  4.5677674453777789e-01  4.7818832273115291e-01  5.0526507532940912e-01  5.3724592210922695e-01  5.7325818604507839e-01  6.1235158497334519e-01  6.5352546069456752e-01  6.9574962382381256e-01  7.3798023503127896e-01  7.7917297787718565e-01  8.1829619909065765e-01  8.5434671633441395e-01  8.8637061848780030e-01  9.1349058894905100e-01  9.3494028765962522e-01  9.5010672835096721e-01  9.5859192999455223e-01  9.6037464803594974e-01  4.2350291222927683e-01  4.2534283053173427e-01  4.3413042513606992e-01  4.4981856770504586e-01  4.7197055043464547e-01  4.9992940953665993e-01  5.3288693893064809e-01  5.6993172768053746e-01  6.1008627582454822e-01  6.5233410553528681e-01  6.9563803009312608e-01  7.3895190063173455e-01  7.8122889291388908e-01  8.2142972241365719e-01  8.5853421631415860e-01  8.9155942325508120e-01  9.1958677209760964e-01  9.4179971766023440e-01  9.5753326182749565e-01  9.6634653981971264e-01  9.6820098369251872e-01  4.1252595277885568e-01  4.1446363112465689e-01  4.2371388272839233e-01  4.4019693597985543e-01  4.6341039317762456e-01  4.9262087558599382e-01  5.2694886644041283e-01  5.6542679997652601e-01  6.0704018916914471e-01  6.5075371961944073e-01  6.9552505197887415e-01  7.4031011097376276e-01  7.8406401443510165e-01  8.2574186148689988e-01  8.6430365818700416e-01  8.9872771413867425e-01  9.2803659328362942e-01  9.5133881146425847e-01  9.6788894714750762e-01  9.7717760515834395e-01  9.7913570212232881e-01  3.9852339834443329e-01  4.0059425809965693e-01  4.1047114134543189e-01  4.2802167914516032e-01  4.5264277968958022e-01  4.8348829114528646e-01  5.1957827228154874e-01  5.5987078184446282e-01  6.0330689784834368e-01  6.4883362700467051e-01  6.9541037938378636e-01  7.4200492788056438e-01  7.8758422713784038e-01  8.3110498092462703e-01  8.7150892205221664e-01  9.0772842501416640e-01  9.3870882884286566e-01  9.6345386250701814e-01  9.8109998439652857e-01  9.9103269563838126e-01  9.9313160786060728e-01  3.8157798705509555e-01  3.8382427848842487e-01  3.9452316243397156e-01  4.1345662048936938e-01  4.3986870361551478e-01  4.7275108129588200e-01  5.1098842774561737e-01  5.5344671546336366e-01  5.9901959901490787e-01  6.4664376831003878e-01  6.9529393620165969e-01  7.4396616755782530e-01  7.9165589575422612e-01  8.3733553059036281e-01  8.7993663258930632e-01  9.1834327627330870e-01  9.5140594321757688e-01  9.7798773839866970e-01  9.9705563997175828e-01  1.0078354087603598e+00  1.0101209291458269e+00  3.6180274339948598e-01  3.6427767652965015e-01  3.7604424684521187e-01  3.9674139055590762e-01  4.2537996799179201e-01  4.6072216795496101e-01  5.0147731829677544e-01  5.4640562728986553e-01  5.9435840789216166e-01  6.4427807295023298e-01  6.9517607234774836e-01  7.4610036954567738e-01  7.9609877769684312e-01  8.4418170289874050e-01  8.8928785145729128e-01  9.3025939379826461e-01  9.6583891647758213e-01  9.9470807785192006e-01  1.0155942724210902e+00  1.0274792262021044e+00  1.0300114875813768e+00  3.3934850433487257e-01  3.4212355510165771e-01  3.5528523598152506e-01  3.7822476459819920e-01  4.0959384568083734e-01  4.4783635881750183e-01  4.9144670057130746e-01  5.3907710568440670e-01  5.8955516001079578e-01  6.4185619889836876e-01  6.9505783370585694e-01  7.4828956494812360e-01  8.0068160096118079e-01  8.5131294447093631e-01  8.9915864621070651e-01  9.4304008507074588e-01  9.8159167054835328e-01  1.0132736809475602e+00  1.0364811899323656e+00  1.0498193239505931e+00  1.0526830693408520e+00  3.1441328391803719e-01  3.1759273721392117e-01  3.3261287324389172e-01  3.5841659036500156e-01  3.9309970796192162e-01  4.3468117688742380e-01  4.8141641898146764e-01  5.3187213268804845e-01  5.8489112012164557e-01  6.3952118990009132e-01  6.9494127416303464e-01  7.5039426644275675e-01  8.0512499552395878e-01  8.5831752231789027e-01  9.0902548586085685e-01  9.5609269468584035e-01  9.9807251391082974e-01  1.0331814808242863e+00  1.0593707018228808e+00  1.0746602999626422e+00  1.0779849882547334e+00  2.8725371633754737e-01  2.9100875137685533e-01  3.0858243090248738e-01  3.3806915741762966e-01  3.7671617921726319e-01  4.2202025644913410e-01  4.7202186876153918e-01  5.2526789929669060e-01  5.8068069848353177e-01  6.3742963422393573e-01  6.9482967778068794e-01  7.5226390632987838e-01  8.0911872109631244e-01  8.6471881535808492e-01  9.1824820235241966e-01  9.6864363091101213e-01  1.0144530428584642e+00  1.0536815715991497e+00  1.0837347812523577e+00  1.1017332049644697e+00  1.1057368174974982e+00  2.5819551077550473e-01  2.6285985055671723e-01  2.8408030626165259e-01  3.1829874397348340e-01  3.6154352563037984e-01  4.1078441696000345e-01  4.6397256537015319e-01  5.1975970679964212e-01  5.7723284795194074e-01  6.3573066428906844e-01  6.9472739657907268e-01  7.5375785195371314e-01  8.1236126420160648e-01  8.7002569681606567e-01  9.2611413570426793e-01  9.7974735734482099e-01  1.0296091033913268e+00  1.0736446485466025e+00  1.1087180051913317e+00  1.1306395492421708e+00  1.1357368935855516e+00  2.2762435300995298e-01  2.3399985037827481e-01  2.6060371092962703e-01  3.0073236082609706e-01  3.4895557040255420e-01  4.0197816836780642e-01  4.5793876693450902e-01  5.1576390282313034e-01  5.7478408692273431e-01  6.3453201591498021e-01  6.9463885214280119e-01  7.5477776939105978e-01  8.1462673222642268e-01  8.7383256628950889e-01  9.3195861622736476e-01  9.8838786736486650e-01  1.0421253673276947e+00  1.0913873577684294e+00  1.1328323676281975e+00  1.1606813122319792e+00  1.1677884442860789e+00  1.9589331810809296e-01  2.0625344552995262e-01  2.4072984562044475e-01  2.8754177070122416e-01  3.4038466948974350e-01  3.9641607283660252e-01  4.5433339868624140e-01  5.1346689889433328e-01  5.7340748318912604e-01  6.3385708156055887e-01  6.9456632180703948e-01  7.5530623022125198e-01  8.1585230775806250e-01  8.7597004263273448e-01  9.3539186490483817e-01  9.9376724018536722e-01  1.0505387126626815e+00  1.1046068680992009e+00  1.1533675314416960e+00  1.1902645828345648e+00  1.2017416416278555e+00  1.6327152142986329e-01  1.8409407369896816e-01  2.2841596443069345e-01  2.8085565739077467e-01  3.3662879473443119e-01  3.9421271191186119e-01  4.5299916022091680e-01  5.1265129879649318e-01  5.7292375023711539e-01  6.3360684468775086e-01  6.9450675319697952e-01  7.5543756037476162e-01  8.1621771721012681e-01  8.7666759600007893e-01  9.3660554514477257e-01  9.9583800681198220e-01  1.0541306904628440e+00  1.1111082642852055e+00  1.1658357807743773e+00  1.2146746784536397e+00  1.2372361127738003e+00  1.4396848547714067e-01  1.7709461607788060e-01  2.2664730624718857e-01  2.8041659461698426e-01  3.3648545757864695e-01  3.9413257609478458e-01  4.5293559708742959e-01  5.1259392668046244e-01  5.7286829847841558e-01  6.3355065294368662e-01  6.9444881591451002e-01  7.5537916221381873e-01  8.1616326454030796e-01  8.7662605350793976e-01  9.3659355506366837e-01  9.9588769051501302e-01  1.0543123468450348e+00  1.1116112826934164e+00  1.1673031753906795e+00  1.2198180590077057e+00  1.2678934279723049e+00  </DataArray> 
</PointData> 
</Piece>
</UnstructuredGrid>
</VTKFile>