<?xml version="1.0"?>
<VTKFile type="UnstructuredGrid"  version="0.1"  >
<UnstructuredGrid>
<Piece  NumberOfPoints="651" NumberOfCells="1200">
<Points>
<DataArray  type="Float64"  NumberOfComponents="3"  format="ascii">0 0 0  50000 0 0  100000 0 0  150000 0 0  200000 0 0  250000 0 0  300000 0 0  350000 0 0  400000 0 0  450000 0 0  500000 0 0  550000 0 0  600000 0 0  650000 0 0  700000 0 0  750000 0 0  800000 0 0  850000 0 0  900000 0 0  950000 0 0  1000000 0 0  0 50000 0  50000 50000 0  100000 50000 0  150000 50000 0  200000 50000 0  250000 50000 0  300000 50000 0  350000 50000 0  400000 50000 0  450000 50000 0  500000 50000 0  550000 50000 0  600000 50000 0  650000 50000 0  700000 50000 0  750000 50000 0  800000 50000 0  850000 50000 0  900000 50000 0  950000 50000 0  1000000 50000 0  0 100000 0  50000 100000 0  100000 100000 0  150000 100000 0  200000 100000 0  250000 100000 0  300000 100000 0  350000 100000 0  400000 100000 0  450000 100000 0  500000 100000 0  550000 100000 0  600000 100000 0  650000 100000 0  700000 100000 0  750000 100000 0  800000 100000 0  850000 100000 0  900000 100000 0  950000 100000 0  1000000 100000 0  0 150000 0  50000 150000 0  100000 150000 0  150000 150000 0  200000 150000 0  250000 150000 0  300000 150000 0  350000 150000 0  400000 150000 0  450000 150000 0  500000 150000 0  550000 150000 0  600000 150000 0  650000 150000 0  700000 150000 0  750000 150000 0  800000 150000 0  850000 150000 0  900000 150000 0  950000 150000 0  1000000 150000 0  0 200000 0  50000 200000 0  100000 200000 0  150000 200000 0  200000 200000 0  250000 200000 0  300000 200000 0  350000 200000 0  400000 200000 0  450000 200000 0  500000 200000 0  550000 200000 0  600000 200000 0  650000 200000 0  700000 200000 0  750000 200000 0  800000 200000 0  850000 200000 0  900000 200000 0  950000 200000 0  1000000 200000 0  0 250000 0  50000 250000 0  100000 250000 0  150000 250000 0  200000 250000 0  250000 250000 0  300000 250000 0  350000 250000 0  400000 250000 0  450000 250000 0  500000 250000 0  550000 250000 0  600000 250000 0  650000 250000 0  700000 250000 0  750000 250000 0  800000 250000 0  850000 250000 0  900000 250000 0  950000 250000 0  1000000 250000 0  0 300000 0  50000 300000 0  100000 300000 0  150000 300000 0  200000 300000 0  250000 300000 0  300000 300000 0  350000 300000 0  400000 300000 0  450000 300000 0  500000 300000 0  550000 300000 0  600000 300000 0  650000 300000 0  700000 300000 0  750000 300000 0  800000 300000 0  850000 300000 0  900000 300000 0  950000 300000 0  1000000 300000 0  0 350000 0  50000 350000 0  100000 350000 0  150000 350000 0  200000 350000 0  250000 350000 0  300000 350000 0  350000 350000 0  400000 350000 0  450000 350000 0  500000 350000 0  550000 350000 0  600000 350000 0  650000 350000 0  700000 350000 0  750000 350000 0  800000 350000 0  850000 350000 0  900000 350000 0  950000 350000 0  1000000 350000 0  0 400000 0  50000 400000 0  100000 400000 0  150000 400000 0  200000 400000 0  250000 400000 0  300000 400000 0  350000 400000 0  400000 400000 0  450000 400000 0  500000 400000 0  550000 400000 0  600000 400000 0  650000 400000 0  700000 400000 0  750000 400000 0  800000 400000 0  850000 400000 0  900000 400000 0  950000 400000 0  1000000 400000 0  0 450000 0  50000 450000 0  100000 450000 0  150000 450000 0  200000 450000 0  250000 450000 0  300000 450000 0  350000 450000 0  400000 450000 0  450000 450000 0  500000 450000 0  550000 450000 0  600000 450000 0  650000 450000 0  700000 450000 0  750000 450000 0  800000 450000 0  850000 450000 0  900000 450000 0  950000 450000 0  1000000 450000 0  0 500000 0  50000 500000 0  100000 500000 0  150000 500000 0  200000 500000 0  250000 500000 0  300000 500000 0  350000 500000 0  400000 500000 0  450000 500000 0  500000 500000 0  550000 500000 0  600000 500000 0  650000 500000 0  700000 500000 0  750000 500000 0  800000 500000 0  850000 500000 0  900000 500000 0  950000 500000 0  1000000 500000 0  0 550000 0  50000 550000 0  100000 550000 0  150000 550000 0  200000 550000 0  250000 550000 0  300000 550000 0  350000 550000 0  400000 550000 0  450000 550000 0  500000 550000 0  550000 550000 0  600000 550000 0  650000 550000 0  700000 550000 0  750000 550000 0  800000 550000 0  850000 550000 0  900000 550000 0  950000 550000 0  1000000 550000 0  0 600000 0  50000 600000 0  100000 600000 0  150000 600000 0  200000 600000 0  250000 600000 0  300000 600000 0  350000 600000 0  400000 600000 0  450000 600000 0  500000 600000 0  550000 600000 0  600000 600000 0  650000 600000 0  700000 600000 0  750000 600000 0  800000 600000 0  850000 600000 0  900000 600000 0  950000 600000 0  1000000 600000 0  0 650000 0  50000 650000 0  100000 650000 0  150000 650000 0  200000 650000 0  250000 650000 0  300000 650000 0  350000 650000 0  400000 650000 0  450000 650000 0  500000 650000 0  550000 650000 0  600000 650000 0  650000 650000 0  700000 650000 0  750000 650000 0  800000 650000 0  850000 650000 0  900000 650000 0  950000 650000 0  1000000 650000 0  0 700000 0  50000 700000 0  100000 700000 0  150000 700000 0  200000 700000 0  250000 700000 0  300000 700000 0  350000 700000 0  400000 700000 0  450000 700000 0  500000 700000 0  550000 700000 0  600000 700000 0  650000 700000 0  700000 700000 0  750000 700000 0  800000 700000 0  850000 700000 0  900000 700000 0  950000 700000 0  1000000 700000 0  0 750000 0  50000 750000 0  100000 750000 0  150000 750000 0  200000 750000 0  250000 750000 0  300000 750000 0  350000 750000 0  400000 750000 0  450000 750000 0  500000 750000 0  550000 750000 0  600000 750000 0  650000 750000 0  700000 750000 0  750000 750000 0  800000 750000 0  850000 750000 0  900000 750000 0  950000 750000 0  1000000 750000 0  0 800000 0  50000 800000 0  100000 800000 0  150000 800000 0  200000 800000 0  250000 800000 0  300000 800000 0  350000 800000 0  400000 800000 0  450000 800000 0  500000 800000 0  550000 800000 0  600000 800000 0  650000 800000 0  700000 800000 0  750000 800000 0  800000 800000 0  850000 800000 0  900000 800000 0  950000 800000 0  1000000 800000 0  0 850000 0  50000 850000 0  100000 850000 0  150000 850000 0  200000 850000 0  250000 850000 0  300000 850000 0  350000 850000 0  400000 850000 0  450000 850000 0  500000 850000 0  550000 850000 0  600000 850000 0  650000 850000 0  700000 850000 0  750000 850000 0  800000 850000 0  850000 850000 0  900000 850000 0  950000 850000 0  1000000 850000 0  0 900000 0  50000 900000 0  100000 900000 0  150000 900000 0  200000 900000 0  250000 900000 0  300000 900000 0  350000 900000 0  400000 900000 0  450000 900000 0  500000 900000 0  550000 900000 0  600000 900000 0  650000 900000 0  700000 900000 0  750000 900000 0  800000 900000 0  850000 900000 0  900000 900000 0  950000 900000 0  1000000 900000 0  0 950000 0  50000 950000 0  100000 950000 0  150000 950000 0  200000 950000 0  250000 950000 0  300000 950000 0  350000 950000 0  400000 950000 0  450000 950000 0  500000 950000 0  550000 950000 0  600000 950000 0  650000 950000 0  700000 950000 0  750000 950000 0  800000 950000 0  850000 950000 0  900000 950000 0  950000 950000 0  1000000 950000 0  0 1000000 0  50000 1000000 0  100000 1000000 0  150000 1000000 0  200000 1000000 0  250000 1000000 0  300000 1000000 0  350000 1000000 0  400000 1000000 0  450000 1000000 0  500000 1000000 0  550000 1000000 0  600000 1000000 0  650000 1000000 0  700000 1000000 0  750000 1000000 0  800000 1000000 0  850000 1000000 0  900000 1000000 0  950000 1000000 0  1000000 1000000 0  0 1050000 0  50000 1050000 0  100000 1050000 0  150000 1050000 0  200000 1050000 0  250000 1050000 0  300000 1050000 0  350000 1050000 0  400000 1050000 0  450000 1050000 0  500000 1050000 0  550000 1050000 0  600000 1050000 0  650000 1050000 0  700000 1050000 0  750000 1050000 0  800000 1050000 0  850000 1050000 0  900000 1050000 0  950000 1050000 0  1000000 1050000 0  0 1100000 0  50000 1100000 0  100000 1100000 0  150000 1100000 0  200000 1100000 0  250000 1100000 0  300000 1100000 0  350000 1100000 0  400000 1100000 0  450000 1100000 0  500000 1100000 0  550000 1100000 0  600000 1100000 0  650000 1100000 0  700000 1100000 0  750000 1100000 0  800000 1100000 0  850000 1100000 0  900000 1100000 0  950000 1100000 0  1000000 1100000 0  0 1150000 0  50000 1150000 0  100000 1150000 0  150000 1150000 0  200000 1150000 0  250000 1150000 0  300000 1150000 0  350000 1150000 0  400000 1150000 0  450000 1150000 0  500000 1150000 0  550000 1150000 0  600000 1150000 0  650000 1150000 0  700000 1150000 0  750000 1150000 0  800000 1150000 0  850000 1150000 0  900000 1150000 0  950000 1150000 0  1000000 1150000 0  0 1200000 0  50000 1200000 0  100000 1200000 0  150000 1200000 0  200000 1200000 0  250000 1200000 0  300000 1200000 0  350000 1200000 0  400000 1200000 0  450000 1200000 0  500000 1200000 0  550000 1200000 0  600000 1200000 0  650000 1200000 0  700000 1200000 0  750000 1200000 0  800000 1200000 0  850000 1200000 0  900000 1200000 0  950000 1200000 0  1000000 1200000 0  0 1250000 0  50000 1250000 0  100000 1250000 0  150000 1250000 0  200000 1250000 0  250000 1250000 0  300000 1250000 0  350000 1250000 0  400000 1250000 0  450000 1250000 0  500000 1250000 0  550000 1250000 0  600000 1250000 0  650000 1250000 0  700000 1250000 0  750000 1250000 0  800000 1250000 0  850000 1250000 0  900000 1250000 0  950000 1250000 0  1000000 1250000 0  0 1300000 0  50000 1300000 0  100000 1300000 0  150000 1300000 0  200000 1300000 0  250000 1300000 0  300000 1300000 0  350000 1300000 0  400000 1300000 0  450000 1300000 0  500000 1300000 0  550000 1300000 0  600000 1300000 0  650000 1300000 0  700000 1300000 0  750000 1300000 0  800000 1300000 0  850000 1300000 0  900000 1300000 0  950000 1300000 0  1000000 1300000 0  0 1350000 0  50000 1350000 0  100000 1350000 0  150000 1350000 0  200000 1350000 0  250000 1350000 0  300000 1350000 0  350000 1350000 0  400000 1350000 0  450000 1350000 0  500000 1350000 0  550000 1350000 0  600000 1350000 0  650000 1350000 0  700000 135
[...]
<PointData  Scalars="f_7495"> 
<DataArray  type="Float64"  Name="f_7495"  format="ascii">-2.4936335870280937e+00  -2.2324013451777631e+00  -1.9431478721862940e+00  -1.6347445665403022e+00  -1.3166399387481824e+00  -9.9177106161795692e-01  -6.6172269224681168e-01  -3.2770365542691887e-01  9.1971107434618820e-03  3.4792231008685554e-01  6.8741144895108242e-01  1.0265845733974654e+00  1.3643294055153163e+00  1.6994804657190654e+00  2.0307753853936643e+00  2.3567622591038404e+00  2.6756052205971388e+00  2.9846541951586261e+00  3.2791824806796961e+00  3.5470460096149976e+00  3.7213153676526800e+00  -2.3277479372421017e+00  -2.2084361650329378e+00  -1.9378255106301721e+00  -1.6336914132194802e+00  -1.3166871302726704e+00  -9.9210864294633883e-01  -6.6209352791543485e-01  -3.2800101502510570e-01  9.0291605344724451e-03  3.4791963225146333e-01  6.8760189971134300e-01  1.0269948724835989e+00  1.3649915436025495e+00  1.7004397327058030e+00  2.0320985648541749e+00  2.3585266332653361e+00  2.6777589389583016e+00  2.9862439959741507e+00  3.2750405235652149e+00  3.5161963273419348e+00  3.6212845373164990e+00  -2.1361317736739873e+00  -2.0776507058533991e+00  -1.8738746300320002e+00  -1.6020332319943842e+00  -1.3001641885237687e+00  -9.8312486742894745e-01  -6.5710083772428374e-01  -3.2521381797991522e-01  1.0562442114010773e-02  3.4870556108306250e-01  6.8786913224631085e-01  1.0267576664817681e+00  1.3640486646831447e+00  1.6983059857245377e+00  2.0278225105648642e+00  2.3502668778320177e+00  2.6618222619576226e+00  2.9550224096361979e+00  3.2134611677782572e+00  3.4006523335827250e+00  3.4488686874713439e+00  -1.9527393880782065e+00  -1.9178174164959469e+00  -1.7646404787965118e+00  -1.5334360302283694e+00  -1.2576830759241859e+00  -9.5668631016247441e-01  -6.4061816338795463e-01  -3.1509303679240186e-01  1.6423315576679417e-02  3.5147653962152164e-01  6.8807455237795456e-01  1.0243946570036531e+00  1.3585838718764052e+00  1.6885509675869441e+00  2.0116469986626537e+00  2.3240713260247796e+00  2.6197051481800888e+00  2.8878768907387138e+00  3.1095912988051229e+00  3.2534719277779307e+00  3.2813257314928137e+00  -1.7794651096844889e+00  -1.7550729212746077e+00  -1.6348790102485622e+00  -1.4391946851070656e+00  -1.1922547005571908e+00  -9.1223842301110292e-01  -6.1096696127334604e-01  -2.9593999939394744e-01  2.7869313613154846e-02  3.5687142385703641e-01  6.8818410790772155e-01  1.0192110637427019e+00  1.3473270679757818e+00  1.6695595469475519e+00  1.9821599279213564e+00  2.2799343385198996e+00  2.5551768661306564e+00  2.7961169104083035e+00  2.9852664800019109e+00  3.0996883620238949e+00  3.1194194743498369e+00  -1.6170577406681548e+00  -1.5982243406168162e+00  -1.4997176974270399e+00  -1.3319763298315122e+00  -1.1116403230933558e+00  -8.5377732286590391e-01  -5.6991650868251598e-01  -2.6838577989999385e-01  4.4760399445897860e-02  3.6489935244902655e-01  6.8821600033811214e-01  1.0112462898505570e+00  1.3305040959470336e+00  1.6421098712707725e+00  1.9413443087309852e+00  2.2220599760871691e+00  2.4759294999287289e+00  2.6916697330601598e+00  2.8548091614215738e+00  2.9494563277027406e+00  2.9651682645507673e+00  -1.4665688688129737e+00  -1.4511017996019120e+00  -1.3674663029296368e+00  -1.2211646012460406e+00  -1.0236290988175829e+00  -7.8678240107402497e-01  -5.2096357505830926e-01  -2.3450563090117862e-01  6.5974306719836326e-02  3.7508823466140084e-01  6.8820646013894726e-01  1.0010501940609506e+00  1.3093278637566617e+00  1.6083761701496888e+00  1.8927701357236881e+00  2.1558907894102166e+00  2.3895033206033180e+00  2.5835380666046572e+00  2.7265184335861568e+00  2.8074538663219322e+00  2.8207513791924215e+00  -1.3291106824167840e+00  -1.3158893959698545e+00  -1.2428996915312949e+00  -1.1130813321959019e+00  -9.3448668530115209e-01  -7.1647601551186801e-01  -4.6799955449753866e-01  -1.9694929256154622e-01  8.9903287142329105e-02  3.8669867947675884e-01  6.8818986604032784e-01  9.8943001285844268e-01  1.2854679630220498e+00  1.5710488907296947e+00  1.8403185833294020e+00  2.0865534711025520e+00  2.3019904281101531e+00  2.4779166248822189e+00  2.6052943606641281e+00  2.6763388620272779e+00  2.6879939509408031e+00  -1.2056957021389894e+00  -1.1940714824332626e+00  -1.1289680518741116e+00  -1.0119366318150624e+00  -8.4885986335062924e-01  -6.4717957445651308e-01  -4.1457945598751544e-01  -1.5834659126169986e-01  1.1484629494532318e-01  3.9891127373702401e-01  6.8819061059259146e-01  9.7725006190898767e-01  1.2606570526599641e+00  1.5327630346593279e+00  1.7875091920877908e+00  2.0182909803865754e+00  2.2179485709024562e+00  2.3789918558813588e+00  2.4942098988932933e+00  2.5578846795130921e+00  2.5683437105280640e+00  -1.0971805145730571e+00  -1.0867384602491250e+00  -1.0276094676218739e+00  -9.2056395651540757e-01  -7.7008342992682488e-01  -5.8222733610600841e-01  -3.6363946763900007e-01  -1.2099840226169806e-01  1.3924760866858982e-01  4.1095206533605444e-01  6.8822216253304014e-01  9.6530709102265289e-01  1.2364610671894003e+00  1.4958092300442658e+00  1.7372439857500714e+00  1.9543880095570647e+00  2.1406748198999650e+00  2.2896122717088407e+00  2.3953053744435886e+00  2.4533742646540850e+00  2.4629330904703934e+00  -1.0042564845097159e+00  -9.9470851968668261e-01  -9.4014739645842371e-01  -8.4089297746551117e-01  -7.0051296638621241e-01  -5.2408989173623233e-01  -3.1746107723695821e-01  -8.6768069387429744e-02  1.6180580989309223e-01  4.2215771537785146e-01  6.8828925501523874e-01  9.5427079590689934e-01  1.2141789929158149e+00  1.4620360654426032e+00  1.6917787756380851e+00  1.8972881247477087e+00  2.0725148357174605e+00  2.2117368894383924e+00  2.3099880459764570e+00  2.3637628481448112e+00  2.3726383989845745e+00  -9.2745981161342705e-01  -9.1859103414926602e-01  -8.6750026799041391e-01  -7.7424451292639240e-01  -6.4179239280477229e-01  -4.7454635299761355e-01  -2.7774268422875842e-01  -5.7084833960308515e-02  1.8149832718605305e-01  4.3199706203932503e-01  6.8839071066572910e-01  9.4466815786912628e-01  1.1948244165089277e+00  1.4328581735300778e+00  1.6527946997138478e+00  1.8487583492081259e+00  2.0151174339494933e+00  2.1467204858506670e+00  2.2392459341800577e+00  2.2897625204553433e+00  2.2981268804432555e+00  -8.6718910120451831e-01  -8.5882842772032320e-01  -8.1030260547922817e-01  -7.2151697250414537e-01  -5.9505085690770443e-01  -4.3484410301028337e-01  -2.4570310213120622e-01  -3.2996860868001986e-02  1.9756155447405510e-01  4.4006733641890722e-01  6.8852182043335364e-01  9.3689177650973532e-01  1.1791490769944832e+00  1.4093108414374775e+00  1.6214998566606060e+00  1.8100433451400757e+00  1.9696244529693396e+00  2.0954960873510458e+00  2.1837725791636355e+00  2.2318962340299597e+00  2.2398948516740469e+00  -8.2372463385009353e-01  -8.1572761001251881e-01  -7.6898083736895106e-01  -6.8330690584567033e-01  -5.6104229089023161e-01  -4.0582773111543441e-01  -2.2218134885382876e-01  -1.5237288131099314e-02  2.0945392339607682e-01  4.4607904485425454e-01  6.8867600293765208e-01  9.3121798918082077e-01  1.1676817902436731e+00  1.3921163261534981e+00  1.5987271905396758e+00  1.7819906836423165e+00  1.9368065018990772e+00  2.0586940204901238e+00  2.1440457320103805e+00  2.1905368041305748e+00  2.1982991409154002e+00  -7.9724590209096002e-01  -7.8948403960073366e-01  -7.4380279437304464e-01  -6.5998757786093276e-01  -5.4024128342205679e-01  -3.8803477563342453e-01  -2.0771818596552247e-01  -4.2844850588604653e-03  2.1681798473456940e-01  4.4983848101570018e-01  6.8884581557663771e-01  9.2782610228631768e-01  1.1607673013313800e+00  1.3817438360876018e+00  1.5850144754257971e+00  1.7651442438241423e+00  1.9171567896635207e+00  2.0367201259649312e+00  2.1203791756453638e+00  2.1659360804101508e+00  2.1735824078223600e+00  -7.8784515351812989e-01  -7.8019889670336007e-01  -7.3490937851563343e-01  -6.5175855410620731e-01  -5.3290531651581841e-01  -3.8176083713539011e-01  -2.0261473545952641e-01  -4.0799300455528198e-04  2.1944982838826810e-01  4.5123289928511118e-01  6.8902348920831646e-01  9.2681407913151281e-01  1.1585971500283558e+00  1.3784549714211753e+00  1.5806617138761403e+00  1.7598078155520041e+00  1.9109522949324318e+00  2.0298055325228250e+00  2.1129563569322474e+00  2.1582458751199729e+00  2.1658921319347448e+00  -7.9553542940574618e-01  -7.8788910199353701e-01  -7.4233219722874877e-01  -6.5867314754831963e-01  -5.3910981124690738e-01  -3.8709726540752726e-01  -2.0696749700918021e-01  -3.6968576709796664e-03  2.1727967708524207e-01  4.5022087613030876e-01  6.8920116283999677e-01  9.2820849740093059e-01  1.1612289936820579e+00  1.3823314634754800e+00  1.5857651643821380e+00  1.7660817540500393e+00  1.9182882618386778e+00  2.0380345562775535e+00  2.1218497727896692e+00  2.1675310180173595e+00  2.1752928805075853e+00  -8.2025216249878818e-01  -8.1248982571396222e-01  -7.6599875359376657e-01  -6.8064704207351057e-01  -5.5875952348246594e-01  -4.0394370522570600e-01  -2.2068021212305949e-01  -1.4069347736876594e-02  2.1036518817295285e-01  4.4682898923581149e-01  6.8937097547898740e-01  9.3196793356238272e-01  1.1685930550205572e+00  1.3932842665477301e+00  1.6002283272704569e+00  1.7838747095320633e+00  1.9390892693068624e+00  2.0613538842622989e+00  2.1470278157855884e+00  2.1937745884291608e+00  2.2017716122667332e+00  -8.6184787325742485e-01  -8.5384925561333702e-01  -8.0572560074701260e-01  -7.1744910893442015e-01  -5.9157747455271736e-01  -4.3199636672345576e-01  -2.4345287824398004e-01  -3.1263863020847986e-02  1.9889790142215205e-01  4.4115520190690483e-01  6.8952515798329683e-01  9.3797964199774353e-01  1.1804854239425915e+00  1.4110438392846407e+00  1.6237500805478442e+00  1.8128910814269226e+00  1.9730978353243502e+00  2.0995639509207900e+00  2.1883495838958704e+00  2.2368754061369645e+00  2.2452360796211592e+00  -9.2007990202662504e-01  -9.1171554203871441e-01  -8.6119895576342509e-01  -7.6867350743403684e-01  -6.3707045553286124e-01  -4.7071137079149478e-01  -2.7474772129720981e-01  -5.4811195113435088e-02  1.8322256190772079e-01  4.3337882054752702e-01  6.8965626775093247e-01  9.4604991637733860e-01  1.1965486512306074e+00  1.4351318123769605e+00  1.6557896626454076e+00  1.8525933314142609e+00  2.0198393712214293e+00  2.1522914913430453e+00  2.2455472464070594e+00  2.2966380125659067e+00  2.3055067900300688e+00  -9.9459142056792726e-01  -9.8571586972816427e-01  -9.3194106755980977e-01  -8.3368991102174905e-01  -6.9446785730081151e-01  -5.1924114633105334e-01  -3.1373179722142791e-01  -8.3989087025943446e-02  1.6386798550085249e-01  4.2377618250977223e-01  6.8975772340144059e-01  9.5588926303882793e-01  1.2162411685235883e+00  1.4648150478041073e+00  1.6955080556536344e+00  1.9021368701529051e+00  2.0785599448028820e+00  2.2189399558821723e+00  2.3181943748750808e+00  2.3727554981033339e+00  2.3823034629263655e+00  -1.0848861120537252e+00  -1.0753272862374219e+00  -1.0172583960269244e+00  -9.1156529329217717e-01  -7.6262784148329765e-01  -5.7634103114039070e-01  -3.5919700733339699e-01  -1.1776225162758579e-01  1.4158591122728906e-01  4.1273988739404321e-01  6.8982481588366296e-01  9.6709491308064888e-01  1.2387993697481152e+00  1.4990453806784043e+00  1.7416864460557036e+00  1.9602743145227048e+00  2.1481304083435111e+00  2.2986109349320833e+00  2.4056564460385421e+00  2.4647854386657868e+00  2.4752274929897142e+00  -1.1902967321113866e+00  -1.1798377010964169e+00  -1.1161629204766137e+00  -1.0009448774646774e+00  -8.3990159248577045e-01  -6.4024400196988163e-01  -4.0946221367109292e-01  -1.5471605624262152e-01  1.1738992575675086e-01  4.0079691650773402e-01  6.8985636782413706e-01  9.7913570467970890e-01  1.2632006834714113e+00  1.5363935696784319e+00  1.7926264344042429e+00  2.0252265528732281e+00  2.2269068417673328e+00  2.3899836102317549e+00  2.5070150302907899e+00  2.5721184608499352e+00  2.5837426805556638e+00  -1.3099469725241115e+00  -1.2982918836105835e+00  -1.2272473822474326e+00  -1.0998696464655242e+00  -9.2394344969344933e-01  -7.0850649268583832e-01  -4.6227160491268143e-01  -1.9300191231296449e-01  9.2579015394687422e-02  3.8861696555830011e-01  6.8985711237642267e-01  9.9134829893999732e-01  1.2881436912744291e+00  1.5749962709783003e+00  1.8460465329142848e+00  2.0945229939286003e+00  2.3125336637178759e+00  2.4911283106126141e+00  2.6209466699479935e+00  2.6939363743865483e+00  2.7071576608334764e+00  -1.4427044007757122e+00  -1.4294068879052244e+00  -1.3484714551694532e+00  -1.2054910881879501e+00  -1.0114563421865967e+00  -7.7784381099348265e-01  -5.1472315730694274e-01  -2.3032919173293154e-01  6.8719114660102609e-02  3.7699678435581840e-01  6.8984051827782789e-01  1.0029587437553775e+00  1.3120726716969433e+00  1.6125526093179496e+00  1.8990105534750752e+00  2.1648293794907771e+00  2.4016760772343289e+00  2.5992115796627755e+00  2.7455132813463572e+00  2.8291487780186233e+00  2.8446158472296852e+00  -1.5871212861340394e+00  -1.5714093492860142e+00  -1.4767621830048441e+00  -1.3136227546434252e+00  -1.0978825215119841e+00  -8.4401299767041937e-01  -5.6329733031421958e-01  -2.6406289285398810e-01  4.7542882469754535e-02  3.6680068856623393e-01  6.8983097807868654e-01  1.0131476259677734e+00  1.3332865789709059e+00  1.6464327583167875e+00  1.9479634870993017e+00  2.2318243012826819e+00  2.4896873015101235e+00  2.7100233082482705e+00  2.8777646758437814e+00  2.9762713190335481e+00  2.9951047190848832e+00  -1.7413724959330918e+00  -1.7216413836071489e+00  -1.6072195015851589e+00  -1.4180699319915469e+00  -1.1771298877138892e+00  -9.0188736010312953e-01  -6.0411294950457117e-01  -2.9151256853075103e-01  3.0719910441023825e-02  3.5883591467410392e-01  6.8986287050909301e-01  1.0211755545597798e+00  1.3501776648036610e+00  1.6739869778107574e+00  1.9890139396901512e+00  2.2902854014279064e+00  2.5703016789739759e+00  2.8172416635238386e+00  3.0129259886653257e+00  3.1331198996913603e+00  3.1575120881012380e+00  -1.9032787530760538e+00  -1.8754249493611683e+00  -1.7315443203883536e+00  -1.5098299123219379e+00  -1.2416581697633091e+00  -9.4602434760799148e-01  -6.3360002024585449e-01  -3.1050398917013233e-01  1.9463106540412216e-02  3.5365232141316572e-01  6.8997242603887032e-01  1.0265704387953059e+00  1.3616236628401464e+00  1.6931400152092237e+00  2.0186651418047790e+00  2.3347332885792902e+00  2.6357300543409905e+00  2.9114830086451580e+00  3.1426874572132877e+00  3.2958643949127109e+00  3.3307863664949688e+00  -2.0708217090545689e+00  -2.0226053551659455e+00  -1.8354141893614746e+00  -1.5769754312194082e+00  -1.2837752835408349e+00  -9.7221989941522302e-01  -6.4977553214805728e-01  -3.2025900730771933e-01  1.3998313733676267e-02  3.5128931193505641e-01  6.9017784617052125e-01  1.0293414173337714e+00  1.3674845363028247e+00  1.7032607963967439e+00  2.0351478161411127e+00  2.3611718458457696e+00  2.6782111669405810e+00  2.9800802104111823e+00  3.2519216084487867e+00  3.4556976842701737e+00  3.5141787520907650e+00  -2.2432375588997244e+00  -2.1381493489251575e+00  -1.8969935451484417e+00  -1.6081970175573674e+00  -1.2997119605415111e+00  -9.8047965484853394e-01  -6.5405158643736483e-01  -3.2239275428898367e-01  1.3055434814275430e-02  3.5105210593322861e-01  6.9044507870548888e-01  1.0301273461653722e+00  1.3690178178823647e+00  1.7060479934419404e+00  2.0401405063322660e+00  2.3701556213631609e+00  2.6947341086894858e+00  3.0117383916362828e+00  3.3158724890469680e+00  3.5864831434497209e+00  3.7057949156588830e+00  -2.3432683892359023e+00  -2.1689990311982186e+00  -1.9011355022629175e+00  -1.6066072167418413e+00  -1.2975582421803451e+00  -9.7871528068703784e-01  -6.5272840697685197e-01  -3.2143348730224608e-01  1.3717572901510291e-02  3.5146240501936454e-01  6.9063552946575135e-01  1.0301246683299781e+00  1.3688498676733769e+00  1.7057506338437542e+00  2.0397696706636457e+00  2.3698180400347808e+00  2.6946869171649999e+00  3.0127915449571079e+00  3.3211948506030886e+00  3.6104483235945501e+00  3.8716805654448789e+00  </DataArray> 
</PointData> 
</Piece>
</UnstructuredGrid>
</VTKFile>