<?xml version="1.0"?>
<VTKFile type="UnstructuredGrid"  version="0.1"  >
<UnstructuredGrid>
<Piece  NumberOfPoints="651" NumberOfCells="1200">
<Points>
<DataArray  type="Float64"  NumberOfComponents="3"  format="ascii">0 0 0  50000 0 0  100000 0 0  150000 0 0  200000 0 0  250000 0 0  300000 0 0  350000 0 0  400000 0 0  450000 0 0  500000 0 0  550000 0 0  600000 0 0  650000 0 0  700000 0 0  750000 0 0  800000 0 0  850000 0 0  900000 0 0  950000 0 0  1000000 0 0  0 50000 0  50000 50000 0  100000 50000 0  150000 50000 0  200000 50000 0  250000 50000 0  300000 50000 0  350000 50000 0  400000 50000 0  450000 50000 0  500000 50000 0  550000 50000 0  600000 50000 0  650000 50000 0  700000 50000 0  750000 50000 0  800000 50000 0  850000 50000 0  900000 50000 0  950000 50000 0  1000000 50000 0  0 100000 0  50000 100000 0  100000 100000 0  150000 100000 0  200000 100000 0  250000 100000 0  300000 100000 0  350000 100000 0  400000 100000 0  450000 100000 0  500000 100000 0  550000 100000 0  600000 100000 0  650000 100000 0  700000 100000 0  750000 100000 0  800000 100000 0  850000 100000 0  900000 100000 0  950000 100000 0  1000000 100000 0  0 150000 0  50000 150000 0  100000 150000 0  150000 150000 0  200000 150000 0  250000 150000 0  300000 150000 0  350000 150000 0  400000 150000 0  450000 150000 0  500000 150000 0  550000 150000 0  600000 150000 0  650000 150000 0  700000 150000 0  750000 150000 0  800000 150000 0  850000 150000 0  900000 150000 0  950000 150000 0  1000000 150000 0  0 200000 0  50000 200000 0  100000 200000 0  150000 200000 0  200000 200000 0  250000 200000 0  300000 200000 0  350000 200000 0  400000 200000 0  450000 200000 0  500000 200000 0  550000 200000 0  600000 200000 0  650000 200000 0  700000 200000 0  750000 200000 0  800000 200000 0  850000 200000 0  900000 200000 0  950000 200000 0  1000000 200000 0  0 250000 0  50000 250000 0  100000 250000 0  150000 250000 0  200000 250000 0  250000 250000 0  300000 250000 0  350000 250000 0  400000 250000 0  450000 250000 0  500000 250000 0  550000 250000 0  600000 250000 0  650000 250000 0  700000 250000 0  750000 250000 0  800000 250000 0  850000 250000 0  900000 250000 0  950000 250000 0  1000000 250000 0  0 300000 0  50000 300000 0  100000 300000 0  150000 300000 0  200000 300000 0  250000 300000 0  300000 300000 0  350000 300000 0  400000 300000 0  450000 300000 0  500000 300000 0  550000 300000 0  600000 300000 0  650000 300000 0  700000 300000 0  750000 300000 0  800000 300000 0  850000 300000 0  900000 300000 0  950000 300000 0  1000000 300000 0  0 350000 0  50000 350000 0  100000 350000 0  150000 350000 0  200000 350000 0  250000 350000 0  300000 350000 0  350000 350000 0  400000 350000 0  450000 350000 0  500000 350000 0  550000 350000 0  600000 350000 0  650000 350000 0  700000 350000 0  750000 350000 0  800000 350000 0  850000 350000 0  900000 350000 0  950000 350000 0  1000000 350000 0  0 400000 0  50000 400000 0  100000 400000 0  150000 400000 0  200000 400000 0  250000 400000 0  300000 400000 0  350000 400000 0  400000 400000 0  450000 400000 0  500000 400000 0  550000 400000 0  600000 400000 0  650000 400000 0  700000 400000 0  750000 400000 0  800000 400000 0  850000 400000 0  900000 400000 0  950000 400000 0  1000000 400000 0  0 450000 0  50000 450000 0  100000 450000 0  150000 450000 0  200000 450000 0  250000 450000 0  300000 450000 0  350000 450000 0  400000 450000 0  450000 450000 0  500000 450000 0  550000 450000 0  600000 450000 0  650000 450000 0  700000 450000 0  750000 450000 0  800000 450000 0  850000 450000 0  900000 450000 0  950000 450000 0  1000000 450000 0  0 500000 0  50000 500000 0  100000 500000 0  150000 500000 0  200000 500000 0  250000 500000 0  300000 500000 0  350000 500000 0  400000 500000 0  450000 500000 0  500000 500000 0  550000 500000 0  600000 500000 0  650000 500000 0  700000 500000 0  750000 500000 0  800000 500000 0  850000 500000 0  900000 500000 0  950000 500000 0  1000000 500000 0  0 550000 0  50000 550000 0  100000 550000 0  150000 550000 0  200000 550000 0  250000 550000 0  300000 550000 0  350000 550000 0  400000 550000 0  450000 550000 0  500000 550000 0  550000 550000 0  600000 550000 0  650000 550000 0  700000 550000 0  750000 550000 0  800000 550000 0  850000 550000 0  900000 550000 0  950000 550000 0  1000000 550000 0  0 600000 0  50000 600000 0  100000 600000 0  150000 600000 0  200000 600000 0  250000 600000 0  300000 600000 0  350000 600000 0  400000 600000 0  450000 600000 0  500000 600000 0  550000 600000 0  600000 600000 0  650000 600000 0  700000 600000 0  750000 600000 0  800000 600000 0  850000 600000 0  900000 600000 0  950000 600000 0  1000000 600000 0  0 650000 0  50000 650000 0  100000 650000 0  150000 650000 0  200000 650000 0  250000 650000 0  300000 650000 0  350000 650000 0  400000 650000 0  450000 650000 0  500000 650000 0  550000 650000 0  600000 650000 0  650000 650000 0  700000 650000 0  750000 650000 0  800000 650000 0  850000 650000 0  900000 650000 0  950000 650000 0  1000000 650000 0  0 700000 0  50000 700000 0  100000 700000 0  150000 700000 0  200000 700000 0  250000 700000 0  300000 700000 0  350000 700000 0  400000 700000 0  450000 700000 0  500000 700000 0  550000 700000 0  600000 700000 0  650000 700000 0  700000 700000 0  750000 700000 0  800000 700000 0  850000 700000 0  900000 700000 0  950000 700000 0  1000000 700000 0  0 750000 0  50000 750000 0  100000 750000 0  150000 750000 0  200000 750000 0  250000 750000 0  300000 750000 0  350000 750000 0  400000 750000 0  450000 750000 0  500000 750000 0  550000 750000 0  600000 750000 0  650000 750000 0  700000 750000 0  750000 750000 0  800000 750000 0  850000 750000 0  900000 750000 0  950000 750000 0  1000000 750000 0  0 800000 0  50000 800000 0  100000 800000 0  150000 800000 0  200000 800000 0  250000 800000 0  300000 800000 0  350000 800000 0  400000 800000 0  450000 800000 0  500000 800000 0  550000 800000 0  600000 800000 0  650000 800000 0  700000 800000 0  750000 800000 0  800000 800000 0  850000 800000 0  900000 800000 0  950000 800000 0  1000000 800000 0  0 850000 0  50000 850000 0  100000 850000 0  150000 850000 0  200000 850000 0  250000 850000 0  300000 850000 0  350000 850000 0  400000 850000 0  450000 850000 0  500000 850000 0  550000 850000 0  600000 850000 0  650000 850000 0  700000 850000 0  750000 850000 0  800000 850000 0  850000 850000 0  900000 850000 0  950000 850000 0  1000000 850000 0  0 900000 0  50000 900000 0  100000 900000 0  150000 900000 0  200000 900000 0  250000 900000 0  300000 900000 0  350000 900000 0  400000 900000 0  450000 900000 0  500000 900000 0  550000 900000 0  600000 900000 0  650000 900000 0  700000 900000 0  750000 900000 0  800000 900000 0  850000 900000 0  900000 900000 0  950000 900000 0  1000000 900000 0  0 950000 0  50000 950000 0  100000 950000 0  150000 950000 0  200000 950000 0  250000 950000 0  300000 950000 0  350000 950000 0  400000 950000 0  450000 950000 0  500000 950000 0  550000 950000 0  600000 950000 0  650000 950000 0  700000 950000 0  750000 950000 0  800000 950000 0  850000 950000 0  900000 950000 0  950000 950000 0  1000000 950000 0  0 1000000 0  50000 1000000 0  100000 1000000 0  150000 1000000 0  200000 1000000 0  250000 1000000 0  300000 1000000 0  350000 1000000 0  400000 1000000 0  450000 1000000 0  500000 1000000 0  550000 1000000 0  600000 1000000 0  650000 1000000 0  700000 1000000 0  750000 1000000 0  800000 1000000 0  850000 1000000 0  900000 1000000 0  950000 1000000 0  1000000 1000000 0  0 1050000 0  50000 1050000 0  100000 1050000 0  150000 1050000 0  200000 1050000 0  250000 1050000 0  300000 1050000 0  350000 1050000 0  400000 1050000 0  450000 1050000 0  500000 1050000 0  550000 1050000 0  600000 1050000 0  650000 1050000 0  700000 1050000 0  750000 1050000 0  800000 1050000 0  850000 1050000 0  900000 1050000 0  950000 1050000 0  1000000 1050000 0  0 1100000 0  50000 1100000 0  100000 1100000 0  150000 1100000 0  200000 1100000 0  250000 1100000 0  300000 1100000 0  350000 1100000 0  400000 1100000 0  450000 1100000 0  500000 1100000 0  550000 1100000 0  600000 1100000 0  650000 1100000 0  700000 1100000 0  750000 1100000 0  800000 1100000 0  850000 1100000 0  900000 1100000 0  950000 1100000 0  1000000 1100000 0  0 1150000 0  50000 1150000 0  100000 1150000 0  150000 1150000 0  200000 1150000 0  250000 1150000 0  300000 1150000 0  350000 1150000 0  400000 1150000 0  450000 1150000 0  500000 1150000 0  550000 1150000 0  600000 1150000 0  650000 1150000 0  700000 1150000 0  750000 1150000 0  800000 1150000 0  850000 1150000 0  900000 1150000 0  950000 1150000 0  1000000 1150000 0  0 1200000 0  50000 1200000 0  100000 1200000 0  150000 1200000 0  200000 1200000 0  250000 1200000 0  300000 1200000 0  350000 1200000 0  400000 1200000 0  450000 1200000 0  500000 1200000 0  550000 1200000 0  600000 1200000 0  650000 1200000 0  700000 1200000 0  750000 1200000 0  800000 1200000 0  850000 1200000 0  900000 1200000 0  950000 1200000 0  1000000 1200000 0  0 1250000 0  50000 1250000 0  100000 1250000 0  150000 1250000 0  200000 1250000 0  250000 1250000 0  300000 1250000 0  350000 1250000 0  400000 1250000 0  450000 1250000 0  500000 1250000 0  550000 1250000 0  600000 1250000 0  650000 1250000 0  700000 1250000 0  750000 1250000 0  800000 1250000 0  850000 1250000 0  900000 1250000 0  950000 1250000 0  1000000 1250000 0  0 1300000 0  50000 1300000 0  100000 1300000 0  150000 1300000 0  200000 1300000 0  250000 1300000 0  300000 1300000 0  350000 1300000 0  400000 1300000 0  450000 1300000 0  500000 1300000 0  550000 1300000 0  600000 1300000 0  650000 1300000 0  700000 1300000 0  750000 1300000 0  800000 1300000 0  850000 1300000 0  900000 1300000 0  950000 1300000 0  1000000 1300000 0  0 1350000 0  50000 1350000 0  100000 1350000 0  150000 1350000 0  200000 1350000 0  250000 1350000 0  300000 1350000 0  350000 1350000 0  400000 1350000 0  450000 1350000 0  500000 1350000 0  550000 1350000 0  600000 1350000 0  650000 1350000 0  700000 135
[...]
<PointData  Scalars="f_7495"> 
<DataArray  type="Float64"  Name="f_7495"  format="ascii">-4.9096480805015270e+00  -4.4518030692902393e+00  -3.9441010909953711e+00  -3.4024903214149638e+00  -2.8436911078283003e+00  -2.2729085205121007e+00  -1.6929561964197228e+00  -1.1059801147587693e+00  -5.1391180788117241e-01  8.1375023137797028e-02  6.7800256269663539e-01  1.2740599197227511e+00  1.8675801552640838e+00  2.4565028925990307e+00  3.0385959282639594e+00  3.6112886234476167e+00  4.1713211445235414e+00  4.7139664996397315e+00  5.2307634170209418e+00  5.7001007862651774e+00  6.0047115384831065e+00  -4.6193335291716329e+00  -4.4107002268357753e+00  -3.9354254722877671e+00  -3.4011286842591515e+00  -2.8441520830250506e+00  -2.2738138283460247e+00  -1.6938780671031828e+00  -1.1067432942104030e+00  -5.1442362845706824e-01  8.1176086467221548e-02  6.7816679664392099e-01  1.2746377820967012e+00  1.8686332921250439e+00  2.4581185326918136e+00  3.0409026286814957e+00  3.6144406866322409e+00  4.1752622690932348e+00  4.7170918328504277e+00  5.2241294133515437e+00  5.6470393997704091e+00  5.8300454196398919e+00  -4.2840906223196429e+00  -4.1821237451082354e+00  -3.8242959109874213e+00  -3.3465536311537600e+00  -2.8159756613400928e+00  -2.2587200665865437e+00  -1.6856627967275171e+00  -1.1022908053512248e+00  -5.1207555546229644e-01  8.2302609905766946e-02  6.7847139430109171e-01  1.2741475884936595e+00  1.8670006936208223e+00  2.4545009760783092e+00  3.0336428055447158e+00  3.6003224590539875e+00  4.1478196912316552e+00  4.6629801445844885e+00  5.1168820789377625e+00  5.4451993590974652e+00  5.5286215907646872e+00  -3.9632525544475614e+00  -3.9025215908389206e+00  -3.6335982522383983e+00  -3.2272099962726708e+00  -2.7423878113149667e+00  -2.2131605221915800e+00  -1.6574371732284603e+00  -1.0850923582145808e+00  -5.0221915882572166e-01  8.6867096637040300e-02  6.7866280533459111e-01  1.2699615220164817e+00  1.8575033620046002e+00  2.4376095473912236e+00  3.0056202001375438e+00  3.5548478516324966e+00  4.0745207183911107e+00  4.5458407699920231e+00  4.9353311499746342e+00  5.1876868006488923e+00  5.2356925082469568e+00  -3.6601221338229597e+00  -3.6177665343531666e+00  -3.4067652153731283e+00  -3.0627670549365211e+00  -2.6284977564836365e+00  -2.1360132105685579e+00  -1.6061425045864273e+00  -1.0520881529187986e+00  -4.8259887417669833e-01  9.6012926568427401e-02  6.7867927296055963e-01  1.2608348089266455e+00  1.8378629207183446e+00  2.4045353897435811e+00  2.9542574510705024e+00  3.4778880220905934e+00  3.9618580937178640e+00  4.3854305729127834e+00  4.7177828067078318e+00  4.9184879005609021e+00  4.9524690498931907e+00  -3.3759961296878456e+00  -3.3433089629132220e+00  -3.1703668898773731e+00  -2.8754408635171673e+00  -2.4878656481681745e+00  -2.0342152926479926e+00  -1.5348135169360193e+00  -1.0043300433286615e+00  -4.5342257991355056e-01  1.0977563248982225e-01  6.7855420154800206e-01  1.2468207662758806e+00  1.8084437831023457e+00  2.3565983883404864e+00  2.8829797576988310e+00  3.3767654118431145e+00  3.8232882153736085e+00  4.2026656304441641e+00  4.4893873711003316e+00  4.6554451568255892e+00  4.6825314261055500e+00  -3.1127113177895338e+00  -3.0858622065844576e+00  -2.9389982123315335e+00  -2.6817103628445533e+00  -2.3341525467806932e+00  -1.9173565486122555e+00  -1.4495537525733120e+00  -9.4542909492816740e-01  -4.1663640217254555e-01  1.2734004448753258e-01  6.7835360094634534e-01  1.2288762929177606e+00  1.7713574874521911e+00  2.2975910296359139e+00  2.7980274514821759e+00  3.2610108878596620e+00  3.6720335316464157e+00  4.0133469453294603e+00  4.2647157821828694e+00  4.4067683987570669e+00  4.4297319764858791e+00  -2.8722171769620770e+00  -2.8492535134373678e+00  -2.7210445224584268e+00  -2.4926817689199687e+00  -2.1783614206433684e+00  -1.7945993770989017e+00  -1.3571823958633444e+00  -8.8002272693510963e-01  -3.7505050361498188e-01  1.4741591883870450e-01  6.7813997358651967e-01  1.2084150963856028e+00  1.7295271658170075e+00  2.2322261732867834e+00  2.7062041006746909e+00  3.1396177283132523e+00  3.5187867415893357e+00  3.8283501621120744e+00  4.0523684196140088e+00  4.1771182833677836e+00  4.1972865802980621e+00  -2.6562917088486744e+00  -2.6360855702154864e+00  -2.5216868737479654e+00  -2.3157532184325098e+00  -2.0286573789994531e+00  -1.6735340975563435e+00  -1.2639398822656718e+00  -8.1272422008815648e-01  -3.3164683844355042e-01  1.6856810625481852e-01  6.7795760285158591e-01  1.1869539491684975e+00  1.6859925942622940e+00  2.1651274620026206e+00  2.6136873179474254e+00  3.0200355659841649e+00  3.3715517233537651e+00  3.6550266931848250e+00  3.8577384741538210e+00  3.9696047249284439e+00  3.9877421887078586e+00  -2.4664409575928974e+00  -2.4482722893637465e+00  -2.3443297801001544e+00  -2.1559051000292944e+00  -1.8909027543480319e+00  -1.5600211869472449e+00  -1.1749854257248253e+00  -7.4757495666384599e-01  -2.8915688081435603e-01  1.8943842265534161e-01  6.7783089894251525e-01  1.1658924121286736e+00  1.6435039759100583e+00  2.1003181157716559e+00  2.5255748518375025e+00  2.9080350562593797e+00  3.2361210321830676e+00  3.4983800926928081e+00  3.6844079654183570e+00  3.7864792765237492e+00  3.8030905697898651e+00  -2.3038816795948098e+00  -2.2872513805547583e+00  -2.1912991867146911e+00  -2.0165303631991049e+00  -1.7692401375216824e+00  -1.4584053528511085e+00  -1.0943305626746644e+00  -6.8785056549640433e-01  -2.4986792563942095e-01  2.0886131228142535e-01  6.7776840548720252e-01  1.1464075226999975e+00  1.6043442272627648e+00  2.0410470873294408e+00  2.4458316370511795e+00  2.8079113561434195e+00  3.1166176214238677e+00  3.3618531087990684e+00  3.5348491778128284e+00  3.6294203259543831e+00  3.6448740664004449e+00  -2.1695582983244615e+00  -2.1540947017591749e+00  -2.0642101603031056e+00  -1.8999523324902361e+00  -1.6665616960931064e+00  -1.3718166817651032e+00  -1.0249631707839779e+00  -6.3606513618848637e-01  -2.1557852153375534e-01  2.2590259044840488e-01  6.7776795245486143e-01  1.1294258282200229e+00  1.5702955701498824e+00  1.9898019171776911e+00  2.3774140287257093e+00  2.7227719960998127e+00  3.0159411488373840e+00  3.2478281735673229e+00  3.4107996123774083e+00  3.4996809630681982e+00  3.5142686918141308e+00  -2.0641732284890568e+00  -2.0495810469475697e+00  -1.9641791402342419e+00  -1.8077519475093244e+00  -1.5848546838174817e+00  -1.3024506261010844e+00  -9.6902837983257706e-01  -5.9406337330114356e-01  -1.8763253710384087e-01  2.3985334676969677e-01  6.7782099046818411e-01  1.1156377818174943e+00  1.5426803359022812e+00  1.9484038973457256e+00  2.3224475294609852e+00  2.6548070115507016e+00  2.9361009342577411e+00  3.1579474340309766e+00  3.3134804763101089e+00  3.3981831616777409e+00  3.4121509340443676e+00  -1.9882203103287215e+00  -1.9742508113257244e+00  -1.8919566732403625e+00  -1.7409792707787046e+00  -1.5254463811188490e+00  -1.2517941844992977e+00  -9.2800341906841277e-01  -5.6313610288883975e-01  -1.6698355522993566e-01  2.5020371100587713e-01  6.7791561026008329e-01  1.1055294472632193e+00  1.5224290267348044e+00  1.9181241327698864e+00  2.2823982753082896e+00  2.6055085619541010e+00  2.8784540055854921e+00  3.0933214116712442e+00  3.2437343221199249e+00  3.3255856609939412e+00  3.3391525501543931e+00  -1.9420153163620453e+00  -1.9284478781804206e+00  -1.8480140341692266e+00  -1.7002913154849342e+00  -1.4891723775547334e+00  -1.2207939403224322e+00  -9.0284064521267682e-01  -5.4412587321456607e-01  -1.5426124096860180e-01  2.5661230415619835e-01  6.7803837697660241e-01  1.0994162142175614e+00  1.5101483904468396e+00  1.8997886626076754e+00  2.2582132653453559e+00  2.5758347139226667e+00  2.8438696076403458e+00  3.0546660032666608e+00  3.2021155783304867e+00  3.2823346603429391e+00  3.2957045568633339e+00  -1.9257195619037906e+00  -1.9123495531906114e+00  -1.8325986501533560e+00  -1.6860390204255149e+00  -1.4764858314128488e+00  -1.2099703861608524e+00  -8.9407043277175802e-01  -5.3750755276282058e-01  -1.4982495345800328e-01  2.5888027088565868e-01  6.7817529248684350e-01  1.0974703140880162e+00  1.5061755384316784e+00  1.8938581377364876e+00  2.2504210177454209e+00  2.5663209711345205e+00  2.8328364163865141e+00  3.0423896053991926e+00  3.1889492351270352e+00  3.2687001381642919e+00  3.2820701468774764e+00  -1.9393539718896498e+00  -1.9259840753692570e+00  -1.8457649933568070e+00  -1.6983154182929905e+00  -1.4875190226666788e+00  -1.2194841289490046e+00  -9.0186268037169448e-01  -5.4343807763401097e-01  -1.5379780547316987e-01  2.5693437075611597e-01  6.7831220799708880e-01  1.0997382808174887e+00  1.5106118259422829e+00  1.9004764581882330e+00  2.2591912301863424e+00  2.5771445252961005e+00  2.8455229625284106e+00  3.0566419004586169e+00  3.2043646191429254e+00  3.2847984631541278e+00  3.2983659013357509e+00  -1.9828019651807089e+00  -1.9692350760202624e+00  -1.8873837371462505e+00  -1.7369708266975690e+00  -1.5221034206118282e+00  -1.2491579769804511e+00  -9.2604769033463441e-01  -5.6177354779622435e-01  -1.6607844176113065e-01  2.5082113771046766e-01  6.7843497471361769e-01  1.1061468739678226e+00  1.5233341402036289e+00  1.9194866878625265e+00  2.2843540040421018e+00  2.6081447694729873e+00  2.8817969660925455e+00  3.0973298557524012e+00  3.2483072582140862e+00  3.3306013962994649e+00  3.3445708953024527e+00  -2.0558003490706658e+00  -2.0418325767040391e+00  -1.9571298913364108e+00  -1.8015968490572760e+00  -1.5797503492840583e+00  -1.2984564265770326e+00  -9.6609694448731109e-01  -5.9205331237204795e-01  -1.8632975092858822e-01  2.4071280315620644e-01  6.7852959450553718e-01  1.1164972382040252e+00  1.5439831220775566e+00  1.9504139582748432e+00  2.3253789648062808e+00  2.6588012110747945e+00  2.9412052687912102e+00  3.1641025324830530e+00  3.3205297252079689e+00  3.4059316319212924e+00  3.4205238134627800e+00  -2.1579181068404170e+00  -2.1433303780944875e+00  -2.0544490274036962e+00  -1.8914775885936195e+00  -1.6595905638636843e+00  -1.3664214111261228e+00  -1.0210634437520114e+00  -6.3345133220398941e-01  -2.1394498517616586e-01  2.2692475675370133e-01  6.7858263251887851e-01  1.1304479945253390e+00  1.5719291065074972e+00  1.9924157211622076e+00  2.3813137557576951e+00  2.7281672667388230e+00  3.0229122810668478e+00  3.2563029174639722e+00  3.4205607452768274e+00  3.5104452867328861e+00  3.5259088832981758e+00  -2.2885234814267057e+00  -2.2730697409806471e+00  -2.1784985928390941e+00  -2.0055025238253488e+00  -1.7602670364501385e+00  -1.4515607711696801e+00  -1.0894810520774432e+00  -6.8469650235570334e-01  -2.4799364228901000e-01  2.0994306227376136e-01  6.7858217948656885e-01  1.1474892726923482e+00  1.6062185106131965e+00  2.0442011504701720e+00  2.4506811476484347e+00  2.8147559378248754e+00  3.1255907224954402e+00  3.3728809481728472e+00  3.5476497716884241e+00  3.6436019655284801e+00  3.6602322645685286e+00  -2.4467399848160869e+00  -2.4301286915499842e+00  -2.3280573804445899e+00  -2.1420295077190512e+00  -1.8797704472093102e+00  -1.5516844712856104e+00  -1.1692242668637327e+00  -7.4396753079788280e-01  -2.8715339093626779e-01  1.9045817284512934e-01  6.7851968603129931e-01  1.1669121623184748e+00  1.6455074657881739e+00  2.1039255416376670e+00  2.5313360106986482e+00  2.9163717719210549e+00  3.2472533393218237e+00  3.5122556850030575e+00  3.7006803650739011e+00  3.8046228743374781e+00  3.8227915425666148e+00  -2.6313916037340692e+00  -2.6132541399546620e+00  -2.5013878891800343e+00  -2.2986761082110325e+00  -2.0152011383799744e+00  -1.6636849810103638e+00  -1.2573367329736185e+00  -8.0877687702879941e-01  -3.2964200928845711e-01  1.6939663580534975e-01  6.7839298212227239e-01  1.1877824787190465e+00  1.6879974234174180e+00  2.1690748050620225e+00  2.6202904672395317e+00  3.0298846825301826e+00  3.3850079639732664e+00  3.6721038034062983e+00  3.8780374587217263e+00  3.9924361551892362e+00  4.0126422938224264e+00  -2.8409359953242466e+00  -2.8207676983939605e+00  -2.6960178346401920e+00  -2.4719995771382637e+00  -2.1624361566155099e+00  -1.7832671433394112e+00  -1.3498535157008382e+00  -8.7587558831291956e-01  -3.7317658084313160e-01  1.4793548858828365e-01  6.7821061138737782e-01  1.2089346661352007e+00  1.7314010885888877e+00  2.2363733119090079e+00  2.7135329808372295e+00  3.1509499620727652e+00  3.5347120056172168e+00  3.8490323538937852e+00  4.0773951074322179e+00  4.2056040984111549e+00  4.2285677619358637e+00  -3.0733813915120409e+00  -3.0504178137832301e+00  -2.9083651972090503e+00  -2.6569963603556381e+00  -2.3156829466725628e+00  -1.9046603028857860e+00  -1.4416768665082800e+00  -9.4124044466200063e-01  -4.1500690247826816e-01  1.2747429205617131e-01  6.7799698402759534e-01  1.2290105404864111e+00  1.7729869871464876e+00  2.3017796799020922e+00  2.8059043375472270e+00  3.2737071335861430e+00  3.6905031317545731e+00  4.0380609478184173e+00  4.2953487973053699e+00  4.4422127915582816e+00  4.4690619027633582e+00  -3.3261808411316842e+00  -3.2990945718517306e+00  -3.1330367861264614e+00  -2.8463150454702961e+00  -2.4669376303997175e+00  -2.0204148268692155e+00  -1.5266291727248977e+00  -1.0002478033665252e+00  -4.5209319812838089e-01  1.0952981869808859e-01  6.7779638342597903e-01  1.2465749524841609e+00  1.8097731648875344e+00  2.3606806283026267e+00  2.8911641019099701e+00  3.3905658776219316e+00  3.8442162331420979e+00  4.2317914484910739e+00  4.5267174748512522e+00  4.6996595478870891e+00  4.7323467146617082e+00  -3.5961184649192890e+00  -3.5621373155870026e+00  -3.3614322217339203e+00  -3.0290799879388701e+00  -2.6055075087439343e+00  -2.1215374371166624e+00  -1.5979068660965385e+00  -1.0481848047695910e+00  -4.8151233574434954e-01  9.5515776047351134e-02  6.7767131201344943e-01  1.2603376584055834e+00  1.8389494591507036e+00  2.4084387378927921e+00  2.9624930895604158e+00  3.4923637955425422e+00  3.9848483414575919e+00  4.4191176399104579e+00  4.7631158003470526e+00  4.9741171193270732e+00  5.0164727187968623e+00  -3.8793419232730266e+00  -3.8313362156749604e+00  -3.5789805650006969e+00  -3.1894901850180788e+00  -2.7181701334171575e+00  -2.1984972666585318e+00  -1.6492696151635542e+00  -1.0812589624172175e+00  -5.0115277703058636e-01  8.6389062957534526e-02  6.7768777963943394e-01  1.2694834883369890e+00  1.8585697437997430e+00  2.4414429431885973e+00  3.0137877582024863e+00  3.5695111071655967e+00  4.0987383962889625e+00  4.5835605812466396e+00  4.9899488372123537e+00  5.2588721758128596e+00  5.3196031394214947e+00  -4.1722710057907308e+00  -4.0888487741234920e+00  -3.7605314939638061e+00  -3.3066295596105286e+00  -2.7914691062577015e+00  -2.2439718740800139e+00  -1.6772922205707168e+00  -1.0981503911042934e+00  -5.1065010864680527e-01  8.2202996480364915e-02  6.7787919067294533e-01  1.2740479750682723e+00  1.8684261404363331e+00  2.4586413903252486e+00  3.0420133817015498e+00  3.6150706515605675e+00  4.1723262463141033e+00  4.7029042161277470e+00  5.1806464959613905e+00  5.5384743300821846e+00  5.6404412072936116e+00  -4.4736948346659462e+00  -4.2906888147964573e+00  -3.8677788283776184e+00  -3.3607412478764873e+00  -2.8189116841192772e+00  -2.2580901016582597e+00  -1.6845520437074912e+00  -1.1017679477177966e+00  -5.1228270715101920e-01  8.1712802877329044e-02  6.7818378833011561e-01  1.2751744985068205e+00  1.8707742134311085e+00  2.4630938791844383e+00  3.0502286520772155e+00  3.6301644133200384e+00  4.2005026679990598e+00  4.7574792692331416e+00  5.2917760572617576e+00  5.7670508118097423e+00  5.9756841141456043e+00  -4.6483609535091555e+00  -4.3437502012912228e+00  -3.8744128320470002e+00  -3.3576159146657858e+00  -2.8149705595495766e+00  -2.2549380384736342e+00  -1.6822453432899533e+00  -1.1001523076250150e+00  -5.1122957029005678e-01  8.2290665251283646e-02  6.7834802227740487e-01  1.2749755618362408e+00  1.8702623928552160e+00  2.4623306997328078e+00  3.0493067813937604e+00  3.6292591054861134e+00  4.2000416928023112e+00  4.7588409063889632e+00  5.3004516759693550e+00  5.8081536542642196e+00  6.2659986654755020e+00  </DataArray> 
</PointData> 
</Piece>
</UnstructuredGrid>
</VTKFile>