<?xml version="1.0"?>
<VTKFile type="UnstructuredGrid"  version="0.1"  >
<UnstructuredGrid>
<Piece  NumberOfPoints="651" NumberOfCells="1200">
<Points>
<DataArray  type="Float64"  NumberOfComponents="3"  format="ascii">0 0 0  50000 0 0  100000 0 0  150000 0 0  200000 0 0  250000 0 0  300000 0 0  350000 0 0  400000 0 0  450000 0 0  500000 0 0  550000 0 0  600000 0 0  650000 0 0  700000 0 0  750000 0 0  800000 0 0  850000 0 0  900000 0 0  950000 0 0  1000000 0 0  0 50000 0  50000 50000 0  100000 50000 0  150000 50000 0  200000 50000 0  250000 50000 0  300000 50000 0  350000 50000 0  400000 50000 0  450000 50000 0  500000 50000 0  550000 50000 0  600000 50000 0  650000 50000 0  700000 50000 0  750000 50000 0  800000 50000 0  850000 50000 0  900000 50000 0  950000 50000 0  1000000 50000 0  0 100000 0  50000 100000 0  100000 100000 0  150000 100000 0  200000 100000 0  250000 100000 0  300000 100000 0  350000 100000 0  400000 100000 0  450000 100000 0  500000 100000 0  550000 100000 0  600000 100000 0  650000 100000 0  700000 100000 0  750000 100000 0  800000 100000 0  850000 100000 0  900000 100000 0  950000 100000 0  1000000 100000 0  0 150000 0  50000 150000 0  100000 150000 0  150000 150000 0  200000 150000 0  250000 150000 0  300000 150000 0  350000 150000 0  400000 150000 0  450000 150000 0  500000 150000 0  550000 150000 0  600000 150000 0  650000 150000 0  700000 150000 0  750000 150000 0  800000 150000 0  850000 150000 0  900000 150000 0  950000 150000 0  1000000 150000 0  0 200000 0  50000 200000 0  100000 200000 0  150000 200000 0  200000 200000 0  250000 200000 0  300000 200000 0  350000 200000 0  400000 200000 0  450000 200000 0  500000 200000 0  550000 200000 0  600000 200000 0  650000 200000 0  700000 200000 0  750000 200000 0  800000 200000 0  850000 200000 0  900000 200000 0  950000 200000 0  1000000 200000 0  0 250000 0  50000 250000 0  100000 250000 0  150000 250000 0  200000 250000 0  250000 250000 0  300000 250000 0  350000 250000 0  400000 250000 0  450000 250000 0  500000 250000 0  550000 250000 0  600000 250000 0  650000 250000 0  700000 250000 0  750000 250000 0  800000 250000 0  850000 250000 0  900000 250000 0  950000 250000 0  1000000 250000 0  0 300000 0  50000 300000 0  100000 300000 0  150000 300000 0  200000 300000 0  250000 300000 0  300000 300000 0  350000 300000 0  400000 300000 0  450000 300000 0  500000 300000 0  550000 300000 0  600000 300000 0  650000 300000 0  700000 300000 0  750000 300000 0  800000 300000 0  850000 300000 0  900000 300000 0  950000 300000 0  1000000 300000 0  0 350000 0  50000 350000 0  100000 350000 0  150000 350000 0  200000 350000 0  250000 350000 0  300000 350000 0  350000 350000 0  400000 350000 0  450000 350000 0  500000 350000 0  550000 350000 0  600000 350000 0  650000 350000 0  700000 350000 0  750000 350000 0  800000 350000 0  850000 350000 0  900000 350000 0  950000 350000 0  1000000 350000 0  0 400000 0  50000 400000 0  100000 400000 0  150000 400000 0  200000 400000 0  250000 400000 0  300000 400000 0  350000 400000 0  400000 400000 0  450000 400000 0  500000 400000 0  550000 400000 0  600000 400000 0  650000 400000 0  700000 400000 0  750000 400000 0  800000 400000 0  850000 400000 0  900000 400000 0  950000 400000 0  1000000 400000 0  0 450000 0  50000 450000 0  100000 450000 0  150000 450000 0  200000 450000 0  250000 450000 0  300000 450000 0  350000 450000 0  400000 450000 0  450000 450000 0  500000 450000 0  550000 450000 0  600000 450000 0  650000 450000 0  700000 450000 0  750000 450000 0  800000 450000 0  850000 450000 0  900000 450000 0  950000 450000 0  1000000 450000 0  0 500000 0  50000 500000 0  100000 500000 0  150000 500000 0  200000 500000 0  250000 500000 0  300000 500000 0  350000 500000 0  400000 500000 0  450000 500000 0  500000 500000 0  550000 500000 0  600000 500000 0  650000 500000 0  700000 500000 0  750000 500000 0  800000 500000 0  850000 500000 0  900000 500000 0  950000 500000 0  1000000 500000 0  0 550000 0  50000 550000 0  100000 550000 0  150000 550000 0  200000 550000 0  250000 550000 0  300000 550000 0  350000 550000 0  400000 550000 0  450000 550000 0  500000 550000 0  550000 550000 0  600000 550000 0  650000 550000 0  700000 550000 0  750000 550000 0  800000 550000 0  850000 550000 0  900000 550000 0  950000 550000 0  1000000 550000 0  0 600000 0  50000 600000 0  100000 600000 0  150000 600000 0  200000 600000 0  250000 600000 0  300000 600000 0  350000 600000 0  400000 600000 0  450000 600000 0  500000 600000 0  550000 600000 0  600000 600000 0  650000 600000 0  700000 600000 0  750000 600000 0  800000 600000 0  850000 600000 0  900000 600000 0  950000 600000 0  1000000 600000 0  0 650000 0  50000 650000 0  100000 650000 0  150000 650000 0  200000 650000 0  250000 650000 0  300000 650000 0  350000 650000 0  400000 650000 0  450000 650000 0  500000 650000 0  550000 650000 0  600000 650000 0  650000 650000 0  700000 650000 0  750000 650000 0  800000 650000 0  850000 650000 0  900000 650000 0  950000 650000 0  1000000 650000 0  0 700000 0  50000 700000 0  100000 700000 0  150000 700000 0  200000 700000 0  250000 700000 0  300000 700000 0  350000 700000 0  400000 700000 0  450000 700000 0  500000 700000 0  550000 700000 0  600000 700000 0  650000 700000 0  700000 700000 0  750000 700000 0  800000 700000 0  850000 700000 0  900000 700000 0  950000 700000 0  1000000 700000 0  0 750000 0  50000 750000 0  100000 750000 0  150000 750000 0  200000 750000 0  250000 750000 0  300000 750000 0  350000 750000 0  400000 750000 0  450000 750000 0  500000 750000 0  550000 750000 0  600000 750000 0  650000 750000 0  700000 750000 0  750000 750000 0  800000 750000 0  850000 750000 0  900000 750000 0  950000 750000 0  1000000 750000 0  0 800000 0  50000 800000 0  100000 800000 0  150000 800000 0  200000 800000 0  250000 800000 0  300000 800000 0  350000 800000 0  400000 800000 0  450000 800000 0  500000 800000 0  550000 800000 0  600000 800000 0  650000 800000 0  700000 800000 0  750000 800000 0  800000 800000 0  850000 800000 0  900000 800000 0  950000 800000 0  1000000 800000 0  0 850000 0  50000 850000 0  100000 850000 0  150000 850000 0  200000 850000 0  250000 850000 0  300000 850000 0  350000 850000 0  400000 850000 0  450000 850000 0  500000 850000 0  550000 850000 0  600000 850000 0  650000 850000 0  700000 850000 0  750000 850000 0  800000 850000 0  850000 850000 0  900000 850000 0  950000 850000 0  1000000 850000 0  0 900000 0  50000 900000 0  100000 900000 0  150000 900000 0  200000 900000 0  250000 900000 0  300000 900000 0  350000 900000 0  400000 900000 0  450000 900000 0  500000 900000 0  550000 900000 0  600000 900000 0  650000 900000 0  700000 900000 0  750000 900000 0  800000 900000 0  850000 900000 0  900000 900000 0  950000 900000 0  1000000 900000 0  0 950000 0  50000 950000 0  100000 950000 0  150000 950000 0  200000 950000 0  250000 950000 0  300000 950000 0  350000 950000 0  400000 950000 0  450000 950000 0  500000 950000 0  550000 950000 0  600000 950000 0  650000 950000 0  700000 950000 0  750000 950000 0  800000 950000 0  850000 950000 0  900000 950000 0  950000 950000 0  1000000 950000 0  0 1000000 0  50000 1000000 0  100000 1000000 0  150000 1000000 0  200000 1000000 0  250000 1000000 0  300000 1000000 0  350000 1000000 0  400000 1000000 0  450000 1000000 0  500000 1000000 0  550000 1000000 0  600000 1000000 0  650000 1000000 0  700000 1000000 0  750000 1000000 0  800000 1000000 0  850000 1000000 0  900000 1000000 0  950000 1000000 0  1000000 1000000 0  0 1050000 0  50000 1050000 0  100000 1050000 0  150000 1050000 0  200000 1050000 0  250000 1050000 0  300000 1050000 0  350000 1050000 0  400000 1050000 0  450000 1050000 0  500000 1050000 0  550000 1050000 0  600000 1050000 0  650000 1050000 0  700000 1050000 0  750000 1050000 0  800000 1050000 0  850000 1050000 0  900000 1050000 0  950000 1050000 0  1000000 1050000 0  0 1100000 0  50000 1100000 0  100000 1100000 0  150000 1100000 0  200000 1100000 0  250000 1100000 0  300000 1100000 0  350000 1100000 0  400000 1100000 0  450000 1100000 0  500000 1100000 0  550000 1100000 0  600000 1100000 0  650000 1100000 0  700000 1100000 0  750000 1100000 0  800000 1100000 0  850000 1100000 0  900000 1100000 0  950000 1100000 0  1000000 1100000 0  0 1150000 0  50000 1150000 0  100000 1150000 0  150000 1150000 0  200000 1150000 0  250000 1150000 0  300000 1150000 0  350000 1150000 0  400000 1150000 0  450000 1150000 0  500000 1150000 0  550000 1150000 0  600000 1150000 0  650000 1150000 0  700000 1150000 0  750000 1150000 0  800000 1150000 0  850000 1150000 0  900000 1150000 0  950000 1150000 0  1000000 1150000 0  0 1200000 0  50000 1200000 0  100000 1200000 0  150000 1200000 0  200000 1200000 0  250000 1200000 0  300000 1200000 0  350000 1200000 0  400000 1200000 0  450000 1200000 0  500000 1200000 0  550000 1200000 0  600000 1200000 0  650000 1200000 0  700000 1200000 0  750000 1200000 0  800000 1200000 0  850000 1200000 0  900000 1200000 0  950000 1200000 0  1000000 1200000 0  0 1250000 0  50000 1250000 0  100000 1250000 0  150000 1250000 0  200000 1250000 0  250000 1250000 0  300000 1250000 0  350000 1250000 0  400000 1250000 0  450000 1250000 0  500000 1250000 0  550000 1250000 0  600000 1250000 0  650000 1250000 0  700000 1250000 0  750000 1250000 0  800000 1250000 0  850000 1250000 0  900000 1250000 0  950000 1250000 0  1000000 1250000 0  0 1300000 0  50000 1300000 0  100000 1300000 0  150000 1300000 0  200000 1300000 0  250000 1300000 0  300000 1300000 0  350000 1300000 0  400000 1300000 0  450000 1300000 0  500000 1300000 0  550000 1300000 0  600000 1300000 0  650000 1300000 0  700000 1300000 0  750000 1300000 0  800000 1300000 0  850000 1300000 0  900000 1300000 0  950000 1300000 0  1000000 1300000 0  0 1350000 0  50000 1350000 0  100000 1350000 0  150000 1350000 0  200000 1350000 0  250000 1350000 0  300000 1350000 0  350000 1350000 0  400000 1350000 0  450000 1350000 0  500000 1350000 0  550000 1350000 0  600000 1350000 0  650000 1350000 0  700000 135
[...]
<PointData  Scalars="f_7495"> 
<DataArray  type="Float64"  Name="f_7495"  format="ascii">-6.0735657319321286e+00  -5.5174109763427603e+00  -4.9004881342126998e+00  -4.2422822971335767e+00  -3.5631485051016516e+00  -2.8694247669074411e+00  -2.1645380555765827e+00  -1.4511017665236094e+00  -7.3146755587404766e-01  -7.9162125751645798e-03  7.1726674753545094e-01  1.4417556621967567e+00  2.1631565898377212e+00  2.8789615867328986e+00  3.5864529507884022e+00  4.2824997055232892e+00  4.9631288490268721e+00  5.6225737942055867e+00  6.2505051842787660e+00  6.8205781647075536e+00  7.1903573491245396e+00  -5.7210347201741554e+00  -5.4677382089091431e+00  -4.8901335577285590e+00  -4.2407618441692279e+00  -3.5638090320918057e+00  -2.8706035351815991e+00  -2.1657218939170684e+00  -1.4520813116770781e+00  -7.3213217990686885e-01  -8.1922210284579976e-03  7.1743996693410428e-01  1.4424393808845188e+00  2.1644261617862210e+00  2.8809241606359612e+00  3.5892671415210402e+00  4.2863578522110179e+00  4.9679723882085405e+00  5.6264724710999738e+00  6.2426283180194790e+00  6.7564125167002835e+00  6.9783742719737445e+00  -5.3139724568142279e+00  -5.1902607036084110e+00  -4.7554084620319736e+00  -4.1747206415754379e+00  -3.5297961465857273e+00  -2.8524427898798481e+00  -2.1558810178734120e+00  -1.4467796703024929e+00  -7.2935834153303647e-01  -6.8756817642428077e-03  7.1778363951023727e-01  1.4418429722626467e+00  2.1624680409574224e+00  2.8765823177604313e+00  3.5805307025497211e+00  4.2693229059427988e+00  4.9347865028020692e+00  5.5609226511378580e+00  6.1125515580772518e+00  6.5114271526751537e+00  6.6124477604502960e+00  -4.9244032608022144e+00  -4.8507655160370469e+00  -4.5239698414875402e+00  -4.0299935136864082e+00  -3.4406432182010036e+00  -2.7973093964025386e+00  -2.1217688602798197e+00  -1.4260257222282906e+00  -7.1748615351285361e-01  -1.3954377307908888e-03  7.1798751325185073e-01  1.4367647137799968e+00  2.1509730153599564e+00  2.8561398927406589e+00  3.5465998747107443e+00  4.2142218317397324e+00  4.8459071875595265e+00  5.4187944141970599e+00  5.8921657165130927e+00  6.1987518069278469e+00  6.2568265829992225e+00  -4.5563337137861852e+00  -4.5049937572651064e+00  -4.2485891092247314e+00  -3.8304371150987597e+00  -3.3025086713809357e+00  -2.7037975639892564e+00  -2.0596364381483050e+00  -1.3860787624908875e+00  -6.9376058344758451e-01  9.6446899330503901e-03  7.1797656136056109e-01  1.4256854126336986e+00  2.1271590880085109e+00  2.8160415788080635e+00  3.4843149421733850e+00  4.1208643201075503e+00  4.7091889422927444e+00  5.2240682761101631e+00  5.6280122349312176e+00  5.8718491240496578e+00  5.9129452810856007e+00  -4.2113343481314987e+00  -4.1717174582617353e+00  -3.9615577626665885e+00  -3.6030420390214282e+00  -3.1318521041824545e+00  -2.5803148873097013e+00  -1.9731510209659529e+00  -1.3282007650439518e+00  -6.5842308329069132e-01  2.6293836557426464e-02  7.1779222648151786e-01  1.4086657789786752e+00  2.0914603602040449e+00  2.7578784725232572e+00  3.3978224671440396e+00  3.9981322028813286e+00  4.5409704835821136e+00  5.0021548967259211e+00  5.3506556379085328e+00  5.5524059543347217e+00  5.5851657427911681e+00  -3.8916344044086424e+00  -3.8590915142185427e+00  -3.6806133538578196e+00  -3.3678349114740982e+00  -2.9452705258559884e+00  -2.4385062791522758e+00  -1.8697194093955631e+00  -1.2567705079151030e+00  -6.1383145644589943e-01  4.7565590945954347e-02  7.1751573426585402e-01  1.3868665650148624e+00  2.0464380058708858e+00  2.6862524816487525e+00  3.2946982106097749e+00  3.8576007462921074e+00  4.3573156017490158e+00  4.7722547479036708e+00  5.0778032601688805e+00  5.2503987504881922e+00  5.2781779775820761e+00  -3.5996019097669745e+00  -3.5717647203716041e+00  -3.4159464783790376e+00  -3.1383141692345031e+00  -2.7561355699993322e+00  -2.2895041300306120e+00  -1.7576246066467025e+00  -1.1774191238527780e+00  -5.6339690096961770e-01  7.1894492054036460e-02  7.1722388337666987e-01  1.3620049601528474e+00  1.9956421733860825e+00  2.6068879104079397e+00  3.1832071694529871e+00  3.7101967607766455e+00  4.1712175744253743e+00  4.5475843112006764e+00  4.8199061816929412e+00  4.9714903793733054e+00  4.9958945008628541e+00  -3.3373975645031022e+00  -3.3128989427959086e+00  -3.1738536658724117e+00  -2.9234720146593620e+00  -2.5743715490481809e+00  -2.1425332260723593e+00  -1.6444497362866661e+00  -1.0957515568702734e+00  -5.1074172476198287e-01  9.7537653863690371e-02  7.1697105653982385e-01  1.3359241327316258e+00  1.9427663704961429e+00  2.5254028968494966e+00  3.0708561719316134e+00  3.5649734134758022e+00  3.9924035873616766e+00  4.3370778135004056e+00  4.5835181982524098e+00  4.7194597679368719e+00  4.7414129953921762e+00  -3.1068521796838890e+00  -3.0848199254122619e+00  -2.9584727387704519e+00  -2.7293623968141238e+00  -2.4071046441115334e+00  -2.0047172104345208e+00  -1.5364655518390884e+00  -1.0166794373751198e+00  -4.5918524263092503e-01  1.2284483779475233e-01  7.1678721561507697e-01  1.3103251425705782e+00  1.8911530346140635e+00  2.4466870604075481e+00  2.9638409380347719e+00  3.4289444653739101e+00  3.8279140961870550e+00  4.1468165537555599e+00  4.3729925123083451e+00  4.4970432882522857e+00  4.5171556788086713e+00  -2.9094453468644876e+00  -2.8892752959803030e+00  -2.7726310465486610e+00  -2.5601100553231131e+00  -2.2593710831384697e+00  -1.8813379562775197e+00  -1.4385486932095601e+00  -9.4418458721693532e-01  -4.1150771190044899e-01  1.4639937743530260e-01  7.1668282338145073e-01  1.2866387216942330e+00  1.8435770751380618e+00  2.3746895638749028e+00  2.8669809916113498e+00  3.3073308997097088e+00  3.6827607444194070e+00  3.9809852190881623e+00  4.1913340489896109e+00  4.3062811231807876e+00  4.3249982515050567e+00  -2.7463258617172026e+00  -2.7275684112296443e+00  -2.6182922146755980e+00  -2.4185397851735839e+00  -2.1346873476524322e+00  -1.7762011984071695e+00  -1.3543319085036434e+00  -8.8132362364121763e-01  -3.6989574901580075e-01  1.6706551660806260e-01  7.1665516642004989e-01  1.2659911596954494e+00  1.8022049904518038e+00  2.3124343546642954e+00  2.7838702392357404e+00  3.2039104311507436e+00  3.5604685294687544e+00  3.8424799781729488e+00  4.0406549529165066e+00  4.1486967635677434e+00  4.1663709995148004e+00  -2.6183484422239931e+00  -2.6006466164935573e+00  -2.4968139686475652e+00  -2.3065740799148506e+00  -2.0354699951604958e+00  -1.6919766384305155e+00  -1.2864236670578653e+00  -8.3033967351219229e-01  -3.3598348262589389e-01  1.8398116282468313e-01  7.1669367416253082e-01  1.2492217381453272e+00  1.7686443045676266e+00  2.2621356108306521e+00  2.7170927484980600e+00  3.1213456167463458e+00  3.4634803110606756e+00  3.7332972923600503e+00  3.9224399608468152e+00  4.0254113112003225e+00  4.0423399909754449e+00  -2.5261142577856526e+00  -2.5091675328352725e+00  -2.4091093334207123e+00  -2.2254901198120578e+00  -1.9633332902841358e+00  -1.6304727449835266e+00  -1.2366205309233498e+00  -7.9280260259513169e-01  -3.1093067431653354e-01  1.9652610265363013e-01  7.1678362680215268e-01  1.2369212370037794e+00  1.7440262062354390e+00  2.2253386853407489e+00  2.6684310458020692e+00  3.0614506631946981e+00  3.3934460244736542e+00  3.6547874058715704e+00  3.8377135541872787e+00  3.9372258619154628e+00  3.9536736459361617e+00  -2.4700079252528950e+00  -2.4535498550033426e+00  -2.3557518128325063e+00  -2.1760872212540456e+00  -1.9192936869044752e+00  -1.5928409337674365e+00  -1.2060809201773592e+00  -7.6973727976251860e-01  -2.9550330268484198e-01  2.0428493148775073e-01  7.1690841105447156e-01  1.2294729024634945e+00  1.7290882464363797e+00  2.2030478103872855e+00  2.6390364839519433e+00  3.0253904214406622e+00  3.3514225550767409e+00  3.6078207757763954e+00  3.7871498956824672e+00  3.8846830366936280e+00  3.9008961738552816e+00  -2.4502261452913756e+00  -2.4340096561230093e+00  -2.3370426803460029e+00  -2.1587924956912987e+00  -1.9039025887241445e+00  -1.5797144875914868e+00  -1.1954501300762341e+00  -7.6172149366161856e-01  -2.9013868099430551e-01  2.0701552606324389e-01  7.1705070741177046e-01  1.2270858887602845e+00  1.7242400958178337e+00  2.1958229084851393e+00  2.6295515448997544e+00  3.0138159024150144e+00  3.3380040035476659e+00  3.5928939105148348e+00  3.7711440951695403e+00  3.8681110709465489e+00  3.8843275601149223e+00  -2.4667947590317358e+00  -2.4505816218700858e+00  -2.3530484808589316e+00  -2.1737193609528709e+00  -1.9173211402532186e+00  -1.5912890066171479e+00  -1.2049350691284306e+00  -7.6894639556377054e-01  -2.9498683161286243e-01  2.0462851236003654e-01  7.1719300376907547e-01  1.2298164833357907e+00  1.7296047175083773e+00  2.2038386945860386e+00  2.6401823350008824e+00  3.0269423485909686e+00  3.3533951017280113e+00  3.6101886360775852e+00  3.7898532276560695e+00  3.8876512698269190e+00  3.9041093400764697e+00  -2.5195722311126096e+00  -2.5031244470919209e+00  -2.4036121393637448e+00  -2.2206859910480374e+00  -1.9593446096501344e+00  -1.6273492483711989e+00  -1.2343296309785683e+00  -7.9123727051723702e-01  -3.0992479141191587e-01  1.9718017781976321e-01  7.1731778802140611e-01  1.2375753121699260e+00  1.7450320891400826e+00  2.2269040174186752e+00  2.6707219457469002e+00  3.0645741598070790e+00  3.3974347051076901e+00  3.6595915346356116e+00  3.8432107482443056e+00  3.9432689476588929e+00  3.9602156726092623e+00  -2.6082385761518747e+00  -2.5913098963767514e+00  -2.4883385460232508e+00  -2.2991958775364787e+00  -2.0293788962371302e+00  -1.6872442019228169e+00  -1.2829913336745318e+00  -8.2803419600712036e-01  -3.3454288974407836e-01  1.8487967667823388e-01  7.1740774066105484e-01  1.2501202519989025e+00  1.7700848974494705e+00  2.2644410883357526e+00  2.7205250818814322e+00  3.1260780532540910e+00  3.4695714099840913e+00  3.7406754947384475e+00  3.9309153834711634e+00  4.0347480313171467e+00  4.0524498570475833e+00  -2.7322695846912186e+00  -2.7145953487441665e+00  -2.6065535380929261e+00  -2.4083785633493813e+00  -2.1263671146451908e+00  -1.7698090163271902e+00  -1.3497688244121826e+00  -8.7833293984073513e-01  -3.6810357562822665e-01  1.6811025512813874e-01  7.1744624840355831e-01  1.2670358982155510e+00  1.8039971638394101e+00  2.3154250384648027e+00  2.7884333233272254e+00  3.2103026132307497e+00  3.5687887624760393e+00  3.8526411999971870e+00  4.0523936294991829e+00  4.1616698260532097e+00  4.1804272765407751e+00  -2.8908968366814425e+00  -2.8721797083571774e+00  -2.7572326341660034e+00  -2.5468838042645792e+00  -2.2486593295958111e+00  -1.8732294848860982e+00  -1.4328795767877451e+00  -9.4058814905129706e-01  -4.0947566031443794e-01  1.4746269312939675e-01  7.1741859144219500e-01  1.2877020373883468e+00  1.8456091267240997e+00  2.3782860020405781e+00  2.8726501080332079e+00  3.3154393711011583e+00  3.6934724979620910e+00  3.9942114701467184e+00  4.2067324613722601e+00  4.3233767108038768e+00  4.3435467616880583e+00  -3.0830542639850087e+00  -3.0629418734286418e+00  -2.9388910974846989e+00  -2.7127151389319279e+00  -2.3938126813634240e+00  -1.9948430505502630e+00  -1.5297395232111271e+00  -1.0125856455838969e+00  -4.5705161979039666e-01  1.2377627225310527e-01  7.1731419920862116e-01  1.3112565770289495e+00  1.8932866574546270e+00  2.4507808521988292e+00  2.9705669666628061e+00  3.4388186252582180e+00  3.8412060589351995e+00  4.1634638116377536e+00  4.3925741535940643e+00  4.5189213402358499e+00  4.5409535945074566e+00  -3.3073115805685021e+00  -3.2853583531132080e+00  -3.1494167834287388e+00  -2.9029763986767327e+00  -2.5583021725380060e+00  -2.1308719986521223e+00  -1.6367547571079268e+00  -1.0913014820257878e+00  -5.0866495567241632e-01  9.8177282092112267e-02  7.1713035828392757e-01  1.3365637609600702e+00  1.9448431395857453e+00  2.5298529716940394e+00  3.0785511511104264e+00  3.5766346408960894e+00  4.0084729638718786e+00  4.3575734294830228e+00  4.6079550806960397e+00  4.7470003576195232e+00  4.7714989793267195e+00  -3.5617930860391449e+00  -3.5373889645495842e+00  -3.3858047668692284e+00  -3.1134828963769765e+00  -2.7371161596016589e+00  -2.2760953459529150e+00  -1.7491057546292426e+00  -1.1727864955841787e+00  -5.6154075856230845e-01  7.2096454670939683e-02  7.1687753144712951e-01  1.3622069227697722e+00  1.9974983157934252e+00  2.6115205386765772e+00  3.1917260214704881e+00  3.7236055448543679e+00  4.1902369848230698e+00  4.5724155840581968e+00  4.8500478932026976e+00  5.0058661351952694e+00  5.0337033245906389e+00  -3.8440765627583398e+00  -3.8162973356644576e+00  -3.6437018453451686e+00  -3.3381533330799575e+00  -2.9232141869252710e+00  -2.4234993314683355e+00  -1.8605967957859757e+00  -1.2521510668249316e+00  -6.1233659104705285e-01  4.7234849808980309e-02  7.1658568055799721e-01  1.3865358238779011e+00  2.0479328712697513e+00  2.6908719227389355e+00  3.3038208242193803e+00  3.8726076939760596e+00  4.3793719406797651e+00  4.8019363262978576e+00  5.1147147686815408e+00  5.2931929290422506e+00  5.3257358192323574e+00  -4.1510643279674007e+00  -4.1183045395109668e+00  -3.9165542230847632e+00  -3.5680534819021537e+00  -3.1068690687583222e+00  -2.5640307880575315e+00  -1.9637210523201960e+00  -1.3237770576993779e+00  -6.5735894538016082e-01  2.5435635845211690e-02  7.1630918834238211e-01  1.4078075782664770e+00  2.0925244981145927e+00  2.7623021798678349e+00  3.4072524357898142e+00  4.0144163021335482e+00  4.5659535190062819e+00  5.0371434538452426e+00  5.3956591774903622e+00  5.6058188730855010e+00  5.6454357629552616e+00  -4.4788438662617907e+00  -4.4377477092258522e+00  -4.1939108201073951e+00  -3.7899668612863433e+00  -3.2750875274689086e+00  -2.6867629052837181e+00  -2.0502135273495066e+00  -1.3819401639841495e+00  -6.9305767318459222e-01  8.4160021902226333e-03  7.1612485346337273e-01  1.4244567248908855e+00  2.1278619982715132e+00  2.8201801773148021e+00  3.4937378529722087e+00  4.1378989788131602e+00  4.7366100862048057e+00  5.2645385299226071e+00  5.6826905240485708e+00  5.9390951720889262e+00  5.9904351286099979e+00  -4.8227251681753778e+00  -4.7646503921039960e+00  -4.4580643016892409e+00  -3.9846929993732019e+00  -3.4118057727356614e+00  -2.7801204169158580e+00  -2.1124984598868326e+00  -1.4220384779167252e+00  -7.1687160053601406e-01  -2.6632989560526894e-03  7.1611390157210275e-01  1.4354968525547493e+00  2.1515875683367995e+00  2.8601271370522316e+00  3.5558702751037727e+00  4.2314108112264863e+00  4.8747446330249264e+00  5.4640949285102982e+00  5.9580712563114213e+00  6.2848669308609111e+00  6.3585046756260715e+00  -5.1783463456264220e+00  -5.0773257378512566e+00  -4.6784501432533787e+00  -4.1268212363139858e+00  -3.5006850879782054e+00  -2.8352214911189120e+00  -2.1464292877258013e+00  -1.4424809029364865e+00  -7.2836662613347880e-01  -7.7415574386931734e-03  7.1631777531372998e-01  1.4409770965882125e+00  2.1634597563570015e+00  2.8808810851264433e+00  3.5899824326973713e+00  4.2865442047038025e+00  4.9638975614096665e+00  5.6088220563993527e+00  6.1895098768558681e+00  6.6243621184322858e+00  6.7480738716381330e+00  -5.5442728571498874e+00  -5.3223111018764220e+00  -4.8085269031956548e+00  -4.1923710562761292e+00  -3.5338709733846727e+00  -2.8522564373871222e+00  -2.1551657266971147e+00  -1.4468227458120160e+00  -7.3032474696226768e-01  -8.3379660605579862e-03  7.1666144788986286e-01  1.4422936358524323e+00  2.1662335947308398e+00  2.8861827265010453e+00  3.5998233087410298e+00  4.3047049500055383e+00  4.9979104469157472e+00  5.6748632589931471e+00  6.3242349725524809e+00  6.9018396237330375e+00  7.1551361349980542e+00  -5.7562559343006772e+00  -5.3864767498836876e+00  -4.8164037694549213e+00  -4.1884723793817358e+00  -3.5290274342029981e+00  -2.8483982906993952e+00  -2.1523515359644740e+00  -1.4448601719089564e+00  -7.2905517501376471e-01  -7.6542473727903831e-03  7.1683466728852074e-01  1.4420176273991330e+00  2.1655689706980223e+00  2.8852031813475789e+00  3.5986394704005504e+00  4.3035261817313817e+00  4.9972499199255953e+00  5.6763837119575102e+00  6.3345895490366102e+00  6.9515123911666699e+00  7.5076671467560319e+00  </DataArray> 
</PointData> 
</Piece>
</UnstructuredGrid>
</VTKFile>