<?xml version="1.0"?>
<VTKFile type="UnstructuredGrid"  version="0.1"  >
<UnstructuredGrid>
<Piece  NumberOfPoints="651" NumberOfCells="1200">
<Points>
<DataArray  type="Float64"  NumberOfComponents="3"  format="ascii">0 0 0  50000 0 0  100000 0 0  150000 0 0  200000 0 0  250000 0 0  300000 0 0  350000 0 0  400000 0 0  450000 0 0  500000 0 0  550000 0 0  600000 0 0  650000 0 0  700000 0 0  750000 0 0  800000 0 0  850000 0 0  900000 0 0  950000 0 0  1000000 0 0  0 50000 0  50000 50000 0  100000 50000 0  150000 50000 0  200000 50000 0  250000 50000 0  300000 50000 0  350000 50000 0  400000 50000 0  450000 50000 0  500000 50000 0  550000 50000 0  600000 50000 0  650000 50000 0  700000 50000 0  750000 50000 0  800000 50000 0  850000 50000 0  900000 50000 0  950000 50000 0  1000000 50000 0  0 100000 0  50000 100000 0  100000 100000 0  150000 100000 0  200000 100000 0  250000 100000 0  300000 100000 0  350000 100000 0  400000 100000 0  450000 100000 0  500000 100000 0  550000 100000 0  600000 100000 0  650000 100000 0  700000 100000 0  750000 100000 0  800000 100000 0  850000 100000 0  900000 100000 0  950000 100000 0  1000000 100000 0  0 150000 0  50000 150000 0  100000 150000 0  150000 150000 0  200000 150000 0  250000 150000 0  300000 150000 0  350000 150000 0  400000 150000 0  450000 150000 0  500000 150000 0  550000 150000 0  600000 150000 0  650000 150000 0  700000 150000 0  750000 150000 0  800000 150000 0  850000 150000 0  900000 150000 0  950000 150000 0  1000000 150000 0  0 200000 0  50000 200000 0  100000 200000 0  150000 200000 0  200000 200000 0  250000 200000 0  300000 200000 0  350000 200000 0  400000 200000 0  450000 200000 0  500000 200000 0  550000 200000 0  600000 200000 0  650000 200000 0  700000 200000 0  750000 200000 0  800000 200000 0  850000 200000 0  900000 200000 0  950000 200000 0  1000000 200000 0  0 250000 0  50000 250000 0  100000 250000 0  150000 250000 0  200000 250000 0  250000 250000 0  300000 250000 0  350000 250000 0  400000 250000 0  450000 250000 0  500000 250000 0  550000 250000 0  600000 250000 0  650000 250000 0  700000 250000 0  750000 250000 0  800000 250000 0  850000 250000 0  900000 250000 0  950000 250000 0  1000000 250000 0  0 300000 0  50000 300000 0  100000 300000 0  150000 300000 0  200000 300000 0  250000 300000 0  300000 300000 0  350000 300000 0  400000 300000 0  450000 300000 0  500000 300000 0  550000 300000 0  600000 300000 0  650000 300000 0  700000 300000 0  750000 300000 0  800000 300000 0  850000 300000 0  900000 300000 0  950000 300000 0  1000000 300000 0  0 350000 0  50000 350000 0  100000 350000 0  150000 350000 0  200000 350000 0  250000 350000 0  300000 350000 0  350000 350000 0  400000 350000 0  450000 350000 0  500000 350000 0  550000 350000 0  600000 350000 0  650000 350000 0  700000 350000 0  750000 350000 0  800000 350000 0  850000 350000 0  900000 350000 0  950000 350000 0  1000000 350000 0  0 400000 0  50000 400000 0  100000 400000 0  150000 400000 0  200000 400000 0  250000 400000 0  300000 400000 0  350000 400000 0  400000 400000 0  450000 400000 0  500000 400000 0  550000 400000 0  600000 400000 0  650000 400000 0  700000 400000 0  750000 400000 0  800000 400000 0  850000 400000 0  900000 400000 0  950000 400000 0  1000000 400000 0  0 450000 0  50000 450000 0  100000 450000 0  150000 450000 0  200000 450000 0  250000 450000 0  300000 450000 0  350000 450000 0  400000 450000 0  450000 450000 0  500000 450000 0  550000 450000 0  600000 450000 0  650000 450000 0  700000 450000 0  750000 450000 0  800000 450000 0  850000 450000 0  900000 450000 0  950000 450000 0  1000000 450000 0  0 500000 0  50000 500000 0  100000 500000 0  150000 500000 0  200000 500000 0  250000 500000 0  300000 500000 0  350000 500000 0  400000 500000 0  450000 500000 0  500000 500000 0  550000 500000 0  600000 500000 0  650000 500000 0  700000 500000 0  750000 500000 0  800000 500000 0  850000 500000 0  900000 500000 0  950000 500000 0  1000000 500000 0  0 550000 0  50000 550000 0  100000 550000 0  150000 550000 0  200000 550000 0  250000 550000 0  300000 550000 0  350000 550000 0  400000 550000 0  450000 550000 0  500000 550000 0  550000 550000 0  600000 550000 0  650000 550000 0  700000 550000 0  750000 550000 0  800000 550000 0  850000 550000 0  900000 550000 0  950000 550000 0  1000000 550000 0  0 600000 0  50000 600000 0  100000 600000 0  150000 600000 0  200000 600000 0  250000 600000 0  300000 600000 0  350000 600000 0  400000 600000 0  450000 600000 0  500000 600000 0  550000 600000 0  600000 600000 0  650000 600000 0  700000 600000 0  750000 600000 0  800000 600000 0  850000 600000 0  900000 600000 0  950000 600000 0  1000000 600000 0  0 650000 0  50000 650000 0  100000 650000 0  150000 650000 0  200000 650000 0  250000 650000 0  300000 650000 0  350000 650000 0  400000 650000 0  450000 650000 0  500000 650000 0  550000 650000 0  600000 650000 0  650000 650000 0  700000 650000 0  750000 650000 0  800000 650000 0  850000 650000 0  900000 650000 0  950000 650000 0  1000000 650000 0  0 700000 0  50000 700000 0  100000 700000 0  150000 700000 0  200000 700000 0  250000 700000 0  300000 700000 0  350000 700000 0  400000 700000 0  450000 700000 0  500000 700000 0  550000 700000 0  600000 700000 0  650000 700000 0  700000 700000 0  750000 700000 0  800000 700000 0  850000 700000 0  900000 700000 0  950000 700000 0  1000000 700000 0  0 750000 0  50000 750000 0  100000 750000 0  150000 750000 0  200000 750000 0  250000 750000 0  300000 750000 0  350000 750000 0  400000 750000 0  450000 750000 0  500000 750000 0  550000 750000 0  600000 750000 0  650000 750000 0  700000 750000 0  750000 750000 0  800000 750000 0  850000 750000 0  900000 750000 0  950000 750000 0  1000000 750000 0  0 800000 0  50000 800000 0  100000 800000 0  150000 800000 0  200000 800000 0  250000 800000 0  300000 800000 0  350000 800000 0  400000 800000 0  450000 800000 0  500000 800000 0  550000 800000 0  600000 800000 0  650000 800000 0  700000 800000 0  750000 800000 0  800000 800000 0  850000 800000 0  900000 800000 0  950000 800000 0  1000000 800000 0  0 850000 0  50000 850000 0  100000 850000 0  150000 850000 0  200000 850000 0  250000 850000 0  300000 850000 0  350000 850000 0  400000 850000 0  450000 850000 0  500000 850000 0  550000 850000 0  600000 850000 0  650000 850000 0  700000 850000 0  750000 850000 0  800000 850000 0  850000 850000 0  900000 850000 0  950000 850000 0  1000000 850000 0  0 900000 0  50000 900000 0  100000 900000 0  150000 900000 0  200000 900000 0  250000 900000 0  300000 900000 0  350000 900000 0  400000 900000 0  450000 900000 0  500000 900000 0  550000 900000 0  600000 900000 0  650000 900000 0  700000 900000 0  750000 900000 0  800000 900000 0  850000 900000 0  900000 900000 0  950000 900000 0  1000000 900000 0  0 950000 0  50000 950000 0  100000 950000 0  150000 950000 0  200000 950000 0  250000 950000 0  300000 950000 0  350000 950000 0  400000 950000 0  450000 950000 0  500000 950000 0  550000 950000 0  600000 950000 0  650000 950000 0  700000 950000 0  750000 950000 0  800000 950000 0  850000 950000 0  900000 950000 0  950000 950000 0  1000000 950000 0  0 1000000 0  50000 1000000 0  100000 1000000 0  150000 1000000 0  200000 1000000 0  250000 1000000 0  300000 1000000 0  350000 1000000 0  400000 1000000 0  450000 1000000 0  500000 1000000 0  550000 1000000 0  600000 1000000 0  650000 1000000 0  700000 1000000 0  750000 1000000 0  800000 1000000 0  850000 1000000 0  900000 1000000 0  950000 1000000 0  1000000 1000000 0  0 1050000 0  50000 1050000 0  100000 1050000 0  150000 1050000 0  200000 1050000 0  250000 1050000 0  300000 1050000 0  350000 1050000 0  400000 1050000 0  450000 1050000 0  500000 1050000 0  550000 1050000 0  600000 1050000 0  650000 1050000 0  700000 1050000 0  750000 1050000 0  800000 1050000 0  850000 1050000 0  900000 1050000 0  950000 1050000 0  1000000 1050000 0  0 1100000 0  50000 1100000 0  100000 1100000 0  150000 1100000 0  200000 1100000 0  250000 1100000 0  300000 1100000 0  350000 1100000 0  400000 1100000 0  450000 1100000 0  500000 1100000 0  550000 1100000 0  600000 1100000 0  650000 1100000 0  700000 1100000 0  750000 1100000 0  800000 1100000 0  850000 1100000 0  900000 1100000 0  950000 1100000 0  1000000 1100000 0  0 1150000 0  50000 1150000 0  100000 1150000 0  150000 1150000 0  200000 1150000 0  250000 1150000 0  300000 1150000 0  350000 1150000 0  400000 1150000 0  450000 1150000 0  500000 1150000 0  550000 1150000 0  600000 1150000 0  650000 1150000 0  700000 1150000 0  750000 1150000 0  800000 1150000 0  850000 1150000 0  900000 1150000 0  950000 1150000 0  1000000 1150000 0  0 1200000 0  50000 1200000 0  100000 1200000 0  150000 1200000 0  200000 1200000 0  250000 1200000 0  300000 1200000 0  350000 1200000 0  400000 1200000 0  450000 1200000 0  500000 1200000 0  550000 1200000 0  600000 1200000 0  650000 1200000 0  700000 1200000 0  750000 1200000 0  800000 1200000 0  850000 1200000 0  900000 1200000 0  950000 1200000 0  1000000 1200000 0  0 1250000 0  50000 1250000 0  100000 1250000 0  150000 1250000 0  200000 1250000 0  250000 1250000 0  300000 1250000 0  350000 1250000 0  400000 1250000 0  450000 1250000 0  500000 1250000 0  550000 1250000 0  600000 1250000 0  650000 1250000 0  700000 1250000 0  750000 1250000 0  800000 1250000 0  850000 1250000 0  900000 1250000 0  950000 1250000 0  1000000 1250000 0  0 1300000 0  50000 1300000 0  100000 1300000 0  150000 1300000 0  200000 1300000 0  250000 1300000 0  300000 1300000 0  350000 1300000 0  400000 1300000 0  450000 1300000 0  500000 1300000 0  550000 1300000 0  600000 1300000 0  650000 1300000 0  700000 1300000 0  750000 1300000 0  800000 1300000 0  850000 1300000 0  900000 1300000 0  950000 1300000 0  1000000 1300000 0  0 1350000 0  50000 1350000 0  100000 1350000 0  150000 1350000 0  200000 1350000 0  250000 1350000 0  300000 1350000 0  350000 1350000 0  400000 1350000 0  450000 1350000 0  500000 1350000 0  550000 1350000 0  600000 1350000 0  650000 1350000 0  700000 135
[...]
<PointData  Scalars="f_7495"> 
<DataArray  type="Float64"  Name="f_7495"  format="ascii">-7.9027049496676103e+00  -7.1990774541778997e+00  -6.4183217709431766e+00  -5.5852235165621513e+00  -4.7255893109983971e+00  -3.8474560270648981e+00  -2.9551701228163645e+00  -2.0520457393900933e+00  -1.1410644890354593e+00  -2.2511770162030925e-01  6.9289752764613610e-01  1.6100332585966943e+00  2.5232548664929175e+00  3.4293828547114242e+00  4.3249710777380601e+00  5.2060478843396982e+00  6.0675703874693925e+00  6.9022125082061176e+00  7.6968426910256227e+00  8.4180153918641114e+00  8.8855423609312982e+00  -7.4568818156975141e+00  -7.1365746184248078e+00  -6.4054667291388805e+00  -5.5834781211498399e+00  -4.7265587858750111e+00  -3.8490516412696740e+00  -2.9567512186364922e+00  -2.0533523608263087e+00  -1.1419595907553906e+00  -2.2550979828011752e-01  6.9308414595140411e-01  1.6108757739392912e+00  2.5248489664526761e+00  3.4318654134002120e+00  4.3285457013653010e+00  5.2109639129473608e+00  6.0737658343122902e+00  6.9072689948494865e+00  7.6870988069901207e+00  8.3371900638452203e+00  8.6175801644305903e+00  -6.9421154130411482e+00  -6.7857660055523308e+00  -6.2353639035749158e+00  -5.5002492269395837e+00  -4.6837994974753547e+00  -3.8262961199405745e+00  -2.9444755850243638e+00  -2.0467790748387626e+00  -1.1385480522659839e+00  -2.2390842574005029e-01  6.9348667621144211e-01  1.6101204631454284e+00  2.5224029577602054e+00  3.4264373680649611e+00  4.3175942993944529e+00  5.1895535206799277e+00  6.0319642524582067e+00  6.8245608532352744e+00  7.5227763907825684e+00  8.0274848410443678e+00  8.1548975486645556e+00  -6.4494663845594777e+00  -6.3564460488381096e+00  -5.9428257715578345e+00  -5.3174559346495585e+00  -4.5713055090583694e+00  -3.7568063983223654e+00  -2.9015363565987906e+00  -2.0206932610150870e+00  -1.1236525569274498e+00  -2.1705422220434764e-01  6.9371000909779001e-01  1.6037049057238475e+00  2.5079124315631409e+00  3.4006694096630059e+00  4.2748019256676759e+00  5.1200132958173086e+00  5.9197146923028674e+00  6.6449492859745343e+00  7.2441378316004235e+00  7.6320646698211672e+00  7.7052373106625218e+00  -5.9839978195321635e+00  -5.9191582529932258e+00  -5.5946311495791505e+00  -5.0652353208091059e+00  -4.3968085080347610e+00  -3.6387505368622364e+00  -2.8231487459168014e+00  -1.9703325423622127e+00  -1.0937686016046693e+00  -2.0317158464042787e-01  6.9365939721118564e-01  1.5896984261152489e+00  2.4778400720885507e+00  3.3500366405379718e+00  4.1961353950979969e+00  5.0020607740345717e+00  5.7469143201972841e+00  6.3987503001422930e+00  6.9100774449533651e+00  7.2186068376437689e+00  7.2703694614963128e+00  -5.5476915613663724e+00  -5.4976574065263799e+00  -5.2316535558877675e+00  -4.7777395043714428e+00  -4.1811169376000938e+00  -3.4827414688797260e+00  -2.7139285557016306e+00  -1.8972738244434677e+00  -1.0491877831385723e+00  -1.8219079096810939e-01  6.9338849205888708e-01  1.5681729461523595e+00  2.4327246085566334e+00  3.2765370486236884e+00  4.0868233715500981e+00  4.8469169171503586e+00  5.5342253638350227e+00  6.1181164522614448e+00  6.5592810707939115e+00  6.8145647324906093e+00  6.8558284376758696e+00  -5.1433662140426168e+00  -5.1022612053768093e+00  -4.8763446600417444e+00  -4.4803166401536965e+00  -3.9452316249242991e+00  -3.3035066544677516e+00  -2.5832373097666435e+00  -1.8070472939827715e+00  -9.9288527363307832e-01  -1.5535498441083950e-01  6.9300145371720723e-01  1.5405950896316709e+00  2.3758017423845987e+00  3.1859867329955582e+00  3.9564448084479307e+00  4.6692236307811879e+00  5.3019736625894742e+00  5.8273474522749398e+00  6.2141606740254609e+00  6.4325647871363447e+00  6.4675608125123301e+00  -4.7740183463850077e+00  -4.7388513120434856e+00  -4.5416032967180593e+00  -4.1900536835678910e+00  -3.7060772687148607e+00  -3.1151334641420565e+00  -2.4415536900483956e+00  -1.7067745846910951e+00  -9.2917374886770743e-01  -1.2464237894186056e-01  6.9259659122265171e-01  1.5091373257070300e+00  2.3115621942507669e+00  3.0856272049883700e+00  3.8154568810601890e+00  4.4828080578873548e+00  5.0666033987951637e+00  5.5431710813122521e+00  5.8879434413947660e+00  6.0797732565517082e+00  6.1105241491034734e+00  -4.4423834759907885e+00  -4.4114289749989295e+00  -4.2353996651725794e+00  -3.9183342459270634e+00  -3.4762171795016705e+00  -2.9292984919116996e+00  -2.2984749025644455e+00  -1.6035481496995854e+00  -8.6263604081167400e-01  -9.2257448984727042e-02  6.9224345654573216e-01  1.4761324365551893e+00  2.2446800879791975e+00  2.9825683633051940e+00  3.6733602599508548e+00  4.2991286908769242e+00  4.8404267527966800e+00  5.2768958363215859e+00  5.5889241459861188e+00  5.7609726841689959e+00  5.7886423587504376e+00  -4.1507803738530669e+00  -4.1229383469402032e+00  -3.9629720712845029e+00  -3.6728230087795946e+00  -3.2646735935645497e+00  -2.7550203257961088e+00  -2.1619391413455080e+00  -1.5035850773384865e+00  -7.9747328053713129e-01  -6.0288550785319278e-02  6.9198031483231837e-01  1.4437337131860246e+00  2.1793861998432997e+00  2.8829994184953267e+00  3.5379976205109491e+00  4.1270639571298577e+00  4.6323560537211845e+00  5.0362196780032171e+00  5.3226128387253624e+00  5.4796267834417325e+00  5.5049834961839164e+00  -3.9010837192706003e+00  -3.8755926242801553e+00  -3.7279005319811649e+00  -3.4587428407178442e+00  -3.0778235368120268e+00  -2.5989868459787058e+00  -2.0381208944415818e+00  -1.4119266224575004e+00  -7.3720527664717572e-01  -3.0529099318880829e-02  6.9182044217439642e-01  1.4137523759714603e+00  2.1191933840046286e+00  2.7919198120852320e+00  3.4154703435106999e+00  3.9732235653471419e+00  4.4487359847354648e+00  4.8264402320714321e+00  5.0928134714141153e+00  5.2383185429211583e+00  5.2619234751281629e+00  -3.6947497066472397e+00  -3.6710431136256583e+00  -3.5326720907235285e+00  -3.2796712146281024e+00  -2.9201203406552669e+00  -2.4660175603254486e+00  -1.9316204526831133e+00  -1.3324433811289911e+00  -6.8460089707206440e-01  -4.4173300799005269e-03  6.9176020794101822e-01  1.3876142402210436e+00  2.0668444771458057e+00  2.7131580352170168e+00  3.3103286067731243e+00  3.8423904642873379e+00  4.2940295294305511e+00  4.6512242754931004e+00  4.9022001947316483e+00  5.0389771472055367e+00  5.0612741546555426e+00  -3.5328623302288564e+00  -3.5104906777002292e+00  -3.3790069802332248e+00  -3.1380434352410211e+00  -2.7946249140222617e+00  -2.3594938684838822e+00  -1.8457415600013429e+00  -1.2679763317301833e+00  -6.4172984195365845e-01  1.6954737460229196e-02  6.9178587624616272e-01  1.3663817114534733e+00  2.0243746847669795e+00  2.6495174968796076e+00  3.2258442368957549e+00  3.7379359168658146e+00  4.1713297972853072e+00  4.5130997047717791e+00  4.7526530377631495e+00  4.8830224371666384e+00  4.9043860903716201e+00  -3.4161845280475998e+00  -3.3947694324992055e+00  -3.2680624988320703e+00  -3.0354778290565791e+00  -2.7033823929854952e+00  -2.2817067759345435e+00  -1.7827600568406798e+00  -1.2205141361411906e+00  -6.1006134401407919e-01  3.2801197394468899e-02  6.9187835236942474e-01  1.3508024979843023e+00  1.9932160887571833e+00  2.6029547923615444e+00  3.1642742224061480e+00  3.6621570848142584e+00  4.0827259798062245e+00  4.4137762603712005e+00  4.6454693135761271e+00  4.7714690215743811e+00  4.7922327334038410e+00  -3.3452048837414265e+00  -3.3244108892404123e+00  -3.2005660086471104e+00  -2.9729876092082286e+00  -2.6476809069550225e+00  -2.2341152722519584e+00  -1.7441437387824708e+00  -1.1913553880946075e+00  -5.9056606742762885e-01  4.2595412964287475e-02  6.9201607685677091e-01  1.3413614621782175e+00  1.9743022819283143e+00  2.5747412831668348e+00  3.1270762875414353e+00  3.6165288374406894e+00  4.0295562678227359e+00  4.3543560911551884e+00  4.5815026510773587e+00  4.7050040426020336e+00  4.7254780090653981e+00  -3.3201737754624561e+00  -3.2996897938983634e+00  -3.1769000090075776e+00  -2.9511145454634824e+00  -2.6282195773332493e+00  -2.2175221323257919e+00  -1.7307105529490565e+00  -1.1812324979333930e+00  -5.8379847536003726e-01  4.6030156778017216e-02  6.9217655655570776e-01  1.3383229563333854e+00  1.9681515884714378e+00  2.5655856110447841e+00  3.1150636660604514e+00  3.6018752454371925e+00  4.0125726904446468e+00  4.3354676585749052e+00  4.5612531221190054e+00  4.6840429070097995e+00  4.7045268885738993e+00  -3.3411248959539583e+00  -3.3206509294905979e+00  -3.1971495379659354e+00  -2.9700029780437847e+00  -2.6452031547113419e+00  -2.2321757243293145e+00  -1.7427231744300551e+00  -1.1903881700554526e+00  -5.8994916881693182e-01  4.2991650933186694e-02  6.9233703625465226e-01  1.3417577001471317e+00  1.9749191805390380e+00  2.5757085012059968e+00  3.1284968518938689e+00  3.6184683853633643e+00  4.0320340200664386e+00  4.3573407223196536e+00  4.5849191217585723e+00  4.7087640023519004e+00  4.7295579968529102e+00  -3.4078796202923924e+00  -3.3871159084629445e+00  -3.2611162004647012e+00  -3.0294231472597803e+00  -2.6983728666948297e+00  -2.2778039717029026e+00  -1.7799211092947846e+00  -1.2186016792501657e+00  -6.0886297564579539e-01  3.3550615127115400e-02  6.9247476074201408e-01  1.3515519157169678e+00  1.9944144571255078e+00  2.6048672492526159e+00  3.1671131699521173e+00  3.6660598890459775e+00  4.0877355060969309e+00  4.4198309421680184e+00  4.6524156119435744e+00  4.7791225456107522e+00  4.8005376411591305e+00  -3.5200329772601413e+00  -3.4986693240551530e+00  -3.3682999246516783e+00  -3.1287465916603017e+00  -2.7869766841738777e+00  -2.3535828037544246e+00  -1.8414911237843594e+00  -1.2651643837682067e+00  -6.4002157165555695e-01  1.7971401657967467e-02  6.9256723686531196e-01  1.3673983756512469e+00  2.0260829550651240e+00  2.6523294448416324e+00  3.2300946731127986e+00  3.7438469815953468e+00  4.1789780271337600e+00  4.5223965483525195e+00  4.7633600933447280e+00  4.8948437908117226e+00  4.9172154433403508e+00  -3.6769210415440505e+00  -3.6546240340940526e+00  -3.5178470816201601e+00  -3.2668711623816340e+00  -2.9096764163190993e+00  -2.4580373511759106e+00  -1.9259754936616971e+00  -1.3288049221055818e+00  -6.8249136403434851e-01  -3.2611271095691610e-03  6.9259290517048411e-01  1.3887704431914114e+00  2.0689540101835697e+00  2.7167964942404659e+00  3.3159735657945788e+00  3.8503706734369092e+00  4.3044734537667670e+00  4.6640243277396012e+00  4.9170252038350037e+00  5.0553962267371029e+00  5.0791028197586963e+00  -3.8775703620166282e+00  -3.8539654298096258e+00  -3.7084603583025877e+00  -3.4420871189599431e+00  -3.0643828716239705e+00  -2.5888704522356343e+00  -2.0311172303992024e+00  -1.4075666989737381e+00  -7.3484027089311355e-01  -2.9399262859933294e-02  6.9253267093715298e-01  1.4148822124304368e+00  2.1215583897587336e+00  2.7962797355690481e+00  3.4224740075531352e+00  3.9833399590902383e+00  4.4621766499235358e+00  4.8430959538293372e+00  5.1122536450926575e+00  5.2599457373916119e+00  5.2854368323820529e+00  -4.1206303830723181e+00  -4.0952736703301662e+00  -3.9382597256137917e+00  -3.6518665648916695e+00  -3.2480029406096489e+00  -2.7427108440183021e+00  -2.1536445073994011e+00  -1.4986463053837762e+00  -7.9503308673173068e-01  -5.9380600074430898e-02  6.9237279827929543e-01  1.4446416638969413e+00  2.1818263936487523e+00  2.8879381904501238e+00  3.5462922544571565e+00  4.1393734389077244e+00  4.6490267066761231e+00  5.0571761218911213e+00  5.3473251843960066e+00  5.5072914600516780e+00  5.5351334869645026e+00  -4.4042892456388278e+00  -4.3766195710574030e+00  -4.2045710328745178e+00  -3.8925427232099872e+00  -3.4560736396850946e+00  -2.9147755777653273e+00  -2.2890071468392557e+00  -1.5982152501935638e+00  -8.6032697486754850e-01  -9.1779323443525948e-02  6.9210965656594692e-01  1.4766105620964207e+00  2.2469891539233693e+00  2.9879012628112926e+00  3.6828280156761415e+00  4.3136516050233533e+00  4.8605702926132848e+00  5.3026873590386323e+00  5.6197527782841057e+00  5.7957820881104327e+00  5.8267365891022989e+00  -4.7261710359918210e+00  -4.6954201434400398e+00  -4.5035903282831145e+00  -4.1588179682006254e+00  -3.6822502856835131e+00  -3.0984549447757002e+00  -2.4311037679485183e+00  -1.7012740918766722e+00  -9.2720908113905598e-01  -1.2478421259530464e-01  6.9175652188908709e-01  1.5089954920536117e+00  2.3135268619794540e+00  3.0911276978028344e+00  3.8259068031601169e+00  4.4994865772537436e+00  5.0904303818265264e+00  5.5744067966794990e+00  5.9259564098296185e+00  6.1232044251550581e+00  6.1583714594965775e+00  -5.0832076994006581e+00  -5.0482116740246727e+00  -4.8298075609138280e+00  -4.4429943391633042e+00  -3.9176205494777832e+00  -3.2848705176694737e+00  -2.5720916953361885e+00  -1.8016336198837846e+00  -9.9144862927281530e-01  -1.5624197651987606e-01  6.9135165939459520e-01  1.5397080975226480e+00  2.3772383867448790e+00  3.1914004070945463e+00  3.9675904228783958e+00  4.6878597675794698e+00  5.3295847380360204e+00  5.8646697532653844e+00  6.2606977731533808e+00  6.4866143184884262e+00  6.5277193271542471e+00  -5.4714753245641683e+00  -5.4302116193789196e+00  -5.1749279576822040e+00  -4.7337633391497427e+00  -4.1498722507232815e+00  -3.4625638040386080e+00  -2.7024702584382951e+00  -1.8921839355118346e+00  -1.0483714954447791e+00  -1.8381983304050736e-01  6.9096462105297729e-01  1.5665439040799760e+00  2.4335408962504359e+00  3.2816269375553078e+00  4.0982816688134394e+00  4.8670945819915277e+00  5.5654700507118777e+00  6.1620926174832000e+00  6.6160066689994661e+00  6.8820105196380696e+00  6.9320446744780693e+00  -5.8860163483845591e+00  -5.8342537245320196e+00  -5.5257243318415874e+00  -5.0143971870305259e+00  -4.3625612070854922e+00  -3.6177076609227816e+00  -2.8117822819861513e+00  -1.9656835274260802e+00  -1.0934869589766543e+00  -2.0534531300335321e-01  6.9069371590072126e-01  1.5875246977523338e+00  2.4781217147165662e+00  3.3546856554740909e+00  4.2075018590286666e+00  5.0231036499741153e+00  5.7811616211466008e+00  6.4495884339209155e+00  6.9789842626909451e+00  7.3035113661049866e+00  7.3683509326439172e+00  -6.3208841975507157e+00  -6.2477115567093522e+00  -5.8597847184886183e+00  -5.2605961728627264e+00  -4.5353615791910462e+00  -3.7356601827054683e+00  -2.8904488125557841e+00  -2.0163162965510937e+00  -1.1235593184512149e+00  -2.1935179261192472e-01  6.9064310401413909e-01  1.6014073353162819e+00  2.5080056700393625e+00  3.4050463741269907e+00  4.2858894697107139e+00  5.1411595114342976e+00  5.9556586221702759e+00  6.7018090477614152e+00  7.3271788846696797e+00  7.7407991619499388e+00  7.8338194976712918e+00  -6.7705444355527158e+00  -6.6431317279324880e+00  -6.1384232776707393e+00  -5.4402077401234568e+00  -4.6476111393463944e+00  -3.8052004075680728e+00  -2.9332411862825620e+00  -2.0420842549530343e+00  -1.1380498446482836e+00  -2.2576735003349596e-01  6.9086643690050253e-01  1.6082615388519952e+00  2.5229011653779172e+00  3.4311321879506727e+00  4.3288286981362925e+00  5.2106492330525134e+00  6.0681526105872790e+00  6.8846023400514724e+00  7.6197170166867769e+00  8.1701191186641715e+00  8.3264685261530342e+00  -7.2332270513187789e+00  -6.9528369507334009e+00  -6.3027456938783741e+00  -5.5229158817377053e+00  -4.6894127212004770e+00  -3.8266107998354997e+00  -2.9441925882534026e+00  -2.0475123002882905e+00  -1.1404958533407425e+00  -2.2652266082735123e-01  6.9126896716054087e-01  1.6098629113920679e+00  2.5263127038673310e+00  3.4377054739382444e+00  4.3411043317484168e+00  5.2334047543815805e+00  6.1109118989869327e+00  6.9678312342617286e+00  7.7898198422507816e+00  8.5209277315366787e+00  8.8412349288093885e+00  -7.5011892478194797e+00  -7.0336622787522938e+00  -6.3124895779138468e+00  -5.5178593950943311e+00  -4.6832172743575695e+00  -3.8216947712278420e+00  -2.9406179646261612e+00  -2.0450297415995053e+00  -1.1389017533809811e+00  -2.2568014548474802e-01  6.9145558546581420e-01  1.6094708147322510e+00  2.5254176021474048e+00  3.4363988525020299e+00  4.3395232359282963e+00  5.2318091401768028e+00  6.1099424241103222e+00  6.9695766296740604e+00  7.8026748840550582e+00  8.5834305672897830e+00  9.2870580627794954e+00  </DataArray> 
</PointData> 
</Piece>
</UnstructuredGrid>
</VTKFile>