<?xml version="1.0"?>
<VTKFile type="UnstructuredGrid"  version="0.1"  >
<UnstructuredGrid>
<Piece  NumberOfPoints="651" NumberOfCells="1200">
<Points>
<DataArray  type="Float64"  NumberOfComponents="3"  format="ascii">0 0 0  50000 0 0  100000 0 0  150000 0 0  200000 0 0  250000 0 0  300000 0 0  350000 0 0  400000 0 0  450000 0 0  500000 0 0  550000 0 0  600000 0 0  650000 0 0  700000 0 0  750000 0 0  800000 0 0  850000 0 0  900000 0 0  950000 0 0  1000000 0 0  0 50000 0  50000 50000 0  100000 50000 0  150000 50000 0  200000 50000 0  250000 50000 0  300000 50000 0  350000 50000 0  400000 50000 0  450000 50000 0  500000 50000 0  550000 50000 0  600000 50000 0  650000 50000 0  700000 50000 0  750000 50000 0  800000 50000 0  850000 50000 0  900000 50000 0  950000 50000 0  1000000 50000 0  0 100000 0  50000 100000 0  100000 100000 0  150000 100000 0  200000 100000 0  250000 100000 0  300000 100000 0  350000 100000 0  400000 100000 0  450000 100000 0  500000 100000 0  550000 100000 0  600000 100000 0  650000 100000 0  700000 100000 0  750000 100000 0  800000 100000 0  850000 100000 0  900000 100000 0  950000 100000 0  1000000 100000 0  0 150000 0  50000 150000 0  100000 150000 0  150000 150000 0  200000 150000 0  250000 150000 0  300000 150000 0  350000 150000 0  400000 150000 0  450000 150000 0  500000 150000 0  550000 150000 0  600000 150000 0  650000 150000 0  700000 150000 0  750000 150000 0  800000 150000 0  850000 150000 0  900000 150000 0  950000 150000 0  1000000 150000 0  0 200000 0  50000 200000 0  100000 200000 0  150000 200000 0  200000 200000 0  250000 200000 0  300000 200000 0  350000 200000 0  400000 200000 0  450000 200000 0  500000 200000 0  550000 200000 0  600000 200000 0  650000 200000 0  700000 200000 0  750000 200000 0  800000 200000 0  850000 200000 0  900000 200000 0  950000 200000 0  1000000 200000 0  0 250000 0  50000 250000 0  100000 250000 0  150000 250000 0  200000 250000 0  250000 250000 0  300000 250000 0  350000 250000 0  400000 250000 0  450000 250000 0  500000 250000 0  550000 250000 0  600000 250000 0  650000 250000 0  700000 250000 0  750000 250000 0  800000 250000 0  850000 250000 0  900000 250000 0  950000 250000 0  1000000 250000 0  0 300000 0  50000 300000 0  100000 300000 0  150000 300000 0  200000 300000 0  250000 300000 0  300000 300000 0  350000 300000 0  400000 300000 0  450000 300000 0  500000 300000 0  550000 300000 0  600000 300000 0  650000 300000 0  700000 300000 0  750000 300000 0  800000 300000 0  850000 300000 0  900000 300000 0  950000 300000 0  1000000 300000 0  0 350000 0  50000 350000 0  100000 350000 0  150000 350000 0  200000 350000 0  250000 350000 0  300000 350000 0  350000 350000 0  400000 350000 0  450000 350000 0  500000 350000 0  550000 350000 0  600000 350000 0  650000 350000 0  700000 350000 0  750000 350000 0  800000 350000 0  850000 350000 0  900000 350000 0  950000 350000 0  1000000 350000 0  0 400000 0  50000 400000 0  100000 400000 0  150000 400000 0  200000 400000 0  250000 400000 0  300000 400000 0  350000 400000 0  400000 400000 0  450000 400000 0  500000 400000 0  550000 400000 0  600000 400000 0  650000 400000 0  700000 400000 0  750000 400000 0  800000 400000 0  850000 400000 0  900000 400000 0  950000 400000 0  1000000 400000 0  0 450000 0  50000 450000 0  100000 450000 0  150000 450000 0  200000 450000 0  250000 450000 0  300000 450000 0  350000 450000 0  400000 450000 0  450000 450000 0  500000 450000 0  550000 450000 0  600000 450000 0  650000 450000 0  700000 450000 0  750000 450000 0  800000 450000 0  850000 450000 0  900000 450000 0  950000 450000 0  1000000 450000 0  0 500000 0  50000 500000 0  100000 500000 0  150000 500000 0  200000 500000 0  250000 500000 0  300000 500000 0  350000 500000 0  400000 500000 0  450000 500000 0  500000 500000 0  550000 500000 0  600000 500000 0  650000 500000 0  700000 500000 0  750000 500000 0  800000 500000 0  850000 500000 0  900000 500000 0  950000 500000 0  1000000 500000 0  0 550000 0  50000 550000 0  100000 550000 0  150000 550000 0  200000 550000 0  250000 550000 0  300000 550000 0  350000 550000 0  400000 550000 0  450000 550000 0  500000 550000 0  550000 550000 0  600000 550000 0  650000 550000 0  700000 550000 0  750000 550000 0  800000 550000 0  850000 550000 0  900000 550000 0  950000 550000 0  1000000 550000 0  0 600000 0  50000 600000 0  100000 600000 0  150000 600000 0  200000 600000 0  250000 600000 0  300000 600000 0  350000 600000 0  400000 600000 0  450000 600000 0  500000 600000 0  550000 600000 0  600000 600000 0  650000 600000 0  700000 600000 0  750000 600000 0  800000 600000 0  850000 600000 0  900000 600000 0  950000 600000 0  1000000 600000 0  0 650000 0  50000 650000 0  100000 650000 0  150000 650000 0  200000 650000 0  250000 650000 0  300000 650000 0  350000 650000 0  400000 650000 0  450000 650000 0  500000 650000 0  550000 650000 0  600000 650000 0  650000 650000 0  700000 650000 0  750000 650000 0  800000 650000 0  850000 650000 0  900000 650000 0  950000 650000 0  1000000 650000 0  0 700000 0  50000 700000 0  100000 700000 0  150000 700000 0  200000 700000 0  250000 700000 0  300000 700000 0  350000 700000 0  400000 700000 0  450000 700000 0  500000 700000 0  550000 700000 0  600000 700000 0  650000 700000 0  700000 700000 0  750000 700000 0  800000 700000 0  850000 700000 0  900000 700000 0  950000 700000 0  1000000 700000 0  0 750000 0  50000 750000 0  100000 750000 0  150000 750000 0  200000 750000 0  250000 750000 0  300000 750000 0  350000 750000 0  400000 750000 0  450000 750000 0  500000 750000 0  550000 750000 0  600000 750000 0  650000 750000 0  700000 750000 0  750000 750000 0  800000 750000 0  850000 750000 0  900000 750000 0  950000 750000 0  1000000 750000 0  0 800000 0  50000 800000 0  100000 800000 0  150000 800000 0  200000 800000 0  250000 800000 0  300000 800000 0  350000 800000 0  400000 800000 0  450000 800000 0  500000 800000 0  550000 800000 0  600000 800000 0  650000 800000 0  700000 800000 0  750000 800000 0  800000 800000 0  850000 800000 0  900000 800000 0  950000 800000 0  1000000 800000 0  0 850000 0  50000 850000 0  100000 850000 0  150000 850000 0  200000 850000 0  250000 850000 0  300000 850000 0  350000 850000 0  400000 850000 0  450000 850000 0  500000 850000 0  550000 850000 0  600000 850000 0  650000 850000 0  700000 850000 0  750000 850000 0  800000 850000 0  850000 850000 0  900000 850000 0  950000 850000 0  1000000 850000 0  0 900000 0  50000 900000 0  100000 900000 0  150000 900000 0  200000 900000 0  250000 900000 0  300000 900000 0  350000 900000 0  400000 900000 0  450000 900000 0  500000 900000 0  550000 900000 0  600000 900000 0  650000 900000 0  700000 900000 0  750000 900000 0  800000 900000 0  850000 900000 0  900000 900000 0  950000 900000 0  1000000 900000 0  0 950000 0  50000 950000 0  100000 950000 0  150000 950000 0  200000 950000 0  250000 950000 0  300000 950000 0  350000 950000 0  400000 950000 0  450000 950000 0  500000 950000 0  550000 950000 0  600000 950000 0  650000 950000 0  700000 950000 0  750000 950000 0  800000 950000 0  850000 950000 0  900000 950000 0  950000 950000 0  1000000 950000 0  0 1000000 0  50000 1000000 0  100000 1000000 0  150000 1000000 0  200000 1000000 0  250000 1000000 0  300000 1000000 0  350000 1000000 0  400000 1000000 0  450000 1000000 0  500000 1000000 0  550000 1000000 0  600000 1000000 0  650000 1000000 0  700000 1000000 0  750000 1000000 0  800000 1000000 0  850000 1000000 0  900000 1000000 0  950000 1000000 0  1000000 1000000 0  0 1050000 0  50000 1050000 0  100000 1050000 0  150000 1050000 0  200000 1050000 0  250000 1050000 0  300000 1050000 0  350000 1050000 0  400000 1050000 0  450000 1050000 0  500000 1050000 0  550000 1050000 0  600000 1050000 0  650000 1050000 0  700000 1050000 0  750000 1050000 0  800000 1050000 0  850000 1050000 0  900000 1050000 0  950000 1050000 0  1000000 1050000 0  0 1100000 0  50000 1100000 0  100000 1100000 0  150000 1100000 0  200000 1100000 0  250000 1100000 0  300000 1100000 0  350000 1100000 0  400000 1100000 0  450000 1100000 0  500000 1100000 0  550000 1100000 0  600000 1100000 0  650000 1100000 0  700000 1100000 0  750000 1100000 0  800000 1100000 0  850000 1100000 0  900000 1100000 0  950000 1100000 0  1000000 1100000 0  0 1150000 0  50000 1150000 0  100000 1150000 0  150000 1150000 0  200000 1150000 0  250000 1150000 0  300000 1150000 0  350000 1150000 0  400000 1150000 0  450000 1150000 0  500000 1150000 0  550000 1150000 0  600000 1150000 0  650000 1150000 0  700000 1150000 0  750000 1150000 0  800000 1150000 0  850000 1150000 0  900000 1150000 0  950000 1150000 0  1000000 1150000 0  0 1200000 0  50000 1200000 0  100000 1200000 0  150000 1200000 0  200000 1200000 0  250000 1200000 0  300000 1200000 0  350000 1200000 0  400000 1200000 0  450000 1200000 0  500000 1200000 0  550000 1200000 0  600000 1200000 0  650000 1200000 0  700000 1200000 0  750000 1200000 0  800000 1200000 0  850000 1200000 0  900000 1200000 0  950000 1200000 0  1000000 1200000 0  0 1250000 0  50000 1250000 0  100000 1250000 0  150000 1250000 0  200000 1250000 0  250000 1250000 0  300000 1250000 0  350000 1250000 0  400000 1250000 0  450000 1250000 0  500000 1250000 0  550000 1250000 0  600000 1250000 0  650000 1250000 0  700000 1250000 0  750000 1250000 0  800000 1250000 0  850000 1250000 0  900000 1250000 0  950000 1250000 0  1000000 1250000 0  0 1300000 0  50000 1300000 0  100000 1300000 0  150000 1300000 0  200000 1300000 0  250000 1300000 0  300000 1300000 0  350000 1300000 0  400000 1300000 0  450000 1300000 0  500000 1300000 0  550000 1300000 0  600000 1300000 0  650000 1300000 0  700000 1300000 0  750000 1300000 0  800000 1300000 0  850000 1300000 0  900000 1300000 0  950000 1300000 0  1000000 1300000 0  0 1350000 0  50000 1350000 0  100000 1350000 0  150000 1350000 0  200000 1350000 0  250000 1350000 0  300000 1350000 0  350000 1350000 0  400000 1350000 0  450000 1350000 0  500000 1350000 0  550000 1350000 0  600000 1350000 0  650000 1350000 0  700000 135
[...]
<PointData  Scalars="f_7495"> 
<DataArray  type="Float64"  Name="f_7495"  format="ascii">-8.7281176783565915e+00  -7.9589610305079006e+00  -7.1053995187421464e+00  -6.1945774729963610e+00  -5.2547246506595942e+00  -4.2946332970709200e+00  -3.3190588979889171e+00  -2.3316273843125876e+00  -1.3356006674815657e+00  -3.3414171563369571e-01  6.6958031254319472e-01  1.6723406985017666e+00  2.6708199013920573e+00  3.6615398320702011e+00  4.6407305113380657e+00  5.6040466166199074e+00  6.5459697604718077e+00  7.4584808022422182e+00  8.3272028522144215e+00  9.1155346557463890e+00  9.6265093656512892e+00  -8.2407854282987376e+00  -7.8907153269369639e+00  -7.0913974749036948e+00  -6.1927001431390893e+00  -5.2558027245510246e+00  -4.2963884636806009e+00  -3.3207936441239307e+00  -2.3330590896812278e+00  -1.3365803684266242e+00  -3.3456983662444456e-01  6.6978638307579486e-01  1.6732654140344803e+00  2.6725681936901649e+00  3.6642619987829446e+00  4.6446503706744888e+00  5.6094390608075502e+00  6.5527715021995485e+00  7.4640567440309402e+00  8.3166337162062653e+00  9.0273094670878464e+00  9.3336719771536441e+00  -7.6781099447095524e+00  -7.5072780577955012e+00  -6.9055379986870911e+00  -6.1018024817922969e+00  -5.2091293877053504e+00  -4.2715668197264787e+00  -3.3074144466703377e+00  -2.3259015548800797e+00  -1.3328685482588096e+00  -3.3282706652625021e-01  6.7022798504463532e-01  1.6724506669442756e+00  2.6699149776125068e+00  3.6583594472259482e+00  4.6327215861534023e+00  5.5860900438546004e+00  6.5071458902994985e+00  7.3737271776092452e+00  8.1370950046106270e+00  8.6888435076216428e+00  8.8279900086638659e+00  -7.1396127001473841e+00  -7.0380032200323033e+00  -6.5858144474680733e+00  -5.9020635450679064e+00  -5.0862368366917918e+00  -4.1956741735446119e+00  -3.2605320107468043e+00  -2.2974280872377464e+00  -1.3166134222958141e+00  -3.2534814358477859e-01  6.7047229991351209e-01  1.6654514836556373e+00  2.6541023784951876e+00  3.6302325150653112e+00  4.5859974857578436e+00  5.5101381038545059e+00  6.3845143239211630e+00  7.1774603391096399e+00  7.8325696775296505e+00  8.2566506371293258e+00  8.3365369456523570e+00  -6.6308258869645584e+00  -6.5600132429344216e+00  -6.2052315237531293e+00  -5.6264120614371089e+00  -4.8955562531384391e+00  -4.0666893808080795e+00  -3.1749013419056844e+00  -2.2424223605172902e+00  -1.2839775059974341e+00  -3.1018894512641454e-01  6.7041570201335432e-01  1.6501541920807477e+00  2.6212572659528273e+00  3.5749252562207325e+00  4.5000565555867054e+00  5.3812596984074910e+00  6.1956817024815951e+00  6.9083878963119867e+00  7.4674421180444508e+00  7.8047256871786814e+00  7.8612318051431371e+00  -6.1539138438036254e+00  -6.0992773465548771e+00  -5.8084770510665615e+00  -5.3121832155369511e+00  -4.6598290760850487e+00  -3.8962056826466149e+00  -3.0555599489135115e+00  -2.1626013691635859e+00  -1.2352747916300277e+00  -2.8727070220388806e-01  6.7011716951567157e-01  1.6266355994970003e+00  2.5719647745666232e+00  3.4946164051146438e+00  4.3806083019336954e+00  5.2117153146004647e+00  5.9632317314384347e+00  6.6016587295448153e+00  7.0840075757996397e+00  7.3630848962880640e+00  7.4081300964720667e+00  -5.7119568310173969e+00  -5.6670742744088161e+00  -5.4200977881557462e+00  -4.9870903042496026e+00  -4.4020134496968106e+00  -3.7003206408737559e+00  -2.9127382038331429e+00  -2.0640071163120859e+00  -1.1737549127384799e+00  -2.5795073328508095e-01  6.6969098604147004e-01  1.5964982054529211e+00  2.5097603311423127e+00  3.3956616399685511e+00  4.2381219286162422e+00  5.0175097568023412e+00  5.7093844488115995e+00  6.2838388395716516e+00  6.7067689339166670e+00  6.9455324442775588e+00  6.9837368466722847e+00  -5.3082304730314416e+00  -5.2698333956473737e+00  -5.0541960783761111e+00  -4.6698151021617997e+00  -4.1406131879971682e+00  -3.4944349574771505e+00  -2.7578906696556476e+00  -1.9544237124602435e+00  -1.1041312372178889e+00  -2.2439073445280588e-01  6.6924498485364037e-01  1.5621167912498737e+00  2.4395526567004149e+00  3.2859767583620547e+00  4.0840288893848564e+00  4.8137591879208399e+00  5.4521177631499951e+00  5.9732165843080303e+00  6.3501872120364560e+00  6.5599027736489015e+00  6.5934741055555515e+00  -4.9457254475520882e+00  -4.9119287546976755e+00  -4.7194857720600689e+00  -4.3728039274013861e+00  -3.8893643982289245e+00  -3.2913148642342800e+00  -2.6015096701039582e+00  -1.8416047113381384e+00  -1.0314134912845874e+00  -1.8900033018158588e-01  6.6885545816409553e-01  1.5260417438715594e+00  2.3664517053316172e+00  3.1733346686279100e+00  3.9287160174606490e+00  4.6129911514562787e+00  5.2048927673010086e+00  5.6821557270774905e+00  6.0233309956200767e+00  6.2114245333547125e+00  6.2416330595691196e+00  -4.6269770622509077e+00  -4.5965790647058844e+00  -4.4216940418207420e+00  -4.1044371564622697e+00  -3.6581318671866168e+00  -3.1008210430442076e+00  -2.4522744076905738e+00  -1.7323473481561353e+00  -9.6019468073926639e-01  -1.5406256004173946e-01  6.6856439307626692e-01  1.4906273767211946e+00  2.2950831031464296e+00  3.0645022140697749e+00  3.7807580113147101e+00  4.4249128663142701e+00  4.9774537945773796e+00  5.4190728159290211e+00  5.7322245727320036e+00  5.9038847934387952e+00  5.9315689076992024e+00  -4.3540352356197820e+00  -4.3262041311652792e+00  -4.1647351592536372e+00  -3.8704254962111242e+00  -3.4538883533098099e+00  -2.9302661237181620e+00  -2.3169360777047414e+00  -1.6321636440118250e+00  -8.9432322588682622e-01  -1.2153821489345540e-01  6.6838637855941441e-01  1.4578540769602524e+00  2.2292877421797361e+00  2.9649456935750456e+00  3.6468260396036274e+00  4.2567513352927682e+00  4.7767380839548190e+00  5.1897602221935424e+00  5.4810271380608961e+00  5.6401079239043099e+00  5.6658800307331632e+00  -4.1284924086514794e+00  -4.1026095753082528e+00  -3.9513285122759489e+00  -3.6746806991605938e+00  -3.2815033602048493e+00  -2.7849200078136760e+00  -2.2005248454821040e+00  -1.5452858404965384e+00  -8.3682666616203527e-01  -9.2999869261943632e-02  6.6831746646768198e-01  1.4292808705746014e+00  2.1720646992315298e+00  2.8788512679065561e+00  3.5318953920043255e+00  4.1137363906650259e+00  4.6076256273122409e+00  4.9982273557453256e+00  5.2726627796766534e+00  5.4222035927733776e+00  5.4465480708342389e+00  -3.9515340845772107e+00  -3.9271085889235247e+00  -3.7833551457408321e+00  -3.5198657238843385e+00  -3.1443239491569530e+00  -2.6684802108243910e+00  -2.1066532980347579e+00  -1.4748204810972518e+00  -7.8996815823090327e-01  -6.9641612410935014e-02  6.6834262792665211e-01  1.4060694412211980e+00  2.1256393744319788e+00  2.8092843460469266e+00  3.4395436942640849e+00  3.9995544161492527e+00  4.4734986891865534e+00  4.8472384790207679e+00  5.1091874044860379e+00  5.2517246283471115e+00  5.2750502619105841e+00  -3.8239946954194881e+00  -3.8006133741865433e+00  -3.6620806106020765e+00  -3.4077502427752857e+00  -3.0445865145203488e+00  -2.5834519889614818e+00  -2.0378101035959300e+00  -1.4229421947429870e+00  -7.5535432825470150e-01  -5.2322852456300258e-02  6.6844095695357986e-01  1.3890373749301759e+00  2.0915777144782783e+00  2.7583844387731258e+00  3.3722389583117014e+00  3.9167173851550792e+00  4.3766418679898829e+00  4.7386633105807014e+00  4.9920198092318033e+00  5.1297807854938364e+00  5.1524514615415526e+00  -3.7464086238074286e+00  -3.7237052220803455e+00  -3.5883003317194571e+00  -3.3394422529446701e+00  -2.9836996821672814e+00  -2.5314308115950017e+00  -1.9956003621343301e+00  -1.3910710539329851e+00  -7.3404664937042841e-01  -4.1619509853220778e-02  6.6858884362893478e-01  1.3787148440982508e+00  2.0709005928858888e+00  2.7275417905131070e+00  3.3315752439420625e+00  3.8668381388667883e+00  4.3185185842753580e+00  4.6737072012752909e+00  4.9220936398823421e+00  5.0571237226860060e+00  5.0794780106763939e+00  -3.7190496981535537e+00  -3.6966845961547596e+00  -3.5624325907185717e+00  -3.3155342014585329e+00  -2.9624279753366216e+00  -2.5132945598878540e+00  -1.9809185537742828e+00  -1.3800080063830245e+00  -7.2665148113892042e-01  -3.7867585471777133e-02  6.6876165311239355e-01  1.3753908916965507e+00  2.0641747873636929e+00  2.7175313126077887e+00  3.3184418599990497e+00  3.8508178661126280e+00  4.2999512815613956e+00  4.6530575076833420e+00  4.8999558969433830e+00  5.0342079023795829e+00  5.0565730043783850e+00  -3.7419547044515684e+00  -3.7196004164611840e+00  -3.5845703336575370e+00  -3.3361838950505076e+00  -2.9809952780505911e+00  -2.5293148326420467e+00  -1.9940519377173134e+00  -1.3900184842883547e+00  -7.3337728666113511e-01  -4.1191537873474342e-02  6.6893446259586087e-01  1.3791428160780126e+00  2.0715699555952112e+00  2.7285943601577474e+00  3.3331236683591001e+00  3.8689541178197815e+00  4.3212229883920763e+00  4.6769655591694770e+00  4.9258236379443101e+00  5.0612285283052305e+00  5.0839319300323078e+00  -3.8149281553167147e+00  -3.7922574792690198e+00  -3.6544965030069929e+00  -3.4011400043559008e+00  -3.0391185617651137e+00  -2.5791940789303553e+00  -2.0347156520869687e+00  -1.4208611325483747e+00  -7.5405440825351855e-01  -5.1514068705384344e-02  6.6908234927123345e-01  1.3898461586811124e+00  2.0928776344795055e+00  2.7604655009677890e+00  3.3753334098207439e+00  3.9209752951862935e+00  4.3821098207451650e+00  4.7452735490001130e+00  4.9996039168269757e+00  5.1381366804114936e+00  5.1615180016444215e+00  -3.9375269556857111e+00  -3.9142013221222327e+00  -3.7716640982611751e+00  -3.5097151727958997e+00  -3.1359753829617412e+00  -2.6620311099244867e+00  -2.1020203880393140e+00  -1.4717610398221503e+00  -7.8811606820718005e-01  -6.8546134996381278e-02  6.6918067829819972e-01  1.4071649186357904e+00  2.1274914644557481e+00  2.8123437873220793e+00  3.4441766042595918e+00  4.0060035170492361e+00  4.4818472553818411e+00  4.8573890301092302e+00  5.1208784519657282e+00  5.2646318951484101e+00  5.2890573908020988e+00  -4.1090247646093534e+00  -4.0846802865485010e+00  -3.9351394734517768e+00  -3.6607040495204761e+00  -3.2701023210874025e+00  -2.7762130844402177e+00  -2.1943720857795204e+00  -1.5413279616817421e+00  -8.3454139300669272e-01  -9.1757564349746454e-02  6.6920583975720171e-01  1.4305231754868377e+00  2.1743499723869233e+00  2.8828091467213919e+00  3.5380481517069469e+00  4.1224433140385139e+00  4.6190266664297353e+00  5.0122040053854819e+00  5.2888518185008087e+00  5.4401328815330778e+00  5.4660157148763195e+00  -4.3283567245082306e+00  -4.3025846176793765e+00  -4.1435038318359743e+00  -3.8522369159686614e+00  -3.4392147777299340e+00  -2.9192280290678716e+00  -2.3093027333787415e+00  -1.6274223873501648e+00  -8.9176443595483446e-01  -1.2033077073533938e-01  6.6913692766552191e-01  1.4590615211183988e+00  2.2318465321117706e+00  2.9696869502367593e+00  3.6544593839296780e+00  4.2677894299430745e+00  4.7914116595347016e+00  5.2079488024359977e+00  5.5022584654785103e+00  5.6637274373901114e+00  5.6915585418446097e+00  -4.5940456014741988e+00  -4.5663614872138316e+00  -4.3947012665070337e+00  -4.0815495097040806e+00  -3.6399304883524506e+00  -3.0873895600893162e+00  -2.4432347050897674e+00  -1.7269789078448308e+00  -9.5755979692146931e-01  -1.5310407049620961e-01  6.6895891314873901e-01  1.4915858662667538e+00  2.2977179869642792e+00  3.0698706543811682e+00  3.7897977139156152e+00  4.4383443492692125e+00  4.9956551734115759e+00  5.4419604626871765e+00  5.7592173480456257e+00  5.9341023709307334e+00  5.9645003684757114e+00  -4.9041097533441054e+00  -4.8739012271297186e+00  -4.6858076893950731e+00  -4.3446324208524878e+00  -3.8673694610760254e+00  -3.2754678452312840e+00  -2.5911927112356534e+00  -1.8358113624028856e+00  -1.0289283991065694e+00  -1.8851843764649773e-01  6.6866784806098134e-01  1.5265236364066783e+00  2.3689367975096807e+00  3.1791280175632459e+00  3.9390329763290497e+00  4.6288381704593276e+00  5.2268877044539304e+00  5.7103272336263418e+00  6.0570090782849801e+00  6.2494520609225566e+00  6.2832487537769790e+00  -5.2559507993304946e+00  -5.2223794674238269e+00  -5.0126639058114018e+00  -4.6356932780829974e+00  -4.1145944569249435e+00  -3.4762358816957821e+00  -2.7465055831597853e+00  -1.9484534521369552e+00  -1.1020293504752985e+00  -2.2459348502474480e-01  6.6827832137150289e-01  1.5619140406779610e+00  2.4416545434430383e+00  3.2919470186853821e+00  4.0954139758807653e+00  4.8319582637022327e+00  5.4781364942222304e+00  6.0073384083867953e+00  6.3917193846010525e+00  6.6073567018723294e+00  6.6457537792563972e+00  -5.6462135404472091e+00  -5.6080091380524832e+00  -5.3692456276916394e+00  -4.9463155333466160e+00  -4.3718611425865062e+00  -3.6799864505772195e+00  -2.9005986223910933e+00  -2.0581383337433672e+00  -1.1722370249171157e+00  -2.5897489922771627e-01  6.6783232018374195e-01  1.5954740395102986e+00  2.5112782189636889e+00  3.4015304225372591e+00  4.2502615100582934e+00  5.0378439470988665e+00  5.7395367559219297e+00  6.3246136104746862e+00  6.7576210943807746e+00  7.0045975806338259e+00  7.0494801372424210e+00  -6.0706067902469592e+00  -6.0255615900629707e+00  -5.7464842695745295e+00  -5.2641354233197131e+00  -4.6257084252132845e+00  -3.8741920083753065e+00  -3.0430849957084778e+00  -2.1570930988893742e+00  -1.2344414683413527e+00  -2.8911229327173577e-01  6.6740613670960658e-01  1.6247940084291672e+00  2.5727980978553027e+00  3.5001246753888324e+00  4.3930832551387260e+00  5.2337289888718255e+00  5.9973523823102433e+00  6.6497065217621065e+00  7.1460003572916548e+00  7.4368006527799757e+00  7.4914371500287302e+00  -6.5237084989179674e+00  -6.4672023809535180e+00  -6.1299188118192598e+00  -5.5708645900868143e+00  -4.8581583962563952e+00  -4.0437363921822875e+00  -3.1625332493614415e+00  -2.2374019499954221e+00  -1.2837339597275113e+00  -3.1263088585543503e-01  6.6710760421196991e-01  1.6477122513517357e+00  2.6215008122227439e+00  3.5799456667425771e+00  4.5124246481309624e+00  5.4042126870333789e+00  6.2330795593636896e+00  6.9639353676623266e+00  7.5427548299783371e+00  7.8975365491595939e+00  7.9683491931897290e+00  -6.9990136394271296e+00  -6.9191273309040842e+00  -6.4950463713044311e+00  -5.8399370328844231e+00  -5.0469910176959329e+00  -4.1726147976292500e+00  -3.2484741795325287e+00  -2.2927092088399785e+00  -1.3165790722698389e+00  -3.2792817743029562e-01  6.6705100631183512e-01  1.6628714498101302e+00  2.6541367285211410e+00  3.6349513934630626e+00  4.5980553169721503e+00  5.5331974797699734e+00  6.4237601429171232e+00  7.2395868512931809e+00  7.9233377536933451e+00  8.3755265262575573e+00  8.4771360063726231e+00  -7.4904667024385994e+00  -7.3513202013963319e+00  -6.7995716983853747e+00  -6.0362038713840160e+00  -5.1696225840742835e+00  -4.2485667376293312e+00  -3.2951982799280923e+00  -2.3208361410006009e+00  -1.3323916713871644e+00  -3.3492736071892359e-01  6.6729532118072832e-01  1.6703503727516120e+00  2.6703918544841581e+00  3.6634248611054008e+00  4.6449377528956877e+00  5.6090901259518464e+00  6.5466526939306959e+00  7.4393257880176069e+00  8.2430613049123789e+00  8.8448013640207694e+00  9.0156332509348758e+00  -7.9961486709284166e+00  -7.6897861608626066e+00  -6.9791104099811143e+00  -6.1265334378057519e+00  -5.2152481959743282e+00  -4.2719157545822721e+00  -3.3071270644491717e+00  -2.3267386925576043e+00  -1.3350448874648100e+00  -3.3574210780912045e-01  6.6773692314956989e-01  1.6720931428498127e+00  2.6741036746519828e+00  3.6705823959065795e+00  4.6583169503492750e+00  5.6339117699059242e+00  6.5933260307763639e+00  7.5302234493643976e+00  8.4289207811290208e+00  9.2282386331622650e+00  9.5783087345240450e+00  -8.2889860594260512e+00  -7.7780113495211518e+00  -6.9896795459892394e+00  -6.1209574960170254e+00  -5.2084464542465758e+00  -4.2665233103946356e+00  -3.3032072051127495e+00  -2.3240165258448644e+00  -1.3332965951666993e+00  -3.3481739227639973e-01  6.6794299368217580e-01  1.6716650218590543e+00  2.6731239737069292e+00  3.6691506905379412e+00  4.6565822042142706e+00  5.6321566032962451e+00  6.5922479568849388e+00  7.5321007792216932e+00  8.4429228249674502e+00  9.2964843367332115e+00  1.0065640984581906e+01  </DataArray> 
</PointData> 
</Piece>
</UnstructuredGrid>
</VTKFile>