<?xml version="1.0"?>
<VTKFile type="UnstructuredGrid"  version="0.1"  >
<UnstructuredGrid>
<Piece  NumberOfPoints="651" NumberOfCells="1200">
<Points>
<DataArray  type="Float64"  NumberOfComponents="3"  format="ascii">0 0 0  50000 0 0  100000 0 0  150000 0 0  200000 0 0  250000 0 0  300000 0 0  350000 0 0  400000 0 0  450000 0 0  500000 0 0  550000 0 0  600000 0 0  650000 0 0  700000 0 0  750000 0 0  800000 0 0  850000 0 0  900000 0 0  950000 0 0  1000000 0 0  0 50000 0  50000 50000 0  100000 50000 0  150000 50000 0  200000 50000 0  250000 50000 0  300000 50000 0  350000 50000 0  400000 50000 0  450000 50000 0  500000 50000 0  550000 50000 0  600000 50000 0  650000 50000 0  700000 50000 0  750000 50000 0  800000 50000 0  850000 50000 0  900000 50000 0  950000 50000 0  1000000 50000 0  0 100000 0  50000 100000 0  100000 100000 0  150000 100000 0  200000 100000 0  250000 100000 0  300000 100000 0  350000 100000 0  400000 100000 0  450000 100000 0  500000 100000 0  550000 100000 0  600000 100000 0  650000 100000 0  700000 100000 0  750000 100000 0  800000 100000 0  850000 100000 0  900000 100000 0  950000 100000 0  1000000 100000 0  0 150000 0  50000 150000 0  100000 150000 0  150000 150000 0  200000 150000 0  250000 150000 0  300000 150000 0  350000 150000 0  400000 150000 0  450000 150000 0  500000 150000 0  550000 150000 0  600000 150000 0  650000 150000 0  700000 150000 0  750000 150000 0  800000 150000 0  850000 150000 0  900000 150000 0  950000 150000 0  1000000 150000 0  0 200000 0  50000 200000 0  100000 200000 0  150000 200000 0  200000 200000 0  250000 200000 0  300000 200000 0  350000 200000 0  400000 200000 0  450000 200000 0  500000 200000 0  550000 200000 0  600000 200000 0  650000 200000 0  700000 200000 0  750000 200000 0  800000 200000 0  850000 200000 0  900000 200000 0  950000 200000 0  1000000 200000 0  0 250000 0  50000 250000 0  100000 250000 0  150000 250000 0  200000 250000 0  250000 250000 0  300000 250000 0  350000 250000 0  400000 250000 0  450000 250000 0  500000 250000 0  550000 250000 0  600000 250000 0  650000 250000 0  700000 250000 0  750000 250000 0  800000 250000 0  850000 250000 0  900000 250000 0  950000 250000 0  1000000 250000 0  0 300000 0  50000 300000 0  100000 300000 0  150000 300000 0  200000 300000 0  250000 300000 0  300000 300000 0  350000 300000 0  400000 300000 0  450000 300000 0  500000 300000 0  550000 300000 0  600000 300000 0  650000 300000 0  700000 300000 0  750000 300000 0  800000 300000 0  850000 300000 0  900000 300000 0  950000 300000 0  1000000 300000 0  0 350000 0  50000 350000 0  100000 350000 0  150000 350000 0  200000 350000 0  250000 350000 0  300000 350000 0  350000 350000 0  400000 350000 0  450000 350000 0  500000 350000 0  550000 350000 0  600000 350000 0  650000 350000 0  700000 350000 0  750000 350000 0  800000 350000 0  850000 350000 0  900000 350000 0  950000 350000 0  1000000 350000 0  0 400000 0  50000 400000 0  100000 400000 0  150000 400000 0  200000 400000 0  250000 400000 0  300000 400000 0  350000 400000 0  400000 400000 0  450000 400000 0  500000 400000 0  550000 400000 0  600000 400000 0  650000 400000 0  700000 400000 0  750000 400000 0  800000 400000 0  850000 400000 0  900000 400000 0  950000 400000 0  1000000 400000 0  0 450000 0  50000 450000 0  100000 450000 0  150000 450000 0  200000 450000 0  250000 450000 0  300000 450000 0  350000 450000 0  400000 450000 0  450000 450000 0  500000 450000 0  550000 450000 0  600000 450000 0  650000 450000 0  700000 450000 0  750000 450000 0  800000 450000 0  850000 450000 0  900000 450000 0  950000 450000 0  1000000 450000 0  0 500000 0  50000 500000 0  100000 500000 0  150000 500000 0  200000 500000 0  250000 500000 0  300000 500000 0  350000 500000 0  400000 500000 0  450000 500000 0  500000 500000 0  550000 500000 0  600000 500000 0  650000 500000 0  700000 500000 0  750000 500000 0  800000 500000 0  850000 500000 0  900000 500000 0  950000 500000 0  1000000 500000 0  0 550000 0  50000 550000 0  100000 550000 0  150000 550000 0  200000 550000 0  250000 550000 0  300000 550000 0  350000 550000 0  400000 550000 0  450000 550000 0  500000 550000 0  550000 550000 0  600000 550000 0  650000 550000 0  700000 550000 0  750000 550000 0  800000 550000 0  850000 550000 0  900000 550000 0  950000 550000 0  1000000 550000 0  0 600000 0  50000 600000 0  100000 600000 0  150000 600000 0  200000 600000 0  250000 600000 0  300000 600000 0  350000 600000 0  400000 600000 0  450000 600000 0  500000 600000 0  550000 600000 0  600000 600000 0  650000 600000 0  700000 600000 0  750000 600000 0  800000 600000 0  850000 600000 0  900000 600000 0  950000 600000 0  1000000 600000 0  0 650000 0  50000 650000 0  100000 650000 0  150000 650000 0  200000 650000 0  250000 650000 0  300000 650000 0  350000 650000 0  400000 650000 0  450000 650000 0  500000 650000 0  550000 650000 0  600000 650000 0  650000 650000 0  700000 650000 0  750000 650000 0  800000 650000 0  850000 650000 0  900000 650000 0  950000 650000 0  1000000 650000 0  0 700000 0  50000 700000 0  100000 700000 0  150000 700000 0  200000 700000 0  250000 700000 0  300000 700000 0  350000 700000 0  400000 700000 0  450000 700000 0  500000 700000 0  550000 700000 0  600000 700000 0  650000 700000 0  700000 700000 0  750000 700000 0  800000 700000 0  850000 700000 0  900000 700000 0  950000 700000 0  1000000 700000 0  0 750000 0  50000 750000 0  100000 750000 0  150000 750000 0  200000 750000 0  250000 750000 0  300000 750000 0  350000 750000 0  400000 750000 0  450000 750000 0  500000 750000 0  550000 750000 0  600000 750000 0  650000 750000 0  700000 750000 0  750000 750000 0  800000 750000 0  850000 750000 0  900000 750000 0  950000 750000 0  1000000 750000 0  0 800000 0  50000 800000 0  100000 800000 0  150000 800000 0  200000 800000 0  250000 800000 0  300000 800000 0  350000 800000 0  400000 800000 0  450000 800000 0  500000 800000 0  550000 800000 0  600000 800000 0  650000 800000 0  700000 800000 0  750000 800000 0  800000 800000 0  850000 800000 0  900000 800000 0  950000 800000 0  1000000 800000 0  0 850000 0  50000 850000 0  100000 850000 0  150000 850000 0  200000 850000 0  250000 850000 0  300000 850000 0  350000 850000 0  400000 850000 0  450000 850000 0  500000 850000 0  550000 850000 0  600000 850000 0  650000 850000 0  700000 850000 0  750000 850000 0  800000 850000 0  850000 850000 0  900000 850000 0  950000 850000 0  1000000 850000 0  0 900000 0  50000 900000 0  100000 900000 0  150000 900000 0  200000 900000 0  250000 900000 0  300000 900000 0  350000 900000 0  400000 900000 0  450000 900000 0  500000 900000 0  550000 900000 0  600000 900000 0  650000 900000 0  700000 900000 0  750000 900000 0  800000 900000 0  850000 900000 0  900000 900000 0  950000 900000 0  1000000 900000 0  0 950000 0  50000 950000 0  100000 950000 0  150000 950000 0  200000 950000 0  250000 950000 0  300000 950000 0  350000 950000 0  400000 950000 0  450000 950000 0  500000 950000 0  550000 950000 0  600000 950000 0  650000 950000 0  700000 950000 0  750000 950000 0  800000 950000 0  850000 950000 0  900000 950000 0  950000 950000 0  1000000 950000 0  0 1000000 0  50000 1000000 0  100000 1000000 0  150000 1000000 0  200000 1000000 0  250000 1000000 0  300000 1000000 0  350000 1000000 0  400000 1000000 0  450000 1000000 0  500000 1000000 0  550000 1000000 0  600000 1000000 0  650000 1000000 0  700000 1000000 0  750000 1000000 0  800000 1000000 0  850000 1000000 0  900000 1000000 0  950000 1000000 0  1000000 1000000 0  0 1050000 0  50000 1050000 0  100000 1050000 0  150000 1050000 0  200000 1050000 0  250000 1050000 0  300000 1050000 0  350000 1050000 0  400000 1050000 0  450000 1050000 0  500000 1050000 0  550000 1050000 0  600000 1050000 0  650000 1050000 0  700000 1050000 0  750000 1050000 0  800000 1050000 0  850000 1050000 0  900000 1050000 0  950000 1050000 0  1000000 1050000 0  0 1100000 0  50000 1100000 0  100000 1100000 0  150000 1100000 0  200000 1100000 0  250000 1100000 0  300000 1100000 0  350000 1100000 0  400000 1100000 0  450000 1100000 0  500000 1100000 0  550000 1100000 0  600000 1100000 0  650000 1100000 0  700000 1100000 0  750000 1100000 0  800000 1100000 0  850000 1100000 0  900000 1100000 0  950000 1100000 0  1000000 1100000 0  0 1150000 0  50000 1150000 0  100000 1150000 0  150000 1150000 0  200000 1150000 0  250000 1150000 0  300000 1150000 0  350000 1150000 0  400000 1150000 0  450000 1150000 0  500000 1150000 0  550000 1150000 0  600000 1150000 0  650000 1150000 0  700000 1150000 0  750000 1150000 0  800000 1150000 0  850000 1150000 0  900000 1150000 0  950000 1150000 0  1000000 1150000 0  0 1200000 0  50000 1200000 0  100000 1200000 0  150000 1200000 0  200000 1200000 0  250000 1200000 0  300000 1200000 0  350000 1200000 0  400000 1200000 0  450000 1200000 0  500000 1200000 0  550000 1200000 0  600000 1200000 0  650000 1200000 0  700000 1200000 0  750000 1200000 0  800000 1200000 0  850000 1200000 0  900000 1200000 0  950000 1200000 0  1000000 1200000 0  0 1250000 0  50000 1250000 0  100000 1250000 0  150000 1250000 0  200000 1250000 0  250000 1250000 0  300000 1250000 0  350000 1250000 0  400000 1250000 0  450000 1250000 0  500000 1250000 0  550000 1250000 0  600000 1250000 0  650000 1250000 0  700000 1250000 0  750000 1250000 0  800000 1250000 0  850000 1250000 0  900000 1250000 0  950000 1250000 0  1000000 1250000 0  0 1300000 0  50000 1300000 0  100000 1300000 0  150000 1300000 0  200000 1300000 0  250000 1300000 0  300000 1300000 0  350000 1300000 0  400000 1300000 0  450000 1300000 0  500000 1300000 0  550000 1300000 0  600000 1300000 0  650000 1300000 0  700000 1300000 0  750000 1300000 0  800000 1300000 0  850000 1300000 0  900000 1300000 0  950000 1300000 0  1000000 1300000 0  0 1350000 0  50000 1350000 0  100000 1350000 0  150000 1350000 0  200000 1350000 0  250000 1350000 0  300000 1350000 0  350000 1350000 0  400000 1350000 0  450000 1350000 0  500000 1350000 0  550000 1350000 0  600000 1350000 0  650000 1350000 0  700000 135
[...]
<PointData  Scalars="f_7495"> 
<DataArray  type="Float64"  Name="f_7495"  format="ascii">-1.8935681145578149e+00  -1.6814002930591454e+00  -1.4466603404879543e+00  -1.1964486864116604e+00  -9.3840224152671736e-01  -6.7489562712045925e-01  -4.0721056937025579e-01  -1.3632576148841757e-01  1.3687646538191017e-01  4.1153916899145204e-01  6.8680301581042569e-01  9.6179357865746973e-01  1.2356114572770840e+00  1.5073159823441613e+00  1.7758905216805407e+00  2.0401683145612011e+00  2.2986765800835194e+00  2.5492919488276953e+00  2.7882273089170702e+00  3.0057073213210259e+00  3.1473810530152351e+00  -1.7591479861672890e+00  -1.6620474212323226e+00  -1.4424869985167794e+00  -1.1957756629810115e+00  -9.3864511741003176e-01  -6.7538821433872687e-01  -4.0773876207889914e-01  -1.3679916126518213e-01  1.3650652917035874e-01  4.1130514578989213e-01  6.8673114332362717e-01  9.6190941124106721e-01  1.2359447467610098e+00  1.5079065386556390e+00  1.7767937500621023e+00  2.0414444881293248e+00  2.3002745802614384e+00  2.5504179345820095e+00  2.7846509288617871e+00  2.9803672776194423e+00  3.0659734614725931e+00  -1.6037972316286280e+00  -1.5560458948203915e+00  -1.3906496538649826e+00  -1.1701542338810329e+00  -9.2533552089979565e-01  -6.6822630988903586e-01  -4.0384109754544695e-01  -1.3471218762775200e-01  1.3755913803260938e-01  4.1173818233236881e-01  6.8673356174503319e-01  9.6149582632886355e-01  1.2349543328894728e+00  1.5059470795464840e+00  1.7730932320846158e+00  2.0345069440093360e+00  2.2871000401521195e+00  2.5248307765078826e+00  2.7344231246105917e+00  2.8863498055567320e+00  2.9257758895526123e+00  -1.4551138545978368e+00  -1.4264886624572779e+00  -1.3021013929931218e+00  -1.1145521552738542e+00  -8.9093049070892549e-01  -6.4685982674859976e-01  -3.9057902881853007e-01  -1.2663847278674822e-01  1.4215174414931805e-01  4.1380139826426132e-01  6.8669541400754297e-01  9.5935655635488593e-01  1.2302836199247962e+00  1.4977829157593254e+00  1.7597094764383474e+00  2.0129860626294085e+00  2.2526589403091757e+00  2.4700895896853408e+00  2.6499035426219337e+00  2.7667051865625525e+00  2.7895546631280861e+00  -1.3146438704062924e+00  -1.2945760853352268e+00  -1.1969256343593087e+00  -1.0381683751626112e+00  -8.3791526219669454e-01  -6.1087604691363317e-01  -3.6661990194794375e-01  -1.1122121657326142e-01  1.5129017855992430e-01  4.1800487756015930e-01  6.8658668585186378e-01  9.5493143337497188e-01  1.2209119826705959e+00  1.4821203254128492e+00  1.7355204828646889e+00  1.9769067023515210e+00  2.2000401939080279e+00  2.3953929957072218e+00  2.5488110091153335e+00  2.6417285199903047e+00  2.6579602134520433e+00  -1.1830006082993449e+00  -1.1674542809864350e+00  -1.0873879739734997e+00  -9.5128153653010916e-01  -7.7260061443796479e-01  -5.6353571637363431e-01  -3.3341715492801410e-01  -8.8987379692899479e-02  1.6484982440824997e-01  4.2434928255594095e-01  6.8641970893142246e-01  9.4825428896775021e-01  1.2070286798127356e+00  1.4596003881194777e+00  1.7021474879755021e+00  1.9296925000454936e+00  2.1354942066649429e+00  2.3104203082285735e+00  2.4427594904612304e+00  2.5196493972401433e+00  2.5326144942656721e+00  -1.0610400394823272e+00  -1.0482327392674460e+00  -9.8022645947720521e-01  -8.6150083972210434e-01  -7.0130728399188558e-01  -5.0929054487294823e-01  -2.9381620085248999e-01  -6.1629008114359590e-02  1.8191327747777208e-01  4.3244691326497986e-01  6.8622171186456604e-01  9.3977159514652031e-01  1.1896203703145085e+00  1.4319912936922898e+00  1.6624915690734192e+00  1.8757626719541933e+00  2.0651393294651794e+00  2.2224727906563815e+00  2.3384771627335024e+00  2.4042580516150944e+00  2.4152705777469055e+00  -9.4966545048448325e-01  -9.3868490188586429e-01  -8.7931316035219109e-01  -7.7395169894595128e-01  -6.2911633287528856e-01  -4.5237781419111356e-01  -2.5097669773058556e-01  -3.1299429456911658e-02  2.0117261109575205e-01  4.4169508175135636e-01  6.8601886621614938e-01  9.3013769566486793e-01  1.1700419474024739e+00  1.4014765709518169e+00  1.6197019748748969e+00  1.8192758405361413e+00  1.9939158021987271e+00  2.1365725999845440e+00  2.2399355779959498e+00  2.2977064286021727e+00  2.3073978722353723e+00  -8.4969810715804850e-01  -8.4001549116131469e-01  -7.8704035841049669e-01  -6.9204695383121984e-01  -5.5979473308369920e-01  -3.9630160973047490e-01  -2.0778239581408400e-01  -1.3292246887711826e-04  2.2124647702624900e-01  4.5142759111698150e-01  6.8582972372344053e-01  9.2005281493475832e-01  1.1496982391000132e+00  1.3701929492593530e+00  1.5766325329032160e+00  1.7636719401912437e+00  1.9255181678822615e+00  2.0561127012675859e+00  2.1496244529958499e+00  2.2014291203359937e+00  2.2101625490618955e+00  -7.6183198853913225e-01  -7.5310872970094667e-01  -7.0497919267917275e-01  -6.1808299005434253e-01  -4.9604511420530850e-01  -3.4376446110581071e-01  -1.6661370303023562e-01  3.0004617925758155e-02  2.4087277502829960e-01  4.6101607462155914e-01  6.8566441377709408e-01  9.1016229164987106e-01  1.1298583216728568e+00  1.3399970416024993e+00  1.5356353732088750e+00  1.7116130572275756e+00  1.8626182512800629e+00  1.9834010439522818e+00  2.0691962255125418e+00  2.1164634835324607e+00  2.1244774635479864e+00  -6.8662648558816664e-01  -6.7862733109851525e-01  -6.3420194822806752e-01  -5.5362317065342137e-01  -4.3977590282851037e-01  -2.9676814078808389e-01  -1.2931943872107762e-01  5.7602931923704678e-02  2.5899642683218882e-01  4.6992248879400506e-01  6.8552634700903192e-01  9.0100852602566817e-01  1.1115746664105466e+00  1.3123867489315297e+00  1.4985383578099614e+00  1.6650790894671852e+00  1.8071164595601994e+00  1.9200245356141656e+00  1.9997903612543491e+00  2.0435819373570827e+00  2.0510498472237466e+00  -6.2451471681036985e-01  -6.1706413254962200e-01  -5.7545209897384364e-01  -4.9973701037872331e-01  -3.9231840294628717e-01  -2.5675359060862651e-01  -9.7275338590043864e-02  8.1504153600406040e-02  2.7478889526004741e-01  4.7771635782663191e-01  6.8541443316322315e-01  8.9301837580386145e-01  1.0956684172623283e+00  1.2885081555993683e+00  1.4667034680387456e+00  1.6255015463315179e+00  1.7603484621691730e+00  1.8670805348217627e+00  1.9422069216166902e+00  1.9833606616000241e+00  1.9904191460725602e+00  -5.7581789949034790e-01  -5.6877622437426278e-01  -5.2924263729842269e-01  -4.5715140921809999e-01  -3.5458651954002190e-01  -2.2473060946766951e-01  -7.1468208862006777e-02  1.0085955444235778e-01  2.8763182921774633e-01  4.8407154338739622e-01  6.8532494518688114e-01  8.8650994851190623e-01  1.0827486088816123e+00  1.2691999854863636e+00  1.4411094037186203e+00  1.5938887313614583e+00  1.7232392641815739e+00  1.8253249059084722e+00  1.8970077805731325e+00  1.9362233393344568e+00  1.9429875828365537e+00  -5.4076107630689485e-01  -5.3401058344641328e-01  -4.9591766298970424e-01  -4.2634846918987512e-01  -3.2718997762029051e-01  -2.0138248701751815e-01  -5.2576966587281407e-02  1.1507583907860747e-01  2.9708697926717481e-01  4.8875387904354678e-01  6.8525280921775622e-01  8.8170729406182757e-01  1.0732437757449129e+00  1.2550474484233587e+00  1.4224310308526544e+00  1.5709273780291431e+00  1.6964133118653018e+00  1.7952685605805396e+00  1.8645804059369793e+00  1.9024726537345236e+00  1.9090452957040036e+00  -5.1948742360592515e-01  -5.1292370432280621e-01  -4.7569262562162407e-01  -4.0762928202458371e-01  -3.1051211592136763e-01  -1.8714369633918945e-01  -4.1038831388715738e-02  1.2376619627505196e-01  3.0286536255612401e-01  4.9160691632971670e-01  6.8519237626227569e-01  8.7875597900651992e-01  1.0674334597867601e+00  1.2464308928261885e+00  1.4111042526152875e+00  1.5570583858064981e+00  1.6802705601302215e+00  1.7772408436918345e+00  1.8451798087064755e+00  1.8823137891469430e+00  1.8887905606804771e+00  -5.1206931649259702e-01  -5.0559562799175062e-01  -4.6868010148285766e-01  -4.0115421073447155e-01  -3.0476040781970376e-01  -1.8225274097766128e-01  -3.7096908519303043e-02  1.2671298842456449e-01  3.0480240626517913e-01  4.9253984766612663e-01  6.8513781240200766e-01  8.7773577713788109e-01  1.0654732185388287e+00  1.2435626363794405e+00  1.4073725333233043e+00  1.5525283657816615e+00  1.6750360326237037e+00  1.7714298355384732e+00  1.8389557262868552e+00  1.8758712527957471e+00  1.8823449412965949e+00  -5.1851493587647968e-01  -5.1203816434294536e-01  -4.7490418390247641e-01  -4.0696521888783804e-01  -3.0999493532622141e-01  -1.8678276100249613e-01  -4.0828627811283547e-02  1.2384473197781883e-01  3.0284216501724742e-01  4.9151964579749058e-01  6.8508324854174074e-01  8.7866870847429668e-01  1.0674102622478860e+00  1.2465094285289520e+00  1.4113144561927171e+00  1.5574193211431899e+00  1.6807877407253731e+00  1.7779049068285875e+00  1.8459682504256294e+00  1.8831993291268112e+00  1.8897630484099306e+00  -5.3876967090000738e-01  -5.3219702893052634e-01  -4.9430478113298149e-01  -4.2499293577654118e-01  -3.2613768706130325e-01  -2.0065175322514406e-01  -5.2155406048650627e-02  1.1522817638064897e-01  2.9703184905909746e-01  4.8856833074218814e-01  6.8502281558626443e-01  8.8152174576047204e-01  1.0731886455368407e+00  1.2551997857254054e+00  1.4228525913912928e+00  1.5716581118215298e+00  1.6974656024243033e+00  1.7966240939938853e+00  1.8661932877937191e+00  1.9042862082504302e+00  1.9110367011109108e+00  -5.7271195803254971e-01  -5.6594771453045245e-01  -5.2673215576912691e-01  -4.5504928110446508e-01  -3.5296363937756753e-01  -2.2361310655745276e-01  -7.0833778914609014e-02  1.0107563931764957e-01  2.8752701592240548e-01  4.8376567629211542e-01  6.8495067961714862e-01  8.8620408141663409e-01  1.0826437955862795e+00  1.2694160703616613e+00  1.4417438336660255e+00  1.5950062342716882e+00  1.7248621443440455e+00  1.8274270340221226e+00  1.8995182621024418e+00  1.9390518491782807e+00  1.9460935242943656e+00  -6.2014352126854932e-01  -6.1308503679601456e-01  -5.7193129681267729e-01  -4.9680491001775073e-01  -3.9007283736515858e-01  -2.5522592152750362e-01  -9.6427843234724711e-02  8.1767469204655177e-02  2.7460720754170015e-01  4.7725724900017119e-01  6.8486119164081594e-01  8.9255926697740828e-01  1.0954867295439894e+00  1.2887714712036240e+00  1.4675509633940726e+00  1.6270292154126527e+00  1.7625940277503200e+00  1.8700126351827531e+00  1.9457277237778670e+00  1.9873397573536411e+00  1.9947903416143893e+00  -6.8077422241972196e-01  -6.7330631255305851e-01  -6.2951473645032441e-01  -5.4974891081014143e-01  -4.3684083475617064e-01  -2.9480346466315116e-01  -1.2826273300592547e-01  5.7888875872507226e-02  2.5870095839349699e-01  4.6926709877837847e-01  6.8474927779502071e-01  9.0035313601004774e-01  1.1112791979718639e+00  1.3126726928803458e+00  1.4995950635251272e+00  1.6670437655921304e+00  1.8100515276325544e+00  1.9238987954574589e+00  2.0044775730321009e+00  2.0489029559025433e+00  2.0569021103921936e+00  -7.5420183874394586e-01  -7.4618785872842286e-01  -6.9892060070850437e-01  -6.1312541914824203e-01  -4.9234262647602012e-01  -3.4133743242352715e-01  -1.6535974840482551e-01  3.0278583201554229e-02  2.4041730313120510e-01  4.6011333315419600e-01  6.8461121102697753e-01  9.0925955018251314e-01  1.1294028497757738e+00  1.3402710068783155e+00  1.5368893278343074e+00  1.7140400859098763e+00  1.8663207390093657e+00  1.9883586148583918e+00  2.0752548174832151e+00  2.1233843545049846e+00  2.1321076133431665e+00  -8.3988692425784417e-01  -8.3115349553194307e-01  -7.7934882819179818e-01  -6.8583707646353220e-01  -5.5524254307820298e-01  -3.9339631538717929e-01  -2.0635690809914775e-01  8.2675544721614959e-05  2.2057738570406865e-01  4.5022280986932928e-01  6.8444590108065206e-01  9.1884803368711498e-01  1.1490291477778491e+00  1.3704085472729721e+00  1.5780580206181756e+00  1.7665772345345572e+00  1.9300703578877725e+00  2.0623225786352832e+00  2.1573159832145481e+00  2.2102911159653615e+00  2.2199737319620962e+00  -9.3712224743130956e-01  -9.2743080379810772e-01  -8.6965995319188494e-01  -7.6629697518047879e-01  -6.2364017739465338e-01  -4.4900021573205989e-01  -2.4942635007081057e-01  -3.1200946147722616e-02  2.0023367740162581e-01  4.4013792913923605e-01  6.8425675858796076e-01  9.2858054305275917e-01  1.1691030137083653e+00  1.4015750542610259e+00  1.6212523225346935e+00  1.8226534389952103e+00  1.9993919576793773e+00  2.1442273237500307e+00  2.2495887851562575e+00  2.3089605266899271e+00  2.3199410752885448e+00  -1.0449949529428280e+00  -1.0339824268110183e+00  -9.6820153792942942e-01  -8.5219716585230620e-01  -6.9486370466109237e-01  -5.0548704715009640e-01  -2.9221594426931330e-01  -6.1715668888174563e-02  1.8065525448961298e-01  4.3050402965760542e-01  6.8405391293956452e-01  9.3782871153915370e-01  1.1883623473263625e+00  1.4319046329184875e+00  1.6640918256566142e+00  1.8795661696770614e+00  2.0715829087959921e+00  2.2317764645262010e+00  2.3505020842812900e+00  2.4185083640715237e+00  2.4313156642864047e+00  -1.1623388694615786e+00  -1.1493737724360518e+00  -1.0724838656571363e+00  -9.4014468342447444e-01  -7.6521858186083669e-01  -5.5941687524138373e-01  -3.3187186317138040e-01  -8.9324763315340727e-02  1.6324694499140505e-01  4.2202133583639356e-01  6.8385591587272743e-01  9.4592634224821004e-01  1.2054258003959040e+00  1.4592630044970458e+00  1.7036927797321537e+00  1.9338113411777673e+00  2.1428762392420877e+00  2.3215571613342241e+00  2.4576635987776005e+00  2.5377299057905276e+00  2.5532762331034351e+00  -1.2876845886479367e+00  -1.2714528951861979e+00  -1.1785353843112218e+00  -1.0251173709031072e+00  -8.2976456910390484e-01  -6.0663107754739498e-01  -3.6524485806055101e-01  -1.1184470060869821e-01  1.4936364213355932e-01  4.1534419142918405e-01  6.8368893895229899e-01  9.5227074724400484e-01  1.2189854462442395e+00  1.4814968413774214e+00  1.7368955267520991e+00  1.9811516717177859e+00  2.2081908870008302e+00  2.4084439999667380e+00  2.5672012591634261e+00  2.6648517101393354e+00  2.6849194952103992e+00  -1.4192790383239673e+00  -1.3964295617584326e+00  -1.2796279178178074e+00  -1.0998139648812100e+00  -8.8238331550504201e-01  -6.4271043782526727e-01  -3.8943385163419802e-01  -1.2750729095516491e-01  1.3999200487936850e-01  4.1091906844928044e-01  6.8358021079662856e-01  9.5647422653991243e-01  1.2281238806548540e+00  1.4969140975909185e+00  1.7608546536227008e+00  2.0171354515527615e+00  2.2612061155130778e+00  2.4848277800779934e+00  2.6723770177972490e+00  2.7967642872613969e+00  2.8253894794019545e+00  -1.5555002647484828e+00  -1.5160741807525981e+00  -1.3641474998064547e+00  -1.1545551517037396e+00  -9.1682441534797743e-01  -6.6423131920518808e-01  -4.0281760728045846e-01  -1.3567145474231759e-01  1.3532129191469519e-01  4.0877979847530782e-01  6.8354206305914433e-01  9.5853744247180950e-01  1.2327164867715708e+00  1.5049878124319274e+00  1.7741167223496213e+00  2.0385019346932025e+00  2.2956111457039534e+00  2.5404298586851795e+00  2.7609252786691187e+00  2.9263215196245187e+00  2.9740728564327563e+00  -1.6956978366684625e+00  -1.6100916528153095e+00  -1.4143753040576559e+00  -1.1801423097778707e+00  -9.2999895545729350e-01  -6.7116886332517145e-01  -4.0651812525794279e-01  -1.3763091385147216e-01  1.3433087804316082e-01  4.0836621356310621e-01  6.8354448148055014e-01  9.5897047901428822e-01  1.2337690956338225e+00  1.5070747860693621e+00  1.7780143868830751e+00  2.0456638391428936e+00  2.3089207422141924e+00  2.5660512877851622e+00  2.8127626233209235e+00  3.0323230460364567e+00  3.1294236109714220e+00  -1.7771054282111023e+00  -1.6354316965168925e+00  -1.4179516841129352e+00  -1.1790163240235558e+00  -9.2840095527937216e-01  -6.6989268975704719e-01  -4.0561489687637931e-01  -1.3704035753999425e-01  1.3466416752708824e-01  4.0848204614670558e-01  6.8347260899375306e-01  9.5873645581272615e-01  1.2333991594222722e+00  1.5066013862925978e+00  1.7774861941744340e+00  2.0451712519246281e+00  2.3086778663308798e+00  2.5667243112158133e+00  2.8169359652920982e+00  3.0516759178632822e+00  3.2638437393619504e+00  </DataArray> 
</PointData> 
</Piece>
</UnstructuredGrid>
</VTKFile>