<?xml version="1.0"?>
<VTKFile type="UnstructuredGrid"  version="0.1"  >
<UnstructuredGrid>
<Piece  NumberOfPoints="651" NumberOfCells="1200">
<Points>
<DataArray  type="Float64"  NumberOfComponents="3"  format="ascii">0 0 0  50000 0 0  100000 0 0  150000 0 0  200000 0 0  250000 0 0  300000 0 0  350000 0 0  400000 0 0  450000 0 0  500000 0 0  550000 0 0  600000 0 0  650000 0 0  700000 0 0  750000 0 0  800000 0 0  850000 0 0  900000 0 0  950000 0 0  1000000 0 0  0 50000 0  50000 50000 0  100000 50000 0  150000 50000 0  200000 50000 0  250000 50000 0  300000 50000 0  350000 50000 0  400000 50000 0  450000 50000 0  500000 50000 0  550000 50000 0  600000 50000 0  650000 50000 0  700000 50000 0  750000 50000 0  800000 50000 0  850000 50000 0  900000 50000 0  950000 50000 0  1000000 50000 0  0 100000 0  50000 100000 0  100000 100000 0  150000 100000 0  200000 100000 0  250000 100000 0  300000 100000 0  350000 100000 0  400000 100000 0  450000 100000 0  500000 100000 0  550000 100000 0  600000 100000 0  650000 100000 0  700000 100000 0  750000 100000 0  800000 100000 0  850000 100000 0  900000 100000 0  950000 100000 0  1000000 100000 0  0 150000 0  50000 150000 0  100000 150000 0  150000 150000 0  200000 150000 0  250000 150000 0  300000 150000 0  350000 150000 0  400000 150000 0  450000 150000 0  500000 150000 0  550000 150000 0  600000 150000 0  650000 150000 0  700000 150000 0  750000 150000 0  800000 150000 0  850000 150000 0  900000 150000 0  950000 150000 0  1000000 150000 0  0 200000 0  50000 200000 0  100000 200000 0  150000 200000 0  200000 200000 0  250000 200000 0  300000 200000 0  350000 200000 0  400000 200000 0  450000 200000 0  500000 200000 0  550000 200000 0  600000 200000 0  650000 200000 0  700000 200000 0  750000 200000 0  800000 200000 0  850000 200000 0  900000 200000 0  950000 200000 0  1000000 200000 0  0 250000 0  50000 250000 0  100000 250000 0  150000 250000 0  200000 250000 0  250000 250000 0  300000 250000 0  350000 250000 0  400000 250000 0  450000 250000 0  500000 250000 0  550000 250000 0  600000 250000 0  650000 250000 0  700000 250000 0  750000 250000 0  800000 250000 0  850000 250000 0  900000 250000 0  950000 250000 0  1000000 250000 0  0 300000 0  50000 300000 0  100000 300000 0  150000 300000 0  200000 300000 0  250000 300000 0  300000 300000 0  350000 300000 0  400000 300000 0  450000 300000 0  500000 300000 0  550000 300000 0  600000 300000 0  650000 300000 0  700000 300000 0  750000 300000 0  800000 300000 0  850000 300000 0  900000 300000 0  950000 300000 0  1000000 300000 0  0 350000 0  50000 350000 0  100000 350000 0  150000 350000 0  200000 350000 0  250000 350000 0  300000 350000 0  350000 350000 0  400000 350000 0  450000 350000 0  500000 350000 0  550000 350000 0  600000 350000 0  650000 350000 0  700000 350000 0  750000 350000 0  800000 350000 0  850000 350000 0  900000 350000 0  950000 350000 0  1000000 350000 0  0 400000 0  50000 400000 0  100000 400000 0  150000 400000 0  200000 400000 0  250000 400000 0  300000 400000 0  350000 400000 0  400000 400000 0  450000 400000 0  500000 400000 0  550000 400000 0  600000 400000 0  650000 400000 0  700000 400000 0  750000 400000 0  800000 400000 0  850000 400000 0  900000 400000 0  950000 400000 0  1000000 400000 0  0 450000 0  50000 450000 0  100000 450000 0  150000 450000 0  200000 450000 0  250000 450000 0  300000 450000 0  350000 450000 0  400000 450000 0  450000 450000 0  500000 450000 0  550000 450000 0  600000 450000 0  650000 450000 0  700000 450000 0  750000 450000 0  800000 450000 0  850000 450000 0  900000 450000 0  950000 450000 0  1000000 450000 0  0 500000 0  50000 500000 0  100000 500000 0  150000 500000 0  200000 500000 0  250000 500000 0  300000 500000 0  350000 500000 0  400000 500000 0  450000 500000 0  500000 500000 0  550000 500000 0  600000 500000 0  650000 500000 0  700000 500000 0  750000 500000 0  800000 500000 0  850000 500000 0  900000 500000 0  950000 500000 0  1000000 500000 0  0 550000 0  50000 550000 0  100000 550000 0  150000 550000 0  200000 550000 0  250000 550000 0  300000 550000 0  350000 550000 0  400000 550000 0  450000 550000 0  500000 550000 0  550000 550000 0  600000 550000 0  650000 550000 0  700000 550000 0  750000 550000 0  800000 550000 0  850000 550000 0  900000 550000 0  950000 550000 0  1000000 550000 0  0 600000 0  50000 600000 0  100000 600000 0  150000 600000 0  200000 600000 0  250000 600000 0  300000 600000 0  350000 600000 0  400000 600000 0  450000 600000 0  500000 600000 0  550000 600000 0  600000 600000 0  650000 600000 0  700000 600000 0  750000 600000 0  800000 600000 0  850000 600000 0  900000 600000 0  950000 600000 0  1000000 600000 0  0 650000 0  50000 650000 0  100000 650000 0  150000 650000 0  200000 650000 0  250000 650000 0  300000 650000 0  350000 650000 0  400000 650000 0  450000 650000 0  500000 650000 0  550000 650000 0  600000 650000 0  650000 650000 0  700000 650000 0  750000 650000 0  800000 650000 0  850000 650000 0  900000 650000 0  950000 650000 0  1000000 650000 0  0 700000 0  50000 700000 0  100000 700000 0  150000 700000 0  200000 700000 0  250000 700000 0  300000 700000 0  350000 700000 0  400000 700000 0  450000 700000 0  500000 700000 0  550000 700000 0  600000 700000 0  650000 700000 0  700000 700000 0  750000 700000 0  800000 700000 0  850000 700000 0  900000 700000 0  950000 700000 0  1000000 700000 0  0 750000 0  50000 750000 0  100000 750000 0  150000 750000 0  200000 750000 0  250000 750000 0  300000 750000 0  350000 750000 0  400000 750000 0  450000 750000 0  500000 750000 0  550000 750000 0  600000 750000 0  650000 750000 0  700000 750000 0  750000 750000 0  800000 750000 0  850000 750000 0  900000 750000 0  950000 750000 0  1000000 750000 0  0 800000 0  50000 800000 0  100000 800000 0  150000 800000 0  200000 800000 0  250000 800000 0  300000 800000 0  350000 800000 0  400000 800000 0  450000 800000 0  500000 800000 0  550000 800000 0  600000 800000 0  650000 800000 0  700000 800000 0  750000 800000 0  800000 800000 0  850000 800000 0  900000 800000 0  950000 800000 0  1000000 800000 0  0 850000 0  50000 850000 0  100000 850000 0  150000 850000 0  200000 850000 0  250000 850000 0  300000 850000 0  350000 850000 0  400000 850000 0  450000 850000 0  500000 850000 0  550000 850000 0  600000 850000 0  650000 850000 0  700000 850000 0  750000 850000 0  800000 850000 0  850000 850000 0  900000 850000 0  950000 850000 0  1000000 850000 0  0 900000 0  50000 900000 0  100000 900000 0  150000 900000 0  200000 900000 0  250000 900000 0  300000 900000 0  350000 900000 0  400000 900000 0  450000 900000 0  500000 900000 0  550000 900000 0  600000 900000 0  650000 900000 0  700000 900000 0  750000 900000 0  800000 900000 0  850000 900000 0  900000 900000 0  950000 900000 0  1000000 900000 0  0 950000 0  50000 950000 0  100000 950000 0  150000 950000 0  200000 950000 0  250000 950000 0  300000 950000 0  350000 950000 0  400000 950000 0  450000 950000 0  500000 950000 0  550000 950000 0  600000 950000 0  650000 950000 0  700000 950000 0  750000 950000 0  800000 950000 0  850000 950000 0  900000 950000 0  950000 950000 0  1000000 950000 0  0 1000000 0  50000 1000000 0  100000 1000000 0  150000 1000000 0  200000 1000000 0  250000 1000000 0  300000 1000000 0  350000 1000000 0  400000 1000000 0  450000 1000000 0  500000 1000000 0  550000 1000000 0  600000 1000000 0  650000 1000000 0  700000 1000000 0  750000 1000000 0  800000 1000000 0  850000 1000000 0  900000 1000000 0  950000 1000000 0  1000000 1000000 0  0 1050000 0  50000 1050000 0  100000 1050000 0  150000 1050000 0  200000 1050000 0  250000 1050000 0  300000 1050000 0  350000 1050000 0  400000 1050000 0  450000 1050000 0  500000 1050000 0  550000 1050000 0  600000 1050000 0  650000 1050000 0  700000 1050000 0  750000 1050000 0  800000 1050000 0  850000 1050000 0  900000 1050000 0  950000 1050000 0  1000000 1050000 0  0 1100000 0  50000 1100000 0  100000 1100000 0  150000 1100000 0  200000 1100000 0  250000 1100000 0  300000 1100000 0  350000 1100000 0  400000 1100000 0  450000 1100000 0  500000 1100000 0  550000 1100000 0  600000 1100000 0  650000 1100000 0  700000 1100000 0  750000 1100000 0  800000 1100000 0  850000 1100000 0  900000 1100000 0  950000 1100000 0  1000000 1100000 0  0 1150000 0  50000 1150000 0  100000 1150000 0  150000 1150000 0  200000 1150000 0  250000 1150000 0  300000 1150000 0  350000 1150000 0  400000 1150000 0  450000 1150000 0  500000 1150000 0  550000 1150000 0  600000 1150000 0  650000 1150000 0  700000 1150000 0  750000 1150000 0  800000 1150000 0  850000 1150000 0  900000 1150000 0  950000 1150000 0  1000000 1150000 0  0 1200000 0  50000 1200000 0  100000 1200000 0  150000 1200000 0  200000 1200000 0  250000 1200000 0  300000 1200000 0  350000 1200000 0  400000 1200000 0  450000 1200000 0  500000 1200000 0  550000 1200000 0  600000 1200000 0  650000 1200000 0  700000 1200000 0  750000 1200000 0  800000 1200000 0  850000 1200000 0  900000 1200000 0  950000 1200000 0  1000000 1200000 0  0 1250000 0  50000 1250000 0  100000 1250000 0  150000 1250000 0  200000 1250000 0  250000 1250000 0  300000 1250000 0  350000 1250000 0  400000 1250000 0  450000 1250000 0  500000 1250000 0  550000 1250000 0  600000 1250000 0  650000 1250000 0  700000 1250000 0  750000 1250000 0  800000 1250000 0  850000 1250000 0  900000 1250000 0  950000 1250000 0  1000000 1250000 0  0 1300000 0  50000 1300000 0  100000 1300000 0  150000 1300000 0  200000 1300000 0  250000 1300000 0  300000 1300000 0  350000 1300000 0  400000 1300000 0  450000 1300000 0  500000 1300000 0  550000 1300000 0  600000 1300000 0  650000 1300000 0  700000 1300000 0  750000 1300000 0  800000 1300000 0  850000 1300000 0  900000 1300000 0  950000 1300000 0  1000000 1300000 0  0 1350000 0  50000 1350000 0  100000 1350000 0  150000 1350000 0  200000 1350000 0  250000 1350000 0  300000 1350000 0  350000 1350000 0  400000 1350000 0  450000 1350000 0  500000 1350000 0  550000 1350000 0  600000 1350000 0  650000 1350000 0  700000 135
[...]
<PointData  Scalars="f_7495"> 
<DataArray  type="Float64"  Name="f_7495"  format="ascii">-3.1009281467229526e+00  -2.7904489534934882e+00  -2.4464976504462461e+00  -2.0797109873720139e+00  -1.7013585108691363e+00  -1.3149462643027727e+00  -9.2236776694935352e-01  -5.2506741687538605e-01  -1.2434572637338825e-01  2.7853547368726128e-01  6.8231155733771010e-01  1.0856957913624758e+00  1.4873640188497339e+00  1.8859296309837370e+00  2.2798910381716202e+00  2.6675201911158024e+00  3.0466285650660216e+00  3.4140493779384142e+00  3.7641234175509100e+00  4.0823390785796052e+00  4.2891786757568866e+00  -2.9042312226863731e+00  -2.7624753842676761e+00  -2.4405985359985864e+00  -2.0788328003525671e+00  -1.7017532521865519e+00  -1.3156620521641553e+00  -9.2310421287118083e-01  -5.2569947361658287e-01  -1.2480662063607369e-01  2.7829000782539443e-01  6.8231712486149598e-01  1.0859871156919383e+00  1.4879822316099907e+00  1.8869315998556198e+00  2.2813591784789140e+00  2.6695501343291004e+00  3.0491653018035514e+00  3.4159736962730873e+00  3.7593197888046141e+00  4.0459045100211473e+00  4.1704609900891425e+00  -2.6769946245956420e+00  -2.6075133145268841e+00  -2.3651104492989208e+00  -2.0416917532249790e+00  -1.6825536852147098e+00  -1.3053784169207530e+00  -9.1752416876812237e-01  -5.2270411720073229e-01  -1.2326649548344763e-01  2.7897698635675133e-01  6.8242391462312002e-01  1.0855326923672994e+00  1.4867300097355660e+00  1.8843078357501661e+00  2.2762361304523755e+00  2.6597421478821697e+00  3.0302846411972277e+00  3.3789761771536586e+00  3.6862816481150924e+00  3.9087536595462495e+00  3.9657669383351615e+00  -2.4595128167717992e+00  -2.4179992698336239e+00  -2.2357606234245755e+00  -1.9606475150697666e+00  -1.6325255954728555e+00  -1.2743798110533511e+00  -8.9831632794283367e-01  -5.1101433020436993e-01  -1.1659613561791025e-01  2.8201903922724830e-01  6.8246179936526563e-01  1.0825643058992196e+00  1.4801228755021598e+00  1.8726506003375389e+00  2.2569970967357982e+00  2.6286412441181053e+00  2.9803019461574283e+00  3.2992764507366443e+00  3.5629487847703616e+00  3.7339591102356229e+00  3.7668570099308587e+00  -2.2540343881450911e+00  -2.2250031099722616e+00  -2.0819726720762555e+00  -1.8490875637731365e+00  -1.5552041718934762e+00  -1.2219701152343601e+00  -8.6345783338724424e-01  -4.8859218029672880e-01  -1.0328969033931662e-01  2.8817992605004861e-01  6.8238866929819042e-01  1.0762487714137963e+00  1.4666380927930069e+00  1.8500211758118081e+00  2.2219389444142243e+00  2.5762116660676955e+00  2.9036683379036443e+00  3.1902969817551945e+00  3.4152755681243638e+00  3.5512933635157795e+00  3.5746076226508445e+00  -2.0614460000894619e+00  -2.0389928759019638e+00  -1.9217342731321549e+00  -1.7220657756408995e+00  -1.4598001715116617e+00  -1.1528808152569505e+00  -8.1503473310078389e-01  -4.5617457200243794e-01  -8.3504931482960926e-02  2.9747456279724016e-01  6.8222575088785808e-01  1.0666283248231909e+00  1.4465356988962503e+00  1.8173329318320051e+00  2.1734052533327199e+00  2.5074372765756370e+00  2.8095172705873916e+00  3.0662124672397502e+00  3.2602913994693612e+00  3.3728326046823436e+00  3.3914265042102425e+00  -1.8829959121608968e+00  -1.8645196918382696e+00  -1.7649264115227403e+00  -1.5907394476301011e+00  -1.3555706437643724e+00  -1.0736189925238235e+00  -7.5719577534559901e-01  -4.1622116287692723e-01  -5.8570658765702693e-02  3.0934446311849828e-01  6.8201609662159279e-01  1.0543540188746372e+00  1.4212527890724542e+00  1.7771643025346662e+00  2.1156333350020868e+00  2.4287824711148227e+00  2.7068092525671217e+00  2.9377246549585014e+00  3.1078623721430976e+00  3.2041362052009759e+00  3.2199086278666553e+00  -1.7200058182939284e+00  -1.7041785646602463e+00  -1.6172265885539656e+00  -1.4626264748486502e+00  -1.2499655753699683e+00  -9.9039211543686823e-01  -6.9456452760005460e-01  -3.7187895989981812e-01  -3.0395668077475034e-02  3.2291201640604400e-01  6.8180058399737198e-01  1.0403841813544559e+00  1.3927718381126524e+00  1.7327108592792029e+00  2.0532344767389330e+00  2.3463400312405032e+00  2.6027857972681385e+00  2.8121974232508191e+00  2.9638120277468958e+00  3.0483603513381845e+00  3.0622232774614022e+00  -1.5736795940318147e+00  -1.5597334245181194e+00  -1.4821426943705243e+00  -1.3427339598819643e+00  -1.1485113522977621e+00  -9.0833891432736125e-01  -6.3136754077533286e-01  -3.2627393198839311e-01  -1.0015939604792715e-03  3.3720344979116179e-01  6.8160810899917557e-01  1.0257457453045815e+00  1.3631517652830352e+00  1.6871042113469854e+00  1.9903921156251634e+00  2.2651538291324642e+00  2.5028651953813839e+00  2.6946070943911091e+00  2.8317914482217201e+00  2.9076097949188795e+00  2.9200890727666131e+00  -1.4450359709955745e+00  -1.4324803996038267e+00  -1.3619793221278729e+00  -1.2344320405703997e+00  -1.0551746582521486e+00  -8.3142527280895540e-01  -5.7109690763072862e-01  -2.8214230870715412e-01  2.7761602481330215e-02  3.5129838776106515e-01  6.8145445692034912e-01  1.0113856976872597e+00  1.3342540576368171e+00  1.6430675551245812e+00  1.9305565267923475e+00  2.1891292088863077e+00  2.4109673029870877e+00  2.5883394865200455e+00  2.7142243974891915e+00  2.7834069000693353e+00  2.7948495094916375e+00  -1.3348972494183882e+00  -1.3233922648972418e+00  -1.2583103543484542e+00  -1.1400160931939449e+00  -9.7275778813007385e-01  -7.6259034711309148e-01  -5.1646673897922779e-01  -2.4170068929626565e-01  5.4345780716780812e-02  3.6440762155343132e-01  6.8134494076336938e-01  9.9810014162067928e-01  1.3076231954773632e+00  1.6027990050344798e+00  1.8764101300055342e+00  2.1211718061123093e+00  2.3298810497885296e+00  2.4957231744454229e+00  2.6127825693308830e+00  2.6768852555291835e+00  2.6875441616368572e+00  -1.2439010971272924e+00  -1.2331935877949596e+00  -1.1722280875283810e+00  -1.0610573817203381e+00  -9.0321663792618256e-01  -7.0395099087918456e-01  -4.6949787914785185e-01  -2.0664967359679043e-01  7.7534163180984633e-02  3.7589896179323684e-01  6.8127780702723328e-01  9.8651556634516901e-01  1.2844644799939811e+00  1.5679809026630971e+00  1.8299522522887610e+00  2.0633830225947718e+00  2.2615670304811317e+00  2.4183686679638807e+00  2.5286398399983834e+00  2.5888902490203196e+00  2.5989649653464353e+00  -1.1725213342630851e+00  -1.1624103481489609e+00  -1.1044871527693998e+00  -9.9862471153968024e-01  -8.4789475548436377e-01  -6.5699157072818692e-01  -4.3164076649832239e-01  -1.7823667694148307e-01  9.6417900761036665e-02  3.8529287114994110e-01  6.8124710207924355e-01  9.7709870017316514e-01  1.2656719105500602e+00  1.5398445871674498e+00  1.7926198175693235e+00  2.0172432389300923e+00  2.2073831990906583e+00  2.3573853506060263e+00  2.4626205294652350e+00  2.5200431883467953e+00  2.5297015871724757e+00  -1.1210907810335795e+00  -1.1114072140518239e+00  -1.0555945855679150e+00  -9.5342773923009205e-01  -8.0768925941127157e-01  -6.2271722516670791e-01  -4.0389399878418697e-01  -1.5733435347242727e-01  1.1035227028032397e-01  3.9224456124056029e-01  6.8124466809621043e-01  9.7017802676518761e-01  1.2518743986596668e+00  1.5192491577333631e+00  1.7654036473908712e+00  1.9837606916031796e+00  2.1682462131937279e+00  2.3135229522224972e+00  2.4152928416276547e+00  2.4707875156573476e+00  2.4801786562738348e+00  -1.0898220891364869e+00  -1.0804161069286842e+00  -1.0258686418564134e+00  -9.2591039136711917e-01  -7.8316483764433720e-01  -6.0176770019952552e-01  -3.8690125989536966e-01  -1.4451220260819911e-01  1.1891163303143872e-01  3.9652323091963704e-01  6.8126135359197459e-01  9.6596663342682965e-01  1.2434819243745792e+00  1.5067527405866552e+00  1.7489435083261724e+00  1.9635824686789691e+00  2.1447429292062905e+00  2.2872644464932055e+00  2.3870303319021846e+00  2.4414232987332678e+00  2.4506856388175495e+00  -1.0788238727935828e+00  -1.0695566244878425e+00  -1.0154764544447192e+00  -9.1630983593948134e-01  -7.7462777036829966e-01  -5.9449478929526478e-01  -3.8102102405212623e-01  -1.4009118962241335e-01  1.2185308387460275e-01  3.9799444351852259e-01  6.8128764570923050e-01  9.6458084789992837e-01  1.2407222075438487e+00  1.5026664810408605e+00  1.7435963154705667e+00  1.9570700807137063e+00  2.1372030617867401e+00  2.2788851273579294e+00  2.3780517458631638e+00  2.4321319159062873e+00  2.4413991642120307e+00  -1.0881103473991034e+00  -1.0788480073148214e+00  -1.0244550404837387e+00  -9.2468915507476346e-01  -7.8216763778784881e-01  -6.0100717726052810e-01  -3.8636821690772960e-01  -1.4417744916820699e-01  1.1909336704387008e-01  3.9660865799162420e-01  6.8131393782648875e-01  9.6605206049882208e-01  1.2436636583870166e+00  1.5070874940266463e+00  1.7494765513138124e+00  1.9643429916179691e+00  2.1457401290627875e+00  2.2884856827855709e+00  2.3884439332748726e+00  2.4429913983471461e+00  2.4523973805549479e+00  -1.1176033648553909e+00  -1.1082122242389028e+00  -1.0527175502092110e+00  -9.5094766080405202e-01  -8.0567092177528821e-01  -6.2118540018474344e-01  -4.0282835597242839e-01  -1.5667386631491612e-01  1.1070089275878692e-01  3.9239726465327351e-01  6.8133062332225902e-01  9.7033073017790705e-01  1.2522230211381393e+00  1.5199096448908864e+00  1.7664692902026446e+00  1.9852925165851674e+00  2.1702645508297334e+00  2.3160030306485528e+00  2.4181698769863886e+00  2.4739825054703073e+00  2.4836660724520581e+00  -1.1671262957540187e+00  -1.1574678969283376e+00  -1.1000452380467778e+00  -9.9481005918756760e-01  -8.4480790767220526e-01  -6.5466794751164292e-01  -4.3004452615086930e-01  -1.7726929574899214e-01  9.6903380868405234e-02  3.8547659124530520e-01  6.8132818933923966e-01  9.7728242026854228e-01  1.2661573906574419e+00  1.5408119683599522e+00  1.7942160579167918e+00  2.0195668621466583e+00  2.2104700469028438e+00  2.3612000029581601e+00  2.4670624441878779e+00  2.5249856395674395e+00  2.5350966256815637e+00  -1.2363896739279701e+00  -1.2263149576018564e+00  -1.1660645485799166e+00  -1.0557933765454179e+00  -8.9899173906266716e-01  -7.0080773117631034e-01  -4.6737696087029240e-01  -2.0540561124462423e-01  7.8110811424499535e-02  3.7605972507331709e-01  6.8129748439126314e-01  9.8667632962526175e-01  1.2850411282375109e+00  1.5692249650152756e+00  1.8320731705663333e+00  2.0665262822976658e+00  2.2657919293446755e+00  2.4236326731388265e+00  2.5348033789468625e+00  2.5957688792134355e+00  2.6064763885457696e+00  -1.3249688702183731e+00  -1.3143099641107003e+00  -1.2502072779123987e+00  -1.1331478830269439e+00  -9.6730575837004551e-01  -7.5859651469381872e-01  -5.1383483858704238e-01  -2.4022371361598530e-01  5.4952095941140790e-02  3.6447514979782958e-01  6.8123035065514848e-01  9.9816766986508587e-01  1.3082295107017377e+00  1.6042759807147802e+00  1.8790420303977413e+00  2.1251656385316018e+00  2.3353330795485814e+00  2.5025913846124417e+00  2.6208856457669460e+00  2.6859675563157279e+00  2.6974725408368725e+00  -1.4322742180731276e+00  -1.4208316086508330e+00  -1.3516491060706866e+00  -1.2257641951015423e+00  -1.0483920115685821e+00  -8.2655391746779527e-01  -5.6798123537383427e-01  -2.8049226370606267e-01  2.8321233781712345e-02  3.5118959373127762e-01  6.8112083449819705e-01  1.0112769036574809e+00  1.3348136889372177e+00  1.6447176001257033e+00  1.9336721990492747e+00  2.1940005642274936e+00  2.4177499496706774e+00  2.5970073319889138e+00  2.7245546135463785e+00  2.7950556910223239e+00  2.8076112624140657e+00  -1.5575137813480948e+00  -1.5450345035003661e+00  -1.4692161568031994e+00  -1.3320318029725855e+00  -1.1402899039628567e+00  -9.0257853771392826e-01  -6.2781682420662310e-01  -3.2452891992843441e-01  -5.7647386447430549e-04  3.3682954611398697e-01  6.8096718241940057e-01  1.0253718416274193e+00  1.3635768853790615e+00  1.6888492234069734e+00  1.9939428321939074e+00  2.2709142057459215e+00  2.5110866437163097e+00  2.7053092513004979e+00  2.8447179857890417e+00  2.9223087159366292e+00  2.9362548854503268e+00  -1.6996479860428670e+00  -1.6857850599196449e+00  -1.6012367363283551e+00  -1.4496221318322791e+00  -1.2402105058495891e+00  -9.8376473982194279e-01  -6.9065918532036374e-01  -3.7013556786062324e-01  -3.0196546694063530e-02  3.2219111006413875e-01  6.8077470742123047e-01  1.0396632750125647e+00  1.3929709594960860e+00  1.7344542513184242e+00  2.0571398190186514e+00  2.3529674068554489e+00  2.6125408667885406e+00  2.8252017662672060e+00  2.9798018799725088e+00  3.0667538560787815e+00  3.0825811097124625e+00  -1.8573333364481004e+00  -1.8415609137824220e+00  -1.7452870807245491e+00  -1.5751493635399481e+00  -1.3442339611485505e+00  -1.0662071796962374e+00  -7.5305804358348938e-01  -4.1458901111605417e-01  -5.8677497653833781e-02  3.0822127254398818e-01  6.8055919479703886e-01  1.0532308283001366e+00  1.4211459501843393e+00  1.7787964542955532e+00  2.1197710667642182e+00  2.4361942839424260e+00  2.7181459351829687e+00  2.9533147390486838e+00  3.1275017029413061e+00  3.2270949832568254e+00  3.2455712035794528e+00  -2.0288512127916669e+00  -2.0102573132637698e+00  -1.8977161080507798e+00  -1.7036371758211644e+00  -1.4469419791687925e+00  -1.1448619851570336e+00  -8.1082996191409740e-01  -4.5475764041336131e-01  -8.3960407477601529e-02  2.9594696659546027e-01  6.8034954053080143e-01  1.0651007286214211e+00  1.4460802229016270e+00  1.8187498634210908e+00  2.1776100245194274e+00  2.5154561066755865e+00  2.8223754629302853e+00  3.0846410670595117e+00  3.2843095645507474e+00  3.4015681673205465e+00  3.4240212915080406e+00  -2.2120323312322463e+00  -2.1887180720971804e+00  -2.0527002767057576e+00  -1.8277216903365834e+00  -1.5410930464850201e+00  -1.2136363746490690e+00  -8.5936365299557960e-01  -4.8744588439314496e-01  -1.0406280137433775e-01  2.8632652000487230e-01  6.8018662212048819e-01  1.0743953653686320e+00  1.4658649817579970e+00  1.8511674717154021e+00  2.2260331248059129e+00  2.5845454066530267e+00  2.9177794633121228e+00  3.2116628551917681e+00  3.4445479634948759e+00  3.5875784013908683e+00  3.6166096795636937e+00  -2.4042817185122414e+00  -2.3713838188170038e+00  -2.2003734933517363e+00  -1.9367011593180097e+00  -1.6177266547387883e+00  -1.2660659526994564e+00  -8.9442180531713567e-01  -5.1007530891886355e-01  -1.1754758408347686e-01  2.8001098551946396e-01  6.8011349205342531e-01  1.0805562521914454e+00  1.4791714270366021e+00  1.8735896216230568e+00  2.2608916193615256e+00  2.6369551024720339e+00  2.9951008868915272e+00  3.3232228064884177e+00  3.5983359148432132e+00  3.7805745612522483e+00  3.8220881081904197e+00  -2.6031916469165259e+00  -2.5461783681276073e+00  -2.3237063566964515e+00  -2.0164008857350098e+00  -1.6677093497785795e+00  -1.2971668564635139e+00  -9.1366083903370454e-01  -5.2173254433148319e-01  -1.2415471831687935e-01  2.7704259905139095e-01  6.8015137679557958e-01  1.0835983050619493e+00  1.4858417869021501e+00  1.8852794086194262e+00  2.2800994601868187e+00  2.6679537083394420e+00  3.0451289766333884e+00  3.4042670446436394e+00  3.7276857407175692e+00  3.9700886059455187e+00  4.0395699160142824e+00  -2.8078856986705105e+00  -2.6833292186025122e+00  -2.3967444973859862e+00  -2.0533984048544478e+00  -1.6865900103848994e+00  -1.3069748429104355e+00  -9.1878388706023972e-01  -5.2435630843693581e-01  -1.2540694019130016e-01  2.7658817572675570e-01  6.8025816655720317e-01  1.0842852835933081e+00  1.4873819120547778e+00  1.8882747650352840e+00  2.2856795042898779e+00  2.6782373435828424e+00  3.0643285436052325e+00  3.4414080917712333e+00  3.8031738274172473e+00  4.1250506756863201e+00  4.2668065141050171e+00  -2.9266033843382506e+00  -2.7197637871609683e+00  -2.4015481261322749e+00  -2.0514740865197720e+00  -1.6840532736473666e+00  -1.3049448996971367e+00  -9.1731574675294381e-01  -5.2335433956505295e-01  -1.2478872743104116e-01  2.7687950005622086e-01  6.8026373408099139e-01  1.0840398177314388e+00  1.4869210177920944e+00  1.8876427082940883e+00  2.2849430583680541e+00  2.6775215557214609e+00  3.0639338022878198e+00  3.4422862787906841e+00  3.8090729418649043e+00  4.1530242449121397e+00  4.4635034381416014e+00  </DataArray> 
</PointData> 
</Piece>
</UnstructuredGrid>
</VTKFile>