<?xml version="1.0"?>
<VTKFile type="UnstructuredGrid"  version="0.1"  >
<UnstructuredGrid>
<Piece  NumberOfPoints="651" NumberOfCells="1200">
<Points>
<DataArray  type="Float64"  NumberOfComponents="3"  format="ascii">0 0 0  50000 0 0  100000 0 0  150000 0 0  200000 0 0  250000 0 0  300000 0 0  350000 0 0  400000 0 0  450000 0 0  500000 0 0  550000 0 0  600000 0 0  650000 0 0  700000 0 0  750000 0 0  800000 0 0  850000 0 0  900000 0 0  950000 0 0  1000000 0 0  0 50000 0  50000 50000 0  100000 50000 0  150000 50000 0  200000 50000 0  250000 50000 0  300000 50000 0  350000 50000 0  400000 50000 0  450000 50000 0  500000 50000 0  550000 50000 0  600000 50000 0  650000 50000 0  700000 50000 0  750000 50000 0  800000 50000 0  850000 50000 0  900000 50000 0  950000 50000 0  1000000 50000 0  0 100000 0  50000 100000 0  100000 100000 0  150000 100000 0  200000 100000 0  250000 100000 0  300000 100000 0  350000 100000 0  400000 100000 0  450000 100000 0  500000 100000 0  550000 100000 0  600000 100000 0  650000 100000 0  700000 100000 0  750000 100000 0  800000 100000 0  850000 100000 0  900000 100000 0  950000 100000 0  1000000 100000 0  0 150000 0  50000 150000 0  100000 150000 0  150000 150000 0  200000 150000 0  250000 150000 0  300000 150000 0  350000 150000 0  400000 150000 0  450000 150000 0  500000 150000 0  550000 150000 0  600000 150000 0  650000 150000 0  700000 150000 0  750000 150000 0  800000 150000 0  850000 150000 0  900000 150000 0  950000 150000 0  1000000 150000 0  0 200000 0  50000 200000 0  100000 200000 0  150000 200000 0  200000 200000 0  250000 200000 0  300000 200000 0  350000 200000 0  400000 200000 0  450000 200000 0  500000 200000 0  550000 200000 0  600000 200000 0  650000 200000 0  700000 200000 0  750000 200000 0  800000 200000 0  850000 200000 0  900000 200000 0  950000 200000 0  1000000 200000 0  0 250000 0  50000 250000 0  100000 250000 0  150000 250000 0  200000 250000 0  250000 250000 0  300000 250000 0  350000 250000 0  400000 250000 0  450000 250000 0  500000 250000 0  550000 250000 0  600000 250000 0  650000 250000 0  700000 250000 0  750000 250000 0  800000 250000 0  850000 250000 0  900000 250000 0  950000 250000 0  1000000 250000 0  0 300000 0  50000 300000 0  100000 300000 0  150000 300000 0  200000 300000 0  250000 300000 0  300000 300000 0  350000 300000 0  400000 300000 0  450000 300000 0  500000 300000 0  550000 300000 0  600000 300000 0  650000 300000 0  700000 300000 0  750000 300000 0  800000 300000 0  850000 300000 0  900000 300000 0  950000 300000 0  1000000 300000 0  0 350000 0  50000 350000 0  100000 350000 0  150000 350000 0  200000 350000 0  250000 350000 0  300000 350000 0  350000 350000 0  400000 350000 0  450000 350000 0  500000 350000 0  550000 350000 0  600000 350000 0  650000 350000 0  700000 350000 0  750000 350000 0  800000 350000 0  850000 350000 0  900000 350000 0  950000 350000 0  1000000 350000 0  0 400000 0  50000 400000 0  100000 400000 0  150000 400000 0  200000 400000 0  250000 400000 0  300000 400000 0  350000 400000 0  400000 400000 0  450000 400000 0  500000 400000 0  550000 400000 0  600000 400000 0  650000 400000 0  700000 400000 0  750000 400000 0  800000 400000 0  850000 400000 0  900000 400000 0  950000 400000 0  1000000 400000 0  0 450000 0  50000 450000 0  100000 450000 0  150000 450000 0  200000 450000 0  250000 450000 0  300000 450000 0  350000 450000 0  400000 450000 0  450000 450000 0  500000 450000 0  550000 450000 0  600000 450000 0  650000 450000 0  700000 450000 0  750000 450000 0  800000 450000 0  850000 450000 0  900000 450000 0  950000 450000 0  1000000 450000 0  0 500000 0  50000 500000 0  100000 500000 0  150000 500000 0  200000 500000 0  250000 500000 0  300000 500000 0  350000 500000 0  400000 500000 0  450000 500000 0  500000 500000 0  550000 500000 0  600000 500000 0  650000 500000 0  700000 500000 0  750000 500000 0  800000 500000 0  850000 500000 0  900000 500000 0  950000 500000 0  1000000 500000 0  0 550000 0  50000 550000 0  100000 550000 0  150000 550000 0  200000 550000 0  250000 550000 0  300000 550000 0  350000 550000 0  400000 550000 0  450000 550000 0  500000 550000 0  550000 550000 0  600000 550000 0  650000 550000 0  700000 550000 0  750000 550000 0  800000 550000 0  850000 550000 0  900000 550000 0  950000 550000 0  1000000 550000 0  0 600000 0  50000 600000 0  100000 600000 0  150000 600000 0  200000 600000 0  250000 600000 0  300000 600000 0  350000 600000 0  400000 600000 0  450000 600000 0  500000 600000 0  550000 600000 0  600000 600000 0  650000 600000 0  700000 600000 0  750000 600000 0  800000 600000 0  850000 600000 0  900000 600000 0  950000 600000 0  1000000 600000 0  0 650000 0  50000 650000 0  100000 650000 0  150000 650000 0  200000 650000 0  250000 650000 0  300000 650000 0  350000 650000 0  400000 650000 0  450000 650000 0  500000 650000 0  550000 650000 0  600000 650000 0  650000 650000 0  700000 650000 0  750000 650000 0  800000 650000 0  850000 650000 0  900000 650000 0  950000 650000 0  1000000 650000 0  0 700000 0  50000 700000 0  100000 700000 0  150000 700000 0  200000 700000 0  250000 700000 0  300000 700000 0  350000 700000 0  400000 700000 0  450000 700000 0  500000 700000 0  550000 700000 0  600000 700000 0  650000 700000 0  700000 700000 0  750000 700000 0  800000 700000 0  850000 700000 0  900000 700000 0  950000 700000 0  1000000 700000 0  0 750000 0  50000 750000 0  100000 750000 0  150000 750000 0  200000 750000 0  250000 750000 0  300000 750000 0  350000 750000 0  400000 750000 0  450000 750000 0  500000 750000 0  550000 750000 0  600000 750000 0  650000 750000 0  700000 750000 0  750000 750000 0  800000 750000 0  850000 750000 0  900000 750000 0  950000 750000 0  1000000 750000 0  0 800000 0  50000 800000 0  100000 800000 0  150000 800000 0  200000 800000 0  250000 800000 0  300000 800000 0  350000 800000 0  400000 800000 0  450000 800000 0  500000 800000 0  550000 800000 0  600000 800000 0  650000 800000 0  700000 800000 0  750000 800000 0  800000 800000 0  850000 800000 0  900000 800000 0  950000 800000 0  1000000 800000 0  0 850000 0  50000 850000 0  100000 850000 0  150000 850000 0  200000 850000 0  250000 850000 0  300000 850000 0  350000 850000 0  400000 850000 0  450000 850000 0  500000 850000 0  550000 850000 0  600000 850000 0  650000 850000 0  700000 850000 0  750000 850000 0  800000 850000 0  850000 850000 0  900000 850000 0  950000 850000 0  1000000 850000 0  0 900000 0  50000 900000 0  100000 900000 0  150000 900000 0  200000 900000 0  250000 900000 0  300000 900000 0  350000 900000 0  400000 900000 0  450000 900000 0  500000 900000 0  550000 900000 0  600000 900000 0  650000 900000 0  700000 900000 0  750000 900000 0  800000 900000 0  850000 900000 0  900000 900000 0  950000 900000 0  1000000 900000 0  0 950000 0  50000 950000 0  100000 950000 0  150000 950000 0  200000 950000 0  250000 950000 0  300000 950000 0  350000 950000 0  400000 950000 0  450000 950000 0  500000 950000 0  550000 950000 0  600000 950000 0  650000 950000 0  700000 950000 0  750000 950000 0  800000 950000 0  850000 950000 0  900000 950000 0  950000 950000 0  1000000 950000 0  0 1000000 0  50000 1000000 0  100000 1000000 0  150000 1000000 0  200000 1000000 0  250000 1000000 0  300000 1000000 0  350000 1000000 0  400000 1000000 0  450000 1000000 0  500000 1000000 0  550000 1000000 0  600000 1000000 0  650000 1000000 0  700000 1000000 0  750000 1000000 0  800000 1000000 0  850000 1000000 0  900000 1000000 0  950000 1000000 0  1000000 1000000 0  0 1050000 0  50000 1050000 0  100000 1050000 0  150000 1050000 0  200000 1050000 0  250000 1050000 0  300000 1050000 0  350000 1050000 0  400000 1050000 0  450000 1050000 0  500000 1050000 0  550000 1050000 0  600000 1050000 0  650000 1050000 0  700000 1050000 0  750000 1050000 0  800000 1050000 0  850000 1050000 0  900000 1050000 0  950000 1050000 0  1000000 1050000 0  0 1100000 0  50000 1100000 0  100000 1100000 0  150000 1100000 0  200000 1100000 0  250000 1100000 0  300000 1100000 0  350000 1100000 0  400000 1100000 0  450000 1100000 0  500000 1100000 0  550000 1100000 0  600000 1100000 0  650000 1100000 0  700000 1100000 0  750000 1100000 0  800000 1100000 0  850000 1100000 0  900000 1100000 0  950000 1100000 0  1000000 1100000 0  0 1150000 0  50000 1150000 0  100000 1150000 0  150000 1150000 0  200000 1150000 0  250000 1150000 0  300000 1150000 0  350000 1150000 0  400000 1150000 0  450000 1150000 0  500000 1150000 0  550000 1150000 0  600000 1150000 0  650000 1150000 0  700000 1150000 0  750000 1150000 0  800000 1150000 0  850000 1150000 0  900000 1150000 0  950000 1150000 0  1000000 1150000 0  0 1200000 0  50000 1200000 0  100000 1200000 0  150000 1200000 0  200000 1200000 0  250000 1200000 0  300000 1200000 0  350000 1200000 0  400000 1200000 0  450000 1200000 0  500000 1200000 0  550000 1200000 0  600000 1200000 0  650000 1200000 0  700000 1200000 0  750000 1200000 0  800000 1200000 0  850000 1200000 0  900000 1200000 0  950000 1200000 0  1000000 1200000 0  0 1250000 0  50000 1250000 0  100000 1250000 0  150000 1250000 0  200000 1250000 0  250000 1250000 0  300000 1250000 0  350000 1250000 0  400000 1250000 0  450000 1250000 0  500000 1250000 0  550000 1250000 0  600000 1250000 0  650000 1250000 0  700000 1250000 0  750000 1250000 0  800000 1250000 0  850000 1250000 0  900000 1250000 0  950000 1250000 0  1000000 1250000 0  0 1300000 0  50000 1300000 0  100000 1300000 0  150000 1300000 0  200000 1300000 0  250000 1300000 0  300000 1300000 0  350000 1300000 0  400000 1300000 0  450000 1300000 0  500000 1300000 0  550000 1300000 0  600000 1300000 0  650000 1300000 0  700000 1300000 0  750000 1300000 0  800000 1300000 0  850000 1300000 0  900000 1300000 0  950000 1300000 0  1000000 1300000 0  0 1350000 0  50000 1350000 0  100000 1350000 0  150000 1350000 0  200000 1350000 0  250000 1350000 0  300000 1350000 0  350000 1350000 0  400000 1350000 0  450000 1350000 0  500000 1350000 0  550000 1350000 0  600000 1350000 0  650000 1350000 0  700000 135
[...]
<PointData  Scalars="f_7495"> 
<DataArray  type="Float64"  Name="f_7495"  format="ascii">-1.0824407823248312e+00  -9.3585076578584014e-01  -7.7394747614551740e-01  -6.0147479448916652e-01  -4.2364762824864377e-01  -2.4208583596626890e-01  -5.7662803421683360e-02  1.2895389361949933e-01  3.1716142918742701e-01  5.0637335016267160e-01  6.9600060874672753e-01  8.8544285909790199e-01  1.0740817583249238e+00  1.2612701481858533e+00  1.4463092573545968e+00  1.6284001097968510e+00  1.8065414071821706e+00  1.9793030432060885e+00  2.1441495423294623e+00  2.2944727857241456e+00  2.3927078181217429e+00  -9.8952891544306110e-01  -9.2222548373288649e-01  -7.7089995513213583e-01  -6.0091060165002708e-01  -4.2375918311884386e-01  -2.4239841666553655e-01  -5.8020841676874962e-02  1.2861648498913744e-01  3.1687971755828065e-01  5.0617001352131796e-01  6.9589346919731698e-01  8.8544915917950973e-01  1.0742218956901519e+00  1.2615718942690095e+00  1.4468112114880363e+00  1.6291426068343844e+00  1.8074818448636241e+00  1.9798712616229914e+00  2.1413765691348687e+00  2.2765237192543375e+00  2.3361707589975853e+00  -8.8209711211276565e-01  -8.4885212551770284e-01  -7.3481239488922967e-01  -5.8294804378487564e-01  -4.1435322364323063e-01  -2.3729366844596056e-01  -5.5220855331457382e-02  1.3012054338386478e-01  3.1762746009090531e-01  5.0644992060708327e-01  6.9583696422093311e-01  8.8506652947091180e-01  1.0734018129777838e+00  1.2600429596230300e+00  1.4440395795745271e+00  1.6240945902302335e+00  1.7980864780676726e+00  1.9618697351268266e+00  2.1063417729815277e+00  2.2112572541479394e+00  2.2389766872055676e+00  -7.7927381131536766e-01  -7.5925695996747311e-01  -6.7345242531484228e-01  -5.4429183918447488e-01  -3.9034618633815032e-01  -2.2233040095736445e-01  -4.5904598144007699e-02  1.3580040596217643e-01  3.2084951172342957e-01  5.0787181434033857e-01  6.9575485810284898e-01  8.8348123251830124e-01  1.0700171043976512e+00  1.2541962899748502e+00  1.4345425424513123e+00  1.6089396580450339e+00  1.7739843271627738e+00  1.9237472181440980e+00  2.0476823618100499e+00  2.1283721047870716e+00  2.1445533111086963e+00  -6.8213732913851244e-01  -6.6805933608646262e-01  -6.0067511546699570e-01  -4.9134723522936286e-01  -3.5352217666347191e-01  -1.9728376339639758e-01  -2.9198500136116485e-02  1.4655984662601268e-01  3.2721939568955932e-01  5.1077758276819407e-01  6.9562585410069233e-01  8.8031531171761945e-01  1.0633814499199163e+00  1.2431669785376198e+00  1.4175836283663386e+00  1.5837407023776375e+00  1.7373536657180051e+00  1.8718840429641754e+00  1.9776241050901460e+00  2.0418403131507246e+00  2.0533896081121683e+00  -5.9111897771655153e-01  -5.8019029187471882e-01  -5.2493050497783866e-01  -4.3120843901509126e-01  -3.0825772258583017e-01  -1.6443311647298689e-01  -6.1333999343859569e-03  1.6201269398161589e-01  3.3663536608537298e-01  5.1515903599315094e-01  6.9545680107990659e-01  8.7559714060978822e-01  1.0536366769975616e+00  1.2274138984148126e+00  1.3943014303357464e+00  1.5508798477991850e+00  1.6925213978225497e+00  1.8129611288712024e+00  1.9041690127052284e+00  1.9573243738523878e+00  1.9665783116585172e+00  -5.0681329825781662e-01  -4.9779804787138732e-01  -4.5086088759678139e-01  -3.6911862863709838e-01  -2.5891532709457937e-01  -1.2685921516220511e-01  2.1314877450585443e-02  1.8097931492949992e-01  3.4845490377893684e-01  5.2074286536650227e-01  6.9526477569345968e-01  8.6963701263554016e-01  1.0414691324142855e+00  1.2081648142069050e+00  1.3667057380433245e+00  1.5134122908507872e+00  1.6437105893479655e+00  1.7520124598894542e+00  1.8319533464020223e+00  1.8774353773542296e+00  1.8853117847584366e+00  -4.2984475035517905e-01  -4.2210828286992924e-01  -3.8113446730879119e-01  -3.0860783730577601e-01  -2.0899628206397863e-01  -8.7485348239219621e-02  5.0963166244548615e-02  2.0196938157705605e-01  3.6177118031310035e-01  5.2711012992787154e-01  6.9506652902537902e-01  8.6288689140122576e-01  1.0278154758609597e+00  1.1869286032441253e+00  1.3369710925737068e+00  1.4742072477345949e+00  1.5943275492986602e+00  1.6924997427681143e+00  1.7637154174032630e+00  1.8036582959076157e+00  1.8105973105514241e+00  -3.6077968050830594e-01  -3.5395295144161593e-01  -3.1739968650807343e-01  -2.5202583531726197e-01  -1.6109429287316784e-01  -4.8725449314885552e-02  8.0823342244978558e-02  2.2351018219679039e-01  3.7563014020785990e-01  5.3380009518193727e-01  6.9487408834227060e-01  8.5582951606419344e-01  1.0136447451221757e+00  1.1651789861824329e+00  1.3070651927240591e+00  1.4356357789921856e+00  1.5469183801514732e+00  1.6367616368830749e+00  1.7011728346425705e+00  1.7369844733001680e+00  1.7432386423617756e+00  -3.0009577721492964e-01  -2.9394179125712205e-01  -2.6073872281407529e-01  -2.0095307211724076e-01  -1.1706909132036386e-01  -1.2439545112162931e-02  1.0925643769841857e-01  2.4431639250229145e-01  3.8916195178016966e-01  5.4037942785124660e-01  6.9469416260556216e-01  8.4890946211231111e-01  9.9983140514168767e-01  1.1441952039250822e+00  1.2786084988157305e+00  1.3995317299565877e+00  1.5033237947568030e+00  1.5863889332223975e+00  1.6454660402858126e+00  1.6781314045031723e+00  1.6838670059892564e+00  -2.4817744326754604e-01  -2.4253100885826556e-01  -2.1188956371394435e-01  -1.5646490191620802e-01  -7.8233100752375453e-02  1.9995680893413342e-02  1.3499071888210210e-01  2.6334891190556292e-01  4.0164053827707519e-01  5.4647783669221062e-01  6.9452921058484429e-01  8.4250031726248475e-01  9.8710025912667532e-01  1.1250087253590824e+00  1.2528596282710887e+00  1.3672584554361054e+00  1.4648527262096325e+00  1.5424753727711076e+00  1.5973815689422921e+00  1.6276335270771116e+00  1.6329721804560242e+00  -2.0532180841905356e-01  -2.0005924221378651e-01  -1.7136332114654765e-01  -1.1929642630094453e-01  -4.5501225400529616e-02  4.7589978060787352e-02  1.5708066912988583e-01  2.7981189232827880e-01  4.1249642009267196e-01  5.5179957690898218e-01  6.9437885695963397e-01  8.3689613992263512e-01  9.7601665584311703e-01  1.1084084773397642e+00  1.2307560803786475e+00  1.3398013993276388e+00  1.4324249362521280e+00  1.5057771897256456e+00  1.5574716309369281e+00  1.5858894348945358e+00  1.5909278173163630e+00  -1.7174884483418368e-01  -1.6677136956791719e-01  -1.3951216299852026e-01  -8.9946769848631467e-02  -1.9501008030889562e-02  6.9649941003098251e-02  1.7484865216448661e-01  2.9312253100684760e-01  4.2130508584701820e-01  5.5612097953251050e-01  6.9424108341395507e-01  8.3231619832429182e-01  9.6699991272238650e-01  1.0949717253656182e+00  1.2129713990309881e+00  1.3178545398773844e+00  1.4066772883742946e+00  1.4768151971187622e+00  1.5261239419549795e+00  1.5531920697424559e+00  1.5580123266298518e+00  -1.4761236301400776e-01  -1.4283638466124648e-01  -1.1657190913902889e-01  -6.8746556993882504e-02  -6.5070168270893794e-04  8.5706807316389050e-02  1.8782890204855135e-01  3.0287385703492031e-01  4.2776606194267153e-01  5.5928178264384165e-01  6.9411304904730953e-01  8.2891511052558942e-01  9.6034518030742144e-01  1.0851012974000491e+00  1.1999700384199061e+00  1.3018905214298759e+00  1.3880396960284449e+00  1.4559414012844949e+00  1.5036058072490404e+00  1.5297505772795543e+00  1.5344263135683320e+00  -1.3300997971144318e-01  -1.2836106749315487e-01  -1.0268987986593107e-01  -5.5901930541079482e-02  1.0787089644812705e-02  9.5462876460713719e-02  1.9572183655960046e-01  3.0880090069708693e-01  4.3168155966865274e-01  5.6117522488834082e-01  6.9399157607032314e-01  8.2679357379354212e-01  9.5624518721668350e-01  1.0790591638034761e+00  1.1920521235258739e+00  1.2922129000784437e+00  1.3767876048450125e+00  1.4433827772601753e+00  1.4900931763216068e+00  1.5157066919382811e+00  1.5203067363129705e+00  -1.2799079788728476e-01  -1.2339973200933396e-01  -9.7942731284351811e-02  -5.1522351062286934e-02  1.4670579299413533e-02  9.8755077572239974e-02  1.9836123921801299e-01  3.1075493873601856e-01  4.3293929544594223e-01  5.6173967779671830e-01  6.9387338966514178e-01  8.2600710153355994e-01  9.5480748388433623e-01  1.0769918405942580e+00  1.1893855401122599e+00  1.2889917017580341e+00  1.3730762000308596e+00  1.4392691303925607e+00  1.4856895106146228e+00  1.5111465113396034e+00  1.5157375772175548e+00  -1.3255995698270120e-01  -1.2795991260801173e-01  -1.0234639699133538e-01  -5.5635997929904625e-02  1.0959174485260549e-02  9.5533879251830350e-02  1.9569465580440154e-01  3.0868761552680218e-01  4.3150159211359507e-01  5.6095320553673833e-01  6.9375520325996076e-01  8.2657155444194053e-01  9.5606521966162616e-01  1.0789458786331891e+00  1.1920249427706726e+00  1.2922839028695601e+00  1.3769596896854639e+00  1.4436487098713544e+00  1.4904366591962066e+00  1.5161078468234290e+00  1.5207567590417175e+00  -1.4667953423806279e-01  -1.4200379794928461e-01  -1.1585902791877045e-01  -6.8194621954223975e-02  -2.9291669817300156e-04  8.5856257900397387e-02  1.8777674091037033e-01  3.0264548193022905e-01  4.2740159902285912e-01  5.5883166880469470e-01  6.9363373028297715e-01  8.2846499668644324e-01  9.5998071738761070e-01  1.0848729222953606e+00  1.1999178772817285e+00  1.3020399720138911e+00  1.3883974810129900e+00  1.4564933363241614e+00  1.5043186884693098e+00  1.5305831639915277e+00  1.5353591423442885e+00  -1.7026554729957752e-01  -1.6544529041218201e-01  -1.3837716262470454e-01  -8.9068417788486703e-02  -1.8930509044017555e-02  6.9892239452892538e-02  1.7477538029929326e-01  2.9277505396466402e-01  4.2074686660789923e-01  5.5543058100599685e-01  6.9350569591633771e-01  8.3162579979778228e-01  9.6644169348327102e-01  1.0946242483234372e+00  1.2128981271657986e+00  1.3180968383271863e+00  1.4072477873611773e+00  1.4776935491789187e+00  1.5272589423288041e+00  1.5545181488982001e+00  1.5594956241644664e+00  -2.0318103798608420e-01  -1.9814265556425834e-01  -1.6972485160664758e-01  -1.1803041039536483e-01  -4.4678156921844708e-02  4.7945380002645394e-02  1.5699069895164108e-01  2.7933830199052517e-01  4.1173012348717591e-01  5.5085063940766010e-01  6.9336792237066525e-01  8.3594720242131759e-01  9.7525035923762471e-01  1.1079348870020136e+00  1.2306661102004057e+00  1.3401568012695029e+00  1.4332480047308249e+00  1.5070432056312366e+00  1.5591101004768355e+00  1.5878060215440715e+00  1.5930685877493387e+00  -2.4522540112573626e-01  -2.3988674774682364e-01  -2.0963478961200285e-01  -1.5472859344081791e-01  -7.7105946879339596e-02  2.0488323894191553e-02  1.3488715105920959e-01  2.6273805397121697e-01  4.0064652020362784e-01  5.4524646206782001e-01  6.9321756874546414e-01  8.4126894263809815e-01  9.8610624105323297e-01  1.1243978674247439e+00  1.2527560604482038e+00  1.3677510984368912e+00  1.4659798800826787e+00  1.5442116812465068e+00  1.5996363430442400e+00  1.6302777881885571e+00  1.6359242225978374e+00  -2.9612022665895948e-01  -2.9038462517287550e-01  -2.5771926095551489e-01  -1.9864215389209738e-01  -1.1557701542650066e-01  -1.1784950626280474e-02  1.0913828051457770e-01  2.4355157540522809e-01  3.8791537418862776e-01  5.3883731721800798e-01  6.9305261672475926e-01  8.4736735147907594e-01  9.9858482755015299e-01  1.1434303868280309e+00  1.2784903416319027e+00  1.4001863244424804e+00  1.5048158706506760e+00  1.5886998514475474e+00  1.6484855021443778e+00  1.6816885705874212e+00  1.6878425565452269e+00  -3.5549186303147057e-01  -3.4923769396986226e-01  -3.1342605531226470e-01  -2.4901485755276620e-01  -1.5917160082116003e-01  -4.7888999661868804e-02  8.0681586606260958e-02  2.2256779314789141e-01  3.7410203420815352e-01  5.3191726326614031e-01  6.9287269098806570e-01  8.5394668414840125e-01  1.0121166391224798e+00  1.1642365971335464e+00  1.3069234370853562e+00  1.4364722286452145e+00  1.5488410722034902e+00  1.6397726146475782e+00  1.7051464658383821e+00  1.7416997307719211e+00  1.7485264598386117e+00  -4.2285053122111005e-01  -4.1591151657730069e-01  -3.7596863807294750e-01  -3.0475296343779773e-01  -2.0658076996833730e-01  -8.6460468404266605e-02  5.0775686756625242e-02  2.0081817608621166e-01  3.5993130346938174e-01  5.2485988792911875e-01  6.9268025030496883e-01  8.6063664940248019e-01  1.0259755990172525e+00  1.1857773977532944e+00  1.3367836130857984e+00  1.4752321275695595e+00  1.5967430613943125e+00  1.6963546166361039e+00  1.7688812466391108e+00  1.8098550622002452e+00  1.8175915296854939e+00  -4.9756500542811244e-01  -4.8968859802390619e-01  -4.4420656707169970e-01  -3.6426568055912895e-01  -2.5596381001763230e-01  -1.2566551152044789e-01  2.1041041287021205e-02  1.7958196512344618e-01  3.4627764691607082e-01  5.1810976669481923e-01  6.9248200363690238e-01  8.6700391396386223e-01  1.0392918755514284e+00  1.2067674644008612e+00  1.3664319018797733e+00  1.5146059944925561e+00  1.6466621064249252e+00  1.7568654079674384e+00  1.8386076669271132e+00  1.8855448272017141e+00  1.8945600775881424e+00  -5.7883153232818141e-01  -5.6957759452205325e-01  -5.1642223337489079e-01  -4.2521434954086113e-01  -3.0477461849220355e-01  -1.6313306846883535e-01  -6.5546510053899401e-03  1.6033288091555284e-01  3.3411010233280747e-01  5.1214963872058372e-01  6.9228997825046934e-01  8.7258774333722644e-01  1.0511114132450057e+00  1.2257340853487582e+00  1.3938801792647555e+00  1.5521798958033513e+00  1.6960045019161867e+00  1.8189552183454425e+00  1.9126772843081810e+00  1.9679370712050555e+00  1.9788657570468864e+00  -6.6564282878182313e-01  -6.5409353382037894e-01  -5.8987732575979746e-01  -4.8413726363382337e-01  -3.4960688638764881e-01  -1.9599392304727650e-01  -2.9836849035970312e-02  1.4457980079275648e-01  3.2436532941046281e-01  5.0743146761276137e-01  6.9212092522969282e-01  8.7696919656219241e-01  1.0605273836408267e+00  1.2411869327043707e+00  1.4169452794664976e+00  1.5850305427267748e+00  1.7412689559938381e+00  1.8790940145597212e+00  1.9884218947973478e+00  2.0558061154168077e+00  2.0698841084688566e+00  -7.5680653177834190e-01  -7.4062532545671644e-01  -6.5993558247968964e-01  -5.3600043881373460e-01  -3.8623754783240793e-01  -2.2119287871466226e-01  -4.6795763120935370e-02  1.3355048935553374e-01  3.1772967493273568e-01  5.0426554681208680e-01  6.9199192122754261e-01  8.7987496499005491e-01  1.0668972676069626e+00  1.2519463733682148e+00  1.4336513774743989e+00  1.6100771802877487e+00  1.7780929656685271e+00  1.9320386185148415e+00  2.0611992046452001e+00  2.1470037392978236e+00  2.1670205906457172e+00  -8.5122990787520558e-01  -8.2351047481757456e-01  -7.1859499365115953e-01  -5.7412295579645467e-01  -4.1033969873730036e-01  -2.3634781089985671e-01  -5.6292800244144542e-02  1.2770381970735892e-01  3.1434496635260600e-01  5.0268024985947979e-01  6.9190981510946270e-01  8.8129685872331343e-01  1.0701193192394924e+00  1.2576262359465302e+00  1.4429676346618516e+00  1.6250404477763489e+00  1.8021000029736114e+00  1.9706948231152472e+00  2.1225591742195924e+00  2.2365989048480586e+00  2.2698438914431214e+00  -9.4842397966722136e-01  -8.8877693992397200e-01  -7.5362978980450301e-01  -5.9212448229262016e-01  -4.1973506553324902e-01  -2.4139582750400415e-01  -5.9064432157652252e-02  1.2617488506137889e-01  3.1352488364023950e-01  5.0229762015088342e-01  6.9185331013307894e-01  8.8157676580908029e-01  1.0708670617721183e+00  1.2591302943412599e+00  1.4457676210072705e+00  1.6301451959959261e+00  1.8115059624492265e+00  1.9886573809804013e+00  2.1586467344625042e+00  2.3099722630632482e+00  2.3772756947734219e+00  -1.0049610387913774e+00  -9.0672600639377909e-01  -7.5640276299909415e-01  -5.9155626387571647e-01  -4.1879462785179439e-01  -2.4065333046647086e-01  -5.8562478024211391e-02  1.2647663114453542e-01  3.1366502100546872e-01  5.0230392023249248e-01  6.9174617058366950e-01  8.8137342916772510e-01  1.0705853501429725e+00  1.2587928857108988e+00  1.4454095827520803e+00  1.6298326152966598e+00  1.8113944075790278e+00  1.9892215738195427e+00  2.1616942554758860e+00  2.3235975451162036e+00  2.4701875616551940e+00  </DataArray> 
</PointData> 
</Piece>
</UnstructuredGrid>
</VTKFile>