<?xml version="1.0"?>
<VTKFile type="UnstructuredGrid"  version="0.1"  >
<UnstructuredGrid>
<Piece  NumberOfPoints="651" NumberOfCells="1200">
<Points>
<DataArray  type="Float64"  NumberOfComponents="3"  format="ascii">0 0 0  50000 0 0  100000 0 0  150000 0 0  200000 0 0  250000 0 0  300000 0 0  350000 0 0  400000 0 0  450000 0 0  500000 0 0  550000 0 0  600000 0 0  650000 0 0  700000 0 0  750000 0 0  800000 0 0  850000 0 0  900000 0 0  950000 0 0  1000000 0 0  0 50000 0  50000 50000 0  100000 50000 0  150000 50000 0  200000 50000 0  250000 50000 0  300000 50000 0  350000 50000 0  400000 50000 0  450000 50000 0  500000 50000 0  550000 50000 0  600000 50000 0  650000 50000 0  700000 50000 0  750000 50000 0  800000 50000 0  850000 50000 0  900000 50000 0  950000 50000 0  1000000 50000 0  0 100000 0  50000 100000 0  100000 100000 0  150000 100000 0  200000 100000 0  250000 100000 0  300000 100000 0  350000 100000 0  400000 100000 0  450000 100000 0  500000 100000 0  550000 100000 0  600000 100000 0  650000 100000 0  700000 100000 0  750000 100000 0  800000 100000 0  850000 100000 0  900000 100000 0  950000 100000 0  1000000 100000 0  0 150000 0  50000 150000 0  100000 150000 0  150000 150000 0  200000 150000 0  250000 150000 0  300000 150000 0  350000 150000 0  400000 150000 0  450000 150000 0  500000 150000 0  550000 150000 0  600000 150000 0  650000 150000 0  700000 150000 0  750000 150000 0  800000 150000 0  850000 150000 0  900000 150000 0  950000 150000 0  1000000 150000 0  0 200000 0  50000 200000 0  100000 200000 0  150000 200000 0  200000 200000 0  250000 200000 0  300000 200000 0  350000 200000 0  400000 200000 0  450000 200000 0  500000 200000 0  550000 200000 0  600000 200000 0  650000 200000 0  700000 200000 0  750000 200000 0  800000 200000 0  850000 200000 0  900000 200000 0  950000 200000 0  1000000 200000 0  0 250000 0  50000 250000 0  100000 250000 0  150000 250000 0  200000 250000 0  250000 250000 0  300000 250000 0  350000 250000 0  400000 250000 0  450000 250000 0  500000 250000 0  550000 250000 0  600000 250000 0  650000 250000 0  700000 250000 0  750000 250000 0  800000 250000 0  850000 250000 0  900000 250000 0  950000 250000 0  1000000 250000 0  0 300000 0  50000 300000 0  100000 300000 0  150000 300000 0  200000 300000 0  250000 300000 0  300000 300000 0  350000 300000 0  400000 300000 0  450000 300000 0  500000 300000 0  550000 300000 0  600000 300000 0  650000 300000 0  700000 300000 0  750000 300000 0  800000 300000 0  850000 300000 0  900000 300000 0  950000 300000 0  1000000 300000 0  0 350000 0  50000 350000 0  100000 350000 0  150000 350000 0  200000 350000 0  250000 350000 0  300000 350000 0  350000 350000 0  400000 350000 0  450000 350000 0  500000 350000 0  550000 350000 0  600000 350000 0  650000 350000 0  700000 350000 0  750000 350000 0  800000 350000 0  850000 350000 0  900000 350000 0  950000 350000 0  1000000 350000 0  0 400000 0  50000 400000 0  100000 400000 0  150000 400000 0  200000 400000 0  250000 400000 0  300000 400000 0  350000 400000 0  400000 400000 0  450000 400000 0  500000 400000 0  550000 400000 0  600000 400000 0  650000 400000 0  700000 400000 0  750000 400000 0  800000 400000 0  850000 400000 0  900000 400000 0  950000 400000 0  1000000 400000 0  0 450000 0  50000 450000 0  100000 450000 0  150000 450000 0  200000 450000 0  250000 450000 0  300000 450000 0  350000 450000 0  400000 450000 0  450000 450000 0  500000 450000 0  550000 450000 0  600000 450000 0  650000 450000 0  700000 450000 0  750000 450000 0  800000 450000 0  850000 450000 0  900000 450000 0  950000 450000 0  1000000 450000 0  0 500000 0  50000 500000 0  100000 500000 0  150000 500000 0  200000 500000 0  250000 500000 0  300000 500000 0  350000 500000 0  400000 500000 0  450000 500000 0  500000 500000 0  550000 500000 0  600000 500000 0  650000 500000 0  700000 500000 0  750000 500000 0  800000 500000 0  850000 500000 0  900000 500000 0  950000 500000 0  1000000 500000 0  0 550000 0  50000 550000 0  100000 550000 0  150000 550000 0  200000 550000 0  250000 550000 0  300000 550000 0  350000 550000 0  400000 550000 0  450000 550000 0  500000 550000 0  550000 550000 0  600000 550000 0  650000 550000 0  700000 550000 0  750000 550000 0  800000 550000 0  850000 550000 0  900000 550000 0  950000 550000 0  1000000 550000 0  0 600000 0  50000 600000 0  100000 600000 0  150000 600000 0  200000 600000 0  250000 600000 0  300000 600000 0  350000 600000 0  400000 600000 0  450000 600000 0  500000 600000 0  550000 600000 0  600000 600000 0  650000 600000 0  700000 600000 0  750000 600000 0  800000 600000 0  850000 600000 0  900000 600000 0  950000 600000 0  1000000 600000 0  0 650000 0  50000 650000 0  100000 650000 0  150000 650000 0  200000 650000 0  250000 650000 0  300000 650000 0  350000 650000 0  400000 650000 0  450000 650000 0  500000 650000 0  550000 650000 0  600000 650000 0  650000 650000 0  700000 650000 0  750000 650000 0  800000 650000 0  850000 650000 0  900000 650000 0  950000 650000 0  1000000 650000 0  0 700000 0  50000 700000 0  100000 700000 0  150000 700000 0  200000 700000 0  250000 700000 0  300000 700000 0  350000 700000 0  400000 700000 0  450000 700000 0  500000 700000 0  550000 700000 0  600000 700000 0  650000 700000 0  700000 700000 0  750000 700000 0  800000 700000 0  850000 700000 0  900000 700000 0  950000 700000 0  1000000 700000 0  0 750000 0  50000 750000 0  100000 750000 0  150000 750000 0  200000 750000 0  250000 750000 0  300000 750000 0  350000 750000 0  400000 750000 0  450000 750000 0  500000 750000 0  550000 750000 0  600000 750000 0  650000 750000 0  700000 750000 0  750000 750000 0  800000 750000 0  850000 750000 0  900000 750000 0  950000 750000 0  1000000 750000 0  0 800000 0  50000 800000 0  100000 800000 0  150000 800000 0  200000 800000 0  250000 800000 0  300000 800000 0  350000 800000 0  400000 800000 0  450000 800000 0  500000 800000 0  550000 800000 0  600000 800000 0  650000 800000 0  700000 800000 0  750000 800000 0  800000 800000 0  850000 800000 0  900000 800000 0  950000 800000 0  1000000 800000 0  0 850000 0  50000 850000 0  100000 850000 0  150000 850000 0  200000 850000 0  250000 850000 0  300000 850000 0  350000 850000 0  400000 850000 0  450000 850000 0  500000 850000 0  550000 850000 0  600000 850000 0  650000 850000 0  700000 850000 0  750000 850000 0  800000 850000 0  850000 850000 0  900000 850000 0  950000 850000 0  1000000 850000 0  0 900000 0  50000 900000 0  100000 900000 0  150000 900000 0  200000 900000 0  250000 900000 0  300000 900000 0  350000 900000 0  400000 900000 0  450000 900000 0  500000 900000 0  550000 900000 0  600000 900000 0  650000 900000 0  700000 900000 0  750000 900000 0  800000 900000 0  850000 900000 0  900000 900000 0  950000 900000 0  1000000 900000 0  0 950000 0  50000 950000 0  100000 950000 0  150000 950000 0  200000 950000 0  250000 950000 0  300000 950000 0  350000 950000 0  400000 950000 0  450000 950000 0  500000 950000 0  550000 950000 0  600000 950000 0  650000 950000 0  700000 950000 0  750000 950000 0  800000 950000 0  850000 950000 0  900000 950000 0  950000 950000 0  1000000 950000 0  0 1000000 0  50000 1000000 0  100000 1000000 0  150000 1000000 0  200000 1000000 0  250000 1000000 0  300000 1000000 0  350000 1000000 0  400000 1000000 0  450000 1000000 0  500000 1000000 0  550000 1000000 0  600000 1000000 0  650000 1000000 0  700000 1000000 0  750000 1000000 0  800000 1000000 0  850000 1000000 0  900000 1000000 0  950000 1000000 0  1000000 1000000 0  0 1050000 0  50000 1050000 0  100000 1050000 0  150000 1050000 0  200000 1050000 0  250000 1050000 0  300000 1050000 0  350000 1050000 0  400000 1050000 0  450000 1050000 0  500000 1050000 0  550000 1050000 0  600000 1050000 0  650000 1050000 0  700000 1050000 0  750000 1050000 0  800000 1050000 0  850000 1050000 0  900000 1050000 0  950000 1050000 0  1000000 1050000 0  0 1100000 0  50000 1100000 0  100000 1100000 0  150000 1100000 0  200000 1100000 0  250000 1100000 0  300000 1100000 0  350000 1100000 0  400000 1100000 0  450000 1100000 0  500000 1100000 0  550000 1100000 0  600000 1100000 0  650000 1100000 0  700000 1100000 0  750000 1100000 0  800000 1100000 0  850000 1100000 0  900000 1100000 0  950000 1100000 0  1000000 1100000 0  0 1150000 0  50000 1150000 0  100000 1150000 0  150000 1150000 0  200000 1150000 0  250000 1150000 0  300000 1150000 0  350000 1150000 0  400000 1150000 0  450000 1150000 0  500000 1150000 0  550000 1150000 0  600000 1150000 0  650000 1150000 0  700000 1150000 0  750000 1150000 0  800000 1150000 0  850000 1150000 0  900000 1150000 0  950000 1150000 0  1000000 1150000 0  0 1200000 0  50000 1200000 0  100000 1200000 0  150000 1200000 0  200000 1200000 0  250000 1200000 0  300000 1200000 0  350000 1200000 0  400000 1200000 0  450000 1200000 0  500000 1200000 0  550000 1200000 0  600000 1200000 0  650000 1200000 0  700000 1200000 0  750000 1200000 0  800000 1200000 0  850000 1200000 0  900000 1200000 0  950000 1200000 0  1000000 1200000 0  0 1250000 0  50000 1250000 0  100000 1250000 0  150000 1250000 0  200000 1250000 0  250000 1250000 0  300000 1250000 0  350000 1250000 0  400000 1250000 0  450000 1250000 0  500000 1250000 0  550000 1250000 0  600000 1250000 0  650000 1250000 0  700000 1250000 0  750000 1250000 0  800000 1250000 0  850000 1250000 0  900000 1250000 0  950000 1250000 0  1000000 1250000 0  0 1300000 0  50000 1300000 0  100000 1300000 0  150000 1300000 0  200000 1300000 0  250000 1300000 0  300000 1300000 0  350000 1300000 0  400000 1300000 0  450000 1300000 0  500000 1300000 0  550000 1300000 0  600000 1300000 0  650000 1300000 0  700000 1300000 0  750000 1300000 0  800000 1300000 0  850000 1300000 0  900000 1300000 0  950000 1300000 0  1000000 1300000 0  0 1350000 0  50000 1350000 0  100000 1350000 0  150000 1350000 0  200000 1350000 0  250000 1350000 0  300000 1350000 0  350000 1350000 0  400000 1350000 0  450000 1350000 0  500000 1350000 0  550000 1350000 0  600000 1350000 0  650000 1350000 0  700000 135
[...]
<PointData  Scalars="f_7495"> 
<DataArray  type="Float64"  Name="f_7495"  format="ascii">-2.6880222410973897e+00  -2.4103088623151039e+00  -2.1027579454326957e+00  -1.7748276198078554e+00  -1.4365765297528781e+00  -1.0911335942272187e+00  -7.4018840868596225e-01  -3.8503011534701720e-01  -2.6819753728224656e-02  3.3331597965118248e-01  6.9424784974454312e-01  1.0548269882966232e+00  1.4138713737230000e+00  1.7701436518989859e+00  2.1223044371202007e+00  2.4688131152235355e+00  2.8077197197955712e+00  3.1362048269865959e+00  3.4492325053252038e+00  3.7338691944365738e+00  3.9189861118424210e+00  -2.5120860039903565e+00  -2.3852118670119551e+00  -2.0974377775270212e+00  -1.7740218008572586e+00  -1.4369246744012785e+00  -1.0917788310513610e+00  -7.4085888504817177e-01  -3.8561209619166587e-01  -2.7252258192043334e-02  3.3307350030938382e-01  6.9422803975213199e-01  1.0550615653870747e+00  1.4143975641314268e+00  1.7710123285282471e+00  2.1235885152905616e+00  2.4705958310287044e+00  2.8099467860293226e+00  3.1378651367257877e+00  3.4448389494113694e+00  3.7011331031115722e+00  3.8127051891465564e+00  -2.3088123965401808e+00  -2.2465718832665620e+00  -2.0298357764219337e+00  -1.7407234370636477e+00  -1.4196913048707556e+00  -1.0825385005766259e+00  -7.3584202072688853e-01  -3.8292139041432199e-01  -2.5875786602771806e-02  3.3367554249391945e-01  6.9430070742035532e-01  1.0546223955705996e+00  1.4132351278180950e+00  1.7686131671846925e+00  2.1189431229871052e+00  2.4617480397199873e+00  2.7929710530360006e+00  3.1046731816384785e+00  3.3794054892857508e+00  3.5783604821763362e+00  3.6295096740366288e+00  -2.1142643543716790e+00  -2.0770447759269142e+00  -1.9140881695771887e+00  -1.6681618386172987e+00  -1.3748728711801705e+00  -1.0547524522923182e+00  -7.1861767382786634e-01  -3.7243809970925590e-01  -1.9898583127210445e-02  3.3639142196751054e-01  6.9431409912726605e-01  1.0519319850605460e+00  1.4072757530708955e+00  1.7581230996592270e+00  2.1016589479034371e+00  2.4338435755067565e+00  2.7481716899999844e+00  3.0332952111768412e+00  3.2690118770276562e+00  3.4219498185298969e+00  3.4514953703030407e+00  -1.9304561628521790e+00  -1.9044107317449421e+00  -1.7765053862274287e+00  -1.5683284994261666e+00  -1.3056547445828055e+00  -1.0078191810793378e+00  -6.8739318396598381e-01  -3.5235144073215191e-01  -7.9815393930588712e-03  3.4190032137777276e-01  6.9423018306651074e-01  1.0462482730940375e+00  1.3951642611814310e+00  1.7378186437269396e+00  2.0702268219253672e+00  2.3868671191689366e+00  2.6795459338554282e+00  2.9357458885709455e+00  3.1368674746562415e+00  3.2585148173435341e+00  3.2794640670232846e+00  -1.7581833294561735e+00  -1.7380305313973290e+00  -1.6331678504891578e+00  -1.4546856765979916e+00  -1.2202811446161412e+00  -9.4598003648651163e-01  -6.4404382380977143e-01  -3.2332841050607258e-01  9.7285788189720463e-03  3.5021239634331569e-01  6.9406725524019020e-01  1.0376107754984034e+00  1.3771372216373936e+00  1.7085225635768690e+00  2.0267497174414140e+00  2.3252826301594380e+00  2.5952663858387455e+00  2.8247016226630715e+00  2.9981967818613962e+00  3.0988498975428387e+00  3.1155623755464945e+00  -1.5985633235475780e+00  -1.5819747645462909e+00  -1.4929089533018602e+00  -1.3372080441109953e+00  -1.1270304337092245e+00  -8.7505705772114661e-01  -5.9228396927542071e-01  -2.8757285427863449e-01  3.2040065348306210e-02  3.6082607625555974e-01  6.9386310983900112e-01  1.0266023987402508e+00  1.3544816602955867e+00  1.6725433100829510e+00  1.9750196450972168e+00  2.2548728910271540e+00  2.5033462823934842e+00  2.7097307942628572e+00  2.8618201014342657e+00  2.9479250315969616e+00  2.9621052023896390e+00  -1.4527783343576941e+00  -1.4385645738128627e+00  -1.3608044056075908e+00  -1.2226160459440003e+00  -1.0325630118327251e+00  -8.0060104284451916e-01  -5.3624927364157549e-01  -2.4790060001035469e-01  5.7244379282782989e-02  3.7295537304726489e-01  6.9365372298880290e-01  1.0140801627630733e+00  1.3289708957631778e+00  1.6327391572365002e+00  1.9191606012308129e+00  2.1810860160919261e+00  2.4102600906153904e+00  2.5974167478283730e+00  2.7329436950674544e+00  2.8085617497951074e+00  2.8210287088289188e+00  -1.3219046557648182e+00  -1.3093774638279376e+00  -1.2399902284257864e+00  -1.1153853837580077e+00  -9.4181882727182842e-01  -7.2720588135969266e-01  -4.7971872999185650e-01  -2.0710709258647508e-01  8.3533282231660996e-02  3.8572901605610083e-01  6.9346453051130541e-01  1.0009620965399531e+00  1.3024458242589991e+00  1.5919100988002759e+00  1.8629128274799069e+00  2.1084312272605472e+00  2.3208514932016859e+00  2.4922079653896749e+00  2.6148314327170592e+00  2.6826412828344233e+00  2.6938671565482410e+00  -1.2068527139445977e+00  -1.1955722270718971e+00  -1.1325265169669423e+00  -1.0185282828832867e+00  -8.5834323113705502e-01  -6.5841636678882953e-01  -4.2581390202301134e-01  -1.6763848338921442e-01  1.0925273553349756e-01  3.9832393907554370e-01  6.9330941051606976e-01  9.8809462008851989e-01  1.2765704467662824e+00  1.5524904510242887e+00  1.8093605210902086e+00  2.0403993996103482e+00  2.2386242537318926e+00  2.3971308461307781e+00  2.5096497725266023e+00  2.5715240284745202e+00  2.5818200323867693e+00  -1.1083571082079695e+00  -1.0980182416867525e+00  -1.0398199317121346e+00  -9.3409610984002411e-01  -7.8464057095068585e-01  -5.9685921309982071e-01  -3.7696049566940026e-01  -1.3147595428414707e-01  1.3301892255431047e-01  4.1003462533624052e-01  6.9319301291123225e-01  9.7618923969337223e-01  1.2527252083926668e+00  1.5164448838399494e+00  1.7609011942783279e+00  1.9795875097555935e+00  2.1660710102238618e+00  2.3142665695980855e+00  2.4188927453661537e+00  2.4762228110176214e+00  2.4858155639408408e+00  -1.0269872487966885e+00  -1.0173627810862231e+00  -9.6284646542949393e-01  -8.6349286705978412e-01  -7.2245854786504560e-01  -5.4442598338086368e-01  -3.3496434022054689e-01  -1.0013922014777051e-01  1.5374444963536629e-01  4.2029609168276916e-01  6.9311377168980048e-01  9.6580586411837055e-01  1.2319873156197094e+00  1.4852769341207219e+00  1.7193216567881848e+00  1.9278735680621908e+00  2.1049439178196940e+00  2.2450544104791716e+00  2.3436093605858388e+00  2.3974929066146058e+00  2.4065609782830202e+00  -9.6316600500915805e-01  -9.5407547289166028e-01  -9.0228016992546511e-01  -8.0767337666783390e-01  -6.7299749505854722e-01  -5.0244286572149455e-01  -3.0112134896106529e-01  -7.4742825661877829e-02  1.7061727103604896e-01  4.2867990104746007e-01  6.9306643928558243e-01  9.5736164091994580e-01  1.2151557325305811e+00  1.4600870120918070e+00  1.6859060186813017e+00  1.8865805011792232e+00  2.0564564873398958e+00  2.1904857407883993e+00  2.2845362212952138e+00  2.3358894238454404e+00  2.3445830113865660e+00  -9.1719018276569275e-01  -9.0848169789105682e-01  -8.5857373618832045e-01  -7.6727142969039719e-01  -6.3705873340823405e-01  -4.7180772654765479e-01  -2.7632357833611443e-01  -5.6066330324303457e-02  1.8306145861241052e-01  4.3487810566099377e-01  6.9304384874128167e-01  9.5115020091126490e-01  1.2027925305918421e+00  1.4416428640438457e+00  1.6615397140354107e+00  1.8566092914069883e+00  2.0214278619141726e+00  2.1512305408562598e+00  2.2421810983331509e+00  2.2918086383164913e+00  2.3002611405811897e+00  -8.8924918856978941e-01  -8.8078818341469201e-01  -8.3201112458780813e-01  -7.4268333233947403e-01  -6.1514650548649985e-01  -4.5309190154722001e-01  -2.6114591190454967e-01  -4.4618363881471924e-02  1.9069689513430782e-01  4.3868465471753304e-01  6.9303797889974439e-01  9.4736208359173424e-01  1.1952641648273230e+00  1.4304433048202856e+00  1.6467944940292985e+00  1.8385382244878630e+00  2.0003825090351297e+00  2.1277204661874487e+00  2.2168778984097735e+00  2.2655188256506724e+00  2.2738542402891420e+00  -8.7943948335682154e-01  -8.7110130409642927e-01  -8.2274126862543673e-01  -7.3412065297354079e-01  -6.0753416867555177e-01  -4.4660944114941481e-01  -2.5590839310890767e-01  -4.0685478414562722e-02  1.9330675398752720e-01  4.3997961996274393e-01  6.9304050638427039e-01  9.4610139280578753e-01  1.1927742587810046e+00  1.4267664911830906e+00  1.6419894058774294e+00  1.8326904539179372e+00  1.9936151814440730e+00  2.1202016657420675e+00  2.2088222813939598e+00  2.2571823168649523e+00  2.2655204961253470e+00  -8.8777322752061805e-01  -8.7943781288214806e-01  -8.3079688564124887e-01  -7.4163945341892812e-01  -6.1430149626660790e-01  -4.5245721171933978e-01  -2.6071348126077387e-01  -4.4362292051756000e-02  1.9081684794120704e-01  4.3871892917679994e-01  6.9304303386879840e-01  9.4739635805100575e-01  1.1953841176342275e+00  1.4306993766499994e+00  1.6472269246730731e+00  1.8391729143157431e+00  2.0012275182550296e+00  2.1287643451080034e+00  2.2180921373563431e+00  2.2668691961832290e+00  2.2753302013383259e+00  -9.1418012781266800e-01  -9.0572762554796860e-01  -8.5610008556462724e-01  -7.6514952808773684e-01  -6.3534684914565254e-01  -4.7052827863846985e-01  -2.7545870126688649e-01  -5.5561851275316966e-02  1.8328848217669197e-01  4.3493081185727556e-01  6.9303716402726645e-01  9.5120290710755240e-01  1.2030195541561322e+00  1.4421473430928426e+00  1.6624045911046512e+00  1.8578887393161925e+00  2.0231397461767737e+00  2.1533524424589348e+00  2.2446547489568687e+00  2.2945627106596111e+00  2.3032711955342444e+00  -9.5850199861803320e-01  -9.4980841107690694e-01  -8.9845520852668026e-01  -8.0440472801986340e-01  -6.7037547457136448e-01  -5.0049948841069480e-01  -2.9982500591276773e-01  -7.4005999323269192e-02  1.7092528023796291e-01  4.2871937184860309e-01  6.9301457348297768e-01  9.5740111172110032e-01  1.2154637417325072e+00  1.4608238384304257e+00  1.6872023617296124e+00  1.8885238784900427e+00  2.0590785078271030e+00  2.1937543894363887e+00  2.2883611826940187e+00  2.3401564856602133e+00  2.3492470177777105e+00  -1.0204799655144789e+00  -1.0114118938460666e+00  -9.5752834781729568e-01  -8.5897339771063119e-01  -7.1886290505115169e-01  -5.4179255529365000e-01  -3.3324064401963799e-01  -9.9195921352170244e-02  1.5409369714884838e-01  4.2027514865019233e-01  6.9296724107877150e-01  9.6578492108580505e-01  1.2323365631332048e+00  1.4862202329163325e+00  1.7210453529891052e+00  1.9305069961494206e+00  2.1085395606336133e+00  2.2495738798283473e+00  2.3489274781980503e+00  2.4034437938547746e+00  2.4130682615652410e+00  -1.0997345511722820e+00  -1.0901417982490631e+00  -1.0328117325975950e+00  -9.2818555682953063e-01  -7.7998999745530162e-01  -5.9350649698702718e-01  -3.7482018150975999e-01  -1.3036387107137898e-01  1.3335580437591188e-01  4.0989177307521074e-01  6.9288799985735894e-01  9.7604638743235062e-01  1.2530620902142817e+00  1.5175569670527360e+00  1.7630415084379873e+00  1.9829402258684046e+00  2.1707215837192662e+00  2.3201771226085959e+00  2.4259009444807025e+00  2.4840992544553142e+00  2.4944381209765294e+00  -1.1957390196181878e+00  -1.1854430157059450e+00  -1.1235687597580253e+00  -1.0110498333622022e+00  -8.5254324096331213e-01  -6.5431838684176169e-01  -4.2327950832162203e-01  -1.6640943825569690e-01  1.0951056600231968e-01  3.9798639268008906e-01  6.9277160225254664e-01  9.8775707369307297e-01  1.2768282772351207e+00  1.5537194961578340e+00  1.8118949147916279e+00  2.0444973795574386e+00  2.2444242439056539e+00  2.4046092956518739e+00  2.5186075297355219e+00  2.5816532398404695e+00  2.5929337267131651e+00  -1.3077861437796507e+00  -1.2965602700658363e+00  -1.2287504199484667e+00  -1.1061269526210806e+00  -9.3477048043308708e-01  -7.2235021449193992e-01  -4.7683181471129549e-01  -2.0582908603165534e-01  8.3635188509630212e-02  3.8511891622868338e-01  6.9261648225733807e-01  1.0003519967125472e+00  1.3025477305369886e+00  1.5931881053551222e+00  1.8657997427604982e+00  2.1132868941283212e+00  2.3278998400404451e+00  2.5014663965266122e+00  2.6260712411943765e+00  2.6954584765965213e+00  2.7079856685334041e+00  -1.4349476960603134e+00  -1.4224807370264987e+00  -1.3468626822988452e+00  -1.2113357350597653e+00  -1.0241790778467728e+00  -7.9500500332329760e-01  -5.3307958846217696e-01  -2.4665814446785414e-01  5.7110117005476149e-02  3.7200085000558603e-01  6.9242728977986390e-01  1.0131256397214077e+00  1.3288366334858919e+00  1.6339816127790250e+00  1.9223302864102372e+00  2.1866820556131663e+00  2.4186440246013636e+00  2.6086970587126257e+00  2.7468854183762024e+00  2.8246455865814690e+00  2.8388593471262991e+00  -1.5760241896210150e+00  -1.5618440188283391e+00  -1.4757390886656481e+00  -1.3236497814942363e+00  -1.1172652696248475e+00  -8.6879187825850335e-01  -5.8893863232855448e-01  -2.8646229731427592e-01  3.1599352473095713e-02  3.5947861402843617e-01  6.9221790292969210e-01  1.0252549365131365e+00  1.3540409474203914e+00  1.6736538670473227e+00  1.9783649820441034e+00  2.2611380704898147e+00  2.5131114464778856e+00  2.7232890568796444e+00  2.8789899660704945e+00  2.9680557773149170e+00  2.9846443363162041e+00  -1.7294813627778507e+00  -1.7127688847741969e+00  -1.6121157690927497e+00  -1.4386206098944210e+00  -1.2091853730700834e+00  -9.3920161739077113e-01  -6.4066870467272996e-01  -3.2244155080816550e-01  8.9437911313137424e-03  3.4847023727030685e-01  6.9201375752852823e-01  1.0358686164254036e+00  1.3763524339497513e+00  1.7094094232747847e+00  2.0301248365784752e+00  2.3320610492552079e+00  2.6063621573848259e+00  2.8407666893666659e+00  3.0192488632578147e+00  3.1241115441659777e+00  3.1442643422248184e+00  -1.8933830542546228e+00  -1.8724338045748716e+00  -1.7507864618875719e+00  -1.5496648758022704e+00  -1.2934649210867428e+00  -1.0007861064002490e+00  -6.8414580915666312e-01  -3.5173763095821864e-01  -9.0832484127049262e-03  3.3983273967468836e-01  6.9185082970222433e-01  1.0441806913909639e+00  1.3940625521617953e+00  1.7384324535008819e+00  2.0734741967347090e+00  2.3939001938480611e+00  2.6917357573515099e+00  2.9544095121948586e+00  3.1625863989961105e+00  3.2904917445136119e+00  3.3165371756208453e+00  -2.0654143575343622e+00  -2.0358688057612166e+00  -1.8829308642589691e+00  -1.6472141984081465e+00  -1.3620906772312862e+00  -1.0477625627380494e+00  -7.1557793513471790e-01  -3.7204208689049478e-01  -2.1194740302157105e-02  3.3414902770819366e-01  6.9176691364147991e-01  1.0496895908012380e+00  1.4059795958959571e+00  1.7585191124779982e+00  2.1046986865966111e+00  2.4408334650610546e+00  2.7609538839488961e+00  3.0542428513860074e+00  3.3001691823458845e+00  3.4631257886955975e+00  3.5003453671403593e+00  -2.2434286612679348e+00  -2.1922794694076368e+00  -1.9933244765170497e+00  -1.7185921688697703e+00  -1.4068900402672941e+00  -1.0756670269512738e+00  -7.3286211021837799e-01  -3.8253215441595323e-01  -2.7154115049352646e-02  3.3145861719814618e-01  6.9178030534839863e-01  1.0524054702748360e+00  1.4119567993715287e+00  1.7690024031830713e+00  2.1219230334956385e+00  2.4686195133453688e+00  2.8057723176394886e+00  3.1268044498323659e+00  3.4159167891906397e+00  3.6326528960352551e+00  3.6948934093088774e+00  -2.4266241763778642e+00  -2.3150520903428768e+00  -2.0587579366426794e+00  -1.7517841239570864e+00  -1.4238657732606124e+00  -1.0845148182599824e+00  -7.3750750252183106e-01  -3.8493131575950662e-01  -2.8316551362680398e-02  3.3101944738167433e-01  6.9185297301662163e-01  1.0530075124593734e+00  1.4133332709608022e+00  1.7716931089604215e+00  2.1269398978169236e+00  2.4778598438201036e+00  2.8230056871700144e+00  3.1601028136259810e+00  3.4835187902957374e+00  3.7712928797806575e+00  3.8981670167590576e+00  -2.5329050990737256e+00  -2.3477881816678772e+00  -2.0631514925565080e+00  -1.7501238142178932e+00  -1.4216387070268581e+00  -1.0827321024548133e+00  -7.3622342435146815e-01  -3.8406263913024563e-01  -2.7790360954251796e-02  3.3125402447212854e-01  6.9183316302421249e-01  1.0527650331175724e+00  1.4129007664969850e+00  1.7711111281157739e+00  2.1262694214547175e+00  2.4772146069959633e+00  2.8226575425216169e+00  3.1609086325765814e+00  3.4888389582014105e+00  3.7963898750838112e+00  4.0741032538660944e+00  </DataArray> 
</PointData> 
</Piece>
</UnstructuredGrid>
</VTKFile>