<?xml version="1.0"?>
<VTKFile type="UnstructuredGrid"  version="0.1"  >
<UnstructuredGrid>
<Piece  NumberOfPoints="651" NumberOfCells="1200">
<Points>
<DataArray  type="Float64"  NumberOfComponents="3"  format="ascii">0 0 0  50000 0 0  100000 0 0  150000 0 0  200000 0 0  250000 0 0  300000 0 0  350000 0 0  400000 0 0  450000 0 0  500000 0 0  550000 0 0  600000 0 0  650000 0 0  700000 0 0  750000 0 0  800000 0 0  850000 0 0  900000 0 0  950000 0 0  1000000 0 0  0 50000 0  50000 50000 0  100000 50000 0  150000 50000 0  200000 50000 0  250000 50000 0  300000 50000 0  350000 50000 0  400000 50000 0  450000 50000 0  500000 50000 0  550000 50000 0  600000 50000 0  650000 50000 0  700000 50000 0  750000 50000 0  800000 50000 0  850000 50000 0  900000 50000 0  950000 50000 0  1000000 50000 0  0 100000 0  50000 100000 0  100000 100000 0  150000 100000 0  200000 100000 0  250000 100000 0  300000 100000 0  350000 100000 0  400000 100000 0  450000 100000 0  500000 100000 0  550000 100000 0  600000 100000 0  650000 100000 0  700000 100000 0  750000 100000 0  800000 100000 0  850000 100000 0  900000 100000 0  950000 100000 0  1000000 100000 0  0 150000 0  50000 150000 0  100000 150000 0  150000 150000 0  200000 150000 0  250000 150000 0  300000 150000 0  350000 150000 0  400000 150000 0  450000 150000 0  500000 150000 0  550000 150000 0  600000 150000 0  650000 150000 0  700000 150000 0  750000 150000 0  800000 150000 0  850000 150000 0  900000 150000 0  950000 150000 0  1000000 150000 0  0 200000 0  50000 200000 0  100000 200000 0  150000 200000 0  200000 200000 0  250000 200000 0  300000 200000 0  350000 200000 0  400000 200000 0  450000 200000 0  500000 200000 0  550000 200000 0  600000 200000 0  650000 200000 0  700000 200000 0  750000 200000 0  800000 200000 0  850000 200000 0  900000 200000 0  950000 200000 0  1000000 200000 0  0 250000 0  50000 250000 0  100000 250000 0  150000 250000 0  200000 250000 0  250000 250000 0  300000 250000 0  350000 250000 0  400000 250000 0  450000 250000 0  500000 250000 0  550000 250000 0  600000 250000 0  650000 250000 0  700000 250000 0  750000 250000 0  800000 250000 0  850000 250000 0  900000 250000 0  950000 250000 0  1000000 250000 0  0 300000 0  50000 300000 0  100000 300000 0  150000 300000 0  200000 300000 0  250000 300000 0  300000 300000 0  350000 300000 0  400000 300000 0  450000 300000 0  500000 300000 0  550000 300000 0  600000 300000 0  650000 300000 0  700000 300000 0  750000 300000 0  800000 300000 0  850000 300000 0  900000 300000 0  950000 300000 0  1000000 300000 0  0 350000 0  50000 350000 0  100000 350000 0  150000 350000 0  200000 350000 0  250000 350000 0  300000 350000 0  350000 350000 0  400000 350000 0  450000 350000 0  500000 350000 0  550000 350000 0  600000 350000 0  650000 350000 0  700000 350000 0  750000 350000 0  800000 350000 0  850000 350000 0  900000 350000 0  950000 350000 0  1000000 350000 0  0 400000 0  50000 400000 0  100000 400000 0  150000 400000 0  200000 400000 0  250000 400000 0  300000 400000 0  350000 400000 0  400000 400000 0  450000 400000 0  500000 400000 0  550000 400000 0  600000 400000 0  650000 400000 0  700000 400000 0  750000 400000 0  800000 400000 0  850000 400000 0  900000 400000 0  950000 400000 0  1000000 400000 0  0 450000 0  50000 450000 0  100000 450000 0  150000 450000 0  200000 450000 0  250000 450000 0  300000 450000 0  350000 450000 0  400000 450000 0  450000 450000 0  500000 450000 0  550000 450000 0  600000 450000 0  650000 450000 0  700000 450000 0  750000 450000 0  800000 450000 0  850000 450000 0  900000 450000 0  950000 450000 0  1000000 450000 0  0 500000 0  50000 500000 0  100000 500000 0  150000 500000 0  200000 500000 0  250000 500000 0  300000 500000 0  350000 500000 0  400000 500000 0  450000 500000 0  500000 500000 0  550000 500000 0  600000 500000 0  650000 500000 0  700000 500000 0  750000 500000 0  800000 500000 0  850000 500000 0  900000 500000 0  950000 500000 0  1000000 500000 0  0 550000 0  50000 550000 0  100000 550000 0  150000 550000 0  200000 550000 0  250000 550000 0  300000 550000 0  350000 550000 0  400000 550000 0  450000 550000 0  500000 550000 0  550000 550000 0  600000 550000 0  650000 550000 0  700000 550000 0  750000 550000 0  800000 550000 0  850000 550000 0  900000 550000 0  950000 550000 0  1000000 550000 0  0 600000 0  50000 600000 0  100000 600000 0  150000 600000 0  200000 600000 0  250000 600000 0  300000 600000 0  350000 600000 0  400000 600000 0  450000 600000 0  500000 600000 0  550000 600000 0  600000 600000 0  650000 600000 0  700000 600000 0  750000 600000 0  800000 600000 0  850000 600000 0  900000 600000 0  950000 600000 0  1000000 600000 0  0 650000 0  50000 650000 0  100000 650000 0  150000 650000 0  200000 650000 0  250000 650000 0  300000 650000 0  350000 650000 0  400000 650000 0  450000 650000 0  500000 650000 0  550000 650000 0  600000 650000 0  650000 650000 0  700000 650000 0  750000 650000 0  800000 650000 0  850000 650000 0  900000 650000 0  950000 650000 0  1000000 650000 0  0 700000 0  50000 700000 0  100000 700000 0  150000 700000 0  200000 700000 0  250000 700000 0  300000 700000 0  350000 700000 0  400000 700000 0  450000 700000 0  500000 700000 0  550000 700000 0  600000 700000 0  650000 700000 0  700000 700000 0  750000 700000 0  800000 700000 0  850000 700000 0  900000 700000 0  950000 700000 0  1000000 700000 0  0 750000 0  50000 750000 0  100000 750000 0  150000 750000 0  200000 750000 0  250000 750000 0  300000 750000 0  350000 750000 0  400000 750000 0  450000 750000 0  500000 750000 0  550000 750000 0  600000 750000 0  650000 750000 0  700000 750000 0  750000 750000 0  800000 750000 0  850000 750000 0  900000 750000 0  950000 750000 0  1000000 750000 0  0 800000 0  50000 800000 0  100000 800000 0  150000 800000 0  200000 800000 0  250000 800000 0  300000 800000 0  350000 800000 0  400000 800000 0  450000 800000 0  500000 800000 0  550000 800000 0  600000 800000 0  650000 800000 0  700000 800000 0  750000 800000 0  800000 800000 0  850000 800000 0  900000 800000 0  950000 800000 0  1000000 800000 0  0 850000 0  50000 850000 0  100000 850000 0  150000 850000 0  200000 850000 0  250000 850000 0  300000 850000 0  350000 850000 0  400000 850000 0  450000 850000 0  500000 850000 0  550000 850000 0  600000 850000 0  650000 850000 0  700000 850000 0  750000 850000 0  800000 850000 0  850000 850000 0  900000 850000 0  950000 850000 0  1000000 850000 0  0 900000 0  50000 900000 0  100000 900000 0  150000 900000 0  200000 900000 0  250000 900000 0  300000 900000 0  350000 900000 0  400000 900000 0  450000 900000 0  500000 900000 0  550000 900000 0  600000 900000 0  650000 900000 0  700000 900000 0  750000 900000 0  800000 900000 0  850000 900000 0  900000 900000 0  950000 900000 0  1000000 900000 0  0 950000 0  50000 950000 0  100000 950000 0  150000 950000 0  200000 950000 0  250000 950000 0  300000 950000 0  350000 950000 0  400000 950000 0  450000 950000 0  500000 950000 0  550000 950000 0  600000 950000 0  650000 950000 0  700000 950000 0  750000 950000 0  800000 950000 0  850000 950000 0  900000 950000 0  950000 950000 0  1000000 950000 0  0 1000000 0  50000 1000000 0  100000 1000000 0  150000 1000000 0  200000 1000000 0  250000 1000000 0  300000 1000000 0  350000 1000000 0  400000 1000000 0  450000 1000000 0  500000 1000000 0  550000 1000000 0  600000 1000000 0  650000 1000000 0  700000 1000000 0  750000 1000000 0  800000 1000000 0  850000 1000000 0  900000 1000000 0  950000 1000000 0  1000000 1000000 0  0 1050000 0  50000 1050000 0  100000 1050000 0  150000 1050000 0  200000 1050000 0  250000 1050000 0  300000 1050000 0  350000 1050000 0  400000 1050000 0  450000 1050000 0  500000 1050000 0  550000 1050000 0  600000 1050000 0  650000 1050000 0  700000 1050000 0  750000 1050000 0  800000 1050000 0  850000 1050000 0  900000 1050000 0  950000 1050000 0  1000000 1050000 0  0 1100000 0  50000 1100000 0  100000 1100000 0  150000 1100000 0  200000 1100000 0  250000 1100000 0  300000 1100000 0  350000 1100000 0  400000 1100000 0  450000 1100000 0  500000 1100000 0  550000 1100000 0  600000 1100000 0  650000 1100000 0  700000 1100000 0  750000 1100000 0  800000 1100000 0  850000 1100000 0  900000 1100000 0  950000 1100000 0  1000000 1100000 0  0 1150000 0  50000 1150000 0  100000 1150000 0  150000 1150000 0  200000 1150000 0  250000 1150000 0  300000 1150000 0  350000 1150000 0  400000 1150000 0  450000 1150000 0  500000 1150000 0  550000 1150000 0  600000 1150000 0  650000 1150000 0  700000 1150000 0  750000 1150000 0  800000 1150000 0  850000 1150000 0  900000 1150000 0  950000 1150000 0  1000000 1150000 0  0 1200000 0  50000 1200000 0  100000 1200000 0  150000 1200000 0  200000 1200000 0  250000 1200000 0  300000 1200000 0  350000 1200000 0  400000 1200000 0  450000 1200000 0  500000 1200000 0  550000 1200000 0  600000 1200000 0  650000 1200000 0  700000 1200000 0  750000 1200000 0  800000 1200000 0  850000 1200000 0  900000 1200000 0  950000 1200000 0  1000000 1200000 0  0 1250000 0  50000 1250000 0  100000 1250000 0  150000 1250000 0  200000 1250000 0  250000 1250000 0  300000 1250000 0  350000 1250000 0  400000 1250000 0  450000 1250000 0  500000 1250000 0  550000 1250000 0  600000 1250000 0  650000 1250000 0  700000 1250000 0  750000 1250000 0  800000 1250000 0  850000 1250000 0  900000 1250000 0  950000 1250000 0  1000000 1250000 0  0 1300000 0  50000 1300000 0  100000 1300000 0  150000 1300000 0  200000 1300000 0  250000 1300000 0  300000 1300000 0  350000 1300000 0  400000 1300000 0  450000 1300000 0  500000 1300000 0  550000 1300000 0  600000 1300000 0  650000 1300000 0  700000 1300000 0  750000 1300000 0  800000 1300000 0  850000 1300000 0  900000 1300000 0  950000 1300000 0  1000000 1300000 0  0 1350000 0  50000 1350000 0  100000 1350000 0  150000 1350000 0  200000 1350000 0  250000 1350000 0  300000 1350000 0  350000 1350000 0  400000 1350000 0  450000 1350000 0  500000 1350000 0  550000 1350000 0  600000 1350000 0  650000 1350000 0  700000 135
[...]
<PointData  Scalars="f_7495"> 
<DataArray  type="Float64"  Name="f_7495"  format="ascii">-8.7346674172125038e-01  -7.4321996114715538e-01  -5.9953401753099100e-01  -4.4656039901777372e-01  -2.8889921782574884e-01  -1.2797564924796029e-01  3.5444942101465399e-02  2.0077872128186963e-01  3.6749904174334946e-01  5.3509419814997894e-01  7.0305112727169539e-01  8.7084808529248547e-01  1.0379488984993854e+00  1.2037931768196091e+00  1.3677752569225972e+00  1.5291994035640162e+00  1.6871869067314913e+00  1.8404738618525887e+00  1.9868149371594632e+00  2.1203590278549389e+00  2.2077197225305758e+00  -7.9056174190677808e-01  -7.3073238918880301e-01  -5.9651087328735852e-01  -4.4578160982015069e-01  -2.8874049640341787e-01  -1.2800266357801487e-01  3.5378667752834284e-02  2.0073743744678574e-01  3.6751759657910260e-01  5.3519484803539763e-01  7.0325006288041936e-01  8.7115873682510614e-01  1.0383844983001596e+00  1.2043696051156523e+00  1.3685133024823433e+00  1.5301163904616804e+00  1.6882222467719177e+00  1.8410965391618019e+00  1.9843667252379920e+00  2.1043290168720250e+00  2.1574513444309660e+00  -6.9471006576204075e-01  -6.6517141067193575e-01  -5.6405418146744390e-01  -4.2944922502300281e-01  -2.8003649385143925e-01  -1.2314088236307395e-01  3.8178547464110597e-02  2.0237708314742398e-01  3.6848014803172485e-01  5.3573860805627949e-01  7.0349194744854593e-01  8.7110591622597866e-01  1.0379335927327622e+00  1.2032721604399266e+00  1.3662847501684234e+00  1.5258257932882060e+00  1.6800170013930984e+00  1.8251848453124091e+00  1.9532648458106423e+00  2.0463270778779123e+00  2.0710297211476862e+00  -6.0296040441309529e-01  -5.8520394149124155e-01  -5.0915634307161339e-01  -3.9471520054622539e-01  -2.5832740175669827e-01  -1.0948302413862217e-01  4.6802619379466760e-02  2.0775526752350082e-01  3.7166125819991985e-01  5.3730793648903730e-01  7.0371248264882225e-01  8.6997683346372412e-01  1.0351885900081010e+00  1.1983179014103968e+00  1.3580595190479636e+00  1.5125400097389103e+00  1.6587441604930631e+00  1.7914179634407659e+00  1.9012185539518209e+00  1.9727183928380030e+00  1.9870668809910106e+00  -5.1626617751874215e-01  -5.0381271658787374e-01  -4.4412629166841811e-01  -3.4729504250274529e-01  -2.2522821159439702e-01  -8.6855372823535518e-02  6.2007073231116379e-02  2.1766125993705390e-01  3.7765148767593898e-01  5.4020427372853019e-01  7.0389581522370404e-01  8.6744415172267531e-01  1.0295536088110433e+00  1.1887575002127526e+00  1.3432067523237539e+00  1.4903405430565448e+00  1.6263623413703565e+00  1.7454784738027007e+00  1.8390883098408615e+00  1.8959101945183057e+00  1.9060491027530411e+00  -4.3501017709271222e-01  -4.2537713245196129e-01  -3.7646522538728205e-01  -2.9349232920501445e-01  -1.8463652718374113e-01  -5.7295387559261855e-02  8.2864475951383604e-02  2.3174299199722875e-01  3.8635485299902933e-01  5.4441843534428569e-01  7.0404986449272844e-01  8.6353855844906358e-01  1.0211634596995591e+00  1.1750100699909334e+00  1.3227507663526590e+00  1.4613556916275332e+00  1.5867240359775538e+00  1.6933044408681759e+00  1.7739818976590811e+00  1.8209381632410158e+00  1.8289651460894318e+00  -3.5972009140110045e-01  -3.5180550666498900e-01  -3.1029388998229573e-01  -2.3796200406852847e-01  -1.4042852930372460e-01  -2.3543780876135109e-02  1.0761446388820117e-01  2.4894784034888781e-01  3.9719733816739650e-01  5.4970638698701491e-01  7.0419074558562400e-01  8.5853875264840362e-01  1.0106326539313875e+00  1.1581721499434257e+00  1.2984828262349359e+00  1.4283041179070664e+00  1.5435829844535800e+00  1.6393677082571034e+00  1.7100182728724451e+00  1.7501270816770951e+00  1.7568807075092856e+00  -2.9094938663676634e-01  -2.8418647500096628e-01  -2.4798067778472327e-01  -1.8383721389849489e-01  -9.5712781430160460e-02  1.1802605052398810e-02  1.3431636059183139e-01  2.6795014842072945e-01  4.0937193250291481e-01  5.5569531528828930e-01  7.0433368804562213e-01  8.5284754056404233e-01  9.9879525281732573e-01  1.1395863031231535e+00  1.2723363468200342e+00  1.3937352164955910e+00  1.4999643090647150e+00  1.5867418142717729e+00  1.6496291058716437e+00  1.6847967715193408e+00  1.6906884458107851e+00  -2.2919961868723432e-01  -2.2325857784115916e-01  -1.9098868466037891e-01  -1.3320320942578071e-01  -5.2791239191822249e-02  4.6600782684389573e-02  1.6120455014165566e-01  2.8744153142287088e-01  4.2203074954604974e-01  5.6197563889627222e-01  7.0448931106636770e-01  8.4689390613023341e-01  9.8651227242428052e-01  1.1205616024314426e+00  1.2460585930212480e+00  1.3597536839371516e+00  1.4581273331301559e+00  1.5375013428400335e+00  1.5943372850774138e+00  1.6258242226117032e+00  1.6310943965787916e+00  -1.7489364272639712e-01  -1.6956278236675768e-01  -1.4027828690068797e-01  -8.7462373905156168e-02  -1.3314124555972419e-02  7.9200034618968754e-02  1.8682417118689787e-01  3.0628073451627841e-01  4.3440120282894823e-01  5.6816224183064945e-01  7.0466320092631296e-01  8.4107219620411755e-01  9.7455963322017658e-01  1.1022330706662620e+00  1.2210870664495712e+00  1.3279858561505791e+00  1.4197038282835999e+00  1.4930555285268121e+00  1.5451513345214054e+00  1.5738404621792188e+00  1.5786485013445588e+00  -1.2837168480731198e-01  -1.2350370312266969e-01  -9.6504363630913220e-02  -4.7568884035054659e-02  2.1554068295196068e-02  1.0837875798577855e-01  2.1004656548786321e-01  3.2354533556813697e-01  4.4583849533494257e-01  5.7392596379726613e-01  7.0485692489164353e-01  8.3571325175461186e-01  9.6357970714393504e-01  1.0855149611497239e+00  1.1985372012371311e+00  1.2996395881347182e+00  1.3858527081859138e+00  1.4543714922853417e+00  1.5027644925685131e+00  1.5293127583603008e+00  1.5337744876369646e+00  -8.9896799006071268e-02  -8.5381717561027595e-02  -6.0120549195283708e-02  -1.4175117078578795e-02  5.1001464823268276e-02  1.3325819662644658e-01  2.3003256272798842e-01  3.3852881423380604e-01  4.5583680604807153e-01  5.7900372162545533e-01  7.0506933657115678e-01  8.3107701054394612e-01  9.5407292807301836e-01  1.0711057896161680e+00  1.1792389471002962e+00  1.2755868713129228e+00  1.3573870553215370e+00  1.4221163761812059e+00  1.4676616135974483e+00  1.4925876527943287e+00  1.4967937178955766e+00  -5.9663946061386107e-02  -5.5414249280874316e-02  -3.1439645358283162e-02  1.2275717181364859e-02  7.4470949272198342e-02  1.5322280063889041e-01  2.4618054701737035e-01  3.5071358694642080e-01  4.6401885443881263e-01  5.8319627218224068e-01  7.0529767415696298e-01  8.2735684105787166e-01  9.4640990898329502e-01  1.0595160015534162e+00  1.1637877953661058e+00  1.2564408649907626e+00  1.3348687740287242e+00  1.3967483475120519e+00  1.4401816747614238e+00  1.4639184246288768e+00  1.4679443796289047e+00  -3.7809850041475572e-02  -3.3751757463369031e-02  -1.0671531854285916e-02  3.1489617104968080e-02  9.1590815319965810e-02  1.6785607916713388e-01  2.5807667000286005e-01  3.5973790415948376e-01  4.7011727072851939e-01  5.8636050483598412e-01  7.0553832558761076e-01  8.2468863202684395e-01  9.4085098405165302e-01  1.0511011810474769e+00  1.1525936672975527e+00  1.2426183484610480e+00  1.3186762256986286e+00  1.3785759901318848e+00  1.4205572236044524e+00  1.4434848207157178e+00  1.4473971575425320e+00  -2.4421948319244761e-02  -2.0489980154243727e-02  2.0520259115604793e-03  4.3282660359534639e-02  1.0212711824566292e-01  1.7689301239275054e-01  2.6545426974019770e-01  3.6536579494765925e-01  4.7395562708505379e-01  5.8840065383806250e-01  7.0578729333826795e-01  8.2316037962595356e-01  9.3756560001190359e-01  1.0460919667212367e+00  1.1459207666384739e+00  1.2343862266551091e+00  1.3090509561060768e+00  1.3677973194368767e+00  1.4089403323831837e+00  1.4314077168554766e+00  1.4352677524829314e+00  -1.9545323543411704e-02  -1.5678689497204516e-02  6.6614673804448986e-03  4.7556280145215624e-02  1.0595273280026740e-01  1.8018770178726282e-01  2.6816473452498268e-01  3.6746420415978809e-01  4.7543319284404606e-01  5.8926088669561683e-01  7.0604043807411421e-01  8.2281998945260704e-01  9.3664768330417791e-01  1.0446166719884342e+00  1.1439161416232362e+00  1.2318931743609571e+00  1.3061281433479512e+00  1.3645245960030032e+00  1.4054194087677718e+00  1.4277595656454201e+00  1.4316261996916275e+00  -2.3186876334716378e-02  -1.9326840707261532e-02  3.1405437650331141e-03  4.4283556711339586e-02  1.0302992004214159e-01  1.7769464949311006e-01  2.6616010950974711e-01  3.6598890942698703e-01  4.7451527613632044e-01  5.8892049652227219e-01  7.0629358280996068e-01  8.2368022231016402e-01  9.3812524906317041e-01  1.0467150812005626e+00  1.1466266064080213e+00  1.2351878637554694e+00  1.3099537579025593e+00  1.3687982157886855e+00  1.4100288502366602e+00  1.4325708563024633e+00  1.4365028244674642e+00  -3.5316281394317396e-02  -3.1403944567502673e-02  -8.4763474562366513e-03  3.3504886016331635e-02  9.3404650449588705e-02  1.6946252768717091e-01  2.5948720885066950e-01  3.6097969510074684e-01  4.7122989209657284e-01  5.8739224412138491e-01  7.0654255056062032e-01  8.2572037131224563e-01  9.4196360541970781e-01  1.0523429719887420e+00  1.1540042061453650e+00  1.2442247969810913e+00  1.3204900608282601e+00  1.3805912590432556e+00  1.4227524080025116e+00  1.4458326336115945e+00  1.4498907261897009e+00  -5.5863503480685667e-02  -5.1837548480658101e-02  -2.8100798613204137e-02  1.5332528636168158e-02  7.7212102119497708e-02  1.5564001115745899e-01  2.4829308078212048e-01  3.5256487459481090e-01  4.6567096716493528e-01  5.8472403509036108e-01  7.0678320199127342e-01  8.2888460396599539e-01  9.4806202170942067e-01  1.0613672892018087e+00  1.1659003291308596e+00  1.2588580755093388e+00  1.3376099268760335e+00  1.3998051589668663e+00  1.4435205215065114e+00  1.4674951254291015e+00  1.4717448222096134e+00  -8.4712841747353301e-02  -8.0506776646106559e-02  -5.5580737449223608e-02  -1.0035500032980831e-02  5.4693820826690283e-02  1.3649400483530535e-01  2.3284192904793627e-01  3.4097508653206526e-01  4.5800794807521827e-01  5.8100386560429251e-01  7.0701153957708529e-01  8.3307715452278719e-01  9.5624407010016832e-01  1.0735520619144301e+00  1.1820483134202471e+00  1.2788226795217881e+00  1.3610794113249705e+00  1.4262559932268146e+00  1.4722014253435152e+00  1.4974625937092569e+00  1.5019776751543008e+00  -1.2169361148873321e-01  -1.1723188221206961e-01  -9.0683616420280277e-02  -4.2290616137108314e-02  2.6228167962322094e-02  1.1244128801352091e-01  2.1354367491110973e-01  3.2656591499851823e-01  4.4850116900431092e-01  5.7636762439363565e-01  7.0722395125660686e-01  8.3815491235098460e-01  9.6624238081330749e-01  1.0885355405801118e+00  1.2020343106603846e+00  1.3037021181624684e+00  1.3905268078530497e+00  1.4596497601832967e+00  1.5085852397791524e+00  1.5355845792709051e+00  1.5404525609555473e+00  -1.6656762519631887e-01  -1.6175958603097931e-01  -1.3307045837316500e-01  -8.0974652378569642e-02  -7.6229521353551929e-03  8.4095019997669870e-02  1.9099380969867874e-01  3.0984780548198948e-01  4.3752124292808026e-01  5.7100867994414239e-01  7.0741767522194887e-01  8.4391863431761349e-01  9.7767967331931471e-01  1.1058001416319840e+00  1.2252567049613636e+00  1.3328808415292894e+00  1.4253950007042264e+00  1.4995432500534052e+00  1.5523591630489335e+00  1.5816436585150002e+00  1.5869745188746380e+00  -2.1901352043054467e-01  -2.1374334646345544e-01  -1.8225640892916581e-01  -1.2542046669178286e-01  -4.6046456981901331e-02  5.2327192211105614e-02  1.6602228312701209e-01  2.9151927371682129e-01  4.2556860372398819e-01  5.6518697001803930e-01  7.0759156508190735e-01  8.5010523725200482e-01  9.9005012660222835e-01  1.1246393447254046e+00  1.2508763260066178e+00  1.3654800934638789e+00  1.4648721153400850e+00  1.5452840855740382e+00  1.6030695608086301e+00  1.6353394539894073e+00  1.6412804948354829e+00  -2.7860756966253025e-01  -2.7271589537108537e-01  -2.3754822972338727e-01  -1.7466093812351513e-01  -8.7883432916452037e-02  1.8345659652676455e-02  1.3974452932823672e-01  2.7249457302512176e-01  4.1328562333095364e-01  5.5923333558423960e-01  7.0774718810266279e-01  8.5638556085999940e-01  1.0027089436453749e+00  1.1441307277275581e+00  1.2777645155564528e+00  1.4002782710958792e+00  1.5077936575784336e+00  1.5959180900467629e+00  1.6600615539329842e+00  1.6962673511492234e+00  1.7030302627850227e+00  -3.4479983136102160e-01  -3.3804620552883174e-01  -2.9793739672418201e-01  -2.2728683210883793e-01  -1.3150210830530790e-01  -1.6223241758789069e-02  1.1359804991334646e-01  2.5390872620486166e-01  4.0144822221690457e-01  5.5354212349989151e-01  7.0789013056267336e-01  8.6237448916128501e-01  1.0148835379809040e+00  1.1631330357994090e+00  1.3044664122600933e+00  1.4356246570244233e+00  1.5525094054520081e+00  1.6500428802168072e+00  1.7223747661305671e+00  1.7638863828132560e+00  1.7718009675493664e+00  -4.1688426994115774e-01  -4.0885728709274266e-01  -3.6190102151080533e-01  -2.8122356471989696e-01  -1.7464315982927064e-01  -4.9274815479246926e-02  8.9330109795633106e-02  2.3707080615736667e-01  3.9091741644874384e-01  5.4854231769924289e-01  7.0803101165558113e-01  8.6766244080402544e-01  1.0257260231492831e+00  1.1803378841510797e+00  1.3292164001969207e+00  1.4693762637075616e+00  1.5967174033320335e+00  1.7055732053533019e+00  1.7885461015355619e+00  1.8374580086002363e+00  1.8470910532409861e+00  -4.9396822660475881e-01  -4.8382931837002296e-01  -4.2700743369257660e-01  -3.3339759765441290e-01  -2.1428146522206493e-01  -7.8259666908248926e-02  6.8874123824548675e-02  2.2332337593555704e-01  3.8252726733726905e-01  5.4463672442563882e-01  7.0818506092461375e-01  8.7187660241978904e-01  1.0344293884723799e+00  1.1944196162112626e+00  1.3500738029171979e+00  1.4989362489718465e+00  1.6373090877426979e+00  1.7593759186510392e+00  1.8562071678167062e+00  1.9158935927361558e+00  1.9283470536670233e+00  -5.7498600484272033e-01  -5.6063751668971207e-01  -4.8913767780352529e-01  -3.7933708729246762e-01  -2.4666328434476256e-01  -1.0045913359060482e-01  5.4021357100346439e-02  2.1376297473791966e-01  3.7689228614021830e-01  5.4210404268459644e-01  7.0836839349950143e-01  8.7477293965928804e-01  1.0404196179484044e+00  1.2043256086248226e+00  1.3652782567688566e+00  1.5215639002869394e+00  1.6704082779050082e+00  1.8067960766945264e+00  1.9212372192199065e+00  1.9972848176395281e+00  2.0150412805613809e+00  -6.5894884499938899e-01  -6.3424620172961299e-01  -5.4118396966233939e-01  -4.1310396916410280e-01  -2.6793612524479193e-01  -1.1374491713989558e-01  4.5796125979891668e-02  2.0880871570839421e-01  3.7414728341555986e-01  5.4097495992234512e-01  7.0858892869978163e-01  8.7634226809204885e-01  1.0436007281166044e+00  1.2097037930009029e+00  1.3739023286842154e+00  1.5352217585113952e+00  1.6921173699997529e+00  1.8415301011713083e+00  1.9761350576157417e+00  2.0772522868202268e+00  2.1067909419103317e+00  -7.4537046828266662e-01  -6.9224814072372454e-01  -5.7228584908969082e-01  -4.2901566301349608e-01  -2.7614137062360850e-01  -1.1803551431336660e-01  4.3567573665973032e-02  2.0771127103266762e-01  3.7369637784816367e-01  5.4092213932321886e-01  7.0883081326790831e-01  8.7688602811293204e-01  1.0445632795692277e+00  1.2113434387015434e+00  1.3767022083954932e+00  1.5400835397263375e+00  1.7008213725517336e+00  1.8578624859684592e+00  2.0085917494356615e+00  2.1428132653370993e+00  2.2026426180550742e+00  -7.9563884638227500e-01  -7.0827815170663710e-01  -5.7473406101116009e-01  -4.2839298570428236e-01  -2.7510603058318128e-01  -1.1711852741570254e-01  4.4305619225720579e-02  2.0828769932871130e-01  3.7413197764893852e-01  5.4123279085584075e-01  7.0902974887663328e-01  8.7698667799834928e-01  1.0445818344049813e+00  1.2113021548664602e+00  1.3766359340468635e+00  1.5400565253962841e+00  1.7009800939740660e+00  1.8586412751660839e+00  2.0116148936792944e+00  2.1553008372954539e+00  2.2855476178695482e+00  </DataArray> 
</PointData> 
</Piece>
</UnstructuredGrid>
</VTKFile>