<?xml version="1.0"?>
<VTKFile type="UnstructuredGrid"  version="0.1"  >
<UnstructuredGrid>
<Piece  NumberOfPoints="651" NumberOfCells="1200">
<Points>
<DataArray  type="Float64"  NumberOfComponents="3"  format="ascii">0 0 0  50000 0 0  100000 0 0  150000 0 0  200000 0 0  250000 0 0  300000 0 0  350000 0 0  400000 0 0  450000 0 0  500000 0 0  550000 0 0  600000 0 0  650000 0 0  700000 0 0  750000 0 0  800000 0 0  850000 0 0  900000 0 0  950000 0 0  1000000 0 0  0 50000 0  50000 50000 0  100000 50000 0  150000 50000 0  200000 50000 0  250000 50000 0  300000 50000 0  350000 50000 0  400000 50000 0  450000 50000 0  500000 50000 0  550000 50000 0  600000 50000 0  650000 50000 0  700000 50000 0  750000 50000 0  800000 50000 0  850000 50000 0  900000 50000 0  950000 50000 0  1000000 50000 0  0 100000 0  50000 100000 0  100000 100000 0  150000 100000 0  200000 100000 0  250000 100000 0  300000 100000 0  350000 100000 0  400000 100000 0  450000 100000 0  500000 100000 0  550000 100000 0  600000 100000 0  650000 100000 0  700000 100000 0  750000 100000 0  800000 100000 0  850000 100000 0  900000 100000 0  950000 100000 0  1000000 100000 0  0 150000 0  50000 150000 0  100000 150000 0  150000 150000 0  200000 150000 0  250000 150000 0  300000 150000 0  350000 150000 0  400000 150000 0  450000 150000 0  500000 150000 0  550000 150000 0  600000 150000 0  650000 150000 0  700000 150000 0  750000 150000 0  800000 150000 0  850000 150000 0  900000 150000 0  950000 150000 0  1000000 150000 0  0 200000 0  50000 200000 0  100000 200000 0  150000 200000 0  200000 200000 0  250000 200000 0  300000 200000 0  350000 200000 0  400000 200000 0  450000 200000 0  500000 200000 0  550000 200000 0  600000 200000 0  650000 200000 0  700000 200000 0  750000 200000 0  800000 200000 0  850000 200000 0  900000 200000 0  950000 200000 0  1000000 200000 0  0 250000 0  50000 250000 0  100000 250000 0  150000 250000 0  200000 250000 0  250000 250000 0  300000 250000 0  350000 250000 0  400000 250000 0  450000 250000 0  500000 250000 0  550000 250000 0  600000 250000 0  650000 250000 0  700000 250000 0  750000 250000 0  800000 250000 0  850000 250000 0  900000 250000 0  950000 250000 0  1000000 250000 0  0 300000 0  50000 300000 0  100000 300000 0  150000 300000 0  200000 300000 0  250000 300000 0  300000 300000 0  350000 300000 0  400000 300000 0  450000 300000 0  500000 300000 0  550000 300000 0  600000 300000 0  650000 300000 0  700000 300000 0  750000 300000 0  800000 300000 0  850000 300000 0  900000 300000 0  950000 300000 0  1000000 300000 0  0 350000 0  50000 350000 0  100000 350000 0  150000 350000 0  200000 350000 0  250000 350000 0  300000 350000 0  350000 350000 0  400000 350000 0  450000 350000 0  500000 350000 0  550000 350000 0  600000 350000 0  650000 350000 0  700000 350000 0  750000 350000 0  800000 350000 0  850000 350000 0  900000 350000 0  950000 350000 0  1000000 350000 0  0 400000 0  50000 400000 0  100000 400000 0  150000 400000 0  200000 400000 0  250000 400000 0  300000 400000 0  350000 400000 0  400000 400000 0  450000 400000 0  500000 400000 0  550000 400000 0  600000 400000 0  650000 400000 0  700000 400000 0  750000 400000 0  800000 400000 0  850000 400000 0  900000 400000 0  950000 400000 0  1000000 400000 0  0 450000 0  50000 450000 0  100000 450000 0  150000 450000 0  200000 450000 0  250000 450000 0  300000 450000 0  350000 450000 0  400000 450000 0  450000 450000 0  500000 450000 0  550000 450000 0  600000 450000 0  650000 450000 0  700000 450000 0  750000 450000 0  800000 450000 0  850000 450000 0  900000 450000 0  950000 450000 0  1000000 450000 0  0 500000 0  50000 500000 0  100000 500000 0  150000 500000 0  200000 500000 0  250000 500000 0  300000 500000 0  350000 500000 0  400000 500000 0  450000 500000 0  500000 500000 0  550000 500000 0  600000 500000 0  650000 500000 0  700000 500000 0  750000 500000 0  800000 500000 0  850000 500000 0  900000 500000 0  950000 500000 0  1000000 500000 0  0 550000 0  50000 550000 0  100000 550000 0  150000 550000 0  200000 550000 0  250000 550000 0  300000 550000 0  350000 550000 0  400000 550000 0  450000 550000 0  500000 550000 0  550000 550000 0  600000 550000 0  650000 550000 0  700000 550000 0  750000 550000 0  800000 550000 0  850000 550000 0  900000 550000 0  950000 550000 0  1000000 550000 0  0 600000 0  50000 600000 0  100000 600000 0  150000 600000 0  200000 600000 0  250000 600000 0  300000 600000 0  350000 600000 0  400000 600000 0  450000 600000 0  500000 600000 0  550000 600000 0  600000 600000 0  650000 600000 0  700000 600000 0  750000 600000 0  800000 600000 0  850000 600000 0  900000 600000 0  950000 600000 0  1000000 600000 0  0 650000 0  50000 650000 0  100000 650000 0  150000 650000 0  200000 650000 0  250000 650000 0  300000 650000 0  350000 650000 0  400000 650000 0  450000 650000 0  500000 650000 0  550000 650000 0  600000 650000 0  650000 650000 0  700000 650000 0  750000 650000 0  800000 650000 0  850000 650000 0  900000 650000 0  950000 650000 0  1000000 650000 0  0 700000 0  50000 700000 0  100000 700000 0  150000 700000 0  200000 700000 0  250000 700000 0  300000 700000 0  350000 700000 0  400000 700000 0  450000 700000 0  500000 700000 0  550000 700000 0  600000 700000 0  650000 700000 0  700000 700000 0  750000 700000 0  800000 700000 0  850000 700000 0  900000 700000 0  950000 700000 0  1000000 700000 0  0 750000 0  50000 750000 0  100000 750000 0  150000 750000 0  200000 750000 0  250000 750000 0  300000 750000 0  350000 750000 0  400000 750000 0  450000 750000 0  500000 750000 0  550000 750000 0  600000 750000 0  650000 750000 0  700000 750000 0  750000 750000 0  800000 750000 0  850000 750000 0  900000 750000 0  950000 750000 0  1000000 750000 0  0 800000 0  50000 800000 0  100000 800000 0  150000 800000 0  200000 800000 0  250000 800000 0  300000 800000 0  350000 800000 0  400000 800000 0  450000 800000 0  500000 800000 0  550000 800000 0  600000 800000 0  650000 800000 0  700000 800000 0  750000 800000 0  800000 800000 0  850000 800000 0  900000 800000 0  950000 800000 0  1000000 800000 0  0 850000 0  50000 850000 0  100000 850000 0  150000 850000 0  200000 850000 0  250000 850000 0  300000 850000 0  350000 850000 0  400000 850000 0  450000 850000 0  500000 850000 0  550000 850000 0  600000 850000 0  650000 850000 0  700000 850000 0  750000 850000 0  800000 850000 0  850000 850000 0  900000 850000 0  950000 850000 0  1000000 850000 0  0 900000 0  50000 900000 0  100000 900000 0  150000 900000 0  200000 900000 0  250000 900000 0  300000 900000 0  350000 900000 0  400000 900000 0  450000 900000 0  500000 900000 0  550000 900000 0  600000 900000 0  650000 900000 0  700000 900000 0  750000 900000 0  800000 900000 0  850000 900000 0  900000 900000 0  950000 900000 0  1000000 900000 0  0 950000 0  50000 950000 0  100000 950000 0  150000 950000 0  200000 950000 0  250000 950000 0  300000 950000 0  350000 950000 0  400000 950000 0  450000 950000 0  500000 950000 0  550000 950000 0  600000 950000 0  650000 950000 0  700000 950000 0  750000 950000 0  800000 950000 0  850000 950000 0  900000 950000 0  950000 950000 0  1000000 950000 0  0 1000000 0  50000 1000000 0  100000 1000000 0  150000 1000000 0  200000 1000000 0  250000 1000000 0  300000 1000000 0  350000 1000000 0  400000 1000000 0  450000 1000000 0  500000 1000000 0  550000 1000000 0  600000 1000000 0  650000 1000000 0  700000 1000000 0  750000 1000000 0  800000 1000000 0  850000 1000000 0  900000 1000000 0  950000 1000000 0  1000000 1000000 0  0 1050000 0  50000 1050000 0  100000 1050000 0  150000 1050000 0  200000 1050000 0  250000 1050000 0  300000 1050000 0  350000 1050000 0  400000 1050000 0  450000 1050000 0  500000 1050000 0  550000 1050000 0  600000 1050000 0  650000 1050000 0  700000 1050000 0  750000 1050000 0  800000 1050000 0  850000 1050000 0  900000 1050000 0  950000 1050000 0  1000000 1050000 0  0 1100000 0  50000 1100000 0  100000 1100000 0  150000 1100000 0  200000 1100000 0  250000 1100000 0  300000 1100000 0  350000 1100000 0  400000 1100000 0  450000 1100000 0  500000 1100000 0  550000 1100000 0  600000 1100000 0  650000 1100000 0  700000 1100000 0  750000 1100000 0  800000 1100000 0  850000 1100000 0  900000 1100000 0  950000 1100000 0  1000000 1100000 0  0 1150000 0  50000 1150000 0  100000 1150000 0  150000 1150000 0  200000 1150000 0  250000 1150000 0  300000 1150000 0  350000 1150000 0  400000 1150000 0  450000 1150000 0  500000 1150000 0  550000 1150000 0  600000 1150000 0  650000 1150000 0  700000 1150000 0  750000 1150000 0  800000 1150000 0  850000 1150000 0  900000 1150000 0  950000 1150000 0  1000000 1150000 0  0 1200000 0  50000 1200000 0  100000 1200000 0  150000 1200000 0  200000 1200000 0  250000 1200000 0  300000 1200000 0  350000 1200000 0  400000 1200000 0  450000 1200000 0  500000 1200000 0  550000 1200000 0  600000 1200000 0  650000 1200000 0  700000 1200000 0  750000 1200000 0  800000 1200000 0  850000 1200000 0  900000 1200000 0  950000 1200000 0  1000000 1200000 0  0 1250000 0  50000 1250000 0  100000 1250000 0  150000 1250000 0  200000 1250000 0  250000 1250000 0  300000 1250000 0  350000 1250000 0  400000 1250000 0  450000 1250000 0  500000 1250000 0  550000 1250000 0  600000 1250000 0  650000 1250000 0  700000 1250000 0  750000 1250000 0  800000 1250000 0  850000 1250000 0  900000 1250000 0  950000 1250000 0  1000000 1250000 0  0 1300000 0  50000 1300000 0  100000 1300000 0  150000 1300000 0  200000 1300000 0  250000 1300000 0  300000 1300000 0  350000 1300000 0  400000 1300000 0  450000 1300000 0  500000 1300000 0  550000 1300000 0  600000 1300000 0  650000 1300000 0  700000 1300000 0  750000 1300000 0  800000 1300000 0  850000 1300000 0  900000 1300000 0  950000 1300000 0  1000000 1300000 0  0 1350000 0  50000 1350000 0  100000 1350000 0  150000 1350000 0  200000 1350000 0  250000 1350000 0  300000 1350000 0  350000 1350000 0  400000 1350000 0  450000 1350000 0  500000 1350000 0  550000 1350000 0  600000 1350000 0  650000 1350000 0  700000 135
[...]
<PointData  Scalars="f_7495"> 
<DataArray  type="Float64"  Name="f_7495"  format="ascii">-4.7302107801110038e-01  -3.7548743895706183e-01  -2.6816743455576758e-01  -1.5402470383744327e-01  -3.6448294374565204e-02  8.3513816812881669e-02  2.0530065582839974e-01  3.2848397084109343e-01  4.5267668175722930e-01  5.7750207742189263e-01  7.0258215077214281e-01  8.2753261757814534e-01  9.5195925347509325e-01  1.0754515158166342e+00  1.1975682123003530e+00  1.3178060899113064e+00  1.4355335110382526e+00  1.5498446913382937e+00  1.6591252421889411e+00  1.7590951697340700e+00  1.8247223780555044e+00  -4.1086587619503429e-01  -3.6588614825050569e-01  -2.6573805625433289e-01  -1.5333491947904529e-01  -3.6259826534476756e-02  8.3541505534731567e-02  2.0528634114790964e-01  3.2848125401526823e-01  4.5271528968801111e-01  5.7760137551463353e-01  7.0275648518041667e-01  8.2779392852085931e-01  9.5231880027542370e-01  1.0759213168099222e+00  1.1981612216015882e+00  1.3185270979703365e+00  1.4363187761415415e+00  1.5502621068690488e+00  1.6571317468142976e+00  1.7467853762638341e+00  1.7869037089667354e+00  -3.3895239168033792e-01  -3.1663598182295877e-01  -2.4116410099660310e-01  -1.4084675961611151e-01  -2.9526036708948902e-02  8.7355232362159599e-02  2.0751880334295239e-01  3.2981350316579877e-01  4.5351380787385021e-01  5.7806307256454270e-01  7.0297135642146902e-01  8.2776881803857605e-01  9.5197667452124968e-01  1.0750750654795116e+00  1.1964449917440330e+00  1.3152386048870170e+00  1.4300645384137893e+00  1.5382001907021317e+00  1.6336680739190630e+00  1.7031751145029104e+00  1.7219679191427475e+00  -2.7011034742646195e-01  -2.5663540527430639e-01  -1.9985485197623121e-01  -1.1458663661300841e-01  -1.3021016519734845e-02  9.7804484951862072e-02  2.1416296187811232e-01  3.3398944732576480e-01  4.5600760918935135e-01  5.7931452442580655e-01  7.0317899185537402e-01  8.2693344666759372e-01  9.4990010262441071e-01  1.0713141817169629e+00  1.1902065030352751e+00  1.3051860973630480e+00  1.4140147365185574e+00  1.5127937928273885e+00  1.5945932364398190e+00  1.6479697014556809e+00  1.6589007916858591e+00  -2.0505878369879146e-01  -1.9558190670396203e-01  -1.5100997514330447e-01  -7.8877086682968375e-02  1.1987833861374166e-02  1.1496671559519692e-01  2.2574351696430117e-01  3.4157011471293480e-01  4.6061952810834883e-01  5.8157168682275440e-01  7.0336682066628919e-01  8.2505103910419053e-01  9.4566065009958455e-01  1.0641052210917501e+00  1.1790105965077269e+00  1.2884745398192510e+00  1.3896783327561426e+00  1.4783227336607057e+00  1.5480281411470038e+00  1.5904240263154534e+00  1.5981268436707763e+00  -1.4408954778911648e-01  -1.3674934052445115e-01  -1.0022566733022981e-01  -3.8432276092907072e-02  4.2567559446838640e-02  1.3729306071242692e-01  2.4154256162225923e-01  3.5227231414046017e-01  4.6726372224435381e-01  5.8481989566205361e-01  7.0353927929048865e-01  8.2214924277134394e-01  9.3936967889200329e-01  1.0537771790219914e+00  1.1636420475153653e+00  1.2667139939936900e+00  1.3599490738204867e+00  1.4392288795322563e+00  1.4992768817995070e+00  1.5342913619769716e+00  1.5403702378404469e+00  -8.7599682269977941e-02  -8.1566296374404434e-02  -5.0576426076743654e-02  3.2739547782990141e-03  7.5819196688659565e-02  1.6272653921982289e-01  2.6023298120142219e-01  3.6529828877665033e-01  4.7550248372378778e-01  5.8887139922773413e-01  7.0370675276915029e-01  8.1843832741598077e-01  9.3149157749235889e-01  1.0411568273912277e+00  1.1454473160268750e+00  1.2419422171441414e+00  1.3276341205411646e+00  1.3988508845564964e+00  1.4514114302853374e+00  1.4813032904534640e+00  1.4864078117001862e+00  -3.6003235339446882e-02  -3.0847989186578734e-02  -3.8296607726895542e-03  4.3904889037739911e-02  1.0942268498125203e-01  1.8932593718822571e-01  2.8036106904587682e-01  3.7965273728053439e-01  4.8472835980077122e-01  5.9344443810658543e-01  7.0387913322647810e-01  8.1421949596872767e-01  9.2265110457367383e-01  1.0272494331557243e+00  1.1258726437856679e+00  1.2160640745680238e+00  1.2949914901102630e+00  1.3594810970528708e+00  1.4062442855137263e+00  1.4324408488981428e+00  1.4368909766256197e+00  1.0325792516908764e-02  1.4853221306220663e-02  3.8922914183561585e-02  8.1906002114607857e-02  1.4166173304667098e-01  2.1549231424507070e-01  3.0060800912318791e-01  3.9435711040410754e-01  4.9430625887652052e-01  5.9823142758473657e-01  7.0406317378309169e-01  8.0981252305558749e-01  9.1349104480014875e-01  1.0130323271191721e+00  1.1062220158508682e+00  1.1906494843247366e+00  1.2637055642029666e+00  1.3226654545631498e+00  1.3649094424739543e+00  1.3883543503235640e+00  1.3923359946096443e+00  5.1072880204085645e-02  5.5133587094390396e-02  7.6965133880620831e-02  1.1623238696107434e-01  1.7130691344363666e-01  2.3999545683340257e-01  3.1988888059698950e-01  4.0855967408466859e-01  5.0365901224015108e-01  6.0294412139765730e-01  7.0426218482703506e-01  8.0551089128316600e-01  9.0458960112868703e-01  9.9935147106327871e-01  1.0875666930226493e+00  1.1669101069993919e+00  1.2349916690352043e+00  1.2894531176626869e+00  1.3281569503449513e+00  1.3495109220934907e+00  1.3531459868593889e+00  8.5985575269781220e-02  8.9691862148055704e-02  1.0980918847384934e-01  1.4617360515673336e-01  1.9749131490534680e-01  2.6192578200306948e-01  3.3736298448930924e-01  4.2157298348973515e-01  5.1230573344632491e-01  6.0733667862790186e-01  7.0447674645027547e-01  8.0156057175171358e-01  8.9642488526772990e-01  9.8688748632026069e-01  1.0707370302727202e+00  1.1457449449714983e+00  1.2097121526142838e+00  1.2605633798900335e+00  1.2965017114876192e+00  1.3162561199732716e+00  1.3196323049527754e+00  1.1486918888811347e-01  1.1830499685915924e-01  1.3711768614204853e-01  1.7124438415791970e-01  2.1961101933891594e-01  2.8062952700501659e-01  3.5240583496491168e-01  4.3287106261483399e-01  5.1986965372192351e-01  6.1121291364729835e-01  7.0470562328148012e-01  7.9815468223893349e-01  8.8936903409202528e-01  9.7615991371658084e-01  1.0563503098672957e+00  1.1278024474839585e+00  1.1884714778592953e+00  1.2364919090017681e+00  1.2703034053743540e+00  1.2888460624971516e+00  1.2920315493849543e+00  1.3757984662214404e-01  1.4081199783946249e-01  1.5865840621737734e-01  1.9111542017050437e-01  2.3725197731998388e-01  2.9564911638191721e-01  3.6457009992257550e-01  4.4206893854091245e-01  5.2607003352367387e-01  6.1442443200105534e-01  7.0494652856727236e-01  7.9543680641080183e-01  8.8369745108706887e-01  9.6754812453007588e-01  1.0448490876952763e+00  1.1135382126826594e+00  1.1716870022204400e+00  1.2175787567714054e+00  1.2498132111781364e+00  1.2674678617374531e+00  1.2705193443278719e+00  1.5401699699588178e-01  1.5710180275331373e-01  1.7427585825636174e-01  2.0556855407985170e-01  2.5013819475700588e-01  3.0667519437720597e-01  3.7354829779380522e-01  4.4889775891596440e-01  5.3070809143764675e-01  6.1686475967121823e-01  7.0519664942027382e-01  7.9350780798276488e-01  8.7960348239443242e-01  9.6131622808571682e-01  1.0365378010903672e+00  1.1032616921747507e+00  1.1596395211245001e+00  1.2040527360894244e+00  1.2352032840218918e+00  1.2522542804227315e+00  1.2552216988397955e+00  1.6411662783379824e-01  1.6710400094430963e-01  1.8387264617394269e-01  2.1446749667244130e-01  2.5809612896519252e-01  3.1351106094400516e-01  3.7914244017604881e-01  4.5318227112669618e-01  5.3365275655437872e-01  6.1846271393041219e-01  7.0545295765187643e-01  7.9243298815227270e-01  8.7721292208769197e-01  9.5763544738517159e-01  1.0316125597897534e+00  1.0971709372880247e+00  1.1525081714711907e+00  1.1960605674920115e+00  1.2265861431331346e+00  1.2432946278463739e+00  1.2462241668996112e+00  1.6784601598497975e-01  1.7078219713063383e-01  1.8739750201567282e-01  2.1773931577684152e-01  2.6103156060397914e-01  3.1604850013517816e-01  3.8124225128971390e-01  4.5482371341613625e-01  5.3482924136057153e-01  6.1917682874878510e-01  7.0571236324896469e-01  7.9224789774914084e-01  8.7659548513735464e-01  9.5660101308178835e-01  1.0301824752082078e+00  1.0953762263627442e+00  1.1503931658939426e+00  1.1936854107210806e+00  1.2240272244822477e+00  1.2406425293672856e+00  1.2435787105129399e+00  1.6520055959830801e-01  1.6813009865154546e-01  1.8483858336478584e-01  2.1536415900590875e-01  2.5891655502673067e-01  3.1425378920989683e-01  3.7981216670816997e-01  4.5378927911275407e-01  5.3421180441023397e-01  6.1899173834565469e-01  7.0597176884605306e-01  7.9296201256751553e-01  8.7777196994354723e-01  9.5824245537122799e-01  1.0322822863218732e+00  1.0979136655539175e+00  1.1533285975327316e+00  1.1969572298254816e+00  1.2275520803239806e+00  1.2443207255536124e+00  1.2473080986641236e+00  1.5620302765812269e-01  1.5917044607518752e-01  1.7622144247602770e-01  2.0737199040849577e-01  2.5178520537342075e-01  3.0816303432317171e-01  3.7488692540755719e-01  4.5010849841220890e-01  5.3182124410349496e-01  6.1791691851516484e-01  7.0622807707765756e-01  7.9455996682671226e-01  8.8071663506028175e-01  9.6252696758196321e-01  1.0378764287041216e+00  1.1047495321207206e+00  1.1612865317409211e+00  1.2058561724180736e+00  1.2371488682415648e+00  1.2543229237446127e+00  1.2574077295020440e+00  1.4090538217004953e-01  1.4395686476046834e-01  1.6161151531978543e-01  1.9384596972651708e-01  2.3973772427748369e-01  2.9788651381526454e-01  3.6657563880265126e-01  4.4387660196785228e-01  5.2772727541086162e-01  6.1598792008713055e-01  7.0647819793066302e-01  7.9700029449687948e-01  8.8535469297425928e-01  9.6935578795701827e-01  1.0468546265753551e+00  1.1157756101160121e+00  1.1741727491779475e+00  1.2203093063274264e+00  1.2527663202805512e+00  1.2706127286584650e+00  1.2738448798757835e+00  1.1939317711297051e-01  1.2257866400077236e-01  1.4112132112357154e-01  1.7493281749615774e-01  2.2295324863863220e-01  2.8362227901396952e-01  3.5507441663063594e-01  4.3526481278135154e-01  5.2205569240590954e-01  6.1327004425900322e-01  7.0671910321645914e-01  8.0021181285064147e-01  8.9155507277601465e-01  9.7855366388310161e-01  1.0590188915330232e+00  1.1307951994929175e+00  1.1918137071590207e+00  1.2401803423400148e+00  1.2743070403558827e+00  1.2931197296387702e+00  1.2965555376098163e+00  9.1792421545155448e-02  9.5168606524659277e-02  1.1492301501031246e-01  1.5086134660789874e-01  2.0171257388365008e-01  2.6567978152643806e-01  3.4068769622521750e-01  4.2453724017767763e-01  5.1499984123021203e-01  6.0986415474622979e-01  7.0694798004767012e-01  8.0408804787004429e-01  8.9911899305162091e-01  9.8985174300820900e-01  1.0740617420086345e+00  1.1494989444948736e+00  1.2139334115925953e+00  1.2652511213412061e+00  1.3016155380240875e+00  1.3217328643498787e+00  1.3254391512281531e+00  5.8278739638547988e-02  6.1913804404446243e-02  8.3267776152986306e-02  1.2197160883525276e-01  1.7643305746273658e-01  2.4451461949855127e-01  3.2385803347529557e-01  4.1207325543466722e-01  5.0683512536926312e-01  6.0591383521478626e-01  7.0716254167091908e-01  8.0848060510029773e-01  9.0776571425780395e-01  1.0028650524132852e+00  1.0915358459009634e+00  1.1714292696645481e+00  1.2401178130543113e+00  1.2951923395368701e+00  1.3344595926173211e+00  1.3562911394035495e+00  1.3603518462938531e+00  1.9088731888298207e-02  2.3070376174379275e-02  4.6515284023988766e-02  8.8759271934795714e-02  1.4771916229498158e-01  2.2077524217321318e-01  3.0520271064708421e-01  3.9839239937878285e-01  4.9793368169781010e-01  6.0161220344237420e-01  7.0736155271487178e-01  8.1319329891322845e-01  9.1711846762144522e-01  1.0170676160938559e+00  1.1108167173747743e+00  1.1959324122528878e+00  1.2697629934512833e+00  1.3295187243833431e+00  1.3725018123143848e+00  1.3965715051917240e+00  1.4010989339810360e+00  -2.5466250127671244e-02  -2.1016122400194522e-02  5.1804409842229797e-03  5.1943629445079888e-02  1.1643323638769171e-01  1.9536065192993410e-01  2.8555208271229277e-01  3.8417529334223960e-01  4.8877362192429336e-01  5.9720523052924102e-01  7.0754559327149247e-01  8.1798028839138825e-01  9.2669636669720290e-01  1.0317719892174380e+00  1.1310636574520931e+00  1.2220987893097397e+00  1.3020020415167100e+00  1.3675198374602187e+00  1.4152543872706433e+00  1.4422727156845299e+00  1.4474279618373973e+00  -7.4983085202230904e-02  -6.9878563955509412e-02  -3.9986703787382651e-02  1.2573841941460447e-02  8.3790605956796868e-02  1.6948250935382397e-01  2.6597741047109380e-01  3.7026789910674490e-01  4.7993314900561740e-01  5.9298639908199779e-01  7.0771797372882939e-01  8.2255332727024766e-01  9.3592224277419456e-01  1.0461264377213291e+00  1.1511917452965552e+00  1.2486981872781504e+00  1.3356055298093101e+00  1.4081507717196677e+00  1.4620011525747054e+00  1.4929910228723635e+00  1.4990244087679359e+00  -1.2894551134248391e-01  -1.2286663547900971e-01  -8.7852155301543375e-02  -2.7804153034289833e-02  5.1475652677482345e-02  1.4471073250428110e-01  2.4778267898261022e-01  3.5764754747599065e-01  4.7205504760598077e-01  5.8927548372664262e-01  7.0788544720750013e-01  8.2660483083593639e-01  9.4416100425363736e-01  1.0591524123575280e+00  1.1698821648757254e+00  1.2741316657855550e+00  1.3688571670511382e+00  1.4498570025908801e+00  1.5116503938281978e+00  1.5481740670224153e+00  1.5555142742870793e+00  -1.8670211717280763e-01  -1.7899929981748466e-01  -1.3660341464903336e-01  -6.6898007162733419e-02  2.1746393741832890e-02  1.2295018667872687e-01  2.3241412999025649e-01  3.4731950540623890e-01  4.6576407639840639e-01  5.8637368739380180e-01  7.0805790583170569e-01  8.2985303967524171e-01  9.5080519838964705e-01  1.0698546117850596e+00  1.1856812095336913e+00  1.2964580109027928e+00  1.3994368926366092e+00  1.4903018131809465e+00  1.5624347016412781e+00  1.6070066332019308e+00  1.6164835101967596e+00  -2.4747606518788495e-01  -2.3654497495770629e-01  -1.8316850994184078e-01  -1.0136906632940811e-01  -2.5900100205748133e-03  1.0623862913493776e-01  2.2121822346271403e-01  3.4011054478103114e-01  4.6152462387358539e-01  5.8449127983040350e-01  7.0824573464262552e-01  8.3211020207219422e-01  9.5541711730864876e-01  1.0774352791722346e+00  1.1972617646198871e+00  1.3136202415461322e+00  1.4244457430177244e+00  1.5260113631109915e+00  1.6112795784742078e+00  1.6680601317722785e+00  1.6815350739244332e+00  -3.1054319264476765e-01  -2.9175038800492964e-01  -2.2224334742107915e-01  -1.2677546420414512e-01  -1.8639811915802332e-02  9.6186121610972911e-02  2.1497973475396046e-01  3.3634966101848618e-01  4.5944805197674882e-01  5.8365590845942361e-01  7.0845337007653353e-01  8.3336165393346018e-01  9.5791091862415367e-01  1.0816112233322031e+00  1.2039059231550486e+00  1.3240694941358382e+00  1.4409507632069414e+00  1.5522714861140978e+00  1.6525888274945837e+00  1.7280607083209341e+00  1.7503771181783132e+00  -3.7547898246875422e-01  -3.3536064976585217e-01  -2.4570702031631428e-01  -1.3883738037106183e-01  -2.4894049643551911e-02  9.2897628527655859e-02  2.1326350489640569e-01  3.3550340968807502e-01  4.5910592622257596e-01  5.8363079797714146e-01  7.0866824131758588e-01  8.3382335098337035e-01  9.5870943680999332e-01  1.0829434724827351e+00  1.2061383853500927e+00  1.3278832209632678e+00  1.4476845530324711e+00  1.5647596459770341e+00  1.6771627827523172e+00  1.7773108747484845e+00  1.8222906026930130e+00  -4.1329765155752207e-01  -3.4767044323608709e-01  -2.4770051569095622e-01  -1.3841996484030650e-01  -2.4108784540262274e-02  9.3618636586685872e-02  2.1385651419764232e-01  3.3597321068136338e-01  4.5946547302290708e-01  5.8389210891985643e-01  7.0884257572586062e-01  8.3392264907611080e-01  9.5874804474077568e-01  1.0829407556569106e+00  1.2061240706696035e+00  1.3279109096851183e+00  1.4478730208725605e+00  1.5654494303354332e+00  1.6795921610537519e+00  1.7869121654550424e+00  1.8844458045090802e+00  </DataArray> 
</PointData> 
</Piece>
</UnstructuredGrid>
</VTKFile>