<?xml version="1.0"?>
<VTKFile type="UnstructuredGrid"  version="0.1"  >
<UnstructuredGrid>
<Piece  NumberOfPoints="651" NumberOfCells="1200">
<Points>
<DataArray  type="Float64"  NumberOfComponents="3"  format="ascii">0 0 0  50000 0 0  100000 0 0  150000 0 0  200000 0 0  250000 0 0  300000 0 0  350000 0 0  400000 0 0  450000 0 0  500000 0 0  550000 0 0  600000 0 0  650000 0 0  700000 0 0  750000 0 0  800000 0 0  850000 0 0  900000 0 0  950000 0 0  1000000 0 0  0 50000 0  50000 50000 0  100000 50000 0  150000 50000 0  200000 50000 0  250000 50000 0  300000 50000 0  350000 50000 0  400000 50000 0  450000 50000 0  500000 50000 0  550000 50000 0  600000 50000 0  650000 50000 0  700000 50000 0  750000 50000 0  800000 50000 0  850000 50000 0  900000 50000 0  950000 50000 0  1000000 50000 0  0 100000 0  50000 100000 0  100000 100000 0  150000 100000 0  200000 100000 0  250000 100000 0  300000 100000 0  350000 100000 0  400000 100000 0  450000 100000 0  500000 100000 0  550000 100000 0  600000 100000 0  650000 100000 0  700000 100000 0  750000 100000 0  800000 100000 0  850000 100000 0  900000 100000 0  950000 100000 0  1000000 100000 0  0 150000 0  50000 150000 0  100000 150000 0  150000 150000 0  200000 150000 0  250000 150000 0  300000 150000 0  350000 150000 0  400000 150000 0  450000 150000 0  500000 150000 0  550000 150000 0  600000 150000 0  650000 150000 0  700000 150000 0  750000 150000 0  800000 150000 0  850000 150000 0  900000 150000 0  950000 150000 0  1000000 150000 0  0 200000 0  50000 200000 0  100000 200000 0  150000 200000 0  200000 200000 0  250000 200000 0  300000 200000 0  350000 200000 0  400000 200000 0  450000 200000 0  500000 200000 0  550000 200000 0  600000 200000 0  650000 200000 0  700000 200000 0  750000 200000 0  800000 200000 0  850000 200000 0  900000 200000 0  950000 200000 0  1000000 200000 0  0 250000 0  50000 250000 0  100000 250000 0  150000 250000 0  200000 250000 0  250000 250000 0  300000 250000 0  350000 250000 0  400000 250000 0  450000 250000 0  500000 250000 0  550000 250000 0  600000 250000 0  650000 250000 0  700000 250000 0  750000 250000 0  800000 250000 0  850000 250000 0  900000 250000 0  950000 250000 0  1000000 250000 0  0 300000 0  50000 300000 0  100000 300000 0  150000 300000 0  200000 300000 0  250000 300000 0  300000 300000 0  350000 300000 0  400000 300000 0  450000 300000 0  500000 300000 0  550000 300000 0  600000 300000 0  650000 300000 0  700000 300000 0  750000 300000 0  800000 300000 0  850000 300000 0  900000 300000 0  950000 300000 0  1000000 300000 0  0 350000 0  50000 350000 0  100000 350000 0  150000 350000 0  200000 350000 0  250000 350000 0  300000 350000 0  350000 350000 0  400000 350000 0  450000 350000 0  500000 350000 0  550000 350000 0  600000 350000 0  650000 350000 0  700000 350000 0  750000 350000 0  800000 350000 0  850000 350000 0  900000 350000 0  950000 350000 0  1000000 350000 0  0 400000 0  50000 400000 0  100000 400000 0  150000 400000 0  200000 400000 0  250000 400000 0  300000 400000 0  350000 400000 0  400000 400000 0  450000 400000 0  500000 400000 0  550000 400000 0  600000 400000 0  650000 400000 0  700000 400000 0  750000 400000 0  800000 400000 0  850000 400000 0  900000 400000 0  950000 400000 0  1000000 400000 0  0 450000 0  50000 450000 0  100000 450000 0  150000 450000 0  200000 450000 0  250000 450000 0  300000 450000 0  350000 450000 0  400000 450000 0  450000 450000 0  500000 450000 0  550000 450000 0  600000 450000 0  650000 450000 0  700000 450000 0  750000 450000 0  800000 450000 0  850000 450000 0  900000 450000 0  950000 450000 0  1000000 450000 0  0 500000 0  50000 500000 0  100000 500000 0  150000 500000 0  200000 500000 0  250000 500000 0  300000 500000 0  350000 500000 0  400000 500000 0  450000 500000 0  500000 500000 0  550000 500000 0  600000 500000 0  650000 500000 0  700000 500000 0  750000 500000 0  800000 500000 0  850000 500000 0  900000 500000 0  950000 500000 0  1000000 500000 0  0 550000 0  50000 550000 0  100000 550000 0  150000 550000 0  200000 550000 0  250000 550000 0  300000 550000 0  350000 550000 0  400000 550000 0  450000 550000 0  500000 550000 0  550000 550000 0  600000 550000 0  650000 550000 0  700000 550000 0  750000 550000 0  800000 550000 0  850000 550000 0  900000 550000 0  950000 550000 0  1000000 550000 0  0 600000 0  50000 600000 0  100000 600000 0  150000 600000 0  200000 600000 0  250000 600000 0  300000 600000 0  350000 600000 0  400000 600000 0  450000 600000 0  500000 600000 0  550000 600000 0  600000 600000 0  650000 600000 0  700000 600000 0  750000 600000 0  800000 600000 0  850000 600000 0  900000 600000 0  950000 600000 0  1000000 600000 0  0 650000 0  50000 650000 0  100000 650000 0  150000 650000 0  200000 650000 0  250000 650000 0  300000 650000 0  350000 650000 0  400000 650000 0  450000 650000 0  500000 650000 0  550000 650000 0  600000 650000 0  650000 650000 0  700000 650000 0  750000 650000 0  800000 650000 0  850000 650000 0  900000 650000 0  950000 650000 0  1000000 650000 0  0 700000 0  50000 700000 0  100000 700000 0  150000 700000 0  200000 700000 0  250000 700000 0  300000 700000 0  350000 700000 0  400000 700000 0  450000 700000 0  500000 700000 0  550000 700000 0  600000 700000 0  650000 700000 0  700000 700000 0  750000 700000 0  800000 700000 0  850000 700000 0  900000 700000 0  950000 700000 0  1000000 700000 0  0 750000 0  50000 750000 0  100000 750000 0  150000 750000 0  200000 750000 0  250000 750000 0  300000 750000 0  350000 750000 0  400000 750000 0  450000 750000 0  500000 750000 0  550000 750000 0  600000 750000 0  650000 750000 0  700000 750000 0  750000 750000 0  800000 750000 0  850000 750000 0  900000 750000 0  950000 750000 0  1000000 750000 0  0 800000 0  50000 800000 0  100000 800000 0  150000 800000 0  200000 800000 0  250000 800000 0  300000 800000 0  350000 800000 0  400000 800000 0  450000 800000 0  500000 800000 0  550000 800000 0  600000 800000 0  650000 800000 0  700000 800000 0  750000 800000 0  800000 800000 0  850000 800000 0  900000 800000 0  950000 800000 0  1000000 800000 0  0 850000 0  50000 850000 0  100000 850000 0  150000 850000 0  200000 850000 0  250000 850000 0  300000 850000 0  350000 850000 0  400000 850000 0  450000 850000 0  500000 850000 0  550000 850000 0  600000 850000 0  650000 850000 0  700000 850000 0  750000 850000 0  800000 850000 0  850000 850000 0  900000 850000 0  950000 850000 0  1000000 850000 0  0 900000 0  50000 900000 0  100000 900000 0  150000 900000 0  200000 900000 0  250000 900000 0  300000 900000 0  350000 900000 0  400000 900000 0  450000 900000 0  500000 900000 0  550000 900000 0  600000 900000 0  650000 900000 0  700000 900000 0  750000 900000 0  800000 900000 0  850000 900000 0  900000 900000 0  950000 900000 0  1000000 900000 0  0 950000 0  50000 950000 0  100000 950000 0  150000 950000 0  200000 950000 0  250000 950000 0  300000 950000 0  350000 950000 0  400000 950000 0  450000 950000 0  500000 950000 0  550000 950000 0  600000 950000 0  650000 950000 0  700000 950000 0  750000 950000 0  800000 950000 0  850000 950000 0  900000 950000 0  950000 950000 0  1000000 950000 0  0 1000000 0  50000 1000000 0  100000 1000000 0  150000 1000000 0  200000 1000000 0  250000 1000000 0  300000 1000000 0  350000 1000000 0  400000 1000000 0  450000 1000000 0  500000 1000000 0  550000 1000000 0  600000 1000000 0  650000 1000000 0  700000 1000000 0  750000 1000000 0  800000 1000000 0  850000 1000000 0  900000 1000000 0  950000 1000000 0  1000000 1000000 0  0 1050000 0  50000 1050000 0  100000 1050000 0  150000 1050000 0  200000 1050000 0  250000 1050000 0  300000 1050000 0  350000 1050000 0  400000 1050000 0  450000 1050000 0  500000 1050000 0  550000 1050000 0  600000 1050000 0  650000 1050000 0  700000 1050000 0  750000 1050000 0  800000 1050000 0  850000 1050000 0  900000 1050000 0  950000 1050000 0  1000000 1050000 0  0 1100000 0  50000 1100000 0  100000 1100000 0  150000 1100000 0  200000 1100000 0  250000 1100000 0  300000 1100000 0  350000 1100000 0  400000 1100000 0  450000 1100000 0  500000 1100000 0  550000 1100000 0  600000 1100000 0  650000 1100000 0  700000 1100000 0  750000 1100000 0  800000 1100000 0  850000 1100000 0  900000 1100000 0  950000 1100000 0  1000000 1100000 0  0 1150000 0  50000 1150000 0  100000 1150000 0  150000 1150000 0  200000 1150000 0  250000 1150000 0  300000 1150000 0  350000 1150000 0  400000 1150000 0  450000 1150000 0  500000 1150000 0  550000 1150000 0  600000 1150000 0  650000 1150000 0  700000 1150000 0  750000 1150000 0  800000 1150000 0  850000 1150000 0  900000 1150000 0  950000 1150000 0  1000000 1150000 0  0 1200000 0  50000 1200000 0  100000 1200000 0  150000 1200000 0  200000 1200000 0  250000 1200000 0  300000 1200000 0  350000 1200000 0  400000 1200000 0  450000 1200000 0  500000 1200000 0  550000 1200000 0  600000 1200000 0  650000 1200000 0  700000 1200000 0  750000 1200000 0  800000 1200000 0  850000 1200000 0  900000 1200000 0  950000 1200000 0  1000000 1200000 0  0 1250000 0  50000 1250000 0  100000 1250000 0  150000 1250000 0  200000 1250000 0  250000 1250000 0  300000 1250000 0  350000 1250000 0  400000 1250000 0  450000 1250000 0  500000 1250000 0  550000 1250000 0  600000 1250000 0  650000 1250000 0  700000 1250000 0  750000 1250000 0  800000 1250000 0  850000 1250000 0  900000 1250000 0  950000 1250000 0  1000000 1250000 0  0 1300000 0  50000 1300000 0  100000 1300000 0  150000 1300000 0  200000 1300000 0  250000 1300000 0  300000 1300000 0  350000 1300000 0  400000 1300000 0  450000 1300000 0  500000 1300000 0  550000 1300000 0  600000 1300000 0  650000 1300000 0  700000 1300000 0  750000 1300000 0  800000 1300000 0  850000 1300000 0  900000 1300000 0  950000 1300000 0  1000000 1300000 0  0 1350000 0  50000 1350000 0  100000 1350000 0  150000 1350000 0  200000 1350000 0  250000 1350000 0  300000 1350000 0  350000 1350000 0  400000 1350000 0  450000 1350000 0  500000 1350000 0  550000 1350000 0  600000 1350000 0  650000 1350000 0  700000 135
[...]
<PointData  Scalars="f_7495"> 
<DataArray  type="Float64"  Name="f_7495"  format="ascii">-6.3109609274668514e+00  -5.7383879460107758e+00  -5.1032411129540014e+00  -4.4255884685348699e+00  -3.7263902851008366e+00  -3.0121726148192054e+00  -2.2864637712401401e+00  -1.5519542143945932e+00  -8.1106484950328683e-01  -6.6143620397860911e-02  6.8045660899041049e-01  1.4263415491761591e+00  2.1690464872638096e+00  2.9059891746666366e+00  3.6343711787838373e+00  4.3509682194423354e+00  5.0516884223989909e+00  5.7305918285424333e+00  6.3770375312594121e+00  6.9638913683824510e+00  7.3445221979948823e+00  -5.9481672553146439e+00  -5.6873816855262911e+00  -5.0926903770224907e+00  -4.4241166545540311e+00  -3.7271516376219145e+00  -3.0134575189212653e+00  -2.2877452449333116e+00  -1.5530176085325125e+00  -8.1179694959769011e-01  -6.6469132135484679e-02  6.8059956604348448e-01  1.4270155747589690e+00  2.1703287304166401e+00  2.9079896044374198e+00  3.6372529140070133e+00  4.3549294287596716e+00  5.0566696504429496e+00  5.7346080626669442e+00  6.3689430204928552e+00  6.8978647653127929e+00  7.1263094689656654e+00  -5.5292297829399937e+00  -5.4018406928035319e+00  -4.9541106238976251e+00  -4.3562344861827800e+00  -3.6922290278385934e+00  -2.9948421888293977e+00  -2.2776840289304841e+00  -1.5476194421117342e+00  -8.0899192700317113e-01  -6.5155847850470253e-02  6.8091929797861417e-01  1.4263750887118287e+00  2.1682936562675024e+00  2.9035076131423900e+00  3.6282537901805600e+00  4.3373942167833306e+00  5.0225144216139617e+00  5.6671413679299549e+00  6.2350520375595515e+00  6.6456800450374818e+00  6.7496247242269458e+00  -5.1282874976102688e+00  -5.0524402996837630e+00  -4.7159526064800632e+00  -4.2073412095292628e+00  -3.6005403216151626e+00  -2.9381658866973228e+00  -2.2426381863368321e+00  -1.5263152999604517e+00  -7.9682144999992499e-01  -5.9556241124737612e-02  6.8109609202840082e-01  1.4211227678265139e+00  2.1564437905440648e+00  2.8824546118359708e+00  3.5933223357361497e+00  4.2806753034153910e+00  4.9310271277292079e+00  5.5208389261008621e+00  6.0081858829435806e+00  6.3238043857001447e+00  6.3835494599649216e+00  -4.7494652123256067e+00  -4.6965661381835178e+00  -4.4325433560472201e+00  -4.0019905912279823e+00  -3.4584182177292377e+00  -2.8419750847772383e+00  -2.1787433449188374e+00  -1.4852507010621980e+00  -7.7244697048260547e-01  -4.8231734588393804e-02  6.8105297661150543e-01  1.4096939538830060e+00  2.1319134751153963e+00  2.8411678313901807e+00  3.5292020574254241e+00  4.1845724166854268e+00  4.7902895068462579e+00  5.3203854619681730e+00  5.7362587766116837e+00  5.9872800249574487e+00  6.0295557122099881e+00  -4.3943797139648728e+00  -4.3535440947863329e+00  -4.1371277555962900e+00  -3.7679686019446721e+00  -3.2828051558530227e+00  -2.7149220917422476e+00  -2.0897718868542507e+00  -1.4257223634680340e+00  -7.3611528216224975e-01  -3.1130684497689624e-02  6.8083296845662256e-01  1.3921508191623886e+00  2.0951486520141733e+00  2.7812837918260787e+00  3.4401599602123509e+00  4.0582274941614642e+00  4.6171208572131874e+00  5.0919409096710648e+00  5.4507377625127349e+00  5.6584346700506565e+00  5.6921357886153157e+00  -4.0653262272311235e+00  -4.0317697256272984e+00  -3.8479672666401412e+00  -3.5258930918412963e+00  -3.0907873143537552e+00  -2.5689941528295601e+00  -1.9833476295931514e+00  -1.3522368313047286e+00  -6.9025262356211881e-01  -9.2678714186281413e-03  6.8051999430581400e-01  1.3696882510761901e+00  2.0487855879116315e+00  2.7075394502935377e+00  3.3339945128149275e+00  3.9135566591229738e+00  4.4280586345205188e+00  4.8552724088607224e+00  5.1698529774570217e+00  5.3475392644427000e+00  5.3761193561163809e+00  -3.7647431443905948e+00  -3.7360292347398523e+00  -3.5755536758509812e+00  -3.2896613569998041e+00  -2.8961311465657622e+00  -2.4156519647591299e+00  -1.8679974843021099e+00  -1.2705907770007105e+00  -6.3837027863796769e-01  1.5745462820073577e-02  6.8019332310066960e-01  1.3440741030811758e+00  1.9964790112280619e+00  2.6258277533354577e+00  3.2192143398671380e+00  3.7618090189155655e+00  4.2364795702141240e+00  4.6239865852298108e+00  4.9043639365896370e+00  5.0604236780088190e+00  5.0855349901371172e+00  -3.4948556036371352e+00  -3.4695782376712043e+00  -3.3263698525140697e+00  -3.0685315765213703e+00  -2.7090543572123402e+00  -2.2643928376465561e+00  -1.7515284157206383e+00  -1.1865544480540955e+00  -5.8419728719405895e-01  4.2115147129124723e-02  6.7990902914671436e-01  1.3172059499100119e+00  1.9420313863368757e+00  2.5419325797998291e+00  3.1035477836525218e+00  3.6123049576796546e+00  4.0523980096815926e+00  4.4072813884686539e+00  4.6610177686553964e+00  4.8009782182254286e+00  4.8235720214195190e+00  -3.2575492548160536e+00  -3.2348117337270792e+00  -3.1046763476617083e+00  -2.8687370286469962e+00  -2.5368940736286367e+00  -2.1225511675177029e+00  -1.6403965990854927e+00  -1.1051846387675730e+00  -5.3115103165850652e-01  6.8142190194676003e-02  6.7969793096350117e-01  1.2908350337592629e+00  1.8888837839814858e+00  2.4608878663751859e+00  2.9933734617732610e+00  3.4722653039873781e+00  3.8830622529235974e+00  4.2114175780036103e+00  4.4442960172208288e+00  4.5720198453235170e+00  4.5927241688643239e+00  -3.0543482672567337e+00  -3.0335296811129555e+00  -2.9133846571229225e+00  -2.6945248996435014e+00  -2.3848358550751074e+00  -1.9955653365674380e+00  -1.5396231111641376e+00  -1.0305810760521643e+00  -4.8209410288555116e-01  9.2367922058318799e-02  6.7957067080354727e-01  1.2664342315653996e+00  1.8398929703291371e+00  2.3867593244529783e+00  2.8936531597468718e+00  3.3470651538008340e+00  3.7336318408226736e+00  4.0407032504643308e+00  4.2572921022749464e+00  4.3756487298547420e+00  4.3949223470036936e+00  -2.8864363308652847e+00  -2.8670747528066647e+00  -2.7545171358669704e+00  -2.5488041069974807e+00  -2.2565006948024955e+00  -1.8873540731108229e+00  -1.4529485027112550e+00  -9.6589107473596769e-01  -4.3927803643922930e-01  1.1362277359286303e-01  6.7952423992346911e-01  1.2451629221182754e+00  1.7972892838920933e+00  2.3226600843306837e+00  2.8080868053752122e+00  3.2405936566524196e+00  3.6077357010265727e+00  3.8981198690878052e+00  4.1021802418223681e+00  4.2134330202432517e+00  4.2316387662087482e+00  -2.7546944337694366e+00  -2.7364231669523660e+00  -2.6294724067295516e+00  -2.4335546625937994e+00  -2.1543772120594848e+00  -1.8006665601679352e+00  -1.3830588465573914e+00  -9.1342449814840632e-01  -4.0438563496222985e-01  1.3101884856615656e-01  6.7954747070251809e-01  1.2278849348623844e+00  1.7627275181553133e+00  2.2708695282718585e+00  2.7393345950508281e+00  3.1555917954273536e+00  3.5078885864272848e+00  3.7857225422828851e+00  3.9804886414141833e+00  4.0865265008255784e+00  4.1039705272865588e+00  -2.6597425624421795e+00  -2.6422528997269414e+00  -2.5391912919238213e+00  -2.3500922275802005e+00  -2.0801280505963251e+00  -1.7373653242607401e+00  -1.3318043487780507e+00  -8.7479809446831802e-01  -3.7861136443194399e-01  1.4391722498124571e-01  6.7962486932338939e-01  1.2152081990918866e+00  1.7373719988409539e+00  2.2329783899435336e+00  2.6892314344545931e+00  3.0939270655548428e+00  3.4357888231358205e+00  3.7049009920862717e+00  3.8932715715452568e+00  3.9957533971981927e+00  4.0127081580769906e+00  -2.6019777631434180e+00  -2.5849959540426926e+00  -2.4842650718050776e+00  -2.2992404849420622e+00  -2.0348003801049974e+00  -1.6986364250198238e+00  -1.3003782231683847e+00  -8.5106752505784977e-01  -3.6274429525211127e-01  1.5188980948534564e-01  6.7973895254888639e-01  1.2075269306933805e+00  1.7219817281610348e+00  2.2100202318166962e+00  2.6589623381467082e+00  3.0567983470536726e+00  3.3925240881504743e+00  3.6565508979397725e+00  3.8412225478211313e+00  3.9416717227668521e+00  3.9583906351128411e+00  -2.5816035960113664e+00  -2.5648757088956375e+00  -2.4650047380096787e+00  -2.2814398979700550e+00  -2.0189625595957899e+00  -1.6851324607853786e+00  -1.2894453828612273e+00  -8.4282815468818950e-01  -3.5723512518370260e-01  1.5468689503192248e-01  6.7987148374569972e-01  1.2050560724594639e+00  1.7169780926750884e+00  2.2025711221795685e+00  2.6491883503526066e+00  3.0448754282767658e+00  3.3787055270871695e+00  3.6411828654614498e+00  3.8247477055010743e+00  3.9246186763870372e+00  3.9413465635027727e+00  -2.5986476676214361e+00  -2.5819287552754511e+00  -2.4814795803297378e+00  -2.2968079304483906e+00  -2.0327811206590942e+00  -1.6970553795623005e+00  -1.2992193706553372e+00  -8.5027726432532325e-01  -3.6223876066966015e-01  1.5221603679800852e-01  6.8000401494251916e-01  1.2078531580060539e+00  1.7224872627435044e+00  2.2108104925492276e+00  2.6601211906597664e+00  3.0583793925112155e+00  3.3945433475963922e+00  3.6589834524334601e+00  3.8440080392964999e+00  3.9447389215341300e+00  3.9617207306348541e+00  -2.6529651905855793e+00  -2.6360104297067917e+00  -2.5335286040538638e+00  -2.3451580245948791e+00  -2.0760458556444421e+00  -1.7341840980634866e+00  -1.3294884669632352e+00  -8.7323542245216390e-01  -3.7762903134957371e-01  1.4453476839951448e-01  6.8011809816802848e-01  1.2158257425101695e+00  1.7383543319233516e+00  2.2345410619597201e+00  2.6915473162694608e+00  3.0971082917521517e+00  3.4398710180877385e+00  3.7098351950716135e+00  3.8989342594152765e+00  4.0019958672184250e+00  4.0194855299336520e+00  -2.7442275597951276e+00  -2.7267835333341459e+00  -2.6207456739227579e+00  -2.4259795747914512e+00  -2.1481456189358799e+00  -1.7958488279359670e+00  -1.3795916275594420e+00  -9.1112656078046872e-01  -4.0298455066390682e-01  1.3185803262903598e-01  6.8019549678892777e-01  1.2287241189252887e+00  1.7641286024536658e+00  2.2731674656398262e+00  2.7428018140488182e+00  3.1604095276593704e+00  3.5141201795509427e+00  3.7932976300852568e+00  3.9892153742210117e+00  4.0961661344438163e+00  4.1144374012608882e+00  -2.8718957987173059e+00  -2.8536900527518143e+00  -2.7424372743309271e+00  -2.5383769015963775e+00  -2.2479927335351499e+00  -1.8808506891610086e+00  -1.4483438378837963e+00  -9.6291711683926517e-01  -4.3754631640065689e-01  1.1458004537317265e-01  6.8021872756799950e-01  1.2461201938986111e+00  1.7990210039306989e+00  2.3256340422274131e+00  2.8126914702026968e+00  3.2470970406022630e+00  3.6162436622939640e+00  3.9085470744889439e+00  4.1142601033584150e+00  4.2268177202980883e+00  4.2461792983567159e+00  -3.0351793795122179e+00  -3.0159057623632703e+00  -2.8975491347834770e+00  -2.6809602829728880e+00  -2.3738888733312185e+00  -1.9873221863093635e+00  -1.5339101922554073e+00  -1.0270163569615132e+00  -4.8015000283765275e-01  9.3308735926091693e-02  6.8017229668796009e-01  1.2673750454331925e+00  1.8418370703770637e+00  2.3903240435436683e+00  2.8993660786556474e+00  3.3553083040589380e+00  3.7445788225665892e+00  4.0542678671349668e+00  4.2731276246143830e+00  4.3932726486043885e+00  4.4140912347481640e+00  -3.2329812013727968e+00  -3.2122768778320108e+00  -3.0845530497293208e+00  -2.8516746105121178e+00  -2.5233192854321072e+00  -2.1125223364958701e+00  -1.6336304942817554e+00  -1.1011448988836736e+00  -5.2914081648995714e-01  6.8907933732283141e-02  6.8004503652805992e-01  1.2916007772968892e+00  1.8908939991500713e+00  2.4649276062591468e+00  3.0001395665770749e+00  3.4822941350092638e+00  3.8966370411201652e+00  4.2284799961384865e+00  4.4644193151531821e+00  4.5945547012185282e+00  4.6172922223074808e+00  -3.4638290539279808e+00  -3.4412352507339019e+00  -3.3012748011638635e+00  -3.0475384209771192e+00  -2.6926550421900610e+00  -2.2525619901881129e+00  -1.7438048161609734e+00  -1.1821896123082583e+00  -5.8228841884528593e-01  4.2537017581590002e-02  6.7983393834490113e-01  1.3176278203625009e+00  1.9439402546856859e+00  2.5462974155457272e+00  3.1112713832122632e+00  3.6241358051381503e+00  4.0687973247039011e+00  4.4282745440128917e+00  4.6861128200055582e+00  4.8293212051626808e+00  4.8545985711286148e+00  -3.7257920226455425e+00  -3.7006807105172328e+00  -3.5446209690980615e+00  -3.2642436177382486e+00  -2.8767366027225458e+00  -2.4020660514239727e+00  -1.8594713723755305e+00  -1.2660847858438331e+00  -6.3673604373642345e-01  1.5668864410476258e-02  6.7954964439099486e-01  1.3439975046716006e+00  1.9981132461296403e+00  2.6303337444923751e+00  3.2277404517937605e+00  3.7753949322507498e+00  4.2558741140573630e+00  4.6494043244913588e+00  4.9352966433425030e+00  5.0957722022313812e+00  5.1244861118821223e+00  -4.0163763886247805e+00  -3.9877962969511009e+00  -3.8101100099654470e+00  -3.4955294413691469e+00  -3.0683156670289105e+00  -2.5538136916313379e+00  -1.9742515453232643e+00  -1.3477964828018516e+00  -6.8904262041993258e-01  -9.9452835844811831e-03  6.7922297318590330e-01  1.3690108389103499e+00  2.0499955910538366e+00  2.7119797987964271e+00  3.3430905970848337e+00  3.9287371203212076e+00  4.4505302818453965e+00  4.8856360593329180e+00  5.2077102341317252e+00  5.3915126931188695e+00  5.4250691947227017e+00  -4.3323928211236842e+00  -4.2986917025590374e+00  -4.0909947950211007e+00  -3.7321979421794351e+00  -3.2573778897215320e+00  -2.6984845266698021e+00  -2.0804169927206417e+00  -1.4215408243343313e+00  -7.3540568452242183e-01  -3.2407851670634327e-02  6.7890999903514471e-01  1.3908736519894604e+00  2.0958582496540181e+00  2.7854653309597834e+00  3.4495148543459773e+00  4.0746650592339604e+00  4.6425481233447163e+00  5.1277115694363511e+00  5.4968707230879277e+00  5.7132870622779626e+00  5.7541226814564999e+00  -4.6698127447183149e+00  -4.6275370574657781e+00  -4.3765158091199963e+00  -3.9606424944764878e+00  -3.4305465393545571e+00  -2.8248294491937296e+00  -2.1694590899336790e+00  -1.4814248638983980e+00  -7.7217050762360895e-01  -4.9950986391215847e-02  6.7868999088029669e-01  1.4079747020801978e+00  2.1321899379744016e+00  2.8449936685539798e+00  3.5384863124106083e+00  4.2017180522690101e+00  4.8181611852209771e+00  5.3617335587196955e+00  5.7922863235389261e+00  6.0563091056752025e+00  6.1092081798172844e+00  -5.0238064924732138e+00  -4.9640614182084279e+00  -4.6484429154518647e+00  -4.1610959586091374e+00  -3.5712841602374774e+00  -2.9209323359236508e+00  -2.2335793682443694e+00  -1.5227116443441679e+00  -7.9670082305225298e-01  -6.1379800334700682e-02  6.7864687546342151e-01  1.4192992086165652e+00  2.1565644174917380e+00  2.8860582674522601e+00  3.6023811538286532e+00  4.2979088541891395e+00  4.9602832891069548e+00  5.5670841770210222e+00  6.0756955739718119e+00  6.4121832671754921e+00  6.4880304651019918e+00  -5.3898817567352060e+00  -5.2859370775457162e+00  -4.8753090700678134e+00  -4.3073984004382160e+00  -3.6627714541222325e+00  -2.9776512492915774e+00  -2.2685108226887709e+00  -1.5437646456505749e+00  -8.0855068877568992e-01  -6.6632121220006404e-02  6.7882366951322193e-01  1.4248988153423088e+00  2.1687348944950045e+00  2.9073624096035524e+00  3.6374269964223123e+00  4.3545851563212219e+00  5.0519719953304030e+00  5.7159774536745642e+00  6.3138535913893872e+00  6.7615836602952735e+00  6.8889727504317673e+00  -5.7665665014739433e+00  -5.5381217978210655e+00  -5.0092000530011687e+00  -4.3748650951752337e+00  -3.6969266829512151e+00  -2.9951864612679082e+00  -2.2775099465152189e+00  -1.5482466369456043e+00  -8.1058576292481732e-01  -6.7272607267139142e-02  6.7914340144835139e-01  1.4262120996273278e+00  2.1715399170895293e+00  2.9127605760243487e+00  3.6474882124251415e+00  4.3732004864130731e+00  5.0868946051137263e+00  5.7838596220458198e+00  6.4524333445142830e+00  7.0471246530180522e+00  7.3079102228064086e+00  -5.9847792305031549e+00  -5.6041484008907210e+00  -5.0172945637677042e+00  -4.3708488610507166e+00  -3.6919454549072501e+00  -2.9912252519505751e+00  -2.2746282112920411e+00  -1.5462462071748253e+00  -8.0930351977198378e-01  -6.6598581684323546e-02  6.7928635850143004e-01  1.4258865878896978e+00  2.1708078169951301e+00  2.9116971818864319e+00  3.6462067387319763e+00  4.3719155823110141e+00  5.0861332525926501e+00  5.7853314360266728e+00  6.4629840804457803e+00  7.0981309135025512e+00  7.6707038949586224e+00  </DataArray> 
</PointData> 
</Piece>
</UnstructuredGrid>
</VTKFile>