<?xml version="1.0"?>
<VTKFile type="UnstructuredGrid"  version="0.1"  >
<UnstructuredGrid>
<Piece  NumberOfPoints="651" NumberOfCells="1200">
<Points>
<DataArray  type="Float64"  NumberOfComponents="3"  format="ascii">0 0 0  50000 0 0  100000 0 0  150000 0 0  200000 0 0  250000 0 0  300000 0 0  350000 0 0  400000 0 0  450000 0 0  500000 0 0  550000 0 0  600000 0 0  650000 0 0  700000 0 0  750000 0 0  800000 0 0  850000 0 0  900000 0 0  950000 0 0  1000000 0 0  0 50000 0  50000 50000 0  100000 50000 0  150000 50000 0  200000 50000 0  250000 50000 0  300000 50000 0  350000 50000 0  400000 50000 0  450000 50000 0  500000 50000 0  550000 50000 0  600000 50000 0  650000 50000 0  700000 50000 0  750000 50000 0  800000 50000 0  850000 50000 0  900000 50000 0  950000 50000 0  1000000 50000 0  0 100000 0  50000 100000 0  100000 100000 0  150000 100000 0  200000 100000 0  250000 100000 0  300000 100000 0  350000 100000 0  400000 100000 0  450000 100000 0  500000 100000 0  550000 100000 0  600000 100000 0  650000 100000 0  700000 100000 0  750000 100000 0  800000 100000 0  850000 100000 0  900000 100000 0  950000 100000 0  1000000 100000 0  0 150000 0  50000 150000 0  100000 150000 0  150000 150000 0  200000 150000 0  250000 150000 0  300000 150000 0  350000 150000 0  400000 150000 0  450000 150000 0  500000 150000 0  550000 150000 0  600000 150000 0  650000 150000 0  700000 150000 0  750000 150000 0  800000 150000 0  850000 150000 0  900000 150000 0  950000 150000 0  1000000 150000 0  0 200000 0  50000 200000 0  100000 200000 0  150000 200000 0  200000 200000 0  250000 200000 0  300000 200000 0  350000 200000 0  400000 200000 0  450000 200000 0  500000 200000 0  550000 200000 0  600000 200000 0  650000 200000 0  700000 200000 0  750000 200000 0  800000 200000 0  850000 200000 0  900000 200000 0  950000 200000 0  1000000 200000 0  0 250000 0  50000 250000 0  100000 250000 0  150000 250000 0  200000 250000 0  250000 250000 0  300000 250000 0  350000 250000 0  400000 250000 0  450000 250000 0  500000 250000 0  550000 250000 0  600000 250000 0  650000 250000 0  700000 250000 0  750000 250000 0  800000 250000 0  850000 250000 0  900000 250000 0  950000 250000 0  1000000 250000 0  0 300000 0  50000 300000 0  100000 300000 0  150000 300000 0  200000 300000 0  250000 300000 0  300000 300000 0  350000 300000 0  400000 300000 0  450000 300000 0  500000 300000 0  550000 300000 0  600000 300000 0  650000 300000 0  700000 300000 0  750000 300000 0  800000 300000 0  850000 300000 0  900000 300000 0  950000 300000 0  1000000 300000 0  0 350000 0  50000 350000 0  100000 350000 0  150000 350000 0  200000 350000 0  250000 350000 0  300000 350000 0  350000 350000 0  400000 350000 0  450000 350000 0  500000 350000 0  550000 350000 0  600000 350000 0  650000 350000 0  700000 350000 0  750000 350000 0  800000 350000 0  850000 350000 0  900000 350000 0  950000 350000 0  1000000 350000 0  0 400000 0  50000 400000 0  100000 400000 0  150000 400000 0  200000 400000 0  250000 400000 0  300000 400000 0  350000 400000 0  400000 400000 0  450000 400000 0  500000 400000 0  550000 400000 0  600000 400000 0  650000 400000 0  700000 400000 0  750000 400000 0  800000 400000 0  850000 400000 0  900000 400000 0  950000 400000 0  1000000 400000 0  0 450000 0  50000 450000 0  100000 450000 0  150000 450000 0  200000 450000 0  250000 450000 0  300000 450000 0  350000 450000 0  400000 450000 0  450000 450000 0  500000 450000 0  550000 450000 0  600000 450000 0  650000 450000 0  700000 450000 0  750000 450000 0  800000 450000 0  850000 450000 0  900000 450000 0  950000 450000 0  1000000 450000 0  0 500000 0  50000 500000 0  100000 500000 0  150000 500000 0  200000 500000 0  250000 500000 0  300000 500000 0  350000 500000 0  400000 500000 0  450000 500000 0  500000 500000 0  550000 500000 0  600000 500000 0  650000 500000 0  700000 500000 0  750000 500000 0  800000 500000 0  850000 500000 0  900000 500000 0  950000 500000 0  1000000 500000 0  0 550000 0  50000 550000 0  100000 550000 0  150000 550000 0  200000 550000 0  250000 550000 0  300000 550000 0  350000 550000 0  400000 550000 0  450000 550000 0  500000 550000 0  550000 550000 0  600000 550000 0  650000 550000 0  700000 550000 0  750000 550000 0  800000 550000 0  850000 550000 0  900000 550000 0  950000 550000 0  1000000 550000 0  0 600000 0  50000 600000 0  100000 600000 0  150000 600000 0  200000 600000 0  250000 600000 0  300000 600000 0  350000 600000 0  400000 600000 0  450000 600000 0  500000 600000 0  550000 600000 0  600000 600000 0  650000 600000 0  700000 600000 0  750000 600000 0  800000 600000 0  850000 600000 0  900000 600000 0  950000 600000 0  1000000 600000 0  0 650000 0  50000 650000 0  100000 650000 0  150000 650000 0  200000 650000 0  250000 650000 0  300000 650000 0  350000 650000 0  400000 650000 0  450000 650000 0  500000 650000 0  550000 650000 0  600000 650000 0  650000 650000 0  700000 650000 0  750000 650000 0  800000 650000 0  850000 650000 0  900000 650000 0  950000 650000 0  1000000 650000 0  0 700000 0  50000 700000 0  100000 700000 0  150000 700000 0  200000 700000 0  250000 700000 0  300000 700000 0  350000 700000 0  400000 700000 0  450000 700000 0  500000 700000 0  550000 700000 0  600000 700000 0  650000 700000 0  700000 700000 0  750000 700000 0  800000 700000 0  850000 700000 0  900000 700000 0  950000 700000 0  1000000 700000 0  0 750000 0  50000 750000 0  100000 750000 0  150000 750000 0  200000 750000 0  250000 750000 0  300000 750000 0  350000 750000 0  400000 750000 0  450000 750000 0  500000 750000 0  550000 750000 0  600000 750000 0  650000 750000 0  700000 750000 0  750000 750000 0  800000 750000 0  850000 750000 0  900000 750000 0  950000 750000 0  1000000 750000 0  0 800000 0  50000 800000 0  100000 800000 0  150000 800000 0  200000 800000 0  250000 800000 0  300000 800000 0  350000 800000 0  400000 800000 0  450000 800000 0  500000 800000 0  550000 800000 0  600000 800000 0  650000 800000 0  700000 800000 0  750000 800000 0  800000 800000 0  850000 800000 0  900000 800000 0  950000 800000 0  1000000 800000 0  0 850000 0  50000 850000 0  100000 850000 0  150000 850000 0  200000 850000 0  250000 850000 0  300000 850000 0  350000 850000 0  400000 850000 0  450000 850000 0  500000 850000 0  550000 850000 0  600000 850000 0  650000 850000 0  700000 850000 0  750000 850000 0  800000 850000 0  850000 850000 0  900000 850000 0  950000 850000 0  1000000 850000 0  0 900000 0  50000 900000 0  100000 900000 0  150000 900000 0  200000 900000 0  250000 900000 0  300000 900000 0  350000 900000 0  400000 900000 0  450000 900000 0  500000 900000 0  550000 900000 0  600000 900000 0  650000 900000 0  700000 900000 0  750000 900000 0  800000 900000 0  850000 900000 0  900000 900000 0  950000 900000 0  1000000 900000 0  0 950000 0  50000 950000 0  100000 950000 0  150000 950000 0  200000 950000 0  250000 950000 0  300000 950000 0  350000 950000 0  400000 950000 0  450000 950000 0  500000 950000 0  550000 950000 0  600000 950000 0  650000 950000 0  700000 950000 0  750000 950000 0  800000 950000 0  850000 950000 0  900000 950000 0  950000 950000 0  1000000 950000 0  0 1000000 0  50000 1000000 0  100000 1000000 0  150000 1000000 0  200000 1000000 0  250000 1000000 0  300000 1000000 0  350000 1000000 0  400000 1000000 0  450000 1000000 0  500000 1000000 0  550000 1000000 0  600000 1000000 0  650000 1000000 0  700000 1000000 0  750000 1000000 0  800000 1000000 0  850000 1000000 0  900000 1000000 0  950000 1000000 0  1000000 1000000 0  0 1050000 0  50000 1050000 0  100000 1050000 0  150000 1050000 0  200000 1050000 0  250000 1050000 0  300000 1050000 0  350000 1050000 0  400000 1050000 0  450000 1050000 0  500000 1050000 0  550000 1050000 0  600000 1050000 0  650000 1050000 0  700000 1050000 0  750000 1050000 0  800000 1050000 0  850000 1050000 0  900000 1050000 0  950000 1050000 0  1000000 1050000 0  0 1100000 0  50000 1100000 0  100000 1100000 0  150000 1100000 0  200000 1100000 0  250000 1100000 0  300000 1100000 0  350000 1100000 0  400000 1100000 0  450000 1100000 0  500000 1100000 0  550000 1100000 0  600000 1100000 0  650000 1100000 0  700000 1100000 0  750000 1100000 0  800000 1100000 0  850000 1100000 0  900000 1100000 0  950000 1100000 0  1000000 1100000 0  0 1150000 0  50000 1150000 0  100000 1150000 0  150000 1150000 0  200000 1150000 0  250000 1150000 0  300000 1150000 0  350000 1150000 0  400000 1150000 0  450000 1150000 0  500000 1150000 0  550000 1150000 0  600000 1150000 0  650000 1150000 0  700000 1150000 0  750000 1150000 0  800000 1150000 0  850000 1150000 0  900000 1150000 0  950000 1150000 0  1000000 1150000 0  0 1200000 0  50000 1200000 0  100000 1200000 0  150000 1200000 0  200000 1200000 0  250000 1200000 0  300000 1200000 0  350000 1200000 0  400000 1200000 0  450000 1200000 0  500000 1200000 0  550000 1200000 0  600000 1200000 0  650000 1200000 0  700000 1200000 0  750000 1200000 0  800000 1200000 0  850000 1200000 0  900000 1200000 0  950000 1200000 0  1000000 1200000 0  0 1250000 0  50000 1250000 0  100000 1250000 0  150000 1250000 0  200000 1250000 0  250000 1250000 0  300000 1250000 0  350000 1250000 0  400000 1250000 0  450000 1250000 0  500000 1250000 0  550000 1250000 0  600000 1250000 0  650000 1250000 0  700000 1250000 0  750000 1250000 0  800000 1250000 0  850000 1250000 0  900000 1250000 0  950000 1250000 0  1000000 1250000 0  0 1300000 0  50000 1300000 0  100000 1300000 0  150000 1300000 0  200000 1300000 0  250000 1300000 0  300000 1300000 0  350000 1300000 0  400000 1300000 0  450000 1300000 0  500000 1300000 0  550000 1300000 0  600000 1300000 0  650000 1300000 0  700000 1300000 0  750000 1300000 0  800000 1300000 0  850000 1300000 0  900000 1300000 0  950000 1300000 0  1000000 1300000 0  0 1350000 0  50000 1350000 0  100000 1350000 0  150000 1350000 0  200000 1350000 0  250000 1350000 0  300000 1350000 0  350000 1350000 0  400000 1350000 0  450000 1350000 0  500000 1350000 0  550000 1350000 0  600000 1350000 0  650000 1350000 0  700000 135
[...]
<PointData  Scalars="f_7495"> 
<DataArray  type="Float64"  Name="f_7495"  format="ascii">-1.2822094112352782e+00  -1.1192318060229671e+00  -9.3916629377309424e-01  -7.4734608800407110e-01  -5.4958317494416831e-01  -3.4768044888048460e-01  -1.4260791747149459e-01  6.4894676976633925e-02  2.7416061344572085e-01  4.8454241081012478e-01  6.9539080816430776e-01  9.0604504551141130e-01  1.1158250749805578e+00  1.3240186447598012e+00  1.5298542047792383e+00  1.7324439438590316e+00  1.9306658473392448e+00  2.1229057852141326e+00  2.3062971318491461e+00  2.4734198727540719e+00  2.5825100182347245e+00  -1.1785563606002787e+00  -1.1038674912380122e+00  -9.3555927398763583e-01  -7.4648836006947017e-01  -5.4946453795827721e-01  -3.4777287231062209e-01  -1.4273743282880041e-01  6.4802715182081361e-02  2.7414595628131316e-01  4.8463012663270444e-01  6.9559913676515794e-01  9.0638958862623953e-01  1.1163224140919454e+00  1.3246907388890290e+00  1.5307325981391797e+00  1.7335613653194257e+00  1.9319660203875664e+00  2.1237559245834894e+00  2.3034156964196248e+00  2.4536809417668985e+00  2.5197986068276412e+00  -1.0587628938513447e+00  -1.0219964750528161e+00  -8.9522294703349969e-01  -7.2631681406442861e-01  -5.3879689967461475e-01  -3.4187084410067275e-01  -1.3937904622444183e-01  6.6739796709841717e-02  2.7526158787209404e-01  4.8524415309900781e-01  6.9585573451702964e-01  9.0629689214620679e-01  1.1157517240928916e+00  1.3233336874118118e+00  1.5279875705092800e+00  1.7282702102245673e+00  1.9218173671077308e+00  2.1040062744172618e+00  2.2646868232144541e+00  2.3812909960536763e+00  2.4118825230524839e+00  -9.4410143966029036e-01  -9.2205979619067302e-01  -8.2673658896041480e-01  -6.8311113148778357e-01  -5.1188784472693061e-01  -3.2501007818863842e-01  -1.2878212385581883e-01  7.3311974160721952e-02  2.7912075616641535e-01  4.8712134064999657e-01  6.9607874070874598e-01  9.0486379235996228e-01  1.1123288634656190e+00  1.3171784727644207e+00  1.5177709378636712e+00  1.7117503335499851e+00  1.8953248368776090e+00  2.0618856115761512e+00  2.1996769084239118e+00  2.2892850772544988e+00  2.3070262037835088e+00  -8.3576075780404246e-01  -8.2032787430256271e-01  -7.4552015577031394e-01  -6.2398107371104761e-01  -4.7070086931080990e-01  -2.9692123570404944e-01  -1.0995947700679823e-01  8.5536312798806857e-02  2.8648126138228663e-01  4.9064802017177006e-01  6.9624828246343051e-01  9.0167152907736581e-01  1.1052896207181400e+00  1.3052591931932138e+00  1.4992559638629877e+00  1.6840604366394518e+00  1.8548983747335772e+00  2.0044817761829750e+00  2.1219885958722839e+00  2.1932244858894108e+00  2.2057797330940758e+00  -7.3421513819149575e-01  -7.2228673142295541e-01  -6.6098099121164400e-01  -5.5682066703093880e-01  -4.2009907789536316e-01  -2.6013105443374268e-01  -8.4048624836038768e-02  1.0299137402429541e-01  2.9723650101153154e-01  4.9581998594441951e-01  6.9637522246795425e-01  8.9675326837794767e-01  1.0947917297818068e+00  1.2880846910216830e+00  1.4737063786876796e+00  1.6478472854135067e+00  1.8053497735167170e+00  1.9392295664818948e+00  2.0405329559519587e+00  2.0994244245159126e+00  2.1093889071662830e+00  -6.4012323470438859e-01  -6.3032499577969359e-01  -5.7828684089495408e-01  -4.8746672088611476e-01  -3.6493657151208153e-01  -2.1806459311967474e-01  -5.3243710813594240e-02  1.2436919999322704e-01  3.1067572098638657e-01  5.0233650901242621e-01  6.9648100307006322e-01  8.9045575179875025e-01  1.0815994790636747e+00  1.2670210076578632e+00  1.4433581074115891e+00  1.6065104267879460e+00  1.7513793539217322e+00  1.8717337070047424e+00  1.9604746134951987e+00  2.0107994067546433e+00  2.0192006320806413e+00  -5.5417818700860577e-01  -5.4580509316693548e-01  -5.0040756399237563e-01  -4.1984934784304906e-01  -3.0911094974064951e-01  -1.7397481939978940e-01  -1.9972829273345025e-02  1.4801337932201522e-01  3.2579199400662423e-01  5.0973339588782995e-01  6.9658589303766882e-01  8.8328312078699889e-01  1.0667560040921251e+00  1.2437478280176368e+00  1.4106316281209068e+00  1.5632437231766798e+00  1.6967792466458964e+00  1.8058485850419221e+00  1.8848634365205059e+00  1.9290058031640143e+00  1.9363443920316090e+00  -4.7700929883331611e-01  -4.6965198409083603e-01  -4.2917794623759725e-01  -3.5658488381967435e-01  -2.5551021059623125e-01  -1.3054913869402654e-01  1.3551258014018363e-02  1.7228537877088140e-01  3.4152436097291017e-01  5.1749882521284374e-01  6.9670416821632219e-01  8.7577339515789610e-01  1.0513404205645869e+00  1.2199058853754747e+00  1.3777174602934223e+00  1.5206866738313887e+00  1.6443837512580126e+00  1.7441773837084606e+00  1.8156109221822203e+00  1.8551465564886587e+00  1.8617147777549472e+00  -4.0914788650496997e-01  -4.0254399809684271e-01  -3.6580275888572150e-01  -2.9943341090354042e-01  -2.0620561738820700e-01  -8.9859025188962147e-02  4.5503505671263135e-02  1.9575419963966306e-01  3.5690462175708665e-01  5.2515064659807198e-01  6.9684356052541052e-01  8.6842169448688522e-01  1.0363263203192856e+00  1.1969192721455990e+00  1.3464194199092507e+00  1.4808804348912579e+00  1.5962412970580284e+00  1.6884896742914024e+00  1.7539843670256854e+00  1.7900169755153430e+00  1.7960093509048343e+00  -3.5102201695102064e-01  -3.4498918390909400e-01  -3.1110403828861227e-01  -2.4959296008859835e-01  -1.6265938595808813e-01  -5.3438252054828994e-02  7.4467146322212643e-02  2.1726230385315606e-01  3.7112394985867886e-01  5.3227628787442638e-01  6.9700656429609054e-01  8.6164370853354744e-01  1.0225203620598324e+00  1.1759359590110081e+00  1.3181381779996213e+00  1.4453419585855085e+00  1.5538077097769551e+00  1.6400008742957204e+00  1.7008559875468348e+00  1.7342070010926349e+00  1.7397658824608522e+00  -3.0296312273459830e-01  -2.9736524730878777e-01  -2.6565167237039405e-01  -2.0788304415962153e-01  -1.2589139774113717e-01  -2.2390632819463560e-02  9.9388256590719495e-02  2.3592256288725835e-01  3.8354742160230970e-01  5.3854573918056758e-01  6.9719212177041812e-01  8.5576623161916499e-01  1.0105513598196463e+00  1.1578335782186038e+00  1.2939165661073295e+00  1.4151670826275742e+00  1.5181051068415923e+00  1.5995501607122957e+00  1.6568365868796486e+00  1.6881547334094684e+00  1.6933922924060907e+00  -2.6521721379075452e-01  -2.5994598525121254e-01  -2.2983899046371056e-01  -1.7486073969149926e-01  -9.6601812815808832e-02  2.5103159401480128e-03  1.1951093666471010e-01  2.5108478230080900e-01  3.9370122328317059e-01  5.4370893257470898e-01  6.9739704406437708e-01  8.5103249769836864e-01  1.0008852590392208e+00  1.1432538259954681e+00  1.2745032542667192e+00  1.3911268533961196e+00  1.4898403692068245e+00  1.5677143833276090e+00  1.6223537050545629e+00  1.6521806941429182e+00  1.6571908992495226e+00  -2.3795709932903825e-01  -2.3292114282298876e-01  -2.0393015060043393e-01  -1.5089579187452304e-01  -7.5257967182535510e-02  2.0741035502811634e-02  1.3431502792568625e-01  2.6229436765227182e-01  4.0124945216902352e-01  5.4758618698324935e-01  6.9761700474769828e-01  8.4761353222677061e-01  9.9384952949472061e-01  1.1326439545137015e+00  1.2604138979750124e+00  1.3737456985189944e+00  1.4694898329326158e+00  1.5448824205939924e+00  1.5977009648231351e+00  1.6265125266379750e+00  1.6313782934426124e+00  -2.2129349817784222e-01  -2.1641161821590890e-01  -1.8809112113720922e-01  -1.3621960312067719e-01  -6.2154072685401254e-02  3.1968303473646001e-02  1.4346529806937494e-01  2.6925472447845711e-01  4.0597041647057286e-01  5.5005725188345755e-01  6.9784714786960389e-01  8.4562015759098619e-01  9.8965743015369290e-01  1.1262942144256032e+00  1.2519810374508975e+00  1.3633596756588127e+00  1.4573578218926142e+00  1.5313040409505061e+00  1.5830705659859683e+00  1.6113033999878152e+00  1.6161012298483979e+00  -2.1528363778626702e-01  -2.1048032798710228e-01  -1.8240953034951010e-01  -1.3095616920302500e-01  -5.7449977902796968e-02  3.6008699136207793e-02  1.4677494134736158e-01  2.7179863286238393e-01  4.0773756388857468e-01  5.5105204934506347e-01  6.9808241220356226e-01  8.4511277506205507e-01  9.8842726051854424e-01  1.1243661915447329e+00  1.2493898830597516e+00  1.3601561252709067e+00  1.4536148023099105e+00  1.5271209936101391e+00  1.5785743547566211e+00  1.6066451523942118e+00  1.6114484621933771e+00  -2.1993640544128817e-01  -2.1513857558070526e-01  -1.8690574157885662e-01  -1.3513921654339553e-01  -6.1192997485500833e-02  3.2805148748302065e-02  1.4418378695621822e-01  2.6987060998151563e-01  4.0650739425342591e-01  5.5054466681613468e-01  6.9831767653752108e-01  8.4610757252366464e-01  9.9019440793654656e-01  1.1269100999286590e+00  1.2526995263377378e+00  1.3641965209334672e+00  1.4583188970925183e+00  1.5323844275277927e+00  1.5842559455443255e+00  1.6125764426230238e+00  1.6174583225849573e+00  -2.3521346903550308e-01  -2.3034770223086498e-01  -2.0153614041602497e-01  -1.4871759618688118e-01  -7.3325008525503652e-02  2.2419125888118962e-02  1.3575092643210385e-01  2.6352086989341728e-01  4.0231529491240026e-01  5.4855129218035448e-01  6.9854781965942991e-01  8.4857863742387674e-01  9.9491537223809967e-01  1.1338704567548499e+00  1.2618497964814341e+00  1.3754237889043095e+00  1.4714227915896578e+00  1.5470606162816429e+00  1.6000949750075562e+00  1.6290859672301117e+00  1.6341219237361604e+00  -2.6102607484240764e-01  -2.5601586973580354e-01  -2.2618888064744710e-01  -1.7154955892049220e-01  -9.3675544799706342e-02  5.0379710109983373e-03  1.2166157014040267e-01  2.5291099841165493e-01  3.9527956536790593e-01  5.4513232670876133e-01  6.9876778034275777e-01  8.5245589183242620e-01  1.0024636011239605e+00  1.1450800421063170e+00  1.2766538877424163e+00  1.3936545084669780e+00  1.4927666372229387e+00  1.5710255640986284e+00  1.6260038148708362e+00  1.6561108096583372e+00  1.6613820381978790e+00  -2.9722746799897043e-01  -2.9198990900234989e-01  -2.6067176247252666e-01  -2.0338533630517369e-01  -1.2194028243446774e-01  -1.9002258220448594e-02  1.0224825829980046e-01  2.3833124618852708e-01  3.8561346458748846e-01  5.4039859278797253e-01  6.9897270263672395e-01  8.5761908522657526e-01  1.0126174028048298e+00  1.1602422615198762e+00  1.2967765678164143e+00  1.4185554572265957e+00  1.5220562221482750e+00  1.6040478685667559e+00  1.6618164967775240e+00  1.6935300717159141e+00  1.6991279471417251e+00  -3.4360105805372171e-01  -3.3804217668550451e-01  -3.0469116313970324e-01  -2.4383604988858856e-01  -1.5764288536981980e-01  -4.9177134178368678e-02  7.8026646407519842e-02  2.2022886539613384e-01  3.7364446234731369e-01  5.3452111587360085e-01  6.9915826011106197e-01  8.6388853653272624e-01  1.0250408745484734e+00  1.1789025205539947e+00  1.3216976780849372e+00  1.4496030764619774e+00  1.5588242103652346e+00  1.6457577844957396e+00  1.7072688626957504e+00  1.7411540083162276e+00  1.7471868413581539e+00  -3.9984452649769348e-01  -3.9385215110820249e-01  -3.5781954261854415e-01  -2.9232484988425861e-01  -2.0007647265088246e-01  -8.4715610484106724e-02  4.9745404497901144e-02  1.9924555226155544e-01  3.5983850408787438e-01  5.2774312992027883e-01  6.9932126388175631e-01  8.7101417780909596e-01  1.0392602026500817e+00  1.2004106247675050e+00  1.3506613187359040e+00  1.4860238495961249e+00  1.6023704417953635e+00  1.6955982353106906e+00  1.7619675832928670e+00  1.7987088225039842e+00  1.8053127109121092e+00  -4.6554995334779781e-01  -4.5898173208150872e-01  -4.1944609777506969e-01  -3.4801255930130742e-01  -2.4821892685085462e-01  -1.2452184942422659e-01  1.8447364113743325e-02  1.7625893903169543e-01  3.4482440384258861e-01  5.2039142924928439e-01  6.9946065619086129e-01  8.7866599919434218e-01  1.0546404634342770e+00  1.2238794456363027e+00  1.3826135663931638e+00  1.5267139631012019e+00  1.6516750350033995e+00  1.7527497082268353e+00  1.8253427706447494e+00  1.8658168084979843e+00  1.8731741232404651e+00  -5.4017956762444985e-01  -5.3284097875685388e-01  -4.8869861211334503e-01  -4.0968376063475992e-01  -3.0061442223872809e-01  -1.6707889876950496e-01  -1.4466803713727681e-02  1.5241699638954762e-01  3.2940882031506435e-01  5.1288170362019381e-01  6.9957893136952776e-01  8.8643142851937085e-01  1.0703728304005777e+00  1.2481514450851841e+00  1.4161376536805406e+00  1.5701396438069768e+00  1.7052757741478304e+00  1.8160141722502230e+00  1.8965723883995402e+00  1.9419699175740961e+00  1.9503430114157649e+00  -6.2303580767347067e-01  -6.1463458234747381e-01  -5.6430978908803042e-01  -4.7556888259757113e-01  -3.5521452951455218e-01  -2.1034560238075908e-01  -4.7193283004394779e-02  1.2914381674933736e-01  3.1456534534353142e-01  5.0570907260845899e-01  6.9968382133714935e-01  8.9382831539478880e-01  1.0854891034208292e+00  1.2717956244139841e+00  1.4494085352208028e+00  1.6142294175268745e+00  1.7611013959192758e+00  1.8836315452933021e+00  1.9744516653021320e+00  2.0264898201868657e+00  2.0362880591115600e+00  -7.1322408275909932e-01  -7.0325960010873056e-01  -6.4436813154477368e-01  -5.4306474207470568e-01  -4.0918494910952247e-01  -2.5168246100630848e-01  -7.7541554280473657e-02  1.0808013338553364e-01  3.0137309462541367e-01  4.9941155602927545e-01  6.9978960193927386e-01  9.0034483846280977e-01  1.0989283233956992e+00  1.2931734503829302e+00  1.4802134492432593e+00  1.6562958788409576e+00  1.8162639023025702e+00  1.9529854914381402e+00  2.0571458156188345e+00  2.1184515558301396e+00  2.1303799625986777e+00  -8.0961490868688180e-01  -7.9705966148221674e-01  -7.2582377146508636e-01  -6.0831695177577361e-01  -4.5873355032637120e-01  -2.8789561223224097e-01  -1.0309113945576838e-01  9.0905631214014501e-02  2.9087520368909164e-01  4.9449329532986741e-01  6.9991654194380759e-01  9.0551680423546943e-01  1.1096835630249524e+00  1.3106285116084295e+00  1.5061243014140315e+00  1.6930860601112787e+00  1.8668656937180277e+00  2.0201458981182574e+00  2.1416849801775162e+00  2.2164926987097568e+00  2.2319255822112356e+00  -9.1086137937630451e-01  -8.9312025284729413e-01  -8.0351208401670149e-01  -6.6572078716893768e-01  -4.9916001247039293e-01  -3.1558550914276234e-01  -1.2160611345644237e-01  7.8986351642816047e-02  2.8383596094162089e-01  4.9130103204727893e-01  7.0008608369849912e-01  9.0904348375725075e-01  1.1170440682408305e+00  1.3228528502465229e+00  1.5249469482630638e+00  1.7211749025958758e+00  1.9080526691341602e+00  2.0792759558950022e+00  2.2229014133676239e+00  2.3182246205978738e+00  2.3402662640674903e+00  -1.0157176986452714e+00  -9.8512617164646066e-01  -8.6852199880723513e-01  -7.0784145001003884e-01  -5.2565254270050754e-01  -3.3210538581733906e-01  -1.3182274610204489e-01  7.2831136995430368e-02  2.8041310031435146e-01  4.8986793226103842e-01  7.0030908989022034e-01  9.1092067130824295e-01  1.1209032365351581e+00  1.3294250276974073e+00  1.5355438706316902e+00  1.7380356685079146e+00  1.9349617240818486e+00  2.1224816384716529e+00  2.2913877714407147e+00  2.4181612994600235e+00  2.4549277182585527e+00  -1.1236337824204268e+00  -1.0575161173596825e+00  -9.0725087201240906e-01  -7.2759110017626771e-01  -5.3580119598034004e-01  -3.3739654091219334e-01  -1.3456777373194273e-01  7.1474085518213229e-02  2.7984241031529972e-01  4.8977523578100746e-01  7.0056568764209204e-01  9.1153469777454810e-01  1.1220188681259402e+00  1.3313621092251704e+00  1.5389022572360500e+00  1.7439376967178648e+00  1.9456293623655130e+00  2.1426531844766972e+00  2.3317240983948571e+00  2.5000323156452264e+00  2.5747211850074923e+00  -1.1863451938275082e+00  -1.0772550483468546e+00  -9.1013230744192730e-01  -7.2674096080690997e-01  -5.3450102293201740e-01  -3.3627911945179928e-01  -1.3368938037199973e-01  7.2146179647441494e-02  2.8033974942668866e-01  4.9011977889583713e-01  7.0077401624294344e-01  9.1162241359712626e-01  1.1220042109615331e+00  1.3312701474306186e+00  1.5387727418787458e+00  1.7438452732877288e+00  1.9457479993514055e+00  2.1435109124112999e+00  2.3353311181803154e+00  2.5153966304301831e+00  2.6783742356424938e+00  </DataArray> 
</PointData> 
</Piece>
</UnstructuredGrid>
</VTKFile>