<?xml version="1.0"?>
<VTKFile type="UnstructuredGrid"  version="0.1"  >
<UnstructuredGrid>
<Piece  NumberOfPoints="651" NumberOfCells="1200">
<Points>
<DataArray  type="Float64"  NumberOfComponents="3"  format="ascii">0 0 0  50000 0 0  100000 0 0  150000 0 0  200000 0 0  250000 0 0  300000 0 0  350000 0 0  400000 0 0  450000 0 0  500000 0 0  550000 0 0  600000 0 0  650000 0 0  700000 0 0  750000 0 0  800000 0 0  850000 0 0  900000 0 0  950000 0 0  1000000 0 0  0 50000 0  50000 50000 0  100000 50000 0  150000 50000 0  200000 50000 0  250000 50000 0  300000 50000 0  350000 50000 0  400000 50000 0  450000 50000 0  500000 50000 0  550000 50000 0  600000 50000 0  650000 50000 0  700000 50000 0  750000 50000 0  800000 50000 0  850000 50000 0  900000 50000 0  950000 50000 0  1000000 50000 0  0 100000 0  50000 100000 0  100000 100000 0  150000 100000 0  200000 100000 0  250000 100000 0  300000 100000 0  350000 100000 0  400000 100000 0  450000 100000 0  500000 100000 0  550000 100000 0  600000 100000 0  650000 100000 0  700000 100000 0  750000 100000 0  800000 100000 0  850000 100000 0  900000 100000 0  950000 100000 0  1000000 100000 0  0 150000 0  50000 150000 0  100000 150000 0  150000 150000 0  200000 150000 0  250000 150000 0  300000 150000 0  350000 150000 0  400000 150000 0  450000 150000 0  500000 150000 0  550000 150000 0  600000 150000 0  650000 150000 0  700000 150000 0  750000 150000 0  800000 150000 0  850000 150000 0  900000 150000 0  950000 150000 0  1000000 150000 0  0 200000 0  50000 200000 0  100000 200000 0  150000 200000 0  200000 200000 0  250000 200000 0  300000 200000 0  350000 200000 0  400000 200000 0  450000 200000 0  500000 200000 0  550000 200000 0  600000 200000 0  650000 200000 0  700000 200000 0  750000 200000 0  800000 200000 0  850000 200000 0  900000 200000 0  950000 200000 0  1000000 200000 0  0 250000 0  50000 250000 0  100000 250000 0  150000 250000 0  200000 250000 0  250000 250000 0  300000 250000 0  350000 250000 0  400000 250000 0  450000 250000 0  500000 250000 0  550000 250000 0  600000 250000 0  650000 250000 0  700000 250000 0  750000 250000 0  800000 250000 0  850000 250000 0  900000 250000 0  950000 250000 0  1000000 250000 0  0 300000 0  50000 300000 0  100000 300000 0  150000 300000 0  200000 300000 0  250000 300000 0  300000 300000 0  350000 300000 0  400000 300000 0  450000 300000 0  500000 300000 0  550000 300000 0  600000 300000 0  650000 300000 0  700000 300000 0  750000 300000 0  800000 300000 0  850000 300000 0  900000 300000 0  950000 300000 0  1000000 300000 0  0 350000 0  50000 350000 0  100000 350000 0  150000 350000 0  200000 350000 0  250000 350000 0  300000 350000 0  350000 350000 0  400000 350000 0  450000 350000 0  500000 350000 0  550000 350000 0  600000 350000 0  650000 350000 0  700000 350000 0  750000 350000 0  800000 350000 0  850000 350000 0  900000 350000 0  950000 350000 0  1000000 350000 0  0 400000 0  50000 400000 0  100000 400000 0  150000 400000 0  200000 400000 0  250000 400000 0  300000 400000 0  350000 400000 0  400000 400000 0  450000 400000 0  500000 400000 0  550000 400000 0  600000 400000 0  650000 400000 0  700000 400000 0  750000 400000 0  800000 400000 0  850000 400000 0  900000 400000 0  950000 400000 0  1000000 400000 0  0 450000 0  50000 450000 0  100000 450000 0  150000 450000 0  200000 450000 0  250000 450000 0  300000 450000 0  350000 450000 0  400000 450000 0  450000 450000 0  500000 450000 0  550000 450000 0  600000 450000 0  650000 450000 0  700000 450000 0  750000 450000 0  800000 450000 0  850000 450000 0  900000 450000 0  950000 450000 0  1000000 450000 0  0 500000 0  50000 500000 0  100000 500000 0  150000 500000 0  200000 500000 0  250000 500000 0  300000 500000 0  350000 500000 0  400000 500000 0  450000 500000 0  500000 500000 0  550000 500000 0  600000 500000 0  650000 500000 0  700000 500000 0  750000 500000 0  800000 500000 0  850000 500000 0  900000 500000 0  950000 500000 0  1000000 500000 0  0 550000 0  50000 550000 0  100000 550000 0  150000 550000 0  200000 550000 0  250000 550000 0  300000 550000 0  350000 550000 0  400000 550000 0  450000 550000 0  500000 550000 0  550000 550000 0  600000 550000 0  650000 550000 0  700000 550000 0  750000 550000 0  800000 550000 0  850000 550000 0  900000 550000 0  950000 550000 0  1000000 550000 0  0 600000 0  50000 600000 0  100000 600000 0  150000 600000 0  200000 600000 0  250000 600000 0  300000 600000 0  350000 600000 0  400000 600000 0  450000 600000 0  500000 600000 0  550000 600000 0  600000 600000 0  650000 600000 0  700000 600000 0  750000 600000 0  800000 600000 0  850000 600000 0  900000 600000 0  950000 600000 0  1000000 600000 0  0 650000 0  50000 650000 0  100000 650000 0  150000 650000 0  200000 650000 0  250000 650000 0  300000 650000 0  350000 650000 0  400000 650000 0  450000 650000 0  500000 650000 0  550000 650000 0  600000 650000 0  650000 650000 0  700000 650000 0  750000 650000 0  800000 650000 0  850000 650000 0  900000 650000 0  950000 650000 0  1000000 650000 0  0 700000 0  50000 700000 0  100000 700000 0  150000 700000 0  200000 700000 0  250000 700000 0  300000 700000 0  350000 700000 0  400000 700000 0  450000 700000 0  500000 700000 0  550000 700000 0  600000 700000 0  650000 700000 0  700000 700000 0  750000 700000 0  800000 700000 0  850000 700000 0  900000 700000 0  950000 700000 0  1000000 700000 0  0 750000 0  50000 750000 0  100000 750000 0  150000 750000 0  200000 750000 0  250000 750000 0  300000 750000 0  350000 750000 0  400000 750000 0  450000 750000 0  500000 750000 0  550000 750000 0  600000 750000 0  650000 750000 0  700000 750000 0  750000 750000 0  800000 750000 0  850000 750000 0  900000 750000 0  950000 750000 0  1000000 750000 0  0 800000 0  50000 800000 0  100000 800000 0  150000 800000 0  200000 800000 0  250000 800000 0  300000 800000 0  350000 800000 0  400000 800000 0  450000 800000 0  500000 800000 0  550000 800000 0  600000 800000 0  650000 800000 0  700000 800000 0  750000 800000 0  800000 800000 0  850000 800000 0  900000 800000 0  950000 800000 0  1000000 800000 0  0 850000 0  50000 850000 0  100000 850000 0  150000 850000 0  200000 850000 0  250000 850000 0  300000 850000 0  350000 850000 0  400000 850000 0  450000 850000 0  500000 850000 0  550000 850000 0  600000 850000 0  650000 850000 0  700000 850000 0  750000 850000 0  800000 850000 0  850000 850000 0  900000 850000 0  950000 850000 0  1000000 850000 0  0 900000 0  50000 900000 0  100000 900000 0  150000 900000 0  200000 900000 0  250000 900000 0  300000 900000 0  350000 900000 0  400000 900000 0  450000 900000 0  500000 900000 0  550000 900000 0  600000 900000 0  650000 900000 0  700000 900000 0  750000 900000 0  800000 900000 0  850000 900000 0  900000 900000 0  950000 900000 0  1000000 900000 0  0 950000 0  50000 950000 0  100000 950000 0  150000 950000 0  200000 950000 0  250000 950000 0  300000 950000 0  350000 950000 0  400000 950000 0  450000 950000 0  500000 950000 0  550000 950000 0  600000 950000 0  650000 950000 0  700000 950000 0  750000 950000 0  800000 950000 0  850000 950000 0  900000 950000 0  950000 950000 0  1000000 950000 0  0 1000000 0  50000 1000000 0  100000 1000000 0  150000 1000000 0  200000 1000000 0  250000 1000000 0  300000 1000000 0  350000 1000000 0  400000 1000000 0  450000 1000000 0  500000 1000000 0  550000 1000000 0  600000 1000000 0  650000 1000000 0  700000 1000000 0  750000 1000000 0  800000 1000000 0  850000 1000000 0  900000 1000000 0  950000 1000000 0  1000000 1000000 0  0 1050000 0  50000 1050000 0  100000 1050000 0  150000 1050000 0  200000 1050000 0  250000 1050000 0  300000 1050000 0  350000 1050000 0  400000 1050000 0  450000 1050000 0  500000 1050000 0  550000 1050000 0  600000 1050000 0  650000 1050000 0  700000 1050000 0  750000 1050000 0  800000 1050000 0  850000 1050000 0  900000 1050000 0  950000 1050000 0  1000000 1050000 0  0 1100000 0  50000 1100000 0  100000 1100000 0  150000 1100000 0  200000 1100000 0  250000 1100000 0  300000 1100000 0  350000 1100000 0  400000 1100000 0  450000 1100000 0  500000 1100000 0  550000 1100000 0  600000 1100000 0  650000 1100000 0  700000 1100000 0  750000 1100000 0  800000 1100000 0  850000 1100000 0  900000 1100000 0  950000 1100000 0  1000000 1100000 0  0 1150000 0  50000 1150000 0  100000 1150000 0  150000 1150000 0  200000 1150000 0  250000 1150000 0  300000 1150000 0  350000 1150000 0  400000 1150000 0  450000 1150000 0  500000 1150000 0  550000 1150000 0  600000 1150000 0  650000 1150000 0  700000 1150000 0  750000 1150000 0  800000 1150000 0  850000 1150000 0  900000 1150000 0  950000 1150000 0  1000000 1150000 0  0 1200000 0  50000 1200000 0  100000 1200000 0  150000 1200000 0  200000 1200000 0  250000 1200000 0  300000 1200000 0  350000 1200000 0  400000 1200000 0  450000 1200000 0  500000 1200000 0  550000 1200000 0  600000 1200000 0  650000 1200000 0  700000 1200000 0  750000 1200000 0  800000 1200000 0  850000 1200000 0  900000 1200000 0  950000 1200000 0  1000000 1200000 0  0 1250000 0  50000 1250000 0  100000 1250000 0  150000 1250000 0  200000 1250000 0  250000 1250000 0  300000 1250000 0  350000 1250000 0  400000 1250000 0  450000 1250000 0  500000 1250000 0  550000 1250000 0  600000 1250000 0  650000 1250000 0  700000 1250000 0  750000 1250000 0  800000 1250000 0  850000 1250000 0  900000 1250000 0  950000 1250000 0  1000000 1250000 0  0 1300000 0  50000 1300000 0  100000 1300000 0  150000 1300000 0  200000 1300000 0  250000 1300000 0  300000 1300000 0  350000 1300000 0  400000 1300000 0  450000 1300000 0  500000 1300000 0  550000 1300000 0  600000 1300000 0  650000 1300000 0  700000 1300000 0  750000 1300000 0  800000 1300000 0  850000 1300000 0  900000 1300000 0  950000 1300000 0  1000000 1300000 0  0 1350000 0  50000 1350000 0  100000 1350000 0  150000 1350000 0  200000 1350000 0  250000 1350000 0  300000 1350000 0  350000 1350000 0  400000 1350000 0  450000 1350000 0  500000 1350000 0  550000 1350000 0  600000 1350000 0  650000 1350000 0  700000 135
[...]
<PointData  Scalars="f_7495"> 
<DataArray  type="Float64"  Name="f_7495"  format="ascii">-8.2969289204554286e+00  -7.5605369658662118e+00  -6.7433784442263693e+00  -5.8714183432470248e+00  -4.9716748551215630e+00  -4.0525625423092011e+00  -3.1186323802499167e+00  -2.1733544084616070e+00  -1.2198503921233235e+00  -2.6114748330227439e-01  6.9972118834096397e-01  1.6596692911444113e+00  2.6155197404439607e+00  3.5639437419259763e+00  4.5013332322355657e+00  5.4235297238880742e+00  6.3252525794677137e+00  7.1988291894284950e+00  8.0305053318205761e+00  8.7852576085493190e+00  9.2745084742567894e+00  -7.8303508322595450e+00  -7.4951623282995650e+00  -6.7299495642871987e+00  -5.8696066712606312e+00  -4.9726983468345951e+00  -4.0542376762239138e+00  -3.1202900703913432e+00  -2.1747233659529237e+00  -1.2207876114763518e+00  -2.6155743282789623e-01  6.9991767085770140e-01  1.6605530251373952e+00  2.6171910373815286e+00  3.5665461895835904e+00  4.5050805447909559e+00  5.4286840195048409e+00  6.3317512232047264e+00  7.2041454454833502e+00  8.0203488582752005e+00  8.7007323836595738e+00  8.9941087135233921e+00  -7.2916295194082270e+00  -7.1280390419651498e+00  -6.5519680950534944e+00  -5.7825431013735775e+00  -4.9279817672440283e+00  -4.0304488508769607e+00  -3.1074624356392020e+00  -2.1678577590063663e+00  -1.2172257573199277e+00  -2.5988520730989284e-01  7.0033987178728796e-01  1.6597681130016566e+00  2.6146415252720714e+00  3.5608809764385421e+00  4.4936405234855661e+00  5.4063043751330842e+00  6.2880376765588650e+00  7.1176266334159610e+00  7.8484183297859662e+00  8.3766468230598647e+00  8.5099264482994883e+00  -6.7760560417617484e+00  -6.6787413245021465e+00  -6.2458369557756583e+00  -5.5912767121679945e+00  -4.8102882453917655e+00  -3.9577574367924360e+00  -3.0625513945709621e+00  -2.1405779299549370e+00  -1.2016502781270952e+00  -2.5271849440397909e-01  7.0057382746439378e-01  1.6530608576801153e+00  2.5994900620621930e+00  3.5339336162566153e+00  4.4488823584550694e+00  5.3335583529688551e+00  6.1705971631134107e+00  6.9296874712261056e+00  7.5568364194952915e+00  7.9628403283787836e+00  8.0393698182738955e+00  -6.2889280413512640e+00  -6.2211021444834422e+00  -5.8814479081038575e+00  -5.3273404079949129e+00  -4.6276992171722044e+00  -3.8342368930598054e+00  -2.9805420570903114e+00  -2.0878945279732957e+00  -1.1703901808618016e+00  -2.3819743210569466e-01  7.0052035044667660e-01  1.6384090843814187e+00  2.5680314236508690e+00  3.4809636861006843e+00  4.3665786990966611e+00  5.2101429485077713e+00  5.9897807145856676e+00  6.6720517951673450e+00  7.2072424755618369e+00  7.5301489580991978e+00  7.5842833364534386e+00  -5.8323186102611473e+00  -5.7799835071718517e+00  -5.5015816242061772e+00  -5.0264778420208556e+00  -4.4019896249554504e+00  -3.6709903079889674e+00  -2.8662610798957435e+00  -2.0114545039414029e+00  -1.1237482609199978e+00  -2.1624777573781820e-01  7.0023575472943589e-01  1.6158871568055202e+00  2.5208275410750933e+00  3.4040595462820291e+00  4.2521986296266174e+00  5.0477988853524511e+00  5.7672112967263960e+00  6.3783703228862638e+00  6.8401270420811544e+00  7.1073075248642645e+00  7.1504619752300602e+00  -5.4091771815263971e+00  -5.3661836329502357e+00  -5.1297373189641435e+00  -4.7152197409246188e+00  -4.1551389552543094e+00  -3.4834301933360474e+00  -2.7295044116713174e+00  -1.9170439534879953e+00  -1.0648369217946070e+00  -1.8816975679701317e-01  6.9982926152126690e-01  1.5870296359952822e+00  2.4612639778311238e+00  3.3093070848553632e+00  4.1157662281025633e+00  4.8618495179745596e+00  5.5241618477674335e+00  6.0740759093452139e+00  6.4789475427670524e+00  6.7075313347745995e+00  6.7441315346797222e+00  -5.0226398523289184e+00  -4.9858580379841202e+00  -4.7794155817146926e+00  -4.4114504700879866e+00  -3.9048614648704074e+00  -3.2863005858110510e+00  -2.5812386753385641e+00  -1.8121157491645103e+00  -9.9816918575713820e-01  -1.5603333073162667e-01  6.9940394156791463e-01  1.5541101467959964e+00  2.3940404544156948e+00  3.2042849559649982e+00  3.9682258087729090e+00  4.6667664991119144e+00  5.2778434130337954e+00  5.7766766240441081e+00  6.1375480808969272e+00  6.3383207367622862e+00  6.3704818215686672e+00  -4.6755697204367559e+00  -4.6431943686841128e+00  -4.4589584371901161e+00  -4.1270849942193459e+00  -3.6643068627459647e+00  -3.0918228984194140e+00  -2.4315086359169933e+00  -1.7040928945709393e+00  -9.2854133207655576e-01  -1.2214554716250950e-01  6.9903271680405832e-01  1.5195702736583672e+00  2.3240490096966253e+00  3.0964345630934038e+00  3.8195211235638982e+00  4.4745428468370445e+00  5.0411426293396593e+00  5.4980085974504984e+00  5.8246103361987887e+00  6.0046813276043620e+00  6.0336203854889643e+00  -4.3703938247540348e+00  -4.3412740574864310e+00  -4.1738486241754176e+00  -3.8701458419495198e+00  -3.4429186601153172e+00  -2.9094367658991884e+00  -2.2886229915217675e+00  -1.5994825513659030e+00  -8.6035042910277304e-01  -8.8692103917918999e-02  6.9875571344539367e-01  1.4856638189090077e+00  2.2557178450331006e+00  2.9922339333999597e+00  3.6778608597238898e+00  4.2944713847128995e+00  4.8233878284453935e+00  5.2461290846148145e+00  5.5459014789904577e+00  5.7102385000261693e+00  5.7367588544351218e+00  -4.1090744631369391e+00  -4.0824136043667814e+00  -3.9278332860528198e+00  -3.6460998002441900e+00  -3.2473717485070428e+00  -2.7461424427103176e+00  -2.1590445833741518e+00  -1.5035613571405571e+00  -7.9728059094890058e-01  -5.7550103592228216e-02  6.9858686435192785e-01  1.4542865866733097e+00  2.1927238339344908e+00  2.8969159375783105e+00  3.5496312925515134e+00  4.1334704691950792e+00  4.6312199722704497e+00  5.0265830850688804e+00  5.3054030837029060e+00  5.4576959346786955e+00  5.4823843772345997e+00  -3.8931359516095165e+00  -3.8683414717596412e+00  -3.7235156372107499e+00  -3.4586914806751072e+00  -3.0823275444601892e+00  -2.6069846327326456e+00  -2.0475886388382145e+00  -1.4203807300930273e+00  -7.4223002072025090e-01  -3.0224950645816116e-02  6.9852238068545236e-01  1.4269309981779941e+00  2.1379379337777933e+00  2.8144879023010225e+00  3.4395951566288003e+00  3.9965464917706930e+00  4.4693105496865000e+00  4.8432086935602570e+00  5.1059142712502537e+00  5.2490730596430346e+00  5.2723937065266560e+00  -3.7237130366222599e+00  -3.7003146849461945e+00  -3.5626963147336501e+00  -3.3104700134258245e+00  -2.9509900318140563e+00  -2.4955027924387223e+00  -1.9577133224242782e+00  -1.3529144302975937e+00  -6.9736514603311972e-01  -7.8596986956801246e-03  6.9854788081195007e-01  1.4047090987850959e+00  2.0934904482125707e+00  2.7478842374806551e+00  3.3511771791796505e+00  3.8872282769652142e+00  4.3408972490998012e+00  4.6986519911791387e+00  4.9494030115017074e+00  5.0858562116614570e+00  5.1082007395400817e+00  -3.6016044003671759e+00  -3.5792064005991877e+00  -3.4465867411977165e+00  -3.2031293961730141e+00  -2.8554999742550544e+00  -2.4140950513469726e+00  -1.8918008873028251e+00  -1.3032441021107422e+00  -6.6422389536357451e-01  8.7229961669102792e-03  6.9864336529099591e-01  1.3884035366056249e+00  2.0608803925331123e+00  2.6991529972504242e+00  3.2867398616688823e+00  3.8079203937599546e+00  4.2481669670933364e+00  4.5947027093148005e+00  4.8372273615342412e+00  4.9691075750626732e+00  4.9908246335274153e+00  -3.5273215227020214e+00  -3.5055730170513972e+00  -3.3759483077426173e+00  -3.1377302320243095e+00  -2.7972057476875247e+00  -2.3642886374183116e+00  -1.8513877799158338e+00  -1.2727290774498830e+00  -6.4382233626164675e-01  1.8971856388092023e-02  6.9878625047558496e-01  1.3785218300858693e+00  2.0410850010336135e+00  2.6696249858114776e+00  3.2478090974932066e+00  3.7601666989699685e+00  4.1925205111606143e+00  4.5325145999080805e+00  4.7702809612030324e+00  4.8995465529781042e+00  4.9209605248911936e+00  -3.5011265033307200e+00  -3.4797021360490112e+00  -3.3511814022848556e+00  -3.1148396272069481e+00  -2.7768391725454284e+00  -2.3469238770367808e+00  -1.8373302124371036e+00  -1.2621360340402503e+00  -6.3674087888745656e-01  2.2565268981775775e-02  6.9895297349725272e-01  1.3753406780127166e+00  2.0346468258819468e+00  2.6600419810347318e+00  3.2352361594315888e+00  3.7448298240312727e+00  4.1747451195399172e+00  4.5127455742014684e+00  4.7490873492793799e+00  4.8776080830435458e+00  4.8990324503252625e+00  -3.5230545778966555e+00  -3.5016406059835696e+00  -3.3723750142085125e+00  -3.1346086529135819e+00  -2.7946145641661282e+00  -2.3622607519755059e+00  -1.8499031504987369e+00  -1.2717190388170054e+00  -6.4317905403914122e-01  1.9384116908625276e-02  6.9911969651892836e-01  1.3789340906064169e+00  2.0417282832561461e+00  2.6706350244443615e+00  3.2492937269103219e+00  3.7621945844128093e+00  4.1951116946820344e+00  4.5356361790188311e+00  4.7738542547371789e+00  4.9034789640459895e+00  4.9252274696966074e+00  -3.5929186865328679e+00  -3.5712016280681418e+00  -3.4393214145397186e+00  -3.1967967623202860e+00  -2.8502610200988494e+00  -2.4100144467655102e+00  -1.8888339146744293e+00  -1.3012470502559546e+00  -6.6297444553863383e-01  9.5024103888838845e-03  6.9926258170353417e-01  1.3891829508276177e+00  2.0621298423580945e+00  2.7011500491052600e+00  3.2897068342973559e+00  3.8120009983415009e+00  4.2534059212495841e+00  4.6010353431675526e+00  4.8444926881923225e+00  4.9771123475938417e+00  4.9995103473618121e+00  -3.7102947925455019e+00  -3.6879502646668709e+00  -3.5514970645071369e+00  -3.3007460441845629e+00  -2.9429913021052774e+00  -2.4893223299707334e+00  -1.9532712321851633e+00  -1.3499782904861628e+00  -6.9558450121805626e-01  -6.8031517905635785e-03  6.9935806618261753e-01  1.4057656456902499e+00  2.0952710930276788e+00  2.7508203772921358e+00  3.3556192694188272e+00  3.8934087394332808e+00  4.3488959788086516e+00  4.7083759604204234e+00  4.9606022617282539e+00  5.0982206319407881e+00  5.1216189836168562e+00  -3.8744877595320633e+00  -3.8511671126484499e+00  -3.7080083242556672e+00  -3.4453027465656962e+00  -3.0714046026919508e+00  -2.5986405447761718e+00  -2.0416892096342814e+00  -1.4165819553064949e+00  -7.4003198678324245e-01  -2.9025051183425209e-02  6.9938356630914522e-01  1.4281308976404226e+00  2.1401359677148513e+00  2.8182866770875963e+00  3.4454945858327730e+00  4.0048905797271983e+00  4.4802334914547863e+00  4.8565974276697057e+00  5.1214215842053230e+00  5.2662474187541815e+00  5.2910418986040701e+00  -4.0844784302399617e+00  -4.0597899876840575e+00  -3.9074971367082760e+00  -3.6286771380742904e+00  -3.2333140252758552e+00  -2.7355645222004727e+00  -2.1517253455569176e+00  -1.4990099905837184e+00  -7.9481788693987809e-01  -5.6380639678686208e-02  6.9931908264271914e-01  1.4554560505868823e+00  2.1951865379435564e+00  2.9014673041352026e+00  3.5569505303688009e+00  4.1440483897049436e+00  4.6452776955016466e+00  5.0440057472387796e+00  5.3257392330474067e+00  5.4803195513613305e+00  5.5069804101314848e+00  -4.3388529074404172e+00  -4.3123325530315002e+00  -4.1479955319957842e+00  -3.8482231376201659e+00  -3.4254818814507573e+00  -2.8965654377182424e+00  -2.2799549127292398e+00  -1.5943279864053082e+00  -8.5781189803843205e-01  -8.7757871914314181e-02  6.9915023354932082e-01  1.4865980509126415e+00  2.2582563760974943e+00  2.9973884983606429e+00  3.6865289385165170e+00  4.3073427128939024e+00  4.8408246071099894e+00  5.2680517889441418e+00  5.5717545711700156e+00  5.7391800044809953e+00  5.7682997717485600e+00  -4.6357144384942455e+00  -4.6067753806096627e+00  -4.4267043892040805e+00  -4.1001026504557920e+00  -3.6432366823449698e+00  -3.0766368998423457e+00  -2.4216151765691967e+00  -1.6985286160986723e+00  -9.2614306270187297e-01  -1.2166432666360047e-01  6.9887323019072389e-01  1.5200514941573071e+00  2.3264472790713544e+00  3.1019988415657513e+00  3.8294145829117920e+00  4.4897288454141702e+00  5.0622128097406813e+00  5.5249909412140141e+00  5.8568643841847381e+00  6.0411003156787091e+00  6.0734756674313601e+00  -4.9725758745739075e+00  -4.9404147897675079e+00  -4.7396421339021666e+00  -4.3787706770493706e+00  -3.8799374660390393e+00  -3.2688605521171574e+00  -2.5703198617781355e+00  -1.8063790089701952e+00  -9.9613450742087672e-01  -1.5620419980116490e-01  6.9850200542693097e-01  1.5539392777264842e+00  2.3960751327519905e+00  3.2100216961593531e+00  3.9791446223333886e+00  4.6842065328058400e+00  5.3027674118651760e+00  5.8093564170826939e+00  6.1773215287093448e+00  6.3837639849787866e+00  6.4205457993235848e+00  -5.3462255876849412e+00  -5.3096253877798185e+00  -5.0810415957723123e+00  -4.6761699623504667e+00  -4.1262559007726365e+00  -3.4639435709797386e+00  -2.7178602811077148e+00  -1.9114011378604809e+00  -1.0633580308362309e+00  -1.8912368900037793e-01  6.9807668547364499e-01  1.5860757037919313e+00  2.4627428687895172e+00  3.3149499004828749e+00  4.1274103586661752e+00  4.8813361403308670e+00  5.5530449022491348e+00  6.1131256879194122e+00  6.5276432659588792e+00  6.7640895799449536e+00  6.8070831285211284e+00  -5.7525560282352490e+00  -5.7094015778694640e+00  -5.4422210950863370e+00  -4.9804643758914509e+00  -4.3693053497315431e+00  -3.6498929383575920e+00  -2.8542926826317050e+00  -2.0061535992870647e+00  -1.1229215940801274e+00  -2.1798120981055688e-01  6.9767019226554061e-01  1.6141537227327967e+00  2.5216542079149722e+00  3.4093604509363522e+00  4.2641670268906608e+00  5.0688962549838799e+00  5.7998955719503451e+00  6.4243837890157165e+00  6.8994875712009769e+00  7.1778894541666487e+00  7.2302245572559523e+00  -6.1863773894585705e+00  -6.1322430111043342e+00  -5.8093365285669485e+00  -5.2741458481724690e+00  -4.5918747675907650e+00  -3.8122370015128686e+00  -2.9686727521017029e+00  -2.0830577391056795e+00  -1.1701254766558591e+00  -2.4050313738641035e-01  6.9738559654834364e-01  1.6361033791007136e+00  2.5682961278568111e+00  3.4858004749682836e+00  4.3784480040852882e+00  5.2321428400548013e+00  6.0256051641671560e+00  6.7252463549898316e+00  7.2793538550987620e+00  7.6190080914783129e+00  7.6868339883461303e+00  -6.6414638712789724e+00  -6.5649343813838499e+00  -6.1589304725003728e+00  -5.5317815242311861e+00  -4.7726912161184796e+00  -3.9356524059739018e+00  -3.0509764114600615e+00  -2.1360276692615887e+00  -1.2015841150671516e+00  -2.5515491068507890e-01  6.9733211953064900e-01  1.6506244413990276e+00  2.5995562251221211e+00  3.5384838769499529e+00  4.4604573415660047e+00  5.3556633837874905e+00  6.2081941923867907e+00  6.9891826591629655e+00  7.6437429027706214e+00  8.0766472714970927e+00  8.1739619887566803e+00  -7.1120205013045279e+00  -6.9787408760648635e+00  -6.4505123827910200e+00  -5.7197206864210326e+00  -4.8901317295639473e+00  -4.0083984281381175e+00  -3.0957345764905617e+00  -2.1629750294435008e+00  -1.2167355782770353e+00  -2.6186216600660989e-01  6.9756607520777114e-01  1.6577911543049517e+00  2.6151317043149747e+00  3.5657637060013880e+00  4.5053683826342485e+00  5.4283547978720215e+00  6.3258877142390695e+00  7.1804490483685823e+00  7.9498740420484726e+00  8.5259449889601076e+00  8.6895354664032372e+00  -7.5962027665284655e+00  -7.3028264366646400e+00  -6.6224429112803467e+00  -5.8062394984884609e+00  -4.9338452762098051e+00  -4.0307780725098681e+00  -3.1071745977959444e+00  -2.1686402425885558e+00  -1.2192850903864800e+00  -2.6264707814234073e-01  6.9798827613735870e-01  1.6594633798229612e+00  2.6186935584714068e+00  3.5726293129479734e+00  4.5181960173863844e+00  5.4521436232189364e+00  6.3706042938296337e+00  7.2675126182556360e+00  8.1278555112822186e+00  8.8930682752945565e+00  9.2282567792545436e+00  -7.8766025272618547e+00  -7.3873516615543871e+00  -6.6325993848256903e+00  -5.8009232424336004e+00  -4.9273466324727808e+00  -4.0256237768931058e+00  -3.1034272852405547e+00  -2.1660377949309448e+00  -1.2176137934489093e+00  -2.6176334414934993e-01  6.9818475865410146e-01  1.6590534302973301e+00  2.6177563391183840e+00  3.5712603554566580e+00  4.5165383272449651e+00  5.4504684893042219e+00  6.3695808021166052e+00  7.2693242902420518e+00  8.1412843912213688e+00  8.9584429128612140e+00  9.6948348674504334e+00  </DataArray> 
</PointData> 
</Piece>
</UnstructuredGrid>
</VTKFile>