<?xml version="1.0"?>
<VTKFile type="UnstructuredGrid"  version="0.1"  >
<UnstructuredGrid>
<Piece  NumberOfPoints="651" NumberOfCells="1200">
<Points>
<DataArray  type="Float64"  NumberOfComponents="3"  format="ascii">0 0 0  50000 0 0  100000 0 0  150000 0 0  200000 0 0  250000 0 0  300000 0 0  350000 0 0  400000 0 0  450000 0 0  500000 0 0  550000 0 0  600000 0 0  650000 0 0  700000 0 0  750000 0 0  800000 0 0  850000 0 0  900000 0 0  950000 0 0  1000000 0 0  0 50000 0  50000 50000 0  100000 50000 0  150000 50000 0  200000 50000 0  250000 50000 0  300000 50000 0  350000 50000 0  400000 50000 0  450000 50000 0  500000 50000 0  550000 50000 0  600000 50000 0  650000 50000 0  700000 50000 0  750000 50000 0  800000 50000 0  850000 50000 0  900000 50000 0  950000 50000 0  1000000 50000 0  0 100000 0  50000 100000 0  100000 100000 0  150000 100000 0  200000 100000 0  250000 100000 0  300000 100000 0  350000 100000 0  400000 100000 0  450000 100000 0  500000 100000 0  550000 100000 0  600000 100000 0  650000 100000 0  700000 100000 0  750000 100000 0  800000 100000 0  850000 100000 0  900000 100000 0  950000 100000 0  1000000 100000 0  0 150000 0  50000 150000 0  100000 150000 0  150000 150000 0  200000 150000 0  250000 150000 0  300000 150000 0  350000 150000 0  400000 150000 0  450000 150000 0  500000 150000 0  550000 150000 0  600000 150000 0  650000 150000 0  700000 150000 0  750000 150000 0  800000 150000 0  850000 150000 0  900000 150000 0  950000 150000 0  1000000 150000 0  0 200000 0  50000 200000 0  100000 200000 0  150000 200000 0  200000 200000 0  250000 200000 0  300000 200000 0  350000 200000 0  400000 200000 0  450000 200000 0  500000 200000 0  550000 200000 0  600000 200000 0  650000 200000 0  700000 200000 0  750000 200000 0  800000 200000 0  850000 200000 0  900000 200000 0  950000 200000 0  1000000 200000 0  0 250000 0  50000 250000 0  100000 250000 0  150000 250000 0  200000 250000 0  250000 250000 0  300000 250000 0  350000 250000 0  400000 250000 0  450000 250000 0  500000 250000 0  550000 250000 0  600000 250000 0  650000 250000 0  700000 250000 0  750000 250000 0  800000 250000 0  850000 250000 0  900000 250000 0  950000 250000 0  1000000 250000 0  0 300000 0  50000 300000 0  100000 300000 0  150000 300000 0  200000 300000 0  250000 300000 0  300000 300000 0  350000 300000 0  400000 300000 0  450000 300000 0  500000 300000 0  550000 300000 0  600000 300000 0  650000 300000 0  700000 300000 0  750000 300000 0  800000 300000 0  850000 300000 0  900000 300000 0  950000 300000 0  1000000 300000 0  0 350000 0  50000 350000 0  100000 350000 0  150000 350000 0  200000 350000 0  250000 350000 0  300000 350000 0  350000 350000 0  400000 350000 0  450000 350000 0  500000 350000 0  550000 350000 0  600000 350000 0  650000 350000 0  700000 350000 0  750000 350000 0  800000 350000 0  850000 350000 0  900000 350000 0  950000 350000 0  1000000 350000 0  0 400000 0  50000 400000 0  100000 400000 0  150000 400000 0  200000 400000 0  250000 400000 0  300000 400000 0  350000 400000 0  400000 400000 0  450000 400000 0  500000 400000 0  550000 400000 0  600000 400000 0  650000 400000 0  700000 400000 0  750000 400000 0  800000 400000 0  850000 400000 0  900000 400000 0  950000 400000 0  1000000 400000 0  0 450000 0  50000 450000 0  100000 450000 0  150000 450000 0  200000 450000 0  250000 450000 0  300000 450000 0  350000 450000 0  400000 450000 0  450000 450000 0  500000 450000 0  550000 450000 0  600000 450000 0  650000 450000 0  700000 450000 0  750000 450000 0  800000 450000 0  850000 450000 0  900000 450000 0  950000 450000 0  1000000 450000 0  0 500000 0  50000 500000 0  100000 500000 0  150000 500000 0  200000 500000 0  250000 500000 0  300000 500000 0  350000 500000 0  400000 500000 0  450000 500000 0  500000 500000 0  550000 500000 0  600000 500000 0  650000 500000 0  700000 500000 0  750000 500000 0  800000 500000 0  850000 500000 0  900000 500000 0  950000 500000 0  1000000 500000 0  0 550000 0  50000 550000 0  100000 550000 0  150000 550000 0  200000 550000 0  250000 550000 0  300000 550000 0  350000 550000 0  400000 550000 0  450000 550000 0  500000 550000 0  550000 550000 0  600000 550000 0  650000 550000 0  700000 550000 0  750000 550000 0  800000 550000 0  850000 550000 0  900000 550000 0  950000 550000 0  1000000 550000 0  0 600000 0  50000 600000 0  100000 600000 0  150000 600000 0  200000 600000 0  250000 600000 0  300000 600000 0  350000 600000 0  400000 600000 0  450000 600000 0  500000 600000 0  550000 600000 0  600000 600000 0  650000 600000 0  700000 600000 0  750000 600000 0  800000 600000 0  850000 600000 0  900000 600000 0  950000 600000 0  1000000 600000 0  0 650000 0  50000 650000 0  100000 650000 0  150000 650000 0  200000 650000 0  250000 650000 0  300000 650000 0  350000 650000 0  400000 650000 0  450000 650000 0  500000 650000 0  550000 650000 0  600000 650000 0  650000 650000 0  700000 650000 0  750000 650000 0  800000 650000 0  850000 650000 0  900000 650000 0  950000 650000 0  1000000 650000 0  0 700000 0  50000 700000 0  100000 700000 0  150000 700000 0  200000 700000 0  250000 700000 0  300000 700000 0  350000 700000 0  400000 700000 0  450000 700000 0  500000 700000 0  550000 700000 0  600000 700000 0  650000 700000 0  700000 700000 0  750000 700000 0  800000 700000 0  850000 700000 0  900000 700000 0  950000 700000 0  1000000 700000 0  0 750000 0  50000 750000 0  100000 750000 0  150000 750000 0  200000 750000 0  250000 750000 0  300000 750000 0  350000 750000 0  400000 750000 0  450000 750000 0  500000 750000 0  550000 750000 0  600000 750000 0  650000 750000 0  700000 750000 0  750000 750000 0  800000 750000 0  850000 750000 0  900000 750000 0  950000 750000 0  1000000 750000 0  0 800000 0  50000 800000 0  100000 800000 0  150000 800000 0  200000 800000 0  250000 800000 0  300000 800000 0  350000 800000 0  400000 800000 0  450000 800000 0  500000 800000 0  550000 800000 0  600000 800000 0  650000 800000 0  700000 800000 0  750000 800000 0  800000 800000 0  850000 800000 0  900000 800000 0  950000 800000 0  1000000 800000 0  0 850000 0  50000 850000 0  100000 850000 0  150000 850000 0  200000 850000 0  250000 850000 0  300000 850000 0  350000 850000 0  400000 850000 0  450000 850000 0  500000 850000 0  550000 850000 0  600000 850000 0  650000 850000 0  700000 850000 0  750000 850000 0  800000 850000 0  850000 850000 0  900000 850000 0  950000 850000 0  1000000 850000 0  0 900000 0  50000 900000 0  100000 900000 0  150000 900000 0  200000 900000 0  250000 900000 0  300000 900000 0  350000 900000 0  400000 900000 0  450000 900000 0  500000 900000 0  550000 900000 0  600000 900000 0  650000 900000 0  700000 900000 0  750000 900000 0  800000 900000 0  850000 900000 0  900000 900000 0  950000 900000 0  1000000 900000 0  0 950000 0  50000 950000 0  100000 950000 0  150000 950000 0  200000 950000 0  250000 950000 0  300000 950000 0  350000 950000 0  400000 950000 0  450000 950000 0  500000 950000 0  550000 950000 0  600000 950000 0  650000 950000 0  700000 950000 0  750000 950000 0  800000 950000 0  850000 950000 0  900000 950000 0  950000 950000 0  1000000 950000 0  0 1000000 0  50000 1000000 0  100000 1000000 0  150000 1000000 0  200000 1000000 0  250000 1000000 0  300000 1000000 0  350000 1000000 0  400000 1000000 0  450000 1000000 0  500000 1000000 0  550000 1000000 0  600000 1000000 0  650000 1000000 0  700000 1000000 0  750000 1000000 0  800000 1000000 0  850000 1000000 0  900000 1000000 0  950000 1000000 0  1000000 1000000 0  0 1050000 0  50000 1050000 0  100000 1050000 0  150000 1050000 0  200000 1050000 0  250000 1050000 0  300000 1050000 0  350000 1050000 0  400000 1050000 0  450000 1050000 0  500000 1050000 0  550000 1050000 0  600000 1050000 0  650000 1050000 0  700000 1050000 0  750000 1050000 0  800000 1050000 0  850000 1050000 0  900000 1050000 0  950000 1050000 0  1000000 1050000 0  0 1100000 0  50000 1100000 0  100000 1100000 0  150000 1100000 0  200000 1100000 0  250000 1100000 0  300000 1100000 0  350000 1100000 0  400000 1100000 0  450000 1100000 0  500000 1100000 0  550000 1100000 0  600000 1100000 0  650000 1100000 0  700000 1100000 0  750000 1100000 0  800000 1100000 0  850000 1100000 0  900000 1100000 0  950000 1100000 0  1000000 1100000 0  0 1150000 0  50000 1150000 0  100000 1150000 0  150000 1150000 0  200000 1150000 0  250000 1150000 0  300000 1150000 0  350000 1150000 0  400000 1150000 0  450000 1150000 0  500000 1150000 0  550000 1150000 0  600000 1150000 0  650000 1150000 0  700000 1150000 0  750000 1150000 0  800000 1150000 0  850000 1150000 0  900000 1150000 0  950000 1150000 0  1000000 1150000 0  0 1200000 0  50000 1200000 0  100000 1200000 0  150000 1200000 0  200000 1200000 0  250000 1200000 0  300000 1200000 0  350000 1200000 0  400000 1200000 0  450000 1200000 0  500000 1200000 0  550000 1200000 0  600000 1200000 0  650000 1200000 0  700000 1200000 0  750000 1200000 0  800000 1200000 0  850000 1200000 0  900000 1200000 0  950000 1200000 0  1000000 1200000 0  0 1250000 0  50000 1250000 0  100000 1250000 0  150000 1250000 0  200000 1250000 0  250000 1250000 0  300000 1250000 0  350000 1250000 0  400000 1250000 0  450000 1250000 0  500000 1250000 0  550000 1250000 0  600000 1250000 0  650000 1250000 0  700000 1250000 0  750000 1250000 0  800000 1250000 0  850000 1250000 0  900000 1250000 0  950000 1250000 0  1000000 1250000 0  0 1300000 0  50000 1300000 0  100000 1300000 0  150000 1300000 0  200000 1300000 0  250000 1300000 0  300000 1300000 0  350000 1300000 0  400000 1300000 0  450000 1300000 0  500000 1300000 0  550000 1300000 0  600000 1300000 0  650000 1300000 0  700000 1300000 0  750000 1300000 0  800000 1300000 0  850000 1300000 0  900000 1300000 0  950000 1300000 0  1000000 1300000 0  0 1350000 0  50000 1350000 0  100000 1350000 0  150000 1350000 0  200000 1350000 0  250000 1350000 0  300000 1350000 0  350000 1350000 0  400000 1350000 0  450000 1350000 0  500000 1350000 0  550000 1350000 0  600000 1350000 0  650000 1350000 0  700000 135
[...]
<PointData  Vectors="f_7489"> 
<DataArray  type="Float64"  Name="f_7489"  NumberOfComponents="3" format="ascii">-2.4521379171919832e-08 -9.7413749236716308e-09 0.0000000000000000e+00  4.8522823160407212e-08 -5.8567601906261672e-09 0.0000000000000000e+00  4.2752529462650763e-08 -1.5988714617136734e-09 0.0000000000000000e+00  4.0259437285105851e-08 -2.5640094338331435e-10 0.0000000000000000e+00  3.9022474319114285e-08 2.0939829483157791e-10 0.0000000000000000e+00  3.8210399150591454e-08 4.1084906936914189e-10 0.0000000000000000e+00  3.7627653387251760e-08 5.1189238508413146e-10 0.0000000000000000e+00  3.7218336604239732e-08 5.6723610254660724e-10 0.0000000000000000e+00  3.6965469884475901e-08 5.9877571059054998e-10 0.0000000000000000e+00  3.6865218313435400e-08 6.1674642210947128e-10 0.0000000000000000e+00  3.6918897641654766e-08 6.2690485568183432e-10 0.0000000000000000e+00  3.7130827945087272e-08 6.3387237470363859e-10 0.0000000000000000e+00  3.7509441594671849e-08 6.4393288774754482e-10 0.0000000000000000e+00  3.8072843739548211e-08 6.6921657957401404e-10 0.0000000000000000e+00  3.8864627322395200e-08 7.3609146048840360e-10 0.0000000000000000e+00  3.9996761898509460e-08 9.0472235121928995e-10 0.0000000000000000e+00  4.1763464196662003e-08 1.3191586883645570e-09 0.0000000000000000e+00  4.4907667125337123e-08 2.3346502078547971e-09 0.0000000000000000e+00  5.0762163519111273e-08 4.7832402332154517e-09 0.0000000000000000e+00  5.8007564808586736e-08 9.2463320134339430e-09 0.0000000000000000e+00  -1.6451319718305196e-08 7.1374342181627471e-09 0.0000000000000000e+00  -1.8314873904590439e-08 -1.5263256820354193e-08 0.0000000000000000e+00  7.0679049097647648e-09 -1.1041678269430166e-08 0.0000000000000000e+00  1.7824546154655216e-08 -5.1283469390520084e-09 0.0000000000000000e+00  2.2889777145858571e-08 -2.2796422085973543e-09 0.0000000000000000e+00  2.5495901258894906e-08 -1.0312767778616857e-09 0.0000000000000000e+00  2.6970699089629136e-08 -4.4722688685610333e-10 0.0000000000000000e+00  2.7834147491136252e-08 -1.5929463300211446e-10 0.0000000000000000e+00  2.8349638909823899e-08 -1.7305706033890413e-11 0.0000000000000000e+00  2.8661926860398824e-08 4.7701301914881101e-11 0.0000000000000000e+00  2.8851441753406319e-08 7.3005474569200066e-11 0.0000000000000000e+00  2.8959468893215607e-08 8.3300259045931491e-11 0.0000000000000000e+00  2.8999492839454833e-08 9.9615979002237200e-11 0.0000000000000000e+00  2.8960981637806364e-08 1.4528053863427310e-10 0.0000000000000000e+00  2.8807739514716116e-08 2.5263063089778803e-10 0.0000000000000000e+00  2.8470015674025900e-08 4.7466632596163287e-10 0.0000000000000000e+00  2.7824569213284459e-08 9.1037509232455305e-10 0.0000000000000000e+00  2.6640881987255786e-08 1.7643550794869428e-09 0.0000000000000000e+00  2.4406287979216560e-08 3.4804791353092236e-09 0.0000000000000000e+00  1.9683019387304066e-08 6.9408067700357855e-09 0.0000000000000000e+00  8.2352069200411738e-09 1.3091263075234752e-08 0.0000000000000000e+00  -1.8421470276319886e-08 1.1065598440226929e-08 0.0000000000000000e+00  -1.1389948101383942e-08 -1.8837427265720299e-08 0.0000000000000000e+00  -3.9385708165237479e-10 -1.8198116340703918e-08 0.0000000000000000e+00  5.5777246235819989e-09 -1.1288569769692610e-08 0.0000000000000000e+00  1.0406088378149793e-08 -6.5409866494200202e-09 0.0000000000000000e+00  1.4216529897816710e-08 -3.7895239988723626e-09 0.0000000000000000e+00  1.6880014280482822e-08 -2.2292332396201290e-09 0.0000000000000000e+00  1.8673670426827796e-08 -1.3229797452543921e-09 0.0000000000000000e+00  1.9860567163380641e-08 -7.7996224457923663e-10 0.0000000000000000e+00  2.0619391305068494e-08 -4.4054416156725190e-10 0.0000000000000000e+00  2.1059808193969956e-08 -2.0941652831069777e-10 0.0000000000000000e+00  2.1240540494387238e-08 -2.0954339073094678e-11 0.0000000000000000e+00  2.1180317590475161e-08 1.7986884988732088e-10 0.0000000000000000e+00  2.0861926460477221e-08 4.5072260304525258e-10 0.0000000000000000e+00  2.0230050553304178e-08 8.6541653735735160e-10 0.0000000000000000e+00  1.9182343403941588e-08 1.5334263339339624e-09 0.0000000000000000e+00  1.7551814144282240e-08 2.6330004789706196e-09 0.0000000000000000e+00  1.5079044935569459e-08 4.4642068549887785e-09 0.0000000000000000e+00  1.1384125272309848e-08 7.4952421155505816e-09 0.0000000000000000e+00  6.0044502139992385e-09 1.2180163554965018e-08 0.0000000000000000e+00  -1.3355220591307041e-09 1.7635049274092521e-08 0.0000000000000000e+00  -1.3305368980613624e-08 1.4814362206327411e-08 0.0000000000000000e+00  -7.7310754493425849e-09 -1.9444084174674872e-08 0.0000000000000000e+00  -1.6363259000483043e-09 -1.9510110315905116e-08 0.0000000000000000e+00  9.6015056090258252e-10 -1.5187487678804381e-08 0.0000000000000000e+00  3.6612764503501113e-09 -1.0404670113986895e-08 0.0000000000000000e+00  6.5264580035386642e-09 -6.8664187799790788e-09 0.0000000000000000e+00  9.0470452900087760e-09 -4.4801318170966752e-09 0.0000000000000000e+00  1.1009373680674799e-08 -2.8998788656869718e-09 0.0000000000000000e+00  1.2429075742192745e-08 -1.8375723214739559e-09 0.0000000000000000e+00  1.3385894750437481e-08 -1.0930504517562306e-09 0.0000000000000000e+00  1.3951643335335442e-08 -5.2747436975068618e-10 0.0000000000000000e+00  1.4171339825232652e-08 -3.6540991934607949e-11 0.0000000000000000e+00  1.4060147178033157e-08 4.6960797199321292e-10 0.0000000000000000e+00  1.3603560820158017e-08 1.0822945275819407e-09 0.0000000000000000e+00  1.2757843120897673e-08 1.9094796756579781e-09 0.0000000000000000e+00  1.1451845700333530e-08 3.0926527729138113e-09 0.0000000000000000e+00  9.5962886555355147e-09 4.8237560562215396e-09 0.0000000000000000e+00  7.1171183806852763e-09 7.3443783532512699e-09 0.0000000000000000e+00  4.0466464181807652e-09 1.0856868858793088e-08 0.0000000000000000e+00  6.7774589635752506e-10 1.5155879464739990e-08 0.0000000000000000e+00  -2.6590834602540532e-09 1.8784107943948511e-08 0.0000000000000000e+00  -9.0823462679341064e-09 1.7662054466225357e-08 0.0000000000000000e+00  -5.8911309576666648e-09 -1.8836169229549196e-08 0.0000000000000000e+00  -1.9542314597007683e-09 -1.9164832059307417e-08 0.0000000000000000e+00  -1.0275360324605902e-09 -1.6515943565882872e-08 0.0000000000000000e+00  5.0852916150021916e-11 -1.2735765107080661e-08 0.0000000000000000e+00  1.6520609809532675e-09 -9.2578602854436125e-09 0.0000000000000000e+00  3.4150651853181728e-09 -6.5191786619372008e-09 0.0000000000000000e+00  5.0096774081854216e-09 -4.4782634883587746e-09 0.0000000000000000e+00  6.2837336847631723e-09 -2.9676913036173643e-09 0.0000000000000000e+00  7.1978370566754091e-09 -1.8184938729448956e-09 0.0000000000000000e+00  7.7573393125770498e-09 -8.8695045659252129e-10 0.0000000000000000e+00  7.9752326503118678e-09 -5.1278791254166452e-11 0.0000000000000000e+00  7.8568094197566209e-09 7.9887978671269794e-10 0.0000000000000000e+00  7.3954457103972947e-09 1.7736078628398761e-09 0.0000000000000000e+00  6.5753086945827893e-09 2.9925789427385641e-09 0.0000000000000000e+00  5.3821084028057442e-09 4.5909944737313794e-09 0.0000000000000000e+00  3.8277862650331740e-09 6.7130051558729520e-09 0.0000000000000000e+00  1.9982929853764330e-09 9.4693150420025802e-09 0.0000000000000000e+00  1.2108557976453645e-10 1.2811131957058648e-08 0.0000000000000000e+00  -1.4428858407624077e-09 1.6273430244484160e-08 0.0000000000000000e+00  -2.7540551325454812e-09 1.8724920386234224e-08 0.0000000000000000e+00  -6.8892761024657750e-09 1.8668990030557359e-08 0.0000000000000000e+00  -4.8527341634925021e-09 -1.7688242464620118e-08 0.0000000000000000e+00  -2.1184295960524947e-09 -1.8190011214040653e-08 0.0000000000000000e+00  -2.0667436290649998e-09 -1.6472389907403866e-08 0.0000000000000000e+00  -2.0195339931696901e-09 -1.3655100733267859e-08 0.0000000000000000e+00  -1.4524277988708828e-09 -1.0643371375673148e-08 0.0000000000000000e+00  -5.2452083172323656e-10 -7.9510715133225536e-09 0.0000000000000000e+00  4.9529051619586418e-10 -5.7260566622853933e-09 0.0000000000000000e+00  1.4125408347013647e-09 -3.9336692975713170e-09 0.0000000000000000e+00  2.1223518590011263e-09 -2.4723654045863906e-09 0.0000000000000000e+00  2.5778715169361677e-09 -1.2254678780054349e-09 0.0000000000000000e+00  2.7613100667238068e-09 -7.7930301086616766e-11 0.0000000000000000e+00  2.6673116031971966e-09 1.0814866454996175e-09 0.0000000000000000e+00  2.2971396281555973e-09 2.3625640124892847e-09 0.0000000000000000e+00  1.6617392685885182e-09 3.8749335396718306e-09 0.0000000000000000e+00  7.9375390460545739e-10 5.7228126193838271e-09 0.0000000000000000e+00  -2.3042734370860091e-10 7.9841261066299099e-09 0.0000000000000000e+00  -1.2618527646957063e-09 1.0659538597343964e-08 0.0000000000000000e+00  -2.0684450765741924e-09 1.3578254982147131e-08 0.0000000000000000e+00  -2.4384886419934164e-09 1.6284511918912163e-08 0.0000000000000000e+00  -2.7193015011099845e-09 1.8034331642900870e-08 0.0000000000000000e+00  -5.6445692067825421e-09 1.8465885285511653e-08 0.0000000000000000e+00  -4.1955903489437087e-09 -1.6241593115086291e-08 0.0000000000000000e+00  -2.2468111476481758e-09 -1.6871081585217289e-08 0.0000000000000000e+00  -2.7136779242534598e-09 -1.5708543738869538e-08 0.0000000000000000e+00  -3.3140947301582962e-09 -1.3609065166241074e-08 0.0000000000000000e+00  -3.4948621119968634e-09 -1.1132290219076391e-08 0.0000000000000000e+00  -3.2774980418504794e-09 -8.6939646572770084e-09 0.0000000000000000e+00  -2.8359795564151048e-09 -6.5000149061163721e-09 0.0000000000000000e+00  -2.3388451285822295e-09 -4.5998521130350519e-09 0.0000000000000000e+00  -1.9047900979349043e-09 -2.9562176850453339e-09 0.0000000000000000e+00  -1.6045508696725076e-09 -1.4920506251205335e-09 0.0000000000000000e+00  -1.4743273651318341e-09 -1.1501550086302237e-10 0.0000000000000000e+00  -1.5267436047557359e-09 1.2712698035212316e-09 0.0000000000000000e+00  -1.7554760869700597e-09 2.7614851503145237e-09 0.0000000000000000e+00  -2.1332068865090823e-09 4.4424372443904141e-09 0.0000000000000000e+00  -2.6035993380949881e-09 6.3810301658473196e-09 0.0000000000000000e+00  -3.0698133841765862e-09 8.6004595367341879e-09 0.0000000000000000e+00  -3.3881014597951709e-09 1.1039986580712971e-08 0.0000000000000000e+00  -3.3910700260011478e-09 1.3503254578259528e-08 0.0000000000000000e+00  -3.0063950579188878e-09 1.5628168078971003e-08 0.0000000000000000e+00  -2.6985571514647588e-09 1.6942737899656739e-08 0.0000000000000000e+00  -4.8621088320039677e-09 1.7621314847070796e-08 0.0000000000000000e+00  -3.7453319764409124e-09 -1.4596140897881570e-08 0.0000000000000000e+00  -2.3549875262671431e-09 -1.5324246178722897e-08 0.0000000000000000e+00  -3.1641613146015373e-09 -1.4519120563931835e-08 0.0000000000000000e+00  -4.1848198671583691e-09 -1.2938676979577848e-08 0.0000000000000000e+00  -4.8876631514119185e-09 -1.0941173964574458e-08 0.0000000000000000e+00  -5.2184090534294500e-09 -8.8290933390577885e-09 0.0000000000000000e+00  -5.2718623473141627e-09 -6.7962662628620263e-09 0.0000000000000000e+00  -5.1703849040609146e-09 -4.9273715780794956e-09 0.0000000000000000e+00  -5.0173051466489052e-09 -3.2288406932930484e-09 0.0000000000000000e+00  -4.8843793245717593e-09 -1.6603971134393259e-09 0.0000000000000000e+00  -4.8130773822240289e-09 -1.5779452322443446e-10 0.0000000000000000e+00  -4.8188412152344102e-09 1.3524693603191946e-09 0.0000000000000000e+00  -4.8935213467313357e-09 2.9426143213956649e-09 0.0000000000000000e+00  -5.0046757997575600e-09 4.6731142266252208e-09 0.0000000000000000e+00  -5.0926226890926924e-09 6.5786246329917306e-09 0.0000000000000000e+00  -5.0686690763832823e-09 8.6477300282117085e-09 0.0000000000000000e+00  -4.8224303381273658e-09 1.0797359077768104e-08 0.0000000000000000e+00  -4.2552817390923642e-09 1.2850954692235721e-08 0.0000000000000000e+00  -3.3833787358175562e-09 1.4543492983404353e-08 0.0000000000000000e+00  -2.6989349307993507e-09 1.5576557856126334e-08 0.0000000000000000e+00  -4.3269846855695254e-09 1.6402644784205923e-08 0.0000000000000000e+00  -3.4219894962223062e-09 -1.2806010511947961e-08 0.0000000000000000e+00  -2.4451018488761828e-09 -1.3612751475754639e-08 0.0000000000000000e+00  -3.4957022598506579e-09 -1.3053841314961440e-08 0.0000000000000000e+00  -4.7993422561994966e-09 -1.1857404089555365e-08 0.0000000000000000e+00  -5.8641559732401700e-09 -1.0262969058756674e-08 0.0000000000000000e+00  -6.5988777396451082e-09 -8.4838814855675946e-09 0.0000000000000000e+00  -7.0429804165013898e-09 -6.6791752624625523e-09 0.0000000000000000e+00  -7.2745597452149397e-09 -4.9386062522361014e-09 0.0000000000000000e+00  -7.3710229707288742e-09 -3.2917156337940902e-09 0.0000000000000000e+00  -7.3925507906991021e-09 -1.7255039185848776e-09 0.0000000000000000e+00  -7.3768835959885808e-09 -2.0159981043534359e-10 0.0000000000000000e+00  -7.3388117806253182e-09 1.3296231641790145e-09 0.0000000000000000e+00  -7.2707260655597642e-09 2.9171529046398427e-09 0.0000000000000000e+00  -7.1429523183091577e-09 4.5977319017206901e-09 0.0000000000000000e+00  -6.9045789142421139e-09 6.3828095722820591e-09 0.0000000000000000e+00  -6.4875046104031371e-09 8.2436924230841497e-09 0.0000000000000000e+00  -5.8190502296870210e-09 1.0097531210455558e-08 0.0000000000000000e+00  -4.8537502770627612e-09 1.1801632612730085e-08 0.0000000000000000e+00  -3.6566257922309720e-09 1.3169203856623296e-08 0.0000000000000000e+00  -2.7109974307627025e-09 1.4012051747374242e-08 0.0000000000000000e+00  -3.9355304542703047e-09 1.4936424630671088e-08 0.0000000000000000e+00  -3.1848720144119221e-09 -1.0907794233299639e-08 0.0000000000000000e+00  -2.5184901765361887e-09 -1.1778460606517962e-08 0.0000000000000000e+00  -3.7446092833066062e-09 -1.1400117704501395e-08 0.0000000000000000e+00  -5.2436844059702886e-09 -1.0498968098004023e-08 0.0000000000000000e+00  -6.5594525596117590e-09 -9.2422058890486056e-09 0.0000000000000000e+00  -7.5844706244321589e-09 -7.7792926455586518e-09 0.0000000000000000e+00  -8.3223465823168187e-09 -6.2329355113182614e-09 0.0000000000000000e+00  -8.8158320186249331e-09 -4.6838107011352458e-09 0.0000000000000000e+00  -9.1161532820371985e-09 -3.1700726162270506e-09 0.0000000000000000e+00  -9.2674883382798207e-09 -1.6958747586635549e-09 0.0000000000000000e+00  -9.2995066169958820e-09 -2.4291437232356613e-10 0.0000000000000000e+00  -9.2244230403952870e-09 1.2179829238151720e-09 0.0000000000000000e+00  -9.0364052495382595e-09 2.7159291763372077e-09 0.0000000000000000e+00  -8.7124690972466428e-09 4.2693332479452581e-09 0.0000000000000000e+00  -8.2152829479510748e-09 5.8752429921708019e-09 0.0000000000000000e+00  -7.4995294373272380e-09 7.4993752051755569e-09 0.0000000000000000e+00  -6.5248654287212029e-09 9.0694352123780711e-09 0.0000000000000000e+00  -5.2823592369972544e-09 1.0476603249035923e-08 0.0000000000000000e+00  -3.8620756867544332e-09 1.1592086635927637e-08 0.0000000000000000e+00  -2.7262781089591424e-09 1.2299015333508805e-08 0.0000000000000000e+00  -3.6343595781776525e-09 1.3291393070514973e-08 0.0000000000000000e+00  -3.0114884808926017e-09 -8.9294562422427804e-09 0.0000000000000000e+00  -2.5770709863795733e-09 -9.8526564911537685e-09 0.0000000000000000e+00  -3.9313648499294004e-09 -9.6147113075825854e-09 0.0000000000000000e+00  -5.5666521080719595e-09 -8.9508447207974799e-09 0.0000000000000000e+00  -7.0558523656645729e-09 -7.9824253723995124e-09 0.0000000000000000e+00  -8.2855450441843465e-09 -6.8141937466257429e-09 0.0000000000000000e+00  -9.2368949083594358e-09 -5.5377017456019962e-09 0.0000000000000000e+00  -9.9267530913111270e-09 -4.2196310907447536e-09 0.0000000000000000e+00  -1.0384206263241229e-08 -2.8981531941803486e-09 0.0000000000000000e+00  -1.0637777463342020e-08 -1.5863615702159614e-09 0.0000000000000000e+00  -1.0708071004947329e-08 -2.7948417373563353e-10 0.0000000000000000e+00  -1.0604075041430075e-08 1.0364837422302653e-09 0.0000000000000000e+00  -1.0322080051482504e-08 2.3758896391477920e-09 0.0000000000000000e+00  -9.8467523744083116e-09 3.7447491690139806e-09 0.0000000000000000e+00  -9.1545432703014713e-09 5.1327345914477591e-09 0.0000000000000000e+00  -8.2202138469807474e-09 6.5068539457089829e-09 0.0000000000000000e+00  -7.0280560026827508e-09 7.8088119633176056e-09 0.0000000000000000e+00  -5.5929266416622318e-09 8.9588881513354096e-09 0.0000000000000000e+00  -4.0169533086796861e-09 9.8700533572446063e-09 0.0000000000000000e+00  -2.7393974820094122e-09 1.0472762228083239e-08 0.0000000000000000e+00  -3.3949960264315745e-09 1.1511320396450779e-08 0.0000000000000000e+00  -2.8886756875842315e-09 -6.8935508974540029e-09 0.0000000000000000e+00  -2.6231758951663006e-09 -7.8601598280854257e-09 0.0000000000000000e+00  -4.0694780168804394e-09 -7.7373273352758900e-09 0.0000000000000000e+00  -5.7988906157249882e-09 -7.2727667498844719e-09 0.0000000000000000e+00  -7.4064585303224354e-09 -6.5574648394189766e-09 0.0000000000000000e+00  -8.7774228958223762e-09 -5.6646944726847062e-09 0.0000000000000000e+00  -9.8791694262248677e-09 -4.6609637573676195e-09 0.0000000000000000e+00  -1.0710513756160152e-08 -3.5983158658000922e-09 0.0000000000000000e+00  -1.1283536092362127e-08 -2.5103746972410947e-09 0.0000000000000000e+00  -1.1613620115228759e-08 -1.4132987442465933e-09 0.0000000000000000e+00  -1.1713170237042935e-08 -3.1005118203510751e-10 0.0000000000000000e+00  -1.1588077625287461e-08 8.0360377529174336e-10 0.0000000000000000e+00  -1.1236559555660777e-08 1.9324874609429822e-09 0.0000000000000000e+00  -1.0650188750717425e-08 3.0755232508398273e-09 0.0000000000000000e+00  -9.8171408769522266e-09 4.2200889313833492e-09 0.0000000000000000e+00  -8.7279087775641448e-09 5.3381753710835608e-09 0.0000000000000000e+00  -7.3843147579719932e-09 6.3857085489377684e-09 0.0000000000000000e+00  -5.8162535021069956e-09 7.3065919257921378e-09 0.0000000000000000e+00  -4.1312384786527446e-09 8.0437874554782667e-09 0.0000000000000000e+00  -2.7476466420685261e-09 8.5600924405667834e-09 0.0000000000000000e+00  -3.2021275940082643e-09 9.6278589281084822e-09 0.0000000000000000e+00  -2.8084485871421409e-09 -4.8187050661353228e-09 0.0000000000000000e+00  -2.6592151295750974e-09 -5.8211855061294671e-09 0.0000000000000000e+00  -4.1687271696168321e-09 -5.7971687245236666e-09 0.0000000000000000e+00  -5.9611328337047046e-09 -5.5070191451001721e-09 0.0000000000000000e+00  -7.6470971613674329e-09 -5.0204429354110869e-09 0.0000000000000000e+00  -9.1124020781006083e-09 -4.3880182469816347e-09 0.0000000000000000e+00  -1.0316140141031539e-08 -3.6563623817037053e-09 0.0000000000000000e+00  -1.1245093295968092e-08 -2.8638074066606004e-09 0.0000000000000000e+00  -1.1899168961504447e-08 -2.0372110418169125e-09 0.0000000000000000e+00  -1.2283768988657008e-08 -1.1918891157576819e-09 0.0000000000000000e+00  -1.2404753352670342e-08 -3.3401548987524929e-10 0.0000000000000000e+00  -1.2265419065852364e-08 5.3548301605551926e-10 0.0000000000000000e+00  -1.1865452562301516e-08 1.4163930108551288e-09 0.0000000000000000e+00  -1.1201828264247704e-08 2.3047460438469239e-09 0.0000000000000000e+00  -1.0271602901556008e-08 3.1890846834038003e-09 0.0000000000000000e+00  -9.0765874056514071e-09 4.0482206171138409e-09 0.0000000000000000e+00  -7.6304172406860317e-09 4.8513440505990529e-09 0.0000000000000000e+00  -5.9722617176678942e-09 5.5613296700325188e-09 0.0000000000000000e+00  -4.2117983368345621e-09 6.1430624253759772e-09 0.0000000000000000e+00  -2.7501576562523497e-09 6.5822927250722468e-09 0.0000000000000000e+00  -3.0476173291978736e-09 7.6657277950593427e-09 0.0000000000000000e+00  -2.7658699784140623e-09 -2.7205955957520224e-09 0.0000000000000000e+00  -2.6873785702420772e-09 -3.7524630000758638e-09 0.0000000000000000e+00  -4.2363511238849941e-09 -3.8165370224096827e-09 0.0000000000000000e+00  -6.0678060629059295e-09 -3.6845558988191040e-09 0.0000000000000000e+00  -7.8022679654110741e-09 -3.4102547639649480e-09 0.0000000000000000e+00  -9.3266138160018229e-09 -3.0270966236176445e-09 0.0000000000000000e+00  -1.0595161968469113e-08 -2.565567814