<?xml version="1.0"?>
<VTKFile type="UnstructuredGrid"  version="0.1"  >
<UnstructuredGrid>
<Piece  NumberOfPoints="651" NumberOfCells="1200">
<Points>
<DataArray  type="Float64"  NumberOfComponents="3"  format="ascii">0 0 0  50000 0 0  100000 0 0  150000 0 0  200000 0 0  250000 0 0  300000 0 0  350000 0 0  400000 0 0  450000 0 0  500000 0 0  550000 0 0  600000 0 0  650000 0 0  700000 0 0  750000 0 0  800000 0 0  850000 0 0  900000 0 0  950000 0 0  1000000 0 0  0 50000 0  50000 50000 0  100000 50000 0  150000 50000 0  200000 50000 0  250000 50000 0  300000 50000 0  350000 50000 0  400000 50000 0  450000 50000 0  500000 50000 0  550000 50000 0  600000 50000 0  650000 50000 0  700000 50000 0  750000 50000 0  800000 50000 0  850000 50000 0  900000 50000 0  950000 50000 0  1000000 50000 0  0 100000 0  50000 100000 0  100000 100000 0  150000 100000 0  200000 100000 0  250000 100000 0  300000 100000 0  350000 100000 0  400000 100000 0  450000 100000 0  500000 100000 0  550000 100000 0  600000 100000 0  650000 100000 0  700000 100000 0  750000 100000 0  800000 100000 0  850000 100000 0  900000 100000 0  950000 100000 0  1000000 100000 0  0 150000 0  50000 150000 0  100000 150000 0  150000 150000 0  200000 150000 0  250000 150000 0  300000 150000 0  350000 150000 0  400000 150000 0  450000 150000 0  500000 150000 0  550000 150000 0  600000 150000 0  650000 150000 0  700000 150000 0  750000 150000 0  800000 150000 0  850000 150000 0  900000 150000 0  950000 150000 0  1000000 150000 0  0 200000 0  50000 200000 0  100000 200000 0  150000 200000 0  200000 200000 0  250000 200000 0  300000 200000 0  350000 200000 0  400000 200000 0  450000 200000 0  500000 200000 0  550000 200000 0  600000 200000 0  650000 200000 0  700000 200000 0  750000 200000 0  800000 200000 0  850000 200000 0  900000 200000 0  950000 200000 0  1000000 200000 0  0 250000 0  50000 250000 0  100000 250000 0  150000 250000 0  200000 250000 0  250000 250000 0  300000 250000 0  350000 250000 0  400000 250000 0  450000 250000 0  500000 250000 0  550000 250000 0  600000 250000 0  650000 250000 0  700000 250000 0  750000 250000 0  800000 250000 0  850000 250000 0  900000 250000 0  950000 250000 0  1000000 250000 0  0 300000 0  50000 300000 0  100000 300000 0  150000 300000 0  200000 300000 0  250000 300000 0  300000 300000 0  350000 300000 0  400000 300000 0  450000 300000 0  500000 300000 0  550000 300000 0  600000 300000 0  650000 300000 0  700000 300000 0  750000 300000 0  800000 300000 0  850000 300000 0  900000 300000 0  950000 300000 0  1000000 300000 0  0 350000 0  50000 350000 0  100000 350000 0  150000 350000 0  200000 350000 0  250000 350000 0  300000 350000 0  350000 350000 0  400000 350000 0  450000 350000 0  500000 350000 0  550000 350000 0  600000 350000 0  650000 350000 0  700000 350000 0  750000 350000 0  800000 350000 0  850000 350000 0  900000 350000 0  950000 350000 0  1000000 350000 0  0 400000 0  50000 400000 0  100000 400000 0  150000 400000 0  200000 400000 0  250000 400000 0  300000 400000 0  350000 400000 0  400000 400000 0  450000 400000 0  500000 400000 0  550000 400000 0  600000 400000 0  650000 400000 0  700000 400000 0  750000 400000 0  800000 400000 0  850000 400000 0  900000 400000 0  950000 400000 0  1000000 400000 0  0 450000 0  50000 450000 0  100000 450000 0  150000 450000 0  200000 450000 0  250000 450000 0  300000 450000 0  350000 450000 0  400000 450000 0  450000 450000 0  500000 450000 0  550000 450000 0  600000 450000 0  650000 450000 0  700000 450000 0  750000 450000 0  800000 450000 0  850000 450000 0  900000 450000 0  950000 450000 0  1000000 450000 0  0 500000 0  50000 500000 0  100000 500000 0  150000 500000 0  200000 500000 0  250000 500000 0  300000 500000 0  350000 500000 0  400000 500000 0  450000 500000 0  500000 500000 0  550000 500000 0  600000 500000 0  650000 500000 0  700000 500000 0  750000 500000 0  800000 500000 0  850000 500000 0  900000 500000 0  950000 500000 0  1000000 500000 0  0 550000 0  50000 550000 0  100000 550000 0  150000 550000 0  200000 550000 0  250000 550000 0  300000 550000 0  350000 550000 0  400000 550000 0  450000 550000 0  500000 550000 0  550000 550000 0  600000 550000 0  650000 550000 0  700000 550000 0  750000 550000 0  800000 550000 0  850000 550000 0  900000 550000 0  950000 550000 0  1000000 550000 0  0 600000 0  50000 600000 0  100000 600000 0  150000 600000 0  200000 600000 0  250000 600000 0  300000 600000 0  350000 600000 0  400000 600000 0  450000 600000 0  500000 600000 0  550000 600000 0  600000 600000 0  650000 600000 0  700000 600000 0  750000 600000 0  800000 600000 0  850000 600000 0  900000 600000 0  950000 600000 0  1000000 600000 0  0 650000 0  50000 650000 0  100000 650000 0  150000 650000 0  200000 650000 0  250000 650000 0  300000 650000 0  350000 650000 0  400000 650000 0  450000 650000 0  500000 650000 0  550000 650000 0  600000 650000 0  650000 650000 0  700000 650000 0  750000 650000 0  800000 650000 0  850000 650000 0  900000 650000 0  950000 650000 0  1000000 650000 0  0 700000 0  50000 700000 0  100000 700000 0  150000 700000 0  200000 700000 0  250000 700000 0  300000 700000 0  350000 700000 0  400000 700000 0  450000 700000 0  500000 700000 0  550000 700000 0  600000 700000 0  650000 700000 0  700000 700000 0  750000 700000 0  800000 700000 0  850000 700000 0  900000 700000 0  950000 700000 0  1000000 700000 0  0 750000 0  50000 750000 0  100000 750000 0  150000 750000 0  200000 750000 0  250000 750000 0  300000 750000 0  350000 750000 0  400000 750000 0  450000 750000 0  500000 750000 0  550000 750000 0  600000 750000 0  650000 750000 0  700000 750000 0  750000 750000 0  800000 750000 0  850000 750000 0  900000 750000 0  950000 750000 0  1000000 750000 0  0 800000 0  50000 800000 0  100000 800000 0  150000 800000 0  200000 800000 0  250000 800000 0  300000 800000 0  350000 800000 0  400000 800000 0  450000 800000 0  500000 800000 0  550000 800000 0  600000 800000 0  650000 800000 0  700000 800000 0  750000 800000 0  800000 800000 0  850000 800000 0  900000 800000 0  950000 800000 0  1000000 800000 0  0 850000 0  50000 850000 0  100000 850000 0  150000 850000 0  200000 850000 0  250000 850000 0  300000 850000 0  350000 850000 0  400000 850000 0  450000 850000 0  500000 850000 0  550000 850000 0  600000 850000 0  650000 850000 0  700000 850000 0  750000 850000 0  800000 850000 0  850000 850000 0  900000 850000 0  950000 850000 0  1000000 850000 0  0 900000 0  50000 900000 0  100000 900000 0  150000 900000 0  200000 900000 0  250000 900000 0  300000 900000 0  350000 900000 0  400000 900000 0  450000 900000 0  500000 900000 0  550000 900000 0  600000 900000 0  650000 900000 0  700000 900000 0  750000 900000 0  800000 900000 0  850000 900000 0  900000 900000 0  950000 900000 0  1000000 900000 0  0 950000 0  50000 950000 0  100000 950000 0  150000 950000 0  200000 950000 0  250000 950000 0  300000 950000 0  350000 950000 0  400000 950000 0  450000 950000 0  500000 950000 0  550000 950000 0  600000 950000 0  650000 950000 0  700000 950000 0  750000 950000 0  800000 950000 0  850000 950000 0  900000 950000 0  950000 950000 0  1000000 950000 0  0 1000000 0  50000 1000000 0  100000 1000000 0  150000 1000000 0  200000 1000000 0  250000 1000000 0  300000 1000000 0  350000 1000000 0  400000 1000000 0  450000 1000000 0  500000 1000000 0  550000 1000000 0  600000 1000000 0  650000 1000000 0  700000 1000000 0  750000 1000000 0  800000 1000000 0  850000 1000000 0  900000 1000000 0  950000 1000000 0  1000000 1000000 0  0 1050000 0  50000 1050000 0  100000 1050000 0  150000 1050000 0  200000 1050000 0  250000 1050000 0  300000 1050000 0  350000 1050000 0  400000 1050000 0  450000 1050000 0  500000 1050000 0  550000 1050000 0  600000 1050000 0  650000 1050000 0  700000 1050000 0  750000 1050000 0  800000 1050000 0  850000 1050000 0  900000 1050000 0  950000 1050000 0  1000000 1050000 0  0 1100000 0  50000 1100000 0  100000 1100000 0  150000 1100000 0  200000 1100000 0  250000 1100000 0  300000 1100000 0  350000 1100000 0  400000 1100000 0  450000 1100000 0  500000 1100000 0  550000 1100000 0  600000 1100000 0  650000 1100000 0  700000 1100000 0  750000 1100000 0  800000 1100000 0  850000 1100000 0  900000 1100000 0  950000 1100000 0  1000000 1100000 0  0 1150000 0  50000 1150000 0  100000 1150000 0  150000 1150000 0  200000 1150000 0  250000 1150000 0  300000 1150000 0  350000 1150000 0  400000 1150000 0  450000 1150000 0  500000 1150000 0  550000 1150000 0  600000 1150000 0  650000 1150000 0  700000 1150000 0  750000 1150000 0  800000 1150000 0  850000 1150000 0  900000 1150000 0  950000 1150000 0  1000000 1150000 0  0 1200000 0  50000 1200000 0  100000 1200000 0  150000 1200000 0  200000 1200000 0  250000 1200000 0  300000 1200000 0  350000 1200000 0  400000 1200000 0  450000 1200000 0  500000 1200000 0  550000 1200000 0  600000 1200000 0  650000 1200000 0  700000 1200000 0  750000 1200000 0  800000 1200000 0  850000 1200000 0  900000 1200000 0  950000 1200000 0  1000000 1200000 0  0 1250000 0  50000 1250000 0  100000 1250000 0  150000 1250000 0  200000 1250000 0  250000 1250000 0  300000 1250000 0  350000 1250000 0  400000 1250000 0  450000 1250000 0  500000 1250000 0  550000 1250000 0  600000 1250000 0  650000 1250000 0  700000 1250000 0  750000 1250000 0  800000 1250000 0  850000 1250000 0  900000 1250000 0  950000 1250000 0  1000000 1250000 0  0 1300000 0  50000 1300000 0  100000 1300000 0  150000 1300000 0  200000 1300000 0  250000 1300000 0  300000 1300000 0  350000 1300000 0  400000 1300000 0  450000 1300000 0  500000 1300000 0  550000 1300000 0  600000 1300000 0  650000 1300000 0  700000 1300000 0  750000 1300000 0  800000 1300000 0  850000 1300000 0  900000 1300000 0  950000 1300000 0  1000000 1300000 0  0 1350000 0  50000 1350000 0  100000 1350000 0  150000 1350000 0  200000 1350000 0  250000 1350000 0  300000 1350000 0  350000 1350000 0  400000 1350000 0  450000 1350000 0  500000 1350000 0  550000 1350000 0  600000 1350000 0  650000 1350000 0  700000 135
[...]
<PointData  Vectors="f_7489"> 
<DataArray  type="Float64"  Name="f_7489"  NumberOfComponents="3" format="ascii">-2.4568797943937419e-08 -9.9246692586119932e-09 0.0000000000000000e+00  4.8509161355241207e-08 -6.0190442548571045e-09 0.0000000000000000e+00  4.2812464237110570e-08 -1.7427827343489726e-09 0.0000000000000000e+00  4.0388465436134363e-08 -4.0207305241364425e-10 0.0000000000000000e+00  3.9213258720693706e-08 4.7364193323158743e-11 0.0000000000000000e+00  3.8454057773227184e-08 2.2257806002249951e-10 0.0000000000000000e+00  3.7913820251901458e-08 2.9034898096512202e-10 0.0000000000000000e+00  3.7535308972193226e-08 3.0784020820126282e-10 0.0000000000000000e+00  3.7300195839714585e-08 2.9963078570023994e-10 0.0000000000000000e+00  3.7203434474710422e-08 2.7917290256144255e-10 0.0000000000000000e+00  3.7245597802806884e-08 2.5611599468279799e-10 0.0000000000000000e+00  3.7431189482121555e-08 2.3959248995413090e-10 0.0000000000000000e+00  3.7770297077392215e-08 2.4067548036230590e-10 0.0000000000000000e+00  3.8284672574921141e-08 2.7583723250493830e-10 0.0000000000000000e+00  3.9023802187840113e-08 3.7416818876512725e-10 0.0000000000000000e+00  4.0107382601715330e-08 5.9540711694591673e-10 0.0000000000000000e+00  4.1837589904920223e-08 1.0785392615290885e-09 0.0000000000000000e+00  4.4962365727426227e-08 2.1684386124746306e-09 0.0000000000000000e+00  5.0812425419905167e-08 4.6827433810692452e-09 0.0000000000000000e+00  5.8058845436645535e-08 9.1891030662044179e-09 0.0000000000000000e+00  -1.6394867609966725e-08 7.0830262793055795e-09 0.0000000000000000e+00  -1.8345274508882828e-08 -1.5486373553000035e-08 0.0000000000000000e+00  7.1430219998744929e-09 -1.1154721347839569e-08 0.0000000000000000e+00  1.7982811262229680e-08 -5.2110930263457664e-09 0.0000000000000000e+00  2.3067372831696714e-08 -2.3673612353687391e-09 0.0000000000000000e+00  2.5692942449572443e-08 -1.1171932585089912e-09 0.0000000000000000e+00  2.7189040518740281e-08 -5.2860375059777476e-10 0.0000000000000000e+00  2.8068360683565927e-08 -2.3438176314048012e-10 0.0000000000000000e+00  2.8590846184773943e-08 -8.4600681523047119e-11 0.0000000000000000e+00  2.8899626377231600e-08 -1.0278548230045416e-11 0.0000000000000000e+00  2.9074471770043953e-08 2.5906866578802862e-11 0.0000000000000000e+00  2.9156976695748393e-08 4.8452832981140449e-11 0.0000000000000000e+00  2.9162105749876700e-08 7.7724622270992560e-11 0.0000000000000000e+00  2.9082218809761329e-08 1.3572786811129448e-10 0.0000000000000000e+00  2.8885556990541331e-08 2.5273912755021926e-10 0.0000000000000000e+00  2.8508170740109187e-08 4.7913232866580318e-10 0.0000000000000000e+00  2.7833246275669236e-08 9.1133708301941717e-10 0.0000000000000000e+00  2.6635807436037942e-08 1.7527743763197988e-09 0.0000000000000000e+00  2.4405408939614195e-08 3.4496586046177323e-09 0.0000000000000000e+00  1.9699591741938528e-08 6.8925386562101422e-09 0.0000000000000000e+00  8.2735522089185403e-09 1.3045722215299072e-08 0.0000000000000000e+00  -1.8364068324637001e-08 1.1012875668139290e-08 0.0000000000000000e+00  -1.1387828194707365e-08 -1.9105024622916032e-08 0.0000000000000000e+00  -3.2464003023824891e-10 -1.8320738624175030e-08 0.0000000000000000e+00  5.7339798553546921e-09 -1.1361048177365068e-08 0.0000000000000000e+00  1.0593818576906971e-08 -6.6178161574940605e-09 0.0000000000000000e+00  1.4412875679130771e-08 -3.8632747523054205e-09 0.0000000000000000e+00  1.7076540557036484e-08 -2.2921847188404654e-09 0.0000000000000000e+00  1.8865618514188153e-08 -1.3695024425053212e-09 0.0000000000000000e+00  2.0042730360656395e-08 -8.0592172499196381e-10 0.0000000000000000e+00  2.0786107739128083e-08 -4.4301540865924374e-10 0.0000000000000000e+00  2.1205706236946102e-08 -1.8670382866385613e-10 0.0000000000000000e+00  2.1361307569085545e-08 2.7037800433258856e-11 0.0000000000000000e+00  2.1273432522331946e-08 2.5099638613223018e-10 0.0000000000000000e+00  2.0927283942689103e-08 5.3985948965064889e-10 0.0000000000000000e+00  2.0270332666820830e-08 9.6387743939246268e-10 0.0000000000000000e+00  1.9202940426849076e-08 1.6289728933565879e-09 0.0000000000000000e+00  1.7560108709309659e-08 2.7110028584140253e-09 0.0000000000000000e+00  1.5083007796597365e-08 4.5105952779178923e-09 0.0000000000000000e+00  1.1390545399037762e-08 7.5017250609328470e-09 0.0000000000000000e+00  6.0181374555194483e-09 1.2151252484602389e-08 0.0000000000000000e+00  -1.2945786318882031e-09 1.7603619281524226e-08 0.0000000000000000e+00  -1.3204251887003490e-08 1.4755027593405694e-08 0.0000000000000000e+00  -7.7072497099120765e-09 -1.9743898641073404e-08 0.0000000000000000e+00  -1.5898135107431691e-09 -1.9704594469427681e-08 0.0000000000000000e+00  1.0718288234997742e-09 -1.5296826442199650e-08 0.0000000000000000e+00  3.8123693625412831e-09 -1.0490973128744516e-08 0.0000000000000000e+00  6.6915627550492751e-09 -6.9378876033835637e-09 0.0000000000000000e+00  9.2098765906038732e-09 -4.5333747805924712e-09 0.0000000000000000e+00  1.1160488954048032e-08 -2.9303590276856531e-09 0.0000000000000000e+00  1.2562345900761505e-08 -1.8416601430846879e-09 0.0000000000000000e+00  1.3496994294071808e-08 -1.0685083724971253e-09 0.0000000000000000e+00  1.4037737305669705e-08 -4.7377549941687624e-10 0.0000000000000000e+00  1.4231230522320709e-08 4.4692380851210029e-11 0.0000000000000000e+00  1.4094483094648203e-08 5.7404847528336181e-10 0.0000000000000000e+00  1.3614902186686469e-08 1.2023935821015843e-09 0.0000000000000000e+00  1.2750448841030316e-08 2.0342672363694972e-09 0.0000000000000000e+00  1.1431108466312325e-08 3.2082324611612553e-09 0.0000000000000000e+00  9.5678699912179309e-09 4.9149290597023432e-09 0.0000000000000000e+00  7.0860675859453343e-09 7.3977673968806239e-09 0.0000000000000000e+00  4.0172276967922079e-09 1.0865732891990520e-08 0.0000000000000000e+00  6.5587143203238369e-10 1.5126763477762956e-08 0.0000000000000000e+00  -2.6356747469771124e-09 1.8761617941194060e-08 0.0000000000000000e+00  -8.9133525943771174e-09 1.7589207054940528e-08 0.0000000000000000e+00  -5.8547005845588638e-09 -1.9167190440097468e-08 0.0000000000000000e+00  -1.9163000256735638e-09 -1.9416940790222509e-08 0.0000000000000000e+00  -9.4479346563137066e-10 -1.6669586078155025e-08 0.0000000000000000e+00  1.6552951057797760e-10 -1.2841455185686174e-08 0.0000000000000000e+00  1.7810936165972733e-09 -9.3306739485023817e-09 0.0000000000000000e+00  3.5422083469381122e-09 -6.5623776846773857e-09 0.0000000000000000e+00  5.1235714738589345e-09 -4.4912543342524179e-09 0.0000000000000000e+00  6.3771370706135175e-09 -2.9493158996703464e-09 0.0000000000000000e+00  7.2664912775451266e-09 -1.7684321360354539e-09 0.0000000000000000e+00  7.7993129712872604e-09 -8.0647021098146036e-10 0.0000000000000000e+00  7.9905985317193552e-09 5.6196637628316953e-11 0.0000000000000000e+00  7.8474190265054793e-09 9.2728485060531611e-10 0.0000000000000000e+00  7.3646248332293619e-09 1.9139212931642228e-09 0.0000000000000000e+00  6.5273814243502065e-09 3.1328906692933150e-09 0.0000000000000000e+00  5.3217619344724996e-09 4.7172225993069823e-09 0.0000000000000000e+00  3.7594342027749041e-09 6.8105280643203012e-09 0.0000000000000000e+00  1.9258020916121325e-09 9.5257021985321297e-09 0.0000000000000000e+00  4.8652361660835503e-11 1.2820147823603760e-08 0.0000000000000000e+00  -1.5059726644298204e-09 1.6241203455609478e-08 0.0000000000000000e+00  -2.7510886630664699e-09 1.8698420825466471e-08 0.0000000000000000e+00  -6.6408718203509627e-09 1.8566029172940264e-08 0.0000000000000000e+00  -4.8072435220855738e-09 -1.8050259755739150e-08 0.0000000000000000e+00  -2.0840887339334398e-09 -1.8481586749494913e-08 0.0000000000000000e+00  -2.0014032456259007e-09 -1.6662436412608960e-08 0.0000000000000000e+00  -1.9315665515616483e-09 -1.3780182699781335e-08 0.0000000000000000e+00  -1.3538332504193209e-09 -1.0718902047991631e-08 0.0000000000000000e+00  -4.2874962373832703e-10 -7.9844865822945069e-09 0.0000000000000000e+00  5.7748243946467597e-10 -5.7208058373742259e-09 0.0000000000000000e+00  1.4738223895334514e-09 -3.8918292958486092e-09 0.0000000000000000e+00  2.1584664637539593e-09 -2.3961953923865877e-09 0.0000000000000000e+00  2.5871172996599684e-09 -1.1183867086550038e-09 0.0000000000000000e+00  2.7440736715528769e-09 5.4815135109654914e-11 0.0000000000000000e+00  2.6256299269790149e-09 1.2323666673687707e-09 0.0000000000000000e+00  2.2342229272413549e-09 2.5215659915485687e-09 0.0000000000000000e+00  1.5814336229834789e-09 4.0297432815787345e-09 0.0000000000000000e+00  7.0000842442324062e-10 5.8595358231538401e-09 0.0000000000000000e+00  -3.3390369825842571e-10 8.0886819034841857e-09 0.0000000000000000e+00  -1.3713890643161158e-09 1.0719795259692602e-08 0.0000000000000000e+00  -2.1788084228735062e-09 1.3587060538686293e-08 0.0000000000000000e+00  -2.5361132478735449e-09 1.6244656282428357e-08 0.0000000000000000e+00  -2.7311687250455278e-09 1.7985734144701065e-08 0.0000000000000000e+00  -5.3194251388270583e-09 1.8312558515666255e-08 0.0000000000000000e+00  -4.1418404086594399e-09 -1.6634917763405970e-08 0.0000000000000000e+00  -2.2133876728869523e-09 -1.7192957978634097e-08 0.0000000000000000e+00  -2.6586140982747385e-09 -1.5925015984396972e-08 0.0000000000000000e+00  -3.2441832038227689e-09 -1.3748812149453622e-08 0.0000000000000000e+00  -3.4191053898699297e-09 -1.1209170762909500e-08 0.0000000000000000e+00  -3.2066203327233183e-09 -8.7174066000410614e-09 0.0000000000000000e+00  -2.7792008159677613e-09 -6.4765558685405285e-09 0.0000000000000000e+00  -2.3028068530182374e-09 -4.5346024892684578e-09 0.0000000000000000e+00  -1.8934609661155203e-09 -2.8540767308496136e-09 0.0000000000000000e+00  -1.6195216052399686e-09 -1.3586300968259007e-09 0.0000000000000000e+00  -1.5152350525893918e-09 4.2694426342433302e-11 0.0000000000000000e+00  -1.5917437892150156e-09 1.4444718946810273e-09 0.0000000000000000e+00  -1.8417391253359960e-09 2.9394139295991270e-09 0.0000000000000000e+00  -2.2374009694948393e-09 4.6125342082659556e-09 0.0000000000000000e+00  -2.7222652641709242e-09 6.5295285378011959e-09 0.0000000000000000e+00  -3.1994499466458394e-09 8.7134148136141619e-09 0.0000000000000000e+00  -3.5246308988766324e-09 1.1104734163035984e-08 0.0000000000000000e+00  -3.5277684022666846e-09 1.3510347528699901e-08 0.0000000000000000e+00  -3.1257522453547276e-09 1.5574656327273816e-08 0.0000000000000000e+00  -2.7167784133970537e-09 1.6855306884308488e-08 0.0000000000000000e+00  -4.4740044216161243e-09 1.7401117453373157e-08 0.0000000000000000e+00  -3.6825915846164005e-09 -1.5021168990356835e-08 0.0000000000000000e+00  -2.3208159396921945e-09 -1.5671480332608966e-08 0.0000000000000000e+00  -3.1149509521700858e-09 -1.4754476624978602e-08 0.0000000000000000e+00  -4.1267617711567841e-09 -1.3087653316409910e-08 0.0000000000000000e+00  -4.8281952219538917e-09 -1.1016650563189007e-08 0.0000000000000000e+00  -5.1662378313099751e-09 -8.8416383524833356e-09 0.0000000000000000e+00  -5.2345935281576438e-09 -6.7546525265942959e-09 0.0000000000000000e+00  -5.1536383584584701e-09 -4.8392281169321541e-09 0.0000000000000000e+00  -5.0245036340122102e-09 -3.1014308679366477e-09 0.0000000000000000e+00  -4.9168994973677439e-09 -1.5013472370868143e-09 0.0000000000000000e+00  -4.8705828743141044e-09 2.4321903527166460e-11 0.0000000000000000e+00  -4.8996967721901094e-09 1.5477377241648830e-09 0.0000000000000000e+00  -4.9952228636264789e-09 3.1396120941325134e-09 0.0000000000000000e+00  -5.1242263068311746e-09 4.8590063068213989e-09 0.0000000000000000e+00  -5.2267494997580726e-09 6.7395367277429080e-09 0.0000000000000000e+00  -5.2137180313765305e-09 8.7693693873385508e-09 0.0000000000000000e+00  -4.9736411193769657e-09 1.0865790040863977e-08 0.0000000000000000e+00  -4.4045235527749832e-09 1.2853464865849900e-08 0.0000000000000000e+00  -3.5104351109689652e-09 1.4470182529497449e-08 0.0000000000000000e+00  -2.7156534001797737e-09 1.5438310974351626e-08 0.0000000000000000e+00  -3.8960395611602431e-09 1.6106591156947832e-08 0.0000000000000000e+00  -3.3484247159563948e-09 -1.3262869731067624e-08 0.0000000000000000e+00  -2.4092380528777990e-09 -1.3982193520742659e-08 0.0000000000000000e+00  -3.4498899682939466e-09 -1.3302816188116587e-08 0.0000000000000000e+00  -4.7492183691559894e-09 -1.2010923875535643e-08 0.0000000000000000e+00  -5.8162853653492922e-09 -1.0334078938201772e-08 0.0000000000000000e+00  -6.5605518405750564e-09 -8.4842314456975477e-09 0.0000000000000000e+00  -7.0204025799720427e-09 -6.6193135336034458e-09 0.0000000000000000e+00  -7.2722698934489336e-09 -4.8282151572886269e-09 0.0000000000000000e+00  -7.3917467996680976e-09 -3.1400593343466622e-09 0.0000000000000000e+00  -7.4373025282689267e-09 -1.5419552479650934e-09 0.0000000000000000e+00  -7.4452224144131081e-09 3.8795308576673675e-12 0.0000000000000000e+00  -7.4291723550114442e-09 1.5461234764018843e-09 0.0000000000000000e+00  -7.3807528001385212e-09 3.1326195520809657e-09 0.0000000000000000e+00  -7.2697604761019577e-09 4.7989458189654521e-09 0.0000000000000000e+00  -7.0448443273873293e-09 6.5555256819059149e-09 0.0000000000000000e+00  -6.6372446283704780e-09 8.3728626571261461e-09 0.0000000000000000e+00  -5.9728471605778310e-09 1.0167470264343740e-08 0.0000000000000000e+00  -5.0025513345999264e-09 1.1795979511197064e-08 0.0000000000000000e+00  -3.7791507565648812e-09 1.3071128396578025e-08 0.0000000000000000e+00  -2.7205902241339035e-09 1.3816957257144817e-08 0.0000000000000000e+00  -3.4836295600604413e-09 1.4563552396145008e-08 0.0000000000000000e+00  -3.0977877206434428e-09 -1.1396115041400312e-08 0.0000000000000000e+00  -2.4804608734386575e-09 -1.2167781056781199e-08 0.0000000000000000e+00  -3.7011570636923215e-09 -1.1658906515714328e-08 0.0000000000000000e+00  -5.1994480255347756e-09 -1.0653334815130815e-08 0.0000000000000000e+00  -6.5203511822104107e-09 -9.3063350990562184e-09 0.0000000000000000e+00  -7.5567416834530143e-09 -7.7661730502267960e-09 0.0000000000000000e+00  -8.3110157030043324e-09 -6.1547240953264983e-09 0.0000000000000000e+00  -8.8244073684476167e-09 -4.5519247131825160e-09 0.0000000000000000e+00  -9.1465956366312162e-09 -2.9954541908423018e-09 0.0000000000000000e+00  -9.3203252804866402e-09 -1.4893743400353538e-09 0.0000000000000000e+00  -9.3740425098208296e-09 -1.5687626405202261e-11 0.0000000000000000e+00  -9.3189946642534516e-09 1.4541377780907043e-09 0.0000000000000000e+00  -9.1486257410090302e-09 2.9483305318150199e-09 0.0000000000000000e+00  -8.8393934702789294e-09 4.4842737187504666e-09 0.0000000000000000e+00  -8.3534148169369386e-09 6.0579060608370373e-09 0.0000000000000000e+00  -7.6445650764073236e-09 7.6337164878468454e-09 0.0000000000000000e+00  -6.6709819734449528e-09 9.1378668522409814e-09 0.0000000000000000e+00  -5.4202717736896550e-09 1.0459300478716647e-08 0.0000000000000000e+00  -3.9710545811226776e-09 1.1466236939809127e-08 0.0000000000000000e+00  -2.7256906208415874e-09 1.2046689585086316e-08 0.0000000000000000e+00  -3.1817567162712690e-09 1.2847371284216603e-08 0.0000000000000000e+00  -2.9075076278576167e-09 -9.4481925401154669e-09 0.0000000000000000e+00  -2.5367274409297932e-09 -1.0259722333772070e-08 0.0000000000000000e+00  -3.8902641782753968e-09 -9.8803270395682423e-09 0.0000000000000000e+00  -5.5277242772778719e-09 -9.1031650789704154e-09 0.0000000000000000e+00  -7.0243101204200322e-09 -8.0374735880947169e-09 0.0000000000000000e+00  -8.2667162655463238e-09 -6.7866023696376313e-09 0.0000000000000000e+00  -9.2347687585083132e-09 -5.4412157579189109e-09 0.0000000000000000e+00  -9.9438663472124104e-09 -4.0672069209364987e-09 0.0000000000000000e+00  -1.0421732066741262e-08 -2.7021599056173716e-09 0.0000000000000000e+00  -1.0695675150072747e-08 -1.3588934725339030e-09 0.0000000000000000e+00  -1.0785274141038379e-08 -3.2713285554181095e-11 0.0000000000000000e+00  -1.0698692198711198e-08 1.2899723595725426e-09 0.0000000000000000e+00  -1.0431569985453717e-08 2.6228062407789495e-09 0.0000000000000000e+00  -9.9680249709903921e-09 3.9708434547868836e-09 0.0000000000000000e+00  -9.2839295406515477e-09 5.3225274028330033e-09 0.0000000000000000e+00  -8.3532364846095831e-09 6.6432585760784992e-09 0.0000000000000000e+00  -7.1588623333296891e-09 7.8724898004268135e-09 0.0000000000000000e+00  -5.7127098467214181e-09 8.9271623488225538e-09 0.0000000000000000e+00  -4.1068465958946181e-09 9.7156059440016056e-09 0.0000000000000000e+00  -2.7277718079627050e-09 1.0167328963037633e-08 0.0000000000000000e+00  -2.9583362990611149e-09 1.1006346054654204e-08 0.0000000000000000e+00  -2.7638980808498206e-09 -7.4408129019321195e-09 0.0000000000000000e+00  -2.5806362002939220e-09 -8.2825743170482937e-09 0.0000000000000000e+00  -4.0315124739796494e-09 -8.0071247906941207e-09 0.0000000000000000e+00  -5.7658396870072313e-09 -7.4206817418509187e-09 0.0000000000000000e+00  -7.3825951397756876e-09 -6.6018231633924975e-09 0.0000000000000000e+00  -8.7671504273156710e-09 -5.6220125522944010e-09 0.0000000000000000e+00  -9.8854887127636739e-09 -4.5465918849631542e-09 0.0000000000000000e+00  -1.0735026811607867e-08 -3.4266195915976778e-09 0.0000000000000000e+00  -1.1326626584824132e-08 -2.2949547428709014e-09 0.0000000000000000e+00  -1.1674639821333903e-08 -1.1672951233043850e-09 0.0000000000000000e+00  -1.1790618685126820e-08 -4.6490060953281759e-11 0.0000000000000000e+00  -1.1679767309308634e-08 1.0714578492357104e-09 0.0000000000000000e+00  -1.1339746892198366e-08 2.1907882632782985e-09 0.0000000000000000e+00  -1.0761641903888964e-08 3.3094935234409711e-09 0.0000000000000000e+00  -9.9331118354815827e-09 4.4136157702400919e-09 0.0000000000000000e+00  -8.8439734276151529e-09 5.4732611802636320e-09 0.0000000000000000e+00  -7.4949897970705385e-09 6.4416452016901245e-09 0.0000000000000000e+00  -5.9138109639234260e-09 7.2587073643674928e-09 0.0000000000000000e+00  -4.1995692937725439e-09 7.8619062467313481e-09 0.0000000000000000e+00  -2.7256841595909223e-09 8.2087475672608530e-09 0.0000000000000000e+00  -2.7936744546659580e-09 9.0745884005183326e-09 0.0000000000000000e+00  -2.6586219071047555e-09 -5.3915886896484103e-09 0.0000000000000000e+00  -2.6148561075177162e-09 -6.2559440295505909e-09 0.0000000000000000e+00  -4.1353298934227821e-09 -6.0684957184730004e-09 0.0000000000000000e+00  -5.9354340747788033e-09 -5.6484670402026639e-09 0.0000000000000000e+00  -7.6320926644908319e-09 -5.0529104899462866e-09 0.0000000000000000e+00  -9.1114512778488026e-09 -4.3300402880032335e-09 0.0000000000000000e+00  -1.0331232603531947e-08 -3.5248836910667884e-09 0.0000000000000000e+00  -1.1276906958145846e-08 -2.6744860390834794e-09 0.0000000000000000e+00  -1.1947308406363671e-08 -1.8047095404817383e-09 0.0000000000000000e+00  -1.2346976888250325e-08 -9.3021521878689975e-10 0.0000000000000000e+00  -1.2481085411251948e-08 -5.6893266949483475e-11 0.0000000000000000e+00  -1.2352387292476944e-08 8.1423111475034344e-10 0.0000000000000000e+00  -1.1960132447420668e-08 1.6824560964943263e-09 0.0000000000000000e+00  -1.1300918559979538e-08 2.5429073031919810e-09 0.0000000000000000e+00  -1.0371426158662869e-08 3.3827313237458440e-09 0.0000000000000000e+00  -9.1730205994857025e-09 4.1787076751263688e-09 0.0000000000000000e+00  -7.7186966042559075e-09 4.8971096925648765e-09 0.0000000000000000e+00  -6.0461640447534202e-09 5.4966419081589269e-09 0.0000000000000000e+00  -4.2584508960006609e-09 5.9364526686797463e-09 0.0000000000000000e+00  -2.7194820375160906e-09 6.1939316024216858e-09 0.0000000000000000e+00  -2.6753108209072689e-09 7.0775991744841848e-09 0.0000000000000000e+00  -2.5866016335321813e-09 -3.3150042701386429e-09 0.0000000000000000e+00  -2.6418535741124512e-09 -4.1956908458676156e-09 0.0000000000000000e+00  -4.2095082251044069e-09 -4.0864937017989023e-09 0.0000000000000000e+00  -6.0516475165293553e-09 -3.8176021321118813e-09 0.0000000000000000e+00  -7.7981123393137678e-09 -3.4299607667935009e-09 0.0000000000000000e+00  -9.3365973239462287e-09 -2.9540278186719725e-09 0.0000000000000000e+00  -1.0620199367820776e-08 -2.418186198712563