<?xml version="1.0"?>
<VTKFile type="UnstructuredGrid"  version="0.1"  >
<UnstructuredGrid>
<Piece  NumberOfPoints="651" NumberOfCells="1200">
<Points>
<DataArray  type="Float64"  NumberOfComponents="3"  format="ascii">0 0 0  50000 0 0  100000 0 0  150000 0 0  200000 0 0  250000 0 0  300000 0 0  350000 0 0  400000 0 0  450000 0 0  500000 0 0  550000 0 0  600000 0 0  650000 0 0  700000 0 0  750000 0 0  800000 0 0  850000 0 0  900000 0 0  950000 0 0  1000000 0 0  0 50000 0  50000 50000 0  100000 50000 0  150000 50000 0  200000 50000 0  250000 50000 0  300000 50000 0  350000 50000 0  400000 50000 0  450000 50000 0  500000 50000 0  550000 50000 0  600000 50000 0  650000 50000 0  700000 50000 0  750000 50000 0  800000 50000 0  850000 50000 0  900000 50000 0  950000 50000 0  1000000 50000 0  0 100000 0  50000 100000 0  100000 100000 0  150000 100000 0  200000 100000 0  250000 100000 0  300000 100000 0  350000 100000 0  400000 100000 0  450000 100000 0  500000 100000 0  550000 100000 0  600000 100000 0  650000 100000 0  700000 100000 0  750000 100000 0  800000 100000 0  850000 100000 0  900000 100000 0  950000 100000 0  1000000 100000 0  0 150000 0  50000 150000 0  100000 150000 0  150000 150000 0  200000 150000 0  250000 150000 0  300000 150000 0  350000 150000 0  400000 150000 0  450000 150000 0  500000 150000 0  550000 150000 0  600000 150000 0  650000 150000 0  700000 150000 0  750000 150000 0  800000 150000 0  850000 150000 0  900000 150000 0  950000 150000 0  1000000 150000 0  0 200000 0  50000 200000 0  100000 200000 0  150000 200000 0  200000 200000 0  250000 200000 0  300000 200000 0  350000 200000 0  400000 200000 0  450000 200000 0  500000 200000 0  550000 200000 0  600000 200000 0  650000 200000 0  700000 200000 0  750000 200000 0  800000 200000 0  850000 200000 0  900000 200000 0  950000 200000 0  1000000 200000 0  0 250000 0  50000 250000 0  100000 250000 0  150000 250000 0  200000 250000 0  250000 250000 0  300000 250000 0  350000 250000 0  400000 250000 0  450000 250000 0  500000 250000 0  550000 250000 0  600000 250000 0  650000 250000 0  700000 250000 0  750000 250000 0  800000 250000 0  850000 250000 0  900000 250000 0  950000 250000 0  1000000 250000 0  0 300000 0  50000 300000 0  100000 300000 0  150000 300000 0  200000 300000 0  250000 300000 0  300000 300000 0  350000 300000 0  400000 300000 0  450000 300000 0  500000 300000 0  550000 300000 0  600000 300000 0  650000 300000 0  700000 300000 0  750000 300000 0  800000 300000 0  850000 300000 0  900000 300000 0  950000 300000 0  1000000 300000 0  0 350000 0  50000 350000 0  100000 350000 0  150000 350000 0  200000 350000 0  250000 350000 0  300000 350000 0  350000 350000 0  400000 350000 0  450000 350000 0  500000 350000 0  550000 350000 0  600000 350000 0  650000 350000 0  700000 350000 0  750000 350000 0  800000 350000 0  850000 350000 0  900000 350000 0  950000 350000 0  1000000 350000 0  0 400000 0  50000 400000 0  100000 400000 0  150000 400000 0  200000 400000 0  250000 400000 0  300000 400000 0  350000 400000 0  400000 400000 0  450000 400000 0  500000 400000 0  550000 400000 0  600000 400000 0  650000 400000 0  700000 400000 0  750000 400000 0  800000 400000 0  850000 400000 0  900000 400000 0  950000 400000 0  1000000 400000 0  0 450000 0  50000 450000 0  100000 450000 0  150000 450000 0  200000 450000 0  250000 450000 0  300000 450000 0  350000 450000 0  400000 450000 0  450000 450000 0  500000 450000 0  550000 450000 0  600000 450000 0  650000 450000 0  700000 450000 0  750000 450000 0  800000 450000 0  850000 450000 0  900000 450000 0  950000 450000 0  1000000 450000 0  0 500000 0  50000 500000 0  100000 500000 0  150000 500000 0  200000 500000 0  250000 500000 0  300000 500000 0  350000 500000 0  400000 500000 0  450000 500000 0  500000 500000 0  550000 500000 0  600000 500000 0  650000 500000 0  700000 500000 0  750000 500000 0  800000 500000 0  850000 500000 0  900000 500000 0  950000 500000 0  1000000 500000 0  0 550000 0  50000 550000 0  100000 550000 0  150000 550000 0  200000 550000 0  250000 550000 0  300000 550000 0  350000 550000 0  400000 550000 0  450000 550000 0  500000 550000 0  550000 550000 0  600000 550000 0  650000 550000 0  700000 550000 0  750000 550000 0  800000 550000 0  850000 550000 0  900000 550000 0  950000 550000 0  1000000 550000 0  0 600000 0  50000 600000 0  100000 600000 0  150000 600000 0  200000 600000 0  250000 600000 0  300000 600000 0  350000 600000 0  400000 600000 0  450000 600000 0  500000 600000 0  550000 600000 0  600000 600000 0  650000 600000 0  700000 600000 0  750000 600000 0  800000 600000 0  850000 600000 0  900000 600000 0  950000 600000 0  1000000 600000 0  0 650000 0  50000 650000 0  100000 650000 0  150000 650000 0  200000 650000 0  250000 650000 0  300000 650000 0  350000 650000 0  400000 650000 0  450000 650000 0  500000 650000 0  550000 650000 0  600000 650000 0  650000 650000 0  700000 650000 0  750000 650000 0  800000 650000 0  850000 650000 0  900000 650000 0  950000 650000 0  1000000 650000 0  0 700000 0  50000 700000 0  100000 700000 0  150000 700000 0  200000 700000 0  250000 700000 0  300000 700000 0  350000 700000 0  400000 700000 0  450000 700000 0  500000 700000 0  550000 700000 0  600000 700000 0  650000 700000 0  700000 700000 0  750000 700000 0  800000 700000 0  850000 700000 0  900000 700000 0  950000 700000 0  1000000 700000 0  0 750000 0  50000 750000 0  100000 750000 0  150000 750000 0  200000 750000 0  250000 750000 0  300000 750000 0  350000 750000 0  400000 750000 0  450000 750000 0  500000 750000 0  550000 750000 0  600000 750000 0  650000 750000 0  700000 750000 0  750000 750000 0  800000 750000 0  850000 750000 0  900000 750000 0  950000 750000 0  1000000 750000 0  0 800000 0  50000 800000 0  100000 800000 0  150000 800000 0  200000 800000 0  250000 800000 0  300000 800000 0  350000 800000 0  400000 800000 0  450000 800000 0  500000 800000 0  550000 800000 0  600000 800000 0  650000 800000 0  700000 800000 0  750000 800000 0  800000 800000 0  850000 800000 0  900000 800000 0  950000 800000 0  1000000 800000 0  0 850000 0  50000 850000 0  100000 850000 0  150000 850000 0  200000 850000 0  250000 850000 0  300000 850000 0  350000 850000 0  400000 850000 0  450000 850000 0  500000 850000 0  550000 850000 0  600000 850000 0  650000 850000 0  700000 850000 0  750000 850000 0  800000 850000 0  850000 850000 0  900000 850000 0  950000 850000 0  1000000 850000 0  0 900000 0  50000 900000 0  100000 900000 0  150000 900000 0  200000 900000 0  250000 900000 0  300000 900000 0  350000 900000 0  400000 900000 0  450000 900000 0  500000 900000 0  550000 900000 0  600000 900000 0  650000 900000 0  700000 900000 0  750000 900000 0  800000 900000 0  850000 900000 0  900000 900000 0  950000 900000 0  1000000 900000 0  0 950000 0  50000 950000 0  100000 950000 0  150000 950000 0  200000 950000 0  250000 950000 0  300000 950000 0  350000 950000 0  400000 950000 0  450000 950000 0  500000 950000 0  550000 950000 0  600000 950000 0  650000 950000 0  700000 950000 0  750000 950000 0  800000 950000 0  850000 950000 0  900000 950000 0  950000 950000 0  1000000 950000 0  0 1000000 0  50000 1000000 0  100000 1000000 0  150000 1000000 0  200000 1000000 0  250000 1000000 0  300000 1000000 0  350000 1000000 0  400000 1000000 0  450000 1000000 0  500000 1000000 0  550000 1000000 0  600000 1000000 0  650000 1000000 0  700000 1000000 0  750000 1000000 0  800000 1000000 0  850000 1000000 0  900000 1000000 0  950000 1000000 0  1000000 1000000 0  0 1050000 0  50000 1050000 0  100000 1050000 0  150000 1050000 0  200000 1050000 0  250000 1050000 0  300000 1050000 0  350000 1050000 0  400000 1050000 0  450000 1050000 0  500000 1050000 0  550000 1050000 0  600000 1050000 0  650000 1050000 0  700000 1050000 0  750000 1050000 0  800000 1050000 0  850000 1050000 0  900000 1050000 0  950000 1050000 0  1000000 1050000 0  0 1100000 0  50000 1100000 0  100000 1100000 0  150000 1100000 0  200000 1100000 0  250000 1100000 0  300000 1100000 0  350000 1100000 0  400000 1100000 0  450000 1100000 0  500000 1100000 0  550000 1100000 0  600000 1100000 0  650000 1100000 0  700000 1100000 0  750000 1100000 0  800000 1100000 0  850000 1100000 0  900000 1100000 0  950000 1100000 0  1000000 1100000 0  0 1150000 0  50000 1150000 0  100000 1150000 0  150000 1150000 0  200000 1150000 0  250000 1150000 0  300000 1150000 0  350000 1150000 0  400000 1150000 0  450000 1150000 0  500000 1150000 0  550000 1150000 0  600000 1150000 0  650000 1150000 0  700000 1150000 0  750000 1150000 0  800000 1150000 0  850000 1150000 0  900000 1150000 0  950000 1150000 0  1000000 1150000 0  0 1200000 0  50000 1200000 0  100000 1200000 0  150000 1200000 0  200000 1200000 0  250000 1200000 0  300000 1200000 0  350000 1200000 0  400000 1200000 0  450000 1200000 0  500000 1200000 0  550000 1200000 0  600000 1200000 0  650000 1200000 0  700000 1200000 0  750000 1200000 0  800000 1200000 0  850000 1200000 0  900000 1200000 0  950000 1200000 0  1000000 1200000 0  0 1250000 0  50000 1250000 0  100000 1250000 0  150000 1250000 0  200000 1250000 0  250000 1250000 0  300000 1250000 0  350000 1250000 0  400000 1250000 0  450000 1250000 0  500000 1250000 0  550000 1250000 0  600000 1250000 0  650000 1250000 0  700000 1250000 0  750000 1250000 0  800000 1250000 0  850000 1250000 0  900000 1250000 0  950000 1250000 0  1000000 1250000 0  0 1300000 0  50000 1300000 0  100000 1300000 0  150000 1300000 0  200000 1300000 0  250000 1300000 0  300000 1300000 0  350000 1300000 0  400000 1300000 0  450000 1300000 0  500000 1300000 0  550000 1300000 0  600000 1300000 0  650000 1300000 0  700000 1300000 0  750000 1300000 0  800000 1300000 0  850000 1300000 0  900000 1300000 0  950000 1300000 0  1000000 1300000 0  0 1350000 0  50000 1350000 0  100000 1350000 0  150000 1350000 0  200000 1350000 0  250000 1350000 0  300000 1350000 0  350000 1350000 0  400000 1350000 0  450000 1350000 0  500000 1350000 0  550000 1350000 0  600000 1350000 0  650000 1350000 0  700000 135
[...]
<PointData  Vectors="f_7489"> 
<DataArray  type="Float64"  Name="f_7489"  NumberOfComponents="3" format="ascii">-2.4572671168180958e-08 -9.7451471838652676e-09 0.0000000000000000e+00  4.8480994957082770e-08 -5.8514792510270369e-09 0.0000000000000000e+00  4.2733529159524497e-08 -1.5833762431223291e-09 0.0000000000000000e+00  4.0263468903622436e-08 -2.3693968003818285e-10 0.0000000000000000e+00  3.9049124041921283e-08 2.2793897076806049e-10 0.0000000000000000e+00  3.8258724867564473e-08 4.2472973468270758e-10 0.0000000000000000e+00  3.7696269092515022e-08 5.1782030179343796e-10 0.0000000000000000e+00  3.7305391571797351e-08 5.6212407606505726e-10 0.0000000000000000e+00  3.7068424978277864e-08 5.7973606098215448e-10 0.0000000000000000e+00  3.6980572752203719e-08 5.8129469145875707e-10 0.0000000000000000e+00  3.7041960580834059e-08 5.7337683607157971e-10 0.0000000000000000e+00  3.7255646529325201e-08 5.6203690922322441e-10 0.0000000000000000e+00  3.7629040699654308e-08 5.5572081685178787e-10 0.0000000000000000e+00  3.8179950229171969e-08 5.6936839238601606e-10 0.0000000000000000e+00  3.8952983604288031e-08 6.3236886962766180e-10 0.0000000000000000e+00  4.0062898228306058e-08 8.0720430229590564e-10 0.0000000000000000e+00  4.1808333816931120e-08 1.2382038923770949e-09 0.0000000000000000e+00  4.4936934347369958e-08 2.2775451102548049e-09 0.0000000000000000e+00  5.0783774481788391e-08 4.7505075896850760e-09 0.0000000000000000e+00  5.8027562887770667e-08 9.2305007772457897e-09 0.0000000000000000e+00  -1.6429515704442514e-08 7.1216256259665442e-09 0.0000000000000000e+00  -1.8358541692333624e-08 -1.5279909523398360e-08 0.0000000000000000e+00  7.0720857130558594e-09 -1.1049725808581658e-08 0.0000000000000000e+00  1.7847210151796697e-08 -5.1399171895981237e-09 0.0000000000000000e+00  2.2916021722305690e-08 -2.2965865013009590e-09 0.0000000000000000e+00  2.5530092880638358e-08 -1.0501506936817442e-09 0.0000000000000000e+00  2.7015920194285641e-08 -4.6677317027930786e-10 0.0000000000000000e+00  2.7890604641445611e-08 -1.7890982080373237e-10 0.0000000000000000e+00  2.8415973127607905e-08 -3.6534957356400086e-11 0.0000000000000000e+00  2.8735681756804735e-08 2.9447880896586801e-11 0.0000000000000000e+00  2.8929219528545129e-08 5.6601636096119277e-11 0.0000000000000000e+00  2.9037073283115056e-08 6.9929192923798252e-11 0.0000000000000000e+00  2.9072199630012261e-08 9.0651850545900043e-11 0.0000000000000000e+00  2.9024050993041216e-08 1.4197528152262907e-10 0.0000000000000000e+00  2.8857234207883736e-08 2.5557135079207723e-10 0.0000000000000000e+00  2.8503873491338707e-08 4.8305830847331069e-10 0.0000000000000000e+00  2.7843676326274832e-08 9.2139596611815882e-10 0.0000000000000000e+00  2.6649631677010977e-08 1.7731077245757868e-09 0.0000000000000000e+00  2.4411858887684545e-08 3.4813653705855804e-09 0.0000000000000000e+00  1.9692435909484930e-08 6.9311988717903244e-09 0.0000000000000000e+00  8.2522571139431029e-09 1.3077957963610007e-08 0.0000000000000000e+00  -1.8398913980450464e-08 1.1052132999050631e-08 0.0000000000000000e+00  -1.1420303148654302e-08 -1.8867188889347927e-08 0.0000000000000000e+00  -3.8252370710069460e-10 -1.8203470622270275e-08 0.0000000000000000e+00  5.6116129194354612e-09 -1.1298655850791964e-08 0.0000000000000000e+00  1.0445543790665086e-08 -6.5619890154733846e-09 0.0000000000000000e+00  1.4257590109260228e-08 -3.8159527892376439e-09 0.0000000000000000e+00  1.6922652027384354e-08 -2.2572416855002614e-09 0.0000000000000000e+00  1.8718014677678669e-08 -1.3499456969245784e-09 0.0000000000000000e+00  1.9905838335387802e-08 -8.0383104226526883e-10 0.0000000000000000e+00  2.0664023860287586e-08 -4.5942353596914702e-10 0.0000000000000000e+00  2.1101751083403175e-08 -2.2139573857732659e-10 0.0000000000000000e+00  2.1277583371718658e-08 -2.4158382570531982e-11 0.0000000000000000e+00  2.1210467645610593e-08 1.8698348993891048e-10 0.0000000000000000e+00  2.0883835155641732e-08 4.6883067278049898e-10 0.0000000000000000e+00  2.0243427957946788e-08 8.9360313035920761e-10 0.0000000000000000e+00  1.9188224012347108e-08 1.5684743795310774e-09 0.0000000000000000e+00  1.7552486657360767e-08 2.6690821557306729e-09 0.0000000000000000e+00  1.5077495147555081e-08 4.4935884231680136e-09 0.0000000000000000e+00  1.1383076275584983e-08 7.5107033310405712e-09 0.0000000000000000e+00  6.0057957410523455e-09 1.2179440482930638e-08 0.0000000000000000e+00  -1.3237287243431139e-09 1.7629282103563637e-08 0.0000000000000000e+00  -1.3265198940568951e-08 1.4800188124332451e-08 0.0000000000000000e+00  -7.7526220989830777e-09 -1.9482488487287614e-08 0.0000000000000000e+00  -1.6294785477567794e-09 -1.9531922008470704e-08 0.0000000000000000e+00  9.8552478923531077e-10 -1.5204175940337869e-08 0.0000000000000000e+00  3.6955980861525364e-09 -1.0427200080204928e-08 0.0000000000000000e+00  6.5631337173481052e-09 -6.8933781082195794e-09 0.0000000000000000e+00  9.0828044290930273e-09 -4.5081512573355460e-09 0.0000000000000000e+00  1.1042516830752292e-08 -2.9259123137012089e-09 0.0000000000000000e+00  1.2458283155516079e-08 -1.8590441140727881e-09 0.0000000000000000e+00  1.3409843813035935e-08 -1.1077013300483131e-09 0.0000000000000000e+00  1.3969048210688550e-08 -5.3329424605746864e-10 0.0000000000000000e+00  1.4181167970279869e-08 -3.1886402982867491e-11 0.0000000000000000e+00  1.4061888540195361e-08 4.8568966474963514e-10 0.0000000000000000e+00  1.3597465995359635e-08 1.1095643034373411e-09 0.0000000000000000e+00  1.2745036061867899e-08 1.9459349245101358e-09 0.0000000000000000e+00  1.1434207776339465e-08 3.1341029526329046e-09 0.0000000000000000e+00  9.5760544335727398e-09 4.8638934616369395e-09 0.0000000000000000e+00  7.0962737074811752e-09 7.3757714936590635e-09 0.0000000000000000e+00  4.0265589568534349e-09 1.0873253082853054e-08 0.0000000000000000e+00  6.6029621047239432e-10 1.5155923867005139e-08 0.0000000000000000e+00  -2.6590169182177510e-09 1.8781362382872634e-08 0.0000000000000000e+00  -9.0159343188057031e-09 1.7640685617726167e-08 0.0000000000000000e+00  -5.9079311518695203e-09 -1.8882604658697849e-08 0.0000000000000000e+00  -1.9490280523709991e-09 -1.9200931312435457e-08 0.0000000000000000e+00  -1.0086298424174752e-09 -1.6542284685375807e-08 0.0000000000000000e+00  7.7399836637113683e-11 -1.2761560031733243e-08 0.0000000000000000e+00  1.6810604660304004e-09 -9.2841364209279551e-09 0.0000000000000000e+00  3.4424389421639200e-09 -6.5442276960717957e-09 0.0000000000000000e+00  5.0326797570964106e-09 -4.4997193274553699e-09 0.0000000000000000e+00  6.3004938704589728e-09 -2.9832333319239505e-09 0.0000000000000000e+00  7.2070269240073497e-09 -1.8260555192825349e-09 0.0000000000000000e+00  7.7580856903542931e-09 -8.8483374865384823e-10 0.0000000000000000e+00  7.9671790706510796e-09 -3.8342970934069785e-11 0.0000000000000000e+00  7.8402218114690434e-09 8.2290882317111467e-10 0.0000000000000000e+00  7.3712678386398006e-09 1.8077384552170696e-09 0.0000000000000000e+00  6.5450862205248427e-09 3.0341696330596955e-09 0.0000000000000000e+00  5.3477326933505260e-09 4.6355668411248543e-09 0.0000000000000000e+00  3.7910891052742435e-09 6.7544934185155105e-09 0.0000000000000000e+00  1.9606811235189201e-09 9.5009881090668819e-09 0.0000000000000000e+00  8.3715125008458186e-11 1.2827343126718314e-08 0.0000000000000000e+00  -1.4768629127231159e-09 1.6272368451481928e-08 0.0000000000000000e+00  -2.7633898309873490e-09 1.8717502912588211e-08 0.0000000000000000e+00  -6.7958113625049852e-09 1.8631077402685483e-08 0.0000000000000000e+00  -4.8669179847862644e-09 -1.7742485799261120e-08 0.0000000000000000e+00  -2.1140034765159559e-09 -1.8235811683647718e-08 0.0000000000000000e+00  -2.0519744937150317e-09 -1.6507162682090779e-08 0.0000000000000000e+00  -1.9992053252551818e-09 -1.3684504545001592e-08 0.0000000000000000e+00  -1.4304963950957564e-09 -1.0668915014644952e-08 0.0000000000000000e+00  -5.0473616015045321e-10 -7.9722491016570315e-09 0.0000000000000000e+00  5.1000262602369019e-10 -5.7414619424981534e-09 0.0000000000000000e+00  1.4201171401352690e-09 -3.9416648592280258e-09 0.0000000000000000e+00  2.1214747036405815e-09 -2.4714407837922708e-09 0.0000000000000000e+00  2.5678872470791635e-09 -1.2144808175219082e-09 0.0000000000000000e+00  2.7422044354375135e-09 -5.6347671863546998e-11 0.0000000000000000e+00  2.6396952944619936e-09 1.1133054225736288e-09 0.0000000000000000e+00  2.2621832803210601e-09 2.4030640073661246e-09 0.0000000000000000e+00  1.6210116696714118e-09 3.9211222228358892e-09 0.0000000000000000e+00  7.4895858124211152e-10 5.7702027301023877e-09 0.0000000000000000e+00  -2.7774404254382566e-10 8.0269991949805897e-09 0.0000000000000000e+00  -1.3104199718998254e-09 1.0691620395719657e-08 0.0000000000000000e+00  -2.1167324470119812e-09 1.3593804019418536e-08 0.0000000000000000e+00  -2.4818262816088083e-09 1.6279873160850951e-08 0.0000000000000000e+00  -2.7325748746541948e-09 1.8014231758718989e-08 0.0000000000000000e+00  -5.5301906872770326e-09 1.8403564636815408e-08 0.0000000000000000e+00  -4.2083074621055202e-09 -1.6303714757453055e-08 0.0000000000000000e+00  -2.2426363603503138e-09 -1.6924353255971974e-08 0.0000000000000000e+00  -2.7012997972589874e-09 -1.5749508905634340e-08 0.0000000000000000e+00  -3.2979119315201507e-09 -1.3641187786495712e-08 0.0000000000000000e+00  -3.4781364393343492e-09 -1.1156788882132208e-08 0.0000000000000000e+00  -3.2634406444435878e-09 -8.7109512378384047e-09 0.0000000000000000e+00  -2.8272843271286136e-09 -6.5089116957646811e-09 0.0000000000000000e+00  -2.3374778562937222e-09 -4.5998044769581755e-09 0.0000000000000000e+00  -1.9119646913836863e-09 -2.9464236654122614e-09 0.0000000000000000e+00  -1.6207679118742885e-09 -1.4720307683475730e-09 0.0000000000000000e+00  -1.4994276471742802e-09 -8.4864640155468074e-11 0.0000000000000000e+00  -1.5599827904429247e-09 1.3106307616007315e-09 0.0000000000000000e+00  -1.7956442622429025e-09 2.8080766202246225e-09 0.0000000000000000e+00  -2.1788063116997111e-09 4.4930604373747716e-09 0.0000000000000000e+00  -2.6530583183661089e-09 6.4312487739584069e-09 0.0000000000000000e+00  -3.1216541384734478e-09 8.6447787501844700e-09 0.0000000000000000e+00  -3.4408854973845776e-09 1.1072222364119902e-08 0.0000000000000000e+00  -3.4427041381435221e-09 1.3516986621832167e-08 0.0000000000000000e+00  -3.0511291284454125e-09 1.5617196430486694e-08 0.0000000000000000e+00  -2.7106356864558910e-09 1.6904515893113378e-08 0.0000000000000000e+00  -4.7366923853411238e-09 1.7531166494436640e-08 0.0000000000000000e+00  -3.7571747847780442e-09 -1.4666374682745864e-08 0.0000000000000000e+00  -2.3506512837758965e-09 -1.5383961107150295e-08 0.0000000000000000e+00  -3.1528563305224574e-09 -1.4564582239574082e-08 0.0000000000000000e+00  -4.1709657575710613e-09 -1.2972405482292363e-08 0.0000000000000000e+00  -4.8741655463108714e-09 -1.0964113608446055e-08 0.0000000000000000e+00  -5.2080250300369330e-09 -8.8417096357148373e-09 0.0000000000000000e+00  -5.2669347613785344e-09 -6.7986331467425213e-09 0.0000000000000000e+00  -5.1726384077453379e-09 -4.9193685653108767e-09 0.0000000000000000e+00  -5.0277729343613209e-09 -3.2103871446684140e-09 0.0000000000000000e+00  -4.9034125709379391e-09 -1.6316870619578988e-09 0.0000000000000000e+00  -4.8404018249582176e-09 -1.1952525065070945e-10 0.0000000000000000e+00  -4.8536502020994747e-09 1.3988801365381706e-09 0.0000000000000000e+00  -4.9346053484310534e-09 2.9948408579765666e-09 0.0000000000000000e+00  -5.0505804517849320e-09 4.7277957279457672e-09 0.0000000000000000e+00  -5.1418023837444366e-09 6.6313285596206139e-09 0.0000000000000000e+00  -5.1195637383721058e-09 8.6930074686213183e-09 0.0000000000000000e+00  -4.8733313604778031e-09 1.0828828502324888e-08 0.0000000000000000e+00  -4.3036588734039609e-09 1.2861253491723811e-08 0.0000000000000000e+00  -3.4231676094909293e-09 1.4523949865137501e-08 0.0000000000000000e+00  -2.7065323466238240e-09 1.5518210890270423e-08 0.0000000000000000e+00  -4.2008888770792339e-09 1.6285936658155470e-08 0.0000000000000000e+00  -3.4331420803586392e-09 -1.2884670134249016e-08 0.0000000000000000e+00  -2.4403022119590620e-09 -1.3678468022818008e-08 0.0000000000000000e+00  -3.4845432717886378e-09 -1.3102754785739611e-08 0.0000000000000000e+00  -4.7864271912063830e-09 -1.1891844340990978e-08 0.0000000000000000e+00  -5.8522304833632703e-09 -1.0283867075961142e-08 0.0000000000000000e+00  -6.5903714870216900e-09 -8.4920199888245589e-09 0.0000000000000000e+00  -7.0398979345392261e-09 -6.6751816325929859e-09 0.0000000000000000e+00  -7.2783417579405431e-09 -4.9230202910357737e-09 0.0000000000000000e+00  -7.3824808720638275e-09 -3.2651322619507893e-09 0.0000000000000000e+00  -7.4118702788374158e-09 -1.6887523706197059e-09 0.0000000000000000e+00  -7.4036788818008452e-09 -1.5593398876242116e-10 0.0000000000000000e+00  -7.3722171912607404e-09 1.3823402558617572e-09 0.0000000000000000e+00  -7.3095145651878828e-09 2.9742875061888397e-09 0.0000000000000000e+00  -7.1856640945121284e-09 4.6557565723846090e-09 0.0000000000000000e+00  -6.9496279024359401e-09 6.4372234378510950e-09 0.0000000000000000e+00  -6.5332095166788020e-09 8.2889577561328920e-09 0.0000000000000000e+00  -5.8635025230322393e-09 1.0126941814345304e-08 0.0000000000000000e+00  -4.8942848731404997e-09 1.1806949817668457e-08 0.0000000000000000e+00  -3.6876306448287673e-09 1.3139910562418116e-08 0.0000000000000000e+00  -2.7128454932893641e-09 1.3934640877259223e-08 0.0000000000000000e+00  -3.8173622180230422e-09 1.4797784597875658e-08 0.0000000000000000e+00  -3.1951796351428920e-09 -1.0995229255908781e-08 0.0000000000000000e+00  -2.5129980065886637e-09 -1.1850097417953285e-08 0.0000000000000000e+00  -3.7329895310874924e-09 -1.1451911558040940e-08 0.0000000000000000e+00  -5.2307565482011642e-09 -1.0533532227461445e-08 0.0000000000000000e+00  -6.5479017393383908e-09 -9.2607178831805797e-09 0.0000000000000000e+00  -7.5764994994669482e-09 -7.7829249431601504e-09 0.0000000000000000e+00  -8.3196714765320991e-09 -6.2228461839697703e-09 0.0000000000000000e+00  -8.8196153413725289e-09 -4.6611477593221372e-09 0.0000000000000000e+00  -9.1269711941370335e-09 -3.1360514744704855e-09 0.0000000000000000e+00  -9.2853456958564532e-09 -1.6519063735475569e-09 0.0000000000000000e+00  -9.3238923410527174e-09 -1.9075801091053105e-10 0.0000000000000000e+00  -9.2543956276865375e-09 1.2760620323859770e-09 0.0000000000000000e+00  -9.0706962627966120e-09 2.7770116374123830e-09 0.0000000000000000e+00  -8.7495876940481789e-09 4.3297136343683952e-09 0.0000000000000000e+00  -8.2535969689735467e-09 5.9303061694782613e-09 0.0000000000000000e+00  -7.5372907832228482e-09 7.5434448905360393e-09 0.0000000000000000e+00  -6.5601334701256509e-09 9.0955153640685797e-09 0.0000000000000000e+00  -5.3126692106871815e-09 1.0475877581568177e-08 0.0000000000000000e+00  -3.8828324193400844e-09 1.1553057591129717e-08 0.0000000000000000e+00  -2.7226294428354268e-09 1.2205705085966650e-08 0.0000000000000000e+00  -3.5299764961821772e-09 1.3137091228367613e-08 0.0000000000000000e+00  -3.0204907688626851e-09 -9.0260226463593009e-09 0.0000000000000000e+00  -2.5707004531770357e-09 -9.9303379518987034e-09 0.0000000000000000e+00  -3.9189318767119268e-09 -9.6691149574424697e-09 0.0000000000000000e+00  -5.5531556282801480e-09 -8.9851896076750647e-09 0.0000000000000000e+00  -7.0439519557092581e-09 -7.9983487964711220e-09 0.0000000000000000e+00  -8.2772768489556878e-09 -6.8133654427625504e-09 0.0000000000000000e+00  -9.2337316490500160e-09 -5.5218335943359176e-09 0.0000000000000000e+00  -9.9295979726469697e-09 -4.1904552138873378e-09 0.0000000000000000e+00  -1.0393400944282586e-08 -2.8574600060316494e-09 0.0000000000000000e+00  -1.0653137650295463e-08 -1.5360910947582133e-09 0.0000000000000000e+00  -1.0728948560834472e-08 -2.2184989989973600e-10 0.0000000000000000e+00  -1.0629440315551346e-08 1.0988562530199658e-09 0.0000000000000000e+00  -1.0350615026018110e-08 2.4398208978481073e-09 0.0000000000000000e+00  -9.8769422887455025e-09 3.8063631056565351e-09 0.0000000000000000e+00  -9.1847522953044212e-09 5.1873035624668770e-09 0.0000000000000000e+00  -8.2487311651190710e-09 6.5485990444540137e-09 0.0000000000000000e+00  -7.0530967263440818e-09 7.8305986619413044e-09 0.0000000000000000e+00  -5.6124943102144105e-09 8.9517248222905832e-09 0.0000000000000000e+00  -4.0277643432536463e-09 9.8223089995755780e-09 0.0000000000000000e+00  -2.7313621585874473e-09 1.0367766573479708e-08 0.0000000000000000e+00  -3.3074670795205431e-09 1.1347841897980709e-08 0.0000000000000000e+00  -2.8956164474188305e-09 -6.9995823834483540e-09 0.0000000000000000e+00  -2.6157728255002942e-09 -7.9440868497077673e-09 0.0000000000000000e+00  -4.0560944627677399e-09 -7.7942196146529560e-09 0.0000000000000000e+00  -5.7846222127588330e-09 -7.3066885810236699e-09 0.0000000000000000e+00  -7.3939314332652896e-09 -6.5706884560378267e-09 0.0000000000000000e+00  -8.7685293666298809e-09 -5.6594974845019087e-09 0.0000000000000000e+00  -9.8751625070678195e-09 -4.6396556936273592e-09 0.0000000000000000e+00  -1.0712051921550537e-08 -3.5632077656199752e-09 0.0000000000000000e+00  -1.1290731026516919e-08 -2.4637974309011318e-09 0.0000000000000000e+00  -1.1626096766385854e-08 -1.3576729174068948e-09 0.0000000000000000e+00  -1.1730140215744986e-08 -2.4799304232142230e-10 0.0000000000000000e+00  -1.1608423345709074e-08 8.6915528096611469e-10 0.0000000000000000e+00  -1.1258924058191349e-08 1.9981318359683770e-09 0.0000000000000000e+00  -1.0673064946841304e-08 3.1372490994215404e-09 0.0000000000000000e+00  -9.8389551396437395e-09 4.2731047197979955e-09 0.0000000000000000e+00  -8.7470987990245247e-09 5.3766978394585976e-09 0.0000000000000000e+00  -7.3994049392700354e-09 6.4026723160503190e-09 0.0000000000000000e+00  -5.8258729009241985e-09 7.2932275366603346e-09 0.0000000000000000e+00  -4.1334677363324334e-09 7.9890069104484857e-09 0.0000000000000000e+00  -2.7366347952445918e-09 8.4478119927904065e-09 0.0000000000000000e+00  -3.1322300615454951e-09 9.4609960391714124e-09 0.0000000000000000e+00  -2.8122712013961392e-09 -4.9344749242946120e-09 0.0000000000000000e+00  -2.6506595351682673e-09 -5.9115216901417152e-09 0.0000000000000000e+00  -4.1544575587176960e-09 -5.8564443682941124e-09 0.0000000000000000e+00  -5.9462138317909360e-09 -5.5403444752694885e-09 0.0000000000000000e+00  -7.6340810413818328e-09 -5.0308780624685662e-09 0.0000000000000000e+00  -9.1030270561253469e-09 -4.3785519168420120e-09 0.0000000000000000e+00  -1.0311439733645413e-08 -3.6299495437935544e-09 0.0000000000000000e+00  -1.1245483982026662e-08 -2.8233397455493223e-09 0.0000000000000000e+00  -1.1904534958896703e-08 -1.9855302484026004e-09 0.0000000000000000e+00  -1.2293547173154917e-08 -1.1318490555510973e-09 0.0000000000000000e+00  -1.2418020325081134e-08 -2.6858054021693891e-10 0.0000000000000000e+00  -1.2280981040350638e-08 6.0311615612246570e-10 0.0000000000000000e+00  -1.1881937417524170e-08 1.4826582704674051e-09 0.0000000000000000e+00  -1.1217779099716648e-08 2.3655577919506004e-09 0.0000000000000000e+00  -1.0285575039601413e-08 3.2396696307153554e-09 0.0000000000000000e+00  -9.0872567696826457e-09 4.0829205967552289e-09 0.0000000000000000e+00  -7.6367120939519979e-09 4.8633740138902761e-09 0.0000000000000000e+00  -5.9734844470970019e-09 5.5424674149893641e-09 0.0000000000000000e+00  -4.2072771125862568e-09 6.0832156647458757e-09 0.0000000000000000e+00  -2.7375168738276019e-09 6.4667419878149949e-09 0.0000000000000000e+00  -2.9945167243104233e-09 7.5001544541532521e-09 0.0000000000000000e+00  -2.7652072358928199e-09 -2.8462602337933908e-09 0.0000000000000000e+00  -2.6775996378755359e-09 -3.8492248032378545e-09 0.0000000000000000e+00  -4.2214699109952580e-09 -3.8779896247195672e-09 0.0000000000000000e+00  -6.0526718396932685e-09 -3.7170448877230843e-09 0.0000000000000000e+00  -7.7892875328298077e-09 -3.4177707348370586e-09 0.0000000000000000e+00  -9.3173323378778229e-09 -3.0134317162085530e-09 0.0000000000000000e+00  -1.0590371562724817e-08 -2.534362957