<?xml version="1.0"?>
<VTKFile type="UnstructuredGrid"  version="0.1"  >
<UnstructuredGrid>
<Piece  NumberOfPoints="651" NumberOfCells="1200">
<Points>
<DataArray  type="Float64"  NumberOfComponents="3"  format="ascii">0 0 0  50000 0 0  100000 0 0  150000 0 0  200000 0 0  250000 0 0  300000 0 0  350000 0 0  400000 0 0  450000 0 0  500000 0 0  550000 0 0  600000 0 0  650000 0 0  700000 0 0  750000 0 0  800000 0 0  850000 0 0  900000 0 0  950000 0 0  1000000 0 0  0 50000 0  50000 50000 0  100000 50000 0  150000 50000 0  200000 50000 0  250000 50000 0  300000 50000 0  350000 50000 0  400000 50000 0  450000 50000 0  500000 50000 0  550000 50000 0  600000 50000 0  650000 50000 0  700000 50000 0  750000 50000 0  800000 50000 0  850000 50000 0  900000 50000 0  950000 50000 0  1000000 50000 0  0 100000 0  50000 100000 0  100000 100000 0  150000 100000 0  200000 100000 0  250000 100000 0  300000 100000 0  350000 100000 0  400000 100000 0  450000 100000 0  500000 100000 0  550000 100000 0  600000 100000 0  650000 100000 0  700000 100000 0  750000 100000 0  800000 100000 0  850000 100000 0  900000 100000 0  950000 100000 0  1000000 100000 0  0 150000 0  50000 150000 0  100000 150000 0  150000 150000 0  200000 150000 0  250000 150000 0  300000 150000 0  350000 150000 0  400000 150000 0  450000 150000 0  500000 150000 0  550000 150000 0  600000 150000 0  650000 150000 0  700000 150000 0  750000 150000 0  800000 150000 0  850000 150000 0  900000 150000 0  950000 150000 0  1000000 150000 0  0 200000 0  50000 200000 0  100000 200000 0  150000 200000 0  200000 200000 0  250000 200000 0  300000 200000 0  350000 200000 0  400000 200000 0  450000 200000 0  500000 200000 0  550000 200000 0  600000 200000 0  650000 200000 0  700000 200000 0  750000 200000 0  800000 200000 0  850000 200000 0  900000 200000 0  950000 200000 0  1000000 200000 0  0 250000 0  50000 250000 0  100000 250000 0  150000 250000 0  200000 250000 0  250000 250000 0  300000 250000 0  350000 250000 0  400000 250000 0  450000 250000 0  500000 250000 0  550000 250000 0  600000 250000 0  650000 250000 0  700000 250000 0  750000 250000 0  800000 250000 0  850000 250000 0  900000 250000 0  950000 250000 0  1000000 250000 0  0 300000 0  50000 300000 0  100000 300000 0  150000 300000 0  200000 300000 0  250000 300000 0  300000 300000 0  350000 300000 0  400000 300000 0  450000 300000 0  500000 300000 0  550000 300000 0  600000 300000 0  650000 300000 0  700000 300000 0  750000 300000 0  800000 300000 0  850000 300000 0  900000 300000 0  950000 300000 0  1000000 300000 0  0 350000 0  50000 350000 0  100000 350000 0  150000 350000 0  200000 350000 0  250000 350000 0  300000 350000 0  350000 350000 0  400000 350000 0  450000 350000 0  500000 350000 0  550000 350000 0  600000 350000 0  650000 350000 0  700000 350000 0  750000 350000 0  800000 350000 0  850000 350000 0  900000 350000 0  950000 350000 0  1000000 350000 0  0 400000 0  50000 400000 0  100000 400000 0  150000 400000 0  200000 400000 0  250000 400000 0  300000 400000 0  350000 400000 0  400000 400000 0  450000 400000 0  500000 400000 0  550000 400000 0  600000 400000 0  650000 400000 0  700000 400000 0  750000 400000 0  800000 400000 0  850000 400000 0  900000 400000 0  950000 400000 0  1000000 400000 0  0 450000 0  50000 450000 0  100000 450000 0  150000 450000 0  200000 450000 0  250000 450000 0  300000 450000 0  350000 450000 0  400000 450000 0  450000 450000 0  500000 450000 0  550000 450000 0  600000 450000 0  650000 450000 0  700000 450000 0  750000 450000 0  800000 450000 0  850000 450000 0  900000 450000 0  950000 450000 0  1000000 450000 0  0 500000 0  50000 500000 0  100000 500000 0  150000 500000 0  200000 500000 0  250000 500000 0  300000 500000 0  350000 500000 0  400000 500000 0  450000 500000 0  500000 500000 0  550000 500000 0  600000 500000 0  650000 500000 0  700000 500000 0  750000 500000 0  800000 500000 0  850000 500000 0  900000 500000 0  950000 500000 0  1000000 500000 0  0 550000 0  50000 550000 0  100000 550000 0  150000 550000 0  200000 550000 0  250000 550000 0  300000 550000 0  350000 550000 0  400000 550000 0  450000 550000 0  500000 550000 0  550000 550000 0  600000 550000 0  650000 550000 0  700000 550000 0  750000 550000 0  800000 550000 0  850000 550000 0  900000 550000 0  950000 550000 0  1000000 550000 0  0 600000 0  50000 600000 0  100000 600000 0  150000 600000 0  200000 600000 0  250000 600000 0  300000 600000 0  350000 600000 0  400000 600000 0  450000 600000 0  500000 600000 0  550000 600000 0  600000 600000 0  650000 600000 0  700000 600000 0  750000 600000 0  800000 600000 0  850000 600000 0  900000 600000 0  950000 600000 0  1000000 600000 0  0 650000 0  50000 650000 0  100000 650000 0  150000 650000 0  200000 650000 0  250000 650000 0  300000 650000 0  350000 650000 0  400000 650000 0  450000 650000 0  500000 650000 0  550000 650000 0  600000 650000 0  650000 650000 0  700000 650000 0  750000 650000 0  800000 650000 0  850000 650000 0  900000 650000 0  950000 650000 0  1000000 650000 0  0 700000 0  50000 700000 0  100000 700000 0  150000 700000 0  200000 700000 0  250000 700000 0  300000 700000 0  350000 700000 0  400000 700000 0  450000 700000 0  500000 700000 0  550000 700000 0  600000 700000 0  650000 700000 0  700000 700000 0  750000 700000 0  800000 700000 0  850000 700000 0  900000 700000 0  950000 700000 0  1000000 700000 0  0 750000 0  50000 750000 0  100000 750000 0  150000 750000 0  200000 750000 0  250000 750000 0  300000 750000 0  350000 750000 0  400000 750000 0  450000 750000 0  500000 750000 0  550000 750000 0  600000 750000 0  650000 750000 0  700000 750000 0  750000 750000 0  800000 750000 0  850000 750000 0  900000 750000 0  950000 750000 0  1000000 750000 0  0 800000 0  50000 800000 0  100000 800000 0  150000 800000 0  200000 800000 0  250000 800000 0  300000 800000 0  350000 800000 0  400000 800000 0  450000 800000 0  500000 800000 0  550000 800000 0  600000 800000 0  650000 800000 0  700000 800000 0  750000 800000 0  800000 800000 0  850000 800000 0  900000 800000 0  950000 800000 0  1000000 800000 0  0 850000 0  50000 850000 0  100000 850000 0  150000 850000 0  200000 850000 0  250000 850000 0  300000 850000 0  350000 850000 0  400000 850000 0  450000 850000 0  500000 850000 0  550000 850000 0  600000 850000 0  650000 850000 0  700000 850000 0  750000 850000 0  800000 850000 0  850000 850000 0  900000 850000 0  950000 850000 0  1000000 850000 0  0 900000 0  50000 900000 0  100000 900000 0  150000 900000 0  200000 900000 0  250000 900000 0  300000 900000 0  350000 900000 0  400000 900000 0  450000 900000 0  500000 900000 0  550000 900000 0  600000 900000 0  650000 900000 0  700000 900000 0  750000 900000 0  800000 900000 0  850000 900000 0  900000 900000 0  950000 900000 0  1000000 900000 0  0 950000 0  50000 950000 0  100000 950000 0  150000 950000 0  200000 950000 0  250000 950000 0  300000 950000 0  350000 950000 0  400000 950000 0  450000 950000 0  500000 950000 0  550000 950000 0  600000 950000 0  650000 950000 0  700000 950000 0  750000 950000 0  800000 950000 0  850000 950000 0  900000 950000 0  950000 950000 0  1000000 950000 0  0 1000000 0  50000 1000000 0  100000 1000000 0  150000 1000000 0  200000 1000000 0  250000 1000000 0  300000 1000000 0  350000 1000000 0  400000 1000000 0  450000 1000000 0  500000 1000000 0  550000 1000000 0  600000 1000000 0  650000 1000000 0  700000 1000000 0  750000 1000000 0  800000 1000000 0  850000 1000000 0  900000 1000000 0  950000 1000000 0  1000000 1000000 0  0 1050000 0  50000 1050000 0  100000 1050000 0  150000 1050000 0  200000 1050000 0  250000 1050000 0  300000 1050000 0  350000 1050000 0  400000 1050000 0  450000 1050000 0  500000 1050000 0  550000 1050000 0  600000 1050000 0  650000 1050000 0  700000 1050000 0  750000 1050000 0  800000 1050000 0  850000 1050000 0  900000 1050000 0  950000 1050000 0  1000000 1050000 0  0 1100000 0  50000 1100000 0  100000 1100000 0  150000 1100000 0  200000 1100000 0  250000 1100000 0  300000 1100000 0  350000 1100000 0  400000 1100000 0  450000 1100000 0  500000 1100000 0  550000 1100000 0  600000 1100000 0  650000 1100000 0  700000 1100000 0  750000 1100000 0  800000 1100000 0  850000 1100000 0  900000 1100000 0  950000 1100000 0  1000000 1100000 0  0 1150000 0  50000 1150000 0  100000 1150000 0  150000 1150000 0  200000 1150000 0  250000 1150000 0  300000 1150000 0  350000 1150000 0  400000 1150000 0  450000 1150000 0  500000 1150000 0  550000 1150000 0  600000 1150000 0  650000 1150000 0  700000 1150000 0  750000 1150000 0  800000 1150000 0  850000 1150000 0  900000 1150000 0  950000 1150000 0  1000000 1150000 0  0 1200000 0  50000 1200000 0  100000 1200000 0  150000 1200000 0  200000 1200000 0  250000 1200000 0  300000 1200000 0  350000 1200000 0  400000 1200000 0  450000 1200000 0  500000 1200000 0  550000 1200000 0  600000 1200000 0  650000 1200000 0  700000 1200000 0  750000 1200000 0  800000 1200000 0  850000 1200000 0  900000 1200000 0  950000 1200000 0  1000000 1200000 0  0 1250000 0  50000 1250000 0  100000 1250000 0  150000 1250000 0  200000 1250000 0  250000 1250000 0  300000 1250000 0  350000 1250000 0  400000 1250000 0  450000 1250000 0  500000 1250000 0  550000 1250000 0  600000 1250000 0  650000 1250000 0  700000 1250000 0  750000 1250000 0  800000 1250000 0  850000 1250000 0  900000 1250000 0  950000 1250000 0  1000000 1250000 0  0 1300000 0  50000 1300000 0  100000 1300000 0  150000 1300000 0  200000 1300000 0  250000 1300000 0  300000 1300000 0  350000 1300000 0  400000 1300000 0  450000 1300000 0  500000 1300000 0  550000 1300000 0  600000 1300000 0  650000 1300000 0  700000 1300000 0  750000 1300000 0  800000 1300000 0  850000 1300000 0  900000 1300000 0  950000 1300000 0  1000000 1300000 0  0 1350000 0  50000 1350000 0  100000 1350000 0  150000 1350000 0  200000 1350000 0  250000 1350000 0  300000 1350000 0  350000 1350000 0  400000 1350000 0  450000 1350000 0  500000 1350000 0  550000 1350000 0  600000 1350000 0  650000 1350000 0  700000 135
[...]
<PointData  Vectors="f_7489"> 
<DataArray  type="Float64"  Name="f_7489"  NumberOfComponents="3" format="ascii">-2.4303878964879805e-08 -9.7836958157612160e-09 0.0000000000000000e+00  4.8722313799487097e-08 -5.9302096665280164e-09 0.0000000000000000e+00  4.2901036437329595e-08 -1.7105176519263699e-09 0.0000000000000000e+00  4.0358176438967863e-08 -3.8687255888629489e-10 0.0000000000000000e+00  3.9068059089565203e-08 7.2023710849886652e-11 0.0000000000000000e+00  3.8201746321909054e-08 2.7494914259557769e-10 0.0000000000000000e+00  3.7564413197707020e-08 3.8474096310721783e-10 0.0000000000000000e+00  3.7100083342581441e-08 4.5609024715627419e-10 0.0000000000000000e+00  3.6791981981969266e-08 5.1171480059142159e-10 0.0000000000000000e+00  3.6637250384401722e-08 5.6314082832338912e-10 0.0000000000000000e+00  3.6639377151582765e-08 6.1737121484515597e-10 0.0000000000000000e+00  3.6806452518008654e-08 6.7947374775711382e-10 0.0000000000000000e+00  3.7152501135318283e-08 7.5424982664637707e-10 0.0000000000000000e+00  3.7702745035551367e-08 8.4891297742306641e-10 0.0000000000000000e+00  3.8508024582335281e-08 9.7995360269605750e-10 0.0000000000000000e+00  3.9684546482977599e-08 1.1922213853251445e-09 0.0000000000000000e+00  4.1522790042683929e-08 1.6116800577885560e-09 0.0000000000000000e+00  4.4749185375908717e-08 2.5812415016321900e-09 0.0000000000000000e+00  5.0668131124789691e-08 4.9426877577411074e-09 0.0000000000000000e+00  5.7930358421532555e-08 9.3270936004727137e-09 0.0000000000000000e+00  -1.6544651054283319e-08 7.2280943126464994e-09 0.0000000000000000e+00  -1.8129980229879287e-08 -1.5257981476745887e-08 0.0000000000000000e+00  7.0805522410051051e-09 -1.1052976510709632e-08 0.0000000000000000e+00  1.7802328466876565e-08 -5.1289067984317591e-09 0.0000000000000000e+00  2.2879350238978400e-08 -2.2631199105529729e-09 0.0000000000000000e+00  2.5477329750300798e-08 -1.0057798579359848e-09 0.0000000000000000e+00  2.6929437968611503e-08 -4.1648103351108131e-10 0.0000000000000000e+00  2.7763527095519007e-08 -1.2469195283133474e-10 0.0000000000000000e+00  2.8246956609001324e-08 2.1055263809088982e-11 0.0000000000000000e+00  2.8527304977899497e-08 8.9938469168003591e-11 0.0000000000000000e+00  2.8687683949571646e-08 1.1867947243493674e-10 0.0000000000000000e+00  2.8772413425651526e-08 1.3076741556789836e-10 0.0000000000000000e+00  2.8798573210208376e-08 1.4541976616374855e-10 0.0000000000000000e+00  2.8759559196286617e-08 1.8373568939326802e-10 0.0000000000000000e+00  2.8622552230693887e-08 2.7604454023626079e-10 0.0000000000000000e+00  2.8318845597614902e-08 4.7498600824394730e-10 0.0000000000000000e+00  2.7721232965776893e-08 8.8324054650660825e-10 0.0000000000000000e+00  2.6587474512821725e-08 1.7159078304758637e-09 0.0000000000000000e+00  2.4385243638739348e-08 3.4343303426004606e-09 0.0000000000000000e+00  1.9657380641383251e-08 6.9351626066112910e-09 0.0000000000000000e+00  8.1579691430156246e-09 1.3142025615235260e-08 0.0000000000000000e+00  -1.8517017859078284e-08 1.1127290714689731e-08 0.0000000000000000e+00  -1.1257473019413684e-08 -1.8788738270553543e-08 0.0000000000000000e+00  -4.1386616219337041e-10 -1.8236294588671037e-08 0.0000000000000000e+00  5.4969498159466245e-09 -1.1306617492345051e-08 0.0000000000000000e+00  1.0322406311696220e-08 -6.5202522096308018e-09 0.0000000000000000e+00  1.4139782025325113e-08 -3.7432694458825165e-09 0.0000000000000000e+00  1.6805809012148782e-08 -2.1677051719856544e-09 0.0000000000000000e+00  1.8596612326257745e-08 -1.2530093786012108e-09 0.0000000000000000e+00  1.9778108265845253e-08 -7.0614064176115465e-10 0.0000000000000000e+00  2.0531963575024095e-08 -3.6674267296221744e-10 0.0000000000000000e+00  2.0970469590608773e-08 -1.4003170391986296e-10 0.0000000000000000e+00  2.1154604327085438e-08 3.8241934041806639e-11 0.0000000000000000e+00  2.1104809581486968e-08 2.2133098468898150e-10 0.0000000000000000e+00  2.0804602877820298e-08 4.6545950970971275e-10 0.0000000000000000e+00  2.0197728248073080e-08 8.4456027991665156e-10 0.0000000000000000e+00  1.9178518748097081e-08 1.4716445936692397e-09 0.0000000000000000e+00  1.7574132242943844e-08 2.5339441825949972e-09 0.0000000000000000e+00  1.5118176162745201e-08 4.3465948126293364e-09 0.0000000000000000e+00  1.1426449110406333e-08 7.3944593755358240e-09 0.0000000000000000e+00  6.0383607888118959e-09 1.2134299995899534e-08 0.0000000000000000e+00  -1.3463122389438311e-09 1.7626653764999998e-08 0.0000000000000000e+00  -1.3486686546060937e-08 1.4868739000559968e-08 0.0000000000000000e+00  -7.6331530636130979e-09 -1.9374557517905323e-08 0.0000000000000000e+00  -1.6436937448733108e-09 -1.9507595035404430e-08 0.0000000000000000e+00  8.9874593540013395e-10 -1.5197758310993011e-08 0.0000000000000000e+00  3.5788299353094983e-09 -1.0388392632737191e-08 0.0000000000000000e+00  6.4426916705601700e-09 -6.8240627672298807e-09 0.0000000000000000e+00  8.9693094916477888e-09 -4.4198187215683285e-09 0.0000000000000000e+00  1.0939639585267040e-08 -2.8295576250303248e-09 0.0000000000000000e+00  1.2368371148404612e-08 -1.7639797332997227e-09 0.0000000000000000e+00  1.3336143265112819e-08 -1.0223189373079350e-09 0.0000000000000000e+00  1.3916069985860569e-08 -4.6597298473530092e-10 0.0000000000000000e+00  1.4154162111511996e-08 8.5596493941256899e-12 0.0000000000000000e+00  1.4065813862959205e-08 4.9032410355746743e-10 0.0000000000000000e+00  1.3635593526499105e-08 1.0706649494807788e-09 0.0000000000000000e+00  1.2817396411533396e-08 1.8595759675138005e-09 0.0000000000000000e+00  1.1536379860142393e-08 3.0039171341408648e-09 0.0000000000000000e+00  9.6991756236400041e-09 4.7051606316216901e-09 0.0000000000000000e+00  7.2292530534325764e-09 7.2174607890060217e-09 0.0000000000000000e+00  4.1600677798802599e-09 1.0753485676602235e-08 0.0000000000000000e+00  7.8490622525427146e-10 1.5104560165414276e-08 0.0000000000000000e+00  -2.6171497957075875e-09 1.8767183290292310e-08 0.0000000000000000e+00  -9.3663971735276580e-09 1.7762676778557825e-08 0.0000000000000000e+00  -5.8121497233449733e-09 -1.8752196868887646e-08 0.0000000000000000e+00  -1.9567038294601587e-09 -1.9125034704642204e-08 0.0000000000000000e+00  -1.0708959404202917e-09 -1.6503082818024208e-08 0.0000000000000000e+00  -1.3786670527666996e-11 -1.2714458644348595e-08 0.0000000000000000e+00  1.5813406023751154e-09 -9.2203368077812639e-09 0.0000000000000000e+00  3.3491367818699828e-09 -6.4680959617868766e-09 0.0000000000000000e+00  4.9551293860706965e-09 -4.4195905656167740e-09 0.0000000000000000e+00  6.2448468356236148e-09 -2.9080827009885249e-09 0.0000000000000000e+00  7.1780939081388079e-09 -1.7646890933524360e-09 0.0000000000000000e+00  7.7600379809147448e-09 -8.4586840030619414e-10 0.0000000000000000e+00  8.0033987346582360e-09 -3.0084012754647901e-11 0.0000000000000000e+00  7.9126264812069473e-09 7.9314001884396205e-10 0.0000000000000000e+00  7.4794125036373939e-09 1.7350651515427262e-09 0.0000000000000000e+00  6.6854055777565593e-09 2.9184508413704952e-09 0.0000000000000000e+00  5.5134142112277476e-09 4.4842056816649048e-09 0.0000000000000000e+00  3.9730923999364137e-09 6.5848365494531095e-09 0.0000000000000000e+00  2.1499374476747599e-09 9.3406031578979510e-09 0.0000000000000000e+00  2.7252773430906816e-10 1.2709981114189029e-08 0.0000000000000000e+00  -1.3035537178961785e-09 1.6227944203946697e-08 0.0000000000000000e+00  -2.6997192663192180e-09 1.8742659413199035e-08 0.0000000000000000e+00  -7.2400739648844304e-09 1.8849030754187021e-08 0.0000000000000000e+00  -4.7841870115227170e-09 -1.7593055507989496e-08 0.0000000000000000e+00  -2.1181240410412210e-09 -1.8127074416324421e-08 0.0000000000000000e+00  -2.0971245210077531e-09 -1.6436884611532727e-08 0.0000000000000000e+00  -2.0668454740047830e-09 -1.3624125879774238e-08 0.0000000000000000e+00  -1.5058951695566946e-09 -1.0607767948164825e-08 0.0000000000000000e+00  -5.7398024128665861e-10 -7.9099282127747686e-09 0.0000000000000000e+00  4.5777402934895641e-10 -5.6827447211617385e-09 0.0000000000000000e+00  1.3927938703554058e-09 -3.8934492081875931e-09 0.0000000000000000e+00  2.1246806184070454e-09 -2.4412665299635952e-09 0.0000000000000000e+00  2.6054332635387434e-09 -1.2097982238127677e-09 0.0000000000000000e+00  2.8160968954539283e-09 -8.3893883156292810e-11 0.0000000000000000e+00  2.7498218889964052e-09 1.0484265878146337e-09 0.0000000000000000e+00  2.4059210270150995e-09 2.2987875888011749e-09 0.0000000000000000e+00  1.7930656831331410e-09 3.7802752998710151e-09 0.0000000000000000e+00  9.4174635858935234e-10 5.6024778075592186e-09 0.0000000000000000e+00  -7.3020982607760455e-11 7.8503888898468666e-09 0.0000000000000000e+00  -1.1024866531915591e-09 1.0532482865141191e-08 0.0000000000000000e+00  -1.9149055771584817e-09 1.3485157778856296e-08 0.0000000000000000e+00  -2.3068518935261437e-09 1.6258643239139654e-08 0.0000000000000000e+00  -2.6801704578634328e-09 1.8110750281966600e-08 0.0000000000000000e+00  -6.0110842349072588e-09 1.8729331822783487e-08 0.0000000000000000e+00  -4.1325412087403111e-09 -1.6136631793111133e-08 0.0000000000000000e+00  -2.2449337964923580e-09 -1.6792470086797309e-08 0.0000000000000000e+00  -2.7354854575887074e-09 -1.5656185679941693e-08 0.0000000000000000e+00  -3.3482489696434877e-09 -1.3569110482098453e-08 0.0000000000000000e+00  -3.5333645068797576e-09 -1.1097443590633754e-08 0.0000000000000000e+00  -3.3119241178892837e-09 -8.6620429805561922e-09 0.0000000000000000e+00  -2.8588067924967454e-09 -6.4724378069266257e-09 0.0000000000000000e+00  -2.3441146534455289e-09 -4.5801655791875247e-09 0.0000000000000000e+00  -1.8881796204434250e-09 -2.9490373434029447e-09 0.0000000000000000e+00  -1.5633228247620855e-09 -1.5023377259100059e-09 0.0000000000000000e+00  -1.4073776482556083e-09 -1.4744035789415893e-10 0.0000000000000000e+00  -1.4347687911223201e-09 1.2131043098757962e-09 0.0000000000000000e+00  -1.6411525234692761e-09 2.6760933112519520e-09 0.0000000000000000e+00  -2.0012116343856537e-09 4.3317738045463966e-09 0.0000000000000000e+00  -2.4603129403020653e-09 6.2519305030973361e-09 0.0000000000000000e+00  -2.9226863400580141e-09 8.4659207828130802e-09 0.0000000000000000e+00  -3.2450417691367953e-09 1.0920098970576032e-08 0.0000000000000000e+00  -3.2610928923963983e-09 1.3426146325433002e-08 0.0000000000000000e+00  -2.9061174339190277e-09 1.5632209356511159e-08 0.0000000000000000e+00  -2.6847632544110047e-09 1.7081215216678335e-08 0.0000000000000000e+00  -5.2016600166473895e-09 1.7951072458879440e-08 0.0000000000000000e+00  -3.6847557681548442e-09 -1.4481886312659799e-08 0.0000000000000000e+00  -2.3525487982640036e-09 -1.5233856634420381e-08 0.0000000000000000e+00  -3.1810765424838346e-09 -1.4454959485847408e-08 0.0000000000000000e+00  -4.2104419953476695e-09 -1.2892196264811055e-08 0.0000000000000000e+00  -4.9155958975087928e-09 -1.0907379304675011e-08 0.0000000000000000e+00  -5.2418488285180017e-09 -8.8057085405479148e-09 0.0000000000000000e+00  -5.2843572887039696e-09 -6.7834933155346987e-09 0.0000000000000000e+00  -5.1666227297839016e-09 -4.9271823026834304e-09 0.0000000000000000e+00  -4.9934974003664164e-09 -3.2442133835168209e-09 0.0000000000000000e+00  -4.8384245195392325e-09 -1.6946115841068074e-09 0.0000000000000000e+00  -4.7446608011539185e-09 -2.1373013105976974e-10 0.0000000000000000e+00  -4.7295171104278316e-09 1.2731317960477863e-09 0.0000000000000000e+00  -4.7867337134239870e-09 2.8403497005441057e-09 0.0000000000000000e+00  -4.8856328095197093e-09 4.5516573042497305e-09 0.0000000000000000e+00  -4.9679622278896051e-09 6.4461350562885673e-09 0.0000000000000000e+00  -4.9459563692150154e-09 8.5179238947630545e-09 0.0000000000000000e+00  -4.7097296912581497e-09 1.0690673010292082e-08 0.0000000000000000e+00  -4.1614869589703533e-09 1.2796238898659611e-08 0.0000000000000000e+00  -3.3222532594448901e-09 1.4581166729686296e-08 0.0000000000000000e+00  -2.7088647290632021e-09 1.5766916218821702e-08 0.0000000000000000e+00  -4.6133486268899733e-09 1.6773099883163190e-08 0.0000000000000000e+00  -3.3620849558858086e-09 -1.2682293017351263e-08 0.0000000000000000e+00  -2.4429217387805004e-09 -1.3512613220936051e-08 0.0000000000000000e+00  -3.5106233054272567e-09 -1.2981242549294351e-08 0.0000000000000000e+00  -4.8205445516354777e-09 -1.1806749793475236e-08 0.0000000000000000e+00  -5.8860826235234462e-09 -1.0230969167455274e-08 0.0000000000000000e+00  -6.6159611140289893e-09 -8.4684994696830635e-09 0.0000000000000000e+00  -7.0499174811341597e-09 -6.6798191824256011e-09 0.0000000000000000e+00  -7.2669750297246842e-09 -4.9558954753741636e-09 0.0000000000000000e+00  -7.3459219889736386e-09 -3.3270126219060667e-09 0.0000000000000000e+00  -7.3485690378144815e-09 -1.7803405698521726e-09 0.0000000000000000e+00  -7.3144093977346335e-09 -2.7702877511313158e-10 0.0000000000000000e+00  -7.2600209828260863e-09 1.2337702614301246e-09 0.0000000000000000e+00  -7.1795180600555250e-09 2.8031145224851448e-09 0.0000000000000000e+00  -7.0447531987668014e-09 4.4707567020460132e-09 0.0000000000000000e+00  -6.8059906226326709e-09 6.2521485247064188e-09 0.0000000000000000e+00  -6.3958257734391864e-09 8.1236314493714764e-09 0.0000000000000000e+00  -5.7417613540005410e-09 1.0008575457494026e-08 0.0000000000000000e+00  -4.7982425799786994e-09 1.1772187538517281e-08 0.0000000000000000e+00  -3.6320080356820855e-09 1.3238247273315961e-08 0.0000000000000000e+00  -2.7378442174756109e-09 1.4238240089145541e-08 0.0000000000000000e+00  -4.1580879449780043e-09 1.5322680769520636e-08 0.0000000000000000e+00  -3.1247219378092513e-09 -1.0773928704439223e-08 0.0000000000000000e+00  -2.5172680767453756e-09 -1.1669289351584318e-08 0.0000000000000000e+00  -3.7597587498859817e-09 -1.1321008139425475e-08 0.0000000000000000e+00  -5.2637835166287801e-09 -1.0445773431382323e-08 0.0000000000000000e+00  -6.5793039346271385e-09 -9.2126221855162725e-09 0.0000000000000000e+00  -7.5993560089166067e-09 -7.7714120508850969e-09 0.0000000000000000e+00  -8.3279517038793626e-09 -6.2455075140954921e-09 0.0000000000000000e+00  -8.8087258520230678e-09 -4.7162567275796275e-09 0.0000000000000000e+00  -9.0941842819993896e-09 -3.2222421336573845e-09 0.0000000000000000e+00  -9.2300238096771032e-09 -1.7676264226576310e-09 0.0000000000000000e+00  -9.2475384782612878e-09 -3.3357309882934864e-10 0.0000000000000000e+00  -9.1605611027424338e-09 1.1102719008854796e-09 0.0000000000000000e+00  -8.9647581920823664e-09 2.5949348413914207e-09 0.0000000000000000e+00  -8.6383994570172859e-09 4.1415403214624490e-09 0.0000000000000000e+00  -8.1450226539331355e-09 5.7506968661072470e-09 0.0000000000000000e+00  -7.4396481368755590e-09 7.3925700219493226e-09 0.0000000000000000e+00  -6.4815812054962266e-09 9.0003026466717702e-09 0.0000000000000000e+00  -5.2607535434595738e-09 1.0471745418450417e-08 0.0000000000000000e+00  -3.8663397806321620e-09 1.1686448203527140e-08 0.0000000000000000e+00  -2.7624334415477417e-09 1.2544590478185332e-08 0.0000000000000000e+00  -3.7936302325407935e-09 1.3673808053157433e-08 0.0000000000000000e+00  -2.9508843850630333e-09 -8.7843106073308725e-09 0.0000000000000000e+00  -2.5774501581870640e-09 -9.7342009244587770e-09 0.0000000000000000e+00  -3.9484312476068798e-09 -9.5299243027246443e-09 0.0000000000000000e+00  -5.5881527998427050e-09 -8.8960016889838332e-09 0.0000000000000000e+00  -7.0766475214771015e-09 -7.9555874643165859e-09 0.0000000000000000e+00  -8.3014473168619755e-09 -6.8132979847542575e-09 0.0000000000000000e+00  -9.2443567241566231e-09 -5.5607914723973782e-09 0.0000000000000000e+00  -9.9231696200481350e-09 -4.2649927929165346e-09 0.0000000000000000e+00  -1.0368201928971589e-08 -2.9642291595009315e-09 0.0000000000000000e+00  -1.0609378589798172e-08 -1.6714704914991223e-09 0.0000000000000000e+00  -1.0668760325363403e-08 -3.8139492802890662e-10 0.0000000000000000e+00  -1.0556735195211213e-08 9.2108964321260594e-10 0.0000000000000000e+00  -1.0270825613160975e-08 2.2520368064134487e-09 0.0000000000000000e+00  -9.7966405333615155e-09 3.6198381535922659e-09 0.0000000000000000e+00  -9.1111453266975335e-09 5.0172336756661608e-09 0.0000000000000000e+00  -8.1890165698944589e-09 6.4149906429158923e-09 0.0000000000000000e+00  -7.0136382127804860e-09 7.7592498351681946e-09 0.0000000000000000e+00  -5.5978897664373463e-09 8.9753849416818407e-09 0.0000000000000000e+00  -4.0412795326297946e-09 9.9821728428087210e-09 0.0000000000000000e+00  -2.7785730467357488e-09 1.0723831146507670e-08 0.0000000000000000e+00  -3.4978743380748769e-09 1.1876610081372600e-08 0.0000000000000000e+00  -2.8280452385444341e-09 -6.7355824982276572e-09 0.0000000000000000e+00  -2.6257845060974988e-09 -7.7314799331648974e-09 0.0000000000000000e+00  -4.0897228012653223e-09 -7.6469405996048490e-09 0.0000000000000000e+00  -5.8235490836923922e-09 -7.2166252232538137e-09 0.0000000000000000e+00  -7.4302504714791026e-09 -6.5334747913496856e-09 0.0000000000000000e+00  -8.7964526837436463e-09 -5.6703047793387075e-09 0.0000000000000000e+00  -9.8904531501211266e-09 -4.6933654563912012e-09 0.0000000000000000e+00  -1.0712126770162645e-08 -3.6546518411751386e-09 0.0000000000000000e+00  -1.1274772144646323e-08 -2.5877633229924496e-09 0.0000000000000000e+00  -1.1595067551754819e-08 -1.5086683354558814e-09 0.0000000000000000e+00  -1.1686692484336480e-08 -4.1982055556213793e-10 0.0000000000000000e+00  -1.1556697066306396e-08 6.8395870443214051e-10 0.0000000000000000e+00  -1.1204240607489739e-08 1.8089415199061538e-09 0.0000000000000000e+00  -1.0621508381692137e-08 2.9560441592722490e-09 0.0000000000000000e+00  -9.7968246118981662e-09 4.1151711799778864e-09 0.0000000000000000e+00  -8.7201945206850347e-09 5.2613165163523597e-09 0.0000000000000000e+00  -7.3920870309985179e-09 6.3537614077594201e-09 0.0000000000000000e+00  -5.8399132976792631e-09 7.3399163778274813e-09 0.0000000000000000e+00  -4.1676665966762387e-09 8.1662731635545921e-09 0.0000000000000000e+00  -2.7854841484239040e-09 8.8063513668258313e-09 0.0000000000000000e+00  -3.2582147806525370e-09 9.9683846717069991e-09 0.0000000000000000e+00  -2.7488597834121389e-09 -4.6459879130306227e-09 0.0000000000000000e+00  -2.6646897452218352e-09 -5.6808849230698930e-09 0.0000000000000000e+00  -4.1930473523774661e-09 -5.7008250031562215e-09 0.0000000000000000e+00  -5.9900197173717961e-09 -5.4496554862993721e-09 0.0000000000000000e+00  -7.6749977997782248e-09 -4.9993490621525424e-09 0.0000000000000000e+00  -9.1355500798821374e-09 -4.3998086057598885e-09 0.0000000000000000e+00  -1.0331967862394625e-08 -3.6971798739042316e-09 0.0000000000000000e+00  -1.1252237952196758e-08 -2.9295968460367830e-09 0.0000000000000000e+00  -1.1897498567260629e-08 -2.1238271562932737e-09 0.0000000000000000e+00  -1.2274348143824924e-08 -1.2950191816587904e-09 0.0000000000000000e+00  -1.2389737766256081e-08 -4.4894711048835542e-10 0.0000000000000000e+00  -1.2247874990909389e-08 4.1420608703532525e-10 0.0000000000000000e+00  -1.1849093944786706e-08 1.2953804625559096e-09 0.0000000000000000e+00  -1.1190657971043020e-08 2.1921866761373264e-09 0.0000000000000000e+00  -1.0269435987127590e-08 3.0951330597737854e-09 0.0000000000000000e+00  -9.0864239140189451e-09 3.9852769376867577e-09 0.0000000000000000e+00  -7.6536237109839537e-09 4.8341372595252292e-09 0.0000000000000000e+00  -6.0075363730963611e-09 5.6067133782689866e-09 0.0000000000000000e+00  -4.2540362850362138e-09 6.2696493093332235e-09 0.0000000000000000e+00  -2.7840733629580475e-09 6.8169507260172373e-09 0.0000000000000000e+00  -3.0668867295675881e-09 7.9781330838810207e-09 0.0000000000000000e+00  -2.7090987290206955e-09 -2.5308565848631720e-09 0.0000000000000000e+00  -2.6963723982589993e-09 -3.5989011013082726e-09 0.0000000000000000e+00  -4.2652965777254454e-09 -3.7137458629084672e-09 0.0000000000000000e+00  -6.1013359956142312e-09 -3.6260542715344495e-09 0.0000000000000000e+00  -7.8344802787527047e-09 -3.3922594402140930e-09 0.0000000000000000e+00  -9.3537860381836979e-09 -3.0450265704704503e-09 0.0000000000000000e+00  -1.0615068985243875e-08 -2.61429532495