<?xml version="1.0"?>
<VTKFile type="UnstructuredGrid"  version="0.1"  >
<UnstructuredGrid>
<Piece  NumberOfPoints="651" NumberOfCells="1200">
<Points>
<DataArray  type="Float64"  NumberOfComponents="3"  format="ascii">0 0 0  50000 0 0  100000 0 0  150000 0 0  200000 0 0  250000 0 0  300000 0 0  350000 0 0  400000 0 0  450000 0 0  500000 0 0  550000 0 0  600000 0 0  650000 0 0  700000 0 0  750000 0 0  800000 0 0  850000 0 0  900000 0 0  950000 0 0  1000000 0 0  0 50000 0  50000 50000 0  100000 50000 0  150000 50000 0  200000 50000 0  250000 50000 0  300000 50000 0  350000 50000 0  400000 50000 0  450000 50000 0  500000 50000 0  550000 50000 0  600000 50000 0  650000 50000 0  700000 50000 0  750000 50000 0  800000 50000 0  850000 50000 0  900000 50000 0  950000 50000 0  1000000 50000 0  0 100000 0  50000 100000 0  100000 100000 0  150000 100000 0  200000 100000 0  250000 100000 0  300000 100000 0  350000 100000 0  400000 100000 0  450000 100000 0  500000 100000 0  550000 100000 0  600000 100000 0  650000 100000 0  700000 100000 0  750000 100000 0  800000 100000 0  850000 100000 0  900000 100000 0  950000 100000 0  1000000 100000 0  0 150000 0  50000 150000 0  100000 150000 0  150000 150000 0  200000 150000 0  250000 150000 0  300000 150000 0  350000 150000 0  400000 150000 0  450000 150000 0  500000 150000 0  550000 150000 0  600000 150000 0  650000 150000 0  700000 150000 0  750000 150000 0  800000 150000 0  850000 150000 0  900000 150000 0  950000 150000 0  1000000 150000 0  0 200000 0  50000 200000 0  100000 200000 0  150000 200000 0  200000 200000 0  250000 200000 0  300000 200000 0  350000 200000 0  400000 200000 0  450000 200000 0  500000 200000 0  550000 200000 0  600000 200000 0  650000 200000 0  700000 200000 0  750000 200000 0  800000 200000 0  850000 200000 0  900000 200000 0  950000 200000 0  1000000 200000 0  0 250000 0  50000 250000 0  100000 250000 0  150000 250000 0  200000 250000 0  250000 250000 0  300000 250000 0  350000 250000 0  400000 250000 0  450000 250000 0  500000 250000 0  550000 250000 0  600000 250000 0  650000 250000 0  700000 250000 0  750000 250000 0  800000 250000 0  850000 250000 0  900000 250000 0  950000 250000 0  1000000 250000 0  0 300000 0  50000 300000 0  100000 300000 0  150000 300000 0  200000 300000 0  250000 300000 0  300000 300000 0  350000 300000 0  400000 300000 0  450000 300000 0  500000 300000 0  550000 300000 0  600000 300000 0  650000 300000 0  700000 300000 0  750000 300000 0  800000 300000 0  850000 300000 0  900000 300000 0  950000 300000 0  1000000 300000 0  0 350000 0  50000 350000 0  100000 350000 0  150000 350000 0  200000 350000 0  250000 350000 0  300000 350000 0  350000 350000 0  400000 350000 0  450000 350000 0  500000 350000 0  550000 350000 0  600000 350000 0  650000 350000 0  700000 350000 0  750000 350000 0  800000 350000 0  850000 350000 0  900000 350000 0  950000 350000 0  1000000 350000 0  0 400000 0  50000 400000 0  100000 400000 0  150000 400000 0  200000 400000 0  250000 400000 0  300000 400000 0  350000 400000 0  400000 400000 0  450000 400000 0  500000 400000 0  550000 400000 0  600000 400000 0  650000 400000 0  700000 400000 0  750000 400000 0  800000 400000 0  850000 400000 0  900000 400000 0  950000 400000 0  1000000 400000 0  0 450000 0  50000 450000 0  100000 450000 0  150000 450000 0  200000 450000 0  250000 450000 0  300000 450000 0  350000 450000 0  400000 450000 0  450000 450000 0  500000 450000 0  550000 450000 0  600000 450000 0  650000 450000 0  700000 450000 0  750000 450000 0  800000 450000 0  850000 450000 0  900000 450000 0  950000 450000 0  1000000 450000 0  0 500000 0  50000 500000 0  100000 500000 0  150000 500000 0  200000 500000 0  250000 500000 0  300000 500000 0  350000 500000 0  400000 500000 0  450000 500000 0  500000 500000 0  550000 500000 0  600000 500000 0  650000 500000 0  700000 500000 0  750000 500000 0  800000 500000 0  850000 500000 0  900000 500000 0  950000 500000 0  1000000 500000 0  0 550000 0  50000 550000 0  100000 550000 0  150000 550000 0  200000 550000 0  250000 550000 0  300000 550000 0  350000 550000 0  400000 550000 0  450000 550000 0  500000 550000 0  550000 550000 0  600000 550000 0  650000 550000 0  700000 550000 0  750000 550000 0  800000 550000 0  850000 550000 0  900000 550000 0  950000 550000 0  1000000 550000 0  0 600000 0  50000 600000 0  100000 600000 0  150000 600000 0  200000 600000 0  250000 600000 0  300000 600000 0  350000 600000 0  400000 600000 0  450000 600000 0  500000 600000 0  550000 600000 0  600000 600000 0  650000 600000 0  700000 600000 0  750000 600000 0  800000 600000 0  850000 600000 0  900000 600000 0  950000 600000 0  1000000 600000 0  0 650000 0  50000 650000 0  100000 650000 0  150000 650000 0  200000 650000 0  250000 650000 0  300000 650000 0  350000 650000 0  400000 650000 0  450000 650000 0  500000 650000 0  550000 650000 0  600000 650000 0  650000 650000 0  700000 650000 0  750000 650000 0  800000 650000 0  850000 650000 0  900000 650000 0  950000 650000 0  1000000 650000 0  0 700000 0  50000 700000 0  100000 700000 0  150000 700000 0  200000 700000 0  250000 700000 0  300000 700000 0  350000 700000 0  400000 700000 0  450000 700000 0  500000 700000 0  550000 700000 0  600000 700000 0  650000 700000 0  700000 700000 0  750000 700000 0  800000 700000 0  850000 700000 0  900000 700000 0  950000 700000 0  1000000 700000 0  0 750000 0  50000 750000 0  100000 750000 0  150000 750000 0  200000 750000 0  250000 750000 0  300000 750000 0  350000 750000 0  400000 750000 0  450000 750000 0  500000 750000 0  550000 750000 0  600000 750000 0  650000 750000 0  700000 750000 0  750000 750000 0  800000 750000 0  850000 750000 0  900000 750000 0  950000 750000 0  1000000 750000 0  0 800000 0  50000 800000 0  100000 800000 0  150000 800000 0  200000 800000 0  250000 800000 0  300000 800000 0  350000 800000 0  400000 800000 0  450000 800000 0  500000 800000 0  550000 800000 0  600000 800000 0  650000 800000 0  700000 800000 0  750000 800000 0  800000 800000 0  850000 800000 0  900000 800000 0  950000 800000 0  1000000 800000 0  0 850000 0  50000 850000 0  100000 850000 0  150000 850000 0  200000 850000 0  250000 850000 0  300000 850000 0  350000 850000 0  400000 850000 0  450000 850000 0  500000 850000 0  550000 850000 0  600000 850000 0  650000 850000 0  700000 850000 0  750000 850000 0  800000 850000 0  850000 850000 0  900000 850000 0  950000 850000 0  1000000 850000 0  0 900000 0  50000 900000 0  100000 900000 0  150000 900000 0  200000 900000 0  250000 900000 0  300000 900000 0  350000 900000 0  400000 900000 0  450000 900000 0  500000 900000 0  550000 900000 0  600000 900000 0  650000 900000 0  700000 900000 0  750000 900000 0  800000 900000 0  850000 900000 0  900000 900000 0  950000 900000 0  1000000 900000 0  0 950000 0  50000 950000 0  100000 950000 0  150000 950000 0  200000 950000 0  250000 950000 0  300000 950000 0  350000 950000 0  400000 950000 0  450000 950000 0  500000 950000 0  550000 950000 0  600000 950000 0  650000 950000 0  700000 950000 0  750000 950000 0  800000 950000 0  850000 950000 0  900000 950000 0  950000 950000 0  1000000 950000 0  0 1000000 0  50000 1000000 0  100000 1000000 0  150000 1000000 0  200000 1000000 0  250000 1000000 0  300000 1000000 0  350000 1000000 0  400000 1000000 0  450000 1000000 0  500000 1000000 0  550000 1000000 0  600000 1000000 0  650000 1000000 0  700000 1000000 0  750000 1000000 0  800000 1000000 0  850000 1000000 0  900000 1000000 0  950000 1000000 0  1000000 1000000 0  0 1050000 0  50000 1050000 0  100000 1050000 0  150000 1050000 0  200000 1050000 0  250000 1050000 0  300000 1050000 0  350000 1050000 0  400000 1050000 0  450000 1050000 0  500000 1050000 0  550000 1050000 0  600000 1050000 0  650000 1050000 0  700000 1050000 0  750000 1050000 0  800000 1050000 0  850000 1050000 0  900000 1050000 0  950000 1050000 0  1000000 1050000 0  0 1100000 0  50000 1100000 0  100000 1100000 0  150000 1100000 0  200000 1100000 0  250000 1100000 0  300000 1100000 0  350000 1100000 0  400000 1100000 0  450000 1100000 0  500000 1100000 0  550000 1100000 0  600000 1100000 0  650000 1100000 0  700000 1100000 0  750000 1100000 0  800000 1100000 0  850000 1100000 0  900000 1100000 0  950000 1100000 0  1000000 1100000 0  0 1150000 0  50000 1150000 0  100000 1150000 0  150000 1150000 0  200000 1150000 0  250000 1150000 0  300000 1150000 0  350000 1150000 0  400000 1150000 0  450000 1150000 0  500000 1150000 0  550000 1150000 0  600000 1150000 0  650000 1150000 0  700000 1150000 0  750000 1150000 0  800000 1150000 0  850000 1150000 0  900000 1150000 0  950000 1150000 0  1000000 1150000 0  0 1200000 0  50000 1200000 0  100000 1200000 0  150000 1200000 0  200000 1200000 0  250000 1200000 0  300000 1200000 0  350000 1200000 0  400000 1200000 0  450000 1200000 0  500000 1200000 0  550000 1200000 0  600000 1200000 0  650000 1200000 0  700000 1200000 0  750000 1200000 0  800000 1200000 0  850000 1200000 0  900000 1200000 0  950000 1200000 0  1000000 1200000 0  0 1250000 0  50000 1250000 0  100000 1250000 0  150000 1250000 0  200000 1250000 0  250000 1250000 0  300000 1250000 0  350000 1250000 0  400000 1250000 0  450000 1250000 0  500000 1250000 0  550000 1250000 0  600000 1250000 0  650000 1250000 0  700000 1250000 0  750000 1250000 0  800000 1250000 0  850000 1250000 0  900000 1250000 0  950000 1250000 0  1000000 1250000 0  0 1300000 0  50000 1300000 0  100000 1300000 0  150000 1300000 0  200000 1300000 0  250000 1300000 0  300000 1300000 0  350000 1300000 0  400000 1300000 0  450000 1300000 0  500000 1300000 0  550000 1300000 0  600000 1300000 0  650000 1300000 0  700000 1300000 0  750000 1300000 0  800000 1300000 0  850000 1300000 0  900000 1300000 0  950000 1300000 0  1000000 1300000 0  0 1350000 0  50000 1350000 0  100000 1350000 0  150000 1350000 0  200000 1350000 0  250000 1350000 0  300000 1350000 0  350000 1350000 0  400000 1350000 0  450000 1350000 0  500000 1350000 0  550000 1350000 0  600000 1350000 0  650000 1350000 0  700000 135
[...]
<PointData  Vectors="f_7489"> 
<DataArray  type="Float64"  Name="f_7489"  NumberOfComponents="3" format="ascii">-2.4427100203606570e-08 -1.0289824107937875e-08 0.0000000000000000e+00  4.8639192587238338e-08 -6.3778417886708981e-09 0.0000000000000000e+00  4.2924807064642064e-08 -2.0890329659252562e-09 0.0000000000000000e+00  4.0482709321549287e-08 -7.3521753484708114e-10 0.0000000000000000e+00  3.9288824541294465e-08 -2.7206056338092700e-10 0.0000000000000000e+00  3.8510831308562293e-08 -8.1656583954581592e-11 0.0000000000000000e+00  3.7952222567664738e-08 3.2567869503994319e-12 0.0000000000000000e+00  3.7556384151135002e-08 4.0035680548608916e-11 0.0000000000000000e+00  3.7305643878860368e-08 5.3208029996669923e-11 0.0000000000000000e+00  3.7195574352768239e-08 5.5938201980851239e-11 0.0000000000000000e+00  3.7227256404670522e-08 5.7367649824715154e-11 0.0000000000000000e+00  3.7405514891165172e-08 6.5938907353940493e-11 0.0000000000000000e+00  3.7740505615014554e-08 9.1915931509920892e-11 0.0000000000000000e+00  3.8253753573813454e-08 1.5092529458657112e-10 0.0000000000000000e+00  3.8994217899153986e-08 2.7126535841444257e-10 0.0000000000000000e+00  4.0080806960477801e-08 5.1201483902723769e-10 0.0000000000000000e+00  4.1814722861677060e-08 1.0116763457538381e-09 0.0000000000000000e+00  4.4942839756653823e-08 2.1148156418533937e-09 0.0000000000000000e+00  5.0794827918228747e-08 4.6388865289354160e-09 0.0000000000000000e+00  5.8041119222766514e-08 9.1513108482125663e-09 0.0000000000000000e+00  -1.6412338731803128e-08 7.0454999068393734e-09 0.0000000000000000e+00  -1.8194020030590165e-08 -1.5845965006521360e-08 0.0000000000000000e+00  7.2315653048889694e-09 -1.1288598261721819e-08 0.0000000000000000e+00  1.8118607771049402e-08 -5.2537966590333342e-09 0.0000000000000000e+00  2.3190356297602024e-08 -2.3994116251904097e-09 0.0000000000000000e+00  2.5789453871305000e-08 -1.1446679223645346e-09 0.0000000000000000e+00  2.7260542730088946e-08 -5.5331988439197956e-10 0.0000000000000000e+00  2.8116807685916657e-08 -2.5716674190306435e-10 0.0000000000000000e+00  2.8618390435734822e-08 -1.0600753705473007e-10 0.0000000000000000e+00  2.8908897333871170e-08 -3.0828423929088191e-11 0.0000000000000000e+00  2.9068517209270381e-08 5.7034910349919122e-12 0.0000000000000000e+00  2.9139155582850680e-08 2.8134335958766238e-11 0.0000000000000000e+00  2.9135952565732520e-08 5.6930922115144834e-11 0.0000000000000000e+00  2.9051274328598234e-08 1.1425150936273426e-10 0.0000000000000000e+00  2.8853180806630592e-08 2.3055937934985274e-10 0.0000000000000000e+00  2.8477360243489613e-08 4.5641661687286742e-10 0.0000000000000000e+00  2.7806487877425721e-08 8.8839724450827813e-10 0.0000000000000000e+00  2.6614969539232312e-08 1.7299745671193748e-09 0.0000000000000000e+00  2.4391573718985558e-08 3.4273173599706218e-09 0.0000000000000000e+00  1.9692332412198517e-08 6.8708745018647245e-09 0.0000000000000000e+00  8.2709820204894202e-09 1.3024674712355765e-08 0.0000000000000000e+00  -1.8381181357334496e-08 1.0975851819747767e-08 0.0000000000000000e+00  -1.1223158210213770e-08 -1.9451140388702306e-08 0.0000000000000000e+00  -2.7086169652345735e-10 -1.8456038714623101e-08 0.0000000000000000e+00  5.8329470662842139e-09 -1.1358546373134234e-08 0.0000000000000000e+00  1.0711380425753069e-08 -6.5843147948754389e-09 0.0000000000000000e+00  1.4525707435547278e-08 -3.8203551925474844e-09 0.0000000000000000e+00  1.7174334475032891e-08 -2.2468947676367874e-09 0.0000000000000000e+00  1.8945957441514404e-08 -1.3250231730251144e-09 0.0000000000000000e+00  2.0106011042284770e-08 -7.6411657153763567e-10 0.0000000000000000e+00  2.0833815828784811e-08 -4.0531207315553774e-10 0.0000000000000000e+00  2.1239856095998708e-08 -1.5432210800759439e-10 0.0000000000000000e+00  2.1384172121619694e-08 5.3093921901055140e-11 0.0000000000000000e+00  2.1287377037467743e-08 2.7001516829527341e-10 0.0000000000000000e+00  2.0934649019121728e-08 5.5150286548823483e-10 0.0000000000000000e+00  2.0273342947541588e-08 9.6823271582348981e-10 0.0000000000000000e+00  1.9203628268492161e-08 1.6265505592557717e-09 0.0000000000000000e+00  1.7560243173913325e-08 2.7026661226695850e-09 0.0000000000000000e+00  1.5084008102967920e-08 4.4974209578274768e-09 0.0000000000000000e+00  1.1393334365417918e-08 7.4848181489438687e-09 0.0000000000000000e+00  6.0227649885543936e-09 1.2131495412813888e-08 0.0000000000000000e+00  -1.2877388582319166e-09 1.7584841868244784e-08 0.0000000000000000e+00  -1.3215332746316435e-08 1.4718516349309534e-08 0.0000000000000000e+00  -7.5294025320758110e-09 -2.0076066164845425e-08 0.0000000000000000e+00  -1.5569766684914480e-09 -1.9880812042822565e-08 0.0000000000000000e+00  1.1269719230714450e-09 -1.5320826793066241e-08 0.0000000000000000e+00  3.8938759696218691e-09 -1.0456887765014933e-08 0.0000000000000000e+00  6.7844237705909846e-09 -6.8812901684658513e-09 0.0000000000000000e+00  9.3011133658190076e-09 -4.4689722045260101e-09 0.0000000000000000e+00  1.1243371080535262e-08 -2.8651857527082352e-09 0.0000000000000000e+00  1.2634177208230260e-08 -1.7796172021452582e-09 0.0000000000000000e+00  1.3557244180731918e-08 -1.0120971563228406e-09 0.0000000000000000e+00  1.4086986461545270e-08 -4.2477553531347676e-10 0.0000000000000000e+00  1.4270625496354745e-08 8.5000792772185841e-11 0.0000000000000000e+00  1.4125445227771289e-08 6.0484811102631059e-10 0.0000000000000000e+00  1.3638965229512881e-08 1.2233548763752397e-09 0.0000000000000000e+00  1.2769164249282701e-08 2.0455707971942826e-09 0.0000000000000000e+00  1.1445981602489110e-08 3.2105555643218100e-09 0.0000000000000000e+00  9.5802978428255667e-09 4.9093801316365655e-09 0.0000000000000000e+00  7.0972474476216556e-09 7.3857700997554766e-09 0.0000000000000000e+00  4.0279890611467182e-09 1.0848908328569457e-08 0.0000000000000000e+00  6.6617003941933954e-10 1.5107073889686308e-08 0.0000000000000000e+00  -2.6241157270106537e-09 1.8747465584744889e-08 0.0000000000000000e+00  -8.9148095192703482e-09 1.7555466110895526e-08 0.0000000000000000e+00  -5.6641076032438565e-09 -1.9485278043530947e-08 0.0000000000000000e+00  -1.8924158850971914e-09 -1.9616144898453847e-08 0.0000000000000000e+00  -9.1769030031906905e-10 -1.6725229024896759e-08 0.0000000000000000e+00  2.1394172812419647e-10 -1.2825177171553830e-08 0.0000000000000000e+00  1.8462241386801706e-09 -9.2785500323788125e-09 0.0000000000000000e+00  3.6143954445170842e-09 -6.4941359014065946e-09 0.0000000000000000e+00  5.1954289134439661e-09 -4.4178354337310282e-09 0.0000000000000000e+00  6.4442674434425577e-09 -2.8771086724344718e-09 0.0000000000000000e+00  7.3266872559173238e-09 -1.7014272523488982e-09 0.0000000000000000e+00  7.8517588390530403e-09 -7.4730503811343791e-10 0.0000000000000000e+00  8.0353142750844528e-09 1.0576299639593561e-10 0.0000000000000000e+00  7.8849152468237516e-09 9.6617660203206535e-10 0.0000000000000000e+00  7.3956991098991853e-09 1.9416767129337411e-09 0.0000000000000000e+00  6.5529981464749362e-09 3.1496354530179140e-09 0.0000000000000000e+00  5.3429713448322961e-09 4.7236420617303987e-09 0.0000000000000000e+00  3.7772931780273719e-09 6.8078203561271694e-09 0.0000000000000000e+00  1.9412587567287164e-09 9.5155228679176485e-09 0.0000000000000000e+00  6.2343943723074126e-11 1.2804642324867664e-08 0.0000000000000000e+00  -1.4941431123851101e-09 1.6223551671121601e-08 0.0000000000000000e+00  -2.7368513411841449e-09 1.8690797446265042e-08 0.0000000000000000e+00  -6.6292513395498551e-09 1.8536513236227602e-08 0.0000000000000000e+00  -4.6042729201406480e-09 -1.8353838806371774e-08 0.0000000000000000e+00  -2.0643221849803064e-09 -1.8688779336553211e-08 0.0000000000000000e+00  -1.9923660071518042e-09 -1.6741208503310634e-08 0.0000000000000000e+00  -1.9086351270079415e-09 -1.3783718381430630e-08 0.0000000000000000e+00  -1.3148892399863742e-09 -1.0678264804919559e-08 0.0000000000000000e+00  -3.7915435336633943e-10 -7.9202643729810509e-09 0.0000000000000000e+00  6.3185069006475678e-10 -5.6461686424498657e-09 0.0000000000000000e+00  1.5284401704148305e-09 -3.8151995865911050e-09 0.0000000000000000e+00  2.2103464568128448e-09 -2.3230541309828793e-09 0.0000000000000000e+00  2.6345069002459585e-09 -1.0523707996121234e-09 0.0000000000000000e+00  2.7861034518457022e-09 1.1130094125284565e-10 0.0000000000000000e+00  2.6620364101449233e-09 1.2778316085431526e-09 0.0000000000000000e+00  2.2651579985831462e-09 2.5552766565295053e-09 0.0000000000000000e+00  1.6073381280365552e-09 4.0516470133423303e-09 0.0000000000000000e+00  7.2151860179087867e-10 5.8702190148173873e-09 0.0000000000000000e+00  -3.1605001308550502e-10 8.0893465646334646e-09 0.0000000000000000e+00  -1.3564797679474763e-09 1.0712272635845726e-08 0.0000000000000000e+00  -2.1663366214055308e-09 1.3573983929136583e-08 0.0000000000000000e+00  -2.5259206251697309e-09 1.6230270378817288e-08 0.0000000000000000e+00  -2.7156411823836395e-09 1.7985239976095935e-08 0.0000000000000000e+00  -5.2914451597339650e-09 1.8287634226218764e-08 0.0000000000000000e+00  -3.9270559780872194e-09 -1.6923321297867773e-08 0.0000000000000000e+00  -2.1955942884257783e-09 -1.7399413887456806e-08 0.0000000000000000e+00  -2.6620398426121608e-09 -1.6017811325581155e-08 0.0000000000000000e+00  -3.2405356091054825e-09 -1.3768644658762514e-08 0.0000000000000000e+00  -3.4025334006030251e-09 -1.1181307015874898e-08 0.0000000000000000e+00  -3.1790476273898019e-09 -8.6608970277519121e-09 0.0000000000000000e+00  -2.7444521475862074e-09 -6.4050669180252763e-09 0.0000000000000000e+00  -2.2646241085797208e-09 -4.4576681261887956e-09 0.0000000000000000e+00  -1.8548443789459145e-09 -2.7782820327437235e-09 0.0000000000000000e+00  -1.5826289714987252e-09 -1.2885081904089628e-09 0.0000000000000000e+00  -1.4814843160827342e-09 1.0406602296678105e-10 0.0000000000000000e+00  -1.5619589198310161e-09 1.4951078696488265e-09 0.0000000000000000e+00  -1.8162793168468710e-09 2.9782140958369450e-09 0.0000000000000000e+00  -2.2162624966218969e-09 4.6391734293636942e-09 0.0000000000000000e+00  -2.7051674933849784e-09 6.5444073230894602e-09 0.0000000000000000e+00  -3.1859257011086928e-09 8.7176585876843604e-09 0.0000000000000000e+00  -3.5141395074647408e-09 1.1100264490765834e-08 0.0000000000000000e+00  -3.5198022887673762e-09 1.3500154568058055e-08 0.0000000000000000e+00  -3.1196047028748068e-09 1.5563774558736579e-08 0.0000000000000000e+00  -2.7009612190043816e-09 1.6861242842284532e-08 0.0000000000000000e+00  -4.4266820002392058e-09 1.7380068405114599e-08 0.0000000000000000e+00  -3.4568618238218584e-09 -1.5293524747852878e-08 0.0000000000000000e+00  -2.3040573023114408e-09 -1.5871503227524619e-08 0.0000000000000000e+00  -3.1276265596340754e-09 -1.4854217198152927e-08 0.0000000000000000e+00  -4.1380378776441189e-09 -1.3119075152508217e-08 0.0000000000000000e+00  -4.8302102281662502e-09 -1.1000110018810748e-08 0.0000000000000000e+00  -5.1585648354894351e-09 -8.7938160708274228e-09 0.0000000000000000e+00  -5.2192083883267119e-09 -6.6885794852979916e-09 0.0000000000000000e+00  -5.1332011320894784e-09 -4.7646901087349417e-09 0.0000000000000000e+00  -5.0015834798974964e-09 -3.0255985331044823e-09 0.0000000000000000e+00  -4.8936519808365717e-09 -1.4293898051444353e-09 0.0000000000000000e+00  -4.8486590726789306e-09 8.8752535986000518e-11 0.0000000000000000e+00  -4.8802555821932136e-09 1.6021699151530832e-09 0.0000000000000000e+00  -4.9789786900970062e-09 3.1825412015157634e-09 0.0000000000000000e+00  -5.1115042919575617e-09 4.8897751179992968e-09 0.0000000000000000e+00  -5.2175436520308989e-09 6.7582879251442160e-09 0.0000000000000000e+00  -5.2077581829492649e-09 8.7770648747832375e-09 0.0000000000000000e+00  -4.9704689026586310e-09 1.0864322578680855e-08 0.0000000000000000e+00  -4.4034976937997888e-09 1.2845991778602726e-08 0.0000000000000000e+00  -3.5100749596799665e-09 1.4462204463757707e-08 0.0000000000000000e+00  -2.7002697417710246e-09 1.5448904747113338e-08 0.0000000000000000e+00  -3.8268708221909665e-09 1.6087698740085295e-08 0.0000000000000000e+00  -3.1129717315119868e-09 -1.3518145956095719e-08 0.0000000000000000e+00  -2.3931684057446087e-09 -1.4171656608922644e-08 0.0000000000000000e+00  -3.4699026373229155e-09 -1.3404187827714679e-08 0.0000000000000000e+00  -4.7723799440867381e-09 -1.2049521804703981e-08 0.0000000000000000e+00  -5.8336678022371359e-09 -1.0326394896755918e-08 0.0000000000000000e+00  -6.5702242977288770e-09 -8.4445149560928723e-09 0.0000000000000000e+00  -7.0229143869454863e-09 -6.5594048402074854e-09 0.0000000000000000e+00  -7.2692407737740123e-09 -4.7575495184666771e-09 0.0000000000000000e+00  -7.3851459744852491e-09 -3.0659262795029666e-09 0.0000000000000000e+00  -7.4290456744751051e-09 -1.4698592848291969e-09 0.0000000000000000e+00  -7.4369648926341902e-09 6.9877233890816542e-11 0.0000000000000000e+00  -7.4222179051662692e-09 1.6031356918069462e-09 0.0000000000000000e+00  -7.3760233853084238e-09 3.1787473886196934e-09 0.0000000000000000e+00  -7.2677966653118822e-09 4.8331712726215172e-09 0.0000000000000000e+00  -7.0458228036542652e-09 6.5776753236355421e-09 0.0000000000000000e+00  -6.6410076080224662e-09 8.3836443705771641e-09 0.0000000000000000e+00  -5.9789273822139345e-09 1.0168609864220258e-08 0.0000000000000000e+00  -5.0100631570481348e-09 1.1790585672998628e-08 0.0000000000000000e+00  -3.7856816406796128e-09 1.3064825920345833e-08 0.0000000000000000e+00  -2.7061109094090969e-09 1.3829616978735627e-08 0.0000000000000000e+00  -3.3907874636675458e-09 1.4544254129862910e-08 0.0000000000000000e+00  -2.8542207783172514e-09 -1.1633187582430549e-08 0.0000000000000000e+00  -2.4650153547403773e-09 -1.2343538039714627e-08 0.0000000000000000e+00  -3.7272589946430227e-09 -1.1757879333483416e-08 0.0000000000000000e+00  -5.2322693002975410e-09 -1.0695381481075499e-08 0.0000000000000000e+00  -6.5504094723416369e-09 -9.3048822195868363e-09 0.0000000000000000e+00  -7.5811815375767722e-09 -7.7332477297641273e-09 0.0000000000000000e+00  -8.3293726175383459e-09 -6.1007776132415517e-09 0.0000000000000000e+00  -8.8374426227610298e-09 -4.4856890276514333e-09 0.0000000000000000e+00  -9.1556811859784254e-09 -2.9239933180158868e-09 0.0000000000000000e+00  -9.3270398146401531e-09 -1.4182612672465526e-09 0.0000000000000000e+00  -9.3799114217776788e-09 5.0783943617669663e-11 0.0000000000000000e+00  -9.3253316204739946e-09 1.5127639683375454e-09 0.0000000000000000e+00  -9.1564402868029578e-09 2.9968570386089279e-09 0.0000000000000000e+00  -8.8493391560643772e-09 4.5213144310511324e-09 0.0000000000000000e+00  -8.3657619313688152e-09 6.0829244416859776e-09 0.0000000000000000e+00  -7.6591859929299854e-09 7.6470772741496550e-09 0.0000000000000000e+00  -6.6873194656063627e-09 9.1409855176885817e-09 0.0000000000000000e+00  -5.4371126779100612e-09 1.0455015661276549e-08 0.0000000000000000e+00  -3.9849577125432737e-09 1.1459953055330493e-08 0.0000000000000000e+00  -2.7123401022554595e-09 1.2058258676128033e-08 0.0000000000000000e+00  -3.0642573020460018e-09 1.2824496446670737e-08 0.0000000000000000e+00  -2.6578432433689292e-09 -9.6659270137236429e-09 0.0000000000000000e+00  -2.5219623052700952e-09 -1.0419328303632760e-08 0.0000000000000000e+00  -3.9215050831790313e-09 -9.9738398412610717e-09 0.0000000000000000e+00  -5.5684163279891244e-09 -9.1456600747828238e-09 0.0000000000000000e+00  -7.0647048432605535e-09 -8.0398560542200463e-09 0.0000000000000000e+00  -8.3034149939305804e-09 -6.7589271877789957e-09 0.0000000000000000e+00  -9.2666290057363342e-09 -5.3925249906058651e-09 0.0000000000000000e+00  -9.9710045127015918e-09 -4.0053540951641951e-09 0.0000000000000000e+00  -1.0445010654566227e-08 -2.6337612851487259e-09 0.0000000000000000e+00  -1.0716331501958351e-08 -1.2893877011013264e-09 0.0000000000000000e+00  -1.0804646388321353e-08 3.3527614549760364e-11 0.0000000000000000e+00  -1.0718023850495265e-08 1.3495272749035042e-09 0.0000000000000000e+00  -1.0451873339379714e-08 2.6731139840770872e-09 0.0000000000000000e+00  -9.9899851917049524e-09 4.0101530448614390e-09 0.0000000000000000e+00  -9.3078347115207052e-09 5.3498997407041941e-09 0.0000000000000000e+00  -8.3789185270205303e-09 6.6586303739559379e-09 0.0000000000000000e+00  -7.1856090946253659e-09 7.8768264389073741e-09 0.0000000000000000e+00  -5.7389250970419809e-09 8.9228183984015131e-09 0.0000000000000000e+00  -4.1280211954365231e-09 9.7074332677032091e-09 0.0000000000000000e+00  -2.7155493362205540e-09 1.0174345444880716e-08 0.0000000000000000e+00  -2.8161363300653069e-09 1.0976400685814771e-08 0.0000000000000000e+00  -2.5105628673419281e-09 -7.6381592672601233e-09 0.0000000000000000e+00  -2.5666417616077907e-09 -8.4241640501233393e-09 0.0000000000000000e+00  -4.0670275659663541e-09 -8.0928955668525500e-09 0.0000000000000000e+00  -5.8127996527087563e-09 -7.4613051959737723e-09 0.0000000000000000e+00  -7.4311675853565649e-09 -6.6060330750400231e-09 0.0000000000000000e+00  -8.8136467667840152e-09 -5.5981051254538516e-09 0.0000000000000000e+00  -9.9283446066190036e-09 -4.5022527994738659e-09 0.0000000000000000e+00  -1.0773911838772269e-08 -3.3687570810806276e-09 0.0000000000000000e+00  -1.1362012306461144e-08 -2.2296107518156051e-09 0.0000000000000000e+00  -1.1707469148449162e-08 -1.0996368329694604e-09 0.0000000000000000e+00  -1.1822038049761131e-08 1.9149647592397881e-11 0.0000000000000000e+00  -1.1710914791783617e-08 1.1315240508687161e-09 0.0000000000000000e+00  -1.1371586915955440e-08 2.2424574421331639e-09 0.0000000000000000e+00  -1.0794834920459891e-08 3.3506545917775427e-09 0.0000000000000000e+00  -9.9679070576765931e-09 4.4428911478481373e-09 0.0000000000000000e+00  -8.8801088653053658e-09 5.4900797346169764e-09 0.0000000000000000e+00  -7.5315526827843438e-09 6.4463912208326604e-09 0.0000000000000000e+00  -5.9487935674503970e-09 7.2530538375942739e-09 0.0000000000000000e+00  -4.2274094261733158e-09 7.8498487011961004e-09 0.0000000000000000e+00  -2.7144072413215261e-09 8.2076985017103329e-09 0.0000000000000000e+00  -2.6276829863799988e-09 9.0340492026911304e-09 0.0000000000000000e+00  -2.4044337853704863e-09 -5.5676862885817641e-09 0.0000000000000000e+00  -2.6017035699240266e-09 -6.3781999879854582e-09 0.0000000000000000e+00  -4.1742156984520497e-09 -6.1449117482820333e-09 0.0000000000000000e+00  -5.9870871083432048e-09 -5.6855209445864965e-09 0.0000000000000000e+00  -7.6867364271592445e-09 -5.0573798609540349e-09 0.0000000000000000e+00  -9.1652833976120113e-09 -4.3086250197545341e-09 0.0000000000000000e+00  -1.0382458940799927e-08 -3.4839879208786978e-09 0.0000000000000000e+00  -1.1324917610737543e-08 -2.6200659030613627e-09 0.0000000000000000e+00  -1.1992304018020424e-08 -1.7421724713448181e-09 0.0000000000000000e+00  -1.2389675377010070e-08 -8.6437470528115523e-10 0.0000000000000000e+00  -1.2522468686058246e-08 8.0365277911062924e-12 0.0000000000000000e+00  -1.2393485160508888e-08 8.7462239238931598e-10 0.0000000000000000e+00  -1.2001839982609465e-08 1.7352562403554069e-09 0.0000000000000000e+00  -1.1343840107682277e-08 2.5856456601579255e-09 0.0000000000000000e+00  -1.0415737031883418e-08 3.4135563571927557e-09 0.0000000000000000e+00  -9.2183315886675462e-09 4.1964654861182288e-09 0.0000000000000000e+00  -7.7638696603106788e-09 4.9014840558942450e-09 0.0000000000000000e+00  -6.0887777112546560e-09 5.4884498436668186e-09 0.0000000000000000e+00  -4.2919533498215131e-09 5.9185721116798846e-09 0.0000000000000000e+00  -2.7088456753869920e-09 6.1814858593395286e-09 0.0000000000000000e+00  -2.4873168004063999e-09 7.0231780329704431e-09 0.0000000000000000e+00  -2.3347244878224552e-09 -3.4692936379726632e-09 0.0000000000000000e+00  -2.6295596539401583e-09 -4.2978593692433715e-09 0.0000000000000000e+00  -4.2507519442369101e-09 -4.1525493099634139e-09 0.0000000000000000e+00  -6.1063553422029122e-09 -3.8499561911611755e-09 0.0000000000000000e+00  -7.8566935105537133e-09 -3.4335640930725240e-09 0.0000000000000000e+00  -9.3952671674408227e-09 -2.9341034267751659e-09 0.0000000000000000e+00  -1.0677078699532316e-08 -2.3799332435403699e