<?xml version="1.0"?>
<VTKFile type="UnstructuredGrid"  version="0.1"  >
<UnstructuredGrid>
<Piece  NumberOfPoints="651" NumberOfCells="1200">
<Points>
<DataArray  type="Float64"  NumberOfComponents="3"  format="ascii">0 0 0  50000 0 0  100000 0 0  150000 0 0  200000 0 0  250000 0 0  300000 0 0  350000 0 0  400000 0 0  450000 0 0  500000 0 0  550000 0 0  600000 0 0  650000 0 0  700000 0 0  750000 0 0  800000 0 0  850000 0 0  900000 0 0  950000 0 0  1000000 0 0  0 50000 0  50000 50000 0  100000 50000 0  150000 50000 0  200000 50000 0  250000 50000 0  300000 50000 0  350000 50000 0  400000 50000 0  450000 50000 0  500000 50000 0  550000 50000 0  600000 50000 0  650000 50000 0  700000 50000 0  750000 50000 0  800000 50000 0  850000 50000 0  900000 50000 0  950000 50000 0  1000000 50000 0  0 100000 0  50000 100000 0  100000 100000 0  150000 100000 0  200000 100000 0  250000 100000 0  300000 100000 0  350000 100000 0  400000 100000 0  450000 100000 0  500000 100000 0  550000 100000 0  600000 100000 0  650000 100000 0  700000 100000 0  750000 100000 0  800000 100000 0  850000 100000 0  900000 100000 0  950000 100000 0  1000000 100000 0  0 150000 0  50000 150000 0  100000 150000 0  150000 150000 0  200000 150000 0  250000 150000 0  300000 150000 0  350000 150000 0  400000 150000 0  450000 150000 0  500000 150000 0  550000 150000 0  600000 150000 0  650000 150000 0  700000 150000 0  750000 150000 0  800000 150000 0  850000 150000 0  900000 150000 0  950000 150000 0  1000000 150000 0  0 200000 0  50000 200000 0  100000 200000 0  150000 200000 0  200000 200000 0  250000 200000 0  300000 200000 0  350000 200000 0  400000 200000 0  450000 200000 0  500000 200000 0  550000 200000 0  600000 200000 0  650000 200000 0  700000 200000 0  750000 200000 0  800000 200000 0  850000 200000 0  900000 200000 0  950000 200000 0  1000000 200000 0  0 250000 0  50000 250000 0  100000 250000 0  150000 250000 0  200000 250000 0  250000 250000 0  300000 250000 0  350000 250000 0  400000 250000 0  450000 250000 0  500000 250000 0  550000 250000 0  600000 250000 0  650000 250000 0  700000 250000 0  750000 250000 0  800000 250000 0  850000 250000 0  900000 250000 0  950000 250000 0  1000000 250000 0  0 300000 0  50000 300000 0  100000 300000 0  150000 300000 0  200000 300000 0  250000 300000 0  300000 300000 0  350000 300000 0  400000 300000 0  450000 300000 0  500000 300000 0  550000 300000 0  600000 300000 0  650000 300000 0  700000 300000 0  750000 300000 0  800000 300000 0  850000 300000 0  900000 300000 0  950000 300000 0  1000000 300000 0  0 350000 0  50000 350000 0  100000 350000 0  150000 350000 0  200000 350000 0  250000 350000 0  300000 350000 0  350000 350000 0  400000 350000 0  450000 350000 0  500000 350000 0  550000 350000 0  600000 350000 0  650000 350000 0  700000 350000 0  750000 350000 0  800000 350000 0  850000 350000 0  900000 350000 0  950000 350000 0  1000000 350000 0  0 400000 0  50000 400000 0  100000 400000 0  150000 400000 0  200000 400000 0  250000 400000 0  300000 400000 0  350000 400000 0  400000 400000 0  450000 400000 0  500000 400000 0  550000 400000 0  600000 400000 0  650000 400000 0  700000 400000 0  750000 400000 0  800000 400000 0  850000 400000 0  900000 400000 0  950000 400000 0  1000000 400000 0  0 450000 0  50000 450000 0  100000 450000 0  150000 450000 0  200000 450000 0  250000 450000 0  300000 450000 0  350000 450000 0  400000 450000 0  450000 450000 0  500000 450000 0  550000 450000 0  600000 450000 0  650000 450000 0  700000 450000 0  750000 450000 0  800000 450000 0  850000 450000 0  900000 450000 0  950000 450000 0  1000000 450000 0  0 500000 0  50000 500000 0  100000 500000 0  150000 500000 0  200000 500000 0  250000 500000 0  300000 500000 0  350000 500000 0  400000 500000 0  450000 500000 0  500000 500000 0  550000 500000 0  600000 500000 0  650000 500000 0  700000 500000 0  750000 500000 0  800000 500000 0  850000 500000 0  900000 500000 0  950000 500000 0  1000000 500000 0  0 550000 0  50000 550000 0  100000 550000 0  150000 550000 0  200000 550000 0  250000 550000 0  300000 550000 0  350000 550000 0  400000 550000 0  450000 550000 0  500000 550000 0  550000 550000 0  600000 550000 0  650000 550000 0  700000 550000 0  750000 550000 0  800000 550000 0  850000 550000 0  900000 550000 0  950000 550000 0  1000000 550000 0  0 600000 0  50000 600000 0  100000 600000 0  150000 600000 0  200000 600000 0  250000 600000 0  300000 600000 0  350000 600000 0  400000 600000 0  450000 600000 0  500000 600000 0  550000 600000 0  600000 600000 0  650000 600000 0  700000 600000 0  750000 600000 0  800000 600000 0  850000 600000 0  900000 600000 0  950000 600000 0  1000000 600000 0  0 650000 0  50000 650000 0  100000 650000 0  150000 650000 0  200000 650000 0  250000 650000 0  300000 650000 0  350000 650000 0  400000 650000 0  450000 650000 0  500000 650000 0  550000 650000 0  600000 650000 0  650000 650000 0  700000 650000 0  750000 650000 0  800000 650000 0  850000 650000 0  900000 650000 0  950000 650000 0  1000000 650000 0  0 700000 0  50000 700000 0  100000 700000 0  150000 700000 0  200000 700000 0  250000 700000 0  300000 700000 0  350000 700000 0  400000 700000 0  450000 700000 0  500000 700000 0  550000 700000 0  600000 700000 0  650000 700000 0  700000 700000 0  750000 700000 0  800000 700000 0  850000 700000 0  900000 700000 0  950000 700000 0  1000000 700000 0  0 750000 0  50000 750000 0  100000 750000 0  150000 750000 0  200000 750000 0  250000 750000 0  300000 750000 0  350000 750000 0  400000 750000 0  450000 750000 0  500000 750000 0  550000 750000 0  600000 750000 0  650000 750000 0  700000 750000 0  750000 750000 0  800000 750000 0  850000 750000 0  900000 750000 0  950000 750000 0  1000000 750000 0  0 800000 0  50000 800000 0  100000 800000 0  150000 800000 0  200000 800000 0  250000 800000 0  300000 800000 0  350000 800000 0  400000 800000 0  450000 800000 0  500000 800000 0  550000 800000 0  600000 800000 0  650000 800000 0  700000 800000 0  750000 800000 0  800000 800000 0  850000 800000 0  900000 800000 0  950000 800000 0  1000000 800000 0  0 850000 0  50000 850000 0  100000 850000 0  150000 850000 0  200000 850000 0  250000 850000 0  300000 850000 0  350000 850000 0  400000 850000 0  450000 850000 0  500000 850000 0  550000 850000 0  600000 850000 0  650000 850000 0  700000 850000 0  750000 850000 0  800000 850000 0  850000 850000 0  900000 850000 0  950000 850000 0  1000000 850000 0  0 900000 0  50000 900000 0  100000 900000 0  150000 900000 0  200000 900000 0  250000 900000 0  300000 900000 0  350000 900000 0  400000 900000 0  450000 900000 0  500000 900000 0  550000 900000 0  600000 900000 0  650000 900000 0  700000 900000 0  750000 900000 0  800000 900000 0  850000 900000 0  900000 900000 0  950000 900000 0  1000000 900000 0  0 950000 0  50000 950000 0  100000 950000 0  150000 950000 0  200000 950000 0  250000 950000 0  300000 950000 0  350000 950000 0  400000 950000 0  450000 950000 0  500000 950000 0  550000 950000 0  600000 950000 0  650000 950000 0  700000 950000 0  750000 950000 0  800000 950000 0  850000 950000 0  900000 950000 0  950000 950000 0  1000000 950000 0  0 1000000 0  50000 1000000 0  100000 1000000 0  150000 1000000 0  200000 1000000 0  250000 1000000 0  300000 1000000 0  350000 1000000 0  400000 1000000 0  450000 1000000 0  500000 1000000 0  550000 1000000 0  600000 1000000 0  650000 1000000 0  700000 1000000 0  750000 1000000 0  800000 1000000 0  850000 1000000 0  900000 1000000 0  950000 1000000 0  1000000 1000000 0  0 1050000 0  50000 1050000 0  100000 1050000 0  150000 1050000 0  200000 1050000 0  250000 1050000 0  300000 1050000 0  350000 1050000 0  400000 1050000 0  450000 1050000 0  500000 1050000 0  550000 1050000 0  600000 1050000 0  650000 1050000 0  700000 1050000 0  750000 1050000 0  800000 1050000 0  850000 1050000 0  900000 1050000 0  950000 1050000 0  1000000 1050000 0  0 1100000 0  50000 1100000 0  100000 1100000 0  150000 1100000 0  200000 1100000 0  250000 1100000 0  300000 1100000 0  350000 1100000 0  400000 1100000 0  450000 1100000 0  500000 1100000 0  550000 1100000 0  600000 1100000 0  650000 1100000 0  700000 1100000 0  750000 1100000 0  800000 1100000 0  850000 1100000 0  900000 1100000 0  950000 1100000 0  1000000 1100000 0  0 1150000 0  50000 1150000 0  100000 1150000 0  150000 1150000 0  200000 1150000 0  250000 1150000 0  300000 1150000 0  350000 1150000 0  400000 1150000 0  450000 1150000 0  500000 1150000 0  550000 1150000 0  600000 1150000 0  650000 1150000 0  700000 1150000 0  750000 1150000 0  800000 1150000 0  850000 1150000 0  900000 1150000 0  950000 1150000 0  1000000 1150000 0  0 1200000 0  50000 1200000 0  100000 1200000 0  150000 1200000 0  200000 1200000 0  250000 1200000 0  300000 1200000 0  350000 1200000 0  400000 1200000 0  450000 1200000 0  500000 1200000 0  550000 1200000 0  600000 1200000 0  650000 1200000 0  700000 1200000 0  750000 1200000 0  800000 1200000 0  850000 1200000 0  900000 1200000 0  950000 1200000 0  1000000 1200000 0  0 1250000 0  50000 1250000 0  100000 1250000 0  150000 1250000 0  200000 1250000 0  250000 1250000 0  300000 1250000 0  350000 1250000 0  400000 1250000 0  450000 1250000 0  500000 1250000 0  550000 1250000 0  600000 1250000 0  650000 1250000 0  700000 1250000 0  750000 1250000 0  800000 1250000 0  850000 1250000 0  900000 1250000 0  950000 1250000 0  1000000 1250000 0  0 1300000 0  50000 1300000 0  100000 1300000 0  150000 1300000 0  200000 1300000 0  250000 1300000 0  300000 1300000 0  350000 1300000 0  400000 1300000 0  450000 1300000 0  500000 1300000 0  550000 1300000 0  600000 1300000 0  650000 1300000 0  700000 1300000 0  750000 1300000 0  800000 1300000 0  850000 1300000 0  900000 1300000 0  950000 1300000 0  1000000 1300000 0  0 1350000 0  50000 1350000 0  100000 1350000 0  150000 1350000 0  200000 1350000 0  250000 1350000 0  300000 1350000 0  350000 1350000 0  400000 1350000 0  450000 1350000 0  500000 1350000 0  550000 1350000 0  600000 1350000 0  650000 1350000 0  700000 135
[...]
<PointData  Vectors="f_7489"> 
<DataArray  type="Float64"  Name="f_7489"  NumberOfComponents="3" format="ascii">-2.4162766418626431e-08 -1.0948597621871287e-08 0.0000000000000000e+00  4.8875818590231399e-08 -7.0173109004605195e-09 0.0000000000000000e+00  4.3126651544417527e-08 -2.6932441646332545e-09 0.0000000000000000e+00  4.0654007744160406e-08 -1.3073643854862928e-09 0.0000000000000000e+00  3.9430101579773517e-08 -8.1536244381995158e-10 0.0000000000000000e+00  3.8622527388627861e-08 -5.9657647960542302e-10 0.0000000000000000e+00  3.8034956427154800e-08 -4.8218379898492175e-10 0.0000000000000000e+00  3.7611246619949328e-08 -4.1393988550502238e-10 0.0000000000000000e+00  3.7334421589222939e-08 -3.6683086435731095e-10 0.0000000000000000e+00  3.7200880817001796e-08 -3.2758279581028138e-10 0.0000000000000000e+00  3.7212565399664066e-08 -2.8733982544154276e-10 0.0000000000000000e+00  3.7375069136695826e-08 -2.3834832003391458e-10 0.0000000000000000e+00  3.7699074024925807e-08 -1.7140764139572893e-10 0.0000000000000000e+00  3.8206229289436659e-08 -7.2244824007699132e-11 0.0000000000000000e+00  3.8945082751314024e-08 8.5938078941723574e-11 0.0000000000000000e+00  4.0033528861373349e-08 3.6075763137419881e-10 0.0000000000000000e+00  4.1771185119111679e-08 8.8947557627917335e-10 0.0000000000000000e+00  4.4902911984690164e-08 2.0157553691977274e-09 0.0000000000000000e+00  5.0756269120448811e-08 4.5565011174562337e-09 0.0000000000000000e+00  5.8000581868059435e-08 9.0788882406641018e-09 0.0000000000000000e+00  -1.6453448176440118e-08 6.9726278828004413e-09 0.0000000000000000e+00  -1.7904801600538984e-08 -1.6490797335106424e-08 0.0000000000000000e+00  7.3901484283297668e-09 -1.1517065800892215e-08 0.0000000000000000e+00  1.8363255776964161e-08 -5.3236399868444770e-09 0.0000000000000000e+00  2.3409587405699192e-08 -2.4547281360001353e-09 0.0000000000000000e+00  2.5961586505179620e-08 -1.1935706519624259e-09 0.0000000000000000e+00  2.7390760280473996e-08 -5.9808787778320457e-10 0.0000000000000000e+00  2.8209333424516421e-08 -2.9862584640343364e-10 0.0000000000000000e+00  2.8676816787732783e-08 -1.4460318721978882e-10 0.0000000000000000e+00  2.8937148963327312e-08 -6.7088061231979723e-11 0.0000000000000000e+00  2.9070990803760644e-08 -2.8894690608607321e-11 0.0000000000000000e+00  2.9120736675014295e-08 -5.5824901502477580e-12 0.0000000000000000e+00  2.9101953575699809e-08 2.3292180577483423e-11 0.0000000000000000e+00  2.9007264220947920e-08 7.9978433596999407e-11 0.0000000000000000e+00  2.8804715704804211e-08 1.9515820439347932e-10 0.0000000000000000e+00  2.8429652027585618e-08 4.1971855495382083e-10 0.0000000000000000e+00  2.7764068756032685e-08 8.5059263301894546e-10 0.0000000000000000e+00  2.6581399939366149e-08 1.6915228016116128e-09 0.0000000000000000e+00  2.4369024082695687e-08 3.3887698368239058e-09 0.0000000000000000e+00  1.9680075073554706e-08 6.8327175004703440e-09 0.0000000000000000e+00  8.2652564378732408e-09 1.2986522077132824e-08 0.0000000000000000e+00  -1.8420982929861726e-08 1.0905055470549179e-08 0.0000000000000000e+00  -1.0900860219143206e-08 -2.0058741812468244e-08 0.0000000000000000e+00  -1.8026779401239501e-10 -1.8679736618423894e-08 0.0000000000000000e+00  6.0013737000427192e-09 -1.1344331600774321e-08 0.0000000000000000e+00  1.0912527278021248e-08 -6.5242213076469171e-09 0.0000000000000000e+00  1.4718095890421649e-08 -3.7488727535969082e-09 0.0000000000000000e+00  1.7340618786373110e-08 -2.1738734765829837e-09 0.0000000000000000e+00  1.9082777568793389e-08 -1.2542157467563561e-09 0.0000000000000000e+00  2.0214495644096976e-08 -6.9738862302248369e-10 0.0000000000000000e+00  2.0916626287350740e-08 -3.4417045154084413e-10 0.0000000000000000e+00  2.1300361785785813e-08 -1.0032277466845889e-10 0.0000000000000000e+00  2.1426089851439264e-08 9.8357861095620757e-11 0.0000000000000000e+00  2.1314550958617095e-08 3.0507212664083974e-10 0.0000000000000000e+00  2.0950883124906555e-08 5.7521821814195613e-10 0.0000000000000000e+00  2.0282254503217255e-08 9.8002619398918269e-10 0.0000000000000000e+00  1.9208517375397784e-08 1.6265562171598838e-09 0.0000000000000000e+00  1.7563975825656532e-08 2.6917700183789586e-09 0.0000000000000000e+00  1.5088878800975026e-08 4.4771252900004530e-09 0.0000000000000000e+00  1.1400803837591722e-08 7.4569336650137977e-09 0.0000000000000000e+00  6.0326780057383522e-09 1.2097606155198462e-08 0.0000000000000000e+00  -1.2757894654639441e-09 1.7551957080199525e-08 0.0000000000000000e+00  -1.3244815839558756e-08 1.4651423529245832e-08 0.0000000000000000e+00  -7.1804892054581770e-09 -2.0645169802373838e-08 0.0000000000000000e+00  -1.5062676295938318e-09 -2.0174491992995475e-08 0.0000000000000000e+00  1.2098889995341306e-09 -1.5352825987698302e-08 0.0000000000000000e+00  4.0235256707737505e-09 -1.0394863310102030e-08 0.0000000000000000e+00  6.9346745532438874e-09 -6.7859688852478438e-09 0.0000000000000000e+00  9.4492118982599715e-09 -4.3635736557323600e-09 0.0000000000000000e+00  1.1377860414090494e-08 -2.7598294131554041e-09 0.0000000000000000e+00  1.2750697910064989e-08 -1.6794120900399693e-09 0.0000000000000000e+00  1.3655127148697486e-08 -9.2019268001321240e-10 0.0000000000000000e+00  1.4167390941231298e-08 -3.4354974791655237e-10 0.0000000000000000e+00  1.4335599916634455e-08 1.5356988792255504e-10 0.0000000000000000e+00  1.4177426772722183e-08 6.5916849360439961e-10 0.0000000000000000e+00  1.3680493728801052e-08 1.2623538798181015e-09 0.0000000000000000e+00  1.2802713950968343e-08 2.0688657009118305e-09 0.0000000000000000e+00  1.1473860226346130e-08 3.2185849611966053e-09 0.0000000000000000e+00  9.6045695915142791e-09 4.9034370836917675e-09 0.0000000000000000e+00  7.1196190197690620e-09 7.3679073399387479e-09 0.0000000000000000e+00  4.0495376797000156e-09 1.0821785841252331e-08 0.0000000000000000e+00  6.8631253281521397e-10 1.5074235549146275e-08 0.0000000000000000e+00  -2.6038142588737360e-09 1.8724313401390888e-08 0.0000000000000000e+00  -8.9272221146151771e-09 1.7496188031937374e-08 0.0000000000000000e+00  -5.2941856197106673e-09 -2.0017031573719453e-08 0.0000000000000000e+00  -1.8575747546180669e-09 -1.9945199775936160e-08 0.0000000000000000e+00  -8.8697993870789551e-10 -1.6812573894143351e-08 0.0000000000000000e+00  2.8118117109135795e-10 -1.2794549557963532e-08 0.0000000000000000e+00  1.9434565993149563e-09 -9.1914624171614330e-09 0.0000000000000000e+00  3.7249499299626713e-09 -6.3828497298126671e-09 0.0000000000000000e+00  5.3065769829280914e-09 -4.2993232449707938e-09 0.0000000000000000e+00  6.5485839680849766e-09 -2.7607529034767986e-09 0.0000000000000000e+00  7.4205870786133783e-09 -1.5928833030695680e-09 0.0000000000000000e+00  7.9340482656786111e-09 -6.5034897766277837e-10 0.0000000000000000e+00  8.1061836219885126e-09 1.8842418393579501e-10 0.0000000000000000e+00  7.9453068102442327e-09 1.0326187412262809e-09 0.0000000000000000e+00  7.4469281790108667e-09 1.9907258398062002e-09 0.0000000000000000e+00  6.5965325684884919e-09 3.1809384128443211e-09 0.0000000000000000e+00  5.3803011561289857e-09 4.7377495822085035e-09 0.0000000000000000e+00  3.8098281794110119e-09 6.8062312280433418e-09 0.0000000000000000e+00  1.9701785004223847e-09 9.5006914220570418e-09 0.0000000000000000e+00  8.8277698107458381e-11 1.2780121831673912e-08 0.0000000000000000e+00  -1.4719641219864241e-09 1.6195051170361543e-08 0.0000000000000000e+00  -2.7123200744265691e-09 1.8680440473147364e-08 0.0000000000000000e+00  -6.6182134010795016e-09 1.8487225370865237e-08 0.0000000000000000e+00  -4.2171438343599992e-09 -1.8849373617375331e-08 0.0000000000000000e+00  -2.0359820640330360e-09 -1.9025344537897232e-08 0.0000000000000000e+00  -1.9931722114974593e-09 -1.6867731687522379e-08 0.0000000000000000e+00  -1.8868975609551745e-09 -1.3787909743471936e-08 0.0000000000000000e+00  -1.2649248909819162e-09 -1.0611884813545576e-08 0.0000000000000000e+00  -3.0972473623583978e-10 -7.8169466965288368e-09 0.0000000000000000e+00  7.1077488773922252e-10 -5.5267957504070852e-09 0.0000000000000000e+00  1.6092245450463846e-09 -3.6927116152429901e-09 0.0000000000000000e+00  2.2880456005231620e-09 -2.2056799066442259e-09 0.0000000000000000e+00  2.7063097387926985e-09 -9.4556682841467156e-10 0.0000000000000000e+00  2.8506775723909495e-09 2.0379993911620578e-10 0.0000000000000000e+00  2.7190034156321077e-09 1.3535075852917748e-09 0.0000000000000000e+00  2.3147290724395597e-09 2.6126323405068876e-09 0.0000000000000000e+00  1.6500781991756961e-09 4.0901697159686192e-09 0.0000000000000000e+00  7.5819081282615080e-10 5.8904141442217288e-09 0.0000000000000000e+00  -2.8461535331566711e-10 8.0927996109986590e-09 0.0000000000000000e+00  -1.3295560891645247e-09 1.0701766834415146e-08 0.0000000000000000e+00  -2.1435665106221352e-09 1.3553898498853530e-08 0.0000000000000000e+00  -2.5076100908757874e-09 1.6208129484035128e-08 0.0000000000000000e+00  -2.6895915140273595e-09 1.7988391075797042e-08 0.0000000000000000e+00  -5.2510220089846296e-09 1.8248304125434790e-08 0.0000000000000000e+00  -3.5258167329656061e-09 -1.7383697605845829e-08 0.0000000000000000e+00  -2.1695886813322340e-09 -1.7728648122183407e-08 0.0000000000000000e+00  -2.6826615148505162e-09 -1.6166727443681083e-08 0.0000000000000000e+00  -3.2509364892605322e-09 -1.3800980289635701e-08 0.0000000000000000e+00  -3.3906409850107657e-09 -1.1137686946395505e-08 0.0000000000000000e+00  -3.1474433463555645e-09 -8.5719157775913548e-09 0.0000000000000000e+00  -2.6993892823420517e-09 -6.2923878110566591e-09 0.0000000000000000e+00  -2.2123132936590022e-09 -4.3361574579401154e-09 0.0000000000000000e+00  -1.8002308528707005e-09 -2.6580775067574758e-09 0.0000000000000000e+00  -1.5292193115508555e-09 -1.1765797576981578e-09 0.0000000000000000e+00  -1.4315571837612298e-09 2.0290041044454241e-10 0.0000000000000000e+00  -1.5168581282101696e-09 1.5775947328153724e-09 0.0000000000000000e+00  -1.7766717082471484e-09 3.0423683324185499e-09 0.0000000000000000e+00  -2.1823331464327642e-09 4.6841640598829729e-09 0.0000000000000000e+00  -2.6767661869901576e-09 6.5705534392819599e-09 0.0000000000000000e+00  -3.1626971519319107e-09 8.7265071110609245e-09 0.0000000000000000e+00  -3.4956706117607096e-09 1.1094789138998123e-08 0.0000000000000000e+00  -3.5057454718393652e-09 1.3485313614975048e-08 0.0000000000000000e+00  -3.1092550498725515e-09 1.5548336031885393e-08 0.0000000000000000e+00  -2.6751270423504872e-09 1.6876262166712868e-08 0.0000000000000000e+00  -4.3517697677543574e-09 1.7348617198708618e-08 0.0000000000000000e+00  -3.0443634469725193e-09 -1.5719634302021817e-08 0.0000000000000000e+00  -2.2785294970017687e-09 -1.6184751050235247e-08 0.0000000000000000e+00  -3.1612982468101857e-09 -1.5013030778346152e-08 0.0000000000000000e+00  -4.1713149846475436e-09 -1.3170914578060075e-08 0.0000000000000000e+00  -4.8479598375641744e-09 -1.0976358144400678e-08 0.0000000000000000e+00  -5.1593070498051331e-09 -8.7205967955662322e-09 0.0000000000000000e+00  -5.2059185732987820e-09 -6.5863201970935840e-09 0.0000000000000000e+00  -5.1101532255286730e-09 -4.6486552160536501e-09 0.0000000000000000e+00  -4.9729391418958358e-09 -2.9069197750319557e-09 0.0000000000000000e+00  -4.8628938848412663e-09 -1.3160969402345382e-09 0.0000000000000000e+00  -4.8184563941140959e-09 1.9092551382617406e-10 0.0000000000000000e+00  -4.8525189728046285e-09 1.6892428431446180e-09 0.0000000000000000e+00  -4.9549739112772985e-09 3.2519707764767276e-09 0.0000000000000000e+00  -5.0919671315972369e-09 4.9403067976742693e-09 0.0000000000000000e+00  -5.2027818406740509e-09 6.7899331541359983e-09 0.0000000000000000e+00  -5.1977464246939112e-09 8.7911893007128129e-09 0.0000000000000000e+00  -4.9649343272076974e-09 1.0863888469083848e-08 0.0000000000000000e+00  -4.4018576448151736e-09 1.2836187729683003e-08 0.0000000000000000e+00  -3.5102341214447404e-09 1.4452395008784716e-08 0.0000000000000000e+00  -2.6756421837587528e-09 1.5472313930160994e-08 0.0000000000000000e+00  -3.7135904282309641e-09 1.6060368120698871e-08 0.0000000000000000e+00  -2.6920080663977343e-09 -1.3910669629713047e-08 0.0000000000000000e+00  -2.3674266672419530e-09 -1.4463384412147048e-08 0.0000000000000000e+00  -3.5126533066729525e-09 -1.3563990049959366e-08 0.0000000000000000e+00  -4.8222684947170543e-09 -1.2112984854090794e-08 0.0000000000000000e+00  -5.8742927442898027e-09 -1.0317864542177759e-08 0.0000000000000000e+00  -6.5976643376267324e-09 -8.3856805596036096e-09 0.0000000000000000e+00  -7.0376904807255606e-09 -6.4685252292156494e-09 0.0000000000000000e+00  -7.2737977818071761e-09 -4.6492386399746181e-09 0.0000000000000000e+00  -7.3825737619463860e-09 -2.9514926298238193e-09 0.0000000000000000e+00  -7.4223824214478293e-09 -1.3578674254746916e-09 0.0000000000000000e+00  -7.4288604161945768e-09 1.7306164415982284e-10 0.0000000000000000e+00  -7.4148054326339392e-09 1.6929231136777825e-09 0.0000000000000000e+00  -7.3708959329127285e-09 3.2520479474068421e-09 0.0000000000000000e+00  -7.2660273955025305e-09 4.8882534531374822e-09 0.0000000000000000e+00  -7.0480002344267878e-09 6.6141433011539441e-09 0.0000000000000000e+00  -6.6472715124248265e-09 8.4025322553878738e-09 0.0000000000000000e+00  -5.9889713672807864e-09 1.0172635742770580e-08 0.0000000000000000e+00  -5.0228753144318554e-09 1.1784787240526134e-08 0.0000000000000000e+00  -3.7975500476857141e-09 1.3058521316057064e-08 0.0000000000000000e+00  -2.6830789020987676e-09 1.3856681417386308e-08 0.0000000000000000e+00  -3.2367823315137818e-09 1.4516125393576206e-08 0.0000000000000000e+00  -2.4276508475497312e-09 -1.1992605509831862e-08 0.0000000000000000e+00  -2.4389464456592902e-09 -1.2610059317184220e-08 0.0000000000000000e+00  -3.7766691688014465e-09 -1.1912271995088289e-08 0.0000000000000000e+00  -5.2944632771219624e-09 -1.0763991921183310e-08 0.0000000000000000e+00  -6.6086461728066478e-09 -9.3067348110002317e-09 0.0000000000000000e+00  -7.6301783258397096e-09 -7.6861385137489458e-09 0.0000000000000000e+00  -8.3679754715958069e-09 -6.0205320647844410e-09 0.0000000000000000e+00  -8.8666192025826732e-09 -4.3856875643437858e-09 0.0000000000000000e+00  -9.1774674253641354e-09 -2.8151327965102888e-09 0.0000000000000000e+00  -9.3438595450114655e-09 -1.3091823053990529e-09 0.0000000000000000e+00  -9.3941527573386135e-09 1.5338572789522963e-10 0.0000000000000000e+00  -9.3391026796409011e-09 1.6038546411579765e-09 0.0000000000000000e+00  -9.1714372912900664e-09 3.0728606678124993e-09 0.0000000000000000e+00  -8.8667775522260029e-09 4.5800055036283099e-09 0.0000000000000000e+00  -8.3863382157198016e-09 6.1234193424543676e-09 0.0000000000000000e+00  -7.6830445124842691e-09 7.6699319733148176e-09 0.0000000000000000e+00  -6.7139668749185280e-09 9.1484394436257451e-09 0.0000000000000000e+00  -5.4649696369753736e-09 1.0451588061413580e-08 0.0000000000000000e+00  -4.0085968692064707e-09 1.1454327880554408e-08 0.0000000000000000e+00  -2.6908216681337633e-09 1.2083536661348539e-08 0.0000000000000000e+00  -2.8688235166130114e-09 1.2790072349393751e-08 0.0000000000000000e+00  -2.2286847224242088e-09 -9.9925551813615820e-09 0.0000000000000000e+00  -2.4957368903410700e-09 -1.0658140340445061e-08 0.0000000000000000e+00  -3.9759881848352125e-09 -1.0118217815049559e-08 0.0000000000000000e+00  -5.6398067310975813e-09 -9.2143374964112230e-09 0.0000000000000000e+00  -7.1363903364037155e-09 -8.0477425538592014e-09 0.0000000000000000e+00  -8.3694321687650306e-09 -6.7205294762535157e-09 0.0000000000000000e+00  -9.3247631935474566e-09 -5.3212950539786741e-09 0.0000000000000000e+00  -1.0021142353166114e-08 -3.9131828762967669e-09 0.0000000000000000e+00  -1.0488300616033607e-08 -2.5307717260034884e-09 0.0000000000000000e+00  -1.0754579136537152e-08 -1.1839575268055882e-09 0.0000000000000000e+00  -1.0839874750189493e-08 1.3463047696875624e-10 0.0000000000000000e+00  -1.0752168051242361e-08 1.4409875496951383e-09 0.0000000000000000e+00  -1.0486573435536886e-08 2.7509453923351671e-09 0.0000000000000000e+00  -1.0026443408604203e-08 4.0716363824300377e-09 0.0000000000000000e+00  -9.3467085100468569e-09 5.3935961627924000e-09 0.0000000000000000e+00  -8.4202197055223976e-09 6.6844813306091759e-09 0.0000000000000000e+00  -7.2285362127272829e-09 7.8863751184184575e-09 0.0000000000000000e+00  -5.7812467177139436e-09 8.9197396227625409e-09 0.0000000000000000e+00  -4.1625998701779970e-09 9.6992785208783621e-09 0.0000000000000000e+00  -2.6951415238238616e-09 1.0192183898741855e-08 0.0000000000000000e+00  -2.5801700522673809e-09 1.0930151985222767e-08 0.0000000000000000e+00  -2.0820654272193469e-09 -7.9322060250332008e-09 0.0000000000000000e+00  -2.5405610299697099e-09 -8.6335968423306654e-09 0.0000000000000000e+00  -4.1254132740571724e-09 -8.2239985531831631e-09 0.0000000000000000e+00  -5.8909587897471233e-09 -7.5262124133658248e-09 0.0000000000000000e+00  -7.5128546540527449e-09 -6.6163525838014712e-09 0.0000000000000000e+00  -8.8926383869604567e-09 -5.5655673350537664e-09 0.0000000000000000e+00  -1.0001816149399956e-08 -4.4381179315524597e-09 0.0000000000000000e+00  -1.0841026117824418e-08 -3.2833636732292673e-09 0.0000000000000000e+00  -1.1423247747819232e-08 -2.1321191176326059e-09 0.0000000000000000e+00  -1.1764101244277868e-08 -9.9794349319047843e-10 0.0000000000000000e+00  -1.1875718667177481e-08 1.1839345800162950e-10 0.0000000000000000e+00  -1.1763342027979926e-08 1.2228536936921861e-09 0.0000000000000000e+00  -1.1424250662968632e-08 2.3215428904197955e-09 0.0000000000000000e+00  -1.0848817889553452e-08 3.4142846198935036e-09 0.0000000000000000e+00  -1.0023719522253681e-08 4.4890105330228100e-09 0.0000000000000000e+00  -8.9375283491141819e-09 5.5178912927428362e-09 0.0000000000000000e+00  -7.5893870716777762e-09 6.4565506887335943e-09 0.0000000000000000e+00  -6.0041234620744067e-09 7.2481218383082567e-09 0.0000000000000000e+00  -4.2714737427158553e-09 7.8358555344519965e-09 0.0000000000000000e+00  -2.6945415576163356e-09 8.2126492191491959e-09 0.0000000000000000e+00  -2.3534761002078854e-09 8.9708518547151045e-09 0.0000000000000000e+00  -1.9801343602621627e-09 -5.8293300601117757e-09 0.0000000000000000e+00  -2.5761083098891729e-09 -6.5572515816377397e-09 0.0000000000000000e+00  -4.2354960347611896e-09 -6.2605509126891133e-09 0.0000000000000000e+00  -6.0699266339892812e-09 -5.7439098247536687e-09 0.0000000000000000e+00  -7.7753897096285282e-09 -5.0673509729065620e-09 0.0000000000000000e+00  -9.2535311425287855e-09 -4.2795223443259687e-09 0.0000000000000000e+00  -1.0467189621066425e-08 -3.4250832833923645e-09 0.0000000000000000e+00  -1.1404865180872453e-08 -2.5401819114399170e-09 0.0000000000000000e+00  -1.2067494664438422e-08 -1.6494343901623510e-09 0.0000000000000000e+00  -1.2460984229171434e-08 -7.6607805601027066e-10 0.0000000000000000e+00  -1.2591230249925468e-08 1.0547696258646511e-10 0.0000000000000000e+00  -1.2461159187409650e-08 9.6568258736700416e-10 0.0000000000000000e+00  -1.2069729714067106e-08 1.8153070993141086e-09 0.0000000000000000e+00  -1.1412852785656627e-08 2.6509768903836686e-09 0.0000000000000000e+00  -1.0486172106158036e-08 3.4614360315427877e-09 0.0000000000000000e+00  -9.2896718901423071e-09 4.2252451343147375e-09 0.0000000000000000e+00  -7.8344903079369336e-09 4.9107696781067215e-09 0.0000000000000000e+00  -6.1550774949217838e-09 5.4794780819364723e-09 0.0000000000000000e+00  -4.3436901966882430e-09 5.8955768229714792e-09 0.0000000000000000e+00  -2.6889265512704310e-09 6.1686205732873986e-09 0.0000000000000000e+00  -2.1782563971822225e-09 6.9386045945892700e-09 0.0000000000000000e+00  -1.9184810286639565e-09 -3.6987839547709912e-09 0.0000000000000000e+00  -2.6047668634552273e-09 -4.4461433875175575e-09 0.0000000000000000e+00  -4.3139163141990048e-09 -4.2514470413251581e-09 0.0000000000000000e+00  -6.1918992266293066e-09 -3.9000418122674676e-09 0.0000000000000000e+00  -7.9494689374716634e-09 -3.4412162218413698e-09 0.0000000000000000e+00  -9.4892339735317324e-09 -2.9065571802532713e-09 0.0000000000000000e+00  -1.0769071226436024e-08 -2.3246560