<?xml version="1.0"?>
<VTKFile type="UnstructuredGrid"  version="0.1"  >
<UnstructuredGrid>
<Piece  NumberOfPoints="651" NumberOfCells="1200">
<Points>
<DataArray  type="Float64"  NumberOfComponents="3"  format="ascii">0 0 0  50000 0 0  100000 0 0  150000 0 0  200000 0 0  250000 0 0  300000 0 0  350000 0 0  400000 0 0  450000 0 0  500000 0 0  550000 0 0  600000 0 0  650000 0 0  700000 0 0  750000 0 0  800000 0 0  850000 0 0  900000 0 0  950000 0 0  1000000 0 0  0 50000 0  50000 50000 0  100000 50000 0  150000 50000 0  200000 50000 0  250000 50000 0  300000 50000 0  350000 50000 0  400000 50000 0  450000 50000 0  500000 50000 0  550000 50000 0  600000 50000 0  650000 50000 0  700000 50000 0  750000 50000 0  800000 50000 0  850000 50000 0  900000 50000 0  950000 50000 0  1000000 50000 0  0 100000 0  50000 100000 0  100000 100000 0  150000 100000 0  200000 100000 0  250000 100000 0  300000 100000 0  350000 100000 0  400000 100000 0  450000 100000 0  500000 100000 0  550000 100000 0  600000 100000 0  650000 100000 0  700000 100000 0  750000 100000 0  800000 100000 0  850000 100000 0  900000 100000 0  950000 100000 0  1000000 100000 0  0 150000 0  50000 150000 0  100000 150000 0  150000 150000 0  200000 150000 0  250000 150000 0  300000 150000 0  350000 150000 0  400000 150000 0  450000 150000 0  500000 150000 0  550000 150000 0  600000 150000 0  650000 150000 0  700000 150000 0  750000 150000 0  800000 150000 0  850000 150000 0  900000 150000 0  950000 150000 0  1000000 150000 0  0 200000 0  50000 200000 0  100000 200000 0  150000 200000 0  200000 200000 0  250000 200000 0  300000 200000 0  350000 200000 0  400000 200000 0  450000 200000 0  500000 200000 0  550000 200000 0  600000 200000 0  650000 200000 0  700000 200000 0  750000 200000 0  800000 200000 0  850000 200000 0  900000 200000 0  950000 200000 0  1000000 200000 0  0 250000 0  50000 250000 0  100000 250000 0  150000 250000 0  200000 250000 0  250000 250000 0  300000 250000 0  350000 250000 0  400000 250000 0  450000 250000 0  500000 250000 0  550000 250000 0  600000 250000 0  650000 250000 0  700000 250000 0  750000 250000 0  800000 250000 0  850000 250000 0  900000 250000 0  950000 250000 0  1000000 250000 0  0 300000 0  50000 300000 0  100000 300000 0  150000 300000 0  200000 300000 0  250000 300000 0  300000 300000 0  350000 300000 0  400000 300000 0  450000 300000 0  500000 300000 0  550000 300000 0  600000 300000 0  650000 300000 0  700000 300000 0  750000 300000 0  800000 300000 0  850000 300000 0  900000 300000 0  950000 300000 0  1000000 300000 0  0 350000 0  50000 350000 0  100000 350000 0  150000 350000 0  200000 350000 0  250000 350000 0  300000 350000 0  350000 350000 0  400000 350000 0  450000 350000 0  500000 350000 0  550000 350000 0  600000 350000 0  650000 350000 0  700000 350000 0  750000 350000 0  800000 350000 0  850000 350000 0  900000 350000 0  950000 350000 0  1000000 350000 0  0 400000 0  50000 400000 0  100000 400000 0  150000 400000 0  200000 400000 0  250000 400000 0  300000 400000 0  350000 400000 0  400000 400000 0  450000 400000 0  500000 400000 0  550000 400000 0  600000 400000 0  650000 400000 0  700000 400000 0  750000 400000 0  800000 400000 0  850000 400000 0  900000 400000 0  950000 400000 0  1000000 400000 0  0 450000 0  50000 450000 0  100000 450000 0  150000 450000 0  200000 450000 0  250000 450000 0  300000 450000 0  350000 450000 0  400000 450000 0  450000 450000 0  500000 450000 0  550000 450000 0  600000 450000 0  650000 450000 0  700000 450000 0  750000 450000 0  800000 450000 0  850000 450000 0  900000 450000 0  950000 450000 0  1000000 450000 0  0 500000 0  50000 500000 0  100000 500000 0  150000 500000 0  200000 500000 0  250000 500000 0  300000 500000 0  350000 500000 0  400000 500000 0  450000 500000 0  500000 500000 0  550000 500000 0  600000 500000 0  650000 500000 0  700000 500000 0  750000 500000 0  800000 500000 0  850000 500000 0  900000 500000 0  950000 500000 0  1000000 500000 0  0 550000 0  50000 550000 0  100000 550000 0  150000 550000 0  200000 550000 0  250000 550000 0  300000 550000 0  350000 550000 0  400000 550000 0  450000 550000 0  500000 550000 0  550000 550000 0  600000 550000 0  650000 550000 0  700000 550000 0  750000 550000 0  800000 550000 0  850000 550000 0  900000 550000 0  950000 550000 0  1000000 550000 0  0 600000 0  50000 600000 0  100000 600000 0  150000 600000 0  200000 600000 0  250000 600000 0  300000 600000 0  350000 600000 0  400000 600000 0  450000 600000 0  500000 600000 0  550000 600000 0  600000 600000 0  650000 600000 0  700000 600000 0  750000 600000 0  800000 600000 0  850000 600000 0  900000 600000 0  950000 600000 0  1000000 600000 0  0 650000 0  50000 650000 0  100000 650000 0  150000 650000 0  200000 650000 0  250000 650000 0  300000 650000 0  350000 650000 0  400000 650000 0  450000 650000 0  500000 650000 0  550000 650000 0  600000 650000 0  650000 650000 0  700000 650000 0  750000 650000 0  800000 650000 0  850000 650000 0  900000 650000 0  950000 650000 0  1000000 650000 0  0 700000 0  50000 700000 0  100000 700000 0  150000 700000 0  200000 700000 0  250000 700000 0  300000 700000 0  350000 700000 0  400000 700000 0  450000 700000 0  500000 700000 0  550000 700000 0  600000 700000 0  650000 700000 0  700000 700000 0  750000 700000 0  800000 700000 0  850000 700000 0  900000 700000 0  950000 700000 0  1000000 700000 0  0 750000 0  50000 750000 0  100000 750000 0  150000 750000 0  200000 750000 0  250000 750000 0  300000 750000 0  350000 750000 0  400000 750000 0  450000 750000 0  500000 750000 0  550000 750000 0  600000 750000 0  650000 750000 0  700000 750000 0  750000 750000 0  800000 750000 0  850000 750000 0  900000 750000 0  950000 750000 0  1000000 750000 0  0 800000 0  50000 800000 0  100000 800000 0  150000 800000 0  200000 800000 0  250000 800000 0  300000 800000 0  350000 800000 0  400000 800000 0  450000 800000 0  500000 800000 0  550000 800000 0  600000 800000 0  650000 800000 0  700000 800000 0  750000 800000 0  800000 800000 0  850000 800000 0  900000 800000 0  950000 800000 0  1000000 800000 0  0 850000 0  50000 850000 0  100000 850000 0  150000 850000 0  200000 850000 0  250000 850000 0  300000 850000 0  350000 850000 0  400000 850000 0  450000 850000 0  500000 850000 0  550000 850000 0  600000 850000 0  650000 850000 0  700000 850000 0  750000 850000 0  800000 850000 0  850000 850000 0  900000 850000 0  950000 850000 0  1000000 850000 0  0 900000 0  50000 900000 0  100000 900000 0  150000 900000 0  200000 900000 0  250000 900000 0  300000 900000 0  350000 900000 0  400000 900000 0  450000 900000 0  500000 900000 0  550000 900000 0  600000 900000 0  650000 900000 0  700000 900000 0  750000 900000 0  800000 900000 0  850000 900000 0  900000 900000 0  950000 900000 0  1000000 900000 0  0 950000 0  50000 950000 0  100000 950000 0  150000 950000 0  200000 950000 0  250000 950000 0  300000 950000 0  350000 950000 0  400000 950000 0  450000 950000 0  500000 950000 0  550000 950000 0  600000 950000 0  650000 950000 0  700000 950000 0  750000 950000 0  800000 950000 0  850000 950000 0  900000 950000 0  950000 950000 0  1000000 950000 0  0 1000000 0  50000 1000000 0  100000 1000000 0  150000 1000000 0  200000 1000000 0  250000 1000000 0  300000 1000000 0  350000 1000000 0  400000 1000000 0  450000 1000000 0  500000 1000000 0  550000 1000000 0  600000 1000000 0  650000 1000000 0  700000 1000000 0  750000 1000000 0  800000 1000000 0  850000 1000000 0  900000 1000000 0  950000 1000000 0  1000000 1000000 0  0 1050000 0  50000 1050000 0  100000 1050000 0  150000 1050000 0  200000 1050000 0  250000 1050000 0  300000 1050000 0  350000 1050000 0  400000 1050000 0  450000 1050000 0  500000 1050000 0  550000 1050000 0  600000 1050000 0  650000 1050000 0  700000 1050000 0  750000 1050000 0  800000 1050000 0  850000 1050000 0  900000 1050000 0  950000 1050000 0  1000000 1050000 0  0 1100000 0  50000 1100000 0  100000 1100000 0  150000 1100000 0  200000 1100000 0  250000 1100000 0  300000 1100000 0  350000 1100000 0  400000 1100000 0  450000 1100000 0  500000 1100000 0  550000 1100000 0  600000 1100000 0  650000 1100000 0  700000 1100000 0  750000 1100000 0  800000 1100000 0  850000 1100000 0  900000 1100000 0  950000 1100000 0  1000000 1100000 0  0 1150000 0  50000 1150000 0  100000 1150000 0  150000 1150000 0  200000 1150000 0  250000 1150000 0  300000 1150000 0  350000 1150000 0  400000 1150000 0  450000 1150000 0  500000 1150000 0  550000 1150000 0  600000 1150000 0  650000 1150000 0  700000 1150000 0  750000 1150000 0  800000 1150000 0  850000 1150000 0  900000 1150000 0  950000 1150000 0  1000000 1150000 0  0 1200000 0  50000 1200000 0  100000 1200000 0  150000 1200000 0  200000 1200000 0  250000 1200000 0  300000 1200000 0  350000 1200000 0  400000 1200000 0  450000 1200000 0  500000 1200000 0  550000 1200000 0  600000 1200000 0  650000 1200000 0  700000 1200000 0  750000 1200000 0  800000 1200000 0  850000 1200000 0  900000 1200000 0  950000 1200000 0  1000000 1200000 0  0 1250000 0  50000 1250000 0  100000 1250000 0  150000 1250000 0  200000 1250000 0  250000 1250000 0  300000 1250000 0  350000 1250000 0  400000 1250000 0  450000 1250000 0  500000 1250000 0  550000 1250000 0  600000 1250000 0  650000 1250000 0  700000 1250000 0  750000 1250000 0  800000 1250000 0  850000 1250000 0  900000 1250000 0  950000 1250000 0  1000000 1250000 0  0 1300000 0  50000 1300000 0  100000 1300000 0  150000 1300000 0  200000 1300000 0  250000 1300000 0  300000 1300000 0  350000 1300000 0  400000 1300000 0  450000 1300000 0  500000 1300000 0  550000 1300000 0  600000 1300000 0  650000 1300000 0  700000 1300000 0  750000 1300000 0  800000 1300000 0  850000 1300000 0  900000 1300000 0  950000 1300000 0  1000000 1300000 0  0 1350000 0  50000 1350000 0  100000 1350000 0  150000 1350000 0  200000 1350000 0  250000 1350000 0  300000 1350000 0  350000 1350000 0  400000 1350000 0  450000 1350000 0  500000 1350000 0  550000 1350000 0  600000 1350000 0  650000 1350000 0  700000 135
[...]
<PointData  Vectors="f_7489"> 
<DataArray  type="Float64"  Name="f_7489"  NumberOfComponents="3" format="ascii">-2.4348001412586381e-08 -1.0464243513585500e-08 0.0000000000000000e+00  4.8702531380325875e-08 -6.5420457539090162e-09 0.0000000000000000e+00  4.2969786395895952e-08 -2.2341028208242041e-09 0.0000000000000000e+00  4.0514785631786844e-08 -8.6307759944479228e-10 0.0000000000000000e+00  3.9310503218486164e-08 -3.8538733811969650e-10 0.0000000000000000e+00  3.8524134709679227e-08 -1.8209274436992861e-10 0.0000000000000000e+00  3.7958824689435810e-08 -8.5474398914548071e-11 0.0000000000000000e+00  3.7557694866839376e-08 -3.8008901362199383e-11 0.0000000000000000e+00  3.7302857794134155e-08 -1.5096063127683635e-11 0.0000000000000000e+00  3.7189690303872327e-08 -3.5388280415072989e-12 0.0000000000000000e+00  3.7219086264709759e-08 5.8183179232996921e-12 0.0000000000000000e+00  3.7395689118592907e-08 2.1424068403769279e-11 0.0000000000000000e+00  3.7729477636432727e-08 5.3545934949853782e-11 0.0000000000000000e+00  3.8241803329783106e-08 1.1781364278588184e-10 0.0000000000000000e+00  3.8981454172739151e-08 2.4252881640029920e-10 0.0000000000000000e+00  4.0067167690616833e-08 4.8677299874976064e-10 0.0000000000000000e+00  4.1799971743299176e-08 9.8904900755209996e-10 0.0000000000000000e+00  4.4926559765777372e-08 2.0939125468400516e-09 0.0000000000000000e+00  5.0776480385172409e-08 4.6187954537978823e-09 0.0000000000000000e+00  5.8020506916810120e-08 9.1313041651879453e-09 0.0000000000000000e+00  -1.6434187094139636e-08 7.0243495680284249e-09 0.0000000000000000e+00  -1.8102932318660738e-08 -1.6010752084022638e-08 0.0000000000000000e+00  7.2682075840410185e-09 -1.1334201940014965e-08 0.0000000000000000e+00  1.8173987871345122e-08 -5.2600155177647422e-09 0.0000000000000000e+00  2.3234227860057046e-08 -2.4050218643359538e-09 0.0000000000000000e+00  2.5818370147439030e-08 -1.1505610219414566e-09 0.0000000000000000e+00  2.7278494442907423e-08 -5.5968097910991075e-10 0.0000000000000000e+00  2.8126659241973902e-08 -2.6393205197114423e-10 0.0000000000000000e+00  2.8622220729358538e-08 -1.1301694319458199e-10 0.0000000000000000e+00  2.8908395891609274e-08 -3.7941219944871992e-11 0.0000000000000000e+00  2.9065061947719524e-08 -1.4016075834986698e-12 0.0000000000000000e+00  2.9133854262579682e-08 2.1126559185981838e-11 0.0000000000000000e+00  2.9129679381681510e-08 5.0093338094265276e-11 0.0000000000000000e+00  2.9044698177682279e-08 1.0764162015879936e-10 0.0000000000000000e+00  2.8846788387546265e-08 2.2421765098568814e-10 0.0000000000000000e+00  2.8471479466420040e-08 4.5035955320316577e-10 0.0000000000000000e+00  2.7801319053548567e-08 8.8259880980338476e-10 0.0000000000000000e+00  2.6610628844622827e-08 1.7243233006927347e-09 0.0000000000000000e+00  2.4388086049817443e-08 3.4215531973736563e-09 0.0000000000000000e+00  1.9689253233250960e-08 6.8645549829150826e-09 0.0000000000000000e+00  8.2670823655651298e-09 1.3016519037792415e-08 0.0000000000000000e+00  -1.8402134550803345e-08 1.0956378103134383e-08 0.0000000000000000e+00  -1.1117605520091712e-08 -1.9592832293932905e-08 0.0000000000000000e+00  -2.5493305008757408e-10 -1.8493162481691210e-08 0.0000000000000000e+00  5.8630163385604035e-09 -1.1338350163815083e-08 0.0000000000000000e+00  1.0747489940194484e-08 -6.5590247040115148e-09 0.0000000000000000e+00  1.4558025658523642e-08 -3.7976136211052176e-09 0.0000000000000000e+00  1.7199698194098822e-08 -2.2281209657201865e-09 0.0000000000000000e+00  1.8964799303343585e-08 -1.3102272854836516e-09 0.0000000000000000e+00  2.0119560915331261e-08 -7.5286505344886316e-10 0.0000000000000000e+00  2.0843322229387213e-08 -3.9710159887381598e-10 0.0000000000000000e+00  2.1246428413355673e-08 -1.4868248909944493e-10 0.0000000000000000e+00  2.1388741807890308e-08 5.6587689075519812e-11 0.0000000000000000e+00  2.1290693434533007e-08 2.7174765864751791e-10 0.0000000000000000e+00  2.0937288926177671e-08 5.5182195577190146e-10 0.0000000000000000e+00  2.0275725187701175e-08 9.6744749069148762e-10 0.0000000000000000e+00  1.9206031403290465e-08 1.6249187772922027e-09 0.0000000000000000e+00  1.7562826107895001e-08 2.7003635415928368e-09 0.0000000000000000e+00  1.5086824130113212e-08 4.4944833871025732e-09 0.0000000000000000e+00  1.1396297146326543e-08 7.4810567517765259e-09 0.0000000000000000e+00  6.0253854032253846e-09 1.2126373852657542e-08 0.0000000000000000e+00  -1.2872911567662542e-09 1.7578710138021466e-08 0.0000000000000000e+00  -1.3235720928811691e-08 1.4702861848024713e-08 0.0000000000000000e+00  -7.4145755920865766e-09 -2.0194783451527155e-08 0.0000000000000000e+00  -1.5521997723886282e-09 -1.9930186485051776e-08 0.0000000000000000e+00  1.1315374459514791e-09 -1.5309805407745114e-08 0.0000000000000000e+00  3.9085430359155895e-09 -1.0429337201451689e-08 0.0000000000000000e+00  6.8039114016168527e-09 -6.8522377224935981e-09 0.0000000000000000e+00  9.3204886874912742e-09 -4.4431208205572796e-09 0.0000000000000000e+00  1.1260541038039054e-08 -2.8438269240878331e-09 0.0000000000000000e+00  1.2648693014773627e-08 -1.7627968547773398e-09 0.0000000000000000e+00  1.3569372263023859e-08 -9.9941111033122250e-10 0.0000000000000000e+00  1.4097237924368703e-08 -4.1568429964317939e-10 0.0000000000000000e+00  1.4279548480731879e-08 9.1056612289768609e-11 0.0000000000000000e+00  1.4133534556307443e-08 6.0840838425060767e-10 0.0000000000000000e+00  1.3646622946194848e-08 1.2249252994501046e-09 0.0000000000000000e+00  1.2776683182645904e-08 2.0456124064313965e-09 0.0000000000000000e+00  1.1453538779569070e-08 3.2094680422575914e-09 0.0000000000000000e+00  9.5879484808123873e-09 4.9074719906300566e-09 0.0000000000000000e+00  7.1049049147036359e-09 7.3832140876242302e-09 0.0000000000000000e+00  4.0353460617686449e-09 1.0845702358528050e-08 0.0000000000000000e+00  6.7229700095190375e-10 1.5103124653314268e-08 0.0000000000000000e+00  -2.6216308005032153e-09 1.8744644428001261e-08 0.0000000000000000e+00  -8.9337162841138107e-09 1.7544461366390156e-08 0.0000000000000000e+00  -5.5443940874692342e-09 -1.9582145462208849e-08 0.0000000000000000e+00  -1.8915009678753456e-09 -1.9667362215848707e-08 0.0000000000000000e+00  -9.2754875131272403e-10 -1.6725803589521869e-08 0.0000000000000000e+00  2.1120660340559821e-10 -1.2804642972398688e-08 0.0000000000000000e+00  1.8510122831457981e-09 -9.2516783724549526e-09 0.0000000000000000e+00  3.6234515303165582e-09 -6.4678062898401441e-09 0.0000000000000000e+00  5.2062004112934239e-09 -4.3948886437861712e-09 0.0000000000000000e+00  6.4553739860248661e-09 -2.8584565032820068e-09 0.0000000000000000e+00  7.3375566372937243e-09 -1.6870939930513975e-09 0.0000000000000000e+00  7.8622694249572511e-09 -7.3692543457894996e-10 0.0000000000000000e+00  8.0455585533013494e-09 1.1271286089992758e-10 0.0000000000000000e+00  7.8950605098166652e-09 9.7027414424506633e-10 0.0000000000000000e+00  7.4059075290172243e-09 1.9435037421527899e-09 0.0000000000000000e+00  6.5633786265644700e-09 3.1497512716727253e-09 0.0000000000000000e+00  5.3535454968270677e-09 4.7225620944862594e-09 0.0000000000000000e+00  3.7879620547376580e-09 6.8059931553258315e-09 0.0000000000000000e+00  1.9517538860504109e-09 9.5133093000234802e-09 0.0000000000000000e+00  7.2118742668573089e-11 1.2802332502411264e-08 0.0000000000000000e+00  -1.4863089648046084e-09 1.6221561036861776e-08 0.0000000000000000e+00  -2.7331434383270652e-09 1.8692000548272105e-08 0.0000000000000000e+00  -6.6459106621523445e-09 1.8530528533055619e-08 0.0000000000000000e+00  -4.4828673327882941e-09 -1.8430261341739827e-08 0.0000000000000000e+00  -2.0645745165679097e-09 -1.8734296302217136e-08 0.0000000000000000e+00  -2.0098634241428756e-09 -1.6748798475798006e-08 0.0000000000000000e+00  -1.9228143983884611e-09 -1.3771241305246691e-08 0.0000000000000000e+00  -1.3220285843793093e-09 -1.0657084521920726e-08 0.0000000000000000e+00  -3.8032450987636640e-10 -7.8972286010525075e-09 0.0000000000000000e+00  6.3482314620653591e-10 -5.6248778931382215e-09 0.0000000000000000e+00  1.5340829120057671e-09 -3.7972825434345177e-09 0.0000000000000000e+00  2.2177037448816635e-09 -2.3090288127054895e-09 0.0000000000000000e+00  2.6430322806458468e-09 -1.0421629031455232e-09 0.0000000000000000e+00  2.7955143784370940e-09 1.1806892512783746e-10 0.0000000000000000e+00  2.6721946078448753e-09 1.2816860718045293e-09 0.0000000000000000e+00  2.2759820905281724e-09 2.5568115380606463e-09 0.0000000000000000e+00  1.6187394853185510e-09 4.0514796068485981e-09 0.0000000000000000e+00  7.3334896426671235e-10 5.8689636493008267e-09 0.0000000000000000e+00  -3.0405024481291264e-10 8.0875982128722674e-09 0.0000000000000000e+00  -1.3447458250898685e-09 1.0710604993661162e-08 0.0000000000000000e+00  -2.1555883581777204e-09 1.3572997640223015e-08 0.0000000000000000e+00  -2.5174902525277658e-09 1.6230824602745835e-08 0.0000000000000000e+00  -2.7111742136434140e-09 1.7991028146279818e-08 0.0000000000000000e+00  -5.3050679012432735e-09 1.8286883570645662e-08 0.0000000000000000e+00  -3.8064872981354531e-09 -1.6980903626749771e-08 0.0000000000000000e+00  -2.1958338360306725e-09 -1.7435966627542230e-08 0.0000000000000000e+00  -2.6832281972321861e-09 -1.6027953804050520e-08 0.0000000000000000e+00  -3.2614865590574418e-09 -1.3762472376286111e-08 0.0000000000000000e+00  -3.4180201889316639e-09 -1.1166438465431733e-08 0.0000000000000000e+00  -3.1885158623220240e-09 -8.6429072896817493e-09 0.0000000000000000e+00  -2.7487448621344270e-09 -6.3874615731055156e-09 0.0000000000000000e+00  -2.2648431096223844e-09 -4.4423689685002876e-09 0.0000000000000000e+00  -1.8519453361591894e-09 -2.7661466240282334e-09 0.0000000000000000e+00  -1.5773287486411939e-09 -1.2797311021013461e-09 0.0000000000000000e+00  -1.4742890961616282e-09 1.0968522673454168e-10 0.0000000000000000e+00  -1.5532278934560561e-09 1.4979998277369737e-09 0.0000000000000000e+00  -1.8062911702030898e-09 2.9789433317187777e-09 0.0000000000000000e+00  -2.2052764028989274e-09 4.6383840230321401e-09 0.0000000000000000e+00  -2.6934802767789944e-09 6.5427938378375630e-09 0.0000000000000000e+00  -3.1739303517617215e-09 8.7159544119876375e-09 0.0000000000000000e+00  -3.5023924846589900e-09 1.1099250470409582e-08 0.0000000000000000e+00  -3.5091192295693103e-09 1.3500719316094937e-08 0.0000000000000000e+00  -3.1113108208587136e-09 1.5567156162748748e-08 0.0000000000000000e+00  -2.6959898544462735e-09 1.6871837339368133e-08 0.0000000000000000e+00  -4.4364739318194193e-09 1.7384637145059276e-08 0.0000000000000000e+00  -3.3392131669331997e-09 -1.5333993471415649e-08 0.0000000000000000e+00  -2.3037550152214583e-09 -1.5897863113212681e-08 0.0000000000000000e+00  -3.1501139323853237e-09 -1.4863933215278971e-08 0.0000000000000000e+00  -4.1624634975353806e-09 -1.3117014909417248e-08 0.0000000000000000e+00  -4.8508812411600226e-09 -1.0990815525954289e-08 0.0000000000000000e+00  -5.1739645300712735e-09 -8.7812450477125120e-09 0.0000000000000000e+00  -5.2293534905663188e-09 -6.6756173299302054e-09 0.0000000000000000e+00  -5.1386949663203960e-09 -4.7531589304318745e-09 0.0000000000000000e+00  -5.0031717131023477e-09 -3.0164684225822002e-09 0.0000000000000000e+00  -4.8920288971388428e-09 -1.4230183456779381e-09 0.0000000000000000e+00  -4.8444077185510079e-09 9.2423185649471094e-11 0.0000000000000000e+00  -4.8738531336496517e-09 1.6034732635664383e-09 0.0000000000000000e+00  -4.9708300806401404e-09 3.1819963048681871e-09 0.0000000000000000e+00  -5.1019872423184278e-09 4.8880333325664551e-09 0.0000000000000000e+00  -5.2070593302826295e-09 6.7561057728875425e-09 0.0000000000000000e+00  -5.1967869262873152e-09 8.7752968135618572e-09 0.0000000000000000e+00  -4.9596329683673824e-09 1.0863935199994066e-08 0.0000000000000000e+00  -4.3936400140060005e-09 1.2848127768562946e-08 0.0000000000000000e+00  -3.5024314218647012e-09 1.4468428574565751e-08 0.0000000000000000e+00  -2.6949403069478108e-09 1.5464234471782436e-08 0.0000000000000000e+00  -3.8320484919544408e-09 1.6097528035979241e-08 0.0000000000000000e+00  -2.9999674915040527e-09 -1.3543306863744098e-08 0.0000000000000000e+00  -2.3921165512436652e-09 -1.4187650913096758e-08 0.0000000000000000e+00  -3.4922045757063843e-09 -1.3411694354353310e-08 0.0000000000000000e+00  -4.7980093338260430e-09 -1.2049707959116378e-08 0.0000000000000000e+00  -5.8570316793147045e-09 -1.0321488880293351e-08 0.0000000000000000e+00  -6.5893470228485310e-09 -8.4369538443729028e-09 0.0000000000000000e+00  -7.0372517321218696e-09 -6.5512510149098015e-09 0.0000000000000000e+00  -7.2789499726746964e-09 -4.7502751285158832e-09 0.0000000000000000e+00  -7.3906969235568424e-09 -3.0604173226593651e-09 0.0000000000000000e+00  -7.4310033790391663e-09 -1.4665117409653107e-09 0.0000000000000000e+00  -7.4358830741514317e-09 7.1044778670560555e-11 0.0000000000000000e+00  -7.4186014948193493e-09 1.6023867931060616e-09 0.0000000000000000e+00  -7.3703307348520023e-09 3.1765597512323030e-09 0.0000000000000000e+00  -7.2604640833103036e-09 4.8301950893805670e-09 0.0000000000000000e+00  -7.0373024620353109e-09 6.5747137299406558e-09 0.0000000000000000e+00  -6.6318147020839872e-09 8.3816524454384441e-09 0.0000000000000000e+00  -5.9696946675172007e-09 1.0168713600096714e-08 0.0000000000000000e+00  -5.0016023746244659e-09 1.1794148460978255e-08 0.0000000000000000e+00  -3.7790748373570408e-09 1.3073701066501535e-08 0.0000000000000000e+00  -2.7005202531645831e-09 1.3849387036668700e-08 0.0000000000000000e+00  -3.3905878408095806e-09 1.4559130276678920e-08 0.0000000000000000e+00  -2.7472739877074842e-09 -1.1644898650982561e-08 0.0000000000000000e+00  -2.4631610048210844e-09 -1.2349626743502419e-08 0.0000000000000000e+00  -3.7484299452342821e-09 -1.1762211905830708e-08 0.0000000000000000e+00  -5.2575447266084948e-09 -1.0696422020718329e-08 0.0000000000000000e+00  -6.5745940730503438e-09 -9.3031604129627578e-09 0.0000000000000000e+00  -7.6021750873873754e-09 -7.7299282823709389e-09 0.0000000000000000e+00  -8.3463149872714145e-09 -6.0970952534094281e-09 0.0000000000000000e+00  -8.8501639698685822e-09 -4.4826534649816321e-09 0.0000000000000000e+00  -9.1643959097411658e-09 -2.9222783950801798e-09 0.0000000000000000e+00  -9.3321475374245852e-09 -1.4181982635458123e-09 0.0000000000000000e+00  -9.3818770898521513e-09 4.9168458039038122e-11 0.0000000000000000e+00  -9.3246240921070327e-09 1.5097013740692590e-09 0.0000000000000000e+00  -9.1535111261040004e-09 2.9927984969829693e-09 0.0000000000000000e+00  -8.8446281026552313e-09 4.5169077961777411e-09 0.0000000000000000e+00  -8.3597203912038378e-09 6.0790072300018086e-09 0.0000000000000000e+00  -7.6523133154795538e-09 7.6446848836008023e-09 0.0000000000000000e+00  -6.6802079606708998e-09 9.1413770210549147e-09 0.0000000000000000e+00  -5.4304916704576672e-09 1.0459745629199494e-08 0.0000000000000000e+00  -3.9796974943307368e-09 1.1471135657661610e-08 0.0000000000000000e+00  -2.7065636311212169e-09 1.2081994415815161e-08 0.0000000000000000e+00  -3.0579466938914208e-09 1.2844043605855315e-08 0.0000000000000000e+00  -2.5580858914885581e-09 -9.6660739078308087e-09 0.0000000000000000e+00  -2.5193276373281264e-09 -1.0416361913156440e-08 0.0000000000000000e+00  -3.9409313188732878e-09 -9.9745920996340560e-09 0.0000000000000000e+00  -5.5922690049770575e-09 -9.1465918043774593e-09 0.0000000000000000e+00  -7.0883358259479195e-09 -8.0402637670956164e-09 0.0000000000000000e+00  -8.3248074081606743e-09 -6.7589703565027968e-09 0.0000000000000000e+00  -9.2847957401570804e-09 -5.3927016423466147e-09 0.0000000000000000e+00  -9.9855745579439780e-09 -4.0061950149533233e-09 0.0000000000000000e+00  -1.0456002070307181e-08 -2.6356668202537027e-09 0.0000000000000000e+00  -1.0723987608710010e-08 -1.2925576267277551e-09 0.0000000000000000e+00  -1.0809322299302359e-08 2.9112308270178473e-11 0.0000000000000000e+00  -1.0720116444535902e-08 1.3441004359279154e-09 0.0000000000000000e+00  -1.0451785750192445e-08 2.6671166374348101e-09 0.0000000000000000e+00  -9.9881173800190594e-09 4.0042318192792641e-09 0.0000000000000000e+00  -9.3045936884732919e-09 5.3449156017998387e-09 0.0000000000000000e+00  -8.3747436258620648e-09 6.6556791211576377e-09 0.0000000000000000e+00  -7.1810072724456549e-09 7.8772746171566638e-09 0.0000000000000000e+00  -5.7344969903278522e-09 8.9283847540298784e-09 0.0000000000000000e+00  -4.1243687344853470e-09 9.7204693121455420e-09 0.0000000000000000e+00  -2.7096549320948369e-09 1.0201419560703086e-08 0.0000000000000000e+00  -2.8030203152647950e-09 1.1000075662056203e-08 0.0000000000000000e+00  -2.4188679836493435e-09 -7.6286299614589830e-09 0.0000000000000000e+00  -2.5632866836016741e-09 -8.4132315026978793e-09 0.0000000000000000e+00  -4.0843124954680146e-09 -8.0900429559787403e-09 0.0000000000000000e+00  -5.8345014298433593e-09 -7.4615106672793625e-09 0.0000000000000000e+00  -7.4532535444305875e-09 -6.6077116098274146e-09 0.0000000000000000e+00  -8.8343064037343250e-09 -5.6006511171011647e-09 0.0000000000000000e+00  -9.9465973864685051e-09 -4.5055531697499858e-09 0.0000000000000000e+00  -1.0789293993437562e-08 -3.3729025229036615e-09 0.0000000000000000e+00  -1.1374414932501910e-08 -2.2347168214468251e-09 0.0000000000000000e+00  -1.1717011930211032e-08 -1.1057403296846754e-09 0.0000000000000000e+00  -1.1828971477323349e-08 1.2145910039300668e-11 0.0000000000000000e+00  -1.1715551270185451e-08 1.1238803334975972e-09 0.0000000000000000e+00  -1.1374258316181818e-08 2.2346162409045390e-09 0.0000000000000000e+00  -1.0795872717895368e-08 3.3432602610289811e-09 0.0000000000000000e+00  -9.9676414554306948e-09 4.4368157849265204e-09 0.0000000000000000e+00  -8.8788838444244766e-09 5.4864583529091727e-09 0.0000000000000000e+00  -7.5297516424029364e-09 6.4466711486209005e-09 0.0000000000000000e+00  -5.9468460381413683e-09 7.2590901153941766e-09 0.0000000000000000e+00  -4.2255921586540181e-09 7.8642046478917598e-09 0.0000000000000000e+00  -2.7084626983107640e-09 8.2373488615441003e-09 0.0000000000000000e+00  -2.6071181240133214e-09 9.0611382260597679e-09 0.0000000000000000e+00  -2.3214342287885960e-09 -5.5503446339054781e-09 0.0000000000000000e+00  -2.5977074110316977e-09 -6.3605288803291746e-09 0.0000000000000000e+00  -4.1891142992426280e-09 -6.1386899568053969e-09 0.0000000000000000e+00  -6.0061542678316595e-09 -5.6846502636859194e-09 0.0000000000000000e+00  -7.7065776610794434e-09 -5.0596630624946190e-09 0.0000000000000000e+00  -9.1843628440960418e-09 -4.3128944129894386e-09 0.0000000000000000e+00  -1.0399891858159311e-08 -3.4896488323166399e-09 0.0000000000000000e+00  -1.1340232085571143e-08 -2.6268342633354099e-09 0.0000000000000000e+00  -1.2005329408511341e-08 -1.7498997115405288e-09 0.0000000000000000e+00  -1.2400449477390664e-08 -8.7293083284896635e-10 0.0000000000000000e+00  -1.2531158111538502e-08 -1.1606205261088385e-12 0.0000000000000000e+00  -1.2400322528146813e-08 8.6508176479687637e-10 0.0000000000000000e+00  -1.2007079282349142e-08 1.7258196096975638e-09 0.0000000000000000e+00  -1.1347729836473381e-08 2.5769488165943527e-09 0.0000000000000000e+00  -1.0418510142900655e-08 3.4064662312283554e-09 0.0000000000000000e+00  -9.2202110243895199e-09 4.1921314343194102e-09 0.0000000000000000e+00  -7.7650840599045116e-09 4.9014035650054698e-09 0.0000000000000000e+00  -6.0895467862341452e-09 5.4945815274074992e-09 0.0000000000000000e+00  -4.2921720338621892e-09 5.9336582447784445e-09 0.0000000000000000e+00  -2.7029226865894431e-09 6.2128284835326992e-09 0.0000000000000000e+00  -2.4587245384061205e-09 7.0527959276478608e-09 0.0000000000000000e+00  -2.2608311269113169e-09 -3.4459526072357766e-09 0.0000000000000000e+00  -2.6250115987186851e-09 -4.2747467803340859e-09 0.0000000000000000e+00  -4.2631309781086116e-09 -4.1433693541998306e-09 0.0000000000000000e+00  -6.1224850601857921e-09 -3.8478631800984606e-09 0.0000000000000000e+00  -7.8738133042008582e-09 -3.4359580611097214e-09 0.0000000000000000e+00  -9.4121490262147512e-09 -2.9394220120801940e-09 0.0000000000000000e+00  -1.0692990029148141e-08 -2.38721999509