<?xml version="1.0"?>
<VTKFile type="UnstructuredGrid"  version="0.1"  >
<UnstructuredGrid>
<Piece  NumberOfPoints="651" NumberOfCells="1200">
<Points>
<DataArray  type="Float64"  NumberOfComponents="3"  format="ascii">0 0 0  50000 0 0  100000 0 0  150000 0 0  200000 0 0  250000 0 0  300000 0 0  350000 0 0  400000 0 0  450000 0 0  500000 0 0  550000 0 0  600000 0 0  650000 0 0  700000 0 0  750000 0 0  800000 0 0  850000 0 0  900000 0 0  950000 0 0  1000000 0 0  0 50000 0  50000 50000 0  100000 50000 0  150000 50000 0  200000 50000 0  250000 50000 0  300000 50000 0  350000 50000 0  400000 50000 0  450000 50000 0  500000 50000 0  550000 50000 0  600000 50000 0  650000 50000 0  700000 50000 0  750000 50000 0  800000 50000 0  850000 50000 0  900000 50000 0  950000 50000 0  1000000 50000 0  0 100000 0  50000 100000 0  100000 100000 0  150000 100000 0  200000 100000 0  250000 100000 0  300000 100000 0  350000 100000 0  400000 100000 0  450000 100000 0  500000 100000 0  550000 100000 0  600000 100000 0  650000 100000 0  700000 100000 0  750000 100000 0  800000 100000 0  850000 100000 0  900000 100000 0  950000 100000 0  1000000 100000 0  0 150000 0  50000 150000 0  100000 150000 0  150000 150000 0  200000 150000 0  250000 150000 0  300000 150000 0  350000 150000 0  400000 150000 0  450000 150000 0  500000 150000 0  550000 150000 0  600000 150000 0  650000 150000 0  700000 150000 0  750000 150000 0  800000 150000 0  850000 150000 0  900000 150000 0  950000 150000 0  1000000 150000 0  0 200000 0  50000 200000 0  100000 200000 0  150000 200000 0  200000 200000 0  250000 200000 0  300000 200000 0  350000 200000 0  400000 200000 0  450000 200000 0  500000 200000 0  550000 200000 0  600000 200000 0  650000 200000 0  700000 200000 0  750000 200000 0  800000 200000 0  850000 200000 0  900000 200000 0  950000 200000 0  1000000 200000 0  0 250000 0  50000 250000 0  100000 250000 0  150000 250000 0  200000 250000 0  250000 250000 0  300000 250000 0  350000 250000 0  400000 250000 0  450000 250000 0  500000 250000 0  550000 250000 0  600000 250000 0  650000 250000 0  700000 250000 0  750000 250000 0  800000 250000 0  850000 250000 0  900000 250000 0  950000 250000 0  1000000 250000 0  0 300000 0  50000 300000 0  100000 300000 0  150000 300000 0  200000 300000 0  250000 300000 0  300000 300000 0  350000 300000 0  400000 300000 0  450000 300000 0  500000 300000 0  550000 300000 0  600000 300000 0  650000 300000 0  700000 300000 0  750000 300000 0  800000 300000 0  850000 300000 0  900000 300000 0  950000 300000 0  1000000 300000 0  0 350000 0  50000 350000 0  100000 350000 0  150000 350000 0  200000 350000 0  250000 350000 0  300000 350000 0  350000 350000 0  400000 350000 0  450000 350000 0  500000 350000 0  550000 350000 0  600000 350000 0  650000 350000 0  700000 350000 0  750000 350000 0  800000 350000 0  850000 350000 0  900000 350000 0  950000 350000 0  1000000 350000 0  0 400000 0  50000 400000 0  100000 400000 0  150000 400000 0  200000 400000 0  250000 400000 0  300000 400000 0  350000 400000 0  400000 400000 0  450000 400000 0  500000 400000 0  550000 400000 0  600000 400000 0  650000 400000 0  700000 400000 0  750000 400000 0  800000 400000 0  850000 400000 0  900000 400000 0  950000 400000 0  1000000 400000 0  0 450000 0  50000 450000 0  100000 450000 0  150000 450000 0  200000 450000 0  250000 450000 0  300000 450000 0  350000 450000 0  400000 450000 0  450000 450000 0  500000 450000 0  550000 450000 0  600000 450000 0  650000 450000 0  700000 450000 0  750000 450000 0  800000 450000 0  850000 450000 0  900000 450000 0  950000 450000 0  1000000 450000 0  0 500000 0  50000 500000 0  100000 500000 0  150000 500000 0  200000 500000 0  250000 500000 0  300000 500000 0  350000 500000 0  400000 500000 0  450000 500000 0  500000 500000 0  550000 500000 0  600000 500000 0  650000 500000 0  700000 500000 0  750000 500000 0  800000 500000 0  850000 500000 0  900000 500000 0  950000 500000 0  1000000 500000 0  0 550000 0  50000 550000 0  100000 550000 0  150000 550000 0  200000 550000 0  250000 550000 0  300000 550000 0  350000 550000 0  400000 550000 0  450000 550000 0  500000 550000 0  550000 550000 0  600000 550000 0  650000 550000 0  700000 550000 0  750000 550000 0  800000 550000 0  850000 550000 0  900000 550000 0  950000 550000 0  1000000 550000 0  0 600000 0  50000 600000 0  100000 600000 0  150000 600000 0  200000 600000 0  250000 600000 0  300000 600000 0  350000 600000 0  400000 600000 0  450000 600000 0  500000 600000 0  550000 600000 0  600000 600000 0  650000 600000 0  700000 600000 0  750000 600000 0  800000 600000 0  850000 600000 0  900000 600000 0  950000 600000 0  1000000 600000 0  0 650000 0  50000 650000 0  100000 650000 0  150000 650000 0  200000 650000 0  250000 650000 0  300000 650000 0  350000 650000 0  400000 650000 0  450000 650000 0  500000 650000 0  550000 650000 0  600000 650000 0  650000 650000 0  700000 650000 0  750000 650000 0  800000 650000 0  850000 650000 0  900000 650000 0  950000 650000 0  1000000 650000 0  0 700000 0  50000 700000 0  100000 700000 0  150000 700000 0  200000 700000 0  250000 700000 0  300000 700000 0  350000 700000 0  400000 700000 0  450000 700000 0  500000 700000 0  550000 700000 0  600000 700000 0  650000 700000 0  700000 700000 0  750000 700000 0  800000 700000 0  850000 700000 0  900000 700000 0  950000 700000 0  1000000 700000 0  0 750000 0  50000 750000 0  100000 750000 0  150000 750000 0  200000 750000 0  250000 750000 0  300000 750000 0  350000 750000 0  400000 750000 0  450000 750000 0  500000 750000 0  550000 750000 0  600000 750000 0  650000 750000 0  700000 750000 0  750000 750000 0  800000 750000 0  850000 750000 0  900000 750000 0  950000 750000 0  1000000 750000 0  0 800000 0  50000 800000 0  100000 800000 0  150000 800000 0  200000 800000 0  250000 800000 0  300000 800000 0  350000 800000 0  400000 800000 0  450000 800000 0  500000 800000 0  550000 800000 0  600000 800000 0  650000 800000 0  700000 800000 0  750000 800000 0  800000 800000 0  850000 800000 0  900000 800000 0  950000 800000 0  1000000 800000 0  0 850000 0  50000 850000 0  100000 850000 0  150000 850000 0  200000 850000 0  250000 850000 0  300000 850000 0  350000 850000 0  400000 850000 0  450000 850000 0  500000 850000 0  550000 850000 0  600000 850000 0  650000 850000 0  700000 850000 0  750000 850000 0  800000 850000 0  850000 850000 0  900000 850000 0  950000 850000 0  1000000 850000 0  0 900000 0  50000 900000 0  100000 900000 0  150000 900000 0  200000 900000 0  250000 900000 0  300000 900000 0  350000 900000 0  400000 900000 0  450000 900000 0  500000 900000 0  550000 900000 0  600000 900000 0  650000 900000 0  700000 900000 0  750000 900000 0  800000 900000 0  850000 900000 0  900000 900000 0  950000 900000 0  1000000 900000 0  0 950000 0  50000 950000 0  100000 950000 0  150000 950000 0  200000 950000 0  250000 950000 0  300000 950000 0  350000 950000 0  400000 950000 0  450000 950000 0  500000 950000 0  550000 950000 0  600000 950000 0  650000 950000 0  700000 950000 0  750000 950000 0  800000 950000 0  850000 950000 0  900000 950000 0  950000 950000 0  1000000 950000 0  0 1000000 0  50000 1000000 0  100000 1000000 0  150000 1000000 0  200000 1000000 0  250000 1000000 0  300000 1000000 0  350000 1000000 0  400000 1000000 0  450000 1000000 0  500000 1000000 0  550000 1000000 0  600000 1000000 0  650000 1000000 0  700000 1000000 0  750000 1000000 0  800000 1000000 0  850000 1000000 0  900000 1000000 0  950000 1000000 0  1000000 1000000 0  0 1050000 0  50000 1050000 0  100000 1050000 0  150000 1050000 0  200000 1050000 0  250000 1050000 0  300000 1050000 0  350000 1050000 0  400000 1050000 0  450000 1050000 0  500000 1050000 0  550000 1050000 0  600000 1050000 0  650000 1050000 0  700000 1050000 0  750000 1050000 0  800000 1050000 0  850000 1050000 0  900000 1050000 0  950000 1050000 0  1000000 1050000 0  0 1100000 0  50000 1100000 0  100000 1100000 0  150000 1100000 0  200000 1100000 0  250000 1100000 0  300000 1100000 0  350000 1100000 0  400000 1100000 0  450000 1100000 0  500000 1100000 0  550000 1100000 0  600000 1100000 0  650000 1100000 0  700000 1100000 0  750000 1100000 0  800000 1100000 0  850000 1100000 0  900000 1100000 0  950000 1100000 0  1000000 1100000 0  0 1150000 0  50000 1150000 0  100000 1150000 0  150000 1150000 0  200000 1150000 0  250000 1150000 0  300000 1150000 0  350000 1150000 0  400000 1150000 0  450000 1150000 0  500000 1150000 0  550000 1150000 0  600000 1150000 0  650000 1150000 0  700000 1150000 0  750000 1150000 0  800000 1150000 0  850000 1150000 0  900000 1150000 0  950000 1150000 0  1000000 1150000 0  0 1200000 0  50000 1200000 0  100000 1200000 0  150000 1200000 0  200000 1200000 0  250000 1200000 0  300000 1200000 0  350000 1200000 0  400000 1200000 0  450000 1200000 0  500000 1200000 0  550000 1200000 0  600000 1200000 0  650000 1200000 0  700000 1200000 0  750000 1200000 0  800000 1200000 0  850000 1200000 0  900000 1200000 0  950000 1200000 0  1000000 1200000 0  0 1250000 0  50000 1250000 0  100000 1250000 0  150000 1250000 0  200000 1250000 0  250000 1250000 0  300000 1250000 0  350000 1250000 0  400000 1250000 0  450000 1250000 0  500000 1250000 0  550000 1250000 0  600000 1250000 0  650000 1250000 0  700000 1250000 0  750000 1250000 0  800000 1250000 0  850000 1250000 0  900000 1250000 0  950000 1250000 0  1000000 1250000 0  0 1300000 0  50000 1300000 0  100000 1300000 0  150000 1300000 0  200000 1300000 0  250000 1300000 0  300000 1300000 0  350000 1300000 0  400000 1300000 0  450000 1300000 0  500000 1300000 0  550000 1300000 0  600000 1300000 0  650000 1300000 0  700000 1300000 0  750000 1300000 0  800000 1300000 0  850000 1300000 0  900000 1300000 0  950000 1300000 0  1000000 1300000 0  0 1350000 0  50000 1350000 0  100000 1350000 0  150000 1350000 0  200000 1350000 0  250000 1350000 0  300000 1350000 0  350000 1350000 0  400000 1350000 0  450000 1350000 0  500000 1350000 0  550000 1350000 0  600000 1350000 0  650000 1350000 0  700000 135
[...]
<PointData  Vectors="f_7489"> 
<DataArray  type="Float64"  Name="f_7489"  NumberOfComponents="3" format="ascii">-2.4153128254916424e-08 -1.1024754768957906e-08 0.0000000000000000e+00  4.8895095962642458e-08 -7.0898278948471709e-09 0.0000000000000000e+00  4.3165350407200351e-08 -2.7642631073080864e-09 0.0000000000000000e+00  4.0709863443057522e-08 -1.3821834176694414e-09 0.0000000000000000e+00  3.9499947022516660e-08 -8.9757854574468201e-10 0.0000000000000000e+00  3.8702787172788449e-08 -6.8833657023358737e-10 0.0000000000000000e+00  3.8121629321656903e-08 -5.8458006162925373e-10 0.0000000000000000e+00  3.7700008260462369e-08 -5.2701359044627675e-10 0.0000000000000000e+00  3.7420796994406624e-08 -4.8945961950525309e-10 0.0000000000000000e+00  3.7280525946688311e-08 -4.5738250410711180e-10 0.0000000000000000e+00  3.7281668855767071e-08 -4.2066310170146650e-10 0.0000000000000000e+00  3.7430841868199710e-08 -3.7045691585316519e-10 0.0000000000000000e+00  3.7740245259922715e-08 -2.9688055037414814e-10 0.0000000000000000e+00  3.8233411924190420e-08 -1.8563916089807798e-10 0.0000000000000000e+00  3.8960831376259251e-08 -1.0764129105785026e-11 0.0000000000000000e+00  4.0041922960342765e-08 2.8365614717176758e-10 0.0000000000000000e+00  4.1776865633084929e-08 8.3253165136558588e-10 0.0000000000000000e+00  4.4909695074119984e-08 1.9770124484362903e-09 0.0000000000000000e+00  5.0765731678082157e-08 4.5319441486207119e-09 0.0000000000000000e+00  5.8011490067483300e-08 9.0632524711224921e-09 0.0000000000000000e+00  -1.6441274325363189e-08 6.9582319361146084e-09 0.0000000000000000e+00  -1.7892446368808954e-08 -1.6577071728693663e-08 0.0000000000000000e+00  7.4208547561632987e-09 -1.1561969242836504e-08 0.0000000000000000e+00  1.8419481769022337e-08 -5.3537404670048567e-09 0.0000000000000000e+00  2.3472619131168507e-08 -2.4837389734531698e-09 0.0000000000000000e+00  2.6028800733352907e-08 -1.2205061277796999e-09 0.0000000000000000e+00  2.7460896342799141e-08 -6.2245029179703438e-10 0.0000000000000000e+00  2.8279643043037087e-08 -3.1996387675717279e-10 0.0000000000000000e+00  2.8743999098015462e-08 -1.6250496038781913e-10 0.0000000000000000e+00  2.8997900239476236e-08 -8.1251174271217126e-11 0.0000000000000000e+00  2.9122365547980697e-08 -3.9220826742017651e-11 0.0000000000000000e+00  2.9160509955377578e-08 -1.2302636373506267e-11 0.0000000000000000e+00  2.9128973764578919e-08 1.9499034753822273e-11 0.0000000000000000e+00  2.9021734111215854e-08 7.7928888081473064e-11 0.0000000000000000e+00  2.8808316342113104e-08 1.9323373075781354e-10 0.0000000000000000e+00  2.8425421023691217e-08 4.1611275047694228e-10 0.0000000000000000e+00  2.7755977889625043e-08 8.4374524334778347e-10 0.0000000000000000e+00  2.6573642958374573e-08 1.6806748653930543e-09 0.0000000000000000e+00  2.4365078031260937e-08 3.3745109894354338e-09 0.0000000000000000e+00  1.9681539406205829e-08 6.8173197781918920e-09 0.0000000000000000e+00  8.2718957148483530e-09 1.2974498137385304e-08 0.0000000000000000e+00  -1.8408875836042936e-08 1.0889997553632706e-08 0.0000000000000000e+00  -1.0882416609511568e-08 -2.0157229891073185e-08 0.0000000000000000e+00  -1.5658985060409890e-10 -1.8730811061259243e-08 0.0000000000000000e+00  6.0496658006931837e-09 -1.1371442228728059e-08 0.0000000000000000e+00  1.0971377694112025e-08 -6.5466154421004538e-09 0.0000000000000000e+00  1.4779918210499572e-08 -3.7663197240880137e-09 0.0000000000000000e+00  1.7401687622895151e-08 -2.1851802099840966e-09 0.0000000000000000e+00  1.9140840739761877e-08 -1.2584328131583887e-09 0.0000000000000000e+00  2.0267660106652245e-08 -6.9394037870017203e-10 0.0000000000000000e+00  2.0963305481373779e-08 -3.3298529038287348e-10 0.0000000000000000e+00  2.1339427425203459e-08 -8.1958179461249399e-11 0.0000000000000000e+00  2.1457004879055593e-08 1.2259494562029749e-10 0.0000000000000000e+00  2.1337444654466634e-08 3.3305942489769695e-10 0.0000000000000000e+00  2.0966543651217947e-08 6.0408054044080711e-10 0.0000000000000000e+00  2.0292024681154556e-08 1.0063945828267942e-09 0.0000000000000000e+00  1.9214102591601502e-08 1.6470581253873394e-09 0.0000000000000000e+00  1.7567200623645453e-08 2.7037187382472709e-09 0.0000000000000000e+00  1.5091444685446674e-08 4.4792920218624262e-09 0.0000000000000000e+00  1.1404101575642009e-08 7.4502171185108383e-09 0.0000000000000000e+00  6.0377353554418385e-09 1.2085320587881238e-08 0.0000000000000000e+00  -1.2649734152014874e-09 1.7541671605892769e-08 0.0000000000000000e+00  -1.3224024001995146e-08 1.4633756921616558e-08 0.0000000000000000e+00  -7.1580434676241733e-09 -2.0753070290498472e-08 0.0000000000000000e+00  -1.4898466948766430e-09 -2.0247263646962382e-08 0.0000000000000000e+00  1.2438104344340586e-09 -1.5392163457956822e-08 0.0000000000000000e+00  4.0693141112015706e-09 -1.0420613856538495e-08 0.0000000000000000e+00  6.9851780631956722e-09 -6.8022049449522431e-09 0.0000000000000000e+00  9.4992771164232660e-09 -4.3706664511388063e-09 0.0000000000000000e+00  1.1424369283158643e-08 -2.7575622497941669e-09 0.0000000000000000e+00  1.2791758080557219e-08 -1.6677651399922454e-09 0.0000000000000000e+00  1.3689651828237346e-08 -8.9964399495904848e-10 0.0000000000000000e+00  1.4194935215875899e-08 -3.1525012911013691e-10 0.0000000000000000e+00  1.4356281380647145e-08 1.8769467796100223e-10 0.0000000000000000e+00  1.4191837573881996e-08 6.9640882609277168e-10 0.0000000000000000e+00  1.3689573683943174e-08 1.2993486835491675e-09 0.0000000000000000e+00  1.2807592393592527e-08 2.1019187118835117e-09 0.0000000000000000e+00  1.1475701753800309e-08 3.2441734706488884e-09 0.0000000000000000e+00  9.6044748179963022e-09 4.9188668953660579e-09 0.0000000000000000e+00  7.1186267466982441e-09 7.3720103818462226e-09 0.0000000000000000e+00  4.0487580264262833e-09 1.0815545486987200e-08 0.0000000000000000e+00  6.8726014276914268e-10 1.5061352528279224e-08 0.0000000000000000e+00  -2.5934843572811301e-09 1.8716081409106133e-08 0.0000000000000000e+00  -8.8924223427621061e-09 1.7476733155893349e-08 0.0000000000000000e+00  -5.2693072215452279e-09 -2.0134270272647852e-08 0.0000000000000000e+00  -1.8438994989957707e-09 -2.0034798622943316e-08 0.0000000000000000e+00  -8.6172198373887398e-10 -1.6865485645587001e-08 0.0000000000000000e+00  3.1579165938399560e-10 -1.2826796010407324e-08 0.0000000000000000e+00  1.9827978240100902e-09 -9.2086845597240767e-09 0.0000000000000000e+00  3.7643739168664574e-09 -6.3873255793998311e-09 0.0000000000000000e+00  5.3427872484992622e-09 -4.2921554377732626e-09 0.0000000000000000e+00  6.5795676014359834e-09 -2.7428596808296307e-09 0.0000000000000000e+00  7.4453152362412429e-09 -1.5654732137911336e-09 0.0000000000000000e+00  7.9522338218950050e-09 -6.1516636200991951e-10 0.0000000000000000e+00  8.1180903847706365e-09 2.2898719996080964e-10 0.0000000000000000e+00  7.9515759519073034e-09 1.0755309259434282e-09 0.0000000000000000e+00  7.4484086077511996e-09 2.0324641175003470e-09 0.0000000000000000e+00  6.5941293674090922e-09 3.2177897705216394e-09 0.0000000000000000e+00  5.3748768710578733e-09 4.7662597003553522e-09 0.0000000000000000e+00  3.8021976231182109e-09 6.8237577811735158e-09 0.0000000000000000e+00  1.9612249877856318e-09 9.5060000513503145e-09 0.0000000000000000e+00  7.9217108880352128e-11 1.2774025067312322e-08 0.0000000000000000e+00  -1.4788940875199091e-09 1.6181397696399697e-08 0.0000000000000000e+00  -2.7050149982161349e-09 1.8673209249288210e-08 0.0000000000000000e+00  -6.5649519468140543e-09 1.8464508772382854e-08 0.0000000000000000e+00  -4.1900821112791084e-09 -1.8976017797664161e-08 0.0000000000000000e+00  -2.0233752703262234e-09 -1.9126646031499438e-08 0.0000000000000000e+00  -1.9729032720773987e-09 -1.6931516881765060e-08 0.0000000000000000e+00  -1.8600777096775038e-09 -1.3826402489354536e-08 0.0000000000000000e+00  -1.2345190882702730e-09 -1.0630656224792317e-08 0.0000000000000000e+00  -2.7937486533392475e-10 -7.8194058556647313e-09 0.0000000000000000e+00  7.3814482419744330e-10 -5.5152509629999273e-09 0.0000000000000000e+00  1.6316853853118028e-09 -3.6690928593768647e-09 0.0000000000000000e+00  2.3045684595440541e-09 -2.1719886013880323e-09 0.0000000000000000e+00  2.7165767026240542e-09 -9.0414155245016721e-10 0.0000000000000000e+00  2.8548821163330652e-09 2.5015840317930141e-10 0.0000000000000000e+00  2.7176608788189024e-09 1.4015371366733854e-09 0.0000000000000000e+00  2.3085088876856079e-09 2.6587370223926346e-09 0.0000000000000000e+00  1.6396786719158375e-09 4.1306730718697661e-09 0.0000000000000000e+00  7.4428592405745071e-10 5.9219236960082072e-09 0.0000000000000000e+00  -3.0132812218515324e-10 8.1126525182113007e-09 0.0000000000000000e+00  -1.3481848193316734e-09 1.0708535074054081e-08 0.0000000000000000e+00  -2.1626569902212755e-09 1.3548031302054057e-08 0.0000000000000000e+00  -2.5239531292931533e-09 1.6193167640699002e-08 0.0000000000000000e+00  -2.6862510883641515e-09 1.7979121770322603e-08 0.0000000000000000e+00  -5.1767288720030103e-09 1.8218440320313406e-08 0.0000000000000000e+00  -3.4961787686314805e-09 -1.7519878574242693e-08 0.0000000000000000e+00  -2.1571859528364491e-09 -1.7839046437580417e-08 0.0000000000000000e+00  -2.6653105588081905e-09 -1.6238408321068349e-08 0.0000000000000000e+00  -3.2293525491608462e-09 -1.3844185480011668e-08 0.0000000000000000e+00  -3.3669286290895446e-09 -1.1157565321838303e-08 0.0000000000000000e+00  -3.1243988489501880e-09 -8.5724232753333383e-09 0.0000000000000000e+00  -2.6794172401288557e-09 -6.2767099714309782e-09 0.0000000000000000e+00  -2.1971065086952153e-09 -4.3070906960408175e-09 0.0000000000000000e+00  -1.7907590920508839e-09 -2.6183499174132547e-09 0.0000000000000000e+00  -1.5258474168123571e-09 -1.1290774274955264e-09 0.0000000000000000e+00  -1.4342075131688702e-09 2.5501279219716707e-10 0.0000000000000000e+00  -1.5251760784981723e-09 1.6308606424432838e-09 0.0000000000000000e+00  -1.7901675931631627e-09 3.0931324092822531e-09 0.0000000000000000e+00  -2.2004753320759528e-09 4.7287647501305316e-09 0.0000000000000000e+00  -2.6989995830107241e-09 6.6056001271076348e-09 0.0000000000000000e+00  -3.1883628507977351e-09 8.7492225510897957e-09 0.0000000000000000e+00  -3.5237957656812960e-09 1.1103417357530618e-08 0.0000000000000000e+00  -3.5345607293535459e-09 1.3479691983722761e-08 0.0000000000000000e+00  -3.1344632402451390e-09 1.5531074062516662e-08 0.0000000000000000e+00  -2.6753619606075466e-09 1.6860958890639061e-08 0.0000000000000000e+00  -4.2563048384666817e-09 1.7306544989558798e-08 0.0000000000000000e+00  -3.0113968625669448e-09 -1.5865423703310656e-08 0.0000000000000000e+00  -2.2658424835673814e-09 -1.6302756191672758e-08 0.0000000000000000e+00  -3.1457357078210471e-09 -1.5090365753754528e-08 0.0000000000000000e+00  -4.1533649280260320e-09 -1.3217134363148171e-08 0.0000000000000000e+00  -4.8292792667327780e-09 -1.0996432127627354e-08 0.0000000000000000e+00  -5.1421025297208552e-09 -8.7188220985161452e-09 0.0000000000000000e+00  -5.1921149744908332e-09 -6.5665001089981622e-09 0.0000000000000000e+00  -5.1011526216009642e-09 -4.6142604919528548e-09 0.0000000000000000e+00  -4.9695892485147167e-09 -2.8612790115772347e-09 0.0000000000000000e+00  -4.8655609505139780e-09 -1.2625620187116363e-09 0.0000000000000000e+00  -4.8271450466587204e-09 2.4887617246567638e-10 0.0000000000000000e+00  -4.8670003676597402e-09 1.7479793476289864e-09 0.0000000000000000e+00  -4.9748928811802486e-09 3.3077681735436711e-09 0.0000000000000000e+00  -5.1169027738567128e-09 4.9894765716466555e-09 0.0000000000000000e+00  -5.2322375759106036e-09 6.8290165473406877e-09 0.0000000000000000e+00  -5.2310450065063166e-09 8.8171983354961109e-09 0.0000000000000000e+00  -5.0009732660626226e-09 1.0874597640016934e-08 0.0000000000000000e+00  -4.4385223006017797e-09 1.2830557457631085e-08 0.0000000000000000e+00  -3.5422140645729454e-09 1.4431516289522399e-08 0.0000000000000000e+00  -2.6781893226945244e-09 1.5446910125060091e-08 0.0000000000000000e+00  -3.5992349009291324e-09 1.6001249077615616e-08 0.0000000000000000e+00  -2.6547015285160536e-09 -1.4065966179472880e-08 0.0000000000000000e+00  -2.3542208202613553e-09 -1.4587921631942437e-08 0.0000000000000000e+00  -3.4983897614344876e-09 -1.3645329349570373e-08 0.0000000000000000e+00  -4.8071143988347454e-09 -1.2160714887428793e-08 0.0000000000000000e+00  -5.8596317805723044e-09 -1.0337117497637026e-08 0.0000000000000000e+00  -6.5852940080950345e-09 -8.3810936343986457e-09 0.0000000000000000e+00  -7.0291377329753265e-09 -6.4443809892609155e-09 0.0000000000000000e+00  -7.2701732693907503e-09 -4.6095261801992325e-09 0.0000000000000000e+00  -7.3845617054156554e-09 -2.9000125179470248e-09 0.0000000000000000e+00  -7.4302953896456642e-09 -1.2983464824836354e-09 0.0000000000000000e+00  -7.4427264578419110e-09 2.3688494079638638e-10 0.0000000000000000e+00  -7.4344603793937738e-09 1.7572639066532827e-09 0.0000000000000000e+00  -7.3960562388146506e-09 3.3130972348321910e-09 0.0000000000000000e+00  -7.2963206555548107e-09 4.9422526324444175e-09 0.0000000000000000e+00  -7.0829312181968940e-09 6.6574989275450291e-09 0.0000000000000000e+00  -6.6860979423508384e-09 8.4319564424704685e-09 0.0000000000000000e+00  -6.0304349492536107e-09 1.0185306283301923e-08 0.0000000000000000e+00  -5.0645475332616486e-09 1.1778574077268556e-08 0.0000000000000000e+00  -3.8333527460478223e-09 1.3032591059759010e-08 0.0000000000000000e+00  -2.6863116441433885e-09 1.3817764160783666e-08 0.0000000000000000e+00  -3.1077349511115305e-09 1.4436411803519888e-08 0.0000000000000000e+00  -2.3847998021648555e-09 -1.2157052656212034e-08 0.0000000000000000e+00  -2.4251555865822654e-09 -1.2740173302285200e-08 0.0000000000000000e+00  -3.7636564518075802e-09 -1.1996302248492313e-08 0.0000000000000000e+00  -5.2818402066230458e-09 -1.0811967597977901e-08 0.0000000000000000e+00  -6.5975515790598772e-09 -9.3242196055537851e-09 0.0000000000000000e+00  -7.6220899795056086e-09 -7.6781782324424338e-09 0.0000000000000000e+00  -8.3640848176844302e-09 -5.9918300914627603e-09 0.0000000000000000e+00  -8.8677596863674678e-09 -4.3406447717225957e-09 0.0000000000000000e+00  -9.1841362159873830e-09 -2.7579156160400795e-09 0.0000000000000000e+00  -9.3562695811625211e-09 -1.2438096847325773e-09 0.0000000000000000e+00  -9.4122982278876558e-09 2.2296636026895770e-10 0.0000000000000000e+00  -9.3628222281415865e-09 1.6737216025717239e-09 0.0000000000000000e+00  -9.2004573762103599e-09 3.1391087911715790e-09 0.0000000000000000e+00  -8.9007175521403496e-09 4.6387690950639976e-09 0.0000000000000000e+00  -8.4246577919838103e-09 6.1709147204297535e-09 0.0000000000000000e+00  -7.7249080790064093e-09 7.7025013477270982e-09 0.0000000000000000e+00  -6.7579678906029964e-09 9.1625775267308279e-09 0.0000000000000000e+00  -5.5084602674322374e-09 1.0443962460979924e-08 0.0000000000000000e+00  -4.0450895833661337e-09 1.1422024691530042e-08 0.0000000000000000e+00  -2.6931919048709453e-09 1.2028829355611819e-08 0.0000000000000000e+00  -2.7304088109915842e-09 1.2688067176356434e-08 0.0000000000000000e+00  -2.1789531651619584e-09 -1.0165470949115384e-08 0.0000000000000000e+00  -2.4814187172629772e-09 -1.0792809264645553e-08 0.0000000000000000e+00  -3.9644897408446282e-09 -1.0203782574860380e-08 0.0000000000000000e+00  -5.6298680916817286e-09 -9.2614882811745764e-09 0.0000000000000000e+00  -7.1288454715026444e-09 -8.0626508010662428e-09 0.0000000000000000e+00  -8.3654571340095434e-09 -6.7087161363562691e-09 0.0000000000000000e+00  -9.3252425360672174e-09 -5.2878596762356526e-09 0.0000000000000000e+00  -1.0026642944732506e-08 -3.8628663968794148e-09 0.0000000000000000e+00  -1.0499119570996062e-08 -2.4680245513427666e-09 0.0000000000000000e+00  -1.0770797705211598e-08 -1.1130216552083546e-09 0.0000000000000000e+00  -1.0861409274432253e-08 2.0964365975185254e-10 0.0000000000000000e+00  -1.0778810886024920e-08 1.5160372233012000e-09 0.0000000000000000e+00  -1.0518013036289990e-08 2.8220227316144432e-09 0.0000000000000000e+00  -1.0062250159995487e-08 4.1347417143328909e-09 0.0000000000000000e+00  -9.3862705725526690e-09 5.4447174876443654e-09 0.0000000000000000e+00  -8.4626070025314720e-09 6.7195516599782294e-09 0.0000000000000000e+00  -7.2722392798293719e-09 7.9011791288267910e-09 0.0000000000000000e+00  -5.8235411634616025e-09 8.9097527371952969e-09 0.0000000000000000e+00  -4.1969887540856560e-09 9.6595984917447188e-09 0.0000000000000000e+00  -2.6954674585973414e-09 1.0120748471873612e-08 0.0000000000000000e+00  -2.4380026836989337e-09 1.0806083592353522e-08 0.0000000000000000e+00  -2.0240556385632557e-09 -8.1125170250587281e-09 0.0000000000000000e+00  -2.5258808058370465e-09 -8.7716032845943054e-09 0.0000000000000000e+00  -4.1159239256729764e-09 -8.3099810086137661e-09 0.0000000000000000e+00  -5.8841598916069967e-09 -7.5716093522685464e-09 0.0000000000000000e+00  -7.5091643408320908e-09 -6.6280374535024244e-09 0.0000000000000000e+00  -8.8929022592268375e-09 -5.5495701505718866e-09 0.0000000000000000e+00  -1.0006612644398323e-08 -4.3999116442123253e-09 0.0000000000000000e+00  -1.0850658961812295e-08 -3.2279730392640081e-09 0.0000000000000000e+00  -1.1437808055394723e-08 -2.0642130189508633e-09 0.0000000000000000e+00  -1.1783520983444679e-08 -9.2192990219918395e-10 0.0000000000000000e+00  -1.1899809938251794e-08 1.9827803097329617e-10 0.0000000000000000e+00  -1.1791820788723900e-08 1.3024668291352194e-09 0.0000000000000000e+00  -1.1456739573047482e-08 2.3967706316843555e-09 0.0000000000000000e+00  -1.0884819630208833e-08 3.4809794123459766e-09 0.0000000000000000e+00  -1.0062549359446798e-08 4.5429163404592967e-09 0.0000000000000000e+00  -8.9781893761538870e-09 5.5545302891550955e-09 0.0000000000000000e+00  -7.6303433586913842e-09 6.4710357118893220e-09 0.0000000000000000e+00  -6.0427395397329437e-09 7.2348603824756693e-09 0.0000000000000000e+00  -4.3016189764734369e-09 7.7882463828747697e-09 0.0000000000000000e+00  -2.6921270273886376e-09 8.1248388590628496e-09 0.0000000000000000e+00  -2.2127639318914693e-09 8.8265995733123973e-09 0.0000000000000000e+00  -1.9124747644224234e-09 -6.0155097690399217e-09 0.0000000000000000e+00  -2.5613352125612135e-09 -6.6970963843717372e-09 0.0000000000000000e+00  -4.2286859718207278e-09 -6.3458036539954011e-09 0.0000000000000000e+00  -6.0669324363952610e-09 -5.7867313452808696e-09 0.0000000000000000e+00  -7.7760764193503328e-09 -5.0753358924492045e-09 0.0000000000000000e+00  -9.2583601950538834e-09 -4.2591988510246749e-09 0.0000000000000000e+00  -1.0476418697743906e-08 -3.3822579672783716e-09 0.0000000000000000e+00  -1.1418535188692102e-08 -2.4801071540400187e-09 0.0000000000000000e+00  -1.2085492169628117e-08 -1.5769390896494725e-09 0.0000000000000000e+00  -1.2483088704955985e-08 -6.8568648328309337e-10 0.0000000000000000e+00  -1.2617141523718395e-08 1.8943787333159768e-10 0.0000000000000000e+00  -1.2490507237462184e-08 1.0489873408217666e-09 0.0000000000000000e+00  -1.2102065499313658e-08 1.8937423518038812e-09 0.0000000000000000e+00  -1.1447615595442345e-08 2.7202479812820130e-09 0.0000000000000000e+00  -1.0522626800058928e-08 3.5170515034946475e-09 0.0000000000000000e+00  -9.3268056169147093e-09 4.2623527567624136e-09 0.0000000000000000e+00  -7.8708342226379282e-09 4.9239069185701585e-09 0.0000000000000000e+00  -6.1882457057506038e-09 5.4621951439534451e-09 0.0000000000000000e+00  -4.3682220208553882e-09 5.8399853359571698e-09 0.0000000000000000e+00  -2.6835471066623995e-09 6.0658586734724236e-09 0.0000000000000000e+00  -2.0433316803162281e-09 6.7772412995108683e-09 0.0000000000000000e+00  -1.8399402109367819e-09 -3.8888006039170917e-09 0.0000000000000000e+00  -2.5902726826303214e-09 -4.5859957690998328e-09 0.0000000000000000e+00  -4.3105793576264816e-09 -4.3347616637251661e-09 0.0000000000000000e+00  -6.1934989909465817e-09 -3.9395631461004644e-09 0.0000000000000000e+00  -7.9551724417597230e-09 -3.4452042388953101e-09 0.0000000000000000e+00  -9.4990579545017128e-09 -2.8819766851703207e-09 0.0000000000000000e+00  -1.0782935507603008e-08 -2.277580