<?xml version="1.0"?>
<VTKFile type="UnstructuredGrid"  version="0.1"  >
<UnstructuredGrid>
<Piece  NumberOfPoints="651" NumberOfCells="1200">
<Points>
<DataArray  type="Float64"  NumberOfComponents="3"  format="ascii">0 0 0  50000 0 0  100000 0 0  150000 0 0  200000 0 0  250000 0 0  300000 0 0  350000 0 0  400000 0 0  450000 0 0  500000 0 0  550000 0 0  600000 0 0  650000 0 0  700000 0 0  750000 0 0  800000 0 0  850000 0 0  900000 0 0  950000 0 0  1000000 0 0  0 50000 0  50000 50000 0  100000 50000 0  150000 50000 0  200000 50000 0  250000 50000 0  300000 50000 0  350000 50000 0  400000 50000 0  450000 50000 0  500000 50000 0  550000 50000 0  600000 50000 0  650000 50000 0  700000 50000 0  750000 50000 0  800000 50000 0  850000 50000 0  900000 50000 0  950000 50000 0  1000000 50000 0  0 100000 0  50000 100000 0  100000 100000 0  150000 100000 0  200000 100000 0  250000 100000 0  300000 100000 0  350000 100000 0  400000 100000 0  450000 100000 0  500000 100000 0  550000 100000 0  600000 100000 0  650000 100000 0  700000 100000 0  750000 100000 0  800000 100000 0  850000 100000 0  900000 100000 0  950000 100000 0  1000000 100000 0  0 150000 0  50000 150000 0  100000 150000 0  150000 150000 0  200000 150000 0  250000 150000 0  300000 150000 0  350000 150000 0  400000 150000 0  450000 150000 0  500000 150000 0  550000 150000 0  600000 150000 0  650000 150000 0  700000 150000 0  750000 150000 0  800000 150000 0  850000 150000 0  900000 150000 0  950000 150000 0  1000000 150000 0  0 200000 0  50000 200000 0  100000 200000 0  150000 200000 0  200000 200000 0  250000 200000 0  300000 200000 0  350000 200000 0  400000 200000 0  450000 200000 0  500000 200000 0  550000 200000 0  600000 200000 0  650000 200000 0  700000 200000 0  750000 200000 0  800000 200000 0  850000 200000 0  900000 200000 0  950000 200000 0  1000000 200000 0  0 250000 0  50000 250000 0  100000 250000 0  150000 250000 0  200000 250000 0  250000 250000 0  300000 250000 0  350000 250000 0  400000 250000 0  450000 250000 0  500000 250000 0  550000 250000 0  600000 250000 0  650000 250000 0  700000 250000 0  750000 250000 0  800000 250000 0  850000 250000 0  900000 250000 0  950000 250000 0  1000000 250000 0  0 300000 0  50000 300000 0  100000 300000 0  150000 300000 0  200000 300000 0  250000 300000 0  300000 300000 0  350000 300000 0  400000 300000 0  450000 300000 0  500000 300000 0  550000 300000 0  600000 300000 0  650000 300000 0  700000 300000 0  750000 300000 0  800000 300000 0  850000 300000 0  900000 300000 0  950000 300000 0  1000000 300000 0  0 350000 0  50000 350000 0  100000 350000 0  150000 350000 0  200000 350000 0  250000 350000 0  300000 350000 0  350000 350000 0  400000 350000 0  450000 350000 0  500000 350000 0  550000 350000 0  600000 350000 0  650000 350000 0  700000 350000 0  750000 350000 0  800000 350000 0  850000 350000 0  900000 350000 0  950000 350000 0  1000000 350000 0  0 400000 0  50000 400000 0  100000 400000 0  150000 400000 0  200000 400000 0  250000 400000 0  300000 400000 0  350000 400000 0  400000 400000 0  450000 400000 0  500000 400000 0  550000 400000 0  600000 400000 0  650000 400000 0  700000 400000 0  750000 400000 0  800000 400000 0  850000 400000 0  900000 400000 0  950000 400000 0  1000000 400000 0  0 450000 0  50000 450000 0  100000 450000 0  150000 450000 0  200000 450000 0  250000 450000 0  300000 450000 0  350000 450000 0  400000 450000 0  450000 450000 0  500000 450000 0  550000 450000 0  600000 450000 0  650000 450000 0  700000 450000 0  750000 450000 0  800000 450000 0  850000 450000 0  900000 450000 0  950000 450000 0  1000000 450000 0  0 500000 0  50000 500000 0  100000 500000 0  150000 500000 0  200000 500000 0  250000 500000 0  300000 500000 0  350000 500000 0  400000 500000 0  450000 500000 0  500000 500000 0  550000 500000 0  600000 500000 0  650000 500000 0  700000 500000 0  750000 500000 0  800000 500000 0  850000 500000 0  900000 500000 0  950000 500000 0  1000000 500000 0  0 550000 0  50000 550000 0  100000 550000 0  150000 550000 0  200000 550000 0  250000 550000 0  300000 550000 0  350000 550000 0  400000 550000 0  450000 550000 0  500000 550000 0  550000 550000 0  600000 550000 0  650000 550000 0  700000 550000 0  750000 550000 0  800000 550000 0  850000 550000 0  900000 550000 0  950000 550000 0  1000000 550000 0  0 600000 0  50000 600000 0  100000 600000 0  150000 600000 0  200000 600000 0  250000 600000 0  300000 600000 0  350000 600000 0  400000 600000 0  450000 600000 0  500000 600000 0  550000 600000 0  600000 600000 0  650000 600000 0  700000 600000 0  750000 600000 0  800000 600000 0  850000 600000 0  900000 600000 0  950000 600000 0  1000000 600000 0  0 650000 0  50000 650000 0  100000 650000 0  150000 650000 0  200000 650000 0  250000 650000 0  300000 650000 0  350000 650000 0  400000 650000 0  450000 650000 0  500000 650000 0  550000 650000 0  600000 650000 0  650000 650000 0  700000 650000 0  750000 650000 0  800000 650000 0  850000 650000 0  900000 650000 0  950000 650000 0  1000000 650000 0  0 700000 0  50000 700000 0  100000 700000 0  150000 700000 0  200000 700000 0  250000 700000 0  300000 700000 0  350000 700000 0  400000 700000 0  450000 700000 0  500000 700000 0  550000 700000 0  600000 700000 0  650000 700000 0  700000 700000 0  750000 700000 0  800000 700000 0  850000 700000 0  900000 700000 0  950000 700000 0  1000000 700000 0  0 750000 0  50000 750000 0  100000 750000 0  150000 750000 0  200000 750000 0  250000 750000 0  300000 750000 0  350000 750000 0  400000 750000 0  450000 750000 0  500000 750000 0  550000 750000 0  600000 750000 0  650000 750000 0  700000 750000 0  750000 750000 0  800000 750000 0  850000 750000 0  900000 750000 0  950000 750000 0  1000000 750000 0  0 800000 0  50000 800000 0  100000 800000 0  150000 800000 0  200000 800000 0  250000 800000 0  300000 800000 0  350000 800000 0  400000 800000 0  450000 800000 0  500000 800000 0  550000 800000 0  600000 800000 0  650000 800000 0  700000 800000 0  750000 800000 0  800000 800000 0  850000 800000 0  900000 800000 0  950000 800000 0  1000000 800000 0  0 850000 0  50000 850000 0  100000 850000 0  150000 850000 0  200000 850000 0  250000 850000 0  300000 850000 0  350000 850000 0  400000 850000 0  450000 850000 0  500000 850000 0  550000 850000 0  600000 850000 0  650000 850000 0  700000 850000 0  750000 850000 0  800000 850000 0  850000 850000 0  900000 850000 0  950000 850000 0  1000000 850000 0  0 900000 0  50000 900000 0  100000 900000 0  150000 900000 0  200000 900000 0  250000 900000 0  300000 900000 0  350000 900000 0  400000 900000 0  450000 900000 0  500000 900000 0  550000 900000 0  600000 900000 0  650000 900000 0  700000 900000 0  750000 900000 0  800000 900000 0  850000 900000 0  900000 900000 0  950000 900000 0  1000000 900000 0  0 950000 0  50000 950000 0  100000 950000 0  150000 950000 0  200000 950000 0  250000 950000 0  300000 950000 0  350000 950000 0  400000 950000 0  450000 950000 0  500000 950000 0  550000 950000 0  600000 950000 0  650000 950000 0  700000 950000 0  750000 950000 0  800000 950000 0  850000 950000 0  900000 950000 0  950000 950000 0  1000000 950000 0  0 1000000 0  50000 1000000 0  100000 1000000 0  150000 1000000 0  200000 1000000 0  250000 1000000 0  300000 1000000 0  350000 1000000 0  400000 1000000 0  450000 1000000 0  500000 1000000 0  550000 1000000 0  600000 1000000 0  650000 1000000 0  700000 1000000 0  750000 1000000 0  800000 1000000 0  850000 1000000 0  900000 1000000 0  950000 1000000 0  1000000 1000000 0  0 1050000 0  50000 1050000 0  100000 1050000 0  150000 1050000 0  200000 1050000 0  250000 1050000 0  300000 1050000 0  350000 1050000 0  400000 1050000 0  450000 1050000 0  500000 1050000 0  550000 1050000 0  600000 1050000 0  650000 1050000 0  700000 1050000 0  750000 1050000 0  800000 1050000 0  850000 1050000 0  900000 1050000 0  950000 1050000 0  1000000 1050000 0  0 1100000 0  50000 1100000 0  100000 1100000 0  150000 1100000 0  200000 1100000 0  250000 1100000 0  300000 1100000 0  350000 1100000 0  400000 1100000 0  450000 1100000 0  500000 1100000 0  550000 1100000 0  600000 1100000 0  650000 1100000 0  700000 1100000 0  750000 1100000 0  800000 1100000 0  850000 1100000 0  900000 1100000 0  950000 1100000 0  1000000 1100000 0  0 1150000 0  50000 1150000 0  100000 1150000 0  150000 1150000 0  200000 1150000 0  250000 1150000 0  300000 1150000 0  350000 1150000 0  400000 1150000 0  450000 1150000 0  500000 1150000 0  550000 1150000 0  600000 1150000 0  650000 1150000 0  700000 1150000 0  750000 1150000 0  800000 1150000 0  850000 1150000 0  900000 1150000 0  950000 1150000 0  1000000 1150000 0  0 1200000 0  50000 1200000 0  100000 1200000 0  150000 1200000 0  200000 1200000 0  250000 1200000 0  300000 1200000 0  350000 1200000 0  400000 1200000 0  450000 1200000 0  500000 1200000 0  550000 1200000 0  600000 1200000 0  650000 1200000 0  700000 1200000 0  750000 1200000 0  800000 1200000 0  850000 1200000 0  900000 1200000 0  950000 1200000 0  1000000 1200000 0  0 1250000 0  50000 1250000 0  100000 1250000 0  150000 1250000 0  200000 1250000 0  250000 1250000 0  300000 1250000 0  350000 1250000 0  400000 1250000 0  450000 1250000 0  500000 1250000 0  550000 1250000 0  600000 1250000 0  650000 1250000 0  700000 1250000 0  750000 1250000 0  800000 1250000 0  850000 1250000 0  900000 1250000 0  950000 1250000 0  1000000 1250000 0  0 1300000 0  50000 1300000 0  100000 1300000 0  150000 1300000 0  200000 1300000 0  250000 1300000 0  300000 1300000 0  350000 1300000 0  400000 1300000 0  450000 1300000 0  500000 1300000 0  550000 1300000 0  600000 1300000 0  650000 1300000 0  700000 1300000 0  750000 1300000 0  800000 1300000 0  850000 1300000 0  900000 1300000 0  950000 1300000 0  1000000 1300000 0  0 1350000 0  50000 1350000 0  100000 1350000 0  150000 1350000 0  200000 1350000 0  250000 1350000 0  300000 1350000 0  350000 1350000 0  400000 1350000 0  450000 1350000 0  500000 1350000 0  550000 1350000 0  600000 1350000 0  650000 1350000 0  700000 135
[...]
<PointData  Vectors="f_7489"> 
<DataArray  type="Float64"  Name="f_7489"  NumberOfComponents="3" format="ascii">-2.4303643303388215e-08 -1.0580268795565242e-08 0.0000000000000000e+00  4.8738904244697574e-08 -6.6530647030863747e-09 0.0000000000000000e+00  4.2995929337734665e-08 -2.3355134003205918e-09 0.0000000000000000e+00  4.0532963901382870e-08 -9.5511014314307232e-10 0.0000000000000000e+00  3.9322009479076977e-08 -4.6880845769571823e-10 0.0000000000000000e+00  3.8530109301564462e-08 -2.5736695348663253e-10 0.0000000000000000e+00  3.7960307529808989e-08 -1.5295056166703582e-10 0.0000000000000000e+00  3.7555643676282160e-08 -9.8031804161614862e-11 0.0000000000000000e+00  3.7298146674529421e-08 -6.8046098471491382e-11 0.0000000000000000e+00  3.7183097861096729e-08 -4.9845477210757369e-11 0.0000000000000000e+00  3.7211282202525212e-08 -3.4324623897154545e-11 0.0000000000000000e+00  3.7387223275486723e-08 -1.3079332401834450e-11 0.0000000000000000e+00  3.7720772818813612e-08 2.4122179056665101e-11 0.0000000000000000e+00  3.8233151793216452e-08 9.2882933698209520e-11 0.0000000000000000e+00  3.8973016585812552e-08 2.2148527952478134e-10 0.0000000000000000e+00  4.0058972758262881e-08 4.6899624333444667e-10 0.0000000000000000e+00  4.1791914137830538e-08 9.7390552716407056e-10 0.0000000000000000e+00  4.4918395222223285e-08 2.0807520853276090e-09 0.0000000000000000e+00  5.0767844575212363e-08 4.6069441770053980e-09 0.0000000000000000e+00  5.8011105570524620e-08 9.1201179567154396e-09 0.0000000000000000e+00  -1.6443974594189910e-08 7.0127940987673696e-09 0.0000000000000000e+00  -1.8052423468442278e-08 -1.6122418518227083e-08 0.0000000000000000e+00  7.2923352062917477e-09 -1.1368524419082289e-08 0.0000000000000000e+00  1.8211289601881829e-08 -5.2664123178415543e-09 0.0000000000000000e+00  2.3264361327120126e-08 -2.4101095514216802e-09 0.0000000000000000e+00  2.5838440103115770e-08 -1.1555628132011348e-09 0.0000000000000000e+00  2.7290655937500270e-08 -5.6485450642168274e-10 0.0000000000000000e+00  2.8132674743535321e-08 -2.6930636888475279e-10 0.0000000000000000e+00  2.8623490902857181e-08 -1.1854156638631785e-10 0.0000000000000000e+00  2.8906137019270117e-08 -4.3557003393620652e-11 0.0000000000000000e+00  2.9060328796623597e-08 -7.0510236271410484e-12 0.0000000000000000e+00  2.9127548480778570e-08 1.5499912725613447e-11 0.0000000000000000e+00  2.9122559229383881e-08 4.4543781671067721e-11 0.0000000000000000e+00  2.9037386949175040e-08 1.0221882997287816e-10 0.0000000000000000e+00  2.8839782188441566e-08 2.1896307193361025e-10 0.0000000000000000e+00  2.8465156146111219e-08 4.4530131725341832e-10 0.0000000000000000e+00  2.7795950881361896e-08 8.7774264735033539e-10 0.0000000000000000e+00  2.6606399511508660e-08 1.7196341927461809e-09 0.0000000000000000e+00  2.4385077759983905e-08 3.4169316430004669e-09 0.0000000000000000e+00  1.9687234848224578e-08 6.8598282304521138e-09 0.0000000000000000e+00  8.2653739423364355e-09 1.3011197183553300e-08 0.0000000000000000e+00  -1.8411586892790061e-08 1.0945462695882591e-08 0.0000000000000000e+00  -1.1059208409824069e-08 -1.9694137249441540e-08 0.0000000000000000e+00  -2.4171353162087659e-10 -1.8523655941563730e-08 0.0000000000000000e+00  5.8883998298361942e-09 -1.1327254006541440e-08 0.0000000000000000e+00  1.0777100183663299e-08 -6.5423622603239978e-09 0.0000000000000000e+00  1.4584793932453965e-08 -3.7815814974830087e-09 0.0000000000000000e+00  1.7221163911153753e-08 -2.2142094257422310e-09 0.0000000000000000e+00  1.8981027533878883e-08 -1.2987603850632704e-09 0.0000000000000000e+00  2.0131291046151745e-08 -7.4377272618446261e-10 0.0000000000000000e+00  2.0851404899544469e-08 -3.9019785885595833e-10 0.0000000000000000e+00  2.1251683515908977e-08 -1.4375053200818370e-10 0.0000000000000000e+00  2.1391910835028192e-08 5.9774128198681890e-11 0.0000000000000000e+00  2.1292422476467010e-08 2.7341734869669129e-10 0.0000000000000000e+00  2.0938124430478090e-08 5.5220103005645410e-10 0.0000000000000000e+00  2.0276114637187584e-08 9.6675311217166385e-10 0.0000000000000000e+00  1.9206326163096076e-08 1.6233497199247937e-09 0.0000000000000000e+00  1.7563285324169380e-08 2.6980844823410481e-09 0.0000000000000000e+00  1.5087614615525415e-08 4.4915989079273724e-09 0.0000000000000000e+00  1.1397469647643919e-08 7.4775759344173405e-09 0.0000000000000000e+00  6.0267408049447402e-09 1.2122160108306714e-08 0.0000000000000000e+00  -1.2864248574532610e-09 1.7574296635120607e-08 0.0000000000000000e+00  -1.3244352495829538e-08 1.4693345596578725e-08 0.0000000000000000e+00  -7.3499445161369059e-09 -2.0285509581574743e-08 0.0000000000000000e+00  -1.5461099798203685e-09 -1.9970965305036333e-08 0.0000000000000000e+00  1.1414910446302910e-09 -1.5305445225694457e-08 0.0000000000000000e+00  3.9258817317075751e-09 -1.0411120134509454e-08 0.0000000000000000e+00  6.8242552122284160e-09 -6.8313475075862612e-09 0.0000000000000000e+00  9.3401123992820559e-09 -4.4234805859366916e-09 0.0000000000000000e+00  1.1277779872421783e-08 -2.8268055684444459e-09 0.0000000000000000e+00  1.2663106322643783e-08 -1.7487675422954545e-09 0.0000000000000000e+00  1.3581093664947897e-08 -9.8833833254147203e-10 0.0000000000000000e+00  1.4106636085301995e-08 -4.0736431661729461e-10 0.0000000000000000e+00  1.4287069110844635e-08 9.6898275545510313e-11 0.0000000000000000e+00  1.4139625809452851e-08 6.1207601162520914e-10 0.0000000000000000e+00  1.3651698126560581e-08 1.2267330933070001e-09 0.0000000000000000e+00  1.2781100475380535e-08 2.0458715878214502e-09 0.0000000000000000e+00  1.1457588204392041e-08 3.2084745306792186e-09 0.0000000000000000e+00  9.5918399487539916e-09 4.9054907842264797e-09 0.0000000000000000e+00  7.1087499031490210e-09 7.3804591696829865e-09 0.0000000000000000e+00  4.0391125479167358e-09 1.0842323636307372e-08 0.0000000000000000e+00  6.7561437054380067e-10 1.5099273162234281e-08 0.0000000000000000e+00  -2.6194988863964908e-09 1.8741894881351353e-08 0.0000000000000000e+00  -8.9408407637380821e-09 1.7536886064474302e-08 0.0000000000000000e+00  -5.4751524492072897e-09 -1.9662340915586408e-08 0.0000000000000000e+00  -1.8883479161020737e-09 -1.9712116677310982e-08 0.0000000000000000e+00  -9.2732300567548541e-10 -1.6730217449772984e-08 0.0000000000000000e+00  2.1726058788946358e-10 -1.2791315258808910e-08 0.0000000000000000e+00  1.8621738213351215e-09 -9.2318713358566979e-09 0.0000000000000000e+00  3.6370082980855992e-09 -6.4470771666439165e-09 0.0000000000000000e+00  5.2201082557777808e-09 -4.3757993066723684e-09 0.0000000000000000e+00  6.4685052187085277e-09 -2.8420786020628488e-09 0.0000000000000000e+00  7.3494252371559696e-09 -1.6737664461068867e-09 0.0000000000000000e+00  7.8727687712813689e-09 -7.2662661979625481e-10 0.0000000000000000e+00  8.0547860304609803e-09 1.2018410621047292e-10 0.0000000000000000e+00  7.9032112347994197e-09 9.7520974321386724e-10 0.0000000000000000e+00  7.4132105268063636e-09 1.9462411811114007e-09 0.0000000000000000e+00  6.5700559734543604e-09 3.1506484827187991e-09 0.0000000000000000e+00  5.3597821194774644e-09 4.7219809698638827e-09 0.0000000000000000e+00  3.7938776196390542e-09 6.8042865160360828e-09 0.0000000000000000e+00  1.9573679291227678e-09 9.5108125692895414e-09 0.0000000000000000e+00  7.7289344736037647e-11 1.2799381774123499e-08 0.0000000000000000e+00  -1.4820686960442302e-09 1.6218633381996537e-08 0.0000000000000000e+00  -2.7302255523924026e-09 1.8691427258049129e-08 0.0000000000000000e+00  -6.6509155569809948e-09 1.8525206155956955e-08 0.0000000000000000e+00  -4.4103738975049341e-09 -1.8500094093825847e-08 0.0000000000000000e+00  -2.0626663631987246e-09 -1.8777906606392827e-08 0.0000000000000000e+00  -2.0155524046559532e-09 -1.6759212950054894e-08 0.0000000000000000e+00  -1.9250676203523409e-09 -1.3763761092412188e-08 0.0000000000000000e+00  -1.3192402072787915e-09 -1.0640941312189469e-08 0.0000000000000000e+00  -3.7376502669899652e-10 -7.8781308661609079e-09 0.0000000000000000e+00  6.4355172045851803e-10 -5.6060371151088858e-09 0.0000000000000000e+00  1.5437411955808385e-09 -3.7803632382780241e-09 0.0000000000000000e+00  2.2274975498434669e-09 -2.2947896309971306e-09 0.0000000000000000e+00  2.6525217758029281e-09 -1.0308478054878861e-09 0.0000000000000000e+00  2.8045021955654565e-09 1.2650629635681921e-10 0.0000000000000000e+00  2.6806344382172293e-09 1.2874575585619129e-09 0.0000000000000000e+00  2.2839111930582765e-09 2.5602255943455917e-09 0.0000000000000000e+00  1.6262283702933410e-09 4.0529031374410596e-09 0.0000000000000000e+00  7.4046029737933811e-10 5.8688008091746064e-09 0.0000000000000000e+00  -2.9730067470626636e-10 8.0862798868074787e-09 0.0000000000000000e+00  -1.3384332908025270e-09 1.0708590612021838e-08 0.0000000000000000e+00  -2.1499405908141228e-09 1.3570812845545978e-08 0.0000000000000000e+00  -2.5130201923196617e-09 1.6229232150108506e-08 0.0000000000000000e+00  -2.7077503714846408e-09 1.7992966859219157e-08 0.0000000000000000e+00  -5.3073547333934787e-09 1.8283984467235283e-08 0.0000000000000000e+00  -3.7319776569063951e-09 -1.7040641793658346e-08 0.0000000000000000e+00  -2.1943929857226038e-09 -1.7475766752553766e-08 0.0000000000000000e+00  -2.6925227093626764e-09 -1.6041404675653771e-08 0.0000000000000000e+00  -3.2694657488372874e-09 -1.3759835329735754e-08 0.0000000000000000e+00  -3.4218645754133697e-09 -1.1154586247336102e-08 0.0000000000000000e+00  -3.1883485271822919e-09 -8.6268259466662074e-09 0.0000000000000000e+00  -2.7455065686854154e-09 -6.3704139516643128e-09 0.0000000000000000e+00  -2.2595483472054832e-09 -4.4263154809549802e-09 0.0000000000000000e+00  -1.8454236566586438e-09 -2.7521576691361578e-09 0.0000000000000000e+00  -1.5701739613173087e-09 -1.2683019212378786e-09 0.0000000000000000e+00  -1.4668879344205665e-09 1.1842191772887323e-10 0.0000000000000000e+00  -1.5458108772775849e-09 1.5041399354914393e-09 0.0000000000000000e+00  -1.7989838883346903e-09 2.9827308717055538e-09 0.0000000000000000e+00  -2.1981458963413730e-09 4.6401648752764427e-09 0.0000000000000000e+00  -2.6865777748614747e-09 6.5429915056345906e-09 0.0000000000000000e+00  -3.1673336963394781e-09 8.7150614669310963e-09 0.0000000000000000e+00  -3.4962518859658920e-09 1.1097836564774122e-08 0.0000000000000000e+00  -3.5037094386214039e-09 1.3499477668082727e-08 0.0000000000000000e+00  -3.1071033744267630e-09 1.5567086377515379e-08 0.0000000000000000e+00  -2.6922279041923351e-09 1.6876378140976163e-08 0.0000000000000000e+00  -4.4354649177612972e-09 1.7384208060690178e-08 0.0000000000000000e+00  -3.2638561522744203e-09 -1.5383996325472945e-08 0.0000000000000000e+00  -2.3024038103806400e-09 -1.5932431132556889e-08 0.0000000000000000e+00  -3.1615526705474424e-09 -1.4878255927526465e-08 0.0000000000000000e+00  -4.1742288943180997e-09 -1.3117799283523971e-08 0.0000000000000000e+00  -4.8596086992909444e-09 -1.0982911602358859e-08 0.0000000000000000e+00  -5.1790306508735783e-09 -8.7686231255702765e-09 0.0000000000000000e+00  -5.2311062745267387e-09 -6.6612019124953017e-09 0.0000000000000000e+00  -5.1378110650579781e-09 -4.7389208159309293e-09 0.0000000000000000e+00  -5.0003564697868803e-09 -3.0036258280921155e-09 0.0000000000000000e+00  -4.8878884233659850e-09 -1.4122418986725261e-09 0.0000000000000000e+00  -4.8394123984155077e-09 1.0084523531053459e-10 0.0000000000000000e+00  -4.8683451679987282e-09 1.6095172471923964e-09 0.0000000000000000e+00  -4.9650496694056276e-09 3.1858259501654373e-09 0.0000000000000000e+00  -5.0961058713425465e-09 4.8899534313439152e-09 0.0000000000000000e+00  -5.2012162305823702e-09 6.7565385108474834e-09 0.0000000000000000e+00  -5.1911282137850843e-09 8.7747756854295796e-09 0.0000000000000000e+00  -4.9543534688979976e-09 1.0863116851388553e-08 0.0000000000000000e+00  -4.3890225998382839e-09 1.2847842230956177e-08 0.0000000000000000e+00  -3.4988557963609909e-09 1.4469868469369349e-08 0.0000000000000000e+00  -2.6909521973772489e-09 1.5471257092184378e-08 0.0000000000000000e+00  -3.8271934197808983e-09 1.6099492315802790e-08 0.0000000000000000e+00  -2.9248780633035575e-09 -1.3584029029948460e-08 0.0000000000000000e+00  -2.3906701054546779e-09 -1.4216256754979170e-08 0.0000000000000000e+00  -3.5048129871156079e-09 -1.3425429313046260e-08 0.0000000000000000e+00  -4.8121278971176806e-09 -1.2052615987211583e-08 0.0000000000000000e+00  -5.8691350702770385e-09 -1.0316822003136313e-08 0.0000000000000000e+00  -6.5983872816380884e-09 -8.4276711250152558e-09 0.0000000000000000e+00  -7.0431401480737840e-09 -6.5397612892787650e-09 0.0000000000000000e+00  -7.2820397972829009e-09 -4.7383644383297508e-09 0.0000000000000000e+00  -7.3915082131548167e-09 -3.0493028915638752e-09 0.0000000000000000e+00  -7.4300702458635852e-09 -1.4569464472704946e-09 0.0000000000000000e+00  -7.4336795417232202e-09 7.8665837271693914e-11 0.0000000000000000e+00  -7.4155155450699377e-09 1.6079390683457450e-09 0.0000000000000000e+00  -7.3666658071647101e-09 3.1801269655798175e-09 0.0000000000000000e+00  -7.2564557422047536e-09 4.8320304620510517e-09 0.0000000000000000e+00  -7.0331439523884985e-09 6.5752211719074529e-09 0.0000000000000000e+00  -6.6276884396943245e-09 8.3813846949232461e-09 0.0000000000000000e+00  -5.9658069384118812e-09 1.0168387912904916e-08 0.0000000000000000e+00  -4.9982084426959859e-09 1.1794700087757116e-08 0.0000000000000000e+00  -3.7764208085720482e-09 1.3076479518513036e-08 0.0000000000000000e+00  -2.6963927516178740e-09 1.3858603377257669e-08 0.0000000000000000e+00  -3.3813712172367340e-09 1.4563285675939089e-08 0.0000000000000000e+00  -2.6735097050595922e-09 -1.1676896123786304e-08 0.0000000000000000e+00  -2.4615253417768173e-09 -1.2371994233206768e-08 0.0000000000000000e+00  -3.7615130244037673e-09 -1.1774412937595916e-08 0.0000000000000000e+00  -5.2729381318532898e-09 -1.0700413941886591e-08 0.0000000000000000e+00  -6.5888319771626382e-09 -9.3009495198853116e-09 0.0000000000000000e+00  -7.6140099580362601e-09 -7.7235792546244914e-09 0.0000000000000000e+00  -8.3553764409998740e-09 -6.0884600390774918e-09 0.0000000000000000e+00  -8.8565487816733383e-09 -4.4732300051485337e-09 0.0000000000000000e+00  -9.1684395637020203e-09 -2.9131776579566575e-09 0.0000000000000000e+00  -9.3342768232522554e-09 -1.4101736344832829e-09 0.0000000000000000e+00  -9.3825211612629433e-09 5.5668289582318803e-11 0.0000000000000000e+00  -9.3241678694929340e-09 1.5144795729031557e-09 0.0000000000000000e+00  -9.1522773360297546e-09 2.9958686736854792e-09 0.0000000000000000e+00  -8.8428780108414850e-09 4.5184680352644158e-09 0.0000000000000000e+00  -8.3576669674739042e-09 6.0794298761630940e-09 0.0000000000000000e+00  -7.6501430020967076e-09 7.6445212629720850e-09 0.0000000000000000e+00  -6.6781066293237152e-09 9.1413786639865005e-09 0.0000000000000000e+00  -5.4286544884599165e-09 1.0460923010312969e-08 0.0000000000000000e+00  -3.9781984819604578e-09 1.1474964328909586e-08 0.0000000000000000e+00  -2.7023722058026988e-09 1.2092978790017614e-08 0.0000000000000000e+00  -3.0438972175741343e-09 1.2850059777482676e-08 0.0000000000000000e+00  -2.4866350430960029e-09 -9.6900062875065086e-09 0.0000000000000000e+00  -2.5174517304637024e-09 -1.0432535954421183e-08 0.0000000000000000e+00  -3.9539598091001338e-09 -9.9846877774729167e-09 0.0000000000000000e+00  -5.6081011352646538e-09 -9.1508851671848420e-09 0.0000000000000000e+00  -7.1036936797565721e-09 -8.0397868303497557e-09 0.0000000000000000e+00  -8.3383930468840292e-09 -6.7550353125660179e-09 0.0000000000000000e+00  -9.2960831194645783e-09 -5.3866328468072062e-09 0.0000000000000000e+00  -9.9944821739749655e-09 -3.9991657919624885e-09 0.0000000000000000e+00  -1.0462712053930975e-08 -2.6286213642401396e-09 0.0000000000000000e+00  -1.0728816963079315e-08 -1.2861910748713699e-09 0.0000000000000000e+00  -1.0812633740553661e-08 3.4342921864403676e-11 0.0000000000000000e+00  -1.0722262016274927e-08 1.3479546377193550e-09 0.0000000000000000e+00  -1.0453075734480091e-08 2.6695509925679402e-09 0.0000000000000000e+00  -9.9888078662838115e-09 4.0053891279750375e-09 0.0000000000000000e+00  -9.3048879032723334e-09 5.3451257209461260e-09 0.0000000000000000e+00  -8.3748034869815147e-09 6.6554724958793997e-09 0.0000000000000000e+00  -7.1809698375217896e-09 7.8774113405194973e-09 0.0000000000000000e+00  -5.7344678208832719e-09 8.9299213947822185e-09 0.0000000000000000e+00  -4.1242124030289726e-09 9.7249774869280818e-09 0.0000000000000000e+00  -2.7054693709831629e-09 1.0213631056679510e-08 0.0000000000000000e+00  -2.7837233467394280e-09 1.1007493131993257e-08 0.0000000000000000e+00  -2.3506333649332107e-09 -7.6452569139336216e-09 0.0000000000000000e+00  -2.5611408556912673e-09 -8.4234951328454059e-09 0.0000000000000000e+00  -4.0968637548702564e-09 -8.0977406577463281e-09 0.0000000000000000e+00  -5.8501061641625739e-09 -7.4655457544290944e-09 0.0000000000000000e+00  -7.4688989186225353e-09 -6.6083519343377735e-09 0.0000000000000000e+00  -8.8487406768851066e-09 -5.5985914491948818e-09 0.0000000000000000e+00  -9.9592329378254886e-09 -4.5016500229472141e-09 0.0000000000000000e+00  -1.0799942315188132e-08 -3.3680091389888049e-09 0.0000000000000000e+00  -1.1383146663198667e-08 -2.2295852237954952e-09 0.0000000000000000e+00  -1.1724050275223175e-08 -1.1009723139927153e-09 0.0000000000000000e+00  -1.1834610390998969e-08 1.6117144647009784e-11 0.0000000000000000e+00  -1.1720096669418504e-08 1.1267936569824077e-09 0.0000000000000000e+00  -1.1377989275920203e-08 2.2363827323265030e-09 0.0000000000000000e+00  -1.0799019064293795e-08 3.3439675256990214e-09 0.0000000000000000e+00  -9.9703746799058701e-09 4.4367408057648057e-09 0.0000000000000000e+00  -8.8813187134367509e-09 5.4860913994481304e-09 0.0000000000000000e+00  -7.5319526802236806e-09 6.4467547783863879e-09 0.0000000000000000e+00  -5.9488028085886660e-09 7.2606966093126298e-09 0.0000000000000000e+00  -4.2269236375935490e-09 7.8689682454107704e-09 0.0000000000000000e+00  -2.7043484832888944e-09 8.2501501628778110e-09 0.0000000000000000e+00  -2.5822309860556907e-09 9.0693707615675054e-09 0.0000000000000000e+00  -2.2572154790298709e-09 -5.5605158895906943e-09 0.0000000000000000e+00  -2.5952742295770877e-09 -6.3653468878208929e-09 0.0000000000000000e+00  -4.2008430626457613e-09 -6.1439080207842338e-09 0.0000000000000000e+00  -6.0209926114674132e-09 -5.6880521937324321e-09 0.0000000000000000e+00  -7.7218250134007379e-09 -5.0609195433073435e-09 0.0000000000000000e+00  -9.1988751812952644e-09 -4.3122024856253232e-09 0.0000000000000000e+00  -1.0413087074694864e-08 -3.4874664069523503e-09 0.0000000000000000e+00  -1.1351873085194440e-08 -2.6237211888340606e-09 0.0000000000000000e+00  -1.2015417248896942e-08 -1.7464142260020847e-09 0.0000000000000000e+00  -1.2409137910908247e-08 -8.6956565669078127e-10 0.0000000000000000e+00  -1.2538682059912002e-08 1.6938487542334518e-12 0.0000000000000000e+00  -1.2406941130299973e-08 8.6715890989757740e-10 0.0000000000000000e+00  -1.2013033183676223e-08 1.7269925111467431e-09 0.0000000000000000e+00  -1.1353211467423667e-08 2.5772479788592063e-09 0.0000000000000000e+00  -1.0423645642131481e-08 3.4061041669022440e-09 0.0000000000000000e+00  -9.2250522834107985e-09 4.1915376380289688e-09 0.0000000000000000e+00  -7.7696047277281157e-09 4.9012749033862238e-09 0.0000000000000000e+00  -6.0935976675900915e-09 5.4959719599941949e-09 0.0000000000000000e+00  -4.2950928262846867e-09 5.9382242441221657e-09 0.0000000000000000e+00  -2.6989400909035248e-09 6.2255039000853655e-09 0.0000000000000000e+00  -2.4279937417528029e-09 7.0611378779726390e-09 0.0000000000000000e+00  -2.2013080052110004e-09 -3.4505915463176225e-09 0.0000000000000000e+00  -2.6222828493816774e-09 -4.2747228655883067e-09 0.0000000000000000e+00  -4.2737560940714840e-09 -4.1461877306800344e-09 0.0000000000000000e+00  -6.1361210680869361e-09 -3.8504088153304677e-09 0.0000000000000000e+00  -7.8880997593609139e-09 -3.4374414605029928e-09 0.0000000000000000e+00  -9.4260875885613818e-09 -2.9396462662159382e-09 0.0000000000000000e+00  -1.0706050275462274e-08 -2.3863131914