<?xml version="1.0"?>
<VTKFile type="UnstructuredGrid"  version="0.1"  >
<UnstructuredGrid>
<Piece  NumberOfPoints="651" NumberOfCells="1200">
<Points>
<DataArray  type="Float64"  NumberOfComponents="3"  format="ascii">0 0 0  50000 0 0  100000 0 0  150000 0 0  200000 0 0  250000 0 0  300000 0 0  350000 0 0  400000 0 0  450000 0 0  500000 0 0  550000 0 0  600000 0 0  650000 0 0  700000 0 0  750000 0 0  800000 0 0  850000 0 0  900000 0 0  950000 0 0  1000000 0 0  0 50000 0  50000 50000 0  100000 50000 0  150000 50000 0  200000 50000 0  250000 50000 0  300000 50000 0  350000 50000 0  400000 50000 0  450000 50000 0  500000 50000 0  550000 50000 0  600000 50000 0  650000 50000 0  700000 50000 0  750000 50000 0  800000 50000 0  850000 50000 0  900000 50000 0  950000 50000 0  1000000 50000 0  0 100000 0  50000 100000 0  100000 100000 0  150000 100000 0  200000 100000 0  250000 100000 0  300000 100000 0  350000 100000 0  400000 100000 0  450000 100000 0  500000 100000 0  550000 100000 0  600000 100000 0  650000 100000 0  700000 100000 0  750000 100000 0  800000 100000 0  850000 100000 0  900000 100000 0  950000 100000 0  1000000 100000 0  0 150000 0  50000 150000 0  100000 150000 0  150000 150000 0  200000 150000 0  250000 150000 0  300000 150000 0  350000 150000 0  400000 150000 0  450000 150000 0  500000 150000 0  550000 150000 0  600000 150000 0  650000 150000 0  700000 150000 0  750000 150000 0  800000 150000 0  850000 150000 0  900000 150000 0  950000 150000 0  1000000 150000 0  0 200000 0  50000 200000 0  100000 200000 0  150000 200000 0  200000 200000 0  250000 200000 0  300000 200000 0  350000 200000 0  400000 200000 0  450000 200000 0  500000 200000 0  550000 200000 0  600000 200000 0  650000 200000 0  700000 200000 0  750000 200000 0  800000 200000 0  850000 200000 0  900000 200000 0  950000 200000 0  1000000 200000 0  0 250000 0  50000 250000 0  100000 250000 0  150000 250000 0  200000 250000 0  250000 250000 0  300000 250000 0  350000 250000 0  400000 250000 0  450000 250000 0  500000 250000 0  550000 250000 0  600000 250000 0  650000 250000 0  700000 250000 0  750000 250000 0  800000 250000 0  850000 250000 0  900000 250000 0  950000 250000 0  1000000 250000 0  0 300000 0  50000 300000 0  100000 300000 0  150000 300000 0  200000 300000 0  250000 300000 0  300000 300000 0  350000 300000 0  400000 300000 0  450000 300000 0  500000 300000 0  550000 300000 0  600000 300000 0  650000 300000 0  700000 300000 0  750000 300000 0  800000 300000 0  850000 300000 0  900000 300000 0  950000 300000 0  1000000 300000 0  0 350000 0  50000 350000 0  100000 350000 0  150000 350000 0  200000 350000 0  250000 350000 0  300000 350000 0  350000 350000 0  400000 350000 0  450000 350000 0  500000 350000 0  550000 350000 0  600000 350000 0  650000 350000 0  700000 350000 0  750000 350000 0  800000 350000 0  850000 350000 0  900000 350000 0  950000 350000 0  1000000 350000 0  0 400000 0  50000 400000 0  100000 400000 0  150000 400000 0  200000 400000 0  250000 400000 0  300000 400000 0  350000 400000 0  400000 400000 0  450000 400000 0  500000 400000 0  550000 400000 0  600000 400000 0  650000 400000 0  700000 400000 0  750000 400000 0  800000 400000 0  850000 400000 0  900000 400000 0  950000 400000 0  1000000 400000 0  0 450000 0  50000 450000 0  100000 450000 0  150000 450000 0  200000 450000 0  250000 450000 0  300000 450000 0  350000 450000 0  400000 450000 0  450000 450000 0  500000 450000 0  550000 450000 0  600000 450000 0  650000 450000 0  700000 450000 0  750000 450000 0  800000 450000 0  850000 450000 0  900000 450000 0  950000 450000 0  1000000 450000 0  0 500000 0  50000 500000 0  100000 500000 0  150000 500000 0  200000 500000 0  250000 500000 0  300000 500000 0  350000 500000 0  400000 500000 0  450000 500000 0  500000 500000 0  550000 500000 0  600000 500000 0  650000 500000 0  700000 500000 0  750000 500000 0  800000 500000 0  850000 500000 0  900000 500000 0  950000 500000 0  1000000 500000 0  0 550000 0  50000 550000 0  100000 550000 0  150000 550000 0  200000 550000 0  250000 550000 0  300000 550000 0  350000 550000 0  400000 550000 0  450000 550000 0  500000 550000 0  550000 550000 0  600000 550000 0  650000 550000 0  700000 550000 0  750000 550000 0  800000 550000 0  850000 550000 0  900000 550000 0  950000 550000 0  1000000 550000 0  0 600000 0  50000 600000 0  100000 600000 0  150000 600000 0  200000 600000 0  250000 600000 0  300000 600000 0  350000 600000 0  400000 600000 0  450000 600000 0  500000 600000 0  550000 600000 0  600000 600000 0  650000 600000 0  700000 600000 0  750000 600000 0  800000 600000 0  850000 600000 0  900000 600000 0  950000 600000 0  1000000 600000 0  0 650000 0  50000 650000 0  100000 650000 0  150000 650000 0  200000 650000 0  250000 650000 0  300000 650000 0  350000 650000 0  400000 650000 0  450000 650000 0  500000 650000 0  550000 650000 0  600000 650000 0  650000 650000 0  700000 650000 0  750000 650000 0  800000 650000 0  850000 650000 0  900000 650000 0  950000 650000 0  1000000 650000 0  0 700000 0  50000 700000 0  100000 700000 0  150000 700000 0  200000 700000 0  250000 700000 0  300000 700000 0  350000 700000 0  400000 700000 0  450000 700000 0  500000 700000 0  550000 700000 0  600000 700000 0  650000 700000 0  700000 700000 0  750000 700000 0  800000 700000 0  850000 700000 0  900000 700000 0  950000 700000 0  1000000 700000 0  0 750000 0  50000 750000 0  100000 750000 0  150000 750000 0  200000 750000 0  250000 750000 0  300000 750000 0  350000 750000 0  400000 750000 0  450000 750000 0  500000 750000 0  550000 750000 0  600000 750000 0  650000 750000 0  700000 750000 0  750000 750000 0  800000 750000 0  850000 750000 0  900000 750000 0  950000 750000 0  1000000 750000 0  0 800000 0  50000 800000 0  100000 800000 0  150000 800000 0  200000 800000 0  250000 800000 0  300000 800000 0  350000 800000 0  400000 800000 0  450000 800000 0  500000 800000 0  550000 800000 0  600000 800000 0  650000 800000 0  700000 800000 0  750000 800000 0  800000 800000 0  850000 800000 0  900000 800000 0  950000 800000 0  1000000 800000 0  0 850000 0  50000 850000 0  100000 850000 0  150000 850000 0  200000 850000 0  250000 850000 0  300000 850000 0  350000 850000 0  400000 850000 0  450000 850000 0  500000 850000 0  550000 850000 0  600000 850000 0  650000 850000 0  700000 850000 0  750000 850000 0  800000 850000 0  850000 850000 0  900000 850000 0  950000 850000 0  1000000 850000 0  0 900000 0  50000 900000 0  100000 900000 0  150000 900000 0  200000 900000 0  250000 900000 0  300000 900000 0  350000 900000 0  400000 900000 0  450000 900000 0  500000 900000 0  550000 900000 0  600000 900000 0  650000 900000 0  700000 900000 0  750000 900000 0  800000 900000 0  850000 900000 0  900000 900000 0  950000 900000 0  1000000 900000 0  0 950000 0  50000 950000 0  100000 950000 0  150000 950000 0  200000 950000 0  250000 950000 0  300000 950000 0  350000 950000 0  400000 950000 0  450000 950000 0  500000 950000 0  550000 950000 0  600000 950000 0  650000 950000 0  700000 950000 0  750000 950000 0  800000 950000 0  850000 950000 0  900000 950000 0  950000 950000 0  1000000 950000 0  0 1000000 0  50000 1000000 0  100000 1000000 0  150000 1000000 0  200000 1000000 0  250000 1000000 0  300000 1000000 0  350000 1000000 0  400000 1000000 0  450000 1000000 0  500000 1000000 0  550000 1000000 0  600000 1000000 0  650000 1000000 0  700000 1000000 0  750000 1000000 0  800000 1000000 0  850000 1000000 0  900000 1000000 0  950000 1000000 0  1000000 1000000 0  0 1050000 0  50000 1050000 0  100000 1050000 0  150000 1050000 0  200000 1050000 0  250000 1050000 0  300000 1050000 0  350000 1050000 0  400000 1050000 0  450000 1050000 0  500000 1050000 0  550000 1050000 0  600000 1050000 0  650000 1050000 0  700000 1050000 0  750000 1050000 0  800000 1050000 0  850000 1050000 0  900000 1050000 0  950000 1050000 0  1000000 1050000 0  0 1100000 0  50000 1100000 0  100000 1100000 0  150000 1100000 0  200000 1100000 0  250000 1100000 0  300000 1100000 0  350000 1100000 0  400000 1100000 0  450000 1100000 0  500000 1100000 0  550000 1100000 0  600000 1100000 0  650000 1100000 0  700000 1100000 0  750000 1100000 0  800000 1100000 0  850000 1100000 0  900000 1100000 0  950000 1100000 0  1000000 1100000 0  0 1150000 0  50000 1150000 0  100000 1150000 0  150000 1150000 0  200000 1150000 0  250000 1150000 0  300000 1150000 0  350000 1150000 0  400000 1150000 0  450000 1150000 0  500000 1150000 0  550000 1150000 0  600000 1150000 0  650000 1150000 0  700000 1150000 0  750000 1150000 0  800000 1150000 0  850000 1150000 0  900000 1150000 0  950000 1150000 0  1000000 1150000 0  0 1200000 0  50000 1200000 0  100000 1200000 0  150000 1200000 0  200000 1200000 0  250000 1200000 0  300000 1200000 0  350000 1200000 0  400000 1200000 0  450000 1200000 0  500000 1200000 0  550000 1200000 0  600000 1200000 0  650000 1200000 0  700000 1200000 0  750000 1200000 0  800000 1200000 0  850000 1200000 0  900000 1200000 0  950000 1200000 0  1000000 1200000 0  0 1250000 0  50000 1250000 0  100000 1250000 0  150000 1250000 0  200000 1250000 0  250000 1250000 0  300000 1250000 0  350000 1250000 0  400000 1250000 0  450000 1250000 0  500000 1250000 0  550000 1250000 0  600000 1250000 0  650000 1250000 0  700000 1250000 0  750000 1250000 0  800000 1250000 0  850000 1250000 0  900000 1250000 0  950000 1250000 0  1000000 1250000 0  0 1300000 0  50000 1300000 0  100000 1300000 0  150000 1300000 0  200000 1300000 0  250000 1300000 0  300000 1300000 0  350000 1300000 0  400000 1300000 0  450000 1300000 0  500000 1300000 0  550000 1300000 0  600000 1300000 0  650000 1300000 0  700000 1300000 0  750000 1300000 0  800000 1300000 0  850000 1300000 0  900000 1300000 0  950000 1300000 0  1000000 1300000 0  0 1350000 0  50000 1350000 0  100000 1350000 0  150000 1350000 0  200000 1350000 0  250000 1350000 0  300000 1350000 0  350000 1350000 0  400000 1350000 0  450000 1350000 0  500000 1350000 0  550000 1350000 0  600000 1350000 0  650000 1350000 0  700000 135
[...]
<PointData  Vectors="f_7489"> 
<DataArray  type="Float64"  Name="f_7489"  NumberOfComponents="3" format="ascii">-2.4598482240136806e-08 -9.7623769362541990e-09 0.0000000000000000e+00  4.8463198378009654e-08 -5.8628093010663298e-09 0.0000000000000000e+00  4.2734059661131615e-08 -1.5889066188934630e-09 0.0000000000000000e+00  4.0282115974404987e-08 -2.4163963514602838e-10 0.0000000000000000e+00  3.9084820318414043e-08 2.2018380394887024e-10 0.0000000000000000e+00  3.8309954597758174e-08 4.1101875021827700e-10 0.0000000000000000e+00  3.7761049776319125e-08 4.9576486517702545e-10 0.0000000000000000e+00  3.7381234164568844e-08 5.2975966209711893e-10 0.0000000000000000e+00  3.7152236050889154e-08 5.3563014934257234e-10 0.0000000000000000e+00  3.7068600131023057e-08 5.2478242410279304e-10 0.0000000000000000e+00  3.7129857900979747e-08 5.0488070689824504e-10 0.0000000000000000e+00  3.7338725634081403e-08 4.8340018563346298e-10 0.0000000000000000e+00  3.7702767748754439e-08 4.7043946073107996e-10 0.0000000000000000e+00  3.8240688782431880e-08 4.8255825195073900e-10 0.0000000000000000e+00  3.8998875791171191e-08 5.5028736406258663e-10 0.0000000000000000e+00  4.0094603806917280e-08 7.3621024959032325e-10 0.0000000000000000e+00  4.1829166378408862e-08 1.1832338669579239e-09 0.0000000000000000e+00  4.4951878133110187e-08 2.2404952547935543e-09 0.0000000000000000e+00  5.0797223755666947e-08 4.7292451424758106e-09 0.0000000000000000e+00  5.8041113439091249e-08 9.2194633810899152e-09 0.0000000000000000e+00  -1.6414888468349877e-08 7.1111838125074455e-09 0.0000000000000000e+00  -1.8379744425583840e-08 -1.5306883023224722e-08 0.0000000000000000e+00  7.0819290171173032e-09 -1.1064521032685195e-08 0.0000000000000000e+00  1.7873745962768346e-08 -5.1544547563562581e-09 0.0000000000000000e+00  2.2947263960852250e-08 -2.3140703490696755e-09 0.0000000000000000e+00  2.5567821356274595e-08 -1.0682428226015746e-09 0.0000000000000000e+00  2.7061321688830635e-08 -4.8459215156849392e-10 0.0000000000000000e+00  2.7942796719848153e-08 -1.9591231374637040e-10 0.0000000000000000e+00  2.8472976625178860e-08 -5.2213921910827871e-11 0.0000000000000000e+00  2.8794839741566065e-08 1.5679797354128024e-11 0.0000000000000000e+00  2.8987421991919189e-08 4.5429046802710836e-11 0.0000000000000000e+00  2.9091014235037587e-08 6.2050964490483409e-11 0.0000000000000000e+00  2.9118735821147610e-08 8.6600010986091788e-11 0.0000000000000000e+00  2.9060679979192786e-08 1.4184801896170940e-10 0.0000000000000000e+00  2.8882648139612250e-08 2.5873112638789393e-10 0.0000000000000000e+00  2.8518462079678777e-08 4.8791251856443206e-10 0.0000000000000000e+00  2.7849768371827105e-08 9.2545097739219883e-10 0.0000000000000000e+00  2.6651222409634463e-08 1.7735199447982736e-09 0.0000000000000000e+00  2.4413603673851465e-08 3.4761534085247109e-09 0.0000000000000000e+00  1.9697761609732983e-08 6.9210404482197229e-09 0.0000000000000000e+00  8.2621727422087638e-09 1.3068472606602428e-08 0.0000000000000000e+00  -1.8383975406582515e-08 1.1042150915350832e-08 0.0000000000000000e+00  -1.1433007332195153e-08 -1.8904820956196520e-08 0.0000000000000000e+00  -3.7041241805705442e-10 -1.8219059547459101e-08 0.0000000000000000e+00  5.6419649062892508e-09 -1.1312872861055805e-08 0.0000000000000000e+00  1.0481839241587495e-08 -6.5814777285507811e-09 0.0000000000000000e+00  1.4295969070415992e-08 -3.8371258993524420e-09 0.0000000000000000e+00  1.6962125808545974e-08 -2.2774304378219466e-09 0.0000000000000000e+00  1.8757905156040599e-08 -1.3672525117481755e-09 0.0000000000000000e+00  1.9945014921444519e-08 -8.1674709697082696e-10 0.0000000000000000e+00  2.0701020712562335e-08 -4.6666854351547502e-10 0.0000000000000000e+00  2.1135021550616865e-08 -2.2191769601826770e-10 0.0000000000000000e+00  2.1305756865460027e-08 -1.7283160804337331e-11 0.0000000000000000e+00  2.1232600888426512e-08 2.0128378048376566e-10 0.0000000000000000e+00  2.0899630258366933e-08 4.8961189750914019e-10 0.0000000000000000e+00  2.0253361837539887e-08 9.1867629716845544e-10 0.0000000000000000e+00  1.9193521588550367e-08 1.5943565528440362e-09 0.0000000000000000e+00  1.7554892051132662e-08 2.6913814012346695e-09 0.0000000000000000e+00  1.5078863971524385e-08 4.5080033463601406e-09 0.0000000000000000e+00  1.1384935735011601e-08 7.5146775748245856e-09 0.0000000000000000e+00  6.0092546599088110e-09 1.2174159944446357e-08 0.0000000000000000e+00  -1.3138027571462398e-09 1.7623126373331378e-08 0.0000000000000000e+00  -1.3239879211942323e-08 1.4788921390133069e-08 0.0000000000000000e+00  -7.7598458063024481e-09 -1.9527748743437036e-08 0.0000000000000000e+00  -1.6214859007164961e-09 -1.9561855128167785e-08 0.0000000000000000e+00  1.0078500049546160e-09 -1.5225156534145242e-08 0.0000000000000000e+00  3.7256641640472434e-09 -1.0448673526812022e-08 0.0000000000000000e+00  6.5956673278604743e-09 -6.9148738070464875e-09 0.0000000000000000e+00  9.1147652682394116e-09 -4.5275142127297173e-09 0.0000000000000000e+00  1.1072144058574609e-08 -2.9411358352519081e-09 0.0000000000000000e+00  1.2484306041033799e-08 -1.8684817200487937e-09 0.0000000000000000e+00  1.3431228823051184e-08 -1.1100700432497507e-09 0.0000000000000000e+00  1.3985021465706315e-08 -5.2773498404104918e-10 0.0000000000000000e+00  1.4191330158821352e-08 -1.8122208225504104e-11 0.0000000000000000e+00  1.4066323450905091e-08 5.0711985409732900e-10 0.0000000000000000e+00  1.3596783274320126e-08 1.1370639206456367e-09 0.0000000000000000e+00  1.2740305600758154e-08 1.9767108434420796e-09 0.0000000000000000e+00  1.1426769841102477e-08 3.1642743921095221e-09 0.0000000000000000e+00  9.5672432128109832e-09 4.8889957359732414e-09 0.0000000000000000e+00  7.0871732683190668e-09 7.3917445593527390e-09 0.0000000000000000e+00  4.0180226502906156e-09 1.0877895355906350e-08 0.0000000000000000e+00  6.5371647789143941e-10 1.5150722558600469e-08 0.0000000000000000e+00  -2.6543332645470684e-09 1.8777225861966518e-08 0.0000000000000000e+00  -8.9742082633240078e-09 1.7626258261175864e-08 0.0000000000000000e+00  -5.9123018968479742e-09 -1.8935180040372871e-08 0.0000000000000000e+00  -1.9425840592194736e-09 -1.9242884170411126e-08 0.0000000000000000e+00  -9.9181270228183225e-10 -1.6571762419607190e-08 0.0000000000000000e+00  1.0052646106476515e-10 -1.2786338363975611e-08 0.0000000000000000e+00  1.7064882960402511e-09 -9.3054562405657970e-09 0.0000000000000000e+00  3.4668067134419246e-09 -6.5612554877169920e-09 0.0000000000000000e+00  5.0536800124557856e-09 -4.5111240964773344e-09 0.0000000000000000e+00  6.3166239299017136e-09 -2.9877672575609481e-09 0.0000000000000000e+00  7.2173655771899083e-09 -1.8227861904833817e-09 0.0000000000000000e+00  7.7622058150313389e-09 -8.7329932406438249e-10 0.0000000000000000e+00  7.9651308292978299e-09 -1.8722434498863739e-11 0.0000000000000000e+00  7.8325153581278386e-09 8.4960805323723598e-10 0.0000000000000000e+00  7.3588039391999423e-09 1.8395259854193787e-09 0.0000000000000000e+00  6.5290104429386123e-09 3.0680355000754810e-09 0.0000000000000000e+00  5.3292273590530110e-09 4.6676629014078334e-09 0.0000000000000000e+00  3.7711696682991987e-09 6.7806174688709586e-09 0.0000000000000000e+00  1.9401266948246351e-09 9.5174058345892145e-09 0.0000000000000000e+00  6.3362789466107941e-11 1.2831945994819573e-08 0.0000000000000000e+00  -1.4947614099136084e-09 1.6266321970940627e-08 0.0000000000000000e+00  -2.7648190279082327e-09 1.8711842072166216e-08 0.0000000000000000e+00  -6.7348128993182182e-09 1.8608731122705813e-08 0.0000000000000000e+00  -4.8696728306829371e-09 -1.7802312488346959e-08 0.0000000000000000e+00  -2.1082368327401130e-09 -1.8286150658325862e-08 0.0000000000000000e+00  -2.0384816765943463e-09 -1.6543792501887058e-08 0.0000000000000000e+00  -1.9812153337232805e-09 -1.3712573238005883e-08 0.0000000000000000e+00  -1.4110271246283448e-09 -1.0689986322920927e-08 0.0000000000000000e+00  -4.8675426806156716e-10 -7.9864427963540609e-09 0.0000000000000000e+00  5.2420029145800918e-10 -5.7482841192388016e-09 0.0000000000000000e+00  1.4289850476998547e-09 -3.9405256800905217e-09 0.0000000000000000e+00  2.1241378245660460e-09 -2.4619585884999152e-09 0.0000000000000000e+00  2.5640505994762708e-09 -1.1966939492798251e-09 0.0000000000000000e+00  2.7320749809261866e-09 -3.0892882018587426e-11 0.0000000000000000e+00  2.6238930812660605e-09 1.1450402658064685e-09 0.0000000000000000e+00  2.2416178564694305e-09 2.4388442695881158e-09 0.0000000000000000e+00  1.5967196794519788e-09 3.9578828559448723e-09 0.0000000000000000e+00  7.2193079615175970e-10 5.8042356482644188e-09 0.0000000000000000e+00  -3.0667789301153236e-10 8.0543517020182513e-09 0.0000000000000000e+00  -1.3405323107524850e-09 1.0708709829934477e-08 0.0000000000000000e+00  -2.1469279595761036e-09 1.3598253297652301e-08 0.0000000000000000e+00  -2.5087943272401169e-09 1.6271772781404548e-08 0.0000000000000000e+00  -2.7384080861960030e-09 1.8002172393482396e-08 0.0000000000000000e+00  -5.4509790232052288e-09 1.8367486151587271e-08 0.0000000000000000e+00  -4.2099774248856977e-09 -1.6370917301519302e-08 0.0000000000000000e+00  -2.2370323812080542e-09 -1.6981330466652653e-08 0.0000000000000000e+00  -2.6896447416586153e-09 -1.5791402126579152e-08 0.0000000000000000e+00  -3.2832293261728472e-09 -1.3671666133706383e-08 0.0000000000000000e+00  -3.4629137076476139e-09 -1.1177262021465294e-08 0.0000000000000000e+00  -3.2501799876934079e-09 -8.7220721273576009e-09 0.0000000000000000e+00  -2.8180394316714786e-09 -6.5108983205828454e-09 0.0000000000000000e+00  -2.3336797275003479e-09 -4.5927491403932332e-09 0.0000000000000000e+00  -1.9144157844537273e-09 -2.9305497283555172e-09 0.0000000000000000e+00  -1.6297047152046107e-09 -1.4478996369777699e-09 0.0000000000000000e+00  -1.5146115605083862e-09 -5.3544073682706057e-11 0.0000000000000000e+00  -1.5808130548646028e-09 1.3474397235329339e-09 0.0000000000000000e+00  -1.8212932095979243e-09 2.8479750521989645e-09 0.0000000000000000e+00  -2.2083658301130484e-09 4.5329809367892396e-09 0.0000000000000000e+00  -2.6856642374110077e-09 6.4676074502741733e-09 0.0000000000000000e+00  -3.1565273189537105e-09 8.6737593580348013e-09 0.0000000000000000e+00  -3.4771883070009270e-09 1.1090174288044260e-08 0.0000000000000000e+00  -3.4789668864784655e-09 1.3520916995655719e-08 0.0000000000000000e+00  -3.0831001894342896e-09 1.5605503994517472e-08 0.0000000000000000e+00  -2.7181618050025880e-09 1.6881653003449936e-08 0.0000000000000000e+00  -4.6435550724352547e-09 1.7476810341133057e-08 0.0000000000000000e+00  -3.7578801190274465e-09 -1.4741167586373960e-08 0.0000000000000000e+00  -2.3448416855850428e-09 -1.5446755238048760e-08 0.0000000000000000e+00  -3.1420169923187671e-09 -1.4610345867513948e-08 0.0000000000000000e+00  -4.1581657256016566e-09 -1.3004302127637140e-08 0.0000000000000000e+00  -4.8616320685682957e-09 -1.0983472367324250e-08 0.0000000000000000e+00  -5.1979020308010625e-09 -8.8495411930531908e-09 0.0000000000000000e+00  -5.2609894173711914e-09 -6.7957225287961789e-09 0.0000000000000000e+00  -5.1721148960524718e-09 -4.9064198856191831e-09 0.0000000000000000e+00  -5.0333630715038333e-09 -3.1881965034091111e-09 0.0000000000000000e+00  -4.9152984415659379e-09 -1.6013097967142282e-09 0.0000000000000000e+00  -4.8583399490988856e-09 -8.2419666527685214e-11 0.0000000000000000e+00  -4.8770811776917353e-09 1.4407462784989637e-09 0.0000000000000000e+00  -4.9627767961378155e-09 3.0389373729380284e-09 0.0000000000000000e+00  -5.0826643172744400e-09 4.7710471026369437e-09 0.0000000000000000e+00  -5.1769736494209220e-09 6.6702092906779144e-09 0.0000000000000000e+00  -5.1569889595881467e-09 8.7237044169900509e-09 0.0000000000000000e+00  -4.9119813921667744e-09 1.0847431625357031e-08 0.0000000000000000e+00  -4.3417092820738555e-09 1.2863921542866007e-08 0.0000000000000000e+00  -3.4557862590667951e-09 1.4507120482561038e-08 0.0000000000000000e+00  -2.7132056584414731e-09 1.5481625845551793e-08 0.0000000000000000e+00  -4.0999177080536725e-09 1.6211259229822460e-08 0.0000000000000000e+00  -3.4326912851302159e-09 -1.2967279758594810e-08 0.0000000000000000e+00  -2.4340413062150608e-09 -1.3746679047779194e-08 0.0000000000000000e+00  -3.4738771960276598e-09 -1.3151495872667308e-08 0.0000000000000000e+00  -4.7745325419875130e-09 -1.1924349645547314e-08 0.0000000000000000e+00  -5.8412148764891503e-09 -1.0301610185640570e-08 0.0000000000000000e+00  -6.5821287295000585e-09 -8.4963566357775450e-09 0.0000000000000000e+00  -7.0359371446325978e-09 -6.6673834804875861e-09 0.0000000000000000e+00  -7.2797023635163297e-09 -4.9043262076790231e-09 0.0000000000000000e+00  -7.3897166236520072e-09 -3.2368500530778849e-09 0.0000000000000000e+00  -7.4250871030716938e-09 -1.6523807933283364e-09 0.0000000000000000e+00  -7.4226093287587902e-09 -1.1327856598518326e-10 0.0000000000000000e+00  -7.3963162478265743e-09 1.4290759769002172e-09 0.0000000000000000e+00  -7.3380612757319897e-09 3.0224485640120417e-09 0.0000000000000000e+00  -7.2178485832287148e-09 4.7022282351059278e-09 0.0000000000000000e+00  -6.9845948888534154e-09 6.4784634005562159e-09 0.0000000000000000e+00  -6.5700178258447009e-09 8.3210446555904562e-09 0.0000000000000000e+00  -5.9009333927313279e-09 1.0145587989010555e-08 0.0000000000000000e+00  -4.9302904958680113e-09 1.1807401776611339e-08 0.0000000000000000e+00  -3.7172692040384509e-09 1.3116748533077302e-08 0.0000000000000000e+00  -2.7169028959773352e-09 1.3883263000744819e-08 0.0000000000000000e+00  -3.7149622436607190e-09 1.4703360861430463e-08 0.0000000000000000e+00  -3.1931165679955632e-09 -1.1085844189918625e-08 0.0000000000000000e+00  -2.5061227993917018e-09 -1.1923545918484600e-08 0.0000000000000000e+00  -3.7221510495748295e-09 -1.1503067451531432e-08 0.0000000000000000e+00  -5.2191949914594383e-09 -1.0566058477535147e-08 0.0000000000000000e+00  -6.5376586218994329e-09 -9.2764406211330779e-09 0.0000000000000000e+00  -7.5692877953452816e-09 -7.7836046211636361e-09 0.0000000000000000e+00  -8.3167798855778846e-09 -6.2102173681053959e-09 0.0000000000000000e+00  -8.8218819394370383e-09 -4.6369299919655389e-09 0.0000000000000000e+00  -9.1347949471005355e-09 -3.1020061985464494e-09 0.0000000000000000e+00  -9.2987301956792943e-09 -1.6099240003489534e-09 0.0000000000000000e+00  -9.3425137666158890e-09 -1.4295139164253476e-10 0.0000000000000000e+00  -9.2776839895667418e-09 1.3272753040736819e-09 0.0000000000000000e+00  -9.0979161526573826e-09 2.8288483235334564e-09 0.0000000000000000e+00  -8.7799008978348462e-09 4.3789867063224845e-09 0.0000000000000000e+00  -8.2860844991070149e-09 5.9733979939744254e-09 0.0000000000000000e+00  -7.5709058811484846e-09 7.5762615353854450e-09 0.0000000000000000e+00  -6.5935385568876909e-09 9.1133660463724543e-09 0.0000000000000000e+00  -5.3437866138835925e-09 1.0473197004297685e-08 0.0000000000000000e+00  -3.9070634807223344e-09 1.1522951743116696e-08 0.0000000000000000e+00  -2.7232398701713495e-09 1.2140171014190232e-08 0.0000000000000000e+00  -3.4317400784673703e-09 1.3025535788801663e-08 0.0000000000000000e+00  -3.0161207786447716e-09 -9.1247532521208271e-09 0.0000000000000000e+00  -2.5631054365785678e-09 -1.0008926522604749e-08 0.0000000000000000e+00  -3.9078081316859468e-09 -9.7223065161415953e-09 0.0000000000000000e+00  -5.5416999894512026e-09 -9.0173157277599799e-09 0.0000000000000000e+00  -7.0341347165461031e-09 -8.0117519179587309e-09 0.0000000000000000e+00  -8.2706577332823731e-09 -6.8102885208355691e-09 0.0000000000000000e+00  -9.2314012903610585e-09 -5.5044819324975611e-09 0.0000000000000000e+00  -9.9321981546030652e-09 -4.1609981363210675e-09 0.0000000000000000e+00  -1.0401165055964922e-08 -2.8180670069861063e-09 0.0000000000000000e+00  -1.0665945198936008e-08 -1.4889991010961225e-09 0.0000000000000000e+00  -1.0746390684791172e-08 -1.6944391623864279e-10 0.0000000000000000e+00  -1.0650889916231798e-08 1.1539632818658305e-09 0.0000000000000000e+00  -1.0375291711852503e-08 2.4947160328276836e-09 0.0000000000000000e+00  -9.9039593870476875e-09 3.8577670573927868e-09 0.0000000000000000e+00  -9.2131310269564794e-09 5.2314959056470164e-09 0.0000000000000000e+00  -8.2773653626998695e-09 6.5813047600584499e-09 0.0000000000000000e+00  -7.0806401509413391e-09 7.8467848570280036e-09 0.0000000000000000e+00  -5.6370395541940618e-09 8.9452341669025203e-09 0.0000000000000000e+00  -4.0454036963472842e-09 9.7852988213436790e-09 0.0000000000000000e+00  -2.7284813591552872e-09 1.0289986238108946e-08 0.0000000000000000e+00  -3.2175623162750020e-09 1.1222978184987617e-08 0.0000000000000000e+00  -2.8880221576444860e-09 -7.1064182187490141e-09 0.0000000000000000e+00  -2.6074031040212063e-09 -8.0276864331404256e-09 0.0000000000000000e+00  -4.0447699485930149e-09 -7.8491317064521447e-09 0.0000000000000000e+00  -5.7733415942053297e-09 -7.3380835579398497e-09 0.0000000000000000e+00  -7.3845490130481974e-09 -6.5815520155629633e-09 0.0000000000000000e+00  -8.7624445513001141e-09 -5.6526268317797079e-09 0.0000000000000000e+00  -9.8732698672446934e-09 -4.6177453322003035e-09 0.0000000000000000e+00  -1.0714795784726776e-08 -3.5288591524476356e-09 0.0000000000000000e+00  -1.1298171079280447e-08 -2.4195526734892555e-09 0.0000000000000000e+00  -1.1637974083960136e-08 -1.3060765368609583e-09 0.0000000000000000e+00  -1.1745943106815057e-08 -1.9166949343861266e-10 0.0000000000000000e+00  -1.1627450604234999e-08 9.2741864720153877e-10 0.0000000000000000e+00  -1.1280340288866859e-08 2.0553005452394224e-09 0.0000000000000000e+00  -1.0695940663860242e-08 3.1899521901967848e-09 0.0000000000000000e+00  -9.8622840421802676e-09 4.3175264102277828e-09 0.0000000000000000e+00  -8.7697858103434896e-09 5.4084241535414695e-09 0.0000000000000000e+00  -7.4202124852258184e-09 6.4164519742018624e-09 0.0000000000000000e+00  -5.8432279464883930e-09 7.2825901148953562e-09 0.0000000000000000e+00  -4.1443602788126814e-09 7.9457036682243236e-09 0.0000000000000000e+00  -2.7307402851057972e-09 8.3604420568093040e-09 0.0000000000000000e+00  -3.0532445332100384e-09 9.3270793043564809e-09 0.0000000000000000e+00  -2.8003271141216914e-09 -5.0492330305761805e-09 0.0000000000000000e+00  -2.6415168538107500e-09 -5.9998739766721687e-09 0.0000000000000000e+00  -4.1432005718881202e-09 -5.9127284179369492e-09 0.0000000000000000e+00  -5.9354407345936806e-09 -5.5706966433244762e-09 0.0000000000000000e+00  -7.6254559772357582e-09 -5.0390260524227927e-09 0.0000000000000000e+00  -9.0977557872742412e-09 -4.3679032673783711e-09 0.0000000000000000e+00  -1.0310205310054197e-08 -3.6037025694169617e-09 0.0000000000000000e+00  -1.1248525258281640e-08 -2.7845125380415036e-09 0.0000000000000000e+00  -1.1911731742069852e-08 -1.9370055720709509e-09 0.0000000000000000e+00  -1.2304495897305710e-08 -1.0764421942646058e-09 0.0000000000000000e+00  -1.2432101218212797e-08 -2.0912163416959805e-10 0.0000000000000000e+00  -1.2297417764017352e-08 6.6369226339945253e-10 0.0000000000000000e+00  -1.1899847988990742e-08 1.5412166114082011e-09 0.0000000000000000e+00  -1.1236215739315424e-08 2.4186578559479602e-09 0.0000000000000000e+00  -1.0303551424634084e-08 3.2834382424655917e-09 0.0000000000000000e+00  -9.1037638766467135e-09 4.1128833768415644e-09 0.0000000000000000e+00  -7.6507206471645916e-09 4.8742171893850667e-09 0.0000000000000000e+00  -5.9838619642246716e-09 5.5276906000855517e-09 0.0000000000000000e+00  -4.2119825619009065e-09 6.0346375828221067e-09 0.0000000000000000e+00  -2.7293441909794466e-09 6.3727068507734695e-09 0.0000000000000000e+00  -2.9276071586771448e-09 7.3612945716707185e-09 0.0000000000000000e+00  -2.7476027326049116e-09 -2.9685196018185238e-09 0.0000000000000000e+00  -2.6677577929414487e-09 -3.9418529544516289e-09 0.0000000000000000e+00  -4.2107322799981775e-09 -3.9351865138070730e-09 0.0000000000000000e+00  -6.0429799444341690e-09 -3.7460072508097783e-09 0.0000000000000000e+00  -7.7820165233334251e-09 -3.4230420579007205e-09 0.0000000000000000e+00  -9.3134421878424707e-09 -2.9990644897257190e-09 0.0000000000000000e+00  -1.0590306644249462e-08 -2.504060048