<?xml version="1.0"?>
<VTKFile type="UnstructuredGrid"  version="0.1"  >
<UnstructuredGrid>
<Piece  NumberOfPoints="651" NumberOfCells="1200">
<Points>
<DataArray  type="Float64"  NumberOfComponents="3"  format="ascii">0 0 0  50000 0 0  100000 0 0  150000 0 0  200000 0 0  250000 0 0  300000 0 0  350000 0 0  400000 0 0  450000 0 0  500000 0 0  550000 0 0  600000 0 0  650000 0 0  700000 0 0  750000 0 0  800000 0 0  850000 0 0  900000 0 0  950000 0 0  1000000 0 0  0 50000 0  50000 50000 0  100000 50000 0  150000 50000 0  200000 50000 0  250000 50000 0  300000 50000 0  350000 50000 0  400000 50000 0  450000 50000 0  500000 50000 0  550000 50000 0  600000 50000 0  650000 50000 0  700000 50000 0  750000 50000 0  800000 50000 0  850000 50000 0  900000 50000 0  950000 50000 0  1000000 50000 0  0 100000 0  50000 100000 0  100000 100000 0  150000 100000 0  200000 100000 0  250000 100000 0  300000 100000 0  350000 100000 0  400000 100000 0  450000 100000 0  500000 100000 0  550000 100000 0  600000 100000 0  650000 100000 0  700000 100000 0  750000 100000 0  800000 100000 0  850000 100000 0  900000 100000 0  950000 100000 0  1000000 100000 0  0 150000 0  50000 150000 0  100000 150000 0  150000 150000 0  200000 150000 0  250000 150000 0  300000 150000 0  350000 150000 0  400000 150000 0  450000 150000 0  500000 150000 0  550000 150000 0  600000 150000 0  650000 150000 0  700000 150000 0  750000 150000 0  800000 150000 0  850000 150000 0  900000 150000 0  950000 150000 0  1000000 150000 0  0 200000 0  50000 200000 0  100000 200000 0  150000 200000 0  200000 200000 0  250000 200000 0  300000 200000 0  350000 200000 0  400000 200000 0  450000 200000 0  500000 200000 0  550000 200000 0  600000 200000 0  650000 200000 0  700000 200000 0  750000 200000 0  800000 200000 0  850000 200000 0  900000 200000 0  950000 200000 0  1000000 200000 0  0 250000 0  50000 250000 0  100000 250000 0  150000 250000 0  200000 250000 0  250000 250000 0  300000 250000 0  350000 250000 0  400000 250000 0  450000 250000 0  500000 250000 0  550000 250000 0  600000 250000 0  650000 250000 0  700000 250000 0  750000 250000 0  800000 250000 0  850000 250000 0  900000 250000 0  950000 250000 0  1000000 250000 0  0 300000 0  50000 300000 0  100000 300000 0  150000 300000 0  200000 300000 0  250000 300000 0  300000 300000 0  350000 300000 0  400000 300000 0  450000 300000 0  500000 300000 0  550000 300000 0  600000 300000 0  650000 300000 0  700000 300000 0  750000 300000 0  800000 300000 0  850000 300000 0  900000 300000 0  950000 300000 0  1000000 300000 0  0 350000 0  50000 350000 0  100000 350000 0  150000 350000 0  200000 350000 0  250000 350000 0  300000 350000 0  350000 350000 0  400000 350000 0  450000 350000 0  500000 350000 0  550000 350000 0  600000 350000 0  650000 350000 0  700000 350000 0  750000 350000 0  800000 350000 0  850000 350000 0  900000 350000 0  950000 350000 0  1000000 350000 0  0 400000 0  50000 400000 0  100000 400000 0  150000 400000 0  200000 400000 0  250000 400000 0  300000 400000 0  350000 400000 0  400000 400000 0  450000 400000 0  500000 400000 0  550000 400000 0  600000 400000 0  650000 400000 0  700000 400000 0  750000 400000 0  800000 400000 0  850000 400000 0  900000 400000 0  950000 400000 0  1000000 400000 0  0 450000 0  50000 450000 0  100000 450000 0  150000 450000 0  200000 450000 0  250000 450000 0  300000 450000 0  350000 450000 0  400000 450000 0  450000 450000 0  500000 450000 0  550000 450000 0  600000 450000 0  650000 450000 0  700000 450000 0  750000 450000 0  800000 450000 0  850000 450000 0  900000 450000 0  950000 450000 0  1000000 450000 0  0 500000 0  50000 500000 0  100000 500000 0  150000 500000 0  200000 500000 0  250000 500000 0  300000 500000 0  350000 500000 0  400000 500000 0  450000 500000 0  500000 500000 0  550000 500000 0  600000 500000 0  650000 500000 0  700000 500000 0  750000 500000 0  800000 500000 0  850000 500000 0  900000 500000 0  950000 500000 0  1000000 500000 0  0 550000 0  50000 550000 0  100000 550000 0  150000 550000 0  200000 550000 0  250000 550000 0  300000 550000 0  350000 550000 0  400000 550000 0  450000 550000 0  500000 550000 0  550000 550000 0  600000 550000 0  650000 550000 0  700000 550000 0  750000 550000 0  800000 550000 0  850000 550000 0  900000 550000 0  950000 550000 0  1000000 550000 0  0 600000 0  50000 600000 0  100000 600000 0  150000 600000 0  200000 600000 0  250000 600000 0  300000 600000 0  350000 600000 0  400000 600000 0  450000 600000 0  500000 600000 0  550000 600000 0  600000 600000 0  650000 600000 0  700000 600000 0  750000 600000 0  800000 600000 0  850000 600000 0  900000 600000 0  950000 600000 0  1000000 600000 0  0 650000 0  50000 650000 0  100000 650000 0  150000 650000 0  200000 650000 0  250000 650000 0  300000 650000 0  350000 650000 0  400000 650000 0  450000 650000 0  500000 650000 0  550000 650000 0  600000 650000 0  650000 650000 0  700000 650000 0  750000 650000 0  800000 650000 0  850000 650000 0  900000 650000 0  950000 650000 0  1000000 650000 0  0 700000 0  50000 700000 0  100000 700000 0  150000 700000 0  200000 700000 0  250000 700000 0  300000 700000 0  350000 700000 0  400000 700000 0  450000 700000 0  500000 700000 0  550000 700000 0  600000 700000 0  650000 700000 0  700000 700000 0  750000 700000 0  800000 700000 0  850000 700000 0  900000 700000 0  950000 700000 0  1000000 700000 0  0 750000 0  50000 750000 0  100000 750000 0  150000 750000 0  200000 750000 0  250000 750000 0  300000 750000 0  350000 750000 0  400000 750000 0  450000 750000 0  500000 750000 0  550000 750000 0  600000 750000 0  650000 750000 0  700000 750000 0  750000 750000 0  800000 750000 0  850000 750000 0  900000 750000 0  950000 750000 0  1000000 750000 0  0 800000 0  50000 800000 0  100000 800000 0  150000 800000 0  200000 800000 0  250000 800000 0  300000 800000 0  350000 800000 0  400000 800000 0  450000 800000 0  500000 800000 0  550000 800000 0  600000 800000 0  650000 800000 0  700000 800000 0  750000 800000 0  800000 800000 0  850000 800000 0  900000 800000 0  950000 800000 0  1000000 800000 0  0 850000 0  50000 850000 0  100000 850000 0  150000 850000 0  200000 850000 0  250000 850000 0  300000 850000 0  350000 850000 0  400000 850000 0  450000 850000 0  500000 850000 0  550000 850000 0  600000 850000 0  650000 850000 0  700000 850000 0  750000 850000 0  800000 850000 0  850000 850000 0  900000 850000 0  950000 850000 0  1000000 850000 0  0 900000 0  50000 900000 0  100000 900000 0  150000 900000 0  200000 900000 0  250000 900000 0  300000 900000 0  350000 900000 0  400000 900000 0  450000 900000 0  500000 900000 0  550000 900000 0  600000 900000 0  650000 900000 0  700000 900000 0  750000 900000 0  800000 900000 0  850000 900000 0  900000 900000 0  950000 900000 0  1000000 900000 0  0 950000 0  50000 950000 0  100000 950000 0  150000 950000 0  200000 950000 0  250000 950000 0  300000 950000 0  350000 950000 0  400000 950000 0  450000 950000 0  500000 950000 0  550000 950000 0  600000 950000 0  650000 950000 0  700000 950000 0  750000 950000 0  800000 950000 0  850000 950000 0  900000 950000 0  950000 950000 0  1000000 950000 0  0 1000000 0  50000 1000000 0  100000 1000000 0  150000 1000000 0  200000 1000000 0  250000 1000000 0  300000 1000000 0  350000 1000000 0  400000 1000000 0  450000 1000000 0  500000 1000000 0  550000 1000000 0  600000 1000000 0  650000 1000000 0  700000 1000000 0  750000 1000000 0  800000 1000000 0  850000 1000000 0  900000 1000000 0  950000 1000000 0  1000000 1000000 0  0 1050000 0  50000 1050000 0  100000 1050000 0  150000 1050000 0  200000 1050000 0  250000 1050000 0  300000 1050000 0  350000 1050000 0  400000 1050000 0  450000 1050000 0  500000 1050000 0  550000 1050000 0  600000 1050000 0  650000 1050000 0  700000 1050000 0  750000 1050000 0  800000 1050000 0  850000 1050000 0  900000 1050000 0  950000 1050000 0  1000000 1050000 0  0 1100000 0  50000 1100000 0  100000 1100000 0  150000 1100000 0  200000 1100000 0  250000 1100000 0  300000 1100000 0  350000 1100000 0  400000 1100000 0  450000 1100000 0  500000 1100000 0  550000 1100000 0  600000 1100000 0  650000 1100000 0  700000 1100000 0  750000 1100000 0  800000 1100000 0  850000 1100000 0  900000 1100000 0  950000 1100000 0  1000000 1100000 0  0 1150000 0  50000 1150000 0  100000 1150000 0  150000 1150000 0  200000 1150000 0  250000 1150000 0  300000 1150000 0  350000 1150000 0  400000 1150000 0  450000 1150000 0  500000 1150000 0  550000 1150000 0  600000 1150000 0  650000 1150000 0  700000 1150000 0  750000 1150000 0  800000 1150000 0  850000 1150000 0  900000 1150000 0  950000 1150000 0  1000000 1150000 0  0 1200000 0  50000 1200000 0  100000 1200000 0  150000 1200000 0  200000 1200000 0  250000 1200000 0  300000 1200000 0  350000 1200000 0  400000 1200000 0  450000 1200000 0  500000 1200000 0  550000 1200000 0  600000 1200000 0  650000 1200000 0  700000 1200000 0  750000 1200000 0  800000 1200000 0  850000 1200000 0  900000 1200000 0  950000 1200000 0  1000000 1200000 0  0 1250000 0  50000 1250000 0  100000 1250000 0  150000 1250000 0  200000 1250000 0  250000 1250000 0  300000 1250000 0  350000 1250000 0  400000 1250000 0  450000 1250000 0  500000 1250000 0  550000 1250000 0  600000 1250000 0  650000 1250000 0  700000 1250000 0  750000 1250000 0  800000 1250000 0  850000 1250000 0  900000 1250000 0  950000 1250000 0  1000000 1250000 0  0 1300000 0  50000 1300000 0  100000 1300000 0  150000 1300000 0  200000 1300000 0  250000 1300000 0  300000 1300000 0  350000 1300000 0  400000 1300000 0  450000 1300000 0  500000 1300000 0  550000 1300000 0  600000 1300000 0  650000 1300000 0  700000 1300000 0  750000 1300000 0  800000 1300000 0  850000 1300000 0  900000 1300000 0  950000 1300000 0  1000000 1300000 0  0 1350000 0  50000 1350000 0  100000 1350000 0  150000 1350000 0  200000 1350000 0  250000 1350000 0  300000 1350000 0  350000 1350000 0  400000 1350000 0  450000 1350000 0  500000 1350000 0  550000 1350000 0  600000 1350000 0  650000 1350000 0  700000 135
[...]
<PointData  Vectors="f_7489"> 
<DataArray  type="Float64"  Name="f_7489"  NumberOfComponents="3" format="ascii">-2.4586904828864302e-08 -9.8750280098039826e-09 0.0000000000000000e+00  4.8489261960078459e-08 -5.9695838781368889e-09 0.0000000000000000e+00  4.2789582181194178e-08 -1.6927927367895469e-09 0.0000000000000000e+00  4.0363850787987573e-08 -3.5067757388591130e-10 0.0000000000000000e+00  3.9188164324507579e-08 1.0048821194866192e-10 0.0000000000000000e+00  3.8429692745408338e-08 2.7732550777216575e-10 0.0000000000000000e+00  3.7891329023788405e-08 3.4627798917918941e-10 0.0000000000000000e+00  3.7515701438516888e-08 3.6420327496897329e-10 0.0000000000000000e+00  3.7284262692868526e-08 3.5541382967795126e-10 0.0000000000000000e+00  3.7191660709730929e-08 3.3316525710571290e-10 0.0000000000000000e+00  3.7238090005235598e-08 3.0701606637905364e-10 0.0000000000000000e+00  3.7427637820754825e-08 2.8614461088501560e-10 0.0000000000000000e+00  3.7769993249250259e-08 2.8182286693327976e-10 0.0000000000000000e+00  3.8286598440509154e-08 3.1086544660283388e-10 0.0000000000000000e+00  3.9026789231759204e-08 4.0280744233792767e-10 0.0000000000000000e+00  4.0110321259539299e-08 6.1786518557025616e-10 0.0000000000000000e+00  4.1839646631684617e-08 1.0954529507389586e-09 0.0000000000000000e+00  4.4963155264389274e-08 2.1807581437622244e-09 0.0000000000000000e+00  5.0812097128681311e-08 4.6915910501110716e-09 0.0000000000000000e+00  5.8058036448841999e-08 9.1957270953111043e-09 0.0000000000000000e+00  -1.6396047616510729e-08 7.0892729920842604e-09 0.0000000000000000e+00  -1.8363720811303766e-08 -1.5434943994659961e-08 0.0000000000000000e+00  7.1271552997610000e-09 -1.1130823137923500e-08 0.0000000000000000e+00  1.7957387566845662e-08 -5.1990313266603984e-09 0.0000000000000000e+00  2.3040955572151916e-08 -2.3573550891381345e-09 0.0000000000000000e+00  2.5667960663434826e-08 -1.1086298088912805e-09 0.0000000000000000e+00  2.7166294419356190e-08 -5.2130110114066747e-10 0.0000000000000000e+00  2.8048654526549810e-08 -2.2826175963041232e-10 0.0000000000000000e+00  2.8574865464188011e-08 -7.9578361879682776e-11 0.0000000000000000e+00  2.8887821654665306e-08 -6.2123507793365060e-12 0.0000000000000000e+00  2.9067003902788566e-08 2.9231049900880677e-11 0.0000000000000000e+00  2.9153682847288237e-08 5.1319857686314221e-11 0.0000000000000000e+00  2.9162494661149465e-08 8.0469017123052308e-11 0.0000000000000000e+00  2.9085505956372461e-08 1.3869165326453909e-10 0.0000000000000000e+00  2.8890742511506459e-08 2.5621292066973187e-10 0.0000000000000000e+00  2.8514153372268233e-08 4.8329214265004816e-10 0.0000000000000000e+00  2.7838957044813143e-08 9.1619554141164150e-10 0.0000000000000000e+00  2.6640343671236013e-08 1.7581640426638058e-09 0.0000000000000000e+00  2.4408166566374221e-08 3.4552481247517787e-09 0.0000000000000000e+00  1.9700454327283803e-08 6.8978768647508790e-09 0.0000000000000000e+00  8.2727650343917316e-09 1.3050151711743633e-08 0.0000000000000000e+00  -1.8365184832336097e-08 1.1019367430903172e-08 0.0000000000000000e+00  -1.1407282851827021e-08 -1.9051325227235171e-08 0.0000000000000000e+00  -3.3507517338659260e-10 -1.8294183921820534e-08 0.0000000000000000e+00  5.7146482037099131e-09 -1.1352797615297422e-08 0.0000000000000000e+00  1.0570301003444643e-08 -6.6150913088731244e-09 0.0000000000000000e+00  1.4388841024975693e-08 -3.8638804028556490e-09 0.0000000000000000e+00  1.7053947479741453e-08 -2.2954041959181402e-09 0.0000000000000000e+00  1.8845399730688557e-08 -1.3749244891709942e-09 0.0000000000000000e+00  2.0025379844726067e-08 -8.1315251464594443e-10 0.0000000000000000e+00  2.0771850392132239e-08 -4.5156548924729469e-10 0.0000000000000000e+00  2.1194546366284575e-08 -1.9596126242700002e-10 0.0000000000000000e+00  2.1353060648116840e-08 1.7787343566152230e-11 0.0000000000000000e+00  2.1267759467854200e-08 2.4251481644909555e-10 0.0000000000000000e+00  2.0923731482311905e-08 5.3287281683664823e-10 0.0000000000000000e+00  2.0268377779705936e-08 9.5897539499014786e-10 0.0000000000000000e+00  1.9202034205142979e-08 1.6265114551177156e-09 0.0000000000000000e+00  1.7559716523959985e-08 2.7110339044339200e-09 0.0000000000000000e+00  1.5082648597142558e-08 4.5128436994104653e-09 0.0000000000000000e+00  1.1389837612028653e-08 7.5056203370964822e-09 0.0000000000000000e+00  6.0168574641063918e-09 1.2156023621039417e-08 0.0000000000000000e+00  -1.2972437229833379e-09 1.7607687966132553e-08 0.0000000000000000e+00  -1.3207484876959281e-08 1.4762309104800125e-08 0.0000000000000000e+00  -7.7277063248477401e-09 -1.9688386733830737e-08 0.0000000000000000e+00  -1.5970429919862118e-09 -1.9669697200401950e-08 0.0000000000000000e+00  1.0589578668257331e-09 -1.5283386002870700e-08 0.0000000000000000e+00  3.7946902646576776e-09 -1.0487266663558072e-08 0.0000000000000000e+00  6.6717504593411149e-09 -6.9398500100102823e-09 0.0000000000000000e+00  9.1901542281547592e-09 -4.5392872481172839e-09 0.0000000000000000e+00  1.1142165282916437e-08 -2.9392368887102987e-09 0.0000000000000000e+00  1.2546105605663829e-08 -1.8527275629704314e-09 0.0000000000000000e+00  1.3483132943022061e-08 -1.0809991831550519e-09 0.0000000000000000e+00  1.4026300786280100e-08 -4.8686525522721292e-10 0.0000000000000000e+00  1.4222100286388310e-08 3.1882666874196413e-11 0.0000000000000000e+00  1.4087435774300554e-08 5.6240283262959945e-10 0.0000000000000000e+00  1.3609653289263127e-08 1.1927212851451620e-09 0.0000000000000000e+00  1.2746681631625295e-08 2.0272084039826620e-09 0.0000000000000000e+00  1.1428487976627621e-08 3.2041681053264520e-09 0.0000000000000000e+00  9.5660456686738719e-09 4.9139154519466816e-09 0.0000000000000000e+00  7.0846740182410652e-09 7.3995093812626907e-09 0.0000000000000000e+00  4.0158960786901418e-09 1.0869593809455460e-08 0.0000000000000000e+00  6.5426855527145538e-10 1.5131758747104608e-08 0.0000000000000000e+00  -2.6391138166300261e-09 1.8764976349713386e-08 0.0000000000000000e+00  -8.9199050938690706e-09 1.7596751023168183e-08 0.0000000000000000e+00  -5.8762611767874547e-09 -1.9109810278689575e-08 0.0000000000000000e+00  -1.9222715446792967e-09 -1.9376152417042839e-08 0.0000000000000000e+00  -9.5381833002493528e-10 -1.6650458403483255e-08 0.0000000000000000e+00  1.5267990705021267e-10 -1.2834659877742050e-08 0.0000000000000000e+00  1.7657466585392622e-09 -9.3318482421313063e-09 0.0000000000000000e+00  3.5261172852040609e-09 -6.5690231937412089e-09 0.0000000000000000e+00  5.1080420812301406e-09 -4.5017724702720228e-09 0.0000000000000000e+00  6.3629678123096355e-09 -2.9625030118812040e-09 0.0000000000000000e+00  7.2540969384164103e-09 -1.7832318477156895e-09 0.0000000000000000e+00  7.7888485593819239e-09 -8.2186667624588988e-10 0.0000000000000000e+00  7.9820544065758881e-09 4.1202511908320690e-11 0.0000000000000000e+00  7.8406881210140656e-09 9.1364715758783081e-10 0.0000000000000000e+00  7.3595454625533278e-09 1.9024887208104908e-09 0.0000000000000000e+00  6.5237578290495722e-09 3.1243308704784128e-09 0.0000000000000000e+00  5.3193654876060950e-09 4.7119477289225754e-09 0.0000000000000000e+00  3.7579920234678431e-09 6.8086354188899998e-09 0.0000000000000000e+00  1.9249851871433440e-09 9.5269354448600122e-09 0.0000000000000000e+00  4.8075988700787862e-11 1.2823856629848204e-08 0.0000000000000000e+00  -1.5067608375151535e-09 1.6246190615919915e-08 0.0000000000000000e+00  -2.7546501474137498e-09 1.8700860893861595e-08 0.0000000000000000e+00  -6.6519272460213445e-09 1.8573632198695136e-08 0.0000000000000000e+00  -4.8302190157375251e-09 -1.7991013349184018e-08 0.0000000000000000e+00  -2.0895493317699111e-09 -1.8437049427770816e-08 0.0000000000000000e+00  -2.0080866742995435e-09 -1.6638911802059203e-08 0.0000000000000000e+00  -1.9408969428375883e-09 -1.3770285979580547e-08 0.0000000000000000e+00  -1.3653257355652094e-09 -1.0718637005814717e-08 0.0000000000000000e+00  -4.4122038523911999e-10 -7.9910538745748428e-09 0.0000000000000000e+00  5.6510448586021228e-10 -5.7321796267432718e-09 0.0000000000000000e+00  1.4623016552888381e-09 -3.9064347900717978e-09 0.0000000000000000e+00  2.1482725617332770e-09 -2.4127015909274122e-09 0.0000000000000000e+00  2.5784942768335525e-09 -1.1355926322790746e-09 0.0000000000000000e+00  2.7371120456076677e-09 3.8023696233224106e-11 0.0000000000000000e+00  2.6203232411503446e-09 1.2170110212543374e-09 0.0000000000000000e+00  2.2305034005279943e-09 2.5085366077998097e-09 0.0000000000000000e+00  1.5791863406909659e-09 4.0197451132063260e-09 0.0000000000000000e+00  6.9906697700533842e-10 5.8530296091229186e-09 0.0000000000000000e+00  -3.3377322827915542e-10 8.0858294721023783e-09 0.0000000000000000e+00  -1.3705054842343557e-09 1.0720405503620693e-08 0.0000000000000000e+00  -2.1775939490763442e-09 1.3590498856631284e-08 0.0000000000000000e+00  -2.5352167018827669e-09 1.6249578244968749e-08 0.0000000000000000e+00  -2.7343825937510428e-09 1.7987554422479820e-08 0.0000000000000000e+00  -5.3360162037351952e-09 1.8320555881427070e-08 0.0000000000000000e+00  -4.1666133207151107e-09 -1.6573873049317917e-08 0.0000000000000000e+00  -2.2186748363748890e-09 -1.7145890637990541e-08 0.0000000000000000e+00  -2.6637122956344422e-09 -1.5898435302385807e-08 0.0000000000000000e+00  -3.2508834733276308e-09 -1.3736467731539897e-08 0.0000000000000000e+00  -3.4273829280660090e-09 -1.1207513820598317e-08 0.0000000000000000e+00  -3.2157357537815110e-09 -8.7236185510705447e-09 0.0000000000000000e+00  -2.7883635903619574e-09 -6.4883898270460252e-09 0.0000000000000000e+00  -2.3113749073803788e-09 -4.5502283601516562e-09 0.0000000000000000e+00  -1.9009821338541463e-09 -2.8719454712547032e-09 0.0000000000000000e+00  -1.6257114982968368e-09 -1.3773799778070658e-09 0.0000000000000000e+00  -1.5199363262378327e-09 2.4285609167102151e-11 0.0000000000000000e+00  -1.5948887691781596e-09 1.4274958463247805e-09 0.0000000000000000e+00  -1.8433258665716531e-09 2.9248128811506169e-09 0.0000000000000000e+00  -2.2374860808814116e-09 4.6010647397542896e-09 0.0000000000000000e+00  -2.7209723020418729e-09 6.5217167663686200e-09 0.0000000000000000e+00  -3.1969887243830558e-09 8.7095061309183549e-09 0.0000000000000000e+00  -3.5213229652245476e-09 1.1104628607226501e-08 0.0000000000000000e+00  -3.5240976987218785e-09 1.3513477244044070e-08 0.0000000000000000e+00  -3.1226355527766395e-09 1.5579654577469844e-08 0.0000000000000000e+00  -2.7193578723379113e-09 1.6857198375376319e-08 0.0000000000000000e+00  -4.4968782758678003e-09 1.7410333803456916e-08 0.0000000000000000e+00  -3.7095586735598924e-09 -1.4958483570794389e-08 0.0000000000000000e+00  -2.3260763177340525e-09 -1.5622715094290529e-08 0.0000000000000000e+00  -3.1188107246401964e-09 -1.4725896240868667e-08 0.0000000000000000e+00  -4.1313322771304321e-09 -1.3073634641255004e-08 0.0000000000000000e+00  -4.8337160852077832e-09 -1.1013963663237852e-08 0.0000000000000000e+00  -5.1722777353956729e-09 -8.8475389012207179e-09 0.0000000000000000e+00  -5.2406098681425376e-09 -6.7668105682937778e-09 0.0000000000000000e+00  -5.1591389400333195e-09 -4.8556680058530380e-09 0.0000000000000000e+00  -5.0290994959914192e-09 -3.1204560571655184e-09 0.0000000000000000e+00  -4.9203097410213605e-09 -1.5214739796982739e-09 0.0000000000000000e+00  -4.8726194318990775e-09 4.4071586377831753e-12 0.0000000000000000e+00  -4.9002463137407024e-09 1.5291947720291598e-09 0.0000000000000000e+00  -4.9942358236597981e-09 3.1234413435415576e-09 0.0000000000000000e+00  -5.1217176623591715e-09 4.8460271654966336e-09 0.0000000000000000e+00  -5.2228120486936811e-09 6.7303547823047277e-09 0.0000000000000000e+00  -5.2085467753065709e-09 8.7643324033492841e-09 0.0000000000000000e+00  -4.9675708611618494e-09 1.0864921875260545e-08 0.0000000000000000e+00  -4.3981188989119024e-09 1.2856334064702202e-08 0.0000000000000000e+00  -3.5049193119752849e-09 1.4475553521115719e-08 0.0000000000000000e+00  -2.7175018608022624e-09 1.5441229424819501e-08 0.0000000000000000e+00  -3.9255342719770907e-09 1.6118183367199005e-08 0.0000000000000000e+00  -3.3779702730344193e-09 -1.3198814582065032e-08 0.0000000000000000e+00  -2.4145075017825753e-09 -1.3932424703276985e-08 0.0000000000000000e+00  -3.4526175403391310e-09 -1.3273076114915569e-08 0.0000000000000000e+00  -4.7518899831720905e-09 -1.1995952872423824e-08 0.0000000000000000e+00  -5.8193203035713467e-09 -1.0330825316117554e-08 0.0000000000000000e+00  -6.5637337298917319e-09 -8.4900302097686771e-09 0.0000000000000000e+00  -7.0233881721689573e-09 -6.6318229790537165e-09 0.0000000000000000e+00  -7.2747117326099261e-09 -4.8453941040656411e-09 0.0000000000000000e+00  -7.3933388522021501e-09 -3.1601275928158404e-09 0.0000000000000000e+00  -7.4377960369100228e-09 -1.5633491374002527e-09 0.0000000000000000e+00  -7.4444272295873034e-09 -1.7457977224201607e-11 0.0000000000000000e+00  -7.4269542505203061e-09 1.5260616482508963e-09 0.0000000000000000e+00  -7.3770343245065076e-09 3.1148929110597943e-09 0.0000000000000000e+00  -7.2645299020532715e-09 4.7844434747943045e-09 0.0000000000000000e+00  -7.0381748926465466e-09 6.5449443208907173e-09 0.0000000000000000e+00  -6.6293257507328744e-09 8.3666717270769675e-09 0.0000000000000000e+00  -5.9640360303861468e-09 1.0165854290166601e-08 0.0000000000000000e+00  -4.9935021039212671e-09 1.1798719117253426e-08 0.0000000000000000e+00  -3.7713936635205550e-09 1.3077274340560318e-08 0.0000000000000000e+00  -2.7217871681349914e-09 1.3821983058530204e-08 0.0000000000000000e+00  -3.5196032820748476e-09 1.4578800450691001e-08 0.0000000000000000e+00  -3.1302580458948669e-09 -1.1331089350990122e-08 0.0000000000000000e+00  -2.4857090718810624e-09 -1.2117666564154639e-08 0.0000000000000000e+00  -3.7027194779474443e-09 -1.1628716199555240e-08 0.0000000000000000e+00  -5.2002819660993699e-09 -1.0638044131142280e-08 0.0000000000000000e+00  -6.5210322958799363e-09 -9.3029736159603876e-09 0.0000000000000000e+00  -7.5572165896235377e-09 -7.7721351849312890e-09 0.0000000000000000e+00  -8.3111000104295543e-09 -6.1676891981955481e-09 0.0000000000000000e+00  -8.8238815429026841e-09 -4.5698383365085025e-09 0.0000000000000000e+00  -9.1452395120771831e-09 -3.0165024403010377e-09 0.0000000000000000e+00  -9.3179366052261808e-09 -1.5119515869783905e-09 0.0000000000000000e+00  -9.3704477870420562e-09 -3.8367517128003273e-11 0.0000000000000000e+00  -9.3140574561044796e-09 1.4326219556005059e-09 0.0000000000000000e+00  -9.1422571894254200e-09 2.9290943437638180e-09 0.0000000000000000e+00  -8.8315688316469847e-09 4.4682795435834372e-09 0.0000000000000000e+00  -8.3441989945818370e-09 6.0459513241368947e-09 0.0000000000000000e+00  -7.6341511039400557e-09 7.6264109143119751e-09 0.0000000000000000e+00  -6.6597556117040792e-09 9.1355913522445839e-09 0.0000000000000000e+00  -5.4089738035552204e-09 1.0462116867911094e-08 0.0000000000000000e+00  -3.9614872482406022e-09 1.1473615960788895e-08 0.0000000000000000e+00  -2.7264477180433510e-09 1.2054884896467327e-08 0.0000000000000000e+00  -3.2235933581499296e-09 1.2867465169655929e-08 0.0000000000000000e+00  -2.9431821974506071e-09 -9.3827317061064599e-09 0.0000000000000000e+00  -2.5418818485927074e-09 -1.0209934764287742e-08 0.0000000000000000e+00  -3.8905530634915124e-09 -9.8503158631387858e-09 0.0000000000000000e+00  -5.5266867883141282e-09 -9.0880970861366907e-09 0.0000000000000000e+00  -7.0226867437207558e-09 -8.0344083384683839e-09 0.0000000000000000e+00  -8.2645928648980009e-09 -6.7929783724312404e-09 0.0000000000000000e+00  -9.2320919501322446e-09 -5.4547507680824443e-09 0.0000000000000000e+00  -9.9405262593885527e-09 -4.0858674630282188e-09 0.0000000000000000e+00  -1.0417588638654101e-08 -2.7241352877740317e-09 0.0000000000000000e+00  -1.0690576743402048e-08 -1.3825671683193848e-09 0.0000000000000000e+00  -1.0779073838981041e-08 -5.6636443752465937e-11 0.0000000000000000e+00  -1.0691263668852523e-08 1.2671012744495755e-09 0.0000000000000000e+00  -1.0422825454972611e-08 2.6021540940147153e-09 0.0000000000000000e+00  -9.9579382051395915e-09 3.9534475348333154e-09 0.0000000000000000e+00  -9.2725670530829152e-09 5.3092936767962164e-09 0.0000000000000000e+00  -8.3408022146078507e-09 6.6349530009501611e-09 0.0000000000000000e+00  -7.1457718638204857e-09 7.8697189656316581e-09 0.0000000000000000e+00  -5.6997757520567087e-09 8.9303215983808183e-09 0.0000000000000000e+00  -4.0960792845865931e-09 9.7246804780354283e-09 0.0000000000000000e+00  -2.7283714202432696e-09 1.0179610664423835e-08 0.0000000000000000e+00  -3.0050234447933417e-09 1.1032211863607787e-08 0.0000000000000000e+00  -2.8029568513475982e-09 -7.3755892666647553e-09 0.0000000000000000e+00  -2.5855960547404193e-09 -8.2338232866224491e-09 0.0000000000000000e+00  -4.0303869013665781e-09 -7.9778664456906355e-09 0.0000000000000000e+00  -5.7628576998350480e-09 -7.4062917869745596e-09 0.0000000000000000e+00  -7.3786838753958589e-09 -6.5993788227305180e-09 0.0000000000000000e+00  -8.7625272004806898e-09 -5.6289962922359620e-09 0.0000000000000000e+00  -9.8802131345314784e-09 -4.5607752006795022e-09 0.0000000000000000e+00  -1.0729082228593403e-08 -3.4460151094824811e-09 0.0000000000000000e+00  -1.1319943323065677e-08 -2.3177824215967198e-09 0.0000000000000000e+00  -1.1667114406573890e-08 -1.1919516874189472e-09 0.0000000000000000e+00  -1.1782133929245074e-08 -7.1522118843805066e-11 0.0000000000000000e+00  -1.1670213544391489e-08 1.0473755743460831e-09 0.0000000000000000e+00  -1.1329045519645197e-08 2.1688691613068190e-09 0.0000000000000000e+00  -1.0749773380470071e-08 3.2908504606354898e-09 0.0000000000000000e+00  -9.9201511827713572e-09 4.3992689753772394e-09 0.0000000000000000e+00  -8.8301388662509366e-09 5.4641442077503670e-09 0.0000000000000000e+00  -7.4807217192286917e-09 6.4386090496377744e-09 0.0000000000000000e+00  -5.8999684338872187e-09 7.2625098398686732e-09 0.0000000000000000e+00  -4.1882879943093630e-09 7.8730928074100959e-09 0.0000000000000000e+00  -2.7264173121424098e-09 8.2257930826978008e-09 0.0000000000000000e+00  -2.8439302675218760e-09 9.1067796011286029e-09 0.0000000000000000e+00  -2.7011091730991825e-09 -5.3274027585714065e-09 0.0000000000000000e+00  -2.6195035164864791e-09 -6.2089771640559341e-09 0.0000000000000000e+00  -4.1326499962708388e-09 -6.0405146146645591e-09 0.0000000000000000e+00  -5.9304393636673484e-09 -5.6351231012811688e-09 0.0000000000000000e+00  -7.6259202751175314e-09 -5.0513192788473432e-09 0.0000000000000000e+00  -9.1044487063432171e-09 -4.3377454774296578e-09 0.0000000000000000e+00  -1.0323559786332477e-08 -3.5397300931363110e-09 0.0000000000000000e+00  -1.1268625745040072e-08 -2.6945541481102857e-09 0.0000000000000000e+00  -1.1938407994515827e-08 -1.8282713698004324e-09 0.0000000000000000e+00  -1.2337395476948068e-08 -9.5569916285981805e-10 0.0000000000000000e+00  -1.2470733769380167e-08 -8.2855194260289624e-11 0.0000000000000000e+00  -1.2341174094740420e-08 7.8913152631662856e-10 0.0000000000000000e+00  -1.1947991881211801e-08 1.6594748151374841e-09 0.0000000000000000e+00  -1.1287841769979088e-08 2.5232328051166140e-09 0.0000000000000000e+00  -1.0357499222245719e-08 3.3675012331162988e-09 0.0000000000000000e+00  -9.1584742722818914e-09 4.1690284009347860e-09 0.0000000000000000e+00  -7.7039847243274306e-09 4.8940824415348037e-09 0.0000000000000000e+00  -6.0321594537999141e-09 5.5013901052973575e-09 0.0000000000000000e+00  -4.2473241072983864e-09 5.9500786252874264e-09 0.0000000000000000e+00  -2.7205991297489783e-09 6.2161266715592822e-09 0.0000000000000000e+00  -2.7277298074098314e-09 7.1162587697055842e-09 0.0000000000000000e+00  -2.6323883298598463e-09 -3.2527635231326796e-09 0.0000000000000000e+00  -2.6460653204252610e-09 -4.1512775242206360e-09 0.0000000000000000e+00  -4.2051660067117413e-09 -4.0602586504283730e-09 0.0000000000000000e+00  -6.0446147624464040e-09 -3.8055806695600287e-09 0.0000000000000000e+00  -7.7897528271490450e-09 -3.4293555266205060e-09 0.0000000000000000e+00  -9.3273872397288238e-09 -2.9624770369346220e-09 0.0000000000000000e+00  -1.0610387656376514e-08 -2.43363361756828