<?xml version="1.0"?>
<VTKFile type="UnstructuredGrid"  version="0.1"  >
<UnstructuredGrid>
<Piece  NumberOfPoints="651" NumberOfCells="1200">
<Points>
<DataArray  type="Float64"  NumberOfComponents="3"  format="ascii">0 0 0  50000 0 0  100000 0 0  150000 0 0  200000 0 0  250000 0 0  300000 0 0  350000 0 0  400000 0 0  450000 0 0  500000 0 0  550000 0 0  600000 0 0  650000 0 0  700000 0 0  750000 0 0  800000 0 0  850000 0 0  900000 0 0  950000 0 0  1000000 0 0  0 50000 0  50000 50000 0  100000 50000 0  150000 50000 0  200000 50000 0  250000 50000 0  300000 50000 0  350000 50000 0  400000 50000 0  450000 50000 0  500000 50000 0  550000 50000 0  600000 50000 0  650000 50000 0  700000 50000 0  750000 50000 0  800000 50000 0  850000 50000 0  900000 50000 0  950000 50000 0  1000000 50000 0  0 100000 0  50000 100000 0  100000 100000 0  150000 100000 0  200000 100000 0  250000 100000 0  300000 100000 0  350000 100000 0  400000 100000 0  450000 100000 0  500000 100000 0  550000 100000 0  600000 100000 0  650000 100000 0  700000 100000 0  750000 100000 0  800000 100000 0  850000 100000 0  900000 100000 0  950000 100000 0  1000000 100000 0  0 150000 0  50000 150000 0  100000 150000 0  150000 150000 0  200000 150000 0  250000 150000 0  300000 150000 0  350000 150000 0  400000 150000 0  450000 150000 0  500000 150000 0  550000 150000 0  600000 150000 0  650000 150000 0  700000 150000 0  750000 150000 0  800000 150000 0  850000 150000 0  900000 150000 0  950000 150000 0  1000000 150000 0  0 200000 0  50000 200000 0  100000 200000 0  150000 200000 0  200000 200000 0  250000 200000 0  300000 200000 0  350000 200000 0  400000 200000 0  450000 200000 0  500000 200000 0  550000 200000 0  600000 200000 0  650000 200000 0  700000 200000 0  750000 200000 0  800000 200000 0  850000 200000 0  900000 200000 0  950000 200000 0  1000000 200000 0  0 250000 0  50000 250000 0  100000 250000 0  150000 250000 0  200000 250000 0  250000 250000 0  300000 250000 0  350000 250000 0  400000 250000 0  450000 250000 0  500000 250000 0  550000 250000 0  600000 250000 0  650000 250000 0  700000 250000 0  750000 250000 0  800000 250000 0  850000 250000 0  900000 250000 0  950000 250000 0  1000000 250000 0  0 300000 0  50000 300000 0  100000 300000 0  150000 300000 0  200000 300000 0  250000 300000 0  300000 300000 0  350000 300000 0  400000 300000 0  450000 300000 0  500000 300000 0  550000 300000 0  600000 300000 0  650000 300000 0  700000 300000 0  750000 300000 0  800000 300000 0  850000 300000 0  900000 300000 0  950000 300000 0  1000000 300000 0  0 350000 0  50000 350000 0  100000 350000 0  150000 350000 0  200000 350000 0  250000 350000 0  300000 350000 0  350000 350000 0  400000 350000 0  450000 350000 0  500000 350000 0  550000 350000 0  600000 350000 0  650000 350000 0  700000 350000 0  750000 350000 0  800000 350000 0  850000 350000 0  900000 350000 0  950000 350000 0  1000000 350000 0  0 400000 0  50000 400000 0  100000 400000 0  150000 400000 0  200000 400000 0  250000 400000 0  300000 400000 0  350000 400000 0  400000 400000 0  450000 400000 0  500000 400000 0  550000 400000 0  600000 400000 0  650000 400000 0  700000 400000 0  750000 400000 0  800000 400000 0  850000 400000 0  900000 400000 0  950000 400000 0  1000000 400000 0  0 450000 0  50000 450000 0  100000 450000 0  150000 450000 0  200000 450000 0  250000 450000 0  300000 450000 0  350000 450000 0  400000 450000 0  450000 450000 0  500000 450000 0  550000 450000 0  600000 450000 0  650000 450000 0  700000 450000 0  750000 450000 0  800000 450000 0  850000 450000 0  900000 450000 0  950000 450000 0  1000000 450000 0  0 500000 0  50000 500000 0  100000 500000 0  150000 500000 0  200000 500000 0  250000 500000 0  300000 500000 0  350000 500000 0  400000 500000 0  450000 500000 0  500000 500000 0  550000 500000 0  600000 500000 0  650000 500000 0  700000 500000 0  750000 500000 0  800000 500000 0  850000 500000 0  900000 500000 0  950000 500000 0  1000000 500000 0  0 550000 0  50000 550000 0  100000 550000 0  150000 550000 0  200000 550000 0  250000 550000 0  300000 550000 0  350000 550000 0  400000 550000 0  450000 550000 0  500000 550000 0  550000 550000 0  600000 550000 0  650000 550000 0  700000 550000 0  750000 550000 0  800000 550000 0  850000 550000 0  900000 550000 0  950000 550000 0  1000000 550000 0  0 600000 0  50000 600000 0  100000 600000 0  150000 600000 0  200000 600000 0  250000 600000 0  300000 600000 0  350000 600000 0  400000 600000 0  450000 600000 0  500000 600000 0  550000 600000 0  600000 600000 0  650000 600000 0  700000 600000 0  750000 600000 0  800000 600000 0  850000 600000 0  900000 600000 0  950000 600000 0  1000000 600000 0  0 650000 0  50000 650000 0  100000 650000 0  150000 650000 0  200000 650000 0  250000 650000 0  300000 650000 0  350000 650000 0  400000 650000 0  450000 650000 0  500000 650000 0  550000 650000 0  600000 650000 0  650000 650000 0  700000 650000 0  750000 650000 0  800000 650000 0  850000 650000 0  900000 650000 0  950000 650000 0  1000000 650000 0  0 700000 0  50000 700000 0  100000 700000 0  150000 700000 0  200000 700000 0  250000 700000 0  300000 700000 0  350000 700000 0  400000 700000 0  450000 700000 0  500000 700000 0  550000 700000 0  600000 700000 0  650000 700000 0  700000 700000 0  750000 700000 0  800000 700000 0  850000 700000 0  900000 700000 0  950000 700000 0  1000000 700000 0  0 750000 0  50000 750000 0  100000 750000 0  150000 750000 0  200000 750000 0  250000 750000 0  300000 750000 0  350000 750000 0  400000 750000 0  450000 750000 0  500000 750000 0  550000 750000 0  600000 750000 0  650000 750000 0  700000 750000 0  750000 750000 0  800000 750000 0  850000 750000 0  900000 750000 0  950000 750000 0  1000000 750000 0  0 800000 0  50000 800000 0  100000 800000 0  150000 800000 0  200000 800000 0  250000 800000 0  300000 800000 0  350000 800000 0  400000 800000 0  450000 800000 0  500000 800000 0  550000 800000 0  600000 800000 0  650000 800000 0  700000 800000 0  750000 800000 0  800000 800000 0  850000 800000 0  900000 800000 0  950000 800000 0  1000000 800000 0  0 850000 0  50000 850000 0  100000 850000 0  150000 850000 0  200000 850000 0  250000 850000 0  300000 850000 0  350000 850000 0  400000 850000 0  450000 850000 0  500000 850000 0  550000 850000 0  600000 850000 0  650000 850000 0  700000 850000 0  750000 850000 0  800000 850000 0  850000 850000 0  900000 850000 0  950000 850000 0  1000000 850000 0  0 900000 0  50000 900000 0  100000 900000 0  150000 900000 0  200000 900000 0  250000 900000 0  300000 900000 0  350000 900000 0  400000 900000 0  450000 900000 0  500000 900000 0  550000 900000 0  600000 900000 0  650000 900000 0  700000 900000 0  750000 900000 0  800000 900000 0  850000 900000 0  900000 900000 0  950000 900000 0  1000000 900000 0  0 950000 0  50000 950000 0  100000 950000 0  150000 950000 0  200000 950000 0  250000 950000 0  300000 950000 0  350000 950000 0  400000 950000 0  450000 950000 0  500000 950000 0  550000 950000 0  600000 950000 0  650000 950000 0  700000 950000 0  750000 950000 0  800000 950000 0  850000 950000 0  900000 950000 0  950000 950000 0  1000000 950000 0  0 1000000 0  50000 1000000 0  100000 1000000 0  150000 1000000 0  200000 1000000 0  250000 1000000 0  300000 1000000 0  350000 1000000 0  400000 1000000 0  450000 1000000 0  500000 1000000 0  550000 1000000 0  600000 1000000 0  650000 1000000 0  700000 1000000 0  750000 1000000 0  800000 1000000 0  850000 1000000 0  900000 1000000 0  950000 1000000 0  1000000 1000000 0  0 1050000 0  50000 1050000 0  100000 1050000 0  150000 1050000 0  200000 1050000 0  250000 1050000 0  300000 1050000 0  350000 1050000 0  400000 1050000 0  450000 1050000 0  500000 1050000 0  550000 1050000 0  600000 1050000 0  650000 1050000 0  700000 1050000 0  750000 1050000 0  800000 1050000 0  850000 1050000 0  900000 1050000 0  950000 1050000 0  1000000 1050000 0  0 1100000 0  50000 1100000 0  100000 1100000 0  150000 1100000 0  200000 1100000 0  250000 1100000 0  300000 1100000 0  350000 1100000 0  400000 1100000 0  450000 1100000 0  500000 1100000 0  550000 1100000 0  600000 1100000 0  650000 1100000 0  700000 1100000 0  750000 1100000 0  800000 1100000 0  850000 1100000 0  900000 1100000 0  950000 1100000 0  1000000 1100000 0  0 1150000 0  50000 1150000 0  100000 1150000 0  150000 1150000 0  200000 1150000 0  250000 1150000 0  300000 1150000 0  350000 1150000 0  400000 1150000 0  450000 1150000 0  500000 1150000 0  550000 1150000 0  600000 1150000 0  650000 1150000 0  700000 1150000 0  750000 1150000 0  800000 1150000 0  850000 1150000 0  900000 1150000 0  950000 1150000 0  1000000 1150000 0  0 1200000 0  50000 1200000 0  100000 1200000 0  150000 1200000 0  200000 1200000 0  250000 1200000 0  300000 1200000 0  350000 1200000 0  400000 1200000 0  450000 1200000 0  500000 1200000 0  550000 1200000 0  600000 1200000 0  650000 1200000 0  700000 1200000 0  750000 1200000 0  800000 1200000 0  850000 1200000 0  900000 1200000 0  950000 1200000 0  1000000 1200000 0  0 1250000 0  50000 1250000 0  100000 1250000 0  150000 1250000 0  200000 1250000 0  250000 1250000 0  300000 1250000 0  350000 1250000 0  400000 1250000 0  450000 1250000 0  500000 1250000 0  550000 1250000 0  600000 1250000 0  650000 1250000 0  700000 1250000 0  750000 1250000 0  800000 1250000 0  850000 1250000 0  900000 1250000 0  950000 1250000 0  1000000 1250000 0  0 1300000 0  50000 1300000 0  100000 1300000 0  150000 1300000 0  200000 1300000 0  250000 1300000 0  300000 1300000 0  350000 1300000 0  400000 1300000 0  450000 1300000 0  500000 1300000 0  550000 1300000 0  600000 1300000 0  650000 1300000 0  700000 1300000 0  750000 1300000 0  800000 1300000 0  850000 1300000 0  900000 1300000 0  950000 1300000 0  1000000 1300000 0  0 1350000 0  50000 1350000 0  100000 1350000 0  150000 1350000 0  200000 1350000 0  250000 1350000 0  300000 1350000 0  350000 1350000 0  400000 1350000 0  450000 1350000 0  500000 1350000 0  550000 1350000 0  600000 1350000 0  650000 1350000 0  700000 135
[...]
<PointData  Vectors="f_7489"> 
<DataArray  type="Float64"  Name="f_7489"  NumberOfComponents="3" format="ascii">-2.4152799962529976e-08 -1.0990794647491666e-08 0.0000000000000000e+00  4.8889795987987297e-08 -7.0583722823228581e-09 0.0000000000000000e+00  4.3148366326560537e-08 -2.7342776019309773e-09 0.0000000000000000e+00  4.0682186294649496e-08 -1.3504874838317209e-09 0.0000000000000000e+00  3.9463153394455130e-08 -8.6190198373771126e-10 0.0000000000000000e+00  3.8658729281970649e-08 -6.4720390710928432e-10 0.0000000000000000e+00  3.8072455624949790e-08 -5.3707048441265170e-10 0.0000000000000000e+00  3.7648129643780369e-08 -4.7276094859814685e-10 0.0000000000000000e+00  3.7368820098564920e-08 -4.2873867485528253e-10 0.0000000000000000e+00  3.7231119168828833e-08 -3.9120623075063362e-10 0.0000000000000000e+00  3.7237343042190616e-08 -3.5084064938063451e-10 0.0000000000000000e+00  3.7393651972107971e-08 -2.9955846854366422e-10 0.0000000000000000e+00  3.7711450545280898e-08 -2.2805718656928444e-10 0.0000000000000000e+00  3.8213173182012483e-08 -1.2226573879149567e-10 0.0000000000000000e+00  3.8948063149331455e-08 4.4080136493224049e-11 0.0000000000000000e+00  4.0034433466595089e-08 3.2778245296468421e-10 0.0000000000000000e+00  4.1771875461476680e-08 8.6514859724172026e-10 0.0000000000000000e+00  4.4904704180500520e-08 1.9989502930649766e-09 0.0000000000000000e+00  5.0759499737426740e-08 4.5454559661586094e-09 0.0000000000000000e+00  5.8004516708004592e-08 9.0714762799123376e-09 0.0000000000000000e+00  -1.6448953012679338e-08 6.9657841382569395e-09 0.0000000000000000e+00  -1.7893960830486058e-08 -1.6537057288948312e-08 0.0000000000000000e+00  7.4061286695001377e-09 -1.1540570472031847e-08 0.0000000000000000e+00  1.8391077686704732e-08 -5.3382359760092215e-09 0.0000000000000000e+00  2.3440235833315132e-08 -2.4681625894045516e-09 0.0000000000000000e+00  2.5993257688544880e-08 -1.2057238657719744e-09 0.0000000000000000e+00  2.7422623340605093e-08 -6.0884959766761402e-10 0.0000000000000000e+00  2.8240076283546222e-08 -3.0786231381171011e-10 0.0000000000000000e+00  2.8705007364011585e-08 -1.5220252541304055e-10 0.0000000000000000e+00  2.8961467499080465e-08 -7.3009758837717579e-11 0.0000000000000000e+00  2.9090380048850928e-08 -3.3212982809007684e-11 0.0000000000000000e+00  2.9134542154238475e-08 -8.5289008310876000e-12 0.0000000000000000e+00  2.9110042100594087e-08 2.1303131904300824e-11 0.0000000000000000e+00  2.9010092117517086e-08 7.8361682552819256e-11 0.0000000000000000e+00  2.8803316519087573e-08 1.9322681304507395e-10 0.0000000000000000e+00  2.8425521854505256e-08 4.1681415507993386e-10 0.0000000000000000e+00  2.7758948091256174e-08 8.4626034464221132e-10 0.0000000000000000e+00  2.6576977158013655e-08 1.6856874043314093e-09 0.0000000000000000e+00  2.4366593264387588e-08 3.3818629130199604e-09 0.0000000000000000e+00  1.9680131394415704e-08 6.8256990950741695e-09 0.0000000000000000e+00  8.2676086576754024e-09 1.2981040760005672e-08 0.0000000000000000e+00  -1.8416552869675605e-08 1.0897856736552766e-08 0.0000000000000000e+00  -1.0887840689882271e-08 -2.0110028167180483e-08 0.0000000000000000e+00  -1.6868589928183965e-10 -1.8706444767148901e-08 0.0000000000000000e+00  6.0241447040259704e-09 -1.1356876619004953e-08 0.0000000000000000e+00  1.0940321233394519e-08 -6.5330990450068010e-09 0.0000000000000000e+00  1.4747136911154572e-08 -3.7547135345677380e-09 0.0000000000000000e+00  1.7368946630233304e-08 -2.1765185894506073e-09 0.0000000000000000e+00  1.9109265637519647e-08 -1.2534970608948758e-09 0.0000000000000000e+00  2.0238303870619072e-08 -6.9327534394888066e-10 0.0000000000000000e+00  2.0937132675973647e-08 -3.3685948688941783e-10 0.0000000000000000e+00  2.1317196052464613e-08 -9.0293654869482133e-11 0.0000000000000000e+00  2.1439161635548063e-08 1.1031414144861958e-10 0.0000000000000000e+00  2.1324053622967901e-08 3.1786556433018083e-10 0.0000000000000000e+00  2.0957265503259436e-08 5.8753609147738291e-10 0.0000000000000000e+00  2.0286160316064953e-08 9.9048694282847584e-10 0.0000000000000000e+00  1.9210701626493010e-08 1.6339343396681453e-09 0.0000000000000000e+00  1.7565214565170880e-08 2.6952576330935033e-09 0.0000000000000000e+00  1.5089887020557505e-08 4.4765711456472556e-09 0.0000000000000000e+00  1.1402168478848824e-08 7.4529930776503045e-09 0.0000000000000000e+00  6.0348182386144965e-09 1.2091721721616101e-08 0.0000000000000000e+00  -1.2713025808491942e-09 1.7547100127970367e-08 0.0000000000000000e+00  -1.3236884780086844e-08 1.4643015240166839e-08 0.0000000000000000e+00  -7.1659650877484707e-09 -2.0700391983836046e-08 0.0000000000000000e+00  -1.4981996140839360e-09 -2.0211307257921059e-08 0.0000000000000000e+00  1.2256759660249785e-09 -1.5371266287879904e-08 0.0000000000000000e+00  4.0448948506870103e-09 -1.0405262573437664e-08 0.0000000000000000e+00  6.9583574471548659e-09 -6.7909774997659324e-09 0.0000000000000000e+00  9.4727350703485907e-09 -4.3638847261433533e-09 0.0000000000000000e+00  1.1399729572446476e-08 -2.7557246288106303e-09 0.0000000000000000e+00  1.2770045009344369e-08 -1.6711944958897514e-09 0.0000000000000000e+00  1.3671496186197583e-08 -9.0835570478304753e-10 0.0000000000000000e+00  1.4180633748275396e-08 -3.2885749133699842e-10 0.0000000000000000e+00  1.4345813596847014e-08 1.7005802667269147e-10 0.0000000000000000e+00  1.4184895224349203e-08 6.7612894164874028e-10 0.0000000000000000e+00  1.3685623383917683e-08 1.2782952176336247e-09 0.0000000000000000e+00  1.2805969657199735e-08 2.0822934792710136e-09 0.0000000000000000e+00  1.1475715442152558e-08 3.2282218480874149e-09 0.0000000000000000e+00  9.6054855610506341e-09 4.9084650972942800e-09 0.0000000000000000e+00  7.1200587191514322e-09 7.3681850534820032e-09 0.0000000000000000e+00  4.0500087230358941e-09 1.0818003886315366e-08 0.0000000000000000e+00  6.8744147215904375e-10 1.5068042430917960e-08 0.0000000000000000e+00  -2.5990334691342304e-09 1.8720348910511717e-08 0.0000000000000000e+00  -8.9136759091633535e-09 1.7487118589086213e-08 0.0000000000000000e+00  -5.2786103642566071e-09 -2.0076197352993014e-08 0.0000000000000000e+00  -1.8508397739374734e-09 -1.9989675544931217e-08 0.0000000000000000e+00  -8.7532887303619647e-10 -1.6837467249306371e-08 0.0000000000000000e+00  2.9722528958505836e-10 -1.2808174457135285e-08 0.0000000000000000e+00  1.9619089751820533e-09 -9.1970855267237426e-09 0.0000000000000000e+00  3.7436804999416914e-09 -6.3820560105700722e-09 0.0000000000000000e+00  5.3240571587801891e-09 -4.2930448721190662e-09 0.0000000000000000e+00  6.5638867315230900e-09 -2.7497583085306674e-09 0.0000000000000000e+00  7.4332462588335166e-09 -1.5780140118412516e-09 0.0000000000000000e+00  7.9439326113540596e-09 -6.3263211902845357e-10 0.0000000000000000e+00  8.1133951054705108e-09 2.0774047760348040e-10 0.0000000000000000e+00  7.9500941770285594e-09 1.0520937188728048e-09 0.0000000000000000e+00  7.4496132640627699e-09 2.0088159903918812e-09 0.0000000000000000e+00  6.5974559159158831e-09 3.1961438465254312e-09 0.0000000000000000e+00  5.3797981482566559e-09 4.7488019974041623e-09 0.0000000000000000e+00  3.8082441936164547e-09 6.8122980668596241e-09 0.0000000000000000e+00  1.9679215682942797e-09 9.5015703587336533e-09 0.0000000000000000e+00  8.5902906417458364e-11 1.2776435605735619e-08 0.0000000000000000e+00  -1.4735548798741072e-09 1.6188588847366795e-08 0.0000000000000000e+00  -2.7083504042962836e-09 1.8677186052046107e-08 0.0000000000000000e+00  -6.5971367479425413e-09 1.8477227398521875e-08 0.0000000000000000e+00  -4.2004554176015258e-09 -1.8912520708383379e-08 0.0000000000000000e+00  -2.0297600690283915e-09 -1.9075087394964500e-08 0.0000000000000000e+00  -1.9839115025933333e-09 -1.6897739258162033e-08 0.0000000000000000e+00  -1.8745684135644911e-09 -1.3804654138342643e-08 0.0000000000000000e+00  -1.2506939502632798e-09 -1.0618507003728860e-08 0.0000000000000000e+00  -2.9519711170663172e-10 -7.8155153233982459e-09 0.0000000000000000e+00  7.2428005560005475e-10 -5.5187922266926274e-09 0.0000000000000000e+00  1.6208263625517413e-09 -3.6793694447524412e-09 0.0000000000000000e+00  2.2972623918601179e-09 -2.1881971457936293e-09 0.0000000000000000e+00  2.7129684338499052e-09 -9.2522552917614192e-10 0.0000000000000000e+00  2.8548183337297012e-09 2.2558761939003401e-10 0.0000000000000000e+00  2.7207941678173498e-09 1.3752153136037190e-09 0.0000000000000000e+00  2.3143977039531523e-09 2.6326905019926674e-09 0.0000000000000000e+00  1.6478708918856170e-09 4.1070827052260021e-09 0.0000000000000000e+00  7.5436494715949879e-10 5.9029106285340705e-09 0.0000000000000000e+00  -2.8975927342426851e-10 8.0999996746727881e-09 0.0000000000000000e+00  -1.3356051554599032e-09 1.0703359452443149e-08 0.0000000000000000e+00  -2.1498725567590757e-09 1.3550371917674600e-08 0.0000000000000000e+00  -2.5128858705578986e-09 1.6201254032360883e-08 0.0000000000000000e+00  -2.6870194423846683e-09 1.7984820079489533e-08 0.0000000000000000e+00  -5.2210698203067100e-09 1.8236088373527216e-08 0.0000000000000000e+00  -3.5077107022409389e-09 -1.7450861921238751e-08 0.0000000000000000e+00  -2.1634732271902576e-09 -1.7782407467803453e-08 0.0000000000000000e+00  -2.6748507290802515e-09 -1.6200420381385493e-08 0.0000000000000000e+00  -3.2411710611577200e-09 -1.3820106774196832e-08 0.0000000000000000e+00  -3.3796598597636899e-09 -1.1145129504151229e-08 0.0000000000000000e+00  -3.1364281686414671e-09 -8.5699469388500607e-09 0.0000000000000000e+00  -2.6893943255788536e-09 -6.2828623464118724e-09 0.0000000000000000e+00  -2.2041003063326180e-09 -4.3206851260340696e-09 0.0000000000000000e+00  -1.7942573833340237e-09 -2.6381689282531354e-09 0.0000000000000000e+00  -1.5256903353215471e-09 -1.1537459797304950e-09 0.0000000000000000e+00  -1.4304966254265981e-09 2.2710071803615047e-10 0.0000000000000000e+00  -1.5181782627870690e-09 1.6015587501783550e-09 0.0000000000000000e+00  -1.7802270853330900e-09 3.0644981391851120e-09 0.0000000000000000e+00  -2.1879490791676211e-09 4.7029533264263443e-09 0.0000000000000000e+00  -2.6842343693915683e-09 6.5847014997257068e-09 0.0000000000000000e+00  -3.1717343333435569e-09 8.7350517235479544e-09 0.0000000000000000e+00  -3.5058356651903955e-09 1.1097262440065617e-08 0.0000000000000000e+00  -3.5162666493339658e-09 1.3481974673526159e-08 0.0000000000000000e+00  -3.1183880994196503e-09 1.5540689392731488e-08 0.0000000000000000e+00  -2.6740439795648541e-09 1.6870843916165658e-08 0.0000000000000000e+00  -4.3124398090765896e-09 1.7332225949260641e-08 0.0000000000000000e+00  -3.0244061936650980e-09 -1.5790797726297027e-08 0.0000000000000000e+00  -2.2723071362651688e-09 -1.6241768441036178e-08 0.0000000000000000e+00  -3.1544583615581018e-09 -1.5049320031093776e-08 0.0000000000000000e+00  -4.1634294471394235e-09 -1.3191597307866943e-08 0.0000000000000000e+00  -4.8395382393584826e-09 -1.0984185279665864e-08 0.0000000000000000e+00  -5.1512385279350192e-09 -8.7179497481007093e-09 0.0000000000000000e+00  -5.1990195207498889e-09 -6.5752970954144818e-09 0.0000000000000000e+00  -5.1050420164872178e-09 -4.6311416931178051e-09 0.0000000000000000e+00  -4.9700148204065521e-09 -2.8846728148288584e-09 0.0000000000000000e+00  -4.8623638626038942e-09 -1.2908162779535271e-09 0.0000000000000000e+00  -4.8203846679065285e-09 2.1755594594402652e-10 0.0000000000000000e+00  -4.8568758374511517e-09 1.7155494218256743e-09 0.0000000000000000e+00  -4.9616736405703580e-09 3.2763194360883089e-09 0.0000000000000000e+00  -5.1008835718244538e-09 4.9611616238853853e-09 0.0000000000000000e+00  -5.2137345059538882e-09 6.8059372121490313e-09 0.0000000000000000e+00  -5.2104511473542900e-09 8.8012630645304821e-09 0.0000000000000000e+00  -4.9789053742339426e-09 1.0867353005271068e-08 0.0000000000000000e+00  -4.4161831817992101e-09 1.2832960957599004e-08 0.0000000000000000e+00  -3.5227128670945743e-09 1.4443455458016955e-08 0.0000000000000000e+00  -2.6757427049137979e-09 1.5463334270545561e-08 0.0000000000000000e+00  -3.6653341998815075e-09 1.6037680641424542e-08 0.0000000000000000e+00  -2.6696791896119358e-09 -1.3985710941370356e-08 0.0000000000000000e+00  -2.3610088413926435e-09 -1.4523074739433524e-08 0.0000000000000000e+00  -3.5066060267543092e-09 -1.3602048528933663e-08 0.0000000000000000e+00  -4.8159345163322160e-09 -1.2134478084201485e-08 0.0000000000000000e+00  -5.8680334591335843e-09 -1.0325572550060188e-08 0.0000000000000000e+00  -6.5921651359800878e-09 -8.3820931406991755e-09 0.0000000000000000e+00  -7.0335728261918070e-09 -6.4559152508430305e-09 0.0000000000000000e+00  -7.2715385089740236e-09 -4.6296895115952543e-09 0.0000000000000000e+00  -7.3824933194160768e-09 -2.9269438643564042e-09 0.0000000000000000e+00  -7.4246626560118167e-09 -1.3301637631465470e-09 0.0000000000000000e+00  -7.4335759473794739e-09 2.0213528761997651e-10 0.0000000000000000e+00  -7.4219559464102341e-09 1.7216297038899123e-09 0.0000000000000000e+00  -7.3804285990987320e-09 3.2787108925673256e-09 0.0000000000000000e+00  -7.2778404844710318e-09 4.9112905416803821e-09 0.0000000000000000e+00  -7.0619204717842027e-09 6.6321169042303699e-09 0.0000000000000000e+00  -6.6629970561162939e-09 8.4142120871342427e-09 0.0000000000000000e+00  -6.0059603913932204e-09 1.0177078291622615e-08 0.0000000000000000e+00  -5.0400802349398683e-09 1.1781466687866393e-08 0.0000000000000000e+00  -3.8123837180542537e-09 1.3047677960035922e-08 0.0000000000000000e+00  -2.6838146967648552e-09 1.3842539818254274e-08 0.0000000000000000e+00  -3.1809237824558452e-09 1.4485324150141076e-08 0.0000000000000000e+00  -2.4023743364068260e-09 -1.2071264465059799e-08 0.0000000000000000e+00  -2.4323261647871472e-09 -1.2671876108246459e-08 0.0000000000000000e+00  -3.7714352401494677e-09 -1.1951418660894750e-08 0.0000000000000000e+00  -5.2896065163156620e-09 -1.0785655105113244e-08 0.0000000000000000e+00  -6.6043913597101456e-09 -9.3138441872846920e-09 0.0000000000000000e+00  -7.6270505722943983e-09 -7.6813213044062233e-09 0.0000000000000000e+00  -8.3664335192404737e-09 -6.0062053921443661e-09 0.0000000000000000e+00  -8.8670076080317352e-09 -4.3640797421317158e-09 0.0000000000000000e+00  -9.1800186145588530e-09 -2.7883141459495707e-09 0.0000000000000000e+00  -9.3487092988180580e-09 -1.2791029869424135e-09 0.0000000000000000e+00  -9.4013607746035701e-09 1.8486383959930008e-10 0.0000000000000000e+00  -9.3486713098787874e-09 1.6349400639237937e-09 0.0000000000000000e+00  -9.1833210949746197e-09 3.1018306007891957e-09 0.0000000000000000e+00  -8.8808765246511889e-09 4.6052181904189057e-09 0.0000000000000000e+00  -8.4024675831871172e-09 6.1433359578435701e-09 0.0000000000000000e+00  -7.7008717734544848e-09 7.6831431336038478e-09 0.0000000000000000e+00  -6.7328922953503146e-09 9.1536948101364490e-09 0.0000000000000000e+00  -5.4838380585787168e-09 1.0447847869652626e-08 0.0000000000000000e+00  -4.0245614985159599e-09 1.1440968662514717e-08 0.0000000000000000e+00  -2.6915709853003892e-09 1.2062983310407762e-08 0.0000000000000000e+00  -2.8073238876812547e-09 1.2749964992907567e-08 0.0000000000000000e+00  -2.1998610972057308e-09 -1.0074402737008397e-08 0.0000000000000000e+00  -2.4889663529324405e-09 -1.0721494870536986e-08 0.0000000000000000e+00  -3.9717222255770771e-09 -1.0157840794882708e-08 0.0000000000000000e+00  -5.6365279147614809e-09 -9.2356203647523771e-09 0.0000000000000000e+00  -7.1341579418900949e-09 -8.0538383342073894e-09 0.0000000000000000e+00  -8.3686209954215788e-09 -6.7142282096890963e-09 0.0000000000000000e+00  -9.3256854897707182e-09 -5.3051427706001591e-09 0.0000000000000000e+00  -1.0024018442973409e-08 -3.8895167418316273e-09 0.0000000000000000e+00  -1.0493271544481074e-08 -2.5017531461067290e-09 0.0000000000000000e+00  -1.0761722001741134e-08 -1.1516091282438397e-09 0.0000000000000000e+00  -1.0849216056582164e-08 1.6839135161385444e-10 0.0000000000000000e+00  -1.0763692231715929e-08 1.4743242225988463e-09 0.0000000000000000e+00  -1.0500222236004746e-08 2.7820874169960679e-09 0.0000000000000000e+00  -1.0042100862613382e-08 4.0988729610845089e-09 0.0000000000000000e+00  -9.3641653208368418e-09 5.4152723199448532e-09 0.0000000000000000e+00  -8.4391078574900964e-09 6.6989898241866116e-09 0.0000000000000000e+00  -7.2482095278550039e-09 7.8921367547941256e-09 0.0000000000000000e+00  -5.8004918488675718e-09 8.9151763307707324e-09 0.0000000000000000e+00  -4.1784675202386251e-09 9.6828779736150550e-09 0.0000000000000000e+00  -2.6953488216368084e-09 1.0164464416811625e-08 0.0000000000000000e+00  -2.5153185878100593e-09 1.0880313120029928e-08 0.0000000000000000e+00  -2.0491093735925981e-09 -8.0166183766305089e-09 0.0000000000000000e+00  -2.5337419938069465e-09 -8.6978064295541879e-09 0.0000000000000000e+00  -4.1223620014316760e-09 -8.2635089585652437e-09 0.0000000000000000e+00  -5.8894743581262112e-09 -7.5466380151641332e-09 0.0000000000000000e+00  -7.5127803354532558e-09 -6.6211018559024651e-09 0.0000000000000000e+00  -8.8941879295667955e-09 -5.5576011995337087e-09 0.0000000000000000e+00  -1.0005159191531646e-08 -4.4200960891830047e-09 0.0000000000000000e+00  -1.0846263914105037e-08 -3.2577034552737958e-09 0.0000000000000000e+00  -1.1430430345787999e-08 -2.1010414026600173e-09 0.0000000000000000e+00  -1.1773241474351546e-08 -9.6351642411036094e-10 0.0000000000000000e+00  -1.1886799623025143e-08 1.5421538590899390e-10 0.0000000000000000e+00  -1.1776317660854595e-08 1.2581973510473606e-09 0.0000000000000000e+00  -1.1439037447526133e-08 2.3545905807965509e-09 0.0000000000000000e+00  -1.0865274033918809e-08 3.4432511386228140e-09 0.0000000000000000e+00  -1.0041606872537564e-08 4.5121170579925700e-09 0.0000000000000000e+00  -8.9564491429980859e-09 5.5333270466350821e-09 0.0000000000000000e+00  -7.6086733102866599e-09 6.4624106069341769e-09 0.0000000000000000e+00  -6.0225667397252459e-09 7.2423137000355046e-09 0.0000000000000000e+00  -4.2861842733503784e-09 7.8160451571206327e-09 0.0000000000000000e+00  -2.6938034136997808e-09 8.1775495491065540e-09 0.0000000000000000e+00  -2.2875860809336531e-09 8.9116044121832606e-09 0.0000000000000000e+00  -1.9425214130682121e-09 -5.9154678377079734e-09 0.0000000000000000e+00  -2.5693872901614591e-09 -6.6215102957383770e-09 0.0000000000000000e+00  -4.2339668615604002e-09 -6.2993594143329326e-09 0.0000000000000000e+00  -6.0705207646375802e-09 -5.7630658788361129e-09 0.0000000000000000e+00  -7.7776748962842145e-09 -5.0705124713356925e-09 0.0000000000000000e+00  -9.2575395089923033e-09 -4.2698068457415286e-09 0.0000000000000000e+00  -1.0472945836108004e-08 -3.4052407297640627e-09 0.0000000000000000e+00  -1.1412355521334587e-08 -2.5126815412983190e-09 0.0000000000000000e+00  -1.2076681994554457e-08 -1.6165289043098249e-09 0.0000000000000000e+00  -1.2471817876564056e-08 -7.2985835105947081e-10 0.0000000000000000e+00  -1.2603647507023837e-08 1.4303482785567631e-10 0.0000000000000000e+00  -1.2475079362546957e-08 1.0026771965543802e-09 0.0000000000000000e+00  -1.2085040193669426e-08 1.8498757366911507e-09 0.0000000000000000e+00  -1.1429385044664520e-08 2.6812591971305705e-09 0.0000000000000000e+00  -1.0503664352558960e-08 3.4855300634932320e-09 0.0000000000000000e+00  -9.3077125555371171e-09 4.2411454395794216e-09 0.0000000000000000e+00  -7.8524236968770714e-09 4.9162732206802385e-09 0.0000000000000000e+00  -6.1717670495498441e-09 5.4720446325630892e-09 0.0000000000000000e+00  -4.3564500729272684e-09 5.8721863613545712e-09 0.0000000000000000e+00  -2.6870224637294880e-09 6.1264275737462357e-09 0.0000000000000000e+00  -2.1134215467092551e-09 6.8708908546224076e-09 0.0000000000000000e+00  -1.8758054376044336e-09 -3.7855802034853124e-09 0.0000000000000000e+00  -2.5983300956561629e-09 -4.5095121671155948e-09 0.0000000000000000e+00  -4.3142469361964789e-09 -4.2889590294565838e-09 0.0000000000000000e+00  -6.1948790339007704e-09 -3.9175817981631278e-09 0.0000000000000000e+00  -7.9543313089396463e-09 -3.4426482404508224e-09 0.0000000000000000e+00  -9.4958077615538109e-09 -2.8951171872274568e-09 0.0000000000000000e+00  -1.0777233516916819e-08 -2.3031488