<?xml version="1.0"?>
<VTKFile type="UnstructuredGrid"  version="0.1"  >
<UnstructuredGrid>
<Piece  NumberOfPoints="651" NumberOfCells="1200">
<Points>
<DataArray  type="Float64"  NumberOfComponents="3"  format="ascii">0 0 0  50000 0 0  100000 0 0  150000 0 0  200000 0 0  250000 0 0  300000 0 0  350000 0 0  400000 0 0  450000 0 0  500000 0 0  550000 0 0  600000 0 0  650000 0 0  700000 0 0  750000 0 0  800000 0 0  850000 0 0  900000 0 0  950000 0 0  1000000 0 0  0 50000 0  50000 50000 0  100000 50000 0  150000 50000 0  200000 50000 0  250000 50000 0  300000 50000 0  350000 50000 0  400000 50000 0  450000 50000 0  500000 50000 0  550000 50000 0  600000 50000 0  650000 50000 0  700000 50000 0  750000 50000 0  800000 50000 0  850000 50000 0  900000 50000 0  950000 50000 0  1000000 50000 0  0 100000 0  50000 100000 0  100000 100000 0  150000 100000 0  200000 100000 0  250000 100000 0  300000 100000 0  350000 100000 0  400000 100000 0  450000 100000 0  500000 100000 0  550000 100000 0  600000 100000 0  650000 100000 0  700000 100000 0  750000 100000 0  800000 100000 0  850000 100000 0  900000 100000 0  950000 100000 0  1000000 100000 0  0 150000 0  50000 150000 0  100000 150000 0  150000 150000 0  200000 150000 0  250000 150000 0  300000 150000 0  350000 150000 0  400000 150000 0  450000 150000 0  500000 150000 0  550000 150000 0  600000 150000 0  650000 150000 0  700000 150000 0  750000 150000 0  800000 150000 0  850000 150000 0  900000 150000 0  950000 150000 0  1000000 150000 0  0 200000 0  50000 200000 0  100000 200000 0  150000 200000 0  200000 200000 0  250000 200000 0  300000 200000 0  350000 200000 0  400000 200000 0  450000 200000 0  500000 200000 0  550000 200000 0  600000 200000 0  650000 200000 0  700000 200000 0  750000 200000 0  800000 200000 0  850000 200000 0  900000 200000 0  950000 200000 0  1000000 200000 0  0 250000 0  50000 250000 0  100000 250000 0  150000 250000 0  200000 250000 0  250000 250000 0  300000 250000 0  350000 250000 0  400000 250000 0  450000 250000 0  500000 250000 0  550000 250000 0  600000 250000 0  650000 250000 0  700000 250000 0  750000 250000 0  800000 250000 0  850000 250000 0  900000 250000 0  950000 250000 0  1000000 250000 0  0 300000 0  50000 300000 0  100000 300000 0  150000 300000 0  200000 300000 0  250000 300000 0  300000 300000 0  350000 300000 0  400000 300000 0  450000 300000 0  500000 300000 0  550000 300000 0  600000 300000 0  650000 300000 0  700000 300000 0  750000 300000 0  800000 300000 0  850000 300000 0  900000 300000 0  950000 300000 0  1000000 300000 0  0 350000 0  50000 350000 0  100000 350000 0  150000 350000 0  200000 350000 0  250000 350000 0  300000 350000 0  350000 350000 0  400000 350000 0  450000 350000 0  500000 350000 0  550000 350000 0  600000 350000 0  650000 350000 0  700000 350000 0  750000 350000 0  800000 350000 0  850000 350000 0  900000 350000 0  950000 350000 0  1000000 350000 0  0 400000 0  50000 400000 0  100000 400000 0  150000 400000 0  200000 400000 0  250000 400000 0  300000 400000 0  350000 400000 0  400000 400000 0  450000 400000 0  500000 400000 0  550000 400000 0  600000 400000 0  650000 400000 0  700000 400000 0  750000 400000 0  800000 400000 0  850000 400000 0  900000 400000 0  950000 400000 0  1000000 400000 0  0 450000 0  50000 450000 0  100000 450000 0  150000 450000 0  200000 450000 0  250000 450000 0  300000 450000 0  350000 450000 0  400000 450000 0  450000 450000 0  500000 450000 0  550000 450000 0  600000 450000 0  650000 450000 0  700000 450000 0  750000 450000 0  800000 450000 0  850000 450000 0  900000 450000 0  950000 450000 0  1000000 450000 0  0 500000 0  50000 500000 0  100000 500000 0  150000 500000 0  200000 500000 0  250000 500000 0  300000 500000 0  350000 500000 0  400000 500000 0  450000 500000 0  500000 500000 0  550000 500000 0  600000 500000 0  650000 500000 0  700000 500000 0  750000 500000 0  800000 500000 0  850000 500000 0  900000 500000 0  950000 500000 0  1000000 500000 0  0 550000 0  50000 550000 0  100000 550000 0  150000 550000 0  200000 550000 0  250000 550000 0  300000 550000 0  350000 550000 0  400000 550000 0  450000 550000 0  500000 550000 0  550000 550000 0  600000 550000 0  650000 550000 0  700000 550000 0  750000 550000 0  800000 550000 0  850000 550000 0  900000 550000 0  950000 550000 0  1000000 550000 0  0 600000 0  50000 600000 0  100000 600000 0  150000 600000 0  200000 600000 0  250000 600000 0  300000 600000 0  350000 600000 0  400000 600000 0  450000 600000 0  500000 600000 0  550000 600000 0  600000 600000 0  650000 600000 0  700000 600000 0  750000 600000 0  800000 600000 0  850000 600000 0  900000 600000 0  950000 600000 0  1000000 600000 0  0 650000 0  50000 650000 0  100000 650000 0  150000 650000 0  200000 650000 0  250000 650000 0  300000 650000 0  350000 650000 0  400000 650000 0  450000 650000 0  500000 650000 0  550000 650000 0  600000 650000 0  650000 650000 0  700000 650000 0  750000 650000 0  800000 650000 0  850000 650000 0  900000 650000 0  950000 650000 0  1000000 650000 0  0 700000 0  50000 700000 0  100000 700000 0  150000 700000 0  200000 700000 0  250000 700000 0  300000 700000 0  350000 700000 0  400000 700000 0  450000 700000 0  500000 700000 0  550000 700000 0  600000 700000 0  650000 700000 0  700000 700000 0  750000 700000 0  800000 700000 0  850000 700000 0  900000 700000 0  950000 700000 0  1000000 700000 0  0 750000 0  50000 750000 0  100000 750000 0  150000 750000 0  200000 750000 0  250000 750000 0  300000 750000 0  350000 750000 0  400000 750000 0  450000 750000 0  500000 750000 0  550000 750000 0  600000 750000 0  650000 750000 0  700000 750000 0  750000 750000 0  800000 750000 0  850000 750000 0  900000 750000 0  950000 750000 0  1000000 750000 0  0 800000 0  50000 800000 0  100000 800000 0  150000 800000 0  200000 800000 0  250000 800000 0  300000 800000 0  350000 800000 0  400000 800000 0  450000 800000 0  500000 800000 0  550000 800000 0  600000 800000 0  650000 800000 0  700000 800000 0  750000 800000 0  800000 800000 0  850000 800000 0  900000 800000 0  950000 800000 0  1000000 800000 0  0 850000 0  50000 850000 0  100000 850000 0  150000 850000 0  200000 850000 0  250000 850000 0  300000 850000 0  350000 850000 0  400000 850000 0  450000 850000 0  500000 850000 0  550000 850000 0  600000 850000 0  650000 850000 0  700000 850000 0  750000 850000 0  800000 850000 0  850000 850000 0  900000 850000 0  950000 850000 0  1000000 850000 0  0 900000 0  50000 900000 0  100000 900000 0  150000 900000 0  200000 900000 0  250000 900000 0  300000 900000 0  350000 900000 0  400000 900000 0  450000 900000 0  500000 900000 0  550000 900000 0  600000 900000 0  650000 900000 0  700000 900000 0  750000 900000 0  800000 900000 0  850000 900000 0  900000 900000 0  950000 900000 0  1000000 900000 0  0 950000 0  50000 950000 0  100000 950000 0  150000 950000 0  200000 950000 0  250000 950000 0  300000 950000 0  350000 950000 0  400000 950000 0  450000 950000 0  500000 950000 0  550000 950000 0  600000 950000 0  650000 950000 0  700000 950000 0  750000 950000 0  800000 950000 0  850000 950000 0  900000 950000 0  950000 950000 0  1000000 950000 0  0 1000000 0  50000 1000000 0  100000 1000000 0  150000 1000000 0  200000 1000000 0  250000 1000000 0  300000 1000000 0  350000 1000000 0  400000 1000000 0  450000 1000000 0  500000 1000000 0  550000 1000000 0  600000 1000000 0  650000 1000000 0  700000 1000000 0  750000 1000000 0  800000 1000000 0  850000 1000000 0  900000 1000000 0  950000 1000000 0  1000000 1000000 0  0 1050000 0  50000 1050000 0  100000 1050000 0  150000 1050000 0  200000 1050000 0  250000 1050000 0  300000 1050000 0  350000 1050000 0  400000 1050000 0  450000 1050000 0  500000 1050000 0  550000 1050000 0  600000 1050000 0  650000 1050000 0  700000 1050000 0  750000 1050000 0  800000 1050000 0  850000 1050000 0  900000 1050000 0  950000 1050000 0  1000000 1050000 0  0 1100000 0  50000 1100000 0  100000 1100000 0  150000 1100000 0  200000 1100000 0  250000 1100000 0  300000 1100000 0  350000 1100000 0  400000 1100000 0  450000 1100000 0  500000 1100000 0  550000 1100000 0  600000 1100000 0  650000 1100000 0  700000 1100000 0  750000 1100000 0  800000 1100000 0  850000 1100000 0  900000 1100000 0  950000 1100000 0  1000000 1100000 0  0 1150000 0  50000 1150000 0  100000 1150000 0  150000 1150000 0  200000 1150000 0  250000 1150000 0  300000 1150000 0  350000 1150000 0  400000 1150000 0  450000 1150000 0  500000 1150000 0  550000 1150000 0  600000 1150000 0  650000 1150000 0  700000 1150000 0  750000 1150000 0  800000 1150000 0  850000 1150000 0  900000 1150000 0  950000 1150000 0  1000000 1150000 0  0 1200000 0  50000 1200000 0  100000 1200000 0  150000 1200000 0  200000 1200000 0  250000 1200000 0  300000 1200000 0  350000 1200000 0  400000 1200000 0  450000 1200000 0  500000 1200000 0  550000 1200000 0  600000 1200000 0  650000 1200000 0  700000 1200000 0  750000 1200000 0  800000 1200000 0  850000 1200000 0  900000 1200000 0  950000 1200000 0  1000000 1200000 0  0 1250000 0  50000 1250000 0  100000 1250000 0  150000 1250000 0  200000 1250000 0  250000 1250000 0  300000 1250000 0  350000 1250000 0  400000 1250000 0  450000 1250000 0  500000 1250000 0  550000 1250000 0  600000 1250000 0  650000 1250000 0  700000 1250000 0  750000 1250000 0  800000 1250000 0  850000 1250000 0  900000 1250000 0  950000 1250000 0  1000000 1250000 0  0 1300000 0  50000 1300000 0  100000 1300000 0  150000 1300000 0  200000 1300000 0  250000 1300000 0  300000 1300000 0  350000 1300000 0  400000 1300000 0  450000 1300000 0  500000 1300000 0  550000 1300000 0  600000 1300000 0  650000 1300000 0  700000 1300000 0  750000 1300000 0  800000 1300000 0  850000 1300000 0  900000 1300000 0  950000 1300000 0  1000000 1300000 0  0 1350000 0  50000 1350000 0  100000 1350000 0  150000 1350000 0  200000 1350000 0  250000 1350000 0  300000 1350000 0  350000 1350000 0  400000 1350000 0  450000 1350000 0  500000 1350000 0  550000 1350000 0  600000 1350000 0  650000 1350000 0  700000 135
[...]
<PointData  Vectors="f_7489"> 
<DataArray  type="Float64"  Name="f_7489"  NumberOfComponents="3" format="ascii">-2.4334285552995610e-08 -1.0499489854253512e-08 0.0000000000000000e+00  4.8713538623595715e-08 -6.5754981856053642e-09 0.0000000000000000e+00  4.2977497764713247e-08 -2.2641793662314204e-09 0.0000000000000000e+00  4.0520068675982992e-08 -8.8997965662641428e-10 0.0000000000000000e+00  3.9313810710864681e-08 -4.0948542324284653e-10 0.0000000000000000e+00  3.8525844458459627e-08 -2.0362286562124305e-10 0.0000000000000000e+00  3.7959262305514401e-08 -1.0461418584211571e-10 0.0000000000000000e+00  3.7557144980391359e-08 -5.4919568854788656e-11 0.0000000000000000e+00  3.7301568773692355e-08 -2.9936360095909499e-11 0.0000000000000000e+00  3.7187875039182141e-08 -1.6470114430842906e-11 0.0000000000000000e+00  3.7216921914412843e-08 -5.3695255336690571e-12 0.0000000000000000e+00  3.7393316904101333e-08 1.1809949439023855e-11 0.0000000000000000e+00  3.7727002913943056e-08 4.5332381055542811e-11 0.0000000000000000e+00  3.8239295839974662e-08 1.1082483960684612e-10 0.0000000000000000e+00  3.8978948229918164e-08 2.3658685949285208e-10 0.0000000000000000e+00  4.0064662014790161e-08 4.8169809402729525e-10 0.0000000000000000e+00  4.1797428531242664e-08 9.8465912004969866e-10 0.0000000000000000e+00  4.4923902980697957e-08 2.0900217924917088e-09 0.0000000000000000e+00  5.0773603005830847e-08 4.6152119007891452e-09 0.0000000000000000e+00  5.8017337841780854e-08 9.1278536144954010e-09 0.0000000000000000e+00  -1.6437510300961223e-08 7.0207521685406844e-09 0.0000000000000000e+00  -1.8087073111520939e-08 -1.6044492795209998e-08 0.0000000000000000e+00  7.2753965673189026e-09 -1.1344076995383735e-08 0.0000000000000000e+00  1.8185148177642524e-08 -5.2615993029711690e-09 0.0000000000000000e+00  2.3243057415218175e-08 -2.4063735062886602e-09 0.0000000000000000e+00  2.5824098656350788e-08 -1.1519528568932224e-09 0.0000000000000000e+00  2.7281880281882457e-08 -5.6115847053729306e-10 0.0000000000000000e+00  2.8128280871742700e-08 -2.6548522618890681e-10 0.0000000000000000e+00  2.8622515044427125e-08 -1.1461711911864060e-10 0.0000000000000000e+00  2.8907727073950674e-08 -3.9562020292972671e-11 0.0000000000000000e+00  2.9063734798107983e-08 -3.0212012608331240e-12 0.0000000000000000e+00  2.9132121132918443e-08 1.9526492441493270e-11 0.0000000000000000e+00  2.9127746436232628e-08 4.8528138087821227e-11 0.0000000000000000e+00  2.9042730303321612e-08 1.0612369353794104e-10 0.0000000000000000e+00  2.8844913154997421e-08 2.2275614314610601e-10 0.0000000000000000e+00  2.8469790933372556e-08 4.4895934505574256e-10 0.0000000000000000e+00  2.7799882483829636e-08 8.8125787709550787e-10 0.0000000000000000e+00  2.6609486814933717e-08 1.7230265815114642e-09 0.0000000000000000e+00  2.4387255234523005e-08 3.4202640364181410e-09 0.0000000000000000e+00  1.9688658025149095e-08 6.8632115512459851e-09 0.0000000000000000e+00  8.2665041700820945e-09 1.3014945364924146e-08 0.0000000000000000e+00  -1.8405335506235593e-08 1.0953015013436026e-08 0.0000000000000000e+00  -1.1099039067172853e-08 -1.9622902912729135e-08 0.0000000000000000e+00  -2.5121843980705135e-10 -1.8501556225876668e-08 0.0000000000000000e+00  5.8702575789997859e-09 -1.1334465080403579e-08 0.0000000000000000e+00  1.0755941952290102e-08 -6.5538090370549334e-09 0.0000000000000000e+00  1.4565566757377628e-08 -3.7928040591826834e-09 0.0000000000000000e+00  1.7205635669763117e-08 -2.2240774077643519e-09 0.0000000000000000e+00  1.8969201819730158e-08 -1.3069870947242375e-09 0.0000000000000000e+00  2.0122681575728845e-08 -7.5036326273753048e-10 0.0000000000000000e+00  2.0845431296418813e-08 -3.9525118682085289e-10 0.0000000000000000e+00  2.1247775486982555e-08 -1.4739759237201808e-10 0.0000000000000000e+00  2.1389545015203327e-08 5.7387465128192676e-11 0.0000000000000000e+00  2.1291136841799808e-08 2.7213698709868984e-10 0.0000000000000000e+00  2.0937523192730418e-08 5.5186990769330790e-10 0.0000000000000000e+00  2.0275869332519734e-08 9.6721707441865394e-10 0.0000000000000000e+00  1.9206175025234795e-08 1.6244651502017845e-09 0.0000000000000000e+00  1.7563031809038315e-08 2.6997297112721321e-09 0.0000000000000000e+00  1.5087128484099115e-08 4.4936920568159019e-09 0.0000000000000000e+00  1.1396703555352180e-08 7.4800987155124736e-09 0.0000000000000000e+00  6.0258199226917961e-09 1.2125191693361819e-08 0.0000000000000000e+00  -1.2870867339459283e-09 1.7577439031946764e-08 0.0000000000000000e+00  -1.3238727590407365e-08 1.4700022689610964e-08 0.0000000000000000e+00  -7.3940153338903480e-09 -2.0221112528530360e-08 0.0000000000000000e+00  -1.5507144124215517e-09 -1.9941523144310238e-08 0.0000000000000000e+00  1.1338893627789039e-09 -1.5307872255582993e-08 0.0000000000000000e+00  3.9130844906743117e-09 -1.0423585129361939e-08 0.0000000000000000e+00  6.8093503556654948e-09 -6.8459582359755056e-09 0.0000000000000000e+00  9.3257248792438764e-09 -4.4373999128024972e-09 0.0000000000000000e+00  1.1265102174244610e-08 -2.8389991465953093e-09 0.0000000000000000e+00  1.2652471574158406e-08 -1.7589153448474791e-09 0.0000000000000000e+00  1.3572425407715740e-08 -9.9642172758496432e-10 0.0000000000000000e+00  1.4099685169801940e-08 -4.1349545692616894e-10 0.0000000000000000e+00  1.4281525330934556e-08 9.2547059531197962e-11 0.0000000000000000e+00  1.4135171424554855e-08 6.0930306537528963e-10 0.0000000000000000e+00  1.3648035201096291e-08 1.2253233222501426e-09 0.0000000000000000e+00  1.2777966223675943e-08 2.0456071222057970e-09 0.0000000000000000e+00  1.1454765220682326e-08 3.2091445397853325e-09 0.0000000000000000e+00  9.5891655401184422e-09 4.9069030673135431e-09 0.0000000000000000e+00  7.1061294994778257e-09 7.3824544207991616e-09 0.0000000000000000e+00  4.0365505808177567e-09 1.0844784646203538e-08 0.0000000000000000e+00  6.7334477267020770e-10 1.5102079476760370e-08 0.0000000000000000e+00  -2.6210470598029493e-09 1.8743912391384207e-08 0.0000000000000000e+00  -8.9363343229041684e-09 1.7542306598753714e-08 0.0000000000000000e+00  -5.5225020880846876e-09 -1.9604800707753846e-08 0.0000000000000000e+00  -1.8908902804792679e-09 -1.9679654530363701e-08 0.0000000000000000e+00  -9.2819273770725343e-10 -1.6726451074481320e-08 0.0000000000000000e+00  2.1225426833061222e-10 -1.2800334313606752e-08 0.0000000000000000e+00  1.8536002868159460e-09 -9.2457247976582241e-09 0.0000000000000000e+00  3.6267891678177072e-09 -6.4617902896875653e-09 0.0000000000000000e+00  5.2096938723531813e-09 -4.3894997193794323e-09 0.0000000000000000e+00  6.4587034240260588e-09 -2.8539505480610289e-09 0.0000000000000000e+00  7.3405911175610813e-09 -1.6835216972615354e-09 0.0000000000000000e+00  7.8649867406104391e-09 -7.3424274969268026e-10 0.0000000000000000e+00  8.0479921956349674e-09 1.1459238152046878e-10 0.0000000000000000e+00  7.8972679780811288e-09 9.7145479467493658e-10 0.0000000000000000e+00  7.4079516657189847e-09 1.9440960363202904e-09 0.0000000000000000e+00  6.5653159831242369e-09 3.1498660431133740e-09 0.0000000000000000e+00  5.3554179498415716e-09 4.7223068016122009e-09 0.0000000000000000e+00  3.7897889925678253e-09 6.8054688359966215e-09 0.0000000000000000e+00  1.9535220872256802e-09 9.5126086869824137e-09 0.0000000000000000e+00  7.3763258521894634e-11 1.2801545931009579e-08 0.0000000000000000e+00  -1.4849661895944870e-09 1.6220818005194501e-08 0.0000000000000000e+00  -2.7323259283859755e-09 1.8691956510837906e-08 0.0000000000000000e+00  -6.6479700651417204e-09 1.8529144012651641e-08 0.0000000000000000e+00  -4.4601674824313980e-09 -1.8449365332252160e-08 0.0000000000000000e+00  -2.0643030064099468e-09 -1.8745967536339264e-08 0.0000000000000000e+00  -2.0122547279523811e-09 -1.6751164706281309e-08 0.0000000000000000e+00  -1.9242544209989659e-09 -1.3768671553175715e-08 0.0000000000000000e+00  -1.3219566458318408e-09 -1.0652245613177990e-08 0.0000000000000000e+00  -3.7908844767159132e-10 -7.8917414771033387e-09 0.0000000000000000e+00  6.3676344843367235e-10 -5.6196240521374026e-09 0.0000000000000000e+00  1.5363721295577842e-09 -3.7926921197850542e-09 0.0000000000000000e+00  2.2201169257841348e-09 -2.3052737845601393e-09 0.0000000000000000e+00  2.6454470214511889e-09 -1.0392737319802796e-09 0.0000000000000000e+00  2.7978766532753040e-09 1.2013751114549445e-10 0.0000000000000000e+00  2.6744910284465815e-09 1.2830194278960303e-09 0.0000000000000000e+00  2.2782196113137623e-09 2.5575161910392687e-09 0.0000000000000000e+00  1.6209304656234593e-09 4.0516733300824121e-09 0.0000000000000000e+00  7.3549913058809113e-10 5.8687703158514878e-09 0.0000000000000000e+00  -3.0195316081116003e-10 8.0871455460288953e-09 0.0000000000000000e+00  -1.3427450812637952e-09 1.0710025778474712e-08 0.0000000000000000e+00  -2.1537772171414305e-09 1.3572441276128075e-08 0.0000000000000000e+00  -2.5160587476608818e-09 1.6230506543910851e-08 0.0000000000000000e+00  -2.7102069840997446e-09 1.7991776638511383e-08 0.0000000000000000e+00  -5.3064003252368064e-09 1.8286317427330965e-08 0.0000000000000000e+00  -3.7834289048423228e-09 -1.6996621450642179e-08 0.0000000000000000e+00  -2.1956562721143592e-09 -1.7446242826130074e-08 0.0000000000000000e+00  -2.6866129585874047e-09 -1.6031130945395444e-08 0.0000000000000000e+00  -3.2645605680724806e-09 -1.3761331603822878e-08 0.0000000000000000e+00  -3.4198651631034452e-09 -1.1162902541299830e-08 0.0000000000000000e+00  -3.1891316031469299e-09 -8.6383659154569568e-09 0.0000000000000000e+00  -2.7483905238756862e-09 -6.3828057172459143e-09 0.0000000000000000e+00  -2.2638062239470581e-09 -4.4381138332595689e-09 0.0000000000000000e+00  -1.8504617505282075e-09 -2.7625541182829111e-09 0.0000000000000000e+00  -1.5755670491367924e-09 -1.2769030392125881e-09 0.0000000000000000e+00  -1.4723595521705808e-09 1.1174485003006662e-10 0.0000000000000000e+00  -1.5511981556624554e-09 1.4993462875323695e-09 0.0000000000000000e+00  -1.8042019821592877e-09 2.9796685874136879e-09 0.0000000000000000e+00  -2.2031556797672474e-09 4.6386042093220473e-09 0.0000000000000000e+00  -2.6913559293879657e-09 6.5426430789868743e-09 0.0000000000000000e+00  -3.1718428747145352e-09 8.7155830380847217e-09 0.0000000000000000e+00  -3.5004084966489923e-09 1.1098827875772962e-08 0.0000000000000000e+00  -3.5073477803061155e-09 1.3500447678598198e-08 0.0000000000000000e+00  -3.1099332487648254e-09 1.5567322458442411e-08 0.0000000000000000e+00  -2.6949214796676058e-09 1.6873413219851231e-08 0.0000000000000000e+00  -4.4369152354333061e-09 1.7384905316997418e-08 0.0000000000000000e+00  -3.3161968527355988e-09 -1.5346524069852113e-08 0.0000000000000000e+00  -2.3035527723117143e-09 -1.5906371767126512e-08 0.0000000000000000e+00  -3.1540175974964356e-09 -1.4867275953469554e-08 0.0000000000000000e+00  -4.1665387145455372e-09 -1.3116869694192033e-08 0.0000000000000000e+00  -4.8540632055218693e-09 -1.0988473230718329e-08 0.0000000000000000e+00  -5.1760320555255597e-09 -8.7777767617721483e-09 0.0000000000000000e+00  -5.2303876732563126e-09 -6.6718054672394839e-09 0.0000000000000000e+00  -5.1388815527418349e-09 -4.7495176754498391e-09 0.0000000000000000e+00  -5.0027089886149798e-09 -3.0133006841495218e-09 0.0000000000000000e+00  -4.8910887318392479e-09 -1.4204750594083479e-09 0.0000000000000000e+00  -4.8431247950278604e-09 9.4295298904840516e-11 0.0000000000000000e+00  -4.8723276565781910e-09 1.6046979871285641e-09 0.0000000000000000e+00  -4.9691360983047248e-09 3.1826462226948854e-09 0.0000000000000000e+00  -5.1001830060552100e-09 4.8882171445932127e-09 0.0000000000000000e+00  -5.2051984602141797e-09 6.7559621093481473e-09 0.0000000000000000e+00  -5.1949302096073087e-09 8.7749929727051378e-09 0.0000000000000000e+00  -4.9578608754711500e-09 1.0863670822213292e-08 0.0000000000000000e+00  -4.3920654395880650e-09 1.2848149153362847e-08 0.0000000000000000e+00  -3.5012121573684347e-09 1.4469081803620297e-08 0.0000000000000000e+00  -2.6938012240530725e-09 1.5466612850410135e-08 0.0000000000000000e+00  -3.8314410311857005e-09 1.6098613663881084e-08 0.0000000000000000e+00  -2.9773529071848424e-09 -1.3552879514800315e-08 0.0000000000000000e+00  -2.3918332593120691e-09 -1.4194238340622444e-08 0.0000000000000000e+00  -3.4963160987307048e-09 -1.3414784148237751e-08 0.0000000000000000e+00  -4.8026272995220182e-09 -1.2050168799251935e-08 0.0000000000000000e+00  -5.8610647649006292e-09 -1.0320119882345409e-08 0.0000000000000000e+00  -6.5924540791493944e-09 -8.4345135973921241e-09 0.0000000000000000e+00  -7.0393851695604877e-09 -6.5483615550624417e-09 0.0000000000000000e+00  -7.2801990185697939e-09 -4.7473914986023586e-09 0.0000000000000000e+00  -7.3912040966031873e-09 -3.0578390967868256e-09 0.0000000000000000e+00  -7.4309184074177621e-09 -1.4644114005512213e-09 0.0000000000000000e+00  -7.4353409006872981e-09 7.2592036822564367e-11 0.0000000000000000e+00  -7.4177149926903604e-09 1.6033786128957979e-09 0.0000000000000000e+00  -7.3691917304723606e-09 3.1770493437617505e-09 0.0000000000000000e+00  -7.2591488902189244e-09 4.8302807010402022e-09 0.0000000000000000e+00  -7.0358799720385696e-09 6.5745337474003645e-09 0.0000000000000000e+00  -6.6303561056865406e-09 8.3813851579687340e-09 0.0000000000000000e+00  -5.9682840841918089e-09 1.0168581670808524e-08 0.0000000000000000e+00  -5.0003457960987899e-09 1.1794433699825187e-08 0.0000000000000000e+00  -3.7780944798340442e-09 1.3074798952922097e-08 0.0000000000000000e+00  -2.6993325600286439e-09 1.3852496021015974e-08 0.0000000000000000e+00  -3.3887822021020953e-09 1.4560982964001123e-08 0.0000000000000000e+00  -2.7253815656956020e-09 -1.1651770586516720e-08 0.0000000000000000e+00  -2.4627706866395090e-09 -1.2354278596651635e-08 0.0000000000000000e+00  -3.7525353124518936e-09 -1.1764792202343947e-08 0.0000000000000000e+00  -5.2623709967517347e-09 -1.0697182827549254e-08 0.0000000000000000e+00  -6.5790906059206508e-09 -9.3025255650005490e-09 0.0000000000000000e+00  -7.6059505195564650e-09 -7.7283848449747380e-09 0.0000000000000000e+00  -8.3492414673660854e-09 -6.0950953380011810e-09 0.0000000000000000e+00  -8.8522554060190996e-09 -4.4805632815956453e-09 0.0000000000000000e+00  -9.1657397622458578e-09 -2.9203633022540339e-09 0.0000000000000000e+00  -9.3328609341969587e-09 -1.4166282363471459e-09 0.0000000000000000e+00  -9.3820806552013342e-09 5.0305360712006868e-11 0.0000000000000000e+00  -9.3244286122216372e-09 1.5103849779713889e-09 0.0000000000000000e+00  -9.1530128615683931e-09 2.9930654942341728e-09 0.0000000000000000e+00  -8.8439096972997853e-09 4.5168449792151468e-09 0.0000000000000000e+00  -8.3588554449918532e-09 6.0787490394400051e-09 0.0000000000000000e+00  -7.6513734406085446e-09 7.6444149363339584e-09 0.0000000000000000e+00  -6.6792711294042047e-09 9.1413339211289369e-09 0.0000000000000000e+00  -5.4296472104731526e-09 1.0460238855580453e-08 0.0000000000000000e+00  -3.9790209704813564e-09 1.1472602419945954e-08 0.0000000000000000e+00  -2.7053457888942328e-09 1.2085723864868972e-08 0.0000000000000000e+00  -3.0548035829089920e-09 1.2846578704511354e-08 0.0000000000000000e+00  -2.5371961403253587e-09 -9.6705270781307864e-09 0.0000000000000000e+00  -2.5188196669116457e-09 -1.0419157676705642e-08 0.0000000000000000e+00  -3.9448766205995206e-09 -9.9765217023413334e-09 0.0000000000000000e+00  -5.5970557736987560e-09 -9.1474275454652443e-09 0.0000000000000000e+00  -7.0929915340592585e-09 -8.0401442092047774e-09 0.0000000000000000e+00  -8.3289358621810004e-09 -6.7581591977889507e-09 0.0000000000000000e+00  -9.2882276982963801e-09 -5.3914931352235269e-09 0.0000000000000000e+00  -9.9882729724464095e-09 -4.0048574229092280e-09 0.0000000000000000e+00  -1.0458009291763341e-08 -2.6344141940471921e-09 0.0000000000000000e+00  -1.0725387731229563e-08 -1.2915404821832815e-09 0.0000000000000000e+00  -1.0810215271201298e-08 2.9806155655376681e-11 0.0000000000000000e+00  -1.0720602002001886e-08 1.3444412635801551e-09 0.0000000000000000e+00  -1.0451954948886330e-08 2.6671283609479616e-09 0.0000000000000000e+00  -9.9880497223745018e-09 4.0039897368203417e-09 0.0000000000000000e+00  -9.3043583588044966e-09 5.3445471703545984e-09 0.0000000000000000e+00  -8.3744037694410439e-09 6.6553679853045902e-09 0.0000000000000000e+00  -7.1806259044308788e-09 7.8772685363533616e-09 0.0000000000000000e+00  -5.7341377937225713e-09 8.9290135640790362e-09 0.0000000000000000e+00  -4.1240496682431131e-09 9.7222050664311415e-09 0.0000000000000000e+00  -2.7084240850099327e-09 1.0205627099664733e-08 0.0000000000000000e+00  -2.7984128870257521e-09 1.1003173681212037e-08 0.0000000000000000e+00  -2.3992198825644909e-09 -7.6309664603545963e-09 0.0000000000000000e+00  -2.5626589179944122e-09 -8.4143154047113260e-09 0.0000000000000000e+00  -4.0879841241350994e-09 -8.0912637685826588e-09 0.0000000000000000e+00  -5.8390629025825848e-09 -7.4622649600426230e-09 0.0000000000000000e+00  -7.4578311099341186e-09 -6.6079222572906652e-09 0.0000000000000000e+00  -8.8385275766172607e-09 -5.6004036379194260e-09 0.0000000000000000e+00  -9.9502801167751812e-09 -4.5050049939857761e-09 0.0000000000000000e+00  -1.0792372233520041e-08 -3.3722273164763790e-09 0.0000000000000000e+00  -1.1376898998324320e-08 -2.2340709815504815e-09 0.0000000000000000e+00  -1.1718958048642239e-08 -1.1052452371012764e-09 0.0000000000000000e+00  -1.1830458439317284e-08 1.2411733764728763e-11 0.0000000000000000e+00  -1.1716663864733865e-08 1.1238840802866218e-09 0.0000000000000000e+00  -1.1375076718858231e-08 2.2343722448421483e-09 0.0000000000000000e+00  -1.0796466801541265e-08 3.3428322691362407e-09 0.0000000000000000e+00  -9.9680691235132235e-09 4.4363213224750356e-09 0.0000000000000000e+00  -8.8791926380965540e-09 5.4860758160281220e-09 0.0000000000000000e+00  -7.5299821259896719e-09 6.4466506081900534e-09 0.0000000000000000e+00  -5.9470280210189680e-09 7.2597742929024588e-09 0.0000000000000000e+00  -4.2256750257058352e-09 7.8660930267596359e-09 0.0000000000000000e+00  -2.7072358034483337e-09 8.2418644170688389e-09 0.0000000000000000e+00  -2.6009349009355879e-09 9.0646446069884086e-09 0.0000000000000000e+00  -2.3032236905476531e-09 -5.5508808295002720e-09 0.0000000000000000e+00  -2.5969630435743984e-09 -6.3600899957812127e-09 0.0000000000000000e+00  -4.1924282873087594e-09 -6.1392042548450518e-09 0.0000000000000000e+00  -6.0103511187053073e-09 -5.6852224352637136e-09 0.0000000000000000e+00  -7.7108932256748435e-09 -5.0600550534759433e-09 0.0000000000000000e+00  -9.1884656982840689e-09 -4.3130530344542644e-09 0.0000000000000000e+00  -1.0403607125723245e-08 -3.4896180834491193e-09 0.0000000000000000e+00  -1.1343482516961899e-08 -2.6267030828679879e-09 0.0000000000000000e+00  -1.2008106255288216e-08 -1.7497676783842041e-09 0.0000000000000000e+00  -1.2402788772484031e-08 -8.7288643050610393e-10 0.0000000000000000e+00  -1.2533120685066519e-08 -1.2681072652225432e-12 0.0000000000000000e+00  -1.2401978187875927e-08 8.6479049834291034e-10 0.0000000000000000e+00  -1.2008495192173362e-08 1.7253511743972906e-09 0.0000000000000000e+00  -1.1348962802592054e-08 2.5763546381566475e-09 0.0000000000000000e+00  -1.0419602469448505e-08 3.4058504845086123e-09 0.0000000000000000e+00  -9.2211895675867420e-09 4.1916615176696235e-09 0.0000000000000000e+00  -7.7659609604355119e-09 4.9013243815504391e-09 0.0000000000000000e+00  -6.0903106177110776e-09 5.4952402364579402e-09 0.0000000000000000e+00  -4.2926928591053648e-09 5.9355726600063224e-09 0.0000000000000000e+00  -2.7017169272262486e-09 6.2174581264199618e-09 0.0000000000000000e+00  -2.4508729607003343e-09 7.0565214832991064e-09 0.0000000000000000e+00  -2.2442101463727544e-09 -3.4450122571383290e-09 0.0000000000000000e+00  -2.6241576902517367e-09 -4.2730043110885498e-09 0.0000000000000000e+00  -4.2660270366596334e-09 -4.1432234603174299e-09 0.0000000000000000e+00  -6.1262145765875009e-09 -3.8481972232059796e-09 0.0000000000000000e+00  -7.8777263307727135e-09 -3.4364170205837198e-09 0.0000000000000000e+00  -9.4159651317304715e-09 -2.9398475557870441e-09 0.0000000000000000e+00  -1.0696554901662936e-08 -2.3875653152