<?xml version="1.0"?>
<VTKFile type="UnstructuredGrid"  version="0.1"  >
<UnstructuredGrid>
<Piece  NumberOfPoints="651" NumberOfCells="1200">
<Points>
<DataArray  type="Float64"  NumberOfComponents="3"  format="ascii">0 0 0  50000 0 0  100000 0 0  150000 0 0  200000 0 0  250000 0 0  300000 0 0  350000 0 0  400000 0 0  450000 0 0  500000 0 0  550000 0 0  600000 0 0  650000 0 0  700000 0 0  750000 0 0  800000 0 0  850000 0 0  900000 0 0  950000 0 0  1000000 0 0  0 50000 0  50000 50000 0  100000 50000 0  150000 50000 0  200000 50000 0  250000 50000 0  300000 50000 0  350000 50000 0  400000 50000 0  450000 50000 0  500000 50000 0  550000 50000 0  600000 50000 0  650000 50000 0  700000 50000 0  750000 50000 0  800000 50000 0  850000 50000 0  900000 50000 0  950000 50000 0  1000000 50000 0  0 100000 0  50000 100000 0  100000 100000 0  150000 100000 0  200000 100000 0  250000 100000 0  300000 100000 0  350000 100000 0  400000 100000 0  450000 100000 0  500000 100000 0  550000 100000 0  600000 100000 0  650000 100000 0  700000 100000 0  750000 100000 0  800000 100000 0  850000 100000 0  900000 100000 0  950000 100000 0  1000000 100000 0  0 150000 0  50000 150000 0  100000 150000 0  150000 150000 0  200000 150000 0  250000 150000 0  300000 150000 0  350000 150000 0  400000 150000 0  450000 150000 0  500000 150000 0  550000 150000 0  600000 150000 0  650000 150000 0  700000 150000 0  750000 150000 0  800000 150000 0  850000 150000 0  900000 150000 0  950000 150000 0  1000000 150000 0  0 200000 0  50000 200000 0  100000 200000 0  150000 200000 0  200000 200000 0  250000 200000 0  300000 200000 0  350000 200000 0  400000 200000 0  450000 200000 0  500000 200000 0  550000 200000 0  600000 200000 0  650000 200000 0  700000 200000 0  750000 200000 0  800000 200000 0  850000 200000 0  900000 200000 0  950000 200000 0  1000000 200000 0  0 250000 0  50000 250000 0  100000 250000 0  150000 250000 0  200000 250000 0  250000 250000 0  300000 250000 0  350000 250000 0  400000 250000 0  450000 250000 0  500000 250000 0  550000 250000 0  600000 250000 0  650000 250000 0  700000 250000 0  750000 250000 0  800000 250000 0  850000 250000 0  900000 250000 0  950000 250000 0  1000000 250000 0  0 300000 0  50000 300000 0  100000 300000 0  150000 300000 0  200000 300000 0  250000 300000 0  300000 300000 0  350000 300000 0  400000 300000 0  450000 300000 0  500000 300000 0  550000 300000 0  600000 300000 0  650000 300000 0  700000 300000 0  750000 300000 0  800000 300000 0  850000 300000 0  900000 300000 0  950000 300000 0  1000000 300000 0  0 350000 0  50000 350000 0  100000 350000 0  150000 350000 0  200000 350000 0  250000 350000 0  300000 350000 0  350000 350000 0  400000 350000 0  450000 350000 0  500000 350000 0  550000 350000 0  600000 350000 0  650000 350000 0  700000 350000 0  750000 350000 0  800000 350000 0  850000 350000 0  900000 350000 0  950000 350000 0  1000000 350000 0  0 400000 0  50000 400000 0  100000 400000 0  150000 400000 0  200000 400000 0  250000 400000 0  300000 400000 0  350000 400000 0  400000 400000 0  450000 400000 0  500000 400000 0  550000 400000 0  600000 400000 0  650000 400000 0  700000 400000 0  750000 400000 0  800000 400000 0  850000 400000 0  900000 400000 0  950000 400000 0  1000000 400000 0  0 450000 0  50000 450000 0  100000 450000 0  150000 450000 0  200000 450000 0  250000 450000 0  300000 450000 0  350000 450000 0  400000 450000 0  450000 450000 0  500000 450000 0  550000 450000 0  600000 450000 0  650000 450000 0  700000 450000 0  750000 450000 0  800000 450000 0  850000 450000 0  900000 450000 0  950000 450000 0  1000000 450000 0  0 500000 0  50000 500000 0  100000 500000 0  150000 500000 0  200000 500000 0  250000 500000 0  300000 500000 0  350000 500000 0  400000 500000 0  450000 500000 0  500000 500000 0  550000 500000 0  600000 500000 0  650000 500000 0  700000 500000 0  750000 500000 0  800000 500000 0  850000 500000 0  900000 500000 0  950000 500000 0  1000000 500000 0  0 550000 0  50000 550000 0  100000 550000 0  150000 550000 0  200000 550000 0  250000 550000 0  300000 550000 0  350000 550000 0  400000 550000 0  450000 550000 0  500000 550000 0  550000 550000 0  600000 550000 0  650000 550000 0  700000 550000 0  750000 550000 0  800000 550000 0  850000 550000 0  900000 550000 0  950000 550000 0  1000000 550000 0  0 600000 0  50000 600000 0  100000 600000 0  150000 600000 0  200000 600000 0  250000 600000 0  300000 600000 0  350000 600000 0  400000 600000 0  450000 600000 0  500000 600000 0  550000 600000 0  600000 600000 0  650000 600000 0  700000 600000 0  750000 600000 0  800000 600000 0  850000 600000 0  900000 600000 0  950000 600000 0  1000000 600000 0  0 650000 0  50000 650000 0  100000 650000 0  150000 650000 0  200000 650000 0  250000 650000 0  300000 650000 0  350000 650000 0  400000 650000 0  450000 650000 0  500000 650000 0  550000 650000 0  600000 650000 0  650000 650000 0  700000 650000 0  750000 650000 0  800000 650000 0  850000 650000 0  900000 650000 0  950000 650000 0  1000000 650000 0  0 700000 0  50000 700000 0  100000 700000 0  150000 700000 0  200000 700000 0  250000 700000 0  300000 700000 0  350000 700000 0  400000 700000 0  450000 700000 0  500000 700000 0  550000 700000 0  600000 700000 0  650000 700000 0  700000 700000 0  750000 700000 0  800000 700000 0  850000 700000 0  900000 700000 0  950000 700000 0  1000000 700000 0  0 750000 0  50000 750000 0  100000 750000 0  150000 750000 0  200000 750000 0  250000 750000 0  300000 750000 0  350000 750000 0  400000 750000 0  450000 750000 0  500000 750000 0  550000 750000 0  600000 750000 0  650000 750000 0  700000 750000 0  750000 750000 0  800000 750000 0  850000 750000 0  900000 750000 0  950000 750000 0  1000000 750000 0  0 800000 0  50000 800000 0  100000 800000 0  150000 800000 0  200000 800000 0  250000 800000 0  300000 800000 0  350000 800000 0  400000 800000 0  450000 800000 0  500000 800000 0  550000 800000 0  600000 800000 0  650000 800000 0  700000 800000 0  750000 800000 0  800000 800000 0  850000 800000 0  900000 800000 0  950000 800000 0  1000000 800000 0  0 850000 0  50000 850000 0  100000 850000 0  150000 850000 0  200000 850000 0  250000 850000 0  300000 850000 0  350000 850000 0  400000 850000 0  450000 850000 0  500000 850000 0  550000 850000 0  600000 850000 0  650000 850000 0  700000 850000 0  750000 850000 0  800000 850000 0  850000 850000 0  900000 850000 0  950000 850000 0  1000000 850000 0  0 900000 0  50000 900000 0  100000 900000 0  150000 900000 0  200000 900000 0  250000 900000 0  300000 900000 0  350000 900000 0  400000 900000 0  450000 900000 0  500000 900000 0  550000 900000 0  600000 900000 0  650000 900000 0  700000 900000 0  750000 900000 0  800000 900000 0  850000 900000 0  900000 900000 0  950000 900000 0  1000000 900000 0  0 950000 0  50000 950000 0  100000 950000 0  150000 950000 0  200000 950000 0  250000 950000 0  300000 950000 0  350000 950000 0  400000 950000 0  450000 950000 0  500000 950000 0  550000 950000 0  600000 950000 0  650000 950000 0  700000 950000 0  750000 950000 0  800000 950000 0  850000 950000 0  900000 950000 0  950000 950000 0  1000000 950000 0  0 1000000 0  50000 1000000 0  100000 1000000 0  150000 1000000 0  200000 1000000 0  250000 1000000 0  300000 1000000 0  350000 1000000 0  400000 1000000 0  450000 1000000 0  500000 1000000 0  550000 1000000 0  600000 1000000 0  650000 1000000 0  700000 1000000 0  750000 1000000 0  800000 1000000 0  850000 1000000 0  900000 1000000 0  950000 1000000 0  1000000 1000000 0  0 1050000 0  50000 1050000 0  100000 1050000 0  150000 1050000 0  200000 1050000 0  250000 1050000 0  300000 1050000 0  350000 1050000 0  400000 1050000 0  450000 1050000 0  500000 1050000 0  550000 1050000 0  600000 1050000 0  650000 1050000 0  700000 1050000 0  750000 1050000 0  800000 1050000 0  850000 1050000 0  900000 1050000 0  950000 1050000 0  1000000 1050000 0  0 1100000 0  50000 1100000 0  100000 1100000 0  150000 1100000 0  200000 1100000 0  250000 1100000 0  300000 1100000 0  350000 1100000 0  400000 1100000 0  450000 1100000 0  500000 1100000 0  550000 1100000 0  600000 1100000 0  650000 1100000 0  700000 1100000 0  750000 1100000 0  800000 1100000 0  850000 1100000 0  900000 1100000 0  950000 1100000 0  1000000 1100000 0  0 1150000 0  50000 1150000 0  100000 1150000 0  150000 1150000 0  200000 1150000 0  250000 1150000 0  300000 1150000 0  350000 1150000 0  400000 1150000 0  450000 1150000 0  500000 1150000 0  550000 1150000 0  600000 1150000 0  650000 1150000 0  700000 1150000 0  750000 1150000 0  800000 1150000 0  850000 1150000 0  900000 1150000 0  950000 1150000 0  1000000 1150000 0  0 1200000 0  50000 1200000 0  100000 1200000 0  150000 1200000 0  200000 1200000 0  250000 1200000 0  300000 1200000 0  350000 1200000 0  400000 1200000 0  450000 1200000 0  500000 1200000 0  550000 1200000 0  600000 1200000 0  650000 1200000 0  700000 1200000 0  750000 1200000 0  800000 1200000 0  850000 1200000 0  900000 1200000 0  950000 1200000 0  1000000 1200000 0  0 1250000 0  50000 1250000 0  100000 1250000 0  150000 1250000 0  200000 1250000 0  250000 1250000 0  300000 1250000 0  350000 1250000 0  400000 1250000 0  450000 1250000 0  500000 1250000 0  550000 1250000 0  600000 1250000 0  650000 1250000 0  700000 1250000 0  750000 1250000 0  800000 1250000 0  850000 1250000 0  900000 1250000 0  950000 1250000 0  1000000 1250000 0  0 1300000 0  50000 1300000 0  100000 1300000 0  150000 1300000 0  200000 1300000 0  250000 1300000 0  300000 1300000 0  350000 1300000 0  400000 1300000 0  450000 1300000 0  500000 1300000 0  550000 1300000 0  600000 1300000 0  650000 1300000 0  700000 1300000 0  750000 1300000 0  800000 1300000 0  850000 1300000 0  900000 1300000 0  950000 1300000 0  1000000 1300000 0  0 1350000 0  50000 1350000 0  100000 1350000 0  150000 1350000 0  200000 1350000 0  250000 1350000 0  300000 1350000 0  350000 1350000 0  400000 1350000 0  450000 1350000 0  500000 1350000 0  550000 1350000 0  600000 1350000 0  650000 1350000 0  700000 135
[...]
<PointData  Vectors="f_7489"> 
<DataArray  type="Float64"  Name="f_7489"  NumberOfComponents="3" format="ascii">-2.2385442761861498e-08 -1.1235742430913792e-08 0.0000000000000000e+00  5.2900095851168087e-08 -7.7898912173573733e-09 0.0000000000000000e+00  4.9313487876241654e-08 -3.7433145755158155e-09 0.0000000000000000e+00  4.7787636791101033e-08 -2.0758794572045764e-09 0.0000000000000000e+00  4.7111230204598947e-08 -1.2855770344168550e-09 0.0000000000000000e+00  4.6704786822967886e-08 -8.3068752361015520e-10 0.0000000000000000e+00  4.6422888783075417e-08 -5.3504119222548412e-10 0.0000000000000000e+00  4.6223048827660554e-08 -3.2350057998154376e-10 0.0000000000000000e+00  4.6091626271901322e-08 -1.5709202401525766e-10 0.0000000000000000e+00  4.6024573524844897e-08 -1.1812985616510766e-11 0.0000000000000000e+00  4.6021272068930237e-08 1.3035368656913006e-10 0.0000000000000000e+00  4.6082776821238158e-08 2.8635478999217636e-10 0.0000000000000000e+00  4.6212386011554914e-08 4.7612761510790262e-10 0.0000000000000000e+00  4.6418972826246651e-08 7.2797762371862368e-10 0.0000000000000000e+00  4.6726270920261451e-08 1.0883326522462308e-09 0.0000000000000000e+00  4.7197786760647486e-08 1.6423835601867799e-09 0.0000000000000000e+00  4.8004539052377031e-08 2.5604721267197348e-09 0.0000000000000000e+00  4.9595818920415558e-08 4.1990430261346347e-09 0.0000000000000000e+00  5.2833357836059985e-08 7.2321564538705444e-09 0.0000000000000000e+00  5.7256689216853442e-08 1.1472375314136944e-08 0.0000000000000000e+00  -1.8895534547415036e-08 9.8503002830747550e-09 0.0000000000000000e+00  -1.7415082999908164e-08 -1.5712448934746282e-08 0.0000000000000000e+00  7.5208607535346894e-09 -1.2794370816415817e-08 0.0000000000000000e+00  1.9314970354362313e-08 -6.7501113083746371e-09 0.0000000000000000e+00  2.5807692260576319e-08 -3.5928245442298195e-09 0.0000000000000000e+00  2.9483456113871744e-08 -2.0384630546665342e-09 0.0000000000000000e+00  3.1757693514141697e-08 -1.2111803638296792e-09 0.0000000000000000e+00  3.3209102733498440e-08 -7.2778414012469818e-10 0.0000000000000000e+00  3.4138016642555756e-08 -4.1841283010619039e-10 0.0000000000000000e+00  3.4713890073518880e-08 -2.0082529149415268e-10 0.0000000000000000e+00  3.5032334572316108e-08 -2.8794064538252575e-11 0.0000000000000000e+00  3.5143235177196194e-08 1.2895422689367459e-10 0.0000000000000000e+00  3.5064090318803214e-08 2.9893868548646330e-10 0.0000000000000000e+00  3.4784879656078092e-08 5.0979672605060150e-10 0.0000000000000000e+00  3.4266898147487493e-08 7.9973903031825225e-10 0.0000000000000000e+00  3.3435283343728116e-08 1.2285422368364759e-09 0.0000000000000000e+00  3.2161208441757500e-08 1.9011470795399879e-09 0.0000000000000000e+00  3.0216983510961160e-08 3.0181686636478954e-09 0.0000000000000000e+00  2.7121194045624511e-08 4.9828612337694974e-09 0.0000000000000000e+00  2.1478516258065648e-08 8.5595422652960112e-09 0.0000000000000000e+00  8.6554483636857018e-09 1.4493208580917272e-08 0.0000000000000000e+00  -2.0136182279467520e-08 1.3082231038325147e-08 0.0000000000000000e+00  -1.1481156985500238e-08 -1.8503857025291006e-08 0.0000000000000000e+00  -4.7604761256998050e-10 -2.0256985170992936e-08 0.0000000000000000e+00  5.5777172470729970e-09 -1.3610811024893934e-08 0.0000000000000000e+00  1.1040325701173334e-08 -8.5763038188321607e-09 0.0000000000000000e+00  1.5691623280595736e-08 -5.4091974060530611e-09 0.0000000000000000e+00  1.9117111570048764e-08 -3.4606753758309541e-09 0.0000000000000000e+00  2.1520424360444775e-08 -2.2165753098689330e-09 0.0000000000000000e+00  2.3159028129862583e-08 -1.3757699957800172e-09 0.0000000000000000e+00  2.4220006583420266e-08 -7.6478050005249275e-10 0.0000000000000000e+00  2.4823154679557384e-08 -2.7702309020536951e-10 0.0000000000000000e+00  2.5035623395794229e-08 1.6162731672392719e-10 0.0000000000000000e+00  2.4882254588517085e-08 6.1260220995391172e-10 0.0000000000000000e+00  2.4350163986486399e-08 1.1383846519827225e-09 0.0000000000000000e+00  2.3387981913209135e-08 1.8159197575453374e-09 0.0000000000000000e+00  2.1899870560456352e-08 2.7546248657529414e-09 0.0000000000000000e+00  1.9733834655033852e-08 4.1245868826962331e-09 0.0000000000000000e+00  1.6663820067285698e-08 6.1982890081622698e-09 0.0000000000000000e+00  1.2371395190366786e-08 9.3780792630696201e-09 0.0000000000000000e+00  6.4800899551157255e-09 1.3983595244912363e-08 0.0000000000000000e+00  -1.3768049021135178e-09 1.8674215502329476e-08 0.0000000000000000e+00  -1.5365427269249522e-08 1.6030546809977745e-08 0.0000000000000000e+00  -8.1152078790955696e-09 -1.8748860943056509e-08 0.0000000000000000e+00  -1.8260547527364989e-09 -2.1319372381910245e-08 0.0000000000000000e+00  5.7125702146150087e-10 -1.7879544312148425e-08 0.0000000000000000e+00  3.3756458393872239e-09 -1.3036242783397052e-08 0.0000000000000000e+00  6.6323670324315571e-09 -9.1251211773564663e-09 0.0000000000000000e+00  9.6381309290350921e-09 -6.2837347721036482e-09 0.0000000000000000e+00  1.2059098117065233e-08 -4.2528084952327847e-09 0.0000000000000000e+00  1.3852141772961220e-08 -2.7669442107618030e-09 0.0000000000000000e+00  1.5074969337644109e-08 -1.6256588883466669e-09 0.0000000000000000e+00  1.5793784344705259e-08 -6.8342985967172467e-10 0.0000000000000000e+00  1.6054868289813195e-08 1.7133671416338666e-10 0.0000000000000000e+00  1.5877756486042619e-08 1.0344510437683457e-09 0.0000000000000000e+00  1.5254578370982459e-08 2.0008509283997388e-09 0.0000000000000000e+00  1.4151620326012438e-08 3.1783540988990685e-09 0.0000000000000000e+00  1.2514159322120164e-08 4.7014854291089790e-09 0.0000000000000000e+00  1.0280646751367219e-08 6.7421376239114623e-09 0.0000000000000000e+00  7.4218550717432476e-09 9.4976615852726776e-09 0.0000000000000000e+00  4.0348225399779342e-09 1.3084657169353429e-08 0.0000000000000000e+00  4.7422590261221286e-10 1.7141177447949987e-08 0.0000000000000000e+00  -3.1169456406724251e-09 1.9927205463433685e-08 0.0000000000000000e+00  -1.0982721708172505e-08 1.7849813889150136e-08 0.0000000000000000e+00  -6.2785632023311588e-09 -1.8007836420486609e-08 0.0000000000000000e+00  -2.1492678464316592e-09 -2.0635262942543026e-08 0.0000000000000000e+00  -1.5014420652770093e-09 -1.9117486716257752e-08 0.0000000000000000e+00  -5.8664795748542455e-10 -1.5563093854073242e-08 0.0000000000000000e+00  1.0747440475262376e-09 -1.1865437984904473e-08 0.0000000000000000e+00  3.0400326524040085e-09 -8.7095203571991961e-09 0.0000000000000000e+00  4.8856403120397439e-09 -6.1833020673315458e-09 0.0000000000000000e+00  6.3957501571463289e-09 -4.1765100470428534e-09 0.0000000000000000e+00  7.4936143849701104e-09 -2.5412271608896945e-09 0.0000000000000000e+00  8.1660733306129672e-09 -1.1388000052010201e-09 0.0000000000000000e+00  8.4194619837073833e-09 1.5341259978086633e-10 0.0000000000000000e+00  8.2599281471369561e-09 1.4475473290755766e-09 0.0000000000000000e+00  7.6874780832192084e-09 2.8533298954607555e-09 0.0000000000000000e+00  6.6989194747382756e-09 4.4849981289187846e-09 0.0000000000000000e+00  5.3002759885964465e-09 6.4630654116851188e-09 0.0000000000000000e+00  3.5337807910500125e-09 8.9011855353702456e-09 0.0000000000000000e+00  1.5269384578395807e-09 1.1854088989730301e-08 0.0000000000000000e+00  -4.4406205316399898e-10 1.5179307367974818e-08 0.0000000000000000e+00  -1.9921954900086430e-09 1.8269693219447061e-08 0.0000000000000000e+00  -3.3238919590855690e-09 1.9802517006408470e-08 0.0000000000000000e+00  -8.3038059337766171e-09 1.8165989878523328e-08 0.0000000000000000e+00  -5.1507195168921564e-09 -1.6821993371933247e-08 0.0000000000000000e+00  -2.2778335629997588e-09 -1.9355903505987423e-08 0.0000000000000000e+00  -2.5212406703614210e-09 -1.8801695572373068e-08 0.0000000000000000e+00  -2.7583641288178141e-09 -1.6397486753815251e-08 0.0000000000000000e+00  -2.3336577173344764e-09 -1.3322419498454780e-08 0.0000000000000000e+00  -1.4205311956411033e-09 -1.0302569363611497e-08 0.0000000000000000e+00  -3.3795604867359585e-10 -7.6187123960831224e-09 0.0000000000000000e+00  6.7172176061351460e-10 -5.3125010413708137e-09 0.0000000000000000e+00  1.4681444636832184e-09 -3.3216203844252227e-09 0.0000000000000000e+00  1.9823038731163700e-09 -1.5477837616554370e-09 0.0000000000000000e+00  2.1854537432335287e-09 1.1571905620897311e-10 0.0000000000000000e+00  2.0700945114827633e-09 1.7751248870612138e-09 0.0000000000000000e+00  1.6426454901533600e-09 3.5339162765058486e-09 0.0000000000000000e+00  9.2605309538385043e-10 5.4900360607017044e-09 0.0000000000000000e+00  -2.7999483273211300e-11 7.7259363767987539e-09 0.0000000000000000e+00  -1.1170984192862095e-09 1.0281726253382888e-08 0.0000000000000000e+00  -2.1610961575054348e-09 1.3096999806255943e-08 0.0000000000000000e+00  -2.8980708548002391e-09 1.5909841779437773e-08 0.0000000000000000e+00  -3.1103501447467419e-09 1.8140492959522222e-08 0.0000000000000000e+00  -3.2451611884854564e-09 1.8903660578939875e-08 0.0000000000000000e+00  -6.6062250613720463e-09 1.7549224411903734e-08 0.0000000000000000e+00  -4.3851047989867132e-09 -1.5394858594214081e-08 0.0000000000000000e+00  -2.3542692108897250e-09 -1.7779479082100780e-08 0.0000000000000000e+00  -3.1068565000939035e-09 -1.7721213868130025e-08 0.0000000000000000e+00  -4.0366294810119989e-09 -1.6117968838962013e-08 0.0000000000000000e+00  -4.4713533830312452e-09 -1.3693950045121054e-08 0.0000000000000000e+00  -4.4136778834683278e-09 -1.1022193618695402e-08 0.0000000000000000e+00  -4.0535490527040530e-09 -8.4261120787362716e-09 0.0000000000000000e+00  -3.5862116520113603e-09 -6.0341255466239475e-09 0.0000000000000000e+00  -3.1556808639726161e-09 -3.8577967956692954e-09 0.0000000000000000e+00  -2.8515644852082887e-09 -1.8486907562987039e-09 0.0000000000000000e+00  -2.7211120186101689e-09 6.8414629878211752e-11 0.0000000000000000e+00  -2.7804880613368866e-09 1.9776212242431169e-09 0.0000000000000000e+00  -3.0201368362755960e-09 3.9609641602584053e-09 0.0000000000000000e+00  -3.4034233995407469e-09 6.0876813844146482e-09 0.0000000000000000e+00  -3.8594061623358888e-09 8.3975763222732632e-09 0.0000000000000000e+00  -4.2728855889123507e-09 1.0872276484574243e-08 0.0000000000000000e+00  -4.4812013779241428e-09 1.3390170171267445e-08 0.0000000000000000e+00  -4.3036401998916818e-09 1.5671506807257327e-08 0.0000000000000000e+00  -3.6750286220866751e-09 1.7249159994389273e-08 0.0000000000000000e+00  -3.1288939310968649e-09 1.7553667760442357e-08 0.0000000000000000e+00  -5.4615724552047235e-09 1.6441614826594481e-08 0.0000000000000000e+00  -3.8317547771417939e-09 -1.3814817391995011e-08 0.0000000000000000e+00  -2.4059066945285355e-09 -1.6024652083956193e-08 0.0000000000000000e+00  -3.4797003254768444e-09 -1.6220872311828918e-08 0.0000000000000000e+00  -4.8351495590172791e-09 -1.5149545626015149e-08 0.0000000000000000e+00  -5.8452769286452962e-09 -1.3273438973209372e-08 0.0000000000000000e+00  -6.4226783397940337e-09 -1.1005788683687320e-08 0.0000000000000000e+00  -6.6561404358190185e-09 -8.6354941968295437e-09 0.0000000000000000e+00  -6.6761488904574071e-09 -6.3194232591103806e-09 0.0000000000000000e+00  -6.5991668682262824e-09 -4.1146928717612017e-09 0.0000000000000000e+00  -6.5092090417711992e-09 -2.0151319178129317e-09 0.0000000000000000e+00  -6.4561330082735484e-09 2.0075296527324431e-11 0.0000000000000000e+00  -6.4588306871080228e-09 2.0461460638272975e-09 0.0000000000000000e+00  -6.5076715483970636e-09 4.1173075543280441e-09 0.0000000000000000e+00  -6.5644301437563091e-09 6.2719730322578183e-09 0.0000000000000000e+00  -6.5605761006633365e-09 8.5145751648419213e-09 0.0000000000000000e+00  -6.3976520344930084e-09 1.0791516573635805e-08 0.0000000000000000e+00  -5.9580039308884526e-09 1.2962608637707387e-08 0.0000000000000000e+00  -5.1430586467985246e-09 1.4778317156857663e-08 0.0000000000000000e+00  -3.9852475315665970e-09 1.5888171080803474e-08 0.0000000000000000e+00  -3.0232862052318978e-09 1.5933041553671653e-08 0.0000000000000000e+00  -4.6482868378830929e-09 1.5054684982795421e-08 0.0000000000000000e+00  -3.4172292650965263e-09 -1.2130292192998461e-08 0.0000000000000000e+00  -2.4411704863000357e-09 -1.4154110016677140e-08 0.0000000000000000e+00  -3.7300769460617342e-09 -1.4470220869493358e-08 0.0000000000000000e+00  -5.3533633063627659e-09 -1.3751682969813403e-08 0.0000000000000000e+00  -6.7431623013482076e-09 -1.2307787972070692e-08 0.0000000000000000e+00  -7.7702214731496070e-09 -1.0429107156950753e-08 0.0000000000000000e+00  -8.4550571329644861e-09 -8.3477870456218675e-09 0.0000000000000000e+00  -8.8701671900718157e-09 -6.2148778910207788e-09 0.0000000000000000e+00  -9.0951295260117313e-09 -4.1073672659641685e-09 0.0000000000000000e+00  -9.1951252338358502e-09 -2.0475498180286620e-09 0.0000000000000000e+00  -9.2124522651782790e-09 -2.3703131759632214e-11 0.0000000000000000e+00  -9.1643481990654054e-09 1.9917337421781591e-09 0.0000000000000000e+00  -9.0430865244534025e-09 4.0262655558608644e-09 0.0000000000000000e+00  -8.8167687665600239e-09 6.0920093926437105e-09 0.0000000000000000e+00  -8.4314340951476069e-09 8.1693005488121100e-09 0.0000000000000000e+00  -7.8172686704472217e-09 1.0189099548211381e-08 0.0000000000000000e+00  -6.9041955082621269e-09 1.2017355259135622e-08 0.0000000000000000e+00  -5.6569532414364338e-09 1.3449807452220616e-08 0.0000000000000000e+00  -4.1626146877332840e-09 1.4232443187980179e-08 0.0000000000000000e+00  -2.9332434471744089e-09 1.4143628378758235e-08 0.0000000000000000e+00  -4.0472191395729063e-09 1.3493548444171827e-08 0.0000000000000000e+00  -3.1016679690358750e-09 -1.0372857295052410e-08 0.0000000000000000e+00  -2.4647949133243531e-09 -1.2206714831269960e-08 0.0000000000000000e+00  -3.9017466313630073e-09 -1.2564543318380172e-08 0.0000000000000000e+00  -5.6955182077821405e-09 -1.2082381789950509e-08 0.0000000000000000e+00  -7.3332202768412516e-09 -1.0976155498115979e-08 0.0000000000000000e+00  -8.6689247335259501e-09 -9.4490378658732672e-09 0.0000000000000000e+00  -9.6801385578244222e-09 -7.6783329231489766e-09 0.0000000000000000e+00  -1.0394761633867056e-08 -5.7942265107271519e-09 0.0000000000000000e+00  -1.0857623231808813e-08 -3.8763160325753239e-09 0.0000000000000000e+00  -1.1111456940312417e-08 -1.9620742599595562e-09 0.0000000000000000e+00  -1.1186614631532751e-08 -6.0198580508650785e-11 0.0000000000000000e+00  -1.1096407145211288e-08 1.8350801352400242e-09 0.0000000000000000e+00  -1.0835867362915446e-08 3.7300546359038408e-09 0.0000000000000000e+00  -1.0382928520546460e-08 5.6179866085049512e-09 0.0000000000000000e+00  -9.7023386504801413e-09 7.4659039832238322e-09 0.0000000000000000e+00  -8.7538648755206520e-09 9.2027690259870127e-09 0.0000000000000000e+00  -7.5075229727169847e-09 1.0712083217651457e-08 0.0000000000000000e+00  -5.9718411022532808e-09 1.1834597327864380e-08 0.0000000000000000e+00  -4.2621387581316626e-09 1.2389866593276374e-08 0.0000000000000000e+00  -2.8556103417491926e-09 1.2246327555718189e-08 0.0000000000000000e+00  -3.5910451767355718e-09 1.1817317680979191e-08 0.0000000000000000e+00  -2.8618751413774839e-09 -8.5649685630436936e-09 0.0000000000000000e+00  -2.4806592030396188e-09 -1.0208877055606900e-08 0.0000000000000000e+00  -4.0200324817334774e-09 -1.0562204074874357e-08 0.0000000000000000e+00  -5.9218907639736762e-09 -1.0241144533659053e-08 0.0000000000000000e+00  -7.7190707495355692e-09 -9.4027870626417556e-09 0.0000000000000000e+00  -9.2610455182071426e-09 -8.1889043811830380e-09 0.0000000000000000e+00  -1.0499214877831180e-08 -6.7308111408834309e-09 0.0000000000000000e+00  -1.1429710022908392e-08 -5.1335704678684456e-09 0.0000000000000000e+00  -1.2069090097209324e-08 -3.4695847722310081e-09 0.0000000000000000e+00  -1.2439361465602871e-08 -1.7812217072316752e-09 0.0000000000000000e+00  -1.2558492968537316e-08 -8.8771075349509427e-11 0.0000000000000000e+00  -1.2435253929523216e-08 1.5992383182939506e-09 0.0000000000000000e+00  -1.2067487675476872e-08 3.2750483686794646e-09 0.0000000000000000e+00  -1.1443334298972087e-08 4.9208772219499196e-09 0.0000000000000000e+00  -1.0545496773407587e-08 6.4990921741352249e-09 0.0000000000000000e+00  -9.3591639279243723e-09 7.9447027497518141e-09 0.0000000000000000e+00  -7.8847476870108140e-09 9.1625551619698680e-09 0.0000000000000000e+00  -6.1595062153034104e-09 1.0032679953263801e-08 0.0000000000000000e+00  -4.3123526574685980e-09 1.0429083082189720e-08 0.0000000000000000e+00  -2.7872803564881210e-09 1.0279884032150988e-08 0.0000000000000000e+00  -3.2399324062619714e-09 1.0063186445652034e-08 0.0000000000000000e+00  -2.6837716399353256e-09 -6.7230611346165173e-09 0.0000000000000000e+00  -2.4923652578650958e-09 -8.1791488120648853e-09 0.0000000000000000e+00  -4.1018396224167471e-09 -8.5006273553479715e-09 0.0000000000000000e+00  -6.0708676770545643e-09 -8.2922549250208959e-09 0.0000000000000000e+00  -7.9681962178754759e-09 -7.6726659028801052e-09 0.0000000000000000e+00  -9.6439964544525709e-09 -6.7400612736001552e-09 0.0000000000000000e+00  -1.1034240979215900e-08 -5.5888994896274420e-09 0.0000000000000000e+00  -1.2113516782405256e-08 -4.2996337202929998e-09 0.0000000000000000e+00  -1.2877281280888535e-08 -2.9325794379860677e-09 0.0000000000000000e+00  -1.3330742945151552e-08 -1.5278883755412490e-09 0.0000000000000000e+00  -1.3481127750103707e-08 -1.0997986209346828e-10 0.0000000000000000e+00  -1.3333029427731482e-08 1.3055080334320016e-09 0.0000000000000000e+00  -1.2886703148185628e-08 2.7037355752061854e-09 0.0000000000000000e+00  -1.2139159800115048e-08 4.0627316537169479e-09 0.0000000000000000e+00  -1.1088020883321809e-08 5.3465228876094589e-09 0.0000000000000000e+00  -9.7381912201368276e-09 6.5005802676034026e-09 0.0000000000000000e+00  -8.1117177125319264e-09 7.4512515522976397e-09 0.0000000000000000e+00  -6.2641541306070667e-09 8.1112181267412940e-09 0.0000000000000000e+00  -4.3304021337526662e-09 8.3946466579866281e-09 0.0000000000000000e+00  -2.7265872786026397e-09 8.2699215583096674e-09 0.0000000000000000e+00  -2.9694486384280438e-09 8.2563986633603947e-09 0.0000000000000000e+00  -2.5586634434178805e-09 -4.8591383464989003e-09 0.0000000000000000e+00  -2.5032456497823744e-09 -6.1304324523447442e-09 0.0000000000000000e+00  -4.1594370233411358e-09 -6.4041387650972119e-09 0.0000000000000000e+00  -6.1686073951927756e-09 -6.2777023413177447e-09 0.0000000000000000e+00  -8.1263587084310513e-09 -5.8435311285577087e-09 0.0000000000000000e+00  -9.8854929626870775e-09 -5.1680611807232498e-09 0.0000000000000000e+00  -1.1373169551774048e-08 -4.3162908565049885e-09 0.0000000000000000e+00  -1.2550008781161489e-08 -3.3461297826899369e-09 0.0000000000000000e+00  -1.3396752076490320e-08 -2.3036816553307205e-09 0.0000000000000000e+00  -1.3906193073991239e-08 -1.2223022824518517e-09 0.0000000000000000e+00  -1.4077240562101299e-08 -1.2488779758500874e-10 0.0000000000000000e+00  -1.3911116522509740e-08 9.7174898440544388e-10 0.0000000000000000e+00  -1.3409896352685943e-08 2.0515161087098731e-09 0.0000000000000000e+00  -1.2577431569724544e-08 3.0936487470985291e-09 0.0000000000000000e+00  -1.1422549678034794e-08 4.0681918380457375e-09 0.0000000000000000e+00  -9.9643196666971097e-09 4.9333453336849050e-09 0.0000000000000000e+00  -8.2394385412311743e-09 5.6357696472300701e-09 0.0000000000000000e+00  -6.3148541859259359e-09 6.1150837353697457e-09 0.0000000000000000e+00  -4.3278287097807953e-09 6.3155722818703949e-09 0.0000000000000000e+00  -2.6730543159990885e-09 6.2335172691306938e-09 0.0000000000000000e+00  -2.7642339780132718e-09 6.4147194707549085e-09 0.0000000000000000e+00  -2.4812620799274322e-09 -2.9818674528337282e-09 0.0000000000000000e+00  -2.5162256565104768e-09 -4.0713673634619668e-09 0.0000000000000000e+00  -4.2019069210564246e-09 -4.2883887512561076e-09 0.0000000000000000e+00  -6.2333384887559642e-09 -4.2249365906180375e-09 0.0000000000000000e+00  -8.2248703436674775e-09 -3.9544739368986080e-09 0.0000000000000000e+00  -1.0032242592466113e-08 -3.5192066819669689e-09 0.0000000000000000e+00  -1.1577924754827613e-08 -2.959