<?xml version="1.0"?>
<VTKFile type="UnstructuredGrid"  version="0.1"  >
<UnstructuredGrid>
<Piece  NumberOfPoints="651" NumberOfCells="1200">
<Points>
<DataArray  type="Float64"  NumberOfComponents="3"  format="ascii">0 0 0  50000 0 0  100000 0 0  150000 0 0  200000 0 0  250000 0 0  300000 0 0  350000 0 0  400000 0 0  450000 0 0  500000 0 0  550000 0 0  600000 0 0  650000 0 0  700000 0 0  750000 0 0  800000 0 0  850000 0 0  900000 0 0  950000 0 0  1000000 0 0  0 50000 0  50000 50000 0  100000 50000 0  150000 50000 0  200000 50000 0  250000 50000 0  300000 50000 0  350000 50000 0  400000 50000 0  450000 50000 0  500000 50000 0  550000 50000 0  600000 50000 0  650000 50000 0  700000 50000 0  750000 50000 0  800000 50000 0  850000 50000 0  900000 50000 0  950000 50000 0  1000000 50000 0  0 100000 0  50000 100000 0  100000 100000 0  150000 100000 0  200000 100000 0  250000 100000 0  300000 100000 0  350000 100000 0  400000 100000 0  450000 100000 0  500000 100000 0  550000 100000 0  600000 100000 0  650000 100000 0  700000 100000 0  750000 100000 0  800000 100000 0  850000 100000 0  900000 100000 0  950000 100000 0  1000000 100000 0  0 150000 0  50000 150000 0  100000 150000 0  150000 150000 0  200000 150000 0  250000 150000 0  300000 150000 0  350000 150000 0  400000 150000 0  450000 150000 0  500000 150000 0  550000 150000 0  600000 150000 0  650000 150000 0  700000 150000 0  750000 150000 0  800000 150000 0  850000 150000 0  900000 150000 0  950000 150000 0  1000000 150000 0  0 200000 0  50000 200000 0  100000 200000 0  150000 200000 0  200000 200000 0  250000 200000 0  300000 200000 0  350000 200000 0  400000 200000 0  450000 200000 0  500000 200000 0  550000 200000 0  600000 200000 0  650000 200000 0  700000 200000 0  750000 200000 0  800000 200000 0  850000 200000 0  900000 200000 0  950000 200000 0  1000000 200000 0  0 250000 0  50000 250000 0  100000 250000 0  150000 250000 0  200000 250000 0  250000 250000 0  300000 250000 0  350000 250000 0  400000 250000 0  450000 250000 0  500000 250000 0  550000 250000 0  600000 250000 0  650000 250000 0  700000 250000 0  750000 250000 0  800000 250000 0  850000 250000 0  900000 250000 0  950000 250000 0  1000000 250000 0  0 300000 0  50000 300000 0  100000 300000 0  150000 300000 0  200000 300000 0  250000 300000 0  300000 300000 0  350000 300000 0  400000 300000 0  450000 300000 0  500000 300000 0  550000 300000 0  600000 300000 0  650000 300000 0  700000 300000 0  750000 300000 0  800000 300000 0  850000 300000 0  900000 300000 0  950000 300000 0  1000000 300000 0  0 350000 0  50000 350000 0  100000 350000 0  150000 350000 0  200000 350000 0  250000 350000 0  300000 350000 0  350000 350000 0  400000 350000 0  450000 350000 0  500000 350000 0  550000 350000 0  600000 350000 0  650000 350000 0  700000 350000 0  750000 350000 0  800000 350000 0  850000 350000 0  900000 350000 0  950000 350000 0  1000000 350000 0  0 400000 0  50000 400000 0  100000 400000 0  150000 400000 0  200000 400000 0  250000 400000 0  300000 400000 0  350000 400000 0  400000 400000 0  450000 400000 0  500000 400000 0  550000 400000 0  600000 400000 0  650000 400000 0  700000 400000 0  750000 400000 0  800000 400000 0  850000 400000 0  900000 400000 0  950000 400000 0  1000000 400000 0  0 450000 0  50000 450000 0  100000 450000 0  150000 450000 0  200000 450000 0  250000 450000 0  300000 450000 0  350000 450000 0  400000 450000 0  450000 450000 0  500000 450000 0  550000 450000 0  600000 450000 0  650000 450000 0  700000 450000 0  750000 450000 0  800000 450000 0  850000 450000 0  900000 450000 0  950000 450000 0  1000000 450000 0  0 500000 0  50000 500000 0  100000 500000 0  150000 500000 0  200000 500000 0  250000 500000 0  300000 500000 0  350000 500000 0  400000 500000 0  450000 500000 0  500000 500000 0  550000 500000 0  600000 500000 0  650000 500000 0  700000 500000 0  750000 500000 0  800000 500000 0  850000 500000 0  900000 500000 0  950000 500000 0  1000000 500000 0  0 550000 0  50000 550000 0  100000 550000 0  150000 550000 0  200000 550000 0  250000 550000 0  300000 550000 0  350000 550000 0  400000 550000 0  450000 550000 0  500000 550000 0  550000 550000 0  600000 550000 0  650000 550000 0  700000 550000 0  750000 550000 0  800000 550000 0  850000 550000 0  900000 550000 0  950000 550000 0  1000000 550000 0  0 600000 0  50000 600000 0  100000 600000 0  150000 600000 0  200000 600000 0  250000 600000 0  300000 600000 0  350000 600000 0  400000 600000 0  450000 600000 0  500000 600000 0  550000 600000 0  600000 600000 0  650000 600000 0  700000 600000 0  750000 600000 0  800000 600000 0  850000 600000 0  900000 600000 0  950000 600000 0  1000000 600000 0  0 650000 0  50000 650000 0  100000 650000 0  150000 650000 0  200000 650000 0  250000 650000 0  300000 650000 0  350000 650000 0  400000 650000 0  450000 650000 0  500000 650000 0  550000 650000 0  600000 650000 0  650000 650000 0  700000 650000 0  750000 650000 0  800000 650000 0  850000 650000 0  900000 650000 0  950000 650000 0  1000000 650000 0  0 700000 0  50000 700000 0  100000 700000 0  150000 700000 0  200000 700000 0  250000 700000 0  300000 700000 0  350000 700000 0  400000 700000 0  450000 700000 0  500000 700000 0  550000 700000 0  600000 700000 0  650000 700000 0  700000 700000 0  750000 700000 0  800000 700000 0  850000 700000 0  900000 700000 0  950000 700000 0  1000000 700000 0  0 750000 0  50000 750000 0  100000 750000 0  150000 750000 0  200000 750000 0  250000 750000 0  300000 750000 0  350000 750000 0  400000 750000 0  450000 750000 0  500000 750000 0  550000 750000 0  600000 750000 0  650000 750000 0  700000 750000 0  750000 750000 0  800000 750000 0  850000 750000 0  900000 750000 0  950000 750000 0  1000000 750000 0  0 800000 0  50000 800000 0  100000 800000 0  150000 800000 0  200000 800000 0  250000 800000 0  300000 800000 0  350000 800000 0  400000 800000 0  450000 800000 0  500000 800000 0  550000 800000 0  600000 800000 0  650000 800000 0  700000 800000 0  750000 800000 0  800000 800000 0  850000 800000 0  900000 800000 0  950000 800000 0  1000000 800000 0  0 850000 0  50000 850000 0  100000 850000 0  150000 850000 0  200000 850000 0  250000 850000 0  300000 850000 0  350000 850000 0  400000 850000 0  450000 850000 0  500000 850000 0  550000 850000 0  600000 850000 0  650000 850000 0  700000 850000 0  750000 850000 0  800000 850000 0  850000 850000 0  900000 850000 0  950000 850000 0  1000000 850000 0  0 900000 0  50000 900000 0  100000 900000 0  150000 900000 0  200000 900000 0  250000 900000 0  300000 900000 0  350000 900000 0  400000 900000 0  450000 900000 0  500000 900000 0  550000 900000 0  600000 900000 0  650000 900000 0  700000 900000 0  750000 900000 0  800000 900000 0  850000 900000 0  900000 900000 0  950000 900000 0  1000000 900000 0  0 950000 0  50000 950000 0  100000 950000 0  150000 950000 0  200000 950000 0  250000 950000 0  300000 950000 0  350000 950000 0  400000 950000 0  450000 950000 0  500000 950000 0  550000 950000 0  600000 950000 0  650000 950000 0  700000 950000 0  750000 950000 0  800000 950000 0  850000 950000 0  900000 950000 0  950000 950000 0  1000000 950000 0  0 1000000 0  50000 1000000 0  100000 1000000 0  150000 1000000 0  200000 1000000 0  250000 1000000 0  300000 1000000 0  350000 1000000 0  400000 1000000 0  450000 1000000 0  500000 1000000 0  550000 1000000 0  600000 1000000 0  650000 1000000 0  700000 1000000 0  750000 1000000 0  800000 1000000 0  850000 1000000 0  900000 1000000 0  950000 1000000 0  1000000 1000000 0  0 1050000 0  50000 1050000 0  100000 1050000 0  150000 1050000 0  200000 1050000 0  250000 1050000 0  300000 1050000 0  350000 1050000 0  400000 1050000 0  450000 1050000 0  500000 1050000 0  550000 1050000 0  600000 1050000 0  650000 1050000 0  700000 1050000 0  750000 1050000 0  800000 1050000 0  850000 1050000 0  900000 1050000 0  950000 1050000 0  1000000 1050000 0  0 1100000 0  50000 1100000 0  100000 1100000 0  150000 1100000 0  200000 1100000 0  250000 1100000 0  300000 1100000 0  350000 1100000 0  400000 1100000 0  450000 1100000 0  500000 1100000 0  550000 1100000 0  600000 1100000 0  650000 1100000 0  700000 1100000 0  750000 1100000 0  800000 1100000 0  850000 1100000 0  900000 1100000 0  950000 1100000 0  1000000 1100000 0  0 1150000 0  50000 1150000 0  100000 1150000 0  150000 1150000 0  200000 1150000 0  250000 1150000 0  300000 1150000 0  350000 1150000 0  400000 1150000 0  450000 1150000 0  500000 1150000 0  550000 1150000 0  600000 1150000 0  650000 1150000 0  700000 1150000 0  750000 1150000 0  800000 1150000 0  850000 1150000 0  900000 1150000 0  950000 1150000 0  1000000 1150000 0  0 1200000 0  50000 1200000 0  100000 1200000 0  150000 1200000 0  200000 1200000 0  250000 1200000 0  300000 1200000 0  350000 1200000 0  400000 1200000 0  450000 1200000 0  500000 1200000 0  550000 1200000 0  600000 1200000 0  650000 1200000 0  700000 1200000 0  750000 1200000 0  800000 1200000 0  850000 1200000 0  900000 1200000 0  950000 1200000 0  1000000 1200000 0  0 1250000 0  50000 1250000 0  100000 1250000 0  150000 1250000 0  200000 1250000 0  250000 1250000 0  300000 1250000 0  350000 1250000 0  400000 1250000 0  450000 1250000 0  500000 1250000 0  550000 1250000 0  600000 1250000 0  650000 1250000 0  700000 1250000 0  750000 1250000 0  800000 1250000 0  850000 1250000 0  900000 1250000 0  950000 1250000 0  1000000 1250000 0  0 1300000 0  50000 1300000 0  100000 1300000 0  150000 1300000 0  200000 1300000 0  250000 1300000 0  300000 1300000 0  350000 1300000 0  400000 1300000 0  450000 1300000 0  500000 1300000 0  550000 1300000 0  600000 1300000 0  650000 1300000 0  700000 1300000 0  750000 1300000 0  800000 1300000 0  850000 1300000 0  900000 1300000 0  950000 1300000 0  1000000 1300000 0  0 1350000 0  50000 1350000 0  100000 1350000 0  150000 1350000 0  200000 1350000 0  250000 1350000 0  300000 1350000 0  350000 1350000 0  400000 1350000 0  450000 1350000 0  500000 1350000 0  550000 1350000 0  600000 1350000 0  650000 1350000 0  700000 135
[...]
<PointData  Vectors="f_7489"> 
<DataArray  type="Float64"  Name="f_7489"  NumberOfComponents="3" format="ascii">-2.4341709921189319e-08 -1.0480262544166564e-08 0.0000000000000000e+00  4.8707557709777812e-08 -6.5572180552724687e-09 0.0000000000000000e+00  4.2973293000689916e-08 -2.2476884368685798e-09 0.0000000000000000e+00  4.0517187416197462e-08 -8.7518557693611165e-10 0.0000000000000000e+00  3.9312011295035679e-08 -3.9620294805417258e-10 0.0000000000000000e+00  3.8524923182191792e-08 -1.9173391354236576e-10 0.0000000000000000e+00  3.7959041805914427e-08 -9.4029292164983735e-11 0.0000000000000000e+00  3.7557468824163991e-08 -4.5556274222739496e-11 0.0000000000000000e+00  3.7302299483492473e-08 -2.1712021324963932e-11 0.0000000000000000e+00  3.7188894103048859e-08 -9.2993972528759282e-12 0.0000000000000000e+00  3.7218130244635938e-08 8.3622724134537797e-13 0.0000000000000000e+00  3.7394635171882140e-08 1.7142460351882093e-11 0.0000000000000000e+00  3.7728371641904564e-08 4.9885846787280349e-11 0.0000000000000000e+00  3.8240675324083273e-08 1.1469533454442509e-10 0.0000000000000000e+00  3.8980318445475317e-08 2.3987190545494843e-10 0.0000000000000000e+00  4.0066022695289685e-08 4.8449647420915582e-10 0.0000000000000000e+00  4.1798799662147514e-08 9.8707102823937876e-10 0.0000000000000000e+00  4.4925325739418438e-08 2.0921496740564474e-09 0.0000000000000000e+00  5.0775136041812438e-08 4.6171616441858677e-09 0.0000000000000000e+00  5.8019022062632467e-08 9.1297225726607169e-09 0.0000000000000000e+00  -1.6435746873546572e-08 7.0226966951201575e-09 0.0000000000000000e+00  -1.8095635123797275e-08 -1.6026062256663338e-08 0.0000000000000000e+00  7.2714646288506075e-09 -1.1338626394587798e-08 0.0000000000000000e+00  1.8179045967469595e-08 -5.2606977670152131e-09 0.0000000000000000e+00  2.3238211748904141e-08 -2.4056164586590750e-09 0.0000000000000000e+00  2.5820941702876977e-08 -1.1511796672996624e-09 0.0000000000000000e+00  2.7280009037827545e-08 -5.6034102946947819e-10 0.0000000000000000e+00  2.8127383468287016e-08 -2.6462729247436286e-10 0.0000000000000000e+00  2.8622353574296348e-08 -1.1373324331307261e-10 0.0000000000000000e+00  2.8908101789817098e-08 -3.8666024001270452e-11 0.0000000000000000e+00  2.9064477495272100e-08 -2.1248130603940255e-12 0.0000000000000000e+00  2.9133091777503698e-08 2.0413205826989549e-11 0.0000000000000000e+00  2.9128830034824536e-08 4.9396585957395719e-11 0.0000000000000000e+00  2.9043834409526228e-08 1.0696681609264905e-10 0.0000000000000000e+00  2.8845965826968376e-08 2.2356864515250175e-10 0.0000000000000000e+00  2.8470738743889695e-08 4.4973826264766095e-10 0.0000000000000000e+00  2.7800688030173939e-08 8.8200398867324567e-10 0.0000000000000000e+00  2.6610125501240298e-08 1.7237476476632268e-09 0.0000000000000000e+00  2.4387717103504927e-08 3.4209792761314339e-09 0.0000000000000000e+00  1.9688983601960246e-08 6.8639534749599685e-09 0.0000000000000000e+00  8.2668109240481866e-09 1.3015806291587406e-08 0.0000000000000000e+00  -1.8403635979138002e-08 1.0954837048257489e-08 0.0000000000000000e+00  -1.1109044120348226e-08 -1.9606406526481005e-08 0.0000000000000000e+00  -2.5328351963167896e-10 -1.8496877841604423e-08 0.0000000000000000e+00  5.8662428389285091e-09 -1.1336533653591016e-08 0.0000000000000000e+00  1.0751260064603090e-08 -6.5566439071736505e-09 0.0000000000000000e+00  1.4561379386389574e-08 -3.7954387745337777e-09 0.0000000000000000e+00  1.7202326817601503e-08 -2.2263050274337064e-09 0.0000000000000000e+00  1.8966738995162175e-08 -1.3087809124294597e-09 0.0000000000000000e+00  2.0120929258326939e-08 -7.5175454033526279e-10 0.0000000000000000e+00  2.0844242792407047e-08 -3.9628472035025498e-10 0.0000000000000000e+00  2.1247014217271825e-08 -1.4811864192251539e-10 0.0000000000000000e+00  2.1389090830101817e-08 5.6935847072381961e-11 0.0000000000000000e+00  2.1290887711857317e-08 2.7191433565567538e-10 0.0000000000000000e+00  2.0937395054848279e-08 5.5183846164793444e-10 0.0000000000000000e+00  2.0275795283725693e-08 9.6734215200867862e-10 0.0000000000000000e+00  1.9206104244172831e-08 1.6247161850868823e-09 0.0000000000000000e+00  1.7562928352367145e-08 2.7000825829729115e-09 0.0000000000000000e+00  1.5086970846405953e-08 4.4941334426430043e-09 0.0000000000000000e+00  1.1396488529894620e-08 7.4806322613802503e-09 0.0000000000000000e+00  6.0255861679857455e-09 1.2125846713679655e-08 0.0000000000000000e+00  -1.2872053786739714e-09 1.7578138701894746e-08 0.0000000000000000e+00  -1.3237140420686204e-08 1.4701571998258028e-08 0.0000000000000000e+00  -7.4051018169051524e-09 -2.0206590837353722e-08 0.0000000000000000e+00  -1.5515698509727692e-09 -1.9935215432484414e-08 0.0000000000000000e+00  1.1325175748818693e-09 -1.5308865562478676e-08 0.0000000000000000e+00  3.9105111772496553e-09 -1.0426707559617958e-08 0.0000000000000000e+00  6.8062871974908903e-09 -6.8493984299240150e-09 0.0000000000000000e+00  9.3227766042536656e-09 -4.4405524566506317e-09 0.0000000000000000e+00  1.1262530391018960e-08 -2.8416725611613231e-09 0.0000000000000000e+00  1.2650337705084702e-08 -1.7610745212954110e-09 0.0000000000000000e+00  1.3570699766118735e-08 -9.9809211619707947e-10 0.0000000000000000e+00  1.4098302982446975e-08 -4.1472443164759445e-10 0.0000000000000000e+00  1.4280412278582397e-08 9.1705279863577407e-11 0.0000000000000000e+00  1.4134255356817319e-08 6.0879322505987880e-10 0.0000000000000000e+00  1.3647251742731008e-08 1.2250915459305307e-09 0.0000000000000000e+00  1.2777261607725518e-08 2.0456022920068623e-09 0.0000000000000000e+00  1.1454097948214016e-08 3.2093197488075540e-09 0.0000000000000000e+00  9.5885078985842351e-09 4.9072178367861236e-09 0.0000000000000000e+00  7.1054702799638467e-09 7.3828778513258537e-09 0.0000000000000000e+00  4.0359026919248777e-09 1.0845297487626764e-08 0.0000000000000000e+00  6.7277966490977588e-10 1.5102663293702360e-08 0.0000000000000000e+00  -2.6213725469135989e-09 1.8744322979339082e-08 0.0000000000000000e+00  -8.9349668659734752e-09 1.7543495416230312e-08 0.0000000000000000e+00  -5.5343296235770034e-09 -1.9592225886161055e-08 0.0000000000000000e+00  -1.8912643551581652e-09 -1.9672792861864944e-08 0.0000000000000000e+00  -9.2793155255514447e-10 -1.6726025198380614e-08 0.0000000000000000e+00  2.1158129592535231e-10 -1.2802664944283481e-08 0.0000000000000000e+00  1.8520855729511197e-09 -9.2489886116897266e-09 0.0000000000000000e+00  3.6248692016153496e-09 -6.4651102576068752e-09 0.0000000000000000e+00  5.2076963877874841e-09 -4.3924893515294745e-09 0.0000000000000000e+00  6.4568057269077449e-09 -2.8564627633197647e-09 0.0000000000000000e+00  7.3388664774686515e-09 -1.6855236042911788e-09 0.0000000000000000e+00  7.8634482040402078e-09 -7.3575485456505280e-10 0.0000000000000000e+00  8.0466216327924283e-09 1.1352516087394396e-10 0.0000000000000000e+00  7.8960335004577658e-09 9.7077686145607146e-10 0.0000000000000000e+00  7.4068179328399517e-09 1.9437477141468967e-09 0.0000000000000000e+00  6.5642506616911009e-09 3.1497869749945253e-09 0.0000000000000000e+00  5.3543963821018366e-09 4.7224380783454446e-09 0.0000000000000000e+00  3.7887985259434002e-09 6.8057547176570216e-09 0.0000000000000000e+00  1.9525676109170458e-09 9.5129976649929007e-09 0.0000000000000000e+00  7.2877499908152220e-11 1.2801987531670466e-08 0.0000000000000000e+00  -1.4856900349594329e-09 1.6221240024782897e-08 0.0000000000000000e+00  -2.7327791451398286e-09 1.8691996150970535e-08 0.0000000000000000e+00  -6.6469166646752154e-09 1.8529924541808331e-08 0.0000000000000000e+00  -4.4724628949349868e-09 -1.8438681270488935e-08 0.0000000000000000e+00  -2.0644855755656174e-09 -1.8739410996579785e-08 0.0000000000000000e+00  -2.0110305386366096e-09 -1.6749786948324382e-08 0.0000000000000000e+00  -1.9235623032424184e-09 -1.3770048264062820e-08 0.0000000000000000e+00  -1.3220928357733027e-09 -1.0654901877907837e-08 0.0000000000000000e+00  -3.7985761810999106e-10 -7.8947780184637839e-09 0.0000000000000000e+00  6.3561613014610072e-10 -5.6225485821846904e-09 0.0000000000000000e+00  1.5350434496796985e-09 -3.7952614900426182e-09 0.0000000000000000e+00  2.2187316857030901e-09 -2.3073879967429342e-09 0.0000000000000000e+00  2.6440732770707993e-09 -1.0409118033967876e-09 0.0000000000000000e+00  2.7965444170177833e-09 1.1895385661301594e-10 0.0000000000000000e+00  2.6732074724949031e-09 1.2822455492251760e-09 0.0000000000000000e+00  2.2769802138675252e-09 2.5570951105793475e-09 0.0000000000000000e+00  1.6197272329539143e-09 4.0515413402270322e-09 0.0000000000000000e+00  7.3432722907169547e-10 5.8688599178976609e-09 0.0000000000000000e+00  -3.0308915670972390e-10 8.0873867629316933e-09 0.0000000000000000e+00  -1.3438240820681337e-09 1.0710345552477892e-08 0.0000000000000000e+00  -2.1547513549629421e-09 1.3572757180963251e-08 0.0000000000000000e+00  -2.5168287908765547e-09 1.6230699576667364e-08 0.0000000000000000e+00  -2.7107421762541935e-09 1.7991388706498243e-08 0.0000000000000000e+00  -5.3057540550296104e-09 1.8286663006022578e-08 0.0000000000000000e+00  -3.7959546382183103e-09 -1.6987749754308696e-08 0.0000000000000000e+00  -2.1957804843044751e-09 -1.7440419480467297e-08 0.0000000000000000e+00  -2.6848313592319003e-09 -1.6029295954195826e-08 0.0000000000000000e+00  -3.2629609224486569e-09 -1.3761922225881882e-08 0.0000000000000000e+00  -3.4189408685729357e-09 -1.1164847186693253e-08 0.0000000000000000e+00  -3.1888775978310550e-09 -8.6408900844296079e-09 0.0000000000000000e+00  -2.7486615358113416e-09 -6.3854110025352061e-09 0.0000000000000000e+00  -2.2644423878464247e-09 -4.4405098418584648e-09 0.0000000000000000e+00  -1.8513321546831117e-09 -2.7645910033349773e-09 0.0000000000000000e+00  -1.5765781887799846e-09 -1.2785201459414552e-09 0.0000000000000000e+00  -1.4734504239933738e-09 1.1055337465599266e-10 0.0000000000000000e+00  -1.5523316662212416e-09 1.4985528560931801e-09 0.0000000000000000e+00  -1.8053563429427278e-09 2.9792247563916898e-09 0.0000000000000000e+00  -2.2043166890019500e-09 4.6384476970717562e-09 0.0000000000000000e+00  -2.6925099373425863e-09 6.5427012770888847e-09 0.0000000000000000e+00  -3.1729698797216144e-09 8.7157740753704020e-09 0.0000000000000000e+00  -3.5014747361920521e-09 1.1099059111905491e-08 0.0000000000000000e+00  -3.5082969399341651e-09 1.3500608197470542e-08 0.0000000000000000e+00  -3.1106712408602816e-09 1.5567254357541850e-08 0.0000000000000000e+00  -2.6955120389868232e-09 1.6872579524537739e-08 0.0000000000000000e+00  -4.4367665861816835e-09 1.7384807376926599e-08 0.0000000000000000e+00  -3.3287381989060909e-09 -1.5339368004491522e-08 0.0000000000000000e+00  -2.3036833673638502e-09 -1.5901493025725538e-08 0.0000000000000000e+00  -3.1519347688612232e-09 -1.4865337713040068e-08 0.0000000000000000e+00  -4.1643723900772800e-09 -1.3116910311183638e-08 0.0000000000000000e+00  -4.8523895066930412e-09 -1.0989764665473388e-08 0.0000000000000000e+00  -5.1749674958406699e-09 -8.7797174318875388e-09 0.0000000000000000e+00  -5.2298845019150455e-09 -6.6739554700806661e-09 0.0000000000000000e+00  -5.1388355355545945e-09 -4.7515865149292492e-09 0.0000000000000000e+00  -5.0030096463740959e-09 -3.0151154959038496e-09 0.0000000000000000e+00  -4.8916406010820057e-09 -1.4219477370740431e-09 0.0000000000000000e+00  -4.8438533199305634e-09 9.3194567312164376e-11 0.0000000000000000e+00  -4.8731777211052069e-09 1.6039594345884799e-09 0.0000000000000000e+00  -4.9700674886290087e-09 3.1822325963127453e-09 0.0000000000000000e+00  -5.1011647530554200e-09 4.8880708143729934e-09 0.0000000000000000e+00  -5.2062027343563691e-09 6.7560085743054810e-09 0.0000000000000000e+00  -5.1959258631636921e-09 8.7751416307463725e-09 0.0000000000000000e+00  -4.9588065985177117e-09 1.0863812997120550e-08 0.0000000000000000e+00  -4.3929029332125925e-09 1.2848150221347945e-08 0.0000000000000000e+00  -3.5018605761839836e-09 1.4468751811534301e-08 0.0000000000000000e+00  -2.6944302914444108e-09 1.5465348132225438e-08 0.0000000000000000e+00  -3.8318767074828474e-09 1.6098081933471967e-08 0.0000000000000000e+00  -2.9897144692012015e-09 -1.3547325307728334e-08 0.0000000000000000e+00  -2.3920014815154615e-09 -1.4190396736956214e-08 0.0000000000000000e+00  -3.4941010248887447e-09 -1.3412974368197982e-08 0.0000000000000000e+00  -4.8001427574195520e-09 -1.2049872522662684e-08 0.0000000000000000e+00  -5.8589042801068793e-09 -1.0320877523851011e-08 0.0000000000000000e+00  -6.5908009324378773e-09 -8.4358938470426427e-09 0.0000000000000000e+00  -7.0382624526081410e-09 -6.5500116618731366e-09 0.0000000000000000e+00  -7.2795554301006577e-09 -4.7490528061884239e-09 0.0000000000000000e+00  -7.3909596421819283e-09 -3.0593400674374623e-09 0.0000000000000000e+00  -7.4309896262459401e-09 -1.4656516262531086e-09 0.0000000000000000e+00  -7.4356529303785982e-09 7.1658491262385040e-11 0.0000000000000000e+00  -7.4182055931184157e-09 1.6027568561276247e-09 0.0000000000000000e+00  -7.3698107624146319e-09 3.1767133221589614e-09 0.0000000000000000e+00  -7.2598553211300892e-09 4.8301791221344210e-09 0.0000000000000000e+00  -7.0366374747155345e-09 6.5745928695667351e-09 0.0000000000000000e+00  -6.6311277555697058e-09 8.3815089832390949e-09 0.0000000000000000e+00  -5.9690265632759309e-09 1.0168649508127924e-08 0.0000000000000000e+00  -5.0010046765919586e-09 1.1794292000894993e-08 0.0000000000000000e+00  -3.7786087560662254e-09 1.3074231112689790e-08 0.0000000000000000e+00  -2.6999877388910839e-09 1.3850840998501559e-08 0.0000000000000000e+00  -3.3898841713098848e-09 1.4560045825945194e-08 0.0000000000000000e+00  -2.7373868398871372e-09 -1.1647688244736759e-08 0.0000000000000000e+00  -2.4629915137326892e-09 -1.2351490329205762e-08 0.0000000000000000e+00  -3.7503054781963713e-09 -1.1763254794625526e-08 0.0000000000000000e+00  -5.2597510244817847e-09 -1.0696717973087481e-08 0.0000000000000000e+00  -6.5766545948205373e-09 -9.3028796267158860e-09 0.0000000000000000e+00  -7.6039105394773066e-09 -7.7292751024652953e-09 0.0000000000000000e+00  -8.3476651748293627e-09 -6.0962618190922901e-09 0.0000000000000000e+00  -8.8511329998261750e-09 -4.4817956380427637e-09 0.0000000000000000e+00  -9.1650214553224348e-09 -2.9215083517630793e-09 0.0000000000000000e+00  -9.3324810601200956e-09 -1.4175865141628892e-09 0.0000000000000000e+00  -9.3819720644964555e-09 4.9587315498197475e-11 0.0000000000000000e+00  -9.3245300374039177e-09 1.5099225675589302e-09 0.0000000000000000e+00  -9.1532715454868123e-09 2.9928422977670922e-09 0.0000000000000000e+00  -8.8442809534267502e-09 4.5168166075938881e-09 0.0000000000000000e+00  -8.3593002049745471e-09 6.0788445767072279e-09 0.0000000000000000e+00  -7.6518544336876926e-09 7.6445361478563351e-09 0.0000000000000000e+00  -6.6797483625981519e-09 9.1413520546701951e-09 0.0000000000000000e+00  -5.4300754608075148e-09 1.0459985826093127e-08 0.0000000000000000e+00  -3.9793651637175755e-09 1.1471839286860454e-08 0.0000000000000000e+00  -2.7060166143354766e-09 1.2083740430442693e-08 0.0000000000000000e+00  -3.0566479969077627e-09 1.2845283582077125e-08 0.0000000000000000e+00  -2.5486884240758706e-09 -9.6677717674342460e-09 0.0000000000000000e+00  -2.5190999154261199e-09 -1.0417386892025849e-08 0.0000000000000000e+00  -3.9427177610289061e-09 -9.9753376822440455e-09 0.0000000000000000e+00  -5.5944373358742904e-09 -9.1469186010993409e-09 0.0000000000000000e+00  -7.0904474214794532e-09 -8.0402142865684943e-09 0.0000000000000000e+00  -8.3266820986045383e-09 -6.7586484451433000e-09 0.0000000000000000e+00  -9.2863553369725302e-09 -5.3922281650449193e-09 0.0000000000000000e+00  -9.9868004981973249e-09 -4.0056814393643026e-09 0.0000000000000000e+00  -1.0456911779592183e-08 -2.6352018877783311e-09 0.0000000000000000e+00  -1.0724617619027611e-08 -1.2922027174281679e-09 0.0000000000000000e+00  -1.0809716650032669e-08 2.9323121084491712e-11 0.0000000000000000e+00  -1.0720319509606542e-08 1.3441585545612838e-09 0.0000000000000000e+00  -1.0451838494090195e-08 2.6670371206833334e-09 0.0000000000000000e+00  -9.9880561402431817e-09 4.0040525055773017e-09 0.0000000000000000e+00  -9.3044508115425609e-09 5.3446975499493894e-09 0.0000000000000000e+00  -8.3745494757627784e-09 6.6555084625655888e-09 0.0000000000000000e+00  -7.1807929918800925e-09 7.8772660996150670e-09 0.0000000000000000e+00  -5.7342951503229793e-09 8.9286897152808338e-09 0.0000000000000000e+00  -4.1241941717058306e-09 9.7213024605924095e-09 0.0000000000000000e+00  -2.7091007957405901e-09 1.0203394980230334e-08 0.0000000000000000e+00  -2.8010687202024589e-09 1.1001587361475174e-08 0.0000000000000000e+00  -2.4100636824370678e-09 -7.6293807188145727e-09 0.0000000000000000e+00  -2.5630009134416872e-09 -8.4134897121932307e-09 0.0000000000000000e+00  -4.0859607171999851e-09 -8.0904685098950327e-09 0.0000000000000000e+00  -5.8365501437186139e-09 -7.4617990987123922e-09 0.0000000000000000e+00  -7.4553109905486404e-09 -6.6078098434567186e-09 0.0000000000000000e+00  -8.8362043435376286e-09 -5.6005834382370661e-09 0.0000000000000000e+00  -9.9482525931634203e-09 -4.5053790474740226e-09 0.0000000000000000e+00  -1.0790675239781789e-08 -3.3726907984438773e-09 0.0000000000000000e+00  -1.1375525390354357e-08 -2.2345301055840459e-09 0.0000000000000000e+00  -1.1717875606011394e-08 -1.1056266180251163e-09 0.0000000000000000e+00  -1.1829622805533972e-08 1.2157075665856392e-11 0.0000000000000000e+00  -1.1716027745712243e-08 1.1237793928596312e-09 0.0000000000000000e+00  -1.1374595806909727e-08 2.2344144493081309e-09 0.0000000000000000e+00  -1.0796102998214333e-08 3.3429908549774465e-09 0.0000000000000000e+00  -9.9677915576499955e-09 4.4365360410236176e-09 0.0000000000000000e+00  -8.8789768926740473e-09 5.4862528163940131e-09 0.0000000000000000e+00  -7.5298085175093924e-09 6.4466564601446128e-09 0.0000000000000000e+00  -5.9468840307156494e-09 7.2594243202081343e-09 0.0000000000000000e+00  -4.2255954892813806e-09 7.8651157493306265e-09 0.0000000000000000e+00  -2.7079087773578101e-09 8.2394786121818795e-09 0.0000000000000000e+00  -2.6044622281307990e-09 9.0628533345495932e-09 0.0000000000000000e+00  -2.3133060982749646e-09 -5.5502976082548289e-09 0.0000000000000000e+00  -2.5973662593992452e-09 -6.3601111246861940e-09 0.0000000000000000e+00  -4.1905890934561872e-09 -6.1387996765425122e-09 0.0000000000000000e+00  -6.0080234698050290e-09 -5.6848563882631656e-09 0.0000000000000000e+00  -7.7085008152440084e-09 -5.0598420771128666e-09 0.0000000000000000e+00  -9.1861913255047379e-09 -4.3130092362466888e-09 0.0000000000000000e+00  -1.0401546404804595e-08 -3.4897084022587000e-09 0.0000000000000000e+00  -1.1341676884735294e-08 -2.6268694837260390e-09 0.0000000000000000e+00  -1.2006559297533352e-08 -1.7499476131787670e-09 0.0000000000000000e+00  -1.2401479462240261e-08 -8.7302445799581051e-10 0.0000000000000000e+00  -1.2532014512259075e-08 -1.3228341339305372e-12 0.0000000000000000e+00  -1.2401035974762251e-08 8.6484217327302799e-10 0.0000000000000000e+00  -1.2007679593927460e-08 1.7255108788655160e-09 0.0000000000000000e+00  -1.1348242663216957e-08 2.5765992045676158e-09 0.0000000000000000e+00  -1.0418955225541259e-08 3.4061276889825550e-09 0.0000000000000000e+00  -9.2206019104310792e-09 4.1918843628881952e-09 0.0000000000000000e+00  -7.7654286198384510e-09 4.9013632089331241e-09 0.0000000000000000e+00  -6.0898436551008077e-09 5.4949089805539232e-09 0.0000000000000000e+00  -4.2923699150407195e-09 5.9345909484204814e-09 0.0000000000000000e+00  -2.7023765205193045e-09 6.2150266881983437e-09 0.0000000000000000e+00  -2.4553208657559779e-09 7.0546306321678023e-09 0.0000000000000000e+00  -2.2534418237593505e-09 -3.4452586477503054e-09 0.0000000000000000e+00  -2.6246194652686864e-09 -4.2737560775031473e-09 0.0000000000000000e+00  -4.2644080889957934e-09 -4.1431868143014104e-09 0.0000000000000000e+00  -6.1241317969300397e-09 -3.8479631741935454e-09 0.0000000000000000e+00  -7.8755421312297972e-09 -3.4361666782841625e-09 0.0000000000000000e+00  -9.4138352300651544e-09 -2.9396561831153683e-09 0.0000000000000000e+00  -1.0694564297644910e-08 -2.38744855976