<?xml version="1.0"?>
<VTKFile type="UnstructuredGrid"  version="0.1"  >
<UnstructuredGrid>
<Piece  NumberOfPoints="651" NumberOfCells="1200">
<Points>
<DataArray  type="Float64"  NumberOfComponents="3"  format="ascii">0 0 0  50000 0 0  100000 0 0  150000 0 0  200000 0 0  250000 0 0  300000 0 0  350000 0 0  400000 0 0  450000 0 0  500000 0 0  550000 0 0  600000 0 0  650000 0 0  700000 0 0  750000 0 0  800000 0 0  850000 0 0  900000 0 0  950000 0 0  1000000 0 0  0 50000 0  50000 50000 0  100000 50000 0  150000 50000 0  200000 50000 0  250000 50000 0  300000 50000 0  350000 50000 0  400000 50000 0  450000 50000 0  500000 50000 0  550000 50000 0  600000 50000 0  650000 50000 0  700000 50000 0  750000 50000 0  800000 50000 0  850000 50000 0  900000 50000 0  950000 50000 0  1000000 50000 0  0 100000 0  50000 100000 0  100000 100000 0  150000 100000 0  200000 100000 0  250000 100000 0  300000 100000 0  350000 100000 0  400000 100000 0  450000 100000 0  500000 100000 0  550000 100000 0  600000 100000 0  650000 100000 0  700000 100000 0  750000 100000 0  800000 100000 0  850000 100000 0  900000 100000 0  950000 100000 0  1000000 100000 0  0 150000 0  50000 150000 0  100000 150000 0  150000 150000 0  200000 150000 0  250000 150000 0  300000 150000 0  350000 150000 0  400000 150000 0  450000 150000 0  500000 150000 0  550000 150000 0  600000 150000 0  650000 150000 0  700000 150000 0  750000 150000 0  800000 150000 0  850000 150000 0  900000 150000 0  950000 150000 0  1000000 150000 0  0 200000 0  50000 200000 0  100000 200000 0  150000 200000 0  200000 200000 0  250000 200000 0  300000 200000 0  350000 200000 0  400000 200000 0  450000 200000 0  500000 200000 0  550000 200000 0  600000 200000 0  650000 200000 0  700000 200000 0  750000 200000 0  800000 200000 0  850000 200000 0  900000 200000 0  950000 200000 0  1000000 200000 0  0 250000 0  50000 250000 0  100000 250000 0  150000 250000 0  200000 250000 0  250000 250000 0  300000 250000 0  350000 250000 0  400000 250000 0  450000 250000 0  500000 250000 0  550000 250000 0  600000 250000 0  650000 250000 0  700000 250000 0  750000 250000 0  800000 250000 0  850000 250000 0  900000 250000 0  950000 250000 0  1000000 250000 0  0 300000 0  50000 300000 0  100000 300000 0  150000 300000 0  200000 300000 0  250000 300000 0  300000 300000 0  350000 300000 0  400000 300000 0  450000 300000 0  500000 300000 0  550000 300000 0  600000 300000 0  650000 300000 0  700000 300000 0  750000 300000 0  800000 300000 0  850000 300000 0  900000 300000 0  950000 300000 0  1000000 300000 0  0 350000 0  50000 350000 0  100000 350000 0  150000 350000 0  200000 350000 0  250000 350000 0  300000 350000 0  350000 350000 0  400000 350000 0  450000 350000 0  500000 350000 0  550000 350000 0  600000 350000 0  650000 350000 0  700000 350000 0  750000 350000 0  800000 350000 0  850000 350000 0  900000 350000 0  950000 350000 0  1000000 350000 0  0 400000 0  50000 400000 0  100000 400000 0  150000 400000 0  200000 400000 0  250000 400000 0  300000 400000 0  350000 400000 0  400000 400000 0  450000 400000 0  500000 400000 0  550000 400000 0  600000 400000 0  650000 400000 0  700000 400000 0  750000 400000 0  800000 400000 0  850000 400000 0  900000 400000 0  950000 400000 0  1000000 400000 0  0 450000 0  50000 450000 0  100000 450000 0  150000 450000 0  200000 450000 0  250000 450000 0  300000 450000 0  350000 450000 0  400000 450000 0  450000 450000 0  500000 450000 0  550000 450000 0  600000 450000 0  650000 450000 0  700000 450000 0  750000 450000 0  800000 450000 0  850000 450000 0  900000 450000 0  950000 450000 0  1000000 450000 0  0 500000 0  50000 500000 0  100000 500000 0  150000 500000 0  200000 500000 0  250000 500000 0  300000 500000 0  350000 500000 0  400000 500000 0  450000 500000 0  500000 500000 0  550000 500000 0  600000 500000 0  650000 500000 0  700000 500000 0  750000 500000 0  800000 500000 0  850000 500000 0  900000 500000 0  950000 500000 0  1000000 500000 0  0 550000 0  50000 550000 0  100000 550000 0  150000 550000 0  200000 550000 0  250000 550000 0  300000 550000 0  350000 550000 0  400000 550000 0  450000 550000 0  500000 550000 0  550000 550000 0  600000 550000 0  650000 550000 0  700000 550000 0  750000 550000 0  800000 550000 0  850000 550000 0  900000 550000 0  950000 550000 0  1000000 550000 0  0 600000 0  50000 600000 0  100000 600000 0  150000 600000 0  200000 600000 0  250000 600000 0  300000 600000 0  350000 600000 0  400000 600000 0  450000 600000 0  500000 600000 0  550000 600000 0  600000 600000 0  650000 600000 0  700000 600000 0  750000 600000 0  800000 600000 0  850000 600000 0  900000 600000 0  950000 600000 0  1000000 600000 0  0 650000 0  50000 650000 0  100000 650000 0  150000 650000 0  200000 650000 0  250000 650000 0  300000 650000 0  350000 650000 0  400000 650000 0  450000 650000 0  500000 650000 0  550000 650000 0  600000 650000 0  650000 650000 0  700000 650000 0  750000 650000 0  800000 650000 0  850000 650000 0  900000 650000 0  950000 650000 0  1000000 650000 0  0 700000 0  50000 700000 0  100000 700000 0  150000 700000 0  200000 700000 0  250000 700000 0  300000 700000 0  350000 700000 0  400000 700000 0  450000 700000 0  500000 700000 0  550000 700000 0  600000 700000 0  650000 700000 0  700000 700000 0  750000 700000 0  800000 700000 0  850000 700000 0  900000 700000 0  950000 700000 0  1000000 700000 0  0 750000 0  50000 750000 0  100000 750000 0  150000 750000 0  200000 750000 0  250000 750000 0  300000 750000 0  350000 750000 0  400000 750000 0  450000 750000 0  500000 750000 0  550000 750000 0  600000 750000 0  650000 750000 0  700000 750000 0  750000 750000 0  800000 750000 0  850000 750000 0  900000 750000 0  950000 750000 0  1000000 750000 0  0 800000 0  50000 800000 0  100000 800000 0  150000 800000 0  200000 800000 0  250000 800000 0  300000 800000 0  350000 800000 0  400000 800000 0  450000 800000 0  500000 800000 0  550000 800000 0  600000 800000 0  650000 800000 0  700000 800000 0  750000 800000 0  800000 800000 0  850000 800000 0  900000 800000 0  950000 800000 0  1000000 800000 0  0 850000 0  50000 850000 0  100000 850000 0  150000 850000 0  200000 850000 0  250000 850000 0  300000 850000 0  350000 850000 0  400000 850000 0  450000 850000 0  500000 850000 0  550000 850000 0  600000 850000 0  650000 850000 0  700000 850000 0  750000 850000 0  800000 850000 0  850000 850000 0  900000 850000 0  950000 850000 0  1000000 850000 0  0 900000 0  50000 900000 0  100000 900000 0  150000 900000 0  200000 900000 0  250000 900000 0  300000 900000 0  350000 900000 0  400000 900000 0  450000 900000 0  500000 900000 0  550000 900000 0  600000 900000 0  650000 900000 0  700000 900000 0  750000 900000 0  800000 900000 0  850000 900000 0  900000 900000 0  950000 900000 0  1000000 900000 0  0 950000 0  50000 950000 0  100000 950000 0  150000 950000 0  200000 950000 0  250000 950000 0  300000 950000 0  350000 950000 0  400000 950000 0  450000 950000 0  500000 950000 0  550000 950000 0  600000 950000 0  650000 950000 0  700000 950000 0  750000 950000 0  800000 950000 0  850000 950000 0  900000 950000 0  950000 950000 0  1000000 950000 0  0 1000000 0  50000 1000000 0  100000 1000000 0  150000 1000000 0  200000 1000000 0  250000 1000000 0  300000 1000000 0  350000 1000000 0  400000 1000000 0  450000 1000000 0  500000 1000000 0  550000 1000000 0  600000 1000000 0  650000 1000000 0  700000 1000000 0  750000 1000000 0  800000 1000000 0  850000 1000000 0  900000 1000000 0  950000 1000000 0  1000000 1000000 0  0 1050000 0  50000 1050000 0  100000 1050000 0  150000 1050000 0  200000 1050000 0  250000 1050000 0  300000 1050000 0  350000 1050000 0  400000 1050000 0  450000 1050000 0  500000 1050000 0  550000 1050000 0  600000 1050000 0  650000 1050000 0  700000 1050000 0  750000 1050000 0  800000 1050000 0  850000 1050000 0  900000 1050000 0  950000 1050000 0  1000000 1050000 0  0 1100000 0  50000 1100000 0  100000 1100000 0  150000 1100000 0  200000 1100000 0  250000 1100000 0  300000 1100000 0  350000 1100000 0  400000 1100000 0  450000 1100000 0  500000 1100000 0  550000 1100000 0  600000 1100000 0  650000 1100000 0  700000 1100000 0  750000 1100000 0  800000 1100000 0  850000 1100000 0  900000 1100000 0  950000 1100000 0  1000000 1100000 0  0 1150000 0  50000 1150000 0  100000 1150000 0  150000 1150000 0  200000 1150000 0  250000 1150000 0  300000 1150000 0  350000 1150000 0  400000 1150000 0  450000 1150000 0  500000 1150000 0  550000 1150000 0  600000 1150000 0  650000 1150000 0  700000 1150000 0  750000 1150000 0  800000 1150000 0  850000 1150000 0  900000 1150000 0  950000 1150000 0  1000000 1150000 0  0 1200000 0  50000 1200000 0  100000 1200000 0  150000 1200000 0  200000 1200000 0  250000 1200000 0  300000 1200000 0  350000 1200000 0  400000 1200000 0  450000 1200000 0  500000 1200000 0  550000 1200000 0  600000 1200000 0  650000 1200000 0  700000 1200000 0  750000 1200000 0  800000 1200000 0  850000 1200000 0  900000 1200000 0  950000 1200000 0  1000000 1200000 0  0 1250000 0  50000 1250000 0  100000 1250000 0  150000 1250000 0  200000 1250000 0  250000 1250000 0  300000 1250000 0  350000 1250000 0  400000 1250000 0  450000 1250000 0  500000 1250000 0  550000 1250000 0  600000 1250000 0  650000 1250000 0  700000 1250000 0  750000 1250000 0  800000 1250000 0  850000 1250000 0  900000 1250000 0  950000 1250000 0  1000000 1250000 0  0 1300000 0  50000 1300000 0  100000 1300000 0  150000 1300000 0  200000 1300000 0  250000 1300000 0  300000 1300000 0  350000 1300000 0  400000 1300000 0  450000 1300000 0  500000 1300000 0  550000 1300000 0  600000 1300000 0  650000 1300000 0  700000 1300000 0  750000 1300000 0  800000 1300000 0  850000 1300000 0  900000 1300000 0  950000 1300000 0  1000000 1300000 0  0 1350000 0  50000 1350000 0  100000 1350000 0  150000 1350000 0  200000 1350000 0  250000 1350000 0  300000 1350000 0  350000 1350000 0  400000 1350000 0  450000 1350000 0  500000 1350000 0  550000 1350000 0  600000 1350000 0  650000 1350000 0  700000 135
[...]
<PointData  Vectors="f_7489"> 
<DataArray  type="Float64"  Name="f_7489"  NumberOfComponents="3" format="ascii">-2.4106944355719633e-08 -9.8468868125071751e-09 0.0000000000000000e+00  4.8939114154076308e-08 -6.0251218732413625e-09 0.0000000000000000e+00  4.3126872365543036e-08 -1.8403433029425241e-09 0.0000000000000000e+00  4.0591304687013773e-08 -5.2622244520074040e-10 0.0000000000000000e+00  3.9296805977990274e-08 -6.8962814753387258e-11 0.0000000000000000e+00  3.8420143215662753e-08 1.3535266239189106e-10 0.0000000000000000e+00  3.7767900183754671e-08 2.4824321256911358e-10 0.0000000000000000e+00  3.7283944718672304e-08 3.2412892627445414e-10 0.0000000000000000e+00  3.6950815469756785e-08 3.8634324366692308e-10 0.0000000000000000e+00  3.6764720895215121e-08 4.4783855380176633e-10 0.0000000000000000e+00  3.6728265437451441e-08 5.1786058754503811e-10 0.0000000000000000e+00  3.6849155071582941e-08 6.0453435018231373e-10 0.0000000000000000e+00  3.7142281474564869e-08 7.1628492610454291e-10 0.0000000000000000e+00  3.7636129689049641e-08 8.6359241692074163e-10 0.0000000000000000e+00  3.8388584681158823e-08 1.0635926495921705e-09 0.0000000000000000e+00  3.9527462730790416e-08 1.3549244492756618e-09 0.0000000000000000e+00  4.1357282107304061e-08 1.8448388297618098e-09 0.0000000000000000e+00  4.4611508717964163e-08 2.8422064629792161e-09 0.0000000000000000e+00  5.0575261332375677e-08 5.1543974987410736e-09 0.0000000000000000e+00  5.7837205730193957e-08 9.4562963107325598e-09 0.0000000000000000e+00  -1.6679609664940391e-08 7.3859152863676427e-09 0.0000000000000000e+00  -1.7975680191838909e-08 -1.5246605131488485e-08 0.0000000000000000e+00  7.0852362167553071e-09 -1.1084863725653998e-08 0.0000000000000000e+00  1.7811488966690512e-08 -5.1699768454982616e-09 0.0000000000000000e+00  2.2935064976610337e-08 -2.2966670645397531e-09 0.0000000000000000e+00  2.5560462307066818e-08 -1.0297111416789099e-09 0.0000000000000000e+00  2.7025893367487390e-08 -4.3218389459804004e-10 0.0000000000000000e+00  2.7863253221486897e-08 -1.3329238602498399e-10 0.0000000000000000e+00  2.8341664288853374e-08 1.9574535504051945e-11 0.0000000000000000e+00  2.8609949986972375e-08 9.6350664196853390e-11 0.0000000000000000e+00  2.8752191228177322e-08 1.3418698392301851e-10 0.0000000000000000e+00  2.8813798770901911e-08 1.5666664353126631e-10 0.0000000000000000e+00  2.8813589480306400e-08 1.8254039393064618e-10 0.0000000000000000e+00  2.8747918640741925e-08 2.3145446718741789e-10 0.0000000000000000e+00  2.8588629292516164e-08 3.3075639596268745e-10 0.0000000000000000e+00  2.8273285713453564e-08 5.2829748250025883e-10 0.0000000000000000e+00  2.7680867718426071e-08 9.2123346531858609e-10 0.0000000000000000e+00  2.6570454638019244e-08 1.7229135082646288e-09 0.0000000000000000e+00  2.4397446637743080e-08 3.4067570300159784e-09 0.0000000000000000e+00  1.9670254954733119e-08 6.9077497665306836e-09 0.0000000000000000e+00  8.0810574774398414e-09 1.3191823305939807e-08 0.0000000000000000e+00  -1.8644980014863426e-08 1.1221485488550976e-08 0.0000000000000000e+00  -1.1161869357644323e-08 -1.8707411257145169e-08 0.0000000000000000e+00  -4.3663071385683981e-10 -1.8297214065965689e-08 0.0000000000000000e+00  5.4368401587736414e-09 -1.1377489474254355e-08 0.0000000000000000e+00  1.0278114569067819e-08 -6.5726130492326223e-09 0.0000000000000000e+00  1.4122458830836332e-08 -3.7738613903635635e-09 0.0000000000000000e+00  1.6811068865876396e-08 -2.1790392238420759e-09 0.0000000000000000e+00  1.8616615698374427e-08 -1.2481584376163931e-09 0.0000000000000000e+00  1.9805588268125907e-08 -6.8700497381679148e-10 0.0000000000000000e+00  2.0561035136790758e-08 -3.3429754878870485e-10 0.0000000000000000e+00  2.0996911462624330e-08 -9.4981746567670406e-11 0.0000000000000000e+00  2.1176142539672196e-08 9.4685603881380420e-11 0.0000000000000000e+00  2.1121495393598790e-08 2.8647171393229086e-10 0.0000000000000000e+00  2.0819169179470125e-08 5.3390904316756732e-10 0.0000000000000000e+00  2.0215555298336324e-08 9.0706214536454843e-10 0.0000000000000000e+00  1.9206561535321690e-08 1.5147982873784419e-09 0.0000000000000000e+00  1.7618089841948627e-08 2.5426970874742011e-09 0.0000000000000000e+00  1.5177987580264756e-08 4.3121470400383951e-09 0.0000000000000000e+00  1.1492987305483655e-08 7.3280836322739220e-09 0.0000000000000000e+00  6.0979674626205831e-09 1.2074934568866389e-08 0.0000000000000000e+00  -1.3282021946279575e-09 1.7580201616119167e-08 0.0000000000000000e+00  -1.3708789690078092e-08 1.4925004797946439e-08 0.0000000000000000e+00  -7.5697983309014356e-09 -1.9265817323836376e-08 0.0000000000000000e+00  -1.6534264369717762e-09 -1.9535369563824908e-08 0.0000000000000000e+00  8.4812297440489926e-10 -1.5274363257168614e-08 0.0000000000000000e+00  3.5173703399083464e-09 -1.0458590396200359e-08 0.0000000000000000e+00  6.3894414124962757e-09 -6.8731425985007497e-09 0.0000000000000000e+00  8.9304635563661566e-09 -4.4457476956996340e-09 0.0000000000000000e+00  1.0914865055237916e-08 -2.8340451755580449e-09 0.0000000000000000e+00  1.2354921173380233e-08 -1.7493732629829946e-09 0.0000000000000000e+00  1.3331142418391905e-08 -9.9088114706029600e-10 0.0000000000000000e+00  1.3917629166190382e-08 -4.2014959574038667e-10 0.0000000000000000e+00  1.4161921451710451e-08 6.5478107665761488e-11 0.0000000000000000e+00  1.4081159546262015e-08 5.5336602862441582e-10 0.0000000000000000e+00  1.3661491621131576e-08 1.1323729287044467e-09 0.0000000000000000e+00  1.2857616246929487e-08 1.9096754019782320e-09 0.0000000000000000e+00  1.1593891765370552e-08 3.0303045848898831e-09 0.0000000000000000e+00  9.7739284667131577e-09 4.6973808753363482e-09 0.0000000000000000e+00  7.3166409443636409e-09 7.1732764843275930e-09 0.0000000000000000e+00  4.2525952310216223e-09 1.0686040093876844e-08 0.0000000000000000e+00  8.7483639677627733e-10 1.5040761140061334e-08 0.0000000000000000e+00  -2.5785381262127157e-09 1.8718167769847645e-08 0.0000000000000000e+00  -9.6620066762713807e-09 1.7842791378824937e-08 0.0000000000000000e+00  -5.7633534312059166e-09 -1.8635523934818419e-08 0.0000000000000000e+00  -1.9582904962437559e-09 -1.9121129172759256e-08 0.0000000000000000e+00  -1.1056321875080294e-09 -1.6563410747024180e-08 0.0000000000000000e+00  -6.6817368411047748e-11 -1.2785139206817401e-08 0.0000000000000000e+00  1.5236482346577074e-09 -9.2788590805823351e-09 0.0000000000000000e+00  3.2959495855179669e-09 -6.5062629069613427e-09 0.0000000000000000e+00  4.9108081689465564e-09 -4.4359056138617633e-09 0.0000000000000000e+00  6.2108154575731008e-09 -2.9038491929560788e-09 0.0000000000000000e+00  7.1546129177320037e-09 -1.7424293831237116e-09 0.0000000000000000e+00  7.7473764223322179e-09 -8.0899224364345759e-10 0.0000000000000000e+00  8.0024457691992426e-09 1.6868889354820362e-11 0.0000000000000000e+00  7.9250187076230889e-09 8.4407047007070935e-10 0.0000000000000000e+00  7.5071782648836233e-09 1.7820345273997786e-09 0.0000000000000000e+00  6.7300970939329107e-09 2.9519905505022099e-09 0.0000000000000000e+00  5.5748391936323987e-09 4.4947822712910913e-09 0.0000000000000000e+00  4.0481536536328865e-09 6.5659302967415296e-09 0.0000000000000000e+00  2.2325895309490245e-09 9.2931075003492427e-09 0.0000000000000000e+00  3.5532822173929441e-10 1.2646135446608671e-08 0.0000000000000000e+00  -1.2316475575145599e-09 1.6172317822431225e-08 0.0000000000000000e+00  -2.6869609815655094e-09 1.8730517307054399e-08 0.0000000000000000e+00  -7.5334004776960085e-09 1.8962716109928242e-08 0.0000000000000000e+00  -4.7413993313131049e-09 -1.7478945588278235e-08 0.0000000000000000e+00  -2.1133874756904624e-09 -1.8104626130701825e-08 0.0000000000000000e+00  -2.1174238418423195e-09 -1.6476653743648610e-08 0.0000000000000000e+00  -2.1054109131942901e-09 -1.3684814039849011e-08 0.0000000000000000e+00  -1.5548043495885814e-09 -1.0665798476747074e-08 0.0000000000000000e+00  -6.2529221554048732e-10 -7.9536472834396834e-09 0.0000000000000000e+00  4.0989932167159607e-10 -5.7077517003631960e-09 0.0000000000000000e+00  1.3521090853667021e-09 -3.8994046709061874e-09 0.0000000000000000e+00  2.0935878518223001e-09 -2.4301282933010125e-09 0.0000000000000000e+00  2.5857140339519738e-09 -1.1850669188511264e-09 0.0000000000000000e+00  2.8093365354915534e-09 -5.0422799046872544e-11 0.0000000000000000e+00  2.7574466024198772e-09 1.0844353882691295e-09 0.0000000000000000e+00  2.4288413259539263e-09 2.3299411617091902e-09 0.0000000000000000e+00  1.8309915857840738e-09 3.7986503774596906e-09 0.0000000000000000e+00  9.9238903346411778e-10 5.6011026409840734e-09 0.0000000000000000e+00  -1.4430806495176783e-11 7.8256642211008502e-09 0.0000000000000000e+00  -1.0428751061696247e-09 1.0487233741618330e-08 0.0000000000000000e+00  -1.8625118774978220e-09 1.3431732637620110e-08 0.0000000000000000e+00  -2.2735096809218181e-09 1.6222277154304489e-08 0.0000000000000000e+00  -2.6982184755222535e-09 1.8137799977327362e-08 0.0000000000000000e+00  -6.2510408128702345e-09 1.8856113541476919e-08 0.0000000000000000e+00  -4.0914897611456754e-09 -1.6031482759660610e-08 0.0000000000000000e+00  -2.2351369202297495e-09 -1.6760219594501224e-08 0.0000000000000000e+00  -2.7440039452618053e-09 -1.5678934866751153e-08 0.0000000000000000e+00  -3.3723625761989674e-09 -1.3616637696689098e-08 0.0000000000000000e+00  -3.5692797108394589e-09 -1.1149130633322087e-08 0.0000000000000000e+00  -3.3540292576115564e-09 -8.7056311025538790e-09 0.0000000000000000e+00  -2.9016349102730835e-09 -6.5019339862160283e-09 0.0000000000000000e+00  -2.3832086924651296e-09 -4.5938314091453755e-09 0.0000000000000000e+00  -1.9201449020946503e-09 -2.9479256966993558e-09 0.0000000000000000e+00  -1.5856138048508415e-09 -1.4894244034488439e-09 0.0000000000000000e+00  -1.4181482364976417e-09 -1.2715725905453323e-10 0.0000000000000000e+00  -1.4329336000512122e-09 1.2351929895468850e-09 0.0000000000000000e+00  -1.6266850158397198e-09 2.6937339477461206e-09 0.0000000000000000e+00  -1.9756004834220741e-09 4.3388259453706018e-09 0.0000000000000000e+00  -2.4269822937665201e-09 6.2436974024981928e-09 0.0000000000000000e+00  -2.8870897793967575e-09 8.4410212308265095e-09 0.0000000000000000e+00  -3.2141859431148186e-09 1.0882712756684763e-08 0.0000000000000000e+00  -3.2426507100637180e-09 1.3388509015638623e-08 0.0000000000000000e+00  -2.9087085688962421e-09 1.5617675513945940e-08 0.0000000000000000e+00  -2.7217306889485350e-09 1.7133106344141886e-08 0.0000000000000000e+00  -5.3703475694667554e-09 1.8067292211299614e-08 0.0000000000000000e+00  -3.6432284765742959e-09 -1.4389871983173106e-08 0.0000000000000000e+00  -2.3388404835241648e-09 -1.5197824532101126e-08 0.0000000000000000e+00  -3.1805471455452280e-09 -1.4465378045424134e-08 0.0000000000000000e+00  -4.2221884729631759e-09 -1.2927115500390829e-08 0.0000000000000000e+00  -4.9385369160135061e-09 -1.0950304647163377e-08 0.0000000000000000e+00  -5.2725718456967578e-09 -8.8454954964090616e-09 0.0000000000000000e+00  -5.3185322186641776e-09 -6.8138042162529380e-09 0.0000000000000000e+00  -5.2000779052442923e-09 -4.9454426268208783e-09 0.0000000000000000e+00  -5.0227071197259273e-09 -3.2506063641730866e-09 0.0000000000000000e+00  -4.8606756908475440e-09 -1.6913044943312158e-09 0.0000000000000000e+00  -4.7581402186317779e-09 -2.0430787134087858e-10 0.0000000000000000e+00  -4.7334563320566426e-09 1.2841575158572040e-09 0.0000000000000000e+00  -4.7816438999493452e-09 2.8481189667963428e-09 0.0000000000000000e+00  -4.8735674145525916e-09 4.5517730480343621e-09 0.0000000000000000e+00  -4.9526616423030334e-09 6.4357861578323468e-09 0.0000000000000000e+00  -4.9326760348254093e-09 8.4972947638456704e-09 0.0000000000000000e+00  -4.7045675673521756e-09 1.0664512597724377e-08 0.0000000000000000e+00  -4.1701376409379555e-09 1.2775449479823541e-08 0.0000000000000000e+00  -3.3486398201993751e-09 1.4584324639603316e-08 0.0000000000000000e+00  -2.7514756216952715e-09 1.5827213431708971e-08 0.0000000000000000e+00  -4.7142595885787071e-09 1.6863718788572491e-08 0.0000000000000000e+00  -3.3189129892297186e-09 -1.2605990672535692e-08 0.0000000000000000e+00  -2.4263720613976451e-09 -1.3477137168369295e-08 0.0000000000000000e+00  -3.5035581232469306e-09 -1.2983476837116880e-08 0.0000000000000000e+00  -4.8226424673632347e-09 -1.1831001319149566e-08 0.0000000000000000e+00  -5.8979295515667446e-09 -1.0264730393204587e-08 0.0000000000000000e+00  -6.6358799599071484e-09 -8.5025162986748415e-09 0.0000000000000000e+00  -7.0748520495650896e-09 -6.7082317119380235e-09 0.0000000000000000e+00  -7.2934896091212363e-09 -4.9758346312312111e-09 0.0000000000000000e+00  -7.3708537288153859e-09 -3.3380044531238666e-09 0.0000000000000000e+00  -7.3694043656092492e-09 -1.7837128081014858e-09 0.0000000000000000e+00  -7.3295229624696239e-09 -2.7537133593044760e-10 0.0000000000000000e+00  -7.2688718175848615e-09 1.2371333841466407e-09 0.0000000000000000e+00  -7.1828286740372653e-09 2.8047210095475524e-09 0.0000000000000000e+00  -7.0446269443772602e-09 4.4677379125767161e-09 0.0000000000000000e+00  -6.8058625498590558e-09 6.2431167810382643e-09 0.0000000000000000e+00  -6.4001029806373868e-09 8.1096624344567852e-09 0.0000000000000000e+00  -5.7549946419558845e-09 9.9941327950848144e-09 0.0000000000000000e+00  -4.8236768873727516e-09 1.1765751103468780e-08 0.0000000000000000e+00  -3.6695314596458419e-09 1.3252372379397468e-08 0.0000000000000000e+00  -2.7769534305685946e-09 1.4294779424420478e-08 0.0000000000000000e+00  -4.2040727399119708e-09 1.5382340746895720e-08 0.0000000000000000e+00  -3.0792961510119065e-09 -1.0714661919513163e-08 0.0000000000000000e+00  -2.4988642712832446e-09 -1.1637359819387109e-08 0.0000000000000000e+00  -3.7483930710557802e-09 -1.1318368717599503e-08 0.0000000000000000e+00  -5.2590087232839030e-09 -1.0461547538144917e-08 0.0000000000000000e+00  -6.5826420550493770e-09 -9.2378089727370519e-09 0.0000000000000000e+00  -7.6103693322514994e-09 -7.7988483993970553e-09 0.0000000000000000e+00  -8.3447051724103700e-09 -6.2702468495779610e-09 0.0000000000000000e+00  -8.8286211835417685e-09 -4.7355318421636522e-09 0.0000000000000000e+00  -9.1146205292869722e-09 -3.2351721464312876e-09 0.0000000000000000e+00  -9.2488513781278139e-09 -1.7748130678202803e-09 0.0000000000000000e+00  -9.2633663430199457e-09 -3.3665548517630124e-10 0.0000000000000000e+00  -9.1729693884633424e-09 1.1090961668254906e-09 0.0000000000000000e+00  -8.9744297135323170e-09 2.5934422321765797e-09 0.0000000000000000e+00  -8.6471376124427821e-09 4.1380808960455925e-09 0.0000000000000000e+00  -8.1555822205300268e-09 5.7448358574456993e-09 0.0000000000000000e+00  -7.4552778416562536e-09 7.3856820968697495e-09 0.0000000000000000e+00  -6.5051640205975073e-09 8.9959427218069905e-09 0.0000000000000000e+00  -5.2934264078322350e-09 1.0475530495609590e-08 0.0000000000000000e+00  -3.9054666311341071e-09 1.1705235284500283e-08 0.0000000000000000e+00  -2.7934017634886581e-09 1.2590703260218934e-08 0.0000000000000000e+00  -3.7992792048460884e-09 1.3703985270096690e-08 0.0000000000000000e+00  -2.9029156936423217e-09 -8.7423881681806906e-09 0.0000000000000000e+00  -2.5580954996881900e-09 -9.7076635821097529e-09 0.0000000000000000e+00  -3.9347370114556250e-09 -9.5248569035861820e-09 0.0000000000000000e+00  -5.5791139655016350e-09 -8.9052679348866835e-09 0.0000000000000000e+00  -7.0742094654298474e-09 -7.9731764800696734e-09 0.0000000000000000e+00  -8.3059715610921844e-09 -6.8340580822346971e-09 0.0000000000000000e+00  -9.2547699956340500e-09 -5.5808598607861073e-09 0.0000000000000000e+00  -9.9376241946944358e-09 -4.2819474270490390e-09 0.0000000000000000e+00  -1.0384670147727586e-08 -2.9770018438195705e-09 0.0000000000000000e+00  -1.0626100994376897e-08 -1.6801093388211552e-09 0.0000000000000000e+00  -1.0684559920567303e-08 -3.8673809065150479e-10 0.0000000000000000e+00  -1.0571219353520311e-08 9.1779800879547479e-10 0.0000000000000000e+00  -1.0284478808762447e-08 2.2495724576234000e-09 0.0000000000000000e+00  -9.8107841455134046e-09 3.6174414667194658e-09 0.0000000000000000e+00  -9.1277165286092803e-09 5.0150202616525648e-09 0.0000000000000000e+00  -8.2101047350498187e-09 6.4142245505359502e-09 0.0000000000000000e+00  -7.0407188065628167e-09 7.7623094372833575e-09 0.0000000000000000e+00  -5.6306997909109059e-09 8.9852021016625178e-09 0.0000000000000000e+00  -4.0761269459893390e-09 1.0001086594693692e-08 0.0000000000000000e+00  -2.7999551048611204e-09 1.0757330860751674e-08 0.0000000000000000e+00  -3.4759630443113691e-09 1.1882456970425522e-08 0.0000000000000000e+00  -2.7774469262166632e-09 -6.7104753810887399e-09 0.0000000000000000e+00  -2.6063097432448905e-09 -7.7111983018797852e-09 0.0000000000000000e+00  -4.0754437212680916e-09 -7.6410762338945526e-09 0.0000000000000000e+00  -5.8126145561599008e-09 -7.2209595394082113e-09 0.0000000000000000e+00  -7.4246571956996776e-09 -6.5445134163338298e-09 0.0000000000000000e+00  -8.7969939477920844e-09 -5.6847109847527094e-09 0.0000000000000000e+00  -9.8966405720824480e-09 -4.7083694849341395e-09 0.0000000000000000e+00  -1.0722696539987034e-08 -3.6682976975214078e-09 0.0000000000000000e+00  -1.1288185380999389e-08 -2.5989597762062273e-09 0.0000000000000000e+00  -1.1609907300104085e-08 -1.5170867146597427e-09 0.0000000000000000e+00  -1.1701947426787823e-08 -4.2568694739488086e-10 0.0000000000000000e+00  -1.1571936427753272e-08 6.8013812413720721e-10 0.0000000000000000e+00  -1.1219677969857180e-08 1.8066868909527258e-09 0.0000000000000000e+00  -1.0637938582147030e-08 2.9551964404860498e-09 0.0000000000000000e+00  -9.8154068050465027e-09 4.1161087054287675e-09 0.0000000000000000e+00  -8.7420533781889763e-09 5.2649928654820646e-09 0.0000000000000000e+00  -7.4177173099675560e-09 6.3614246328715855e-09 0.0000000000000000e+00  -5.8683747266109424e-09 7.3523670299610374e-09 0.0000000000000000e+00  -4.1952766168465648e-09 8.1827485425164272e-09 0.0000000000000000e+00  -2.7976355621155226e-09 8.8279971546708404e-09 0.0000000000000000e+00  -3.2186387418399675e-09 9.9564447941124637e-09 0.0000000000000000e+00  -2.6957033872925251e-09 -4.6364586256750930e-09 0.0000000000000000e+00  -2.6458766973872178e-09 -5.6668732713410221e-09 0.0000000000000000e+00  -4.1797430676671560e-09 -5.6950634839707455e-09 0.0000000000000000e+00  -5.9793106822150361e-09 -5.4502032693262481e-09 0.0000000000000000e+00  -7.6686481823552609e-09 -5.0048127857773985e-09 0.0000000000000000e+00  -9.1344850147940359e-09 -4.4084249547636838e-09 0.0000000000000000e+00  -1.0336031358979383e-08 -3.7071869988667383e-09 0.0000000000000000e+00  -1.1260569630443068e-08 -2.9395355389339804e-09 0.0000000000000000e+00  -1.1908933066693129e-08 -2.1326886217602756e-09 0.0000000000000000e+00  -1.2287739338654051e-08 -1.3022502607942878e-09 0.0000000000000000e+00  -1.2404191829846152e-08 -4.5434713641140059e-10 0.0000000000000000e+00  -1.2262890779050611e-08 4.1065707063647447e-10 0.0000000000000000e+00  -1.1864607777466270e-08 1.2937181346412667e-09 0.0000000000000000e+00  -1.1206984439870899e-08 2.1926306640688412e-09 0.0000000000000000e+00  -1.0287093959013963e-08 3.0981588848466232e-09 0.0000000000000000e+00  -9.1058433838763228e-09 3.9915042234308134e-09 0.0000000000000000e+00  -7.6747459669332509e-09 4.8439327208075359e-09 0.0000000000000000e+00  -6.0293075958074940e-09 5.6194388284728361e-09 0.0000000000000000e+00  -4.2734127024991811e-09 6.2827353596673664e-09 0.0000000000000000e+00  -2.7881596979228919e-09 6.8291191936333590e-09 0.0000000000000000e+00  -3.0167792791171879e-09 7.9550110513932635e-09 0.0000000000000000e+00  -2.6536237415420424e-09 -2.5350430939208037e-09 0.0000000000000000e+00  -2.6789893436702926e-09 -3.5904300620857639e-09 0.0000000000000000e+00  -4.2543903670741402e-09 -3.7083525414543705e-09 0.0000000000000000e+00  -6.0927453349812764e-09 -3.6235637094693285e-09 0.0000000000000000e+00  -7.8295078655476760e-09 -3.3930109534184347e-09 0.0000000000000000e+00  -9.3532482251755141e-09 -3.0485673798139248e-09 0.0000000000000000e+00  -1.0618934462091240e-08 -2.61972645345