<?xml version="1.0"?>
<VTKFile type="UnstructuredGrid"  version="0.1"  >
<UnstructuredGrid>
<Piece  NumberOfPoints="651" NumberOfCells="1200">
<Points>
<DataArray  type="Float64"  NumberOfComponents="3"  format="ascii">0 0 0  50000 0 0  100000 0 0  150000 0 0  200000 0 0  250000 0 0  300000 0 0  350000 0 0  400000 0 0  450000 0 0  500000 0 0  550000 0 0  600000 0 0  650000 0 0  700000 0 0  750000 0 0  800000 0 0  850000 0 0  900000 0 0  950000 0 0  1000000 0 0  0 50000 0  50000 50000 0  100000 50000 0  150000 50000 0  200000 50000 0  250000 50000 0  300000 50000 0  350000 50000 0  400000 50000 0  450000 50000 0  500000 50000 0  550000 50000 0  600000 50000 0  650000 50000 0  700000 50000 0  750000 50000 0  800000 50000 0  850000 50000 0  900000 50000 0  950000 50000 0  1000000 50000 0  0 100000 0  50000 100000 0  100000 100000 0  150000 100000 0  200000 100000 0  250000 100000 0  300000 100000 0  350000 100000 0  400000 100000 0  450000 100000 0  500000 100000 0  550000 100000 0  600000 100000 0  650000 100000 0  700000 100000 0  750000 100000 0  800000 100000 0  850000 100000 0  900000 100000 0  950000 100000 0  1000000 100000 0  0 150000 0  50000 150000 0  100000 150000 0  150000 150000 0  200000 150000 0  250000 150000 0  300000 150000 0  350000 150000 0  400000 150000 0  450000 150000 0  500000 150000 0  550000 150000 0  600000 150000 0  650000 150000 0  700000 150000 0  750000 150000 0  800000 150000 0  850000 150000 0  900000 150000 0  950000 150000 0  1000000 150000 0  0 200000 0  50000 200000 0  100000 200000 0  150000 200000 0  200000 200000 0  250000 200000 0  300000 200000 0  350000 200000 0  400000 200000 0  450000 200000 0  500000 200000 0  550000 200000 0  600000 200000 0  650000 200000 0  700000 200000 0  750000 200000 0  800000 200000 0  850000 200000 0  900000 200000 0  950000 200000 0  1000000 200000 0  0 250000 0  50000 250000 0  100000 250000 0  150000 250000 0  200000 250000 0  250000 250000 0  300000 250000 0  350000 250000 0  400000 250000 0  450000 250000 0  500000 250000 0  550000 250000 0  600000 250000 0  650000 250000 0  700000 250000 0  750000 250000 0  800000 250000 0  850000 250000 0  900000 250000 0  950000 250000 0  1000000 250000 0  0 300000 0  50000 300000 0  100000 300000 0  150000 300000 0  200000 300000 0  250000 300000 0  300000 300000 0  350000 300000 0  400000 300000 0  450000 300000 0  500000 300000 0  550000 300000 0  600000 300000 0  650000 300000 0  700000 300000 0  750000 300000 0  800000 300000 0  850000 300000 0  900000 300000 0  950000 300000 0  1000000 300000 0  0 350000 0  50000 350000 0  100000 350000 0  150000 350000 0  200000 350000 0  250000 350000 0  300000 350000 0  350000 350000 0  400000 350000 0  450000 350000 0  500000 350000 0  550000 350000 0  600000 350000 0  650000 350000 0  700000 350000 0  750000 350000 0  800000 350000 0  850000 350000 0  900000 350000 0  950000 350000 0  1000000 350000 0  0 400000 0  50000 400000 0  100000 400000 0  150000 400000 0  200000 400000 0  250000 400000 0  300000 400000 0  350000 400000 0  400000 400000 0  450000 400000 0  500000 400000 0  550000 400000 0  600000 400000 0  650000 400000 0  700000 400000 0  750000 400000 0  800000 400000 0  850000 400000 0  900000 400000 0  950000 400000 0  1000000 400000 0  0 450000 0  50000 450000 0  100000 450000 0  150000 450000 0  200000 450000 0  250000 450000 0  300000 450000 0  350000 450000 0  400000 450000 0  450000 450000 0  500000 450000 0  550000 450000 0  600000 450000 0  650000 450000 0  700000 450000 0  750000 450000 0  800000 450000 0  850000 450000 0  900000 450000 0  950000 450000 0  1000000 450000 0  0 500000 0  50000 500000 0  100000 500000 0  150000 500000 0  200000 500000 0  250000 500000 0  300000 500000 0  350000 500000 0  400000 500000 0  450000 500000 0  500000 500000 0  550000 500000 0  600000 500000 0  650000 500000 0  700000 500000 0  750000 500000 0  800000 500000 0  850000 500000 0  900000 500000 0  950000 500000 0  1000000 500000 0  0 550000 0  50000 550000 0  100000 550000 0  150000 550000 0  200000 550000 0  250000 550000 0  300000 550000 0  350000 550000 0  400000 550000 0  450000 550000 0  500000 550000 0  550000 550000 0  600000 550000 0  650000 550000 0  700000 550000 0  750000 550000 0  800000 550000 0  850000 550000 0  900000 550000 0  950000 550000 0  1000000 550000 0  0 600000 0  50000 600000 0  100000 600000 0  150000 600000 0  200000 600000 0  250000 600000 0  300000 600000 0  350000 600000 0  400000 600000 0  450000 600000 0  500000 600000 0  550000 600000 0  600000 600000 0  650000 600000 0  700000 600000 0  750000 600000 0  800000 600000 0  850000 600000 0  900000 600000 0  950000 600000 0  1000000 600000 0  0 650000 0  50000 650000 0  100000 650000 0  150000 650000 0  200000 650000 0  250000 650000 0  300000 650000 0  350000 650000 0  400000 650000 0  450000 650000 0  500000 650000 0  550000 650000 0  600000 650000 0  650000 650000 0  700000 650000 0  750000 650000 0  800000 650000 0  850000 650000 0  900000 650000 0  950000 650000 0  1000000 650000 0  0 700000 0  50000 700000 0  100000 700000 0  150000 700000 0  200000 700000 0  250000 700000 0  300000 700000 0  350000 700000 0  400000 700000 0  450000 700000 0  500000 700000 0  550000 700000 0  600000 700000 0  650000 700000 0  700000 700000 0  750000 700000 0  800000 700000 0  850000 700000 0  900000 700000 0  950000 700000 0  1000000 700000 0  0 750000 0  50000 750000 0  100000 750000 0  150000 750000 0  200000 750000 0  250000 750000 0  300000 750000 0  350000 750000 0  400000 750000 0  450000 750000 0  500000 750000 0  550000 750000 0  600000 750000 0  650000 750000 0  700000 750000 0  750000 750000 0  800000 750000 0  850000 750000 0  900000 750000 0  950000 750000 0  1000000 750000 0  0 800000 0  50000 800000 0  100000 800000 0  150000 800000 0  200000 800000 0  250000 800000 0  300000 800000 0  350000 800000 0  400000 800000 0  450000 800000 0  500000 800000 0  550000 800000 0  600000 800000 0  650000 800000 0  700000 800000 0  750000 800000 0  800000 800000 0  850000 800000 0  900000 800000 0  950000 800000 0  1000000 800000 0  0 850000 0  50000 850000 0  100000 850000 0  150000 850000 0  200000 850000 0  250000 850000 0  300000 850000 0  350000 850000 0  400000 850000 0  450000 850000 0  500000 850000 0  550000 850000 0  600000 850000 0  650000 850000 0  700000 850000 0  750000 850000 0  800000 850000 0  850000 850000 0  900000 850000 0  950000 850000 0  1000000 850000 0  0 900000 0  50000 900000 0  100000 900000 0  150000 900000 0  200000 900000 0  250000 900000 0  300000 900000 0  350000 900000 0  400000 900000 0  450000 900000 0  500000 900000 0  550000 900000 0  600000 900000 0  650000 900000 0  700000 900000 0  750000 900000 0  800000 900000 0  850000 900000 0  900000 900000 0  950000 900000 0  1000000 900000 0  0 950000 0  50000 950000 0  100000 950000 0  150000 950000 0  200000 950000 0  250000 950000 0  300000 950000 0  350000 950000 0  400000 950000 0  450000 950000 0  500000 950000 0  550000 950000 0  600000 950000 0  650000 950000 0  700000 950000 0  750000 950000 0  800000 950000 0  850000 950000 0  900000 950000 0  950000 950000 0  1000000 950000 0  0 1000000 0  50000 1000000 0  100000 1000000 0  150000 1000000 0  200000 1000000 0  250000 1000000 0  300000 1000000 0  350000 1000000 0  400000 1000000 0  450000 1000000 0  500000 1000000 0  550000 1000000 0  600000 1000000 0  650000 1000000 0  700000 1000000 0  750000 1000000 0  800000 1000000 0  850000 1000000 0  900000 1000000 0  950000 1000000 0  1000000 1000000 0  0 1050000 0  50000 1050000 0  100000 1050000 0  150000 1050000 0  200000 1050000 0  250000 1050000 0  300000 1050000 0  350000 1050000 0  400000 1050000 0  450000 1050000 0  500000 1050000 0  550000 1050000 0  600000 1050000 0  650000 1050000 0  700000 1050000 0  750000 1050000 0  800000 1050000 0  850000 1050000 0  900000 1050000 0  950000 1050000 0  1000000 1050000 0  0 1100000 0  50000 1100000 0  100000 1100000 0  150000 1100000 0  200000 1100000 0  250000 1100000 0  300000 1100000 0  350000 1100000 0  400000 1100000 0  450000 1100000 0  500000 1100000 0  550000 1100000 0  600000 1100000 0  650000 1100000 0  700000 1100000 0  750000 1100000 0  800000 1100000 0  850000 1100000 0  900000 1100000 0  950000 1100000 0  1000000 1100000 0  0 1150000 0  50000 1150000 0  100000 1150000 0  150000 1150000 0  200000 1150000 0  250000 1150000 0  300000 1150000 0  350000 1150000 0  400000 1150000 0  450000 1150000 0  500000 1150000 0  550000 1150000 0  600000 1150000 0  650000 1150000 0  700000 1150000 0  750000 1150000 0  800000 1150000 0  850000 1150000 0  900000 1150000 0  950000 1150000 0  1000000 1150000 0  0 1200000 0  50000 1200000 0  100000 1200000 0  150000 1200000 0  200000 1200000 0  250000 1200000 0  300000 1200000 0  350000 1200000 0  400000 1200000 0  450000 1200000 0  500000 1200000 0  550000 1200000 0  600000 1200000 0  650000 1200000 0  700000 1200000 0  750000 1200000 0  800000 1200000 0  850000 1200000 0  900000 1200000 0  950000 1200000 0  1000000 1200000 0  0 1250000 0  50000 1250000 0  100000 1250000 0  150000 1250000 0  200000 1250000 0  250000 1250000 0  300000 1250000 0  350000 1250000 0  400000 1250000 0  450000 1250000 0  500000 1250000 0  550000 1250000 0  600000 1250000 0  650000 1250000 0  700000 1250000 0  750000 1250000 0  800000 1250000 0  850000 1250000 0  900000 1250000 0  950000 1250000 0  1000000 1250000 0  0 1300000 0  50000 1300000 0  100000 1300000 0  150000 1300000 0  200000 1300000 0  250000 1300000 0  300000 1300000 0  350000 1300000 0  400000 1300000 0  450000 1300000 0  500000 1300000 0  550000 1300000 0  600000 1300000 0  650000 1300000 0  700000 1300000 0  750000 1300000 0  800000 1300000 0  850000 1300000 0  900000 1300000 0  950000 1300000 0  1000000 1300000 0  0 1350000 0  50000 1350000 0  100000 1350000 0  150000 1350000 0  200000 1350000 0  250000 1350000 0  300000 1350000 0  350000 1350000 0  400000 1350000 0  450000 1350000 0  500000 1350000 0  550000 1350000 0  600000 1350000 0  650000 1350000 0  700000 135
[...]
<PointData  Vectors="f_7489"> 
<DataArray  type="Float64"  Name="f_7489"  NumberOfComponents="3" format="ascii">-2.4218749827144037e-08 -1.0798343767984437e-08 0.0000000000000000e+00  4.8816135579182288e-08 -6.8676085629994924e-09 0.0000000000000000e+00  4.3061025243406838e-08 -2.5426162525436855e-09 0.0000000000000000e+00  4.0585768135995212e-08 -1.1538731329458130e-09 0.0000000000000000e+00  3.9362471011081527e-08 -6.5846535126978001e-10 0.0000000000000000e+00  3.8558528358131740e-08 -4.3682048050311939e-10 0.0000000000000000e+00  3.7977356751886634e-08 -3.2095835457029012e-10 0.0000000000000000e+00  3.7562384311029200e-08 -2.5337265999367128e-10 0.0000000000000000e+00  3.7296003231865928e-08 -2.0966087544358049e-10 0.0000000000000000e+00  3.7173788143653656e-08 -1.7695986878918426e-10 0.0000000000000000e+00  3.7196707848585633e-08 -1.4654464806783878e-10 0.0000000000000000e+00  3.7369329981115977e-08 -1.1044889994227896e-10 0.0000000000000000e+00  3.7701395245702763e-08 -5.8891414306102585e-11 0.0000000000000000e+00  3.8213862644895955e-08 2.3312600670505664e-11 0.0000000000000000e+00  3.8954999843763437e-08 1.6409608896966136e-10 0.0000000000000000e+00  4.0042935959461482e-08 4.2226538051578891e-10 0.0000000000000000e+00  4.1778043655826875e-08 9.3613682140784396e-10 0.0000000000000000e+00  4.4906346070170899e-08 2.0501416918982178e-09 0.0000000000000000e+00  5.0756768528440385e-08 4.5816117841733437e-09 0.0000000000000000e+00  5.7999871554435850e-08 9.0980583617404534e-09 0.0000000000000000e+00  -1.6455114366926292e-08 6.9908298612735138e-09 0.0000000000000000e+00  -1.7961997054856155e-08 -1.6336558431460849e-08 0.0000000000000000e+00  7.3441583423066813e-09 -1.1447464052116697e-08 0.0000000000000000e+00  1.8290276471788692e-08 -5.2903912124267951e-09 0.0000000000000000e+00  2.3335040005501006e-08 -2.4276196191329637e-09 0.0000000000000000e+00  2.5892655214362362e-08 -1.1704935206875919e-09 0.0000000000000000e+00  2.7329439985321720e-08 -5.7838897711744970e-10 0.0000000000000000e+00  2.8157491083528751e-08 -2.8199716231278326e-10 0.0000000000000000e+00  2.8635949373183042e-08 -1.3074610035177731e-10 0.0000000000000000e+00  2.8908101679798119e-08 -5.5575875825495110e-11 0.0000000000000000e+00  2.9053845451938913e-08 -1.9137533165170667e-11 0.0000000000000000e+00  2.9114754194768288e-08 3.1598602702284183e-12 0.0000000000000000e+00  2.9105588677769953e-08 3.1852022283336246e-11 0.0000000000000000e+00  2.9018275563296584e-08 8.9175675316443333e-11 0.0000000000000000e+00  2.8820375103558920e-08 2.0566249656090563e-10 0.0000000000000000e+00  2.8447033758276504e-08 4.3190771022783836e-10 0.0000000000000000e+00  2.7780379351852136e-08 8.6444940320402223e-10 0.0000000000000000e+00  2.6594304332965992e-08 1.7066076163661990e-09 0.0000000000000000e+00  2.4376974748023520e-08 3.4042642603390799e-09 0.0000000000000000e+00  1.9682825889717861e-08 6.8475251649203145e-09 0.0000000000000000e+00  8.2635461507883814e-09 1.2999051948786328e-08 0.0000000000000000e+00  -1.8422503862166626e-08 1.0923847177821084e-08 0.0000000000000000e+00  -1.0961089052992439e-08 -1.9899654952887219e-08 0.0000000000000000e+00  -2.1019682558389253e-10 -1.8603170057859175e-08 0.0000000000000000e+00  5.9461826455129681e-09 -1.1323749378284456e-08 0.0000000000000000e+00  1.0845567659227683e-08 -6.5201330424816430e-09 0.0000000000000000e+00  1.4650160863181723e-08 -3.7540315529913649e-09 0.0000000000000000e+00  1.7277369115814826e-08 -2.1858168025792654e-09 0.0000000000000000e+00  1.9026742254810013e-08 -1.2715595530405114e-09 0.0000000000000000e+00  2.0166881639030881e-08 -7.1891532063602783e-10 0.0000000000000000e+00  2.0877874934913512e-08 -3.6848665133342839e-10 0.0000000000000000e+00  2.1270321206791035e-08 -1.2578215099978722e-10 0.0000000000000000e+00  2.1404120876164273e-08 7.3599453040617861e-11 0.0000000000000000e+00  2.1299627776281495e-08 2.8291585390290992e-10 0.0000000000000000e+00  2.0941702141310815e-08 5.5741817023584392e-10 0.0000000000000000e+00  2.0277349533587997e-08 9.6795369027349347e-10 0.0000000000000000e+00  1.9206372438509208e-08 1.6209798023795892e-09 0.0000000000000000e+00  1.7563130189679994e-08 2.6927057842260878e-09 0.0000000000000000e+00  1.5088032836136765e-08 4.4838011184212875e-09 0.0000000000000000e+00  1.1398945092825580e-08 7.4678796032092051e-09 0.0000000000000000e+00  6.0292511974967410e-09 1.2110895674629739e-08 0.0000000000000000e+00  -1.2828262048758151e-09 1.7563455006988445e-08 0.0000000000000000e+00  -1.3252001483666883e-08 1.4672181308801631e-08 0.0000000000000000e+00  -7.2439291556644575e-09 -2.0482312182267324e-08 0.0000000000000000e+00  -1.5268300857344833e-09 -2.0074248563182394e-08 0.0000000000000000e+00  1.1736646590407029e-09 -1.5317396945808713e-08 0.0000000000000000e+00  3.9734688175641347e-09 -1.0388323308294567e-08 0.0000000000000000e+00  6.8784699975168680e-09 -6.7954845240234512e-09 0.0000000000000000e+00  9.3933149547420317e-09 -4.3836292926352750e-09 0.0000000000000000e+00  1.1326024004815878e-08 -2.7873158104469418e-09 0.0000000000000000e+00  1.2704835508501775e-08 -1.7119993560739199e-09 0.0000000000000000e+00  1.3616027310276304e-08 -9.5571374214545992e-10 0.0000000000000000e+00  1.4135140447042516e-08 -3.7978659707109448e-10 0.0000000000000000e+00  1.4309834972435426e-08 1.1889131816958176e-10 0.0000000000000000e+00  1.4157500166243912e-08 6.2826147518850010e-10 0.0000000000000000e+00  1.3665592023680228e-08 1.2371812270817779e-09 0.0000000000000000e+00  1.2791933843709529e-08 2.0509202055136264e-09 0.0000000000000000e+00  1.1466248532237366e-08 3.2086864508655268e-09 0.0000000000000000e+00  9.5991385107160735e-09 4.9015916128823879e-09 0.0000000000000000e+00  7.1153610502633243e-09 7.3732601108786429e-09 0.0000000000000000e+00  4.0454717451011029e-09 1.0832656761185319e-08 0.0000000000000000e+00  6.8161766706996748e-10 1.5088088474923225e-08 0.0000000000000000e+00  -2.6131308272873454e-09 1.8733743036159176e-08 0.0000000000000000e+00  -8.9432816160417567e-09 1.7517449727079551e-08 0.0000000000000000e+00  -5.3612516717253950e-09 -1.9850268867999575e-08 0.0000000000000000e+00  -1.8743980895374129e-09 -1.9828593461431870e-08 0.0000000000000000e+00  -9.1175755525446260e-10 -1.6760726690773135e-08 0.0000000000000000e+00  2.4535395195782836e-10 -1.2779007982182362e-08 0.0000000000000000e+00  1.9001958225082983e-09 -9.1986471822428793e-09 0.0000000000000000e+00  3.6792928559587925e-09 -6.4049675266274548e-09 0.0000000000000000e+00  5.2623018971828219e-09 -4.3314638694512115e-09 0.0000000000000000e+00  6.5080058084603095e-09 -2.7993453763523700e-09 0.0000000000000000e+00  7.3849166903151348e-09 -1.6349324061577248e-09 0.0000000000000000e+00  7.9037538334607628e-09 -6.9309825431932620e-10 0.0000000000000000e+00  8.0812631252423437e-09 1.4758564043585886e-10 0.0000000000000000e+00  7.9254755174202426e-09 9.9610458758154214e-10 0.0000000000000000e+00  7.4317357353084130e-09 1.9606169699951715e-09 0.0000000000000000e+00  6.5854207529156057e-09 3.1588108419915285e-09 0.0000000000000000e+00  5.3726141448312037e-09 4.7245071497223827e-09 0.0000000000000000e+00  3.8047950530466567e-09 6.8019757534346160e-09 0.0000000000000000e+00  1.9668995268629830e-09 9.5046406547779277e-09 0.0000000000000000e+00  8.5746898236238473e-11 1.2790512990830715e-08 0.0000000000000000e+00  -1.4748533267108946e-09 1.6208726785608346e-08 0.0000000000000000e+00  -2.7221879493762858e-09 1.8687123465948166e-08 0.0000000000000000e+00  -6.6462950243497266e-09 1.8508362813206917e-08 0.0000000000000000e+00  -4.2887192445060775e-09 -1.8678770564741593e-08 0.0000000000000000e+00  -2.0512391858955968e-09 -1.8898712313927811e-08 0.0000000000000000e+00  -2.0108595114125349e-09 -1.6803268807734487e-08 0.0000000000000000e+00  -1.9121958004620118e-09 -1.3763205245497126e-08 0.0000000000000000e+00  -1.2967774885450670e-09 -1.0614620955398796e-08 0.0000000000000000e+00  -3.4481449448792292e-10 -7.8385340064661687e-09 0.0000000000000000e+00  6.7553022763418232e-10 -5.5611147609681878e-09 0.0000000000000000e+00  1.5760596434122326e-09 -3.7351317023026184e-09 0.0000000000000000e+00  2.2583614547832009e-09 -2.2524212730452663e-09 0.0000000000000000e+00  2.6808629671535549e-09 -9.9334188983588049e-10 0.0000000000000000e+00  2.8297796235018245e-09 1.5793854468969532e-10 0.0000000000000000e+00  2.7026760127819902e-09 1.3121789317931606e-09 0.0000000000000000e+00  2.3028025398236555e-09 2.5780522524573200e-09 0.0000000000000000e+00  1.6422341166099249e-09 4.0640313247660399e-09 0.0000000000000000e+00  7.5395939665189865e-10 5.8737570879432756e-09 0.0000000000000000e+00  -2.8588349782918207e-10 8.0858870238833984e-09 0.0000000000000000e+00  -1.3287167571149429e-09 1.0703959395708087e-08 0.0000000000000000e+00  -2.1417066200211980e-09 1.3563425362524086e-08 0.0000000000000000e+00  -2.5063324682052112e-09 1.6221379779753572e-08 0.0000000000000000e+00  -2.6987722183652510e-09 1.7992985102840195e-08 0.0000000000000000e+00  -5.2938961112959479e-09 1.8270068193877033e-08 0.0000000000000000e+00  -3.6029124610920357e-09 -1.7209526510500650e-08 0.0000000000000000e+00  -2.1842501001349245e-09 -1.7595652210286840e-08 0.0000000000000000e+00  -2.6954636328377944e-09 -1.6093618660384561e-08 0.0000000000000000e+00  -3.2682662542437467e-09 -1.3768990480107578e-08 0.0000000000000000e+00  -3.4128547268090983e-09 -1.1136005401271074e-08 0.0000000000000000e+00  -3.1725725547396381e-09 -8.5920192993212798e-09 0.0000000000000000e+00  -2.7251975702649821e-09 -6.3275828276594174e-09 0.0000000000000000e+00  -2.2369295823638843e-09 -4.3811093620819164e-09 0.0000000000000000e+00  -1.8223003642152210e-09 -2.7083921492644953e-09 0.0000000000000000e+00  -1.5478594651490003e-09 -1.2285077586853047e-09 0.0000000000000000e+00  -1.4462538222958209e-09 1.5262619113712879e-10 0.0000000000000000e+00  -1.5273669607209057e-09 1.5318114654813899e-09 0.0000000000000000e+00  -1.7829532239788519e-09 3.0034572840321421e-09 0.0000000000000000e+00  -2.1845290685490316e-09 4.6539768034595041e-09 0.0000000000000000e+00  -2.6752129866947800e-09 6.5503129170796761e-09 0.0000000000000000e+00  -3.1579634328100238e-09 8.7166911670078984e-09 0.0000000000000000e+00  -3.4886054999534887e-09 1.1094972369283517e-08 0.0000000000000000e+00  -3.4975871216878526e-09 1.3493851523501658e-08 0.0000000000000000e+00  -3.1023009395608337e-09 1.5561485680937230e-08 0.0000000000000000e+00  -2.6828434207282305e-09 1.6880483179367318e-08 0.0000000000000000e+00  -4.4115043643987288e-09 1.7373021260548542e-08 0.0000000000000000e+00  -3.1279749369723026e-09 -1.5542425832699027e-08 0.0000000000000000e+00  -2.2930081726139123e-09 -1.6047914315860133e-08 0.0000000000000000e+00  -3.1702489856203514e-09 -1.4934414368781912e-08 0.0000000000000000e+00  -4.1821586661834131e-09 -1.3133899890856999e-08 0.0000000000000000e+00  -4.8618678798097439e-09 -1.0971263697452463e-08 0.0000000000000000e+00  -5.1752479053911923e-09 -8.7392551419732916e-09 0.0000000000000000e+00  -5.2224062914384466e-09 -6.6218856256737221e-09 0.0000000000000000e+00  -5.1257694250945256e-09 -4.6954229876877773e-09 0.0000000000000000e+00  -4.9865203781601087e-09 -2.9600941718924015e-09 0.0000000000000000e+00  -4.8735698775807573e-09 -1.3715823821891351e-09 0.0000000000000000e+00  -4.8256229678843101e-09 1.3666651173039377e-10 0.0000000000000000e+00  -4.8557965123980587e-09 1.6392578857651728e-09 0.0000000000000000e+00  -4.9541800231712178e-09 3.2088237058041361e-09 0.0000000000000000e+00  -5.0871162118704266e-09 4.9060384482341754e-09 0.0000000000000000e+00  -5.1941131788237873e-09 6.7659893543745818e-09 0.0000000000000000e+00  -5.1857766395232687e-09 8.7783158163702243e-09 0.0000000000000000e+00  -4.9505390529680897e-09 1.0861963837584162e-08 0.0000000000000000e+00  -4.3864840481947163e-09 1.2843878365605235e-08 0.0000000000000000e+00  -3.4969890800115908e-09 1.4466220372367402e-08 0.0000000000000000e+00  -2.6815818764390688e-09 1.5478612369221104e-08 0.0000000000000000e+00  -3.7912468854794779e-09 1.6090315366350887e-08 0.0000000000000000e+00  -2.7830457209788671e-09 -1.3731263685822677e-08 0.0000000000000000e+00  -2.3818207971644788e-09 -1.4324796417490003e-08 0.0000000000000000e+00  -3.5181115340906136e-09 -1.3482357252828045e-08 0.0000000000000000e+00  -4.8273654051147280e-09 -1.2073061185240232e-08 0.0000000000000000e+00  -5.8807435850783061e-09 -1.0310684547060787e-08 0.0000000000000000e+00  -6.6050865393125235e-09 -8.4034524667019879e-09 0.0000000000000000e+00  -7.0451987316174958e-09 -6.5044683499886133e-09 0.0000000000000000e+00  -7.2804101331460144e-09 -4.6975198050445164e-09 0.0000000000000000e+00  -7.3873781258498681e-09 -3.0071066376179927e-09 0.0000000000000000e+00  -7.4246079049236001e-09 -1.4164990116912890e-09 0.0000000000000000e+00  -7.4278993351066757e-09 1.1515075718652976e-10 0.0000000000000000e+00  -7.4102170439394755e-09 1.6389633146632658e-09 0.0000000000000000e+00  -7.3624137750361453e-09 3.2047858207849949e-09 0.0000000000000000e+00  -7.2535831333506669e-09 4.8499371024994166e-09 0.0000000000000000e+00  -7.0317699320690537e-09 6.5864740402629823e-09 0.0000000000000000e+00  -6.6277484731192017e-09 8.3865785110961057e-09 0.0000000000000000e+00  -5.9670869051733730e-09 1.0168681860512637e-08 0.0000000000000000e+00  -5.0003166468857859e-09 1.1792012610406549e-08 0.0000000000000000e+00  -3.7782516560559150e-09 1.3074110051109825e-08 0.0000000000000000e+00  -2.6873622361352333e-09 1.3867889287575883e-08 0.0000000000000000e+00  -3.3322273686516719e-09 1.4554909349595076e-08 0.0000000000000000e+00  -2.5268725084979916e-09 -1.1812178078342657e-08 0.0000000000000000e+00  -2.4531728252018711e-09 -1.2471660578549645e-08 0.0000000000000000e+00  -3.7786159010168244e-09 -1.1829706625469538e-08 0.0000000000000000e+00  -5.2940943868677803e-09 -1.0723007576580886e-08 0.0000000000000000e+00  -6.6081292310177569e-09 -9.2987960807075993e-09 0.0000000000000000e+00  -7.6296111577811826e-09 -7.7037706473921373e-09 0.0000000000000000e+00  -8.3669437954569173e-09 -6.0571172442735124e-09 0.0000000000000000e+00  -8.8645221015804660e-09 -4.4354199148719170e-09 0.0000000000000000e+00  -9.1736500411780427e-09 -2.8729465766604710e-09 0.0000000000000000e+00  -9.3376915181466303e-09 -1.3706564122731194e-09 0.0000000000000000e+00  -9.3850775296145574e-09 9.2117055721950379e-11 0.0000000000000000e+00  -9.3266730267583760e-09 1.5461663917259979e-09 0.0000000000000000e+00  -9.1553509276835440e-09 3.0216706587673243e-09 0.0000000000000000e+00  -8.8469236118056791e-09 4.5377775483480104e-09 0.0000000000000000e+00  -8.3628627617815470e-09 6.0921371914844502e-09 0.0000000000000000e+00  -7.6564453206192756e-09 7.6510396790637621e-09 0.0000000000000000e+00  -6.6852515178018887e-09 9.1427270574633969e-09 0.0000000000000000e+00  -5.4360651623099678e-09 1.0458935992031810e-08 0.0000000000000000e+00  -3.9841930542668125e-09 1.1472939573454666e-08 0.0000000000000000e+00  -2.6939051159830352e-09 1.2102507493514746e-08 0.0000000000000000e+00  -2.9807178277539491e-09 1.2840856998794902e-08 0.0000000000000000e+00  -2.3366207371707161e-09 -9.8126256211797988e-09 0.0000000000000000e+00  -2.5096029149537366e-09 -1.0521860380422835e-08 0.0000000000000000e+00  -3.9742120161062102e-09 -1.0036537385633270e-08 0.0000000000000000e+00  -5.6340072931968332e-09 -9.1738648207543949e-09 0.0000000000000000e+00  -7.1291875807688233e-09 -8.0402182373780995e-09 0.0000000000000000e+00  -8.3613179255919904e-09 -6.7387466462924114e-09 0.0000000000000000e+00  -9.3157005893379821e-09 -5.3588465267263016e-09 0.0000000000000000e+00  -1.0010850002176851e-08 -3.9643889574298213e-09 0.0000000000000000e+00  -1.0476359074603596e-08 -2.5906142539430721e-09 0.0000000000000000e+00  -1.0740507687800550e-08 -1.2480016514985718e-09 0.0000000000000000e+00  -1.0823195267333005e-08 7.0312038873592348e-11 0.0000000000000000e+00  -1.0732461751018298e-08 1.3798750782865605e-09 0.0000000000000000e+00  -1.0463538000419455e-08 2.6961116316943241e-09 0.0000000000000000e+00  -9.9999586766277656e-09 4.0257638936868607e-09 0.0000000000000000e+00  -9.3169195204749610e-09 5.3589730771355987e-09 0.0000000000000000e+00  -8.3876508340872759e-09 6.6629736409085180e-09 0.0000000000000000e+00  -7.1942785316302782e-09 7.8793631056741882e-09 0.0000000000000000e+00  -5.7474356787735479e-09 8.9279533218330325e-09 0.0000000000000000e+00  -4.1345332930234772e-09 9.7222046893223242e-09 0.0000000000000000e+00  -2.6976785449591424e-09 1.0221466892006798e-08 0.0000000000000000e+00  -2.7061301962879857e-09 1.0995531443612587e-08 0.0000000000000000e+00  -2.1989365172259655e-09 -7.7546235488075155e-09 0.0000000000000000e+00  -2.5538074348898110e-09 -8.5014094459851037e-09 0.0000000000000000e+00  -4.1196334343401753e-09 -8.1448226164737825e-09 0.0000000000000000e+00  -5.8796749004655787e-09 -7.4875564533452051e-09 0.0000000000000000e+00  -7.4991768052472599e-09 -6.6101893152959601e-09 0.0000000000000000e+00  -8.8774131365454251e-09 -5.5849488434568172e-09 0.0000000000000000e+00  -9.9853197457813292e-09 -4.4768853585424059e-09 0.0000000000000000e+00  -1.0823240649467296e-08 -3.3360322102779304e-09 0.0000000000000000e+00  -1.1403955534064237e-08 -2.1937960831445709e-09 0.0000000000000000e+00  -1.1742960707911402e-08 -1.0642505628040824e-09 0.0000000000000000e+00  -1.1852337187483453e-08 5.1391469471956982e-11 0.0000000000000000e+00  -1.1737347056897748e-08 1.1587080518859741e-09 0.0000000000000000e+00  -1.1395362617285982e-08 2.2634653369951471e-09 0.0000000000000000e+00  -1.0816930801726579e-08 3.3651770963463751e-09 0.0000000000000000e+00  -9.9889978286055817e-09 4.4514822181798097e-09 0.0000000000000000e+00  -8.9005346764209291e-09 5.4942650332557902e-09 0.0000000000000000e+00  -7.5512868678902926e-09 6.4488557407385896e-09 0.0000000000000000e+00  -5.9672016740688444e-09 7.2580301113091455e-09 0.0000000000000000e+00  -4.2414370190403354e-09 7.8642853131789708e-09 0.0000000000000000e+00  -2.6972371958934412e-09 8.2542374935027728e-09 0.0000000000000000e+00  -2.4903613842518899e-09 9.0525542884443367e-09 0.0000000000000000e+00  -2.1057648584408246e-09 -5.6562341460716809e-09 0.0000000000000000e+00  -2.5884424622496463e-09 -6.4311707718548501e-09 0.0000000000000000e+00  -4.2254560304323937e-09 -6.1853203382600241e-09 0.0000000000000000e+00  -6.0531360626244305e-09 -5.7081099717283704e-09 0.0000000000000000e+00  -7.7554907728222513e-09 -5.0632329955195227e-09 0.0000000000000000e+00  -9.2317063701765310e-09 -4.3004341901218363e-09 0.0000000000000000e+00  -1.0443981508175080e-08 -3.4651604940948629e-09 0.0000000000000000e+00  -1.1380469782879660e-08 -2.5941903533034833e-09 0.0000000000000000e+00  -1.2041858203003197e-08 -1.7126648914000675e-09 0.0000000000000000e+00  -1.2433882635630262e-08 -8.3426086994790326e-10 0.0000000000000000e+00  -1.2562349584652548e-08 3.6244408937615752e-11 0.0000000000000000e+00  -1.2430177088849271e-08 8.9899587407520797e-10 0.0000000000000000e+00  -1.2036399503544046e-08 1.7545040295312370e-09 0.0000000000000000e+00  -1.1377094638485563e-08 2.5991782953133088e-09 0.0000000000000000e+00  -1.0448178627903678e-08 3.4215825780931134e-09 0.0000000000000000e+00  -9.2500422190515812e-09 4.2001363788952882e-09 0.0000000000000000e+00  -7.7944385900478784e-09 4.9031107134801247e-09 0.0000000000000000e+00  -6.1169591228269610e-09 5.4919115994456521e-09 0.0000000000000000e+00  -4.3133967597721101e-09 5.9304804907789033e-09 0.0000000000000000e+00  -2.6924162265177806e-09 6.2237970831566083e-09 0.0000000000000000e+00  -2.3225138224984893e-09 7.0373606978226956e-09 0.0000000000000000e+00  -2.0522135855405853e-09 -3.5325325495971014e-09 0.0000000000000000e+00  -2.6158961513473309e-09 -4.3281737888595786e-09 0.0000000000000000e+00  -4.2994655342699460e-09 -4.1814097755081419e-09 0.0000000000000000e+00  -6.1697109349472614e-09 -3.8678649783261204e-09 0.0000000000000000e+00  -7.9237413721598375e-09 -3.4395489930264099e-09 0.0000000000000000e+00  -9.4614688745898620e-09 -2.9291215120450302e-09 0.0000000000000000e+00  -1.0740037187260748e-08 -2.365941674