<?xml version="1.0"?>
<VTKFile type="UnstructuredGrid"  version="0.1"  >
<UnstructuredGrid>
<Piece  NumberOfPoints="651" NumberOfCells="1200">
<Points>
<DataArray  type="Float64"  NumberOfComponents="3"  format="ascii">0 0 0  50000 0 0  100000 0 0  150000 0 0  200000 0 0  250000 0 0  300000 0 0  350000 0 0  400000 0 0  450000 0 0  500000 0 0  550000 0 0  600000 0 0  650000 0 0  700000 0 0  750000 0 0  800000 0 0  850000 0 0  900000 0 0  950000 0 0  1000000 0 0  0 50000 0  50000 50000 0  100000 50000 0  150000 50000 0  200000 50000 0  250000 50000 0  300000 50000 0  350000 50000 0  400000 50000 0  450000 50000 0  500000 50000 0  550000 50000 0  600000 50000 0  650000 50000 0  700000 50000 0  750000 50000 0  800000 50000 0  850000 50000 0  900000 50000 0  950000 50000 0  1000000 50000 0  0 100000 0  50000 100000 0  100000 100000 0  150000 100000 0  200000 100000 0  250000 100000 0  300000 100000 0  350000 100000 0  400000 100000 0  450000 100000 0  500000 100000 0  550000 100000 0  600000 100000 0  650000 100000 0  700000 100000 0  750000 100000 0  800000 100000 0  850000 100000 0  900000 100000 0  950000 100000 0  1000000 100000 0  0 150000 0  50000 150000 0  100000 150000 0  150000 150000 0  200000 150000 0  250000 150000 0  300000 150000 0  350000 150000 0  400000 150000 0  450000 150000 0  500000 150000 0  550000 150000 0  600000 150000 0  650000 150000 0  700000 150000 0  750000 150000 0  800000 150000 0  850000 150000 0  900000 150000 0  950000 150000 0  1000000 150000 0  0 200000 0  50000 200000 0  100000 200000 0  150000 200000 0  200000 200000 0  250000 200000 0  300000 200000 0  350000 200000 0  400000 200000 0  450000 200000 0  500000 200000 0  550000 200000 0  600000 200000 0  650000 200000 0  700000 200000 0  750000 200000 0  800000 200000 0  850000 200000 0  900000 200000 0  950000 200000 0  1000000 200000 0  0 250000 0  50000 250000 0  100000 250000 0  150000 250000 0  200000 250000 0  250000 250000 0  300000 250000 0  350000 250000 0  400000 250000 0  450000 250000 0  500000 250000 0  550000 250000 0  600000 250000 0  650000 250000 0  700000 250000 0  750000 250000 0  800000 250000 0  850000 250000 0  900000 250000 0  950000 250000 0  1000000 250000 0  0 300000 0  50000 300000 0  100000 300000 0  150000 300000 0  200000 300000 0  250000 300000 0  300000 300000 0  350000 300000 0  400000 300000 0  450000 300000 0  500000 300000 0  550000 300000 0  600000 300000 0  650000 300000 0  700000 300000 0  750000 300000 0  800000 300000 0  850000 300000 0  900000 300000 0  950000 300000 0  1000000 300000 0  0 350000 0  50000 350000 0  100000 350000 0  150000 350000 0  200000 350000 0  250000 350000 0  300000 350000 0  350000 350000 0  400000 350000 0  450000 350000 0  500000 350000 0  550000 350000 0  600000 350000 0  650000 350000 0  700000 350000 0  750000 350000 0  800000 350000 0  850000 350000 0  900000 350000 0  950000 350000 0  1000000 350000 0  0 400000 0  50000 400000 0  100000 400000 0  150000 400000 0  200000 400000 0  250000 400000 0  300000 400000 0  350000 400000 0  400000 400000 0  450000 400000 0  500000 400000 0  550000 400000 0  600000 400000 0  650000 400000 0  700000 400000 0  750000 400000 0  800000 400000 0  850000 400000 0  900000 400000 0  950000 400000 0  1000000 400000 0  0 450000 0  50000 450000 0  100000 450000 0  150000 450000 0  200000 450000 0  250000 450000 0  300000 450000 0  350000 450000 0  400000 450000 0  450000 450000 0  500000 450000 0  550000 450000 0  600000 450000 0  650000 450000 0  700000 450000 0  750000 450000 0  800000 450000 0  850000 450000 0  900000 450000 0  950000 450000 0  1000000 450000 0  0 500000 0  50000 500000 0  100000 500000 0  150000 500000 0  200000 500000 0  250000 500000 0  300000 500000 0  350000 500000 0  400000 500000 0  450000 500000 0  500000 500000 0  550000 500000 0  600000 500000 0  650000 500000 0  700000 500000 0  750000 500000 0  800000 500000 0  850000 500000 0  900000 500000 0  950000 500000 0  1000000 500000 0  0 550000 0  50000 550000 0  100000 550000 0  150000 550000 0  200000 550000 0  250000 550000 0  300000 550000 0  350000 550000 0  400000 550000 0  450000 550000 0  500000 550000 0  550000 550000 0  600000 550000 0  650000 550000 0  700000 550000 0  750000 550000 0  800000 550000 0  850000 550000 0  900000 550000 0  950000 550000 0  1000000 550000 0  0 600000 0  50000 600000 0  100000 600000 0  150000 600000 0  200000 600000 0  250000 600000 0  300000 600000 0  350000 600000 0  400000 600000 0  450000 600000 0  500000 600000 0  550000 600000 0  600000 600000 0  650000 600000 0  700000 600000 0  750000 600000 0  800000 600000 0  850000 600000 0  900000 600000 0  950000 600000 0  1000000 600000 0  0 650000 0  50000 650000 0  100000 650000 0  150000 650000 0  200000 650000 0  250000 650000 0  300000 650000 0  350000 650000 0  400000 650000 0  450000 650000 0  500000 650000 0  550000 650000 0  600000 650000 0  650000 650000 0  700000 650000 0  750000 650000 0  800000 650000 0  850000 650000 0  900000 650000 0  950000 650000 0  1000000 650000 0  0 700000 0  50000 700000 0  100000 700000 0  150000 700000 0  200000 700000 0  250000 700000 0  300000 700000 0  350000 700000 0  400000 700000 0  450000 700000 0  500000 700000 0  550000 700000 0  600000 700000 0  650000 700000 0  700000 700000 0  750000 700000 0  800000 700000 0  850000 700000 0  900000 700000 0  950000 700000 0  1000000 700000 0  0 750000 0  50000 750000 0  100000 750000 0  150000 750000 0  200000 750000 0  250000 750000 0  300000 750000 0  350000 750000 0  400000 750000 0  450000 750000 0  500000 750000 0  550000 750000 0  600000 750000 0  650000 750000 0  700000 750000 0  750000 750000 0  800000 750000 0  850000 750000 0  900000 750000 0  950000 750000 0  1000000 750000 0  0 800000 0  50000 800000 0  100000 800000 0  150000 800000 0  200000 800000 0  250000 800000 0  300000 800000 0  350000 800000 0  400000 800000 0  450000 800000 0  500000 800000 0  550000 800000 0  600000 800000 0  650000 800000 0  700000 800000 0  750000 800000 0  800000 800000 0  850000 800000 0  900000 800000 0  950000 800000 0  1000000 800000 0  0 850000 0  50000 850000 0  100000 850000 0  150000 850000 0  200000 850000 0  250000 850000 0  300000 850000 0  350000 850000 0  400000 850000 0  450000 850000 0  500000 850000 0  550000 850000 0  600000 850000 0  650000 850000 0  700000 850000 0  750000 850000 0  800000 850000 0  850000 850000 0  900000 850000 0  950000 850000 0  1000000 850000 0  0 900000 0  50000 900000 0  100000 900000 0  150000 900000 0  200000 900000 0  250000 900000 0  300000 900000 0  350000 900000 0  400000 900000 0  450000 900000 0  500000 900000 0  550000 900000 0  600000 900000 0  650000 900000 0  700000 900000 0  750000 900000 0  800000 900000 0  850000 900000 0  900000 900000 0  950000 900000 0  1000000 900000 0  0 950000 0  50000 950000 0  100000 950000 0  150000 950000 0  200000 950000 0  250000 950000 0  300000 950000 0  350000 950000 0  400000 950000 0  450000 950000 0  500000 950000 0  550000 950000 0  600000 950000 0  650000 950000 0  700000 950000 0  750000 950000 0  800000 950000 0  850000 950000 0  900000 950000 0  950000 950000 0  1000000 950000 0  0 1000000 0  50000 1000000 0  100000 1000000 0  150000 1000000 0  200000 1000000 0  250000 1000000 0  300000 1000000 0  350000 1000000 0  400000 1000000 0  450000 1000000 0  500000 1000000 0  550000 1000000 0  600000 1000000 0  650000 1000000 0  700000 1000000 0  750000 1000000 0  800000 1000000 0  850000 1000000 0  900000 1000000 0  950000 1000000 0  1000000 1000000 0  0 1050000 0  50000 1050000 0  100000 1050000 0  150000 1050000 0  200000 1050000 0  250000 1050000 0  300000 1050000 0  350000 1050000 0  400000 1050000 0  450000 1050000 0  500000 1050000 0  550000 1050000 0  600000 1050000 0  650000 1050000 0  700000 1050000 0  750000 1050000 0  800000 1050000 0  850000 1050000 0  900000 1050000 0  950000 1050000 0  1000000 1050000 0  0 1100000 0  50000 1100000 0  100000 1100000 0  150000 1100000 0  200000 1100000 0  250000 1100000 0  300000 1100000 0  350000 1100000 0  400000 1100000 0  450000 1100000 0  500000 1100000 0  550000 1100000 0  600000 1100000 0  650000 1100000 0  700000 1100000 0  750000 1100000 0  800000 1100000 0  850000 1100000 0  900000 1100000 0  950000 1100000 0  1000000 1100000 0  0 1150000 0  50000 1150000 0  100000 1150000 0  150000 1150000 0  200000 1150000 0  250000 1150000 0  300000 1150000 0  350000 1150000 0  400000 1150000 0  450000 1150000 0  500000 1150000 0  550000 1150000 0  600000 1150000 0  650000 1150000 0  700000 1150000 0  750000 1150000 0  800000 1150000 0  850000 1150000 0  900000 1150000 0  950000 1150000 0  1000000 1150000 0  0 1200000 0  50000 1200000 0  100000 1200000 0  150000 1200000 0  200000 1200000 0  250000 1200000 0  300000 1200000 0  350000 1200000 0  400000 1200000 0  450000 1200000 0  500000 1200000 0  550000 1200000 0  600000 1200000 0  650000 1200000 0  700000 1200000 0  750000 1200000 0  800000 1200000 0  850000 1200000 0  900000 1200000 0  950000 1200000 0  1000000 1200000 0  0 1250000 0  50000 1250000 0  100000 1250000 0  150000 1250000 0  200000 1250000 0  250000 1250000 0  300000 1250000 0  350000 1250000 0  400000 1250000 0  450000 1250000 0  500000 1250000 0  550000 1250000 0  600000 1250000 0  650000 1250000 0  700000 1250000 0  750000 1250000 0  800000 1250000 0  850000 1250000 0  900000 1250000 0  950000 1250000 0  1000000 1250000 0  0 1300000 0  50000 1300000 0  100000 1300000 0  150000 1300000 0  200000 1300000 0  250000 1300000 0  300000 1300000 0  350000 1300000 0  400000 1300000 0  450000 1300000 0  500000 1300000 0  550000 1300000 0  600000 1300000 0  650000 1300000 0  700000 1300000 0  750000 1300000 0  800000 1300000 0  850000 1300000 0  900000 1300000 0  950000 1300000 0  1000000 1300000 0  0 1350000 0  50000 1350000 0  100000 1350000 0  150000 1350000 0  200000 1350000 0  250000 1350000 0  300000 1350000 0  350000 1350000 0  400000 1350000 0  450000 1350000 0  500000 1350000 0  550000 1350000 0  600000 1350000 0  650000 1350000 0  700000 135
[...]
<PointData  Vectors="f_7489"> 
<DataArray  type="Float64"  Name="f_7489"  NumberOfComponents="3" format="ascii">-2.4357755620272920e-08 -1.0440209304400755e-08 0.0000000000000000e+00  4.8694799457780378e-08 -6.5193854839271056e-09 0.0000000000000000e+00  4.2964417858975348e-08 -2.2139976263197895e-09 0.0000000000000000e+00  4.0511087536026546e-08 -8.4530071761738521e-10 0.0000000000000000e+00  3.9308143513639740e-08 -3.6960268138769892e-10 0.0000000000000000e+00  3.8522845438314206e-08 -1.6808882240943462e-10 0.0000000000000000e+00  3.7958382939674321e-08 -7.3095999543129552e-11 0.0000000000000000e+00  3.7557911811144750e-08 -2.7121466900303413e-11 0.0000000000000000e+00  3.7303572696119056e-08 -5.5738043537600056e-12 0.0000000000000000e+00  3.7190768113121757e-08 4.7401897100287418e-12 0.0000000000000000e+00  3.7220416505144726e-08 1.2974476303506073e-11 0.0000000000000000e+00  3.7397185191301660e-08 2.7577202687305496e-11 0.0000000000000000e+00  3.7731076299429760e-08 5.8815718931773058e-11 0.0000000000000000e+00  3.8243464327958487e-08 1.2231972131850653e-10 0.0000000000000000e+00  3.8983160069834125e-08 2.4639088066133251e-10 0.0000000000000000e+00  4.0068923999889682e-08 4.9011092451792882e-10 0.0000000000000000e+00  4.1801807558977689e-08 9.9198324551688635e-10 0.0000000000000000e+00  4.4928528832301205e-08 2.0965653860493795e-09 0.0000000000000000e+00  5.0778654819752229e-08 4.6212925611576592e-09 0.0000000000000000e+00  5.8022924374593920e-08 9.1337529719101011e-09 0.0000000000000000e+00  -1.6431637738382858e-08 7.0269232368377741e-09 0.0000000000000000e+00  -1.8114299529516839e-08 -1.5987879977669795e-08 0.0000000000000000e+00  7.2633352108987998e-09 -1.1327781528117734e-08 0.0000000000000000e+00  1.8166433851660028e-08 -5.2591118889136517e-09 0.0000000000000000e+00  2.3228326407649478e-08 -2.4041948162789418e-09 0.0000000000000000e+00  2.5814591103568421e-08 -1.1496832810959916e-09 0.0000000000000000e+00  2.7276272849200961e-08 -5.5873545786999660e-10 0.0000000000000000e+00  2.8125586016610965e-08 -2.6293214615365074e-10 0.0000000000000000e+00  2.8621997859623366e-08 -1.1198644348721953e-10 0.0000000000000000e+00  2.8908781196134970e-08 -3.6900110403531967e-11 0.0000000000000000e+00  2.9065857169496508e-08 -3.6519950241670213e-13 0.0000000000000000e+00  2.9134898641998315e-08 2.2146296395647079e-11 0.0000000000000000e+00  2.9130844225411459e-08 5.1086969858470183e-11 0.0000000000000000e+00  2.9045882772782714e-08 1.0860190309629251e-10 0.0000000000000000e+00  2.8847916823517289e-08 2.2513957968558224e-10 0.0000000000000000e+00  2.8472497667863381e-08 4.5124103438902516e-10 0.0000000000000000e+00  2.7802191131066564e-08 8.8344268973713812e-10 0.0000000000000000e+00  2.6611332299877988e-08 1.7251421657071806e-09 0.0000000000000000e+00  2.4388613564134984e-08 3.4223762792864789e-09 0.0000000000000000e+00  1.9689660257435716e-08 6.8654312828885067e-09 0.0000000000000000e+00  8.2675280520050702e-09 1.3017589363852155e-08 0.0000000000000000e+00  -1.8399684143993435e-08 1.0958762631290500e-08 0.0000000000000000e+00  -1.1130973491458279e-08 -1.9572821644128602e-08 0.0000000000000000e+00  -2.5726402270609570e-10 -1.8487921206311353e-08 0.0000000000000000e+00  5.8584348640472754e-09 -1.1341222735099716e-08 0.0000000000000000e+00  1.0742110020115558e-08 -6.5626141597632037e-09 0.0000000000000000e+00  1.4553267561298901e-08 -3.8008321522969960e-09 0.0000000000000000e+00  1.7196005194443483e-08 -2.2307727285576660e-09 0.0000000000000000e+00  1.8962102782159611e-08 -1.3123148102653342e-09 0.0000000000000000e+00  2.0117678231391073e-08 -7.5445057333109000e-10 0.0000000000000000e+00  2.0842067413922397e-08 -3.9825559141055132e-10 0.0000000000000000e+00  2.1245634735753054e-08 -1.4946987487216809e-10 0.0000000000000000e+00  2.1388267188128488e-08 5.6108942780782434e-11 0.0000000000000000e+00  2.1290420937742935e-08 2.7152561110289969e-10 0.0000000000000000e+00  2.0937125411657517e-08 5.5180985406685368e-10 0.0000000000000000e+00  2.0275599408651046e-08 9.6760362677317142e-10 0.0000000000000000e+00  1.9205891902146319e-08 1.6252075673429062e-09 0.0000000000000000e+00  1.7562639023278822e-08 2.7007586859264190e-09 0.0000000000000000e+00  1.5086572137182429e-08 4.4949740753856212e-09 0.0000000000000000e+00  1.1395984600802546e-08 7.4816565630256207e-09 0.0000000000000000e+00  6.0250715435187006e-09 1.2127133102310335e-08 0.0000000000000000e+00  -1.2873922427287705e-09 1.7579552615485965e-08 0.0000000000000000e+00  -1.3233370851542100e-08 1.4704817429770716e-08 0.0000000000000000e+00  -7.4293154343557849e-09 -2.0177666706885036e-08 0.0000000000000000e+00  -1.5529837874523808e-09 -1.9923069563193508e-08 0.0000000000000000e+00  1.1304084861380616e-09 -1.5311397623637187e-08 0.0000000000000000e+00  3.9059610443612359e-09 -1.0433308710961570e-08 0.0000000000000000e+00  6.8007137944224739e-09 -6.8564306270305670e-09 0.0000000000000000e+00  9.3173999603896988e-09 -4.4468587740310159e-09 0.0000000000000000e+00  1.1257863439962050e-08 -2.8469236450295534e-09 0.0000000000000000e+00  1.2646487292164519e-08 -1.7652435208046664e-09 0.0000000000000000e+00  1.3567593507247802e-08 -1.0012623634905277e-09 0.0000000000000000e+00  1.4095803958601890e-08 -4.1701353133559079e-10 0.0000000000000000e+00  1.4278370096125388e-08 9.0173534881568082e-11 0.0000000000000000e+00  1.4132528770806553e-08 6.0789850617853219e-10 0.0000000000000000e+00  1.3645718923628732e-08 1.2247202926536168e-09 0.0000000000000000e+00  1.2775824898450229e-08 2.0456494701469575e-09 0.0000000000000000e+00  1.1452686384739348e-08 3.2096913498588829e-09 0.0000000000000000e+00  9.5870796854299851e-09 4.9078355041856816e-09 0.0000000000000000e+00  7.1040182608187865e-09 7.3836858310357455e-09 0.0000000000000000e+00  4.0344714183216325e-09 1.0846267361942759e-08 0.0000000000000000e+00  6.7154436056140771e-10 1.5103771399506832e-08 0.0000000000000000e+00  -2.6219934375609541e-09 1.8745090601590456e-08 0.0000000000000000e+00  -8.9315930486574928e-09 1.7545878948439141e-08 0.0000000000000000e+00  -5.5599507790348955e-09 -1.9567823172728441e-08 0.0000000000000000e+00  -1.8917159736269146e-09 -1.9659768991935080e-08 0.0000000000000000e+00  -9.2663963496584907e-10 -1.6725699916043134e-08 0.0000000000000000e+00  2.1102739837737084e-10 -1.2807650914451877e-08 0.0000000000000000e+00  1.8497911991796606e-09 -9.2556360296379625e-09 0.0000000000000000e+00  3.6216972950048461e-09 -6.4717057843181500e-09 0.0000000000000000e+00  5.2042967821665163e-09 -4.3983103369264414e-09 0.0000000000000000e+00  6.4535245014078391e-09 -2.8612609101325787e-09 0.0000000000000000e+00  7.3358418375979764e-09 -1.6892702661453601e-09 0.0000000000000000e+00  7.8607006494738351e-09 -7.3851916770167058e-10 0.0000000000000000e+00  8.0441132079597246e-09 1.1163300409876387e-10 0.0000000000000000e+00  7.8937028644898698e-09 9.6963147451731958e-10 0.0000000000000000e+00  7.4046007465438774e-09 1.9432202808651968e-09 0.0000000000000000e+00  6.5620921204426156e-09 3.1497510016969723e-09 0.0000000000000000e+00  5.3522602063611305e-09 4.7227730563399067e-09 0.0000000000000000e+00  3.7866755107889045e-09 6.8063493578965544e-09 0.0000000000000000e+00  1.9504871620246719e-09 9.5137519493608321e-09 0.0000000000000000e+00  7.0930389513858832e-11 1.2802805899706252e-08 0.0000000000000000e+00  -1.4872760707251364e-09 1.6221984580908334e-08 0.0000000000000000e+00  -2.7336658969227199e-09 1.8691951391777614e-08 0.0000000000000000e+00  -6.6441227762263594e-09 1.8531354204264615e-08 0.0000000000000000e+00  -4.4988235372112297e-09 -1.8418590672968827e-08 0.0000000000000000e+00  -2.0645952165475242e-09 -1.8727301699894367e-08 0.0000000000000000e+00  -2.0078229006829715e-09 -1.6747602910369695e-08 0.0000000000000000e+00  -1.9213480916851238e-09 -1.3773094001486289e-08 0.0000000000000000e+00  -1.3215713072559353e-09 -1.0660278535568227e-08 0.0000000000000000e+00  -3.8067115084008375e-10 -7.9007380047353691e-09 0.0000000000000000e+00  6.3396346604827418e-10 -5.6281591396421894e-09 0.0000000000000000e+00  1.5329361822359542e-09 -3.8000835634793790e-09 0.0000000000000000e+00  2.2164124099809521e-09 -2.3112614126087908e-09 0.0000000000000000e+00  2.6416735217899589e-09 -1.0438263761080597e-09 0.0000000000000000e+00  2.7941228020982118e-09 1.1693025839993607e-10 0.0000000000000000e+00  2.6707805993041454e-09 1.2810053731322358e-09 0.0000000000000000e+00  2.2745451526034342e-09 2.5565110454897036e-09 0.0000000000000000e+00  1.6172780021639349e-09 4.0514765121911275e-09 0.0000000000000000e+00  7.3186808626968277e-10 5.8691730437526085e-09 0.0000000000000000e+00  -3.0553104614169498e-10 8.0879342802369279e-09 0.0000000000000000e+00  -1.3461838707087063e-09 1.0710979953873488e-08 0.0000000000000000e+00  -2.1569040211754398e-09 1.3573313802943050e-08 0.0000000000000000e+00  -2.5185297673533645e-09 1.6230941689998153e-08 0.0000000000000000e+00  -2.7117980514559010e-09 1.7990409773514060e-08 0.0000000000000000e+00  -5.3037247130632877e-09 1.8287086454392033e-08 0.0000000000000000e+00  -3.8225028552408022e-09 -1.6971710088825931e-08 0.0000000000000000e+00  -2.1958288599723082e-09 -1.7430064521598536e-08 0.0000000000000000e+00  -2.6805959078760266e-09 -1.6026287105793498e-08 0.0000000000000000e+00  -3.2589963516214441e-09 -1.3763389365501484e-08 0.0000000000000000e+00  -3.4163379453237259e-09 -1.1168750484030791e-08 0.0000000000000000e+00  -3.1876706205168496e-09 -8.6457532542419096e-09 0.0000000000000000e+00  -2.7485821988056516e-09 -6.3902972991557167e-09 0.0000000000000000e+00  -2.2651840043050068e-09 -4.4448896039175429e-09 0.0000000000000000e+00  -1.8526413642613948e-09 -2.7682073708601280e-09 0.0000000000000000e+00  -1.5782731006883734e-09 -1.2812868313844172e-09 0.0000000000000000e+00  -1.4754108275145989e-09 1.0862002596822466e-10 0.0000000000000000e+00  -1.5544815491067346e-09 1.4973754975752777e-09 0.0000000000000000e+00  -1.8076463762453435e-09 2.9786890931679827e-09 0.0000000000000000e+00  -2.2067085337752147e-09 4.6384155438507220e-09 0.0000000000000000e+00  -2.6949619272714427e-09 6.5430168030528919e-09 0.0000000000000000e+00  -3.1754229061805193e-09 8.7162653213665702e-09 0.0000000000000000e+00  -3.5038369057867231e-09 1.1099534437852227e-08 0.0000000000000000e+00  -3.5104242244934351e-09 1.3500840786719486e-08 0.0000000000000000e+00  -3.1123265459999865e-09 1.5566924946492709e-08 0.0000000000000000e+00  -2.6966820855531579e-09 1.6870621637213619e-08 0.0000000000000000e+00  -4.4356835421956105e-09 1.7384205761383498e-08 0.0000000000000000e+00  -3.3549999059346309e-09 -1.5327080648622426e-08 0.0000000000000000e+00  -2.3038035075037083e-09 -1.5893263691816618e-08 0.0000000000000000e+00  -3.1472238357734503e-09 -1.4862223821688817e-08 0.0000000000000000e+00  -4.1593998112700086e-09 -1.3117293704161392e-08 0.0000000000000000e+00  -4.8483942870983033e-09 -1.0992327998610898e-08 0.0000000000000000e+00  -5.1722278361144265e-09 -8.7833512574268728e-09 0.0000000000000000e+00  -5.2283316125320844e-09 -6.6778510800569749e-09 0.0000000000000000e+00  -5.1382777366415644e-09 -4.7552200614944034e-09 0.0000000000000000e+00  -5.0032368575013176e-09 -3.0181881183727300e-09 0.0000000000000000e+00  -4.8924685496639592e-09 -1.4243217856310320e-09 0.0000000000000000e+00  -4.8451358022425900e-09 9.1547023943214811e-11 0.0000000000000000e+00  -4.8748035967272782e-09 1.6029927775966462e-09 0.0000000000000000e+00  -4.9719513287939999e-09 3.1818507060111827e-09 0.0000000000000000e+00  -5.1032351857678257e-09 4.8881403130783051e-09 0.0000000000000000e+00  -5.2083898769111636e-09 6.7563650534989781e-09 0.0000000000000000e+00  -5.1981480361528986e-09 8.7755905863446184e-09 0.0000000000000000e+00  -4.9609561403441361e-09 1.0864125433999941e-08 0.0000000000000000e+00  -4.3948308272479387e-09 1.2848046680013176e-08 0.0000000000000000e+00  -3.5033542715402997e-09 1.4467844192711868e-08 0.0000000000000000e+00  -2.6956811242002597e-09 1.5462432769061515e-08 0.0000000000000000e+00  -3.8319159079843374e-09 1.6096471467630544e-08 0.0000000000000000e+00  -3.0152800893134493e-09 -1.3538461756648475e-08 0.0000000000000000e+00  -2.3922530535798586e-09 -1.4184414177458838e-08 0.0000000000000000e+00  -3.4892692587097069e-09 -1.3410209156323832e-08 0.0000000000000000e+00  -4.7946898896521605e-09 -1.2049610366057208e-08 0.0000000000000000e+00  -5.8540810481773125e-09 -1.0322356376125770e-08 0.0000000000000000e+00  -6.5870130870977383e-09 -8.4383596532815848e-09 0.0000000000000000e+00  -7.0355830070478927e-09 -6.5528399442172336e-09 0.0000000000000000e+00  -7.2779004352950626e-09 -4.7517898482805473e-09 0.0000000000000000e+00  -7.3901819855076654e-09 -3.0616942632844835e-09 0.0000000000000000e+00  -7.4309307745949102e-09 -1.4674646045333758e-09 0.0000000000000000e+00  -7.4361675540667508e-09 7.0443111917769773e-11 0.0000000000000000e+00  -7.4191696201442306e-09 1.6021191975310658e-09 0.0000000000000000e+00  -7.3711200814268328e-09 3.1765753152585578e-09 0.0000000000000000e+00  -7.2614194149800028e-09 4.8304153371562948e-09 0.0000000000000000e+00  -7.0383701936594766e-09 6.5750353135036968e-09 0.0000000000000000e+00  -6.6329362817214220e-09 8.3819469409348771e-09 0.0000000000000000e+00  -5.9707992825749688e-09 1.0168824374096990e-08 0.0000000000000000e+00  -5.0025999316948140e-09 1.1793880993161451e-08 0.0000000000000000e+00  -3.7798521244201656e-09 1.3072787766282824e-08 0.0000000000000000e+00  -2.7012959747763003e-09 1.3847041355440095e-08 0.0000000000000000e+00  -3.3912137684485412e-09 1.4557479009803660e-08 0.0000000000000000e+00  -2.7619056536925937e-09 -1.1641895423670411e-08 0.0000000000000000e+00  -2.4633980358484785e-09 -1.2347720510983912e-08 0.0000000000000000e+00  -3.7455891106401431e-09 -1.1761104906008768e-08 0.0000000000000000e+00  -5.2541930867649594e-09 -1.0696149117963555e-08 0.0000000000000000e+00  -6.5714427625124322e-09 -9.3035469305896995e-09 0.0000000000000000e+00  -7.5994987080785991e-09 -7.7307292955507969e-09 0.0000000000000000e+00  -8.3442123569736330e-09 -6.0980707724796593e-09 0.0000000000000000e+00  -8.8486379972623324e-09 -4.4836076443722921e-09 0.0000000000000000e+00  -9.1633985015118913e-09 -2.9230728807077555e-09 0.0000000000000000e+00  -9.3316085584002695e-09 -1.4187509603363434e-09 0.0000000000000000e+00  -9.3817215852337754e-09 4.8890558901988395e-11 0.0000000000000000e+00  -9.3247809566338028e-09 1.5096901620833647e-09 0.0000000000000000e+00  -9.1539159974420599e-09 2.9930110182023030e-09 0.0000000000000000e+00  -8.8452225152541044e-09 4.5172699630040155e-09 0.0000000000000000e+00  -8.3604484898173810e-09 6.0794149028779650e-09 0.0000000000000000e+00  -7.6531169242191088e-09 7.6450025428419148e-09 0.0000000000000000e+00  -6.6810207167039244e-09 9.1414338445102231e-09 0.0000000000000000e+00  -5.4312344678281057e-09 1.0459325224955884e-08 0.0000000000000000e+00  -3.9802869179809920e-09 1.1469939464661125e-08 0.0000000000000000e+00  -2.7073633142786274e-09 1.2079171612751850e-08 0.0000000000000000e+00  -3.0594263922676986e-09 1.2841850115371941e-08 0.0000000000000000e+00  -2.5718659342249205e-09 -9.6646776207021575e-09 0.0000000000000000e+00  -2.5196665227981337e-09 -1.0415695193406433e-08 0.0000000000000000e+00  -3.9382791475074715e-09 -9.9739388610609665e-09 0.0000000000000000e+00  -5.5890430812491970e-09 -9.1462873753758823e-09 0.0000000000000000e+00  -7.0851820714500493e-09 -8.0403168126113392e-09 0.0000000000000000e+00  -8.3219968147280044e-09 -6.7592823866984636e-09 0.0000000000000000e+00  -9.2824508378533711e-09 -5.3931376504973398e-09 0.0000000000000000e+00  -9.9837301820674509e-09 -4.0066253540894126e-09 0.0000000000000000e+00  -1.0454639351979071e-08 -2.6359888997906499e-09 0.0000000000000000e+00  -1.0723058367210342e-08 -1.2927043203031616e-09 0.0000000000000000e+00  -1.0808765808606820e-08 2.9171502412751916e-11 0.0000000000000000e+00  -1.0719869742871195e-08 1.3443611110405602e-09 0.0000000000000000e+00  -1.0451788917390103e-08 2.6675413886618259e-09 0.0000000000000000e+00  -9.9883150935716347e-09 4.0047509537393032e-09 0.0000000000000000e+00  -9.3049340460533469e-09 5.3454260880049334e-09 0.0000000000000000e+00  -8.3751749419396569e-09 6.6560416440742760e-09 0.0000000000000000e+00  -7.1814736916443479e-09 7.8773083426634670e-09 0.0000000000000000e+00  -5.7349364973285732e-09 8.9278558206935932e-09 0.0000000000000000e+00  -4.1247350224394889e-09 9.7190521481408406e-09 0.0000000000000000e+00  -2.7104686467009618e-09 1.0198207482464982e-08 0.0000000000000000e+00  -2.8054423191112914e-09 1.0997414840983687e-08 0.0000000000000000e+00  -2.4316601001386382e-09 -7.6286006320504662e-09 0.0000000000000000e+00  -2.5637226655071921e-09 -8.4136757389414556e-09 0.0000000000000000e+00  -4.0819128072381415e-09 -8.0898642142758533e-09 0.0000000000000000e+00  -5.8315125977759122e-09 -7.4612710530294639e-09 0.0000000000000000e+00  -7.4502446082526047e-09 -6.6075538586160452e-09 0.0000000000000000e+00  -8.8315262647367864e-09 -5.6005906113449974e-09 0.0000000000000000e+00  -9.9441730749776956e-09 -4.5055439971075952e-09 0.0000000000000000e+00  -1.0787277201890802e-08 -3.3728776616123838e-09 0.0000000000000000e+00  -1.1372806826295182e-08 -2.2346127330904894e-09 0.0000000000000000e+00  -1.1715782432414661e-08 -1.1055106457964927e-09 0.0000000000000000e+00  -1.1828074112323276e-08 1.2523615348759276e-11 0.0000000000000000e+00  -1.1714933634686907e-08 1.1244013660464084e-09 0.0000000000000000e+00  -1.1373868645822905e-08 2.2352468070976339e-09 0.0000000000000000e+00  -1.0795663193071189e-08 3.3439351720336340e-09 0.0000000000000000e+00  -9.9675688250967609e-09 4.4374350253463244e-09 0.0000000000000000e+00  -8.8789078510863355e-09 5.4868821261772342e-09 0.0000000000000000e+00  -7.5298321264400008e-09 6.4467127971767499e-09 0.0000000000000000e+00  -5.9469437088139573e-09 7.2585027146904391e-09 0.0000000000000000e+00  -4.2257052064614721e-09 7.8626397306379278e-09 0.0000000000000000e+00  -2.7092805663313905e-09 8.2338536319015562e-09 0.0000000000000000e+00  -2.6105627332360618e-09 9.0581076334010787e-09 0.0000000000000000e+00  -2.3331348848489261e-09 -5.5514415621442899e-09 0.0000000000000000e+00  -2.5982321869341366e-09 -6.3619321462347384e-09 0.0000000000000000e+00  -4.1870092253752122e-09 -6.1389680777001737e-09 0.0000000000000000e+00  -6.0034798627954724e-09 -5.6845341788956237e-09 0.0000000000000000e+00  -7.7038211654304529e-09 -5.0593914867769537e-09 0.0000000000000000e+00  -9.1817403603393572e-09 -4.3125686789574369e-09 0.0000000000000000e+00  -1.0397521775564871e-08 -3.4892950947287510e-09 0.0000000000000000e+00  -1.1338170926236222e-08 -2.6264403681586592e-09 0.0000000000000000e+00  -1.2003589427894988e-08 -1.7494396877120339e-09 0.0000000000000000e+00  -1.2399013276317225e-08 -8.7238085800817333e-10 0.0000000000000000e+00  -1.2529991075633523e-08 -5.0910326081233747e-13 0.0000000000000000e+00  -1.2399382661553458e-08 8.6582759196794055e-10 0.0000000000000000e+00  -1.2006324322164577e-08 1.7266286192706036e-09 0.0000000000000000e+00  -1.1347121783114051e-08 2.5777610034402875e-09 0.0000000000000000e+00  -1.0418017395544392e-08 3.4071868957807084e-09 0.0000000000000000e+00  -9.2198083358091245e-09 4.1926239745705969e-09 0.0000000000000000e+00  -7.7647511832265015e-09 4.9014801076909015e-09 0.0000000000000000e+00  -6.0892722908745699e-09 5.4939870581209468e-09 0.0000000000000000e+00  -4.2920059943191733e-09 5.9320264300304951e-09 0.0000000000000000e+00  -2.7037343476566625e-09 6.2091724040565631e-09 0.0000000000000000e+00  -2.4632620045497443e-09 7.0495157819927965e-09 0.0000000000000000e+00  -2.2713677054643422e-09 -3.4479387782071066e-09 0.0000000000000000e+00  -2.6256147036181900e-09 -4.2769438266878983e-09 0.0000000000000000e+00  -4.2613462630253646e-09 -4.1440599629400957e-09 0.0000000000000000e+00  -6.1201767002190246e-09 -3.8478999365635225e-09 0.0000000000000000e+00  -7.8713859334910611e-09 -3.4356458041303330e-09 0.0000000000000000e+00  -9.4097803068997855e-09 -2.9389247551918499e-09 0.0000000000000000e+00  -1.0690781156879900e-08 -2.386619882686