<?xml version="1.0"?>
<VTKFile type="UnstructuredGrid"  version="0.1"  >
<UnstructuredGrid>
<Piece  NumberOfPoints="651" NumberOfCells="1200">
<Points>
<DataArray  type="Float64"  NumberOfComponents="3"  format="ascii">0 0 0  50000 0 0  100000 0 0  150000 0 0  200000 0 0  250000 0 0  300000 0 0  350000 0 0  400000 0 0  450000 0 0  500000 0 0  550000 0 0  600000 0 0  650000 0 0  700000 0 0  750000 0 0  800000 0 0  850000 0 0  900000 0 0  950000 0 0  1000000 0 0  0 50000 0  50000 50000 0  100000 50000 0  150000 50000 0  200000 50000 0  250000 50000 0  300000 50000 0  350000 50000 0  400000 50000 0  450000 50000 0  500000 50000 0  550000 50000 0  600000 50000 0  650000 50000 0  700000 50000 0  750000 50000 0  800000 50000 0  850000 50000 0  900000 50000 0  950000 50000 0  1000000 50000 0  0 100000 0  50000 100000 0  100000 100000 0  150000 100000 0  200000 100000 0  250000 100000 0  300000 100000 0  350000 100000 0  400000 100000 0  450000 100000 0  500000 100000 0  550000 100000 0  600000 100000 0  650000 100000 0  700000 100000 0  750000 100000 0  800000 100000 0  850000 100000 0  900000 100000 0  950000 100000 0  1000000 100000 0  0 150000 0  50000 150000 0  100000 150000 0  150000 150000 0  200000 150000 0  250000 150000 0  300000 150000 0  350000 150000 0  400000 150000 0  450000 150000 0  500000 150000 0  550000 150000 0  600000 150000 0  650000 150000 0  700000 150000 0  750000 150000 0  800000 150000 0  850000 150000 0  900000 150000 0  950000 150000 0  1000000 150000 0  0 200000 0  50000 200000 0  100000 200000 0  150000 200000 0  200000 200000 0  250000 200000 0  300000 200000 0  350000 200000 0  400000 200000 0  450000 200000 0  500000 200000 0  550000 200000 0  600000 200000 0  650000 200000 0  700000 200000 0  750000 200000 0  800000 200000 0  850000 200000 0  900000 200000 0  950000 200000 0  1000000 200000 0  0 250000 0  50000 250000 0  100000 250000 0  150000 250000 0  200000 250000 0  250000 250000 0  300000 250000 0  350000 250000 0  400000 250000 0  450000 250000 0  500000 250000 0  550000 250000 0  600000 250000 0  650000 250000 0  700000 250000 0  750000 250000 0  800000 250000 0  850000 250000 0  900000 250000 0  950000 250000 0  1000000 250000 0  0 300000 0  50000 300000 0  100000 300000 0  150000 300000 0  200000 300000 0  250000 300000 0  300000 300000 0  350000 300000 0  400000 300000 0  450000 300000 0  500000 300000 0  550000 300000 0  600000 300000 0  650000 300000 0  700000 300000 0  750000 300000 0  800000 300000 0  850000 300000 0  900000 300000 0  950000 300000 0  1000000 300000 0  0 350000 0  50000 350000 0  100000 350000 0  150000 350000 0  200000 350000 0  250000 350000 0  300000 350000 0  350000 350000 0  400000 350000 0  450000 350000 0  500000 350000 0  550000 350000 0  600000 350000 0  650000 350000 0  700000 350000 0  750000 350000 0  800000 350000 0  850000 350000 0  900000 350000 0  950000 350000 0  1000000 350000 0  0 400000 0  50000 400000 0  100000 400000 0  150000 400000 0  200000 400000 0  250000 400000 0  300000 400000 0  350000 400000 0  400000 400000 0  450000 400000 0  500000 400000 0  550000 400000 0  600000 400000 0  650000 400000 0  700000 400000 0  750000 400000 0  800000 400000 0  850000 400000 0  900000 400000 0  950000 400000 0  1000000 400000 0  0 450000 0  50000 450000 0  100000 450000 0  150000 450000 0  200000 450000 0  250000 450000 0  300000 450000 0  350000 450000 0  400000 450000 0  450000 450000 0  500000 450000 0  550000 450000 0  600000 450000 0  650000 450000 0  700000 450000 0  750000 450000 0  800000 450000 0  850000 450000 0  900000 450000 0  950000 450000 0  1000000 450000 0  0 500000 0  50000 500000 0  100000 500000 0  150000 500000 0  200000 500000 0  250000 500000 0  300000 500000 0  350000 500000 0  400000 500000 0  450000 500000 0  500000 500000 0  550000 500000 0  600000 500000 0  650000 500000 0  700000 500000 0  750000 500000 0  800000 500000 0  850000 500000 0  900000 500000 0  950000 500000 0  1000000 500000 0  0 550000 0  50000 550000 0  100000 550000 0  150000 550000 0  200000 550000 0  250000 550000 0  300000 550000 0  350000 550000 0  400000 550000 0  450000 550000 0  500000 550000 0  550000 550000 0  600000 550000 0  650000 550000 0  700000 550000 0  750000 550000 0  800000 550000 0  850000 550000 0  900000 550000 0  950000 550000 0  1000000 550000 0  0 600000 0  50000 600000 0  100000 600000 0  150000 600000 0  200000 600000 0  250000 600000 0  300000 600000 0  350000 600000 0  400000 600000 0  450000 600000 0  500000 600000 0  550000 600000 0  600000 600000 0  650000 600000 0  700000 600000 0  750000 600000 0  800000 600000 0  850000 600000 0  900000 600000 0  950000 600000 0  1000000 600000 0  0 650000 0  50000 650000 0  100000 650000 0  150000 650000 0  200000 650000 0  250000 650000 0  300000 650000 0  350000 650000 0  400000 650000 0  450000 650000 0  500000 650000 0  550000 650000 0  600000 650000 0  650000 650000 0  700000 650000 0  750000 650000 0  800000 650000 0  850000 650000 0  900000 650000 0  950000 650000 0  1000000 650000 0  0 700000 0  50000 700000 0  100000 700000 0  150000 700000 0  200000 700000 0  250000 700000 0  300000 700000 0  350000 700000 0  400000 700000 0  450000 700000 0  500000 700000 0  550000 700000 0  600000 700000 0  650000 700000 0  700000 700000 0  750000 700000 0  800000 700000 0  850000 700000 0  900000 700000 0  950000 700000 0  1000000 700000 0  0 750000 0  50000 750000 0  100000 750000 0  150000 750000 0  200000 750000 0  250000 750000 0  300000 750000 0  350000 750000 0  400000 750000 0  450000 750000 0  500000 750000 0  550000 750000 0  600000 750000 0  650000 750000 0  700000 750000 0  750000 750000 0  800000 750000 0  850000 750000 0  900000 750000 0  950000 750000 0  1000000 750000 0  0 800000 0  50000 800000 0  100000 800000 0  150000 800000 0  200000 800000 0  250000 800000 0  300000 800000 0  350000 800000 0  400000 800000 0  450000 800000 0  500000 800000 0  550000 800000 0  600000 800000 0  650000 800000 0  700000 800000 0  750000 800000 0  800000 800000 0  850000 800000 0  900000 800000 0  950000 800000 0  1000000 800000 0  0 850000 0  50000 850000 0  100000 850000 0  150000 850000 0  200000 850000 0  250000 850000 0  300000 850000 0  350000 850000 0  400000 850000 0  450000 850000 0  500000 850000 0  550000 850000 0  600000 850000 0  650000 850000 0  700000 850000 0  750000 850000 0  800000 850000 0  850000 850000 0  900000 850000 0  950000 850000 0  1000000 850000 0  0 900000 0  50000 900000 0  100000 900000 0  150000 900000 0  200000 900000 0  250000 900000 0  300000 900000 0  350000 900000 0  400000 900000 0  450000 900000 0  500000 900000 0  550000 900000 0  600000 900000 0  650000 900000 0  700000 900000 0  750000 900000 0  800000 900000 0  850000 900000 0  900000 900000 0  950000 900000 0  1000000 900000 0  0 950000 0  50000 950000 0  100000 950000 0  150000 950000 0  200000 950000 0  250000 950000 0  300000 950000 0  350000 950000 0  400000 950000 0  450000 950000 0  500000 950000 0  550000 950000 0  600000 950000 0  650000 950000 0  700000 950000 0  750000 950000 0  800000 950000 0  850000 950000 0  900000 950000 0  950000 950000 0  1000000 950000 0  0 1000000 0  50000 1000000 0  100000 1000000 0  150000 1000000 0  200000 1000000 0  250000 1000000 0  300000 1000000 0  350000 1000000 0  400000 1000000 0  450000 1000000 0  500000 1000000 0  550000 1000000 0  600000 1000000 0  650000 1000000 0  700000 1000000 0  750000 1000000 0  800000 1000000 0  850000 1000000 0  900000 1000000 0  950000 1000000 0  1000000 1000000 0  0 1050000 0  50000 1050000 0  100000 1050000 0  150000 1050000 0  200000 1050000 0  250000 1050000 0  300000 1050000 0  350000 1050000 0  400000 1050000 0  450000 1050000 0  500000 1050000 0  550000 1050000 0  600000 1050000 0  650000 1050000 0  700000 1050000 0  750000 1050000 0  800000 1050000 0  850000 1050000 0  900000 1050000 0  950000 1050000 0  1000000 1050000 0  0 1100000 0  50000 1100000 0  100000 1100000 0  150000 1100000 0  200000 1100000 0  250000 1100000 0  300000 1100000 0  350000 1100000 0  400000 1100000 0  450000 1100000 0  500000 1100000 0  550000 1100000 0  600000 1100000 0  650000 1100000 0  700000 1100000 0  750000 1100000 0  800000 1100000 0  850000 1100000 0  900000 1100000 0  950000 1100000 0  1000000 1100000 0  0 1150000 0  50000 1150000 0  100000 1150000 0  150000 1150000 0  200000 1150000 0  250000 1150000 0  300000 1150000 0  350000 1150000 0  400000 1150000 0  450000 1150000 0  500000 1150000 0  550000 1150000 0  600000 1150000 0  650000 1150000 0  700000 1150000 0  750000 1150000 0  800000 1150000 0  850000 1150000 0  900000 1150000 0  950000 1150000 0  1000000 1150000 0  0 1200000 0  50000 1200000 0  100000 1200000 0  150000 1200000 0  200000 1200000 0  250000 1200000 0  300000 1200000 0  350000 1200000 0  400000 1200000 0  450000 1200000 0  500000 1200000 0  550000 1200000 0  600000 1200000 0  650000 1200000 0  700000 1200000 0  750000 1200000 0  800000 1200000 0  850000 1200000 0  900000 1200000 0  950000 1200000 0  1000000 1200000 0  0 1250000 0  50000 1250000 0  100000 1250000 0  150000 1250000 0  200000 1250000 0  250000 1250000 0  300000 1250000 0  350000 1250000 0  400000 1250000 0  450000 1250000 0  500000 1250000 0  550000 1250000 0  600000 1250000 0  650000 1250000 0  700000 1250000 0  750000 1250000 0  800000 1250000 0  850000 1250000 0  900000 1250000 0  950000 1250000 0  1000000 1250000 0  0 1300000 0  50000 1300000 0  100000 1300000 0  150000 1300000 0  200000 1300000 0  250000 1300000 0  300000 1300000 0  350000 1300000 0  400000 1300000 0  450000 1300000 0  500000 1300000 0  550000 1300000 0  600000 1300000 0  650000 1300000 0  700000 1300000 0  750000 1300000 0  800000 1300000 0  850000 1300000 0  900000 1300000 0  950000 1300000 0  1000000 1300000 0  0 1350000 0  50000 1350000 0  100000 1350000 0  150000 1350000 0  200000 1350000 0  250000 1350000 0  300000 1350000 0  350000 1350000 0  400000 1350000 0  450000 1350000 0  500000 1350000 0  550000 1350000 0  600000 1350000 0  650000 1350000 0  700000 135
[...]
<PointData  Vectors="f_7489"> 
<DataArray  type="Float64"  Name="f_7489"  NumberOfComponents="3" format="ascii">-2.4605822667375428e-08 -9.7912936950712567e-09 0.0000000000000000e+00  4.8462297937089311e-08 -5.8882740646877929e-09 0.0000000000000000e+00  4.2746990245813966e-08 -1.6117652921373384e-09 0.0000000000000000e+00  4.0308115538895582e-08 -2.6565155214126081e-10 0.0000000000000000e+00  3.9122415109136140e-08 1.9222081530611604e-10 0.0000000000000000e+00  3.8357328492724613e-08 3.7716532017010632e-10 0.0000000000000000e+00  3.7816014472065256e-08 4.5463791696422159e-10 0.0000000000000000e+00  3.7441236838144607e-08 4.8051963772851299e-10 0.0000000000000000e+00  3.7214383939232647e-08 4.7809039059354906e-10 0.0000000000000000e+00  3.7129756597662600e-08 4.5956143230771890e-10 0.0000000000000000e+00  3.7186846211679560e-08 4.3354210234359549e-10 0.0000000000000000e+00  3.7388654194188802e-08 4.0851355007930973e-10 0.0000000000000000e+00  3.7743457708032736e-08 3.9548438758031103e-10 0.0000000000000000e+00  3.8271131779487626e-08 4.1160064078661734e-10 0.0000000000000000e+00  3.9019582613331561e-08 4.8739890834610210e-10 0.0000000000000000e+00  4.0107649282163074e-08 6.8469058001488278e-10 0.0000000000000000e+00  4.1837738670294722e-08 1.1448173105810201e-09 0.0000000000000000e+00  4.4959258591588201e-08 2.2148238290594484e-09 0.0000000000000000e+00  5.0805413533995093e-08 4.7138949318093021e-09 0.0000000000000000e+00  5.8049969412997906e-08 9.2106131301340520e-09 0.0000000000000000e+00  -1.6405238612097067e-08 7.1030281540210299e-09 0.0000000000000000e+00  -1.8384515959151595e-08 -1.5342988205499911e-08 0.0000000000000000e+00  7.0954757185550933e-09 -1.1084198008298452e-08 0.0000000000000000e+00  1.7901961165952893e-08 -5.1700103507821672e-09 0.0000000000000000e+00  2.2979896536851207e-08 -2.3305248967077652e-09 0.0000000000000000e+00  2.5604757631782296e-08 -1.0842820686296475e-09 0.0000000000000000e+00  2.7102518557923652e-08 -4.9967243741230618e-10 0.0000000000000000e+00  2.7986881902917027e-08 -2.0962745056569170e-10 0.0000000000000000e+00  2.8517944057992071e-08 -6.4173115939540941e-11 0.0000000000000000e+00  2.8838405693127312e-08 5.8622804363777766e-12 0.0000000000000000e+00  2.9027254740651493e-08 3.8090883742848283e-11 0.0000000000000000e+00  2.9124986706050451e-08 5.7385162943987640e-11 0.0000000000000000e+00  2.9145217517704400e-08 8.4523620736937061e-11 0.0000000000000000e+00  2.9078840961011574e-08 1.4187155363311131e-10 0.0000000000000000e+00  2.8892711804092394e-08 2.5988566154387494e-10 0.0000000000000000e+00  2.8521813556735574e-08 4.8880934723311031e-10 0.0000000000000000e+00  2.7848819715449455e-08 9.2454361703194143e-10 0.0000000000000000e+00  2.6648970392576216e-08 1.7695909055296370e-09 0.0000000000000000e+00  2.4412877849136026e-08 3.4689654827968068e-09 0.0000000000000000e+00  1.9700183738036387e-08 6.9119628655377332e-09 0.0000000000000000e+00  8.2678717030977157e-09 1.3061190685486932e-08 0.0000000000000000e+00  -1.8374259704710815e-08 1.1033806154007601e-08 0.0000000000000000e+00  -1.1432634907993867e-08 -1.8949253808461569e-08 0.0000000000000000e+00  -3.5818587933036936e-10 -1.8241281021138297e-08 0.0000000000000000e+00  5.6690102517938298e-09 -1.1327898812247479e-08 0.0000000000000000e+00  1.0514627526559996e-08 -6.5972402886895616e-09 0.0000000000000000e+00  1.4330676848035213e-08 -3.8519059679905763e-09 0.0000000000000000e+00  1.6997171571385028e-08 -2.2896824074125932e-09 0.0000000000000000e+00  1.8792236946034975e-08 -1.3758373683478010e-09 0.0000000000000000e+00  1.9977505579424200e-08 -8.2080905417958946e-10 0.0000000000000000e+00  2.0730524381712674e-08 -4.6562867703298269e-10 0.0000000000000000e+00  2.1160539329879369e-08 -2.1553929022665039e-10 0.0000000000000000e+00  2.1326590145538701e-08 -5.7949767214016801e-12 0.0000000000000000e+00  2.1248473200632735e-08 2.1704612753246568e-10 0.0000000000000000e+00  2.0910754811406995e-08 5.0810937067682286e-10 0.0000000000000000e+00  2.0260428736886078e-08 9.3769377051318713e-10 0.0000000000000000e+00  1.9197590279933473e-08 1.6112339894760169e-09 0.0000000000000000e+00  1.7557201623694679e-08 2.7034978382802521e-09 0.0000000000000000e+00  1.5080608127316707e-08 4.5134907709637657e-09 0.0000000000000000e+00  1.1387081055773903e-08 7.5132426006553144e-09 0.0000000000000000e+00  6.0125344095334124e-09 1.2167741744476074e-08 0.0000000000000000e+00  -1.3063495989342336e-09 1.7617411072873970e-08 0.0000000000000000e+00  -1.3223722872271203e-08 1.4779146130723657e-08 0.0000000000000000e+00  -7.7562070375799037e-09 -1.9578420978881735e-08 0.0000000000000000e+00  -1.6131213665292577e-09 -1.9596515727780920e-08 0.0000000000000000e+00  1.0272987803056578e-09 -1.5246703587403216e-08 0.0000000000000000e+00  3.7518266300313914e-09 -1.0466383270204735e-08 0.0000000000000000e+00  6.6242655524889490e-09 -6.9295191560889960e-09 0.0000000000000000e+00  9.1430035113072337e-09 -4.5381889243207822e-09 0.0000000000000000e+00  1.1098338661180659e-08 -2.9468711126969752e-09 0.0000000000000000e+00  1.2507346512155320e-08 -1.8685526519316617e-09 0.0000000000000000e+00  1.3450368094359546e-08 -1.1040973762376425e-09 0.0000000000000000e+00  1.3999844114696130e-08 -5.1578097470498474e-10 0.0000000000000000e+00  1.4201771421053764e-08 -8.0065103784599315e-13 0.0000000000000000e+00  1.4072670750411042e-08 5.2854682179225978e-10 0.0000000000000000e+00  1.3599629569049249e-08 1.1606556687740664e-09 0.0000000000000000e+00  1.2740447623278380e-08 1.9999485738833706e-09 0.0000000000000000e+00  1.1425069365029069e-08 3.1843461989827991e-09 0.0000000000000000e+00  9.5644971397613430e-09 4.9032850274664288e-09 0.0000000000000000e+00  7.0840593214323289e-09 7.3984817027285032e-09 0.0000000000000000e+00  4.0151999396260987e-09 1.0876882529935651e-08 0.0000000000000000e+00  6.5222445962232077e-10 1.5144077296790804e-08 0.0000000000000000e+00  -2.6486451548068934e-09 1.8772882776460879e-08 0.0000000000000000e+00  -8.9476381970105070e-09 1.7614952180051074e-08 0.0000000000000000e+00  -5.9069435051826502e-09 -1.8991946698823710e-08 0.0000000000000000e+00  -1.9356775941735868e-09 -1.9287581806431607e-08 0.0000000000000000e+00  -9.7716309855120011e-10 -1.6600835529744101e-08 0.0000000000000000e+00  1.2050835032942372e-10 -1.2807333818368731e-08 0.0000000000000000e+00  1.7287625297571169e-09 -9.3203143003987285e-09 0.0000000000000000e+00  3.4886097073819107e-09 -6.5701674615475992e-09 0.0000000000000000e+00  5.0730878112938162e-09 -4.5137953303666118e-09 0.0000000000000000e+00  6.3324369537360816e-09 -2.9839359414319721e-09 0.0000000000000000e+00  7.2289357672559181e-09 -1.8124619779066310e-09 0.0000000000000000e+00  7.7693289762559466e-09 -8.5690823048761994e-10 0.0000000000000000e+00  7.9679735348693988e-09 2.7862711510436437e-12 0.0000000000000000e+00  7.8315384080779368e-09 8.7469776641963824e-10 0.0000000000000000e+00  7.3546622525701041e-09 1.8660844585328002e-09 0.0000000000000000e+00  6.5224324456679866e-09 3.0935027764100238e-09 0.0000000000000000e+00  5.3209008348941327e-09 4.6893048918148107e-09 0.0000000000000000e+00  3.7616807397518749e-09 6.7959466305462899e-09 0.0000000000000000e+00  1.9300081309841991e-09 9.5247181304595781e-09 0.0000000000000000e+00  5.3325259397601495e-11 1.2830955614937158e-08 0.0000000000000000e+00  -1.5031167589205575e-09 1.6259056543763420e-08 0.0000000000000000e+00  -2.7623917718894429e-09 1.8707406773738227e-08 0.0000000000000000e+00  -6.6950140618268027e-09 1.8593867040121216e-08 0.0000000000000000e+00  -4.8631640375945668e-09 -1.7865184185374256e-08 0.0000000000000000e+00  -2.1019204494239732e-09 -1.8337912986031206e-08 0.0000000000000000e+00  -2.0266122323837799e-09 -1.6579024488767419e-08 0.0000000000000000e+00  -1.9655882837665878e-09 -1.3736720315522487e-08 0.0000000000000000e+00  -1.3938131579015356e-09 -1.0705136020856339e-08 0.0000000000000000e+00  -4.7026191175433429e-10 -7.9935278478832840e-09 0.0000000000000000e+00  5.3817293534214088e-10 -5.7477252658051001e-09 0.0000000000000000e+00  1.4392614920023384e-09 -3.9326496212345580e-09 0.0000000000000000e+00  2.1301001129748692e-09 -2.4472544512445209e-09 0.0000000000000000e+00  2.5655405418788900e-09 -1.1759798055638652e-09 0.0000000000000000e+00  2.7292918279089208e-09 -5.4225472411639236e-12 0.0000000000000000e+00  2.6172857716231762e-09 1.1735289170588811e-09 0.0000000000000000e+00  2.2317701303828150e-09 2.4681562047528416e-09 0.0000000000000000e+00  1.5842393497202950e-09 3.9854891287867119e-09 0.0000000000000000e+00  7.0737005025168948e-10 5.8275051908387907e-09 0.0000000000000000e+00  -3.2283247324679330e-10 8.0708863899168918e-09 0.0000000000000000e+00  -1.3577534059956624e-09 1.0716766760925781e-08 0.0000000000000000e+00  -2.1643276831299903e-09 1.3597281023064038e-08 0.0000000000000000e+00  -2.5240541202337930e-09 1.6263303670123147e-08 0.0000000000000000e+00  -2.7392297988048107e-09 1.7994899614280897e-08 0.0000000000000000e+00  -5.3970748544587427e-09 1.8345546785011648e-08 0.0000000000000000e+00  -4.2023956687619706e-09 -1.6440009237079731e-08 0.0000000000000000e+00  -2.2308248138091714e-09 -1.7038708079076803e-08 0.0000000000000000e+00  -2.6793131799688794e-09 -1.5831154788615058e-08 0.0000000000000000e+00  -3.2704126424493813e-09 -1.3698138120555292e-08 0.0000000000000000e+00  -3.4493320988486080e-09 -1.1192402460818811e-08 0.0000000000000000e+00  -3.2377128358700731e-09 -8.7272251359306032e-09 0.0000000000000000e+00  -2.8082344510238872e-09 -6.5070586097777410e-09 0.0000000000000000e+00  -2.3275965965956346e-09 -4.5807975554327789e-09 0.0000000000000000e+00  -1.9126280530436293e-09 -2.9114507137963495e-09 0.0000000000000000e+00  -1.6323693446704346e-09 -1.4228501408567007e-09 0.0000000000000000e+00  -1.5215654607366085e-09 -2.4071359232413353e-11 0.0000000000000000e+00  -1.5916804076491446e-09 1.3794365607314038e-09 0.0000000000000000e+00  -1.8355922999382294e-09 2.8802497300000576e-09 0.0000000000000000e+00  -2.2255989697335006e-09 4.5630401788462344e-09 0.0000000000000000e+00  -2.7053660393660540e-09 6.4928888124078729e-09 0.0000000000000000e+00  -3.1782392328940962e-09 8.6918783734163063e-09 0.0000000000000000e+00  -3.5003145908560697e-09 1.1099230940480230e-08 0.0000000000000000e+00  -3.5023803912434596e-09 1.3519893771495234e-08 0.0000000000000000e+00  -3.1037510554029730e-09 1.5594983485903586e-08 0.0000000000000000e+00  -2.7212242877705527e-09 1.6868483428465887e-08 0.0000000000000000e+00  -4.5767610934197751e-09 1.7444077999763842e-08 0.0000000000000000e+00  -3.7490160666202955e-09 -1.4816619130237535e-08 0.0000000000000000e+00  -2.3384353669182914e-09 -1.5509009048574060e-08 0.0000000000000000e+00  -3.1324622378090163e-09 -1.4653410114703606e-08 0.0000000000000000e+00  -4.1470902031027690e-09 -1.3032195474751126e-08 0.0000000000000000e+00  -4.8505338079539944e-09 -1.0998111511087596e-08 0.0000000000000000e+00  -5.1883516441338827e-09 -8.8525560536754975e-09 0.0000000000000000e+00  -5.2542840699948801e-09 -6.7885499055673226e-09 0.0000000000000000e+00  -5.1691591817780004e-09 -4.8904087127884851e-09 0.0000000000000000e+00  -5.0346580871870313e-09 -3.1647322732362425e-09 0.0000000000000000e+00  -4.9209912268854209e-09 -1.5719278108092636e-09 0.0000000000000000e+00  -4.8683040139161999e-09 -4.8886823617288114e-11 0.0000000000000000e+00  -4.8910089120285934e-09 1.4763933845765921e-09 0.0000000000000000e+00  -4.9802677841123857e-09 3.0744061221009780e-09 0.0000000000000000e+00  -5.1032915925492142e-09 4.8038577700052635e-09 0.0000000000000000e+00  -5.2003056076687824e-09 6.6978155930061364e-09 0.0000000000000000e+00  -5.1825389815767814e-09 8.7436541494743517e-09 0.0000000000000000e+00  -4.9390394808311611e-09 1.0857553875387130e-08 0.0000000000000000e+00  -4.3688995212389983e-09 1.2862554611255176e-08 0.0000000000000000e+00  -3.4794670967510088e-09 1.4493555762253330e-08 0.0000000000000000e+00  -2.7170813917347844e-09 1.5459909293489076e-08 0.0000000000000000e+00  -4.0231547941163904e-09 1.6164908798268215e-08 0.0000000000000000e+00  -3.4221176492768690e-09 -1.3049184293665400e-08 0.0000000000000000e+00  -2.4272572284916978e-09 -1.3813361674742768e-08 0.0000000000000000e+00  -3.4646940354348065e-09 -1.3197040095270147e-08 0.0000000000000000e+00  -4.7645578367825568e-09 -1.1952895324551873e-08 0.0000000000000000e+00  -5.8318291835456346e-09 -1.0315236063018867e-08 0.0000000000000000e+00  -6.5746896660293545e-09 -8.4969758462260477e-09 0.0000000000000000e+00  -7.0315276586607172e-09 -6.6568029304771120e-09 0.0000000000000000e+00  -7.2790659868953222e-09 -4.8842849763074917e-09 0.0000000000000000e+00  -7.3932594775839865e-09 -3.2090899069365299e-09 0.0000000000000000e+00  -7.4329203101350649e-09 -1.6187261429634259e-09 0.0000000000000000e+00  -7.4346149484164477e-09 -7.5702357288091567e-11 0.0000000000000000e+00  -7.4122215510005477e-09 1.4684151135337577e-09 0.0000000000000000e+00  -7.3575062305754262e-09 3.0612052046276385e-09 0.0000000000000000e+00  -7.2404298941293225e-09 4.7379055292936481e-09 0.0000000000000000e+00  -7.0098672133877812e-09 6.5084777050647164e-09 0.0000000000000000e+00  -6.5974278065647818e-09 8.3428040460900382e-09 0.0000000000000000e+00  -5.9296423509055561e-09 1.0156563276933797e-08 0.0000000000000000e+00  -4.9587222807306257e-09 1.1805180280205479e-08 0.0000000000000000e+00  -3.7414421314303359e-09 1.3099187606422208e-08 0.0000000000000000e+00  -2.7202222490873988e-09 1.3851227710811647e-08 0.0000000000000000e+00  -3.6321512335820250e-09 1.4642042283129623e-08 0.0000000000000000e+00  -3.1802252459037934e-09 -1.1174199731913394e-08 0.0000000000000000e+00  -2.4988690652921246e-09 -1.1994327095975672e-08 0.0000000000000000e+00  -3.7131967625693801e-09 -1.1550486592664341e-08 0.0000000000000000e+00  -5.2100313995547271e-09 -1.0594644916197607e-08 0.0000000000000000e+00  -6.5295738104714475e-09 -9.2886008413459047e-09 0.0000000000000000e+00  -7.5634771441776861e-09 -7.7815807809609511e-09 0.0000000000000000e+00  -8.3141432607403044e-09 -6.1961599236529883e-09 0.0000000000000000e+00  -8.8230054485762748e-09 -4.6129140672409623e-09 0.0000000000000000e+00  -9.1399738605573130e-09 -3.0700738521701703e-09 0.0000000000000000e+00  -9.3080125498468620e-09 -1.5721428183552145e-09 0.0000000000000000e+00  -9.3557561275430212e-09 -1.0147015066200827e-10 0.0000000000000000e+00  -9.2946096245456230e-09 1.3701871515905042e-09 0.0000000000000000e+00  -9.1181638634122004e-09 2.8707831482535571e-09 0.0000000000000000e+00  -8.8030508892156683e-09 4.4174015059752365e-09 0.0000000000000000e+00  -8.3116455389130044e-09 6.0056277802047257e-09 0.0000000000000000e+00  -7.5982438308002020e-09 7.5995245144872140e-09 0.0000000000000000e+00  -6.6217076352711095e-09 9.1247322272733339e-09 0.0000000000000000e+00  -5.3711077682366766e-09 1.0469491789375218e-08 0.0000000000000000e+00  -3.9295149082476875e-09 1.1500663117301159e-08 0.0000000000000000e+00  -2.7249866436311319e-09 1.2097117407567353e-08 0.0000000000000000e+00  -3.3470412552429690e-09 1.2949457037392406e-08 0.0000000000000000e+00  -3.0001506453650498e-09 -9.2194195966615448e-09 0.0000000000000000e+00  -2.5553546452731468e-09 -1.0083475994835534e-08 0.0000000000000000e+00  -3.8991384335824502e-09 -9.7711049609989063e-09 0.0000000000000000e+00  -5.5333365105216393e-09 -9.0454493544941693e-09 0.0000000000000000e+00  -7.0272462692506929e-09 -8.0220758082216839e-09 0.0000000000000000e+00  -8.2662885134147953e-09 -6.8054256520079276e-09 0.0000000000000000e+00  -9.2302811747330676e-09 -5.4869216596960180e-09 0.0000000000000000e+00  -9.9347573169049856e-09 -4.1331168831271663e-09 0.0000000000000000e+00  -1.0407576205436413e-08 -2.7821636435839485e-09 0.0000000000000000e+00  -1.0676171281251051e-08 -1.4473458181703836e-09 0.0000000000000000e+00  -1.0760234057270055e-08 -1.2433936052388546e-10 0.0000000000000000e+00  -1.0668037942164260e-08 1.2001484940603975e-09 0.0000000000000000e+00  -1.0395351021595923e-08 2.5395049709587530e-09 0.0000000000000000e+00  -9.9264689633275460e-09 3.8985497785773840e-09 0.0000000000000000e+00  -9.2375426130604617e-09 5.2654990277026201e-09 0.0000000000000000e+00  -8.3029767435134035e-09 6.6055366705445303e-09 0.0000000000000000e+00  -7.1064510958212911e-09 7.8579249228050758e-09 0.0000000000000000e+00  -5.6613921134345913e-09 8.9394279464415151e-09 0.0000000000000000e+00  -4.0645227778577121e-09 9.7578931067428300e-09 0.0000000000000000e+00  -2.7280991928032965e-09 1.0236239698584201e-08 0.0000000000000000e+00  -3.1347579351344645e-09 1.1133643707935950e-08 0.0000000000000000e+00  -2.8680861512186494e-09 -7.2070729876503983e-09 0.0000000000000000e+00  -2.5991864433896392e-09 -8.1055834979872987e-09 0.0000000000000000e+00  -4.0366021906617031e-09 -7.8988370234577216e-09 0.0000000000000000e+00  -5.7659912026984284e-09 -7.3653410231777898e-09 0.0000000000000000e+00  -7.3790054709530552e-09 -6.5897470561671148e-09 0.0000000000000000e+00  -8.7595828538049437e-09 -5.6448020633305863e-09 0.0000000000000000e+00  -9.8736457251098756e-09 -4.5967282043671951e-09 0.0000000000000000e+00  -1.0718679785324241e-08 -3.4973019224571882e-09 0.0000000000000000e+00  -1.1305604696048228e-08 -2.3799762965331727e-09 0.0000000000000000e+00  -1.1648820720967389e-08 -1.2609253912549284e-09 0.0000000000000000e+00  -1.1759932467882839e-08 -1.4336908552844157e-10 0.0000000000000000e+00  -1.1644214931927164e-08 9.7640705894103457e-10 0.0000000000000000e+00  -1.1299438433176165e-08 2.1024293996176390e-09 0.0000000000000000e+00  -1.0716863978521503e-08 3.2325360401489411e-09 0.0000000000000000e+00  -9.8844370242904297e-09 4.3526772135404154e-09 0.0000000000000000e+00  -8.7924328670693352e-09 5.4329529717847532e-09 0.0000000000000000e+00  -7.4423699294441980e-09 6.4267064056811088e-09 0.0000000000000000e+00  -5.8633838417224194e-09 7.2741882904658393e-09 0.0000000000000000e+00  -4.1592153646754557e-09 7.9131749281194397e-09 0.0000000000000000e+00  -2.7280992365475872e-09 8.2971458640153024e-09 0.0000000000000000e+00  -2.9753526550720694e-09 9.2268679083963892e-09 0.0000000000000000e+00  -2.7754464565553895e-09 -5.1553235728657903e-09 0.0000000000000000e+00  -2.6329278295620930e-09 -6.0805360492323600e-09 0.0000000000000000e+00  -4.1358932998081839e-09 -5.9628292936792858e-09 0.0000000000000000e+00  -5.9294995559880119e-09 -5.5966867517966369e-09 0.0000000000000000e+00  -7.6216092394680013e-09 -5.0448681386498296e-09 0.0000000000000000e+00  -9.0966726557561524e-09 -4.3570771999121132e-09 0.0000000000000000e+00  -1.0312251647355145e-08 -3.5793650446979823e-09 0.0000000000000000e+00  -1.1253805246813764e-08 -2.7495660653354695e-09 0.0000000000000000e+00  -1.1920150716684157e-08 -1.8941614221507789e-09 0.0000000000000000e+00  -1.2315811846978638e-08 -1.0282873187869450e-09 0.0000000000000000e+00  -1.2445964503323560e-08 -1.5818603949866089e-10 0.0000000000000000e+00  -1.2313400286372379e-08 7.1487011844367059e-10 0.0000000000000000e+00  -1.1917460864729963e-08 1.5900249208623540e-09 0.0000000000000000e+00  -1.1254912893702642e-08 2.4623407743759173e-09 0.0000000000000000e+00  -1.0322716070608132e-08 3.3190075195500710e-09 0.0000000000000000e+00  -9.1226745782790863e-09 4.1369938329175091e-09 0.0000000000000000e+00  -7.6684844544765205e-09 4.8829795548741145e-09 0.0000000000000000e+00  -5.9992175711745510e-09 5.5163868160233020e-09 0.0000000000000000e+00  -4.2222561315381827e-09 5.9973316000638415e-09 0.0000000000000000e+00  -2.7246331745498459e-09 6.3015451966691758e-09 0.0000000000000000e+00  -2.8567241710108774e-09 7.2530229883005621e-09 0.0000000000000000e+00  -2.7167558936696641e-09 -3.0792106757931983e-09 0.0000000000000000e+00  -2.6589606563990972e-09 -4.0244784999610825e-09 0.0000000000000000e+00  -4.2047706403367296e-09 -3.9850923920461450e-09 0.0000000000000000e+00  -6.0389916774382751e-09 -3.7703482896689784e-09 0.0000000000000000e+00  -7.7803731914090683e-09 -3.4263699723030107e-09 0.0000000000000000e+00  -9.3145610820543514e-09 -2.9852876438177342e-09 0.0000000000000000e+00  -1.0594343669507352e-08 -2.4766399326