<?xml version="1.0"?>
<VTKFile type="UnstructuredGrid"  version="0.1"  >
<UnstructuredGrid>
<Piece  NumberOfPoints="651" NumberOfCells="1200">
<Points>
<DataArray  type="Float64"  NumberOfComponents="3"  format="ascii">0 0 0  50000 0 0  100000 0 0  150000 0 0  200000 0 0  250000 0 0  300000 0 0  350000 0 0  400000 0 0  450000 0 0  500000 0 0  550000 0 0  600000 0 0  650000 0 0  700000 0 0  750000 0 0  800000 0 0  850000 0 0  900000 0 0  950000 0 0  1000000 0 0  0 50000 0  50000 50000 0  100000 50000 0  150000 50000 0  200000 50000 0  250000 50000 0  300000 50000 0  350000 50000 0  400000 50000 0  450000 50000 0  500000 50000 0  550000 50000 0  600000 50000 0  650000 50000 0  700000 50000 0  750000 50000 0  800000 50000 0  850000 50000 0  900000 50000 0  950000 50000 0  1000000 50000 0  0 100000 0  50000 100000 0  100000 100000 0  150000 100000 0  200000 100000 0  250000 100000 0  300000 100000 0  350000 100000 0  400000 100000 0  450000 100000 0  500000 100000 0  550000 100000 0  600000 100000 0  650000 100000 0  700000 100000 0  750000 100000 0  800000 100000 0  850000 100000 0  900000 100000 0  950000 100000 0  1000000 100000 0  0 150000 0  50000 150000 0  100000 150000 0  150000 150000 0  200000 150000 0  250000 150000 0  300000 150000 0  350000 150000 0  400000 150000 0  450000 150000 0  500000 150000 0  550000 150000 0  600000 150000 0  650000 150000 0  700000 150000 0  750000 150000 0  800000 150000 0  850000 150000 0  900000 150000 0  950000 150000 0  1000000 150000 0  0 200000 0  50000 200000 0  100000 200000 0  150000 200000 0  200000 200000 0  250000 200000 0  300000 200000 0  350000 200000 0  400000 200000 0  450000 200000 0  500000 200000 0  550000 200000 0  600000 200000 0  650000 200000 0  700000 200000 0  750000 200000 0  800000 200000 0  850000 200000 0  900000 200000 0  950000 200000 0  1000000 200000 0  0 250000 0  50000 250000 0  100000 250000 0  150000 250000 0  200000 250000 0  250000 250000 0  300000 250000 0  350000 250000 0  400000 250000 0  450000 250000 0  500000 250000 0  550000 250000 0  600000 250000 0  650000 250000 0  700000 250000 0  750000 250000 0  800000 250000 0  850000 250000 0  900000 250000 0  950000 250000 0  1000000 250000 0  0 300000 0  50000 300000 0  100000 300000 0  150000 300000 0  200000 300000 0  250000 300000 0  300000 300000 0  350000 300000 0  400000 300000 0  450000 300000 0  500000 300000 0  550000 300000 0  600000 300000 0  650000 300000 0  700000 300000 0  750000 300000 0  800000 300000 0  850000 300000 0  900000 300000 0  950000 300000 0  1000000 300000 0  0 350000 0  50000 350000 0  100000 350000 0  150000 350000 0  200000 350000 0  250000 350000 0  300000 350000 0  350000 350000 0  400000 350000 0  450000 350000 0  500000 350000 0  550000 350000 0  600000 350000 0  650000 350000 0  700000 350000 0  750000 350000 0  800000 350000 0  850000 350000 0  900000 350000 0  950000 350000 0  1000000 350000 0  0 400000 0  50000 400000 0  100000 400000 0  150000 400000 0  200000 400000 0  250000 400000 0  300000 400000 0  350000 400000 0  400000 400000 0  450000 400000 0  500000 400000 0  550000 400000 0  600000 400000 0  650000 400000 0  700000 400000 0  750000 400000 0  800000 400000 0  850000 400000 0  900000 400000 0  950000 400000 0  1000000 400000 0  0 450000 0  50000 450000 0  100000 450000 0  150000 450000 0  200000 450000 0  250000 450000 0  300000 450000 0  350000 450000 0  400000 450000 0  450000 450000 0  500000 450000 0  550000 450000 0  600000 450000 0  650000 450000 0  700000 450000 0  750000 450000 0  800000 450000 0  850000 450000 0  900000 450000 0  950000 450000 0  1000000 450000 0  0 500000 0  50000 500000 0  100000 500000 0  150000 500000 0  200000 500000 0  250000 500000 0  300000 500000 0  350000 500000 0  400000 500000 0  450000 500000 0  500000 500000 0  550000 500000 0  600000 500000 0  650000 500000 0  700000 500000 0  750000 500000 0  800000 500000 0  850000 500000 0  900000 500000 0  950000 500000 0  1000000 500000 0  0 550000 0  50000 550000 0  100000 550000 0  150000 550000 0  200000 550000 0  250000 550000 0  300000 550000 0  350000 550000 0  400000 550000 0  450000 550000 0  500000 550000 0  550000 550000 0  600000 550000 0  650000 550000 0  700000 550000 0  750000 550000 0  800000 550000 0  850000 550000 0  900000 550000 0  950000 550000 0  1000000 550000 0  0 600000 0  50000 600000 0  100000 600000 0  150000 600000 0  200000 600000 0  250000 600000 0  300000 600000 0  350000 600000 0  400000 600000 0  450000 600000 0  500000 600000 0  550000 600000 0  600000 600000 0  650000 600000 0  700000 600000 0  750000 600000 0  800000 600000 0  850000 600000 0  900000 600000 0  950000 600000 0  1000000 600000 0  0 650000 0  50000 650000 0  100000 650000 0  150000 650000 0  200000 650000 0  250000 650000 0  300000 650000 0  350000 650000 0  400000 650000 0  450000 650000 0  500000 650000 0  550000 650000 0  600000 650000 0  650000 650000 0  700000 650000 0  750000 650000 0  800000 650000 0  850000 650000 0  900000 650000 0  950000 650000 0  1000000 650000 0  0 700000 0  50000 700000 0  100000 700000 0  150000 700000 0  200000 700000 0  250000 700000 0  300000 700000 0  350000 700000 0  400000 700000 0  450000 700000 0  500000 700000 0  550000 700000 0  600000 700000 0  650000 700000 0  700000 700000 0  750000 700000 0  800000 700000 0  850000 700000 0  900000 700000 0  950000 700000 0  1000000 700000 0  0 750000 0  50000 750000 0  100000 750000 0  150000 750000 0  200000 750000 0  250000 750000 0  300000 750000 0  350000 750000 0  400000 750000 0  450000 750000 0  500000 750000 0  550000 750000 0  600000 750000 0  650000 750000 0  700000 750000 0  750000 750000 0  800000 750000 0  850000 750000 0  900000 750000 0  950000 750000 0  1000000 750000 0  0 800000 0  50000 800000 0  100000 800000 0  150000 800000 0  200000 800000 0  250000 800000 0  300000 800000 0  350000 800000 0  400000 800000 0  450000 800000 0  500000 800000 0  550000 800000 0  600000 800000 0  650000 800000 0  700000 800000 0  750000 800000 0  800000 800000 0  850000 800000 0  900000 800000 0  950000 800000 0  1000000 800000 0  0 850000 0  50000 850000 0  100000 850000 0  150000 850000 0  200000 850000 0  250000 850000 0  300000 850000 0  350000 850000 0  400000 850000 0  450000 850000 0  500000 850000 0  550000 850000 0  600000 850000 0  650000 850000 0  700000 850000 0  750000 850000 0  800000 850000 0  850000 850000 0  900000 850000 0  950000 850000 0  1000000 850000 0  0 900000 0  50000 900000 0  100000 900000 0  150000 900000 0  200000 900000 0  250000 900000 0  300000 900000 0  350000 900000 0  400000 900000 0  450000 900000 0  500000 900000 0  550000 900000 0  600000 900000 0  650000 900000 0  700000 900000 0  750000 900000 0  800000 900000 0  850000 900000 0  900000 900000 0  950000 900000 0  1000000 900000 0  0 950000 0  50000 950000 0  100000 950000 0  150000 950000 0  200000 950000 0  250000 950000 0  300000 950000 0  350000 950000 0  400000 950000 0  450000 950000 0  500000 950000 0  550000 950000 0  600000 950000 0  650000 950000 0  700000 950000 0  750000 950000 0  800000 950000 0  850000 950000 0  900000 950000 0  950000 950000 0  1000000 950000 0  0 1000000 0  50000 1000000 0  100000 1000000 0  150000 1000000 0  200000 1000000 0  250000 1000000 0  300000 1000000 0  350000 1000000 0  400000 1000000 0  450000 1000000 0  500000 1000000 0  550000 1000000 0  600000 1000000 0  650000 1000000 0  700000 1000000 0  750000 1000000 0  800000 1000000 0  850000 1000000 0  900000 1000000 0  950000 1000000 0  1000000 1000000 0  0 1050000 0  50000 1050000 0  100000 1050000 0  150000 1050000 0  200000 1050000 0  250000 1050000 0  300000 1050000 0  350000 1050000 0  400000 1050000 0  450000 1050000 0  500000 1050000 0  550000 1050000 0  600000 1050000 0  650000 1050000 0  700000 1050000 0  750000 1050000 0  800000 1050000 0  850000 1050000 0  900000 1050000 0  950000 1050000 0  1000000 1050000 0  0 1100000 0  50000 1100000 0  100000 1100000 0  150000 1100000 0  200000 1100000 0  250000 1100000 0  300000 1100000 0  350000 1100000 0  400000 1100000 0  450000 1100000 0  500000 1100000 0  550000 1100000 0  600000 1100000 0  650000 1100000 0  700000 1100000 0  750000 1100000 0  800000 1100000 0  850000 1100000 0  900000 1100000 0  950000 1100000 0  1000000 1100000 0  0 1150000 0  50000 1150000 0  100000 1150000 0  150000 1150000 0  200000 1150000 0  250000 1150000 0  300000 1150000 0  350000 1150000 0  400000 1150000 0  450000 1150000 0  500000 1150000 0  550000 1150000 0  600000 1150000 0  650000 1150000 0  700000 1150000 0  750000 1150000 0  800000 1150000 0  850000 1150000 0  900000 1150000 0  950000 1150000 0  1000000 1150000 0  0 1200000 0  50000 1200000 0  100000 1200000 0  150000 1200000 0  200000 1200000 0  250000 1200000 0  300000 1200000 0  350000 1200000 0  400000 1200000 0  450000 1200000 0  500000 1200000 0  550000 1200000 0  600000 1200000 0  650000 1200000 0  700000 1200000 0  750000 1200000 0  800000 1200000 0  850000 1200000 0  900000 1200000 0  950000 1200000 0  1000000 1200000 0  0 1250000 0  50000 1250000 0  100000 1250000 0  150000 1250000 0  200000 1250000 0  250000 1250000 0  300000 1250000 0  350000 1250000 0  400000 1250000 0  450000 1250000 0  500000 1250000 0  550000 1250000 0  600000 1250000 0  650000 1250000 0  700000 1250000 0  750000 1250000 0  800000 1250000 0  850000 1250000 0  900000 1250000 0  950000 1250000 0  1000000 1250000 0  0 1300000 0  50000 1300000 0  100000 1300000 0  150000 1300000 0  200000 1300000 0  250000 1300000 0  300000 1300000 0  350000 1300000 0  400000 1300000 0  450000 1300000 0  500000 1300000 0  550000 1300000 0  600000 1300000 0  650000 1300000 0  700000 1300000 0  750000 1300000 0  800000 1300000 0  850000 1300000 0  900000 1300000 0  950000 1300000 0  1000000 1300000 0  0 1350000 0  50000 1350000 0  100000 1350000 0  150000 1350000 0  200000 1350000 0  250000 1350000 0  300000 1350000 0  350000 1350000 0  400000 1350000 0  450000 1350000 0  500000 1350000 0  550000 1350000 0  600000 1350000 0  650000 1350000 0  700000 135
[...]
<PointData  Vectors="f_7489"> 
<DataArray  type="Float64"  Name="f_7489"  NumberOfComponents="3" format="ascii">-2.4508811652826385e-08 -1.0076648600411511e-08 0.0000000000000000e+00  4.8568243347521270e-08 -6.1703993770933678e-09 0.0000000000000000e+00  4.2869331653394910e-08 -1.8931929846405864e-09 0.0000000000000000e+00  4.0441003472272791e-08 -5.5165443476896035e-10 0.0000000000000000e+00  3.9259723101432682e-08 -1.0083704322457916e-10 0.0000000000000000e+00  3.8493060761759816e-08 7.6877518197559732e-11 0.0000000000000000e+00  3.7944367139818974e-08 1.4867348059486464e-10 0.0000000000000000e+00  3.7556887554326257e-08 1.7199108970043591e-10 0.0000000000000000e+00  3.7312849777935208e-08 1.7153758627978624e-10 0.0000000000000000e+00  3.7207795096890321e-08 1.6071569869920921e-10 0.0000000000000000e+00  3.7242856701115936e-08 1.4893426264382314e-10 0.0000000000000000e+00  3.7422999211411152e-08 1.4490407674088620e-10 0.0000000000000000e+00  3.7758598835542593e-08 1.5913397638382079e-10 0.0000000000000000e+00  3.8271465986118164e-08 2.0745463421432952e-10 0.0000000000000000e+00  3.9010889251074719e-08 3.1831967845963508e-10 0.0000000000000000e+00  4.0096129435367188e-08 5.5091637896801381e-10 0.0000000000000000e+00  4.1828749050260837e-08 1.0438203656388894e-09 0.0000000000000000e+00  4.4955984733724725e-08 2.1416530303684349e-09 0.0000000000000000e+00  5.0807841903024624e-08 4.6619249483872177e-09 0.0000000000000000e+00  5.8054828779403227e-08 9.1721067601575226e-09 0.0000000000000000e+00  -1.6398371620823592e-08 7.0665419711622911e-09 0.0000000000000000e+00  -1.8283514260863990e-08 -1.5638547889974738e-08 0.0000000000000000e+00  7.1841724435931251e-09 -1.1217773020120092e-08 0.0000000000000000e+00  1.8046102886098541e-08 -5.2360331770606830e-09 0.0000000000000000e+00  2.3128417669083575e-08 -2.3863446196703133e-09 0.0000000000000000e+00  2.5744922859288338e-08 -1.1329945921425231e-09 0.0000000000000000e+00  2.7231067075946492e-08 -5.4213308664048109e-10 0.0000000000000000e+00  2.8100029692348376e-08 -2.4612032272500943e-10 0.0000000000000000e+00  2.8612151316409826e-08 -9.4947502598971354e-11 0.0000000000000000e+00  2.8911069492306936e-08 -1.9660329652413410e-11 0.0000000000000000e+00  2.9077041531518795e-08 1.7031501072249240e-11 0.0000000000000000e+00  2.9152091967809739e-08 3.9626626062934965e-11 0.0000000000000000e+00  2.9151523293432574e-08 6.8542989383927134e-11 0.0000000000000000e+00  2.9067903001859249e-08 1.2589630372461949e-10 0.0000000000000000e+00  2.8869523427519991e-08 2.4212168636139903e-10 0.0000000000000000e+00  2.8492324066722233e-08 4.6777484395136835e-10 0.0000000000000000e+00  2.7819234510534293e-08 8.9945281430530659e-10 0.0000000000000000e+00  2.6624904932110211e-08 1.7406915736422761e-09 0.0000000000000000e+00  2.4398388164194567e-08 3.4377591084433171e-09 0.0000000000000000e+00  1.9696382676212775e-08 6.8812115578715518e-09 0.0000000000000000e+00  8.2734081428823318e-09 1.3035449148617072e-08 0.0000000000000000e+00  -1.8367596185025969e-08 1.0996195450784422e-08 0.0000000000000000e+00  -1.1322985503106884e-08 -1.9256603404817153e-08 0.0000000000000000e+00  -2.9882430320694401e-10 -1.8387930135390778e-08 0.0000000000000000e+00  5.7808366836004734e-09 -1.1370160407432691e-08 0.0000000000000000e+00  1.0650156968810387e-08 -6.6109238283863150e-09 0.0000000000000000e+00  1.4468612625471382e-08 -3.8492583028225229e-09 0.0000000000000000e+00  1.7126665368781831e-08 -2.2742730199253247e-09 0.0000000000000000e+00  1.8908358996789231e-08 -1.3494352222714953e-09 0.0000000000000000e+00  2.0077637755471375e-08 -7.8498398650381526e-10 0.0000000000000000e+00  2.0813382274177675e-08 -4.2238960458491020e-10 0.0000000000000000e+00  2.1225954791617606e-08 -1.6753887317926354e-10 0.0000000000000000e+00  2.1375407712334259e-08 4.3671688924514129e-11 0.0000000000000000e+00  2.1282433947402719e-08 2.6419574722722407e-10 0.0000000000000000e+00  2.0932328467240953e-08 5.4898355039212455e-10 0.0000000000000000e+00  2.0272586165481097e-08 9.6862481574256206e-10 0.0000000000000000e+00  1.9203533544679492e-08 1.6294163138005618e-09 0.0000000000000000e+00  1.7560080880829541e-08 2.7075680041371974e-09 0.0000000000000000e+00  1.5083242593248073e-08 4.5039842777976643e-09 0.0000000000000000e+00  1.1391680464673337e-08 7.4928022927296973e-09 0.0000000000000000e+00  6.0204055553204742e-09 1.2140888196246661e-08 0.0000000000000000e+00  -1.2902683484384997e-09 1.7594208234698945e-08 0.0000000000000000e+00  -1.3204108943495365e-08 1.4737496091426570e-08 0.0000000000000000e+00  -7.6386707171300162e-09 -1.9894589941951458e-08 0.0000000000000000e+00  -1.5726143922331500e-09 -1.9791476584453972e-08 0.0000000000000000e+00  1.1009850063705029e-09 -1.5318628385698498e-08 0.0000000000000000e+00  3.8535616562095640e-09 -1.0485153601372660e-08 0.0000000000000000e+00  6.7381320469100548e-09 -6.9187850700107687e-09 0.0000000000000000e+00  9.2560335074806222e-09 -4.5073574785511307e-09 0.0000000000000000e+00  1.1203006328797543e-08 -2.9008846036834430e-09 0.0000000000000000e+00  1.2599728670177644e-08 -1.8110244720055669e-09 0.0000000000000000e+00  1.3528746682916123e-08 -1.0385088493362298e-09 0.0000000000000000e+00  1.4063928704698722e-08 -4.4594837059584050e-10 0.0000000000000000e+00  1.4252254846325546e-08 6.9029293654640797e-11 0.0000000000000000e+00  1.4110920449145868e-08 5.9383845278263218e-10 0.0000000000000000e+00  1.3627438121313955e-08 1.2169109204286895e-09 0.0000000000000000e+00  1.2759828552312233e-08 2.0431783523763570e-09 0.0000000000000000e+00  1.1438109371729901e-08 3.2116243203845918e-09 0.0000000000000000e+00  9.5732758140633271e-09 4.9132924978074127e-09 0.0000000000000000e+00  7.0906255474100894e-09 7.3919361377916261e-09 0.0000000000000000e+00  4.0215692225086453e-09 1.0856804956810339e-08 0.0000000000000000e+00  6.6031956609521647e-10 1.5116132897492768e-08 0.0000000000000000e+00  -2.6291471971446268e-09 1.8754073752590839e-08 0.0000000000000000e+00  -8.9074970056360443e-09 1.7571975324787566e-08 0.0000000000000000e+00  -5.7817282318673882e-09 -1.9317039113270532e-08 0.0000000000000000e+00  -1.9027100078015986e-09 -1.9516372860110478e-08 0.0000000000000000e+00  -9.2671983926284641e-10 -1.6705831579868356e-08 0.0000000000000000e+00  1.9333345937902629e-10 -1.2843789591574464e-08 0.0000000000000000e+00  1.8160662700838547e-09 -9.3137740972151532e-09 0.0000000000000000e+00  3.5799899953530670e-09 -6.5346989543143527e-09 0.0000000000000000e+00  5.1608225121836222e-09 -4.4579258450460398e-09 0.0000000000000000e+00  6.4118077705472753e-09 -2.9137470599897478e-09 0.0000000000000000e+00  7.2974961958818368e-09 -1.7331228804580946e-09 0.0000000000000000e+00  7.8261978923603769e-09 -7.7338687158311757e-10 0.0000000000000000e+00  8.0133018626638306e-09 8.5476786767133521e-11 0.0000000000000000e+00  7.8661215401952187e-09 9.5154620081804680e-10 0.0000000000000000e+00  7.3796641852407828e-09 1.9323332774350161e-09 0.0000000000000000e+00  6.5392090780040767e-09 3.1450412889012753e-09 0.0000000000000000e+00  5.3309220360869783e-09 4.7231378045723595e-09 0.0000000000000000e+00  3.7665435991643482e-09 6.8106664483531753e-09 0.0000000000000000e+00  1.9315091168862679e-09 9.5209312570140864e-09 0.0000000000000000e+00  5.3552411820107883e-11 1.2811754504879881e-08 0.0000000000000000e+00  -1.5014739367321777e-09 1.6231161527613349e-08 0.0000000000000000e+00  -2.7434370564554590e-09 1.8693597325139525e-08 0.0000000000000000e+00  -6.6272905528662391e-09 1.8549834380433086e-08 0.0000000000000000e+00  -4.7291727731817079e-09 -1.8199058400904676e-08 0.0000000000000000e+00  -2.0721305503670148e-09 -1.8587549587367684e-08 0.0000000000000000e+00  -1.9904949593405642e-09 -1.6709550109340665e-08 0.0000000000000000e+00  -1.9140676360429876e-09 -1.3791164811022055e-08 0.0000000000000000e+00  -1.3296910769473423e-09 -1.0706743159439588e-08 0.0000000000000000e+00  -4.0059141489625196e-10 -7.9581420290667030e-09 0.0000000000000000e+00  6.0698376551070061e-10 -5.6864057655845607e-09 0.0000000000000000e+00  1.5026368712555235e-09 -3.8536852998579771e-09 0.0000000000000000e+00  2.1852496641814669e-09 -2.3574737797261313e-09 0.0000000000000000e+00  2.6110696718932511e-09 -1.0815063328731727e-09 0.0000000000000000e+00  2.7647860525726515e-09 8.7978713658450582e-11 0.0000000000000000e+00  2.6429664057765779e-09 1.2603960195334000e-09 0.0000000000000000e+00  2.2482475968164077e-09 2.5434804413940317e-09 0.0000000000000000e+00  1.5923718420211454e-09 4.0450044204943490e-09 0.0000000000000000e+00  7.0822700165155028e-10 5.8680582273625701e-09 0.0000000000000000e+00  -3.2791614379164343e-10 8.0908419315861650e-09 0.0000000000000000e+00  -1.3670613882298463e-09 1.0716451107060888e-08 0.0000000000000000e+00  -2.1755504337106008e-09 1.3579654063045645e-08 0.0000000000000000e+00  -2.5332853758231765e-09 1.6235658045339937e-08 0.0000000000000000e+00  -2.7231952551983959e-09 1.7983668865728921e-08 0.0000000000000000e+00  -5.2962239257538235e-09 1.8297419198361001e-08 0.0000000000000000e+00  -4.0580647463776659e-09 -1.6782237534639769e-08 0.0000000000000000e+00  -2.2022062526109985e-09 -1.7301836276913942e-08 0.0000000000000000e+00  -2.6528395975620096e-09 -1.5979224146096338e-08 0.0000000000000000e+00  -3.2347174890798273e-09 -1.3766815544392778e-08 0.0000000000000000e+00  -3.4044175335757013e-09 -1.1202024951867903e-08 0.0000000000000000e+00  -3.1879659633322445e-09 -8.6936681009072038e-09 0.0000000000000000e+00  -2.7584078288480495e-09 -6.4426831356067481e-09 0.0000000000000000e+00  -2.2815577784024807e-09 -4.4954351699183028e-09 0.0000000000000000e+00  -1.8730740954738547e-09 -2.8132775122023641e-09 0.0000000000000000e+00  -1.6009372001714222e-09 -1.3190124629994249e-09 0.0000000000000000e+00  -1.4990705387941868e-09 7.8959057764425854e-11 0.0000000000000000e+00  -1.5783556183746954e-09 1.4757410502576060e-09 0.0000000000000000e+00  -1.8312679590699151e-09 2.9645228428325570e-09 0.0000000000000000e+00  -2.2297973207493888e-09 4.6307804515215232e-09 0.0000000000000000e+00  -2.7173031661111038e-09 6.5406767552058082e-09 0.0000000000000000e+00  -3.1967412146454071e-09 8.7177187679671301e-09 0.0000000000000000e+00  -3.5236512515865923e-09 1.1102994006297955e-08 0.0000000000000000e+00  -3.5278716836284412e-09 1.3504080137839432e-08 0.0000000000000000e+00  -3.1259089418975956e-09 1.5566659066131254e-08 0.0000000000000000e+00  -2.7090881983104886e-09 1.6855299113400417e-08 0.0000000000000000e+00  -4.4395217722456727e-09 1.7386318733046168e-08 0.0000000000000000e+00  -3.5926669996533278e-09 -1.5166361773771441e-08 0.0000000000000000e+00  -2.3100691724089566e-09 -1.5780736359288261e-08 0.0000000000000000e+00  -3.1132916300835470e-09 -1.4812773330167433e-08 0.0000000000000000e+00  -4.1238978781639985e-09 -1.3110610611031080e-08 0.0000000000000000e+00  -4.8217404493428473e-09 -1.1013743933805119e-08 0.0000000000000000e+00  -5.1564922100222242e-09 -8.8207162171436298e-09 0.0000000000000000e+00  -5.2226289089158356e-09 -6.7220631874989708e-09 0.0000000000000000e+00  -5.1406848924490189e-09 -4.7999969090812485e-09 0.0000000000000000e+00  -5.0116889606333817e-09 -3.0595036497438875e-09 0.0000000000000000e+00  -4.9051492832716150e-09 -1.4598203795854602e-09 0.0000000000000000e+00  -4.8605990863427593e-09 6.3027022603729041e-11 0.0000000000000000e+00  -4.8919650317204042e-09 1.5817612394945265e-09 0.0000000000000000e+00  -4.9900235423608055e-09 3.1675923868075038e-09 0.0000000000000000e+00  -5.1216400883759135e-09 4.8800536096260061e-09 0.0000000000000000e+00  -5.2266580572177808e-09 6.7532351396785345e-09 0.0000000000000000e+00  -5.2158051006254926e-09 8.7758087164034239e-09 0.0000000000000000e+00  -4.9773943691958044e-09 1.0865647646162615e-08 0.0000000000000000e+00  -4.4091822640015516e-09 1.2848216923361913e-08 0.0000000000000000e+00  -3.5144640290911099e-09 1.4462737833307062e-08 0.0000000000000000e+00  -2.7086679592184726e-09 1.5439066918608930e-08 0.0000000000000000e+00  -3.8490002131254574e-09 1.6090764377616300e-08 0.0000000000000000e+00  -3.2521087973403594e-09 -1.3405070057995409e-08 0.0000000000000000e+00  -2.3988491770486195e-09 -1.4089774836412477e-08 0.0000000000000000e+00  -3.4518748931807775e-09 -1.3362830917882974e-08 0.0000000000000000e+00  -4.7520926315547664e-09 -1.2036882981027687e-08 0.0000000000000000e+00  -5.8171219460135503e-09 -1.0334266356141862e-08 0.0000000000000000e+00  -6.5590034984393820e-09 -8.4657568298119596e-09 0.0000000000000000e+00  -7.0169443603916861e-09 -6.5881925106113071e-09 0.0000000000000000e+00  -7.2676977350855850e-09 -4.7894158126069655e-09 0.0000000000000000e+00  -7.3869356179154512e-09 -3.0976200435227563e-09 0.0000000000000000e+00  -7.4330737537056838e-09 -1.4991304585738053e-09 0.0000000000000000e+00  -7.4422751273555500e-09 4.4488329322422658e-11 0.0000000000000000e+00  -7.4280483310330820e-09 1.5824701211953408e-09 0.0000000000000000e+00  -7.3818157413623471e-09 3.1631515874048135e-09 0.0000000000000000e+00  -7.2731789335304518e-09 4.8225756141270082e-09 0.0000000000000000e+00  -7.0505746525339336e-09 6.5716321956484595e-09 0.0000000000000000e+00  -6.6450129560854860e-09 8.3813284573007841e-09 0.0000000000000000e+00  -5.9821203863005165e-09 1.0168774317091046e-08 0.0000000000000000e+00  -5.0124111331749594e-09 1.1791423325193007e-08 0.0000000000000000e+00  -3.7874885563398287e-09 1.3063495078634001e-08 0.0000000000000000e+00  -2.7145313725729633e-09 1.3816754267560208e-08 0.0000000000000000e+00  -3.4233005524250253e-09 1.4544832871187490e-08 0.0000000000000000e+00  -2.9950807728260852e-09 -1.1534258056522036e-08 0.0000000000000000e+00  -2.4704883467344131e-09 -1.2271889396997758e-08 0.0000000000000000e+00  -3.7065883643834756e-09 -1.1718712284371072e-08 0.0000000000000000e+00  -5.2075217326927180e-09 -1.0680605533527983e-08 0.0000000000000000e+00  -6.5277476706358580e-09 -9.3084361084760583e-09 0.0000000000000000e+00  -7.5626667762118069e-09 -7.7495321776459449e-09 0.0000000000000000e+00  -8.3154970068483424e-09 -6.1249300391332483e-09 0.0000000000000000e+00  -8.8278740922609173e-09 -4.5137378390629517e-09 0.0000000000000000e+00  -9.1496714984405201e-09 -2.9528611004568928e-09 0.0000000000000000e+00  -9.3236915383167535e-09 -1.4456761324478165e-09 0.0000000000000000e+00  -9.3783453083011484e-09 2.6408154142153395e-11 0.0000000000000000e+00  -9.3247817802421615e-09 1.4924407182759719e-09 0.0000000000000000e+00  -9.1563001552112874e-09 2.9811147905999585e-09 0.0000000000000000e+00  -8.8491747975913988e-09 4.5102519766559941e-09 0.0000000000000000e+00  -8.3653029491341906e-09 6.0762320424396474e-09 0.0000000000000000e+00  -7.6583005474924802e-09 7.6440223087571868e-09 0.0000000000000000e+00  -6.6859842158236692e-09 9.1403543588489870e-09 0.0000000000000000e+00  -5.4354401193414465e-09 1.0454959149065107e-08 0.0000000000000000e+00  -3.9836875087646552e-09 1.1457485011946571e-08 0.0000000000000000e+00  -2.7205774616569962e-09 1.2043556401822902e-08 0.0000000000000000e+00  -3.1080596397176694e-09 1.2823620528633594e-08 0.0000000000000000e+00  -2.7986949614458813e-09 -9.5810477481639231e-09 0.0000000000000000e+00  -2.5272943530050351e-09 -1.0358714666165565e-08 0.0000000000000000e+00  -3.8990502450276984e-09 -9.9383269693158438e-09 0.0000000000000000e+00  -5.5406040472746906e-09 -9.1303413624080932e-09 0.0000000000000000e+00  -7.0376377356006204e-09 -8.0404295530265116e-09 0.0000000000000000e+00  -8.2793754830045484e-09 -6.7711429891563652e-09 0.0000000000000000e+00  -9.2464584412895254e-09 -5.4124679555230446e-09 0.0000000000000000e+00  -9.9547271199212963e-09 -4.0296363847081588e-09 0.0000000000000000e+00  -1.0432169614673691e-08 -2.6596020631708710e-09 0.0000000000000000e+00  -1.0706229774154817e-08 -1.3146085070533097e-09 0.0000000000000000e+00  -1.0796518470449306e-08 1.0550864586527003e-11 0.0000000000000000e+00  -1.0711150870386172e-08 1.3299234350614275e-09 0.0000000000000000e+00  -1.0445654408472107e-08 2.6575663605946050e-09 0.0000000000000000e+00  -9.9839764546731256e-09 3.9989279765701234e-09 0.0000000000000000e+00  -9.3017646395484040e-09 5.3428477997126719e-09 0.0000000000000000e+00  -8.3726863106763036e-09 6.6551555810386768e-09 0.0000000000000000e+00  -7.1792802385606936e-09 7.8758130614741230e-09 0.0000000000000000e+00  -5.7328062593894465e-09 8.9224609174926119e-09 0.0000000000000000e+00  -4.1233530145207817e-09 9.7047124812317906e-09 0.0000000000000000e+00  -2.7234457431939108e-09 1.0159235247172017e-08 0.0000000000000000e+00  -2.8718858033144594e-09 1.0975402576294423e-08 0.0000000000000000e+00  -2.6495889298414933e-09 -7.5670348548321935e-09 0.0000000000000000e+00  -2.5718871127070276e-09 -8.3749362021731905e-09 0.0000000000000000e+00  -4.0435618908137919e-09 -8.0619963149568748e-09 0.0000000000000000e+00  -5.7831506744982894e-09 -7.4466363069901968e-09 0.0000000000000000e+00  -7.4012298071527607e-09 -6.6047673371036460e-09 0.0000000000000000e+00  -8.7857504009549187e-09 -5.6071614944773671e-09 0.0000000000000000e+00  -9.9035142183894273e-09 -4.5185963208404352e-09 0.0000000000000000e+00  -1.0752402756409451e-08 -3.3896008213690992e-09 0.0000000000000000e+00  -1.1343585564569865e-08 -2.2525322679153438e-09 0.0000000000000000e+00  -1.1691599762569046e-08 -1.1226250552741714e-09 0.0000000000000000e+00  -1.1808077878890967e-08 -2.3089747617073852e-12 0.0000000000000000e+00  -1.1698214531650928e-08 1.1127920799273187e-09 0.0000000000000000e+00  -1.1359583205244686e-08 2.2272654471408578e-09 0.0000000000000000e+00  -1.0783109329954061e-08 3.3394346968929104e-09 0.0000000000000000e+00  -9.9562230132358625e-09 4.4356751178905839e-09 0.0000000000000000e+00  -8.8684326479905287e-09 5.4864512386138458e-09 0.0000000000000000e+00  -7.5200751638595390e-09 6.4453974006793213e-09 0.0000000000000000e+00  -5.9380547773778304e-09 7.2530212310234848e-09 0.0000000000000000e+00  -4.2192025822896872e-09 7.8478459462456240e-09 0.0000000000000000e+00  -2.7218584587328988e-09 8.1937861154224782e-09 0.0000000000000000e+00  -2.6957348306057952e-09 9.0345045485754539e-09 0.0000000000000000e+00  -2.5397795314279034e-09 -5.5097862566565084e-09 0.0000000000000000e+00  -2.6069249669876650e-09 -6.3403092543799728e-09 0.0000000000000000e+00  -4.1504783547847041e-09 -6.1191711399686079e-09 0.0000000000000000e+00  -5.9567310686893290e-09 -5.6723435549432443e-09 0.0000000000000000e+00  -7.6553385695471556e-09 -5.0551962467180734e-09 0.0000000000000000e+00  -9.1351026465213490e-09 -4.3153644814177859e-09 0.0000000000000000e+00  -1.0354580427650584e-08 -3.4974092355979761e-09 0.0000000000000000e+00  -1.1299723451576205e-08 -2.6379601847769790e-09 0.0000000000000000e+00  -1.1969699276657573e-08 -1.7624952633251234e-09 0.0000000000000000e+00  -1.2369264804780153e-08 -8.8532211275128698e-10 0.0000000000000000e+00  -1.2503705040342870e-08 -1.2009446729634388e-11 0.0000000000000000e+00  -1.2375790362991546e-08 8.5670947392833579e-10 0.0000000000000000e+00  -1.1984701015117068e-08 1.7204016657393568e-09 0.0000000000000000e+00  -1.1326882935375918e-08 2.5744483990658003e-09 0.0000000000000000e+00  -1.0398782199219647e-08 3.4062513056396925e-09 0.0000000000000000e+00  -9.2014365103648338e-09 4.1928597136576352e-09 0.0000000000000000e+00  -7.7473763911569900e-09 4.9008540879728114e-09 0.0000000000000000e+00  -6.0734883071488648e-09 5.4893465212879042e-09 0.0000000000000000e+00  -4.2802486367257438e-09 5.9182822798558710e-09 0.0000000000000000e+00  -2.7158038636231167e-09 6.1704742501939985e-09 0.0000000000000000e+00  -2.5676818815623482e-09 7.0268291452265739e-09 0.0000000000000000e+00  -2.4645578473635816e-09 -3.4238286315464895e-09 0.0000000000000000e+00  -2.6348362969720578e-09 -4.2708906040430062e-09 0.0000000000000000e+00  -4.2274656558498965e-09 -4.1321622901172892e-09 0.0000000000000000e+00  -6.0763539550335260e-09 -3.8388084569532197e-09 0.0000000000000000e+00  -7.8251487651222438e-09 -3.4311677185405511e-09 0.0000000000000000e+00  -9.3642834769313999e-09 -2.9392594901645362e-09 0.0000000000000000e+00  -1.0647713035914649e-08 -2.3911036254983673