<?xml version="1.0"?>
<VTKFile type="UnstructuredGrid"  version="0.1"  >
<UnstructuredGrid>
<Piece  NumberOfPoints="651" NumberOfCells="1200">
<Points>
<DataArray  type="Float64"  NumberOfComponents="3"  format="ascii">0 0 0  50000 0 0  100000 0 0  150000 0 0  200000 0 0  250000 0 0  300000 0 0  350000 0 0  400000 0 0  450000 0 0  500000 0 0  550000 0 0  600000 0 0  650000 0 0  700000 0 0  750000 0 0  800000 0 0  850000 0 0  900000 0 0  950000 0 0  1000000 0 0  0 50000 0  50000 50000 0  100000 50000 0  150000 50000 0  200000 50000 0  250000 50000 0  300000 50000 0  350000 50000 0  400000 50000 0  450000 50000 0  500000 50000 0  550000 50000 0  600000 50000 0  650000 50000 0  700000 50000 0  750000 50000 0  800000 50000 0  850000 50000 0  900000 50000 0  950000 50000 0  1000000 50000 0  0 100000 0  50000 100000 0  100000 100000 0  150000 100000 0  200000 100000 0  250000 100000 0  300000 100000 0  350000 100000 0  400000 100000 0  450000 100000 0  500000 100000 0  550000 100000 0  600000 100000 0  650000 100000 0  700000 100000 0  750000 100000 0  800000 100000 0  850000 100000 0  900000 100000 0  950000 100000 0  1000000 100000 0  0 150000 0  50000 150000 0  100000 150000 0  150000 150000 0  200000 150000 0  250000 150000 0  300000 150000 0  350000 150000 0  400000 150000 0  450000 150000 0  500000 150000 0  550000 150000 0  600000 150000 0  650000 150000 0  700000 150000 0  750000 150000 0  800000 150000 0  850000 150000 0  900000 150000 0  950000 150000 0  1000000 150000 0  0 200000 0  50000 200000 0  100000 200000 0  150000 200000 0  200000 200000 0  250000 200000 0  300000 200000 0  350000 200000 0  400000 200000 0  450000 200000 0  500000 200000 0  550000 200000 0  600000 200000 0  650000 200000 0  700000 200000 0  750000 200000 0  800000 200000 0  850000 200000 0  900000 200000 0  950000 200000 0  1000000 200000 0  0 250000 0  50000 250000 0  100000 250000 0  150000 250000 0  200000 250000 0  250000 250000 0  300000 250000 0  350000 250000 0  400000 250000 0  450000 250000 0  500000 250000 0  550000 250000 0  600000 250000 0  650000 250000 0  700000 250000 0  750000 250000 0  800000 250000 0  850000 250000 0  900000 250000 0  950000 250000 0  1000000 250000 0  0 300000 0  50000 300000 0  100000 300000 0  150000 300000 0  200000 300000 0  250000 300000 0  300000 300000 0  350000 300000 0  400000 300000 0  450000 300000 0  500000 300000 0  550000 300000 0  600000 300000 0  650000 300000 0  700000 300000 0  750000 300000 0  800000 300000 0  850000 300000 0  900000 300000 0  950000 300000 0  1000000 300000 0  0 350000 0  50000 350000 0  100000 350000 0  150000 350000 0  200000 350000 0  250000 350000 0  300000 350000 0  350000 350000 0  400000 350000 0  450000 350000 0  500000 350000 0  550000 350000 0  600000 350000 0  650000 350000 0  700000 350000 0  750000 350000 0  800000 350000 0  850000 350000 0  900000 350000 0  950000 350000 0  1000000 350000 0  0 400000 0  50000 400000 0  100000 400000 0  150000 400000 0  200000 400000 0  250000 400000 0  300000 400000 0  350000 400000 0  400000 400000 0  450000 400000 0  500000 400000 0  550000 400000 0  600000 400000 0  650000 400000 0  700000 400000 0  750000 400000 0  800000 400000 0  850000 400000 0  900000 400000 0  950000 400000 0  1000000 400000 0  0 450000 0  50000 450000 0  100000 450000 0  150000 450000 0  200000 450000 0  250000 450000 0  300000 450000 0  350000 450000 0  400000 450000 0  450000 450000 0  500000 450000 0  550000 450000 0  600000 450000 0  650000 450000 0  700000 450000 0  750000 450000 0  800000 450000 0  850000 450000 0  900000 450000 0  950000 450000 0  1000000 450000 0  0 500000 0  50000 500000 0  100000 500000 0  150000 500000 0  200000 500000 0  250000 500000 0  300000 500000 0  350000 500000 0  400000 500000 0  450000 500000 0  500000 500000 0  550000 500000 0  600000 500000 0  650000 500000 0  700000 500000 0  750000 500000 0  800000 500000 0  850000 500000 0  900000 500000 0  950000 500000 0  1000000 500000 0  0 550000 0  50000 550000 0  100000 550000 0  150000 550000 0  200000 550000 0  250000 550000 0  300000 550000 0  350000 550000 0  400000 550000 0  450000 550000 0  500000 550000 0  550000 550000 0  600000 550000 0  650000 550000 0  700000 550000 0  750000 550000 0  800000 550000 0  850000 550000 0  900000 550000 0  950000 550000 0  1000000 550000 0  0 600000 0  50000 600000 0  100000 600000 0  150000 600000 0  200000 600000 0  250000 600000 0  300000 600000 0  350000 600000 0  400000 600000 0  450000 600000 0  500000 600000 0  550000 600000 0  600000 600000 0  650000 600000 0  700000 600000 0  750000 600000 0  800000 600000 0  850000 600000 0  900000 600000 0  950000 600000 0  1000000 600000 0  0 650000 0  50000 650000 0  100000 650000 0  150000 650000 0  200000 650000 0  250000 650000 0  300000 650000 0  350000 650000 0  400000 650000 0  450000 650000 0  500000 650000 0  550000 650000 0  600000 650000 0  650000 650000 0  700000 650000 0  750000 650000 0  800000 650000 0  850000 650000 0  900000 650000 0  950000 650000 0  1000000 650000 0  0 700000 0  50000 700000 0  100000 700000 0  150000 700000 0  200000 700000 0  250000 700000 0  300000 700000 0  350000 700000 0  400000 700000 0  450000 700000 0  500000 700000 0  550000 700000 0  600000 700000 0  650000 700000 0  700000 700000 0  750000 700000 0  800000 700000 0  850000 700000 0  900000 700000 0  950000 700000 0  1000000 700000 0  0 750000 0  50000 750000 0  100000 750000 0  150000 750000 0  200000 750000 0  250000 750000 0  300000 750000 0  350000 750000 0  400000 750000 0  450000 750000 0  500000 750000 0  550000 750000 0  600000 750000 0  650000 750000 0  700000 750000 0  750000 750000 0  800000 750000 0  850000 750000 0  900000 750000 0  950000 750000 0  1000000 750000 0  0 800000 0  50000 800000 0  100000 800000 0  150000 800000 0  200000 800000 0  250000 800000 0  300000 800000 0  350000 800000 0  400000 800000 0  450000 800000 0  500000 800000 0  550000 800000 0  600000 800000 0  650000 800000 0  700000 800000 0  750000 800000 0  800000 800000 0  850000 800000 0  900000 800000 0  950000 800000 0  1000000 800000 0  0 850000 0  50000 850000 0  100000 850000 0  150000 850000 0  200000 850000 0  250000 850000 0  300000 850000 0  350000 850000 0  400000 850000 0  450000 850000 0  500000 850000 0  550000 850000 0  600000 850000 0  650000 850000 0  700000 850000 0  750000 850000 0  800000 850000 0  850000 850000 0  900000 850000 0  950000 850000 0  1000000 850000 0  0 900000 0  50000 900000 0  100000 900000 0  150000 900000 0  200000 900000 0  250000 900000 0  300000 900000 0  350000 900000 0  400000 900000 0  450000 900000 0  500000 900000 0  550000 900000 0  600000 900000 0  650000 900000 0  700000 900000 0  750000 900000 0  800000 900000 0  850000 900000 0  900000 900000 0  950000 900000 0  1000000 900000 0  0 950000 0  50000 950000 0  100000 950000 0  150000 950000 0  200000 950000 0  250000 950000 0  300000 950000 0  350000 950000 0  400000 950000 0  450000 950000 0  500000 950000 0  550000 950000 0  600000 950000 0  650000 950000 0  700000 950000 0  750000 950000 0  800000 950000 0  850000 950000 0  900000 950000 0  950000 950000 0  1000000 950000 0  0 1000000 0  50000 1000000 0  100000 1000000 0  150000 1000000 0  200000 1000000 0  250000 1000000 0  300000 1000000 0  350000 1000000 0  400000 1000000 0  450000 1000000 0  500000 1000000 0  550000 1000000 0  600000 1000000 0  650000 1000000 0  700000 1000000 0  750000 1000000 0  800000 1000000 0  850000 1000000 0  900000 1000000 0  950000 1000000 0  1000000 1000000 0  0 1050000 0  50000 1050000 0  100000 1050000 0  150000 1050000 0  200000 1050000 0  250000 1050000 0  300000 1050000 0  350000 1050000 0  400000 1050000 0  450000 1050000 0  500000 1050000 0  550000 1050000 0  600000 1050000 0  650000 1050000 0  700000 1050000 0  750000 1050000 0  800000 1050000 0  850000 1050000 0  900000 1050000 0  950000 1050000 0  1000000 1050000 0  0 1100000 0  50000 1100000 0  100000 1100000 0  150000 1100000 0  200000 1100000 0  250000 1100000 0  300000 1100000 0  350000 1100000 0  400000 1100000 0  450000 1100000 0  500000 1100000 0  550000 1100000 0  600000 1100000 0  650000 1100000 0  700000 1100000 0  750000 1100000 0  800000 1100000 0  850000 1100000 0  900000 1100000 0  950000 1100000 0  1000000 1100000 0  0 1150000 0  50000 1150000 0  100000 1150000 0  150000 1150000 0  200000 1150000 0  250000 1150000 0  300000 1150000 0  350000 1150000 0  400000 1150000 0  450000 1150000 0  500000 1150000 0  550000 1150000 0  600000 1150000 0  650000 1150000 0  700000 1150000 0  750000 1150000 0  800000 1150000 0  850000 1150000 0  900000 1150000 0  950000 1150000 0  1000000 1150000 0  0 1200000 0  50000 1200000 0  100000 1200000 0  150000 1200000 0  200000 1200000 0  250000 1200000 0  300000 1200000 0  350000 1200000 0  400000 1200000 0  450000 1200000 0  500000 1200000 0  550000 1200000 0  600000 1200000 0  650000 1200000 0  700000 1200000 0  750000 1200000 0  800000 1200000 0  850000 1200000 0  900000 1200000 0  950000 1200000 0  1000000 1200000 0  0 1250000 0  50000 1250000 0  100000 1250000 0  150000 1250000 0  200000 1250000 0  250000 1250000 0  300000 1250000 0  350000 1250000 0  400000 1250000 0  450000 1250000 0  500000 1250000 0  550000 1250000 0  600000 1250000 0  650000 1250000 0  700000 1250000 0  750000 1250000 0  800000 1250000 0  850000 1250000 0  900000 1250000 0  950000 1250000 0  1000000 1250000 0  0 1300000 0  50000 1300000 0  100000 1300000 0  150000 1300000 0  200000 1300000 0  250000 1300000 0  300000 1300000 0  350000 1300000 0  400000 1300000 0  450000 1300000 0  500000 1300000 0  550000 1300000 0  600000 1300000 0  650000 1300000 0  700000 1300000 0  750000 1300000 0  800000 1300000 0  850000 1300000 0  900000 1300000 0  950000 1300000 0  1000000 1300000 0  0 1350000 0  50000 1350000 0  100000 1350000 0  150000 1350000 0  200000 1350000 0  250000 1350000 0  300000 1350000 0  350000 1350000 0  400000 1350000 0  450000 1350000 0  500000 1350000 0  550000 1350000 0  600000 1350000 0  650000 1350000 0  700000 135
[...]
<PointData  Vectors="f_7489"> 
<DataArray  type="Float64"  Name="f_7489"  NumberOfComponents="3" format="ascii">-2.4419051344503247e-08 -1.0310808885082372e-08 0.0000000000000000e+00  4.8645710027620247e-08 -6.3978346368709007e-09 0.0000000000000000e+00  4.2929414272338033e-08 -2.1071427297364195e-09 0.0000000000000000e+00  4.0485873055259813e-08 -7.5152308464418371e-10 0.0000000000000000e+00  3.9290800593522445e-08 -2.8674220677633473e-10 0.0000000000000000e+00  3.8511838211443685e-08 -9.4828819537349031e-11 0.0000000000000000e+00  3.7952453162275475e-08 -8.4933151793510779e-12 0.0000000000000000e+00  3.7556010560752466e-08 2.9625562046997393e-11 0.0000000000000000e+00  3.7304818849971010e-08 4.4053472611999851e-11 0.0000000000000000e+00  3.7194430610839577e-08 4.7950051863862923e-11 0.0000000000000000e+00  3.7225905653214899e-08 5.0451614213465478e-11 0.0000000000000000e+00  3.7404047077228739e-08 5.9996134436211878e-11 0.0000000000000000e+00  3.7738988592961022e-08 8.6843950099498919e-11 0.0000000000000000e+00  3.8252233075971949e-08 1.4661892513282305e-10 0.0000000000000000e+00  3.8992717613417650e-08 2.6761738410563866e-10 0.0000000000000000e+00  4.0079328467977071e-08 5.0891634265814890e-10 0.0000000000000000e+00  4.1813245132880888e-08 1.0090166231302249e-09 0.0000000000000000e+00  4.4941318138686459e-08 2.1124813391760705e-09 0.0000000000000000e+00  5.0793197937680571e-08 4.6367603541802037e-09 0.0000000000000000e+00  5.8039333541996992e-08 9.1492834137932341e-09 0.0000000000000000e+00  -1.6414205043610113e-08 7.0433955330104689e-09 0.0000000000000000e+00  -1.8184771662851562e-08 -1.5866109928567280e-08 0.0000000000000000e+00  7.2358743977844686e-09 -1.1294631155282392e-08 0.0000000000000000e+00  1.8125289981282387e-08 -5.2548326450796486e-09 0.0000000000000000e+00  2.3195688933298529e-08 -2.4002653250594794e-09 0.0000000000000000e+00  2.5792948938540330e-08 -1.1455303977318248e-09 0.0000000000000000e+00  2.7262625030063721e-08 -5.5422657794237812e-10 0.0000000000000000e+00  2.8117811907106218e-08 -2.5811611356980746e-10 0.0000000000000000e+00  2.8618575133277501e-08 -1.0698542774006311e-10 0.0000000000000000e+00  2.8908481662057440e-08 -3.1820720181666888e-11 0.0000000000000000e+00  2.9067687209522509e-08 4.7091946730049069e-12 0.0000000000000000e+00  2.9138067256888461e-08 2.7149038343752018e-11 0.0000000000000000e+00  2.9134734857948122e-08 5.5964276255169858e-11 0.0000000000000000e+00  2.9050031556716410e-08 1.1331163967543221e-10 0.0000000000000000e+00  2.8851994702902172e-08 2.2965253148026620e-10 0.0000000000000000e+00  2.8476291998436199e-08 4.5554648879792802e-10 0.0000000000000000e+00  2.7805580744878321e-08 8.8756346288779070e-10 0.0000000000000000e+00  2.6614252209558827e-08 1.7291692672391172e-09 0.0000000000000000e+00  2.4391058222505161e-08 3.4265205276002597e-09 0.0000000000000000e+00  1.9691975396438819e-08 6.8700521145945676e-09 0.0000000000000000e+00  8.2706573977098099e-09 1.3023730374806131e-08 0.0000000000000000e+00  -1.8382981207207434e-08 1.0973874725840480e-08 0.0000000000000000e+00  -1.1212381381286308e-08 -1.9469258878274355e-08 0.0000000000000000e+00  -2.6855929765660951e-10 -1.8461277182046476e-08 0.0000000000000000e+00  5.8374066151357469e-09 -1.1356361751406329e-08 0.0000000000000000e+00  1.0716578193960689e-08 -6.5812392869570811e-09 0.0000000000000000e+00  1.4530370972463951e-08 -3.8174675984150158e-09 0.0000000000000000e+00  1.7178036438866171e-08 -2.2444352119555771e-09 0.0000000000000000e+00  1.8948726236112600e-08 -1.3230297066168403e-09 0.0000000000000000e+00  2.0107990684109843e-08 -7.6256115487223780e-10 0.0000000000000000e+00  2.0835165004777293e-08 -4.0414984515278561e-10 0.0000000000000000e+00  2.1240724083284739e-08 -1.5350614679134563e-10 0.0000000000000000e+00  2.1384691335627276e-08 5.3609281595975988e-11 0.0000000000000000e+00  2.1287660803295279e-08 2.7027359890994754e-10 0.0000000000000000e+00  2.0934791456201356e-08 5.5154565928335763e-10 0.0000000000000000e+00  2.0273419626521284e-08 9.6809817632742598e-10 0.0000000000000000e+00  1.9203697199216604e-08 1.6262727511576685e-09 0.0000000000000000e+00  1.7560345950890867e-08 2.7022723076363969e-09 0.0000000000000000e+00  1.5084170258124972e-08 4.4969269324429595e-09 0.0000000000000000e+00  1.1393561180923827e-08 7.4842216794152504e-09 0.0000000000000000e+00  6.0230163968426862e-09 1.2130766940108017e-08 0.0000000000000000e+00  -1.2876002454599696e-09 1.7584069184791407e-08 0.0000000000000000e+00  -1.3217001655551186e-08 1.4716821060647383e-08 0.0000000000000000e+00  -7.5174573768890905e-09 -2.0092113511845286e-08 0.0000000000000000e+00  -1.5559852174074387e-09 -1.9887858075135211e-08 0.0000000000000000e+00  1.1285785748873328e-09 -1.5319829851443077e-08 0.0000000000000000e+00  3.8968026155522371e-09 -1.0453506862561773e-08 0.0000000000000000e+00  6.7878864594534431e-09 -6.8775208612266308e-09 0.0000000000000000e+00  9.3044467977848685e-09 -4.4654920367909591e-09 0.0000000000000000e+00  1.1246284565436063e-08 -2.8622159056133022e-09 0.0000000000000000e+00  1.2636599846674724e-08 -1.7772046251281572e-09 0.0000000000000000e+00  1.3559206093124875e-08 -1.0102200161995804e-09 0.0000000000000000e+00  1.4088557465342460e-08 -4.2338601002719313e-10 0.0000000000000000e+00  1.4271886943365585e-08 8.5959554359819451e-11 0.0000000000000000e+00  1.4126476952756451e-08 6.0543524343112628e-10 0.0000000000000000e+00  1.3639839206226867e-08 1.2236288374282157e-09 0.0000000000000000e+00  1.2769941303655790e-08 2.0455876257979454e-09 0.0000000000000000e+00  1.1446709430242143e-08 3.2103671422116506e-09 0.0000000000000000e+00  9.5810092131923392e-09 4.9090316988355155e-09 0.0000000000000000e+00  7.0979571677241864e-09 7.3852968155640095e-09 0.0000000000000000e+00  4.0286857907065786e-09 1.0848333027934353e-08 0.0000000000000000e+00  6.6677965316627713e-10 1.5106418903050443e-08 0.0000000000000000e+00  -2.6237510592406556e-09 1.8747002711486486e-08 0.0000000000000000e+00  -8.9162283950287027e-09 1.7554148856503686e-08 0.0000000000000000e+00  -5.6513387890089469e-09 -1.9499274505727304e-08 0.0000000000000000e+00  -1.8919539152744280e-09 -1.9623835936906357e-08 0.0000000000000000e+00  -9.1786183081745013e-10 -1.6725794772451419e-08 0.0000000000000000e+00  2.1480301284802332e-10 -1.2822666553214621e-08 0.0000000000000000e+00  1.8480058863925417e-09 -9.2749726565019629e-09 0.0000000000000000e+00  3.6166154460981238e-09 -6.4904661731864990e-09 0.0000000000000000e+00  5.1977249390897595e-09 -4.4145088139122845e-09 0.0000000000000000e+00  6.4464423856602176e-09 -2.8742959289164291e-09 0.0000000000000000e+00  7.3286586450981486e-09 -1.6991716708434527e-09 0.0000000000000000e+00  7.8535110311694542e-09 -7.4558933764282463e-10 0.0000000000000000e+00  8.0368666579446338e-09 1.0698452209139273e-10 0.0000000000000000e+00  7.8863030992207488e-09 9.6696267009543849e-10 0.0000000000000000e+00  7.3969622118763080e-09 1.9420915067665892e-09 0.0000000000000000e+00  6.5541735919860677e-09 3.1497446543400361e-09 0.0000000000000000e+00  5.3440883201247193e-09 4.7235103502326248e-09 0.0000000000000000e+00  3.7783681348025695e-09 6.8075094212154982e-09 0.0000000000000000e+00  1.9422893239122212e-09 9.5150901784513099e-09 0.0000000000000000e+00  6.3297814985882446e-11 1.2804144568391074e-08 0.0000000000000000e+00  -1.4933628097230364e-09 1.6223069741589258e-08 0.0000000000000000e+00  -2.7363467740423227e-09 1.8690734606678262e-08 0.0000000000000000e+00  -6.6303149733031990e-09 1.8535627433206625e-08 0.0000000000000000e+00  -4.5909616682083229e-09 -1.8365832960039437e-08 0.0000000000000000e+00  -2.0640765554845225e-09 -1.8696180157779013e-08 0.0000000000000000e+00  -1.9935988975732650e-09 -1.6742830240120578e-08 0.0000000000000000e+00  -1.9092718309993169e-09 -1.3782255137684907e-08 0.0000000000000000e+00  -1.3146182062200508e-09 -1.0675350063536929e-08 0.0000000000000000e+00  -3.7819524451460143e-10 -7.9168981689961900e-09 0.0000000000000000e+00  6.3321515284392255e-10 -5.6429029691678851e-09 0.0000000000000000e+00  1.5299916752814512e-09 -3.8123111562971932e-09 0.0000000000000000e+00  2.2119461793407953e-09 -2.3206605605067211e-09 0.0000000000000000e+00  2.6360788610977197e-09 -1.0505011176271442e-09 0.0000000000000000e+00  2.7876140855043142e-09 1.1266619272352530e-10 0.0000000000000000e+00  2.6634779250581021e-09 1.2787383639808934e-09 0.0000000000000000e+00  2.2665361447772456e-09 2.5557854414225710e-09 0.0000000000000000e+00  1.6086631449080745e-09 4.0518265638832925e-09 0.0000000000000000e+00  7.2279789873809377e-10 5.8701428813548194e-09 0.0000000000000000e+00  -3.1481874954045580e-10 8.0890915482828433e-09 0.0000000000000000e+00  -1.3553163770315727e-09 1.0711919355385894e-08 0.0000000000000000e+00  -2.1652895711181274e-09 1.3573623663129862e-08 0.0000000000000000e+00  -2.5250927562810823e-09 1.6230035101154638e-08 0.0000000000000000e+00  -2.7150466457404610e-09 1.7985638506517110e-08 0.0000000000000000e+00  -5.2920501621215036e-09 1.8287209481561353e-08 0.0000000000000000e+00  -3.9134508895202170e-09 -1.6933384491027236e-08 0.0000000000000000e+00  -2.1954208225101009e-09 -1.7406050658080652e-08 0.0000000000000000e+00  -2.6638992286115665e-09 -1.6019950142187915e-08 0.0000000000000000e+00  -3.2421816623816747e-09 -1.3768046767683651e-08 0.0000000000000000e+00  -3.4034371764913081e-09 -1.1179169495779700e-08 0.0000000000000000e+00  -3.1792208333625412e-09 -8.6580854937149986e-09 0.0000000000000000e+00  -2.7440578756694930e-09 -6.4021411017398680e-09 0.0000000000000000e+00  -2.2638403644976203e-09 -4.4549571999706512e-09 0.0000000000000000e+00  -1.8538167427069342e-09 -2.7759588926421987e-09 0.0000000000000000e+00  -1.5814614019825605e-09 -1.2866460349262257e-09 0.0000000000000000e+00  -1.4802444978561292e-09 1.0545569965020004e-10 0.0000000000000000e+00  -1.5606876374931646e-09 1.4960515711389419e-09 0.0000000000000000e+00  -1.8149998598252743e-09 2.9787622660586471e-09 0.0000000000000000e+00  -2.2149891119803287e-09 4.6393925413588019e-09 0.0000000000000000e+00  -2.7039131053911225e-09 6.5443758624712421e-09 0.0000000000000000e+00  -3.1847094975192610e-09 8.7174657661307316e-09 0.0000000000000000e+00  -3.5129950712528820e-09 1.1100011819448650e-08 0.0000000000000000e+00  -3.5187870926893880e-09 1.3499964090256546e-08 0.0000000000000000e+00  -3.1188154334751689e-09 1.5563820664120250e-08 0.0000000000000000e+00  -2.7003059830341829e-09 1.6862121498181261e-08 0.0000000000000000e+00  -4.4267281493547312e-09 1.7380113854741563e-08 0.0000000000000000e+00  -3.4431912457319771e-09 -1.5301747784326244e-08 0.0000000000000000e+00  -2.3038856401187567e-09 -1.5877135201341648e-08 0.0000000000000000e+00  -3.1298369918779577e-09 -1.4856484538103289e-08 0.0000000000000000e+00  -4.1403274830691873e-09 -1.3119085306425515e-08 0.0000000000000000e+00  -4.8319564728306573e-09 -1.0998687190099311e-08 0.0000000000000000e+00  -5.1596456299046222e-09 -8.7916384770212774e-09 0.0000000000000000e+00  -5.2196799832815957e-09 -6.6861438878055601e-09 0.0000000000000000e+00  -5.1331806807923989e-09 -4.7623265236550599e-09 0.0000000000000000e+00  -5.0011942824711092e-09 -3.0235056935067429e-09 0.0000000000000000e+00  -4.8930002733853724e-09 -1.4276716145202768e-09 0.0000000000000000e+00  -4.8478275577839427e-09 9.0057660146858115e-11 0.0000000000000000e+00  -4.8793049902686277e-09 1.6030682366955701e-09 0.0000000000000000e+00  -4.9779527030819267e-09 3.1830701616222895e-09 0.0000000000000000e+00  -5.1104357059642467e-09 4.8899953415244953e-09 0.0000000000000000e+00  -5.2164610469433533e-09 6.7582792269927518e-09 0.0000000000000000e+00  -5.2066929963800050e-09 8.7769253179570447e-09 0.0000000000000000e+00  -4.9694629295580005e-09 1.0864170596518673e-08 0.0000000000000000e+00  -4.4026104019901772e-09 1.2845974873437022e-08 0.0000000000000000e+00  -3.5093880112203731e-09 1.4462531855673141e-08 0.0000000000000000e+00  -2.6995726187082141e-09 1.5450245822238111e-08 0.0000000000000000e+00  -3.8262623220261346e-09 1.6088202963353087e-08 0.0000000000000000e+00  -3.0994468780417904e-09 -1.3524638470123400e-08 0.0000000000000000e+00  -2.3929641340046125e-09 -1.4176171799358990e-08 0.0000000000000000e+00  -3.4722812755963082e-09 -1.3406326678860393e-08 0.0000000000000000e+00  -4.7750447527573585e-09 -1.2049906657315773e-08 0.0000000000000000e+00  -5.8359736043639782e-09 -1.0325557282573581e-08 0.0000000000000000e+00  -6.5719745769970090e-09 -8.4429477649535252e-09 0.0000000000000000e+00  -7.0240873547156519e-09 -6.5575101978901891e-09 0.0000000000000000e+00  -7.2698954980408001e-09 -4.7556231823947117e-09 0.0000000000000000e+00  -7.3853724021481236e-09 -3.0641660804202732e-09 0.0000000000000000e+00  -7.4289370105105461e-09 -1.4683831712517256e-09 0.0000000000000000e+00  -7.4366043448346519e-09 7.1012557067110422e-11 0.0000000000000000e+00  -7.4216742121911415e-09 1.6039195043717556e-09 0.0000000000000000e+00  -7.3753513189474936e-09 3.1792041197440286e-09 0.0000000000000000e+00  -7.2670402488779190e-09 4.8333538206922560e-09 0.0000000000000000e+00  -7.0450200864113724e-09 6.5776618679684093e-09 0.0000000000000000e+00  -6.6401964460166133e-09 8.3835380912746764e-09 0.0000000000000000e+00  -5.9781517617444363e-09 1.0168541617733767e-08 0.0000000000000000e+00  -5.0093781446559204e-09 1.1790723074898849e-08 0.0000000000000000e+00  -3.7851465988800711e-09 1.3065406976045401e-08 0.0000000000000000e+00  -2.7053859570406667e-09 1.3831373903391326e-08 0.0000000000000000e+00  -3.3894340085027094e-09 1.4545184791758882e-08 0.0000000000000000e+00  -2.8410356048547753e-09 -1.1638077807940985e-08 0.0000000000000000e+00  -2.4647613746528580e-09 -1.2346907902956011e-08 0.0000000000000000e+00  -3.7296772959050919e-09 -1.1759727679083507e-08 0.0000000000000000e+00  -5.2351100553874122e-09 -1.0695955732201810e-08 0.0000000000000000e+00  -6.5530451539824961e-09 -9.3044880349517345e-09 0.0000000000000000e+00  -7.5833824994019107e-09 -7.7322154725725093e-09 0.0000000000000000e+00  -8.3310675197460241e-09 -6.0994081309740873e-09 0.0000000000000000e+00  -8.8386447746831165e-09 -4.4842255395538377e-09 0.0000000000000000e+00  -9.1564473771402349e-09 -2.9226139652638883e-09 0.0000000000000000e+00  -9.3274438219104500e-09 -1.4170834474311709e-09 0.0000000000000000e+00  -9.3800281509427941e-09 5.1694717091472896e-11 0.0000000000000000e+00  -9.3252289445249181e-09 1.5133850481828901e-09 0.0000000000000000e+00  -9.1561760725901306e-09 2.9972015694966793e-09 0.0000000000000000e+00  -8.8489616573901794e-09 4.5214269475742697e-09 0.0000000000000000e+00  -8.3653123980974973e-09 6.0828791759794196e-09 0.0000000000000000e+00  -7.6587027936510816e-09 7.6469789834637518e-09 0.0000000000000000e+00  -6.6868429704648224e-09 9.1409730394626780e-09 0.0000000000000000e+00  -5.4366877133373658e-09 1.0455271772544005e-08 0.0000000000000000e+00  -3.9846146098157538e-09 1.1460739631987881e-08 0.0000000000000000e+00  -2.7115993341334212e-09 1.2060361305792977e-08 0.0000000000000000e+00  -3.0620753475123676e-09 1.2825799863779458e-08 0.0000000000000000e+00  -2.6451728716300355e-09 -9.6693608512997196e-09 0.0000000000000000e+00  -2.5216500913577790e-09 -1.0421581997222291e-08 0.0000000000000000e+00  -3.9238676962749386e-09 -9.9753041834514257e-09 0.0000000000000000e+00  -5.5712818082435078e-09 -9.1462857806480531e-09 0.0000000000000000e+00  -7.0674863433624166e-09 -8.0397746243927262e-09 0.0000000000000000e+00  -8.3058768909581323e-09 -6.7583337809709116e-09 0.0000000000000000e+00  -9.2686734429594070e-09 -5.3916254408221285e-09 0.0000000000000000e+00  -9.9726133663853273e-09 -4.0043330319977814e-09 0.0000000000000000e+00  -1.0446213302025742e-08 -2.6327665489854348e-09 0.0000000000000000e+00  -1.0717181881959882e-08 -1.2885257373520492e-09 0.0000000000000000e+00  -1.0805207200979221e-08 3.4190501336869536e-11 0.0000000000000000e+00  -1.0718356684210242e-08 1.3499615708284976e-09 0.0000000000000000e+00  -1.0452033372069121e-08 2.6733238417890711e-09 0.0000000000000000e+00  -9.9900192598048141e-09 4.0101746030988992e-09 0.0000000000000000e+00  -9.3077818551399254e-09 5.3498013925616084e-09 0.0000000000000000e+00  -8.3788123731911325e-09 6.6585151343563152e-09 0.0000000000000000e+00  -7.1854811817744647e-09 7.8768368346330159e-09 0.0000000000000000e+00  -5.7388046493692548e-09 8.9231476670863832e-09 0.0000000000000000e+00  -4.1279028757755470e-09 9.7083625954068842e-09 0.0000000000000000e+00  -2.7148039961143706e-09 1.0176703792470460e-08 0.0000000000000000e+00  -2.8130507404928899e-09 1.0978001475291620e-08 0.0000000000000000e+00  -2.4985614202785616e-09 -7.6402983333320717e-09 0.0000000000000000e+00  -2.5662674353806416e-09 -8.4253720367333494e-09 0.0000000000000000e+00  -4.0692612370395394e-09 -8.0939325563967088e-09 0.0000000000000000e+00  -5.8155729844980515e-09 -7.4618849698797076e-09 0.0000000000000000e+00  -7.4339477158194384e-09 -6.6061531240738234e-09 0.0000000000000000e+00  -8.8162094376077549e-09 -5.5978512910413226e-09 0.0000000000000000e+00  -9.9305825225066603e-09 -4.5017476533095324e-09 0.0000000000000000e+00  -1.0775788444387409e-08 -3.3681280794387618e-09 0.0000000000000000e+00  -1.1363537233749243e-08 -2.2289712243620804e-09 0.0000000000000000e+00  -1.1708679452706224e-08 -1.0990761877332036e-09 0.0000000000000000e+00  -1.1822983835363752e-08 1.9569944267000253e-11 0.0000000000000000e+00  -1.1711648967798674e-08 1.1317716349572234e-09 0.0000000000000000e+00  -1.1372158552800939e-08 2.2425294754193247e-09 0.0000000000000000e+00  -1.0795285570921529e-08 3.3505788084108199e-09 0.0000000000000000e+00  -9.9682694942830936e-09 4.4427282887618703e-09 0.0000000000000000e+00  -8.8804077762270294e-09 5.4899277762617842e-09 0.0000000000000000e+00  -7.5318063674349849e-09 6.4463920346163170e-09 0.0000000000000000e+00  -5.9490107723814578e-09 7.2534062648335372e-09 0.0000000000000000e+00  -4.2275425649705344e-09 7.8508482326358501e-09 0.0000000000000000e+00  -2.7136683314617655e-09 8.2102056690296330e-09 0.0000000000000000e+00  -2.6236291289896762e-09 9.0358502464592617e-09 0.0000000000000000e+00  -2.3932322125436347e-09 -5.5687049208310659e-09 0.0000000000000000e+00  -2.6012661992634230e-09 -6.3784627441427535e-09 0.0000000000000000e+00  -4.1762635588520346e-09 -6.1455151827573327e-09 0.0000000000000000e+00  -5.9896773717468669e-09 -5.6859906830106680e-09 0.0000000000000000e+00  -7.6893977831087333e-09 -5.0576112380989959e-09 0.0000000000000000e+00  -9.1678137469301565e-09 -4.3086173825697316e-09 0.0000000000000000e+00  -1.0384753614259496e-08 -3.4837939207929723e-09 0.0000000000000000e+00  -1.1326932230748395e-08 -2.6197612128810236e-09 0.0000000000000000e+00  -1.1994036131533185e-08 -1.7418360089468767e-09 0.0000000000000000e+00  -1.2391149636650771e-08 -8.6407627826280413e-10 0.0000000000000000e+00  -1.2523724418970818e-08 8.2435075288979530e-12 0.0000000000000000e+00  -1.2394566511917951e-08 8.7470529006072527e-10 0.0000000000000000e+00  -1.2002788612884103e-08 1.7352064655547887e-09 0.0000000000000000e+00  -1.1344690242529518e-08 2.5854821439210744e-09 0.0000000000000000e+00  -1.0416512645158771e-08 3.4133301257549230e-09 0.0000000000000000e+00  -9.2190454763549902e-09 4.1962659182513245e-09 0.0000000000000000e+00  -7.7645234156773397e-09 4.9014476390997290e-09 0.0000000000000000e+00  -6.0893553012882981e-09 5.4887755340813194e-09 0.0000000000000000e+00  -4.2923585957409378e-09 5.9195635631870102e-09 0.0000000000000000e+00  -2.7081240321278480e-09 6.1840206534607393e-09 0.0000000000000000e+00  -2.4822430654242144e-09 7.0250610056300490e-09 0.0000000000000000e+00  -2.3244287996902924e-09 -3.4693749813413733e-09 0.0000000000000000e+00  -2.6290605766634645e-09 -4.2972988534687328e-09 0.0000000000000000e+00  -4.2525705841090007e-09 -4.1527407182019548e-09 0.0000000000000000e+00  -6.1086924994829525e-09 -3.8502788008779456e-09 0.0000000000000000e+00  -7.8591433004015520e-09 -3.4338369849322923e-09 0.0000000000000000e+00  -9.3976560655866366e-09 -2.9342590733794658e-09 0.0000000000000000e+00  -1.0679312859870365e-08 -2.3799674561425266