<?xml version="1.0"?>
<VTKFile type="UnstructuredGrid"  version="0.1"  >
<UnstructuredGrid>
<Piece  NumberOfPoints="651" NumberOfCells="1200">
<Points>
<DataArray  type="Float64"  NumberOfComponents="3"  format="ascii">0 0 0  50000 0 0  100000 0 0  150000 0 0  200000 0 0  250000 0 0  300000 0 0  350000 0 0  400000 0 0  450000 0 0  500000 0 0  550000 0 0  600000 0 0  650000 0 0  700000 0 0  750000 0 0  800000 0 0  850000 0 0  900000 0 0  950000 0 0  1000000 0 0  0 50000 0  50000 50000 0  100000 50000 0  150000 50000 0  200000 50000 0  250000 50000 0  300000 50000 0  350000 50000 0  400000 50000 0  450000 50000 0  500000 50000 0  550000 50000 0  600000 50000 0  650000 50000 0  700000 50000 0  750000 50000 0  800000 50000 0  850000 50000 0  900000 50000 0  950000 50000 0  1000000 50000 0  0 100000 0  50000 100000 0  100000 100000 0  150000 100000 0  200000 100000 0  250000 100000 0  300000 100000 0  350000 100000 0  400000 100000 0  450000 100000 0  500000 100000 0  550000 100000 0  600000 100000 0  650000 100000 0  700000 100000 0  750000 100000 0  800000 100000 0  850000 100000 0  900000 100000 0  950000 100000 0  1000000 100000 0  0 150000 0  50000 150000 0  100000 150000 0  150000 150000 0  200000 150000 0  250000 150000 0  300000 150000 0  350000 150000 0  400000 150000 0  450000 150000 0  500000 150000 0  550000 150000 0  600000 150000 0  650000 150000 0  700000 150000 0  750000 150000 0  800000 150000 0  850000 150000 0  900000 150000 0  950000 150000 0  1000000 150000 0  0 200000 0  50000 200000 0  100000 200000 0  150000 200000 0  200000 200000 0  250000 200000 0  300000 200000 0  350000 200000 0  400000 200000 0  450000 200000 0  500000 200000 0  550000 200000 0  600000 200000 0  650000 200000 0  700000 200000 0  750000 200000 0  800000 200000 0  850000 200000 0  900000 200000 0  950000 200000 0  1000000 200000 0  0 250000 0  50000 250000 0  100000 250000 0  150000 250000 0  200000 250000 0  250000 250000 0  300000 250000 0  350000 250000 0  400000 250000 0  450000 250000 0  500000 250000 0  550000 250000 0  600000 250000 0  650000 250000 0  700000 250000 0  750000 250000 0  800000 250000 0  850000 250000 0  900000 250000 0  950000 250000 0  1000000 250000 0  0 300000 0  50000 300000 0  100000 300000 0  150000 300000 0  200000 300000 0  250000 300000 0  300000 300000 0  350000 300000 0  400000 300000 0  450000 300000 0  500000 300000 0  550000 300000 0  600000 300000 0  650000 300000 0  700000 300000 0  750000 300000 0  800000 300000 0  850000 300000 0  900000 300000 0  950000 300000 0  1000000 300000 0  0 350000 0  50000 350000 0  100000 350000 0  150000 350000 0  200000 350000 0  250000 350000 0  300000 350000 0  350000 350000 0  400000 350000 0  450000 350000 0  500000 350000 0  550000 350000 0  600000 350000 0  650000 350000 0  700000 350000 0  750000 350000 0  800000 350000 0  850000 350000 0  900000 350000 0  950000 350000 0  1000000 350000 0  0 400000 0  50000 400000 0  100000 400000 0  150000 400000 0  200000 400000 0  250000 400000 0  300000 400000 0  350000 400000 0  400000 400000 0  450000 400000 0  500000 400000 0  550000 400000 0  600000 400000 0  650000 400000 0  700000 400000 0  750000 400000 0  800000 400000 0  850000 400000 0  900000 400000 0  950000 400000 0  1000000 400000 0  0 450000 0  50000 450000 0  100000 450000 0  150000 450000 0  200000 450000 0  250000 450000 0  300000 450000 0  350000 450000 0  400000 450000 0  450000 450000 0  500000 450000 0  550000 450000 0  600000 450000 0  650000 450000 0  700000 450000 0  750000 450000 0  800000 450000 0  850000 450000 0  900000 450000 0  950000 450000 0  1000000 450000 0  0 500000 0  50000 500000 0  100000 500000 0  150000 500000 0  200000 500000 0  250000 500000 0  300000 500000 0  350000 500000 0  400000 500000 0  450000 500000 0  500000 500000 0  550000 500000 0  600000 500000 0  650000 500000 0  700000 500000 0  750000 500000 0  800000 500000 0  850000 500000 0  900000 500000 0  950000 500000 0  1000000 500000 0  0 550000 0  50000 550000 0  100000 550000 0  150000 550000 0  200000 550000 0  250000 550000 0  300000 550000 0  350000 550000 0  400000 550000 0  450000 550000 0  500000 550000 0  550000 550000 0  600000 550000 0  650000 550000 0  700000 550000 0  750000 550000 0  800000 550000 0  850000 550000 0  900000 550000 0  950000 550000 0  1000000 550000 0  0 600000 0  50000 600000 0  100000 600000 0  150000 600000 0  200000 600000 0  250000 600000 0  300000 600000 0  350000 600000 0  400000 600000 0  450000 600000 0  500000 600000 0  550000 600000 0  600000 600000 0  650000 600000 0  700000 600000 0  750000 600000 0  800000 600000 0  850000 600000 0  900000 600000 0  950000 600000 0  1000000 600000 0  0 650000 0  50000 650000 0  100000 650000 0  150000 650000 0  200000 650000 0  250000 650000 0  300000 650000 0  350000 650000 0  400000 650000 0  450000 650000 0  500000 650000 0  550000 650000 0  600000 650000 0  650000 650000 0  700000 650000 0  750000 650000 0  800000 650000 0  850000 650000 0  900000 650000 0  950000 650000 0  1000000 650000 0  0 700000 0  50000 700000 0  100000 700000 0  150000 700000 0  200000 700000 0  250000 700000 0  300000 700000 0  350000 700000 0  400000 700000 0  450000 700000 0  500000 700000 0  550000 700000 0  600000 700000 0  650000 700000 0  700000 700000 0  750000 700000 0  800000 700000 0  850000 700000 0  900000 700000 0  950000 700000 0  1000000 700000 0  0 750000 0  50000 750000 0  100000 750000 0  150000 750000 0  200000 750000 0  250000 750000 0  300000 750000 0  350000 750000 0  400000 750000 0  450000 750000 0  500000 750000 0  550000 750000 0  600000 750000 0  650000 750000 0  700000 750000 0  750000 750000 0  800000 750000 0  850000 750000 0  900000 750000 0  950000 750000 0  1000000 750000 0  0 800000 0  50000 800000 0  100000 800000 0  150000 800000 0  200000 800000 0  250000 800000 0  300000 800000 0  350000 800000 0  400000 800000 0  450000 800000 0  500000 800000 0  550000 800000 0  600000 800000 0  650000 800000 0  700000 800000 0  750000 800000 0  800000 800000 0  850000 800000 0  900000 800000 0  950000 800000 0  1000000 800000 0  0 850000 0  50000 850000 0  100000 850000 0  150000 850000 0  200000 850000 0  250000 850000 0  300000 850000 0  350000 850000 0  400000 850000 0  450000 850000 0  500000 850000 0  550000 850000 0  600000 850000 0  650000 850000 0  700000 850000 0  750000 850000 0  800000 850000 0  850000 850000 0  900000 850000 0  950000 850000 0  1000000 850000 0  0 900000 0  50000 900000 0  100000 900000 0  150000 900000 0  200000 900000 0  250000 900000 0  300000 900000 0  350000 900000 0  400000 900000 0  450000 900000 0  500000 900000 0  550000 900000 0  600000 900000 0  650000 900000 0  700000 900000 0  750000 900000 0  800000 900000 0  850000 900000 0  900000 900000 0  950000 900000 0  1000000 900000 0  0 950000 0  50000 950000 0  100000 950000 0  150000 950000 0  200000 950000 0  250000 950000 0  300000 950000 0  350000 950000 0  400000 950000 0  450000 950000 0  500000 950000 0  550000 950000 0  600000 950000 0  650000 950000 0  700000 950000 0  750000 950000 0  800000 950000 0  850000 950000 0  900000 950000 0  950000 950000 0  1000000 950000 0  0 1000000 0  50000 1000000 0  100000 1000000 0  150000 1000000 0  200000 1000000 0  250000 1000000 0  300000 1000000 0  350000 1000000 0  400000 1000000 0  450000 1000000 0  500000 1000000 0  550000 1000000 0  600000 1000000 0  650000 1000000 0  700000 1000000 0  750000 1000000 0  800000 1000000 0  850000 1000000 0  900000 1000000 0  950000 1000000 0  1000000 1000000 0  0 1050000 0  50000 1050000 0  100000 1050000 0  150000 1050000 0  200000 1050000 0  250000 1050000 0  300000 1050000 0  350000 1050000 0  400000 1050000 0  450000 1050000 0  500000 1050000 0  550000 1050000 0  600000 1050000 0  650000 1050000 0  700000 1050000 0  750000 1050000 0  800000 1050000 0  850000 1050000 0  900000 1050000 0  950000 1050000 0  1000000 1050000 0  0 1100000 0  50000 1100000 0  100000 1100000 0  150000 1100000 0  200000 1100000 0  250000 1100000 0  300000 1100000 0  350000 1100000 0  400000 1100000 0  450000 1100000 0  500000 1100000 0  550000 1100000 0  600000 1100000 0  650000 1100000 0  700000 1100000 0  750000 1100000 0  800000 1100000 0  850000 1100000 0  900000 1100000 0  950000 1100000 0  1000000 1100000 0  0 1150000 0  50000 1150000 0  100000 1150000 0  150000 1150000 0  200000 1150000 0  250000 1150000 0  300000 1150000 0  350000 1150000 0  400000 1150000 0  450000 1150000 0  500000 1150000 0  550000 1150000 0  600000 1150000 0  650000 1150000 0  700000 1150000 0  750000 1150000 0  800000 1150000 0  850000 1150000 0  900000 1150000 0  950000 1150000 0  1000000 1150000 0  0 1200000 0  50000 1200000 0  100000 1200000 0  150000 1200000 0  200000 1200000 0  250000 1200000 0  300000 1200000 0  350000 1200000 0  400000 1200000 0  450000 1200000 0  500000 1200000 0  550000 1200000 0  600000 1200000 0  650000 1200000 0  700000 1200000 0  750000 1200000 0  800000 1200000 0  850000 1200000 0  900000 1200000 0  950000 1200000 0  1000000 1200000 0  0 1250000 0  50000 1250000 0  100000 1250000 0  150000 1250000 0  200000 1250000 0  250000 1250000 0  300000 1250000 0  350000 1250000 0  400000 1250000 0  450000 1250000 0  500000 1250000 0  550000 1250000 0  600000 1250000 0  650000 1250000 0  700000 1250000 0  750000 1250000 0  800000 1250000 0  850000 1250000 0  900000 1250000 0  950000 1250000 0  1000000 1250000 0  0 1300000 0  50000 1300000 0  100000 1300000 0  150000 1300000 0  200000 1300000 0  250000 1300000 0  300000 1300000 0  350000 1300000 0  400000 1300000 0  450000 1300000 0  500000 1300000 0  550000 1300000 0  600000 1300000 0  650000 1300000 0  700000 1300000 0  750000 1300000 0  800000 1300000 0  850000 1300000 0  900000 1300000 0  950000 1300000 0  1000000 1300000 0  0 1350000 0  50000 1350000 0  100000 1350000 0  150000 1350000 0  200000 1350000 0  250000 1350000 0  300000 1350000 0  350000 1350000 0  400000 1350000 0  450000 1350000 0  500000 1350000 0  550000 1350000 0  600000 1350000 0  650000 1350000 0  700000 135
[...]
<PointData  Vectors="f_7489"> 
<DataArray  type="Float64"  Name="f_7489"  NumberOfComponents="3" format="ascii">-2.4542076721580621e-08 -1.0990595948391395e-08 0.0000000000000000e+00  4.8542379369080641e-08 -6.9946840510894069e-09 0.0000000000000000e+00  4.2916574197388921e-08 -2.5982495030885709e-09 0.0000000000000000e+00  4.0563032399331149e-08 -1.1873916855211551e-09 0.0000000000000000e+00  3.9460064575794698e-08 -6.9977973275430648e-10 0.0000000000000000e+00  3.8769498902556428e-08 -5.0539338919845026e-10 0.0000000000000000e+00  3.8292272202775536e-08 -4.3149660165839834e-10 0.0000000000000000e+00  3.7970984347524011e-08 -4.1778846044984954e-10 0.0000000000000000e+00  3.7787140093739195e-08 -4.3817064991414206e-10 0.0000000000000000e+00  3.7734851951316913e-08 -4.7850189073025789e-10 0.0000000000000000e+00  3.7812758060177381e-08 -5.2853247956897729e-10 0.0000000000000000e+00  3.8021991726661474e-08 -5.7776351268237054e-10 0.0000000000000000e+00  3.8367654947448378e-08 -6.1183996049910450e-10 0.0000000000000000e+00  3.8865154406620953e-08 -6.0756714876528583e-10 0.0000000000000000e+00  3.9557493361403445e-08 -5.2400924886136862e-10 0.0000000000000000e+00  4.0560704510547653e-08 -2.8359045332605322e-10 0.0000000000000000e+00  4.2181365369205773e-08 2.7412594490833365e-10 0.0000000000000000e+00  4.5186262342753519e-08 1.5092046483862223e-09 0.0000000000000000e+00  5.0941658972143251e-08 4.2244172599690105e-09 0.0000000000000000e+00  5.8164510622904186e-08 8.9016103390679032e-09 0.0000000000000000e+00  -1.6254562792896138e-08 6.7777734698069317e-09 0.0000000000000000e+00  -1.8218424290144354e-08 -1.6644188444205826e-08 0.0000000000000000e+00  7.4240104850537753e-09 -1.1571154331994932e-08 0.0000000000000000e+00  1.8502782060465950e-08 -5.3739205887828868e-09 0.0000000000000000e+00  2.3538959291310946e-08 -2.5343382862954627e-09 0.0000000000000000e+00  2.6112817913296436e-08 -1.2865035925782989e-09 0.0000000000000000e+00  2.7587634855273255e-08 -6.9674212755370577e-10 0.0000000000000000e+00  2.8458438686965316e-08 -3.9927958053617742e-10 0.0000000000000000e+00  2.8976234197430015e-08 -2.4563777677803011e-10 0.0000000000000000e+00  2.9279521118095608e-08 -1.6730565027645200e-10 0.0000000000000000e+00  2.9444626883666626e-08 -1.2648791751597371e-10 0.0000000000000000e+00  2.9510040372314097e-08 -9.7515754605524728e-11 0.0000000000000000e+00  2.9487649575388319e-08 -5.8294107282199670e-11 0.0000000000000000e+00  2.9366941487718059e-08 1.5249990362995768e-11 0.0000000000000000e+00  2.9114370585866422e-08 1.5519040357193539e-10 0.0000000000000000e+00  2.8667181749609401e-08 4.1199788116115519e-10 0.0000000000000000e+00  2.7915827000228283e-08 8.7776359694514433e-10 0.0000000000000000e+00  2.6652295044666629e-08 1.7432537118648009e-09 0.0000000000000000e+00  2.4393581763194541e-08 3.4318169085321493e-09 0.0000000000000000e+00  1.9723022895350494e-08 6.8113269951124666e-09 0.0000000000000000e+00  8.4136363866076895e-09 1.2875389199997161e-08 0.0000000000000000e+00  -1.8220158486783381e-08 1.0764418693754742e-08 0.0000000000000000e+00  -1.1107092557701578e-08 -2.0320936151031401e-08 0.0000000000000000e+00  -9.9146302870190100e-11 -1.8698972960864724e-08 0.0000000000000000e+00  6.2347843290446009e-09 -1.1360524486118671e-08 0.0000000000000000e+00  1.1168995034629942e-08 -6.6022295575238658e-09 0.0000000000000000e+00  1.4966203114715629e-08 -3.8643024542615737e-09 0.0000000000000000e+00  1.7581391816987943e-08 -2.3058203257674506e-09 0.0000000000000000e+00  1.9321544414701123e-08 -1.3879816920029793e-09 0.0000000000000000e+00  2.0452115492455400e-08 -8.2271249112297158e-10 0.0000000000000000e+00  2.1149313856975390e-08 -4.5297185766418081e-10 0.0000000000000000e+00  2.1520773178683958e-08 -1.8503846564778114e-10 0.0000000000000000e+00  2.1624411282938096e-08 4.5639298332107819e-11 0.0000000000000000e+00  2.1479709064861628e-08 2.9274635559216489e-10 0.0000000000000000e+00  2.1072167720473555e-08 6.1143769586469365e-10 0.0000000000000000e+00  2.0351646372037172e-08 1.0706898194233988e-09 0.0000000000000000e+00  1.9223806686358260e-08 1.7713960373706545e-09 0.0000000000000000e+00  1.7532106588570527e-08 2.8781581168801521e-09 0.0000000000000000e+00  1.5027591904276535e-08 4.6728804688364947e-09 0.0000000000000000e+00  1.1334982896738898e-08 7.6084968533948036e-09 0.0000000000000000e+00  5.9846004115388431e-09 1.2150480034958703e-08 0.0000000000000000e+00  -1.2353944374561604e-09 1.7551846394268559e-08 0.0000000000000000e+00  -1.2876827560363394e-08 1.4523819107154188e-08 0.0000000000000000e+00  -7.3176663470223443e-09 -2.0966871567346824e-08 0.0000000000000000e+00  -1.4610240191893046e-09 -2.0307275978749396e-08 0.0000000000000000e+00  1.3839964168836958e-09 -1.5404310476153519e-08 0.0000000000000000e+00  4.2561754366727984e-09 -1.0470173046790270e-08 0.0000000000000000e+00  7.1769834914658040e-09 -6.8911980964085073e-09 0.0000000000000000e+00  9.6784283513049510e-09 -4.4843745664178735e-09 0.0000000000000000e+00  1.1584649893556197e-08 -2.8808826606083648e-09 0.0000000000000000e+00  1.2929826911090929e-08 -1.7878021260846185e-09 0.0000000000000000e+00  1.3801528958913167e-08 -1.0051042044272113e-09 0.0000000000000000e+00  1.4275236981009612e-08 -3.9540394014400018e-10 0.0000000000000000e+00  1.4398724206547830e-08 1.4358624580424800e-10 0.0000000000000000e+00  1.4190395254193008e-08 6.9883743609027759e-10 0.0000000000000000e+00  1.3640107883140959e-08 1.3571867222489906e-09 0.0000000000000000e+00  1.2709784543648053e-08 2.2196281386965169e-09 0.0000000000000000e+00  1.1334813183237359e-08 3.4174677046131622e-09 0.0000000000000000e+00  9.4319065591216702e-09 5.1294487132579846e-09 0.0000000000000000e+00  6.9297718948382341e-09 7.5838994920783556e-09 0.0000000000000000e+00  3.8578984775067791e-09 1.0979029596506495e-08 0.0000000000000000e+00  5.0935220236156403e-10 1.5134914160402343e-08 0.0000000000000000e+00  -2.6491127429347859e-09 1.8742097082429816e-08 0.0000000000000000e+00  -8.3570208612014474e-09 1.7292057804863722e-08 0.0000000000000000e+00  -5.3943081525419153e-09 -2.0384314030989091e-08 0.0000000000000000e+00  -1.8268028074873428e-09 -2.0176903438489357e-08 0.0000000000000000e+00  -7.6086899711885690e-10 -1.6929944388771283e-08 0.0000000000000000e+00  4.6241436215330964e-10 -1.2889826348611230e-08 0.0000000000000000e+00  2.1434300773943222e-09 -9.2886546556948503e-09 0.0000000000000000e+00  3.9153955597828378e-09 -6.4809983837220076e-09 0.0000000000000000e+00  5.4696144477502142e-09 -4.3892493503573715e-09 0.0000000000000000e+00  6.6730724808108619e-09 -2.8316895217276024e-09 0.0000000000000000e+00  7.4989322000389202e-09 -1.6346235585919910e-09 0.0000000000000000e+00  7.9606733717259470e-09 -6.5377692646302271e-10 0.0000000000000000e+00  8.0772584516057484e-09 2.3101598496019524e-10 0.0000000000000000e+00  7.8592420650497121e-09 1.1267889678064692e-09 0.0000000000000000e+00  7.3052462817081265e-09 2.1384106071202045e-09 0.0000000000000000e+00  6.4047248717719431e-09 3.3781310948523675e-09 0.0000000000000000e+00  5.1481411391707552e-09 4.9715478322225829e-09 0.0000000000000000e+00  3.5504767357895678e-09 7.0521391079586229e-09 0.0000000000000000e+00  1.6978075246990709e-09 9.7221717192945001e-09 0.0000000000000000e+00  -1.8351174011651986e-10 1.2933529695347964e-08 0.0000000000000000e+00  -1.7176183369494486e-09 1.6243212975440723e-08 0.0000000000000000e+00  -2.7824505553773554e-09 1.8640743502720806e-08 0.0000000000000000e+00  -5.9022691051560023e-09 1.8149895890277179e-08 0.0000000000000000e+00  -4.2963794556057247e-09 -1.9255335197156537e-08 0.0000000000000000e+00  -2.0129021541965344e-09 -1.9321322001477111e-08 0.0000000000000000e+00  -1.8997023332477049e-09 -1.7045846212716376e-08 0.0000000000000000e+00  -1.7506771877644299e-09 -1.3911537621141463e-08 0.0000000000000000e+00  -1.1113588430020080e-09 -1.0707721179518652e-08 0.0000000000000000e+00  -1.6399994062117228e-10 -7.8927123463912427e-09 0.0000000000000000e+00  8.2904517934316780e-10 -5.5804117292537328e-09 0.0000000000000000e+00  1.6862893374914372e-09 -3.7180463089376245e-09 0.0000000000000000e+00  2.3147947111121817e-09 -2.1955478537714887e-09 0.0000000000000000e+00  2.6772205982974908e-09 -8.9326868184505207e-10 0.0000000000000000e+00  2.7633609640398955e-09 3.0343465359888768e-10 0.0000000000000000e+00  2.5742438959853277e-09 1.5029767245444655e-09 0.0000000000000000e+00  2.1167463766641867e-09 2.8102195921672834e-09 0.0000000000000000e+00  1.4066673563452039e-09 4.3279705029688907e-09 0.0000000000000000e+00  4.8037293774374683e-10 6.1522117286203383e-09 0.0000000000000000e+00  -5.8365515488117877e-10 8.3524855174177637e-09 0.0000000000000000e+00  -1.6357699336535647e-09 1.0923333782786181e-08 0.0000000000000000e+00  -2.4407476649675159e-09 1.3693776218552354e-08 0.0000000000000000e+00  -2.7613837044803259e-09 1.6219681183423095e-08 0.0000000000000000e+00  -2.7447126106741968e-09 1.7846083466462718e-08 0.0000000000000000e+00  -4.4690669389180223e-09 1.7762577612833587e-08 0.0000000000000000e+00  -3.5924471591185320e-09 -1.7825272698326926e-08 0.0000000000000000e+00  -2.1503425472310917e-09 -1.8070634658316587e-08 0.0000000000000000e+00  -2.6101520571424514e-09 -1.6390125415830073e-08 0.0000000000000000e+00  -3.1477913589333475e-09 -1.3949428169556956e-08 0.0000000000000000e+00  -3.2756184949269338e-09 -1.1233948016903116e-08 0.0000000000000000e+00  -3.0410422519705237e-09 -8.6271980542765862e-09 0.0000000000000000e+00  -2.6195542662705449e-09 -6.3099448112982529e-09 0.0000000000000000e+00  -2.1726646941086680e-09 -4.3147563088081055e-09 0.0000000000000000e+00  -1.8099341774786954e-09 -2.5946085848118543e-09 0.0000000000000000e+00  -1.5933592826485801e-09 -1.0678809690935391e-09 0.0000000000000000e+00  -1.5514677898030623e-09 3.5862397597487177e-10 0.0000000000000000e+00  -1.6902918782370464e-09 1.7794005034948776e-09 0.0000000000000000e+00  -1.9979122898321690e-09 3.2850558851342795e-09 0.0000000000000000e+00  -2.4424431801092108e-09 4.9565989406884499e-09 0.0000000000000000e+00  -2.9641333718199062e-09 6.8540354509142367e-09 0.0000000000000000e+00  -3.4638294077941836e-09 8.9935354956854575e-09 0.0000000000000000e+00  -3.7956026627714681e-09 1.1308478955508926e-08 0.0000000000000000e+00  -3.7857472618728017e-09 1.3599089149107725e-08 0.0000000000000000e+00  -3.3320718529449841e-09 1.5504969350107006e-08 0.0000000000000000e+00  -2.6993426184037176e-09 1.6617624045934497e-08 0.0000000000000000e+00  -3.5729099351750786e-09 1.6728735942251083e-08 0.0000000000000000e+00  -3.1024166260047439e-09 -1.6195699887505596e-08 0.0000000000000000e+00  -2.2602375982941870e-09 -1.6562922852341302e-08 0.0000000000000000e+00  -3.1009406984350087e-09 -1.5268733072916299e-08 0.0000000000000000e+00  -4.0900269666812717e-09 -1.3337021156043696e-08 0.0000000000000000e+00  -4.7607316193047701e-09 -1.1071240071286188e-08 0.0000000000000000e+00  -5.0826207467709092e-09 -8.7564020594229164e-09 0.0000000000000000e+00  -5.1549479035934442e-09 -6.5697970652589322e-09 0.0000000000000000e+00  -5.0969142437844863e-09 -4.5828047568953828e-09 0.0000000000000000e+00  -5.0055733010070650e-09 -2.7927989969783289e-09 0.0000000000000000e+00  -4.9455771321897767e-09 -1.1544499436886397e-09 0.0000000000000000e+00  -4.9515446478026616e-09 3.9820487785631575e-10 0.0000000000000000e+00  -5.0327619378729148e-09 1.9376985249554538e-09 0.0000000000000000e+00  -5.1757902881223900e-09 3.5331341801478240e-09 0.0000000000000000e+00  -5.3438422969760857e-09 5.2402133834583956e-09 0.0000000000000000e+00  -5.4738154469089731e-09 7.0876989198489957e-09 0.0000000000000000e+00  -5.4742187231400378e-09 9.0577379343788967e-09 0.0000000000000000e+00  -5.2314043204619491e-09 1.1060700971921213e-08 0.0000000000000000e+00  -4.6392233426457542e-09 1.2913443508771430e-08 0.0000000000000000e+00  -3.6840022838471454e-09 1.4345871808493446e-08 0.0000000000000000e+00  -2.6680690602467623e-09 1.5104811706843986e-08 0.0000000000000000e+00  -2.9860233181902999e-09 1.5334529469700062e-08 0.0000000000000000e+00  -2.7427239720459468e-09 -1.4421205340696684e-08 0.0000000000000000e+00  -2.3479949896157105e-09 -1.4872094133094103e-08 0.0000000000000000e+00  -3.4581725711171342e-09 -1.3843016940376377e-08 0.0000000000000000e+00  -4.7538578931246883e-09 -1.2289960608933263e-08 0.0000000000000000e+00  -5.8049062756621995e-09 -1.0408405753241463e-08 0.0000000000000000e+00  -6.5407980623719921e-09 -8.4022203793379602e-09 0.0000000000000000e+00  -7.0057537523950180e-09 -6.4202395394492162e-09 0.0000000000000000e+00  -7.2766718366216142e-09 -4.5426193240887881e-09 0.0000000000000000e+00  -7.4268126509327611e-09 -2.7914264525293705e-09 0.0000000000000000e+00  -7.5109285370550368e-09 -1.1489048238928960e-09 0.0000000000000000e+00  -7.5610680243293199e-09 4.2539555288660932e-10 0.0000000000000000e+00  -7.5866388593610312e-09 1.9808003120501977e-09 0.0000000000000000e+00  -7.5752520073417119e-09 3.5639866260677193e-09 0.0000000000000000e+00  -7.4931729818422823e-09 5.2077571027843600e-09 0.0000000000000000e+00  -7.2860980957485734e-09 6.9183534072307386e-09 0.0000000000000000e+00  -6.8828900308481682e-09 8.6608602370664305e-09 0.0000000000000000e+00  -6.2073053654923438e-09 1.0345157564500321e-08 0.0000000000000000e+00  -5.2066737329973672e-09 1.1819908168487557e-08 0.0000000000000000e+00  -3.9184657633121595e-09 1.2889693829169001e-08 0.0000000000000000e+00  -2.6496386761092405e-09 1.3398749225142736e-08 0.0000000000000000e+00  -2.5886017575394151e-09 1.3715692668493167e-08 0.0000000000000000e+00  -2.4702150609174315e-09 -1.2538242552781517e-08 0.0000000000000000e+00  -2.4168045044724745e-09 -1.3046302954977466e-08 0.0000000000000000e+00  -3.7238185022104760e-09 -1.2208775422339154e-08 0.0000000000000000e+00  -5.2324161034091443e-09 -1.0946641249559421e-08 0.0000000000000000e+00  -6.5492719747914958e-09 -9.3901637095267972e-09 0.0000000000000000e+00  -7.5848531289745297e-09 -7.6833574631043481e-09 0.0000000000000000e+00  -8.3467345015693320e-09 -5.9427516608128472e-09 0.0000000000000000e+00  -8.8771954611254925e-09 -4.2423699044356391e-09 0.0000000000000000e+00  -9.2246554428940868e-09 -2.6145702212272756e-09 0.0000000000000000e+00  -9.4292337137215181e-09 -1.0594153930357721e-09 0.0000000000000000e+00  -9.5160609117712948e-09 4.4347452160563423e-10 0.0000000000000000e+00  -9.4928553081424313e-09 1.9233569425048355e-09 0.0000000000000000e+00  -9.3496423519904384e-09 3.4076086935961112e-09 0.0000000000000000e+00  -9.0597923204160017e-09 4.9113118652510882e-09 0.0000000000000000e+00  -8.5828092564776293e-09 6.4267906727048899e-09 0.0000000000000000e+00  -7.8704886200920605e-09 7.9136993767467311e-09 0.0000000000000000e+00  -6.8792806629686188e-09 9.2921434355761208e-09 0.0000000000000000e+00  -5.5942014755670121e-09 1.0443844396558734e-08 0.0000000000000000e+00  -4.0807830908283213e-09 1.1230177913269124e-08 0.0000000000000000e+00  -2.6392677442699977e-09 1.1557363942707777e-08 0.0000000000000000e+00  -2.3127024535159697e-09 1.1943930950206509e-08 0.0000000000000000e+00  -2.2606370407589364e-09 -1.0574270063020526e-08 0.0000000000000000e+00  -2.4696552716220348e-09 -1.1120571645075121e-08 0.0000000000000000e+00  -3.9220935297893707e-09 -1.0428544285808665e-08 0.0000000000000000e+00  -5.5798676919228396e-09 -9.3990403596201278e-09 0.0000000000000000e+00  -7.0816431118241735e-09 -8.1219388276128541e-09 0.0000000000000000e+00  -8.3297354772594410e-09 -6.6984309983406715e-09 0.0000000000000000e+00  -9.3082095899209617e-09 -5.2161602373353354e-09 0.0000000000000000e+00  -1.0033514909506429e-08 -3.7371651628473982e-09 0.0000000000000000e+00  -1.0532684200292624e-08 -2.2951988091730187e-09 0.0000000000000000e+00  -1.0831192301517555e-08 -8.9997940394073005e-10 0.0000000000000000e+00  -1.0946109347555377e-08 4.5515480428158152e-10 0.0000000000000000e+00  -1.0882801445309579e-08 1.7844618680529212e-09 0.0000000000000000e+00  -1.0634122036837490e-08 3.1009281251377469e-09 0.0000000000000000e+00  -1.0181636922508205e-08 4.4076874412023462e-09 0.0000000000000000e+00  -9.4990742669472277e-09 5.6900866431640871e-09 0.0000000000000000e+00  -8.5587771407367749e-09 6.9093367772872705e-09 0.0000000000000000e+00  -7.3425756473013385e-09 7.9996800895735731e-09 0.0000000000000000e+00  -5.8607044087481178e-09 8.8720970177540747e-09 0.0000000000000000e+00  -4.1937139385988852e-09 9.4299434325017337e-09 0.0000000000000000e+00  -2.6326988009847683e-09 9.6194961422630424e-09 0.0000000000000000e+00  -2.1183178290862589e-09 1.0062496914097390e-08 0.0000000000000000e+00  -2.0995291564755018e-09 -8.5510715854075443e-09 0.0000000000000000e+00  -2.5095638731251469e-09 -9.1217515127383572e-09 0.0000000000000000e+00  -4.0690679571229714e-09 -8.5458625447029795e-09 0.0000000000000000e+00  -5.8308449166159438e-09 -7.7104909204717178e-09 0.0000000000000000e+00  -7.4597200210004502e-09 -6.6798084225282435e-09 0.0000000000000000e+00  -8.8551849011036028e-09 -5.5242852961070948e-09 0.0000000000000000e+00  -9.9865335789142734e-09 -4.3076105360549826e-09 0.0000000000000000e+00  -1.0851981725293277e-08 -3.0783643072420554e-09 0.0000000000000000e+00  -1.1461955142159330e-08 -1.8667013244019594e-09 0.0000000000000000e+00  -1.1829515347609990e-08 -6.8598803630079079e-10 0.0000000000000000e+00  -1.1964369296789248e-08 4.6247575315409104e-10 0.0000000000000000e+00  -1.1869599908212649e-08 1.5832333566128180e-09 0.0000000000000000e+00  -1.1540715723214193e-08 2.6799863563333924e-09 0.0000000000000000e+00  -1.0966825698351014e-08 3.7491191773406082e-09 0.0000000000000000e+00  -1.0133974616705156e-08 4.7740670669806963e-09 0.0000000000000000e+00  -9.0308908101777873e-09 5.7214353675243616e-09 0.0000000000000000e+00  -7.6578188117539403e-09 6.5402042530188030e-09 0.0000000000000000e+00  -6.0414011902245514e-09 7.1657580807116719e-09 0.0000000000000000e+00  -4.2701308589647881e-09 7.5323798165472613e-09 0.0000000000000000e+00  -2.6270688421694279e-09 7.6126255222739967e-09 0.0000000000000000e+00  -1.9816039452112875e-09 8.1007991612829608e-09 0.0000000000000000e+00  -1.9779421490550394e-09 -6.4862753418855561e-09 0.0000000000000000e+00  -2.5394458371921379e-09 -7.0709164486349641e-09 0.0000000000000000e+00  -4.1763823714211530e-09 -6.5923168999088543e-09 0.0000000000000000e+00  -6.0090832750442359e-09 -5.9259010993395727e-09 0.0000000000000000e+00  -7.7230246245783189e-09 -5.1189122866198626e-09 0.0000000000000000e+00  -9.2173521352608108e-09 -4.2192330200676542e-09 0.0000000000000000e+00  -1.0452292244318180e-08 -3.2709791537281352e-09 0.0000000000000000e+00  -1.1413784565128487e-08 -2.3095515651374526e-09 0.0000000000000000e+00  -1.2100315431725035e-08 -1.3588665514102323e-09 0.0000000000000000e+00  -1.2515512408813180e-08 -4.3182355044551468e-10 0.0000000000000000e+00  -1.2663243275175668e-08 4.6689444562037396e-10 0.0000000000000000e+00  -1.2544743786630120e-08 1.3366874108388481e-09 0.0000000000000000e+00  -1.2157714276627408e-08 2.1763954575392532e-09 0.0000000000000000e+00  -1.1497344928180743e-08 2.9798013222166965e-09 0.0000000000000000e+00  -1.0559223292567445e-08 3.7318977606158602e-09 0.0000000000000000e+00  -9.3441044920166179e-09 4.4066374154649956e-09 0.0000000000000000e+00  -7.8648974553729839e-09 4.9670191808218814e-09 0.0000000000000000e+00  -6.1586649256629053e-09 5.3684946293011991e-09 0.0000000000000000e+00  -4.3181300190577229e-09 5.5684729489653228e-09 0.0000000000000000e+00  -2.6208075187887151e-09 5.5571080391230889e-09 0.0000000000000000e+00  -1.8883946377543663e-09 6.0806091989696931e-09 0.0000000000000000e+00  -1.8902481861330909e-09 -4.3943341854344869e-09 0.0000000000000000e+00  -2.5619271602272942e-09 -4.9848131995934751e-09 0.0000000000000000e+00  -4.2527180901892570e-09 -4.5915165015353692e-09 0.0000000000000000e+00  -6.1313230395821482e-09 -4.0779948351254672e-09 0.0000000000000000e+00  -7.8989849171771336e-09 -3.4797683453836119e-09 0.0000000000000000e+00  -9.4555562901881668e-09 -2.8273317523213742e-09 0.0000000000000000e+00  -1.0755975112776092e-08 -2.148