<?xml version="1.0"?>
<VTKFile type="UnstructuredGrid"  version="0.1"  >
<UnstructuredGrid>
<Piece  NumberOfPoints="651" NumberOfCells="1200">
<Points>
<DataArray  type="Float64"  NumberOfComponents="3"  format="ascii">0 0 0  50000 0 0  100000 0 0  150000 0 0  200000 0 0  250000 0 0  300000 0 0  350000 0 0  400000 0 0  450000 0 0  500000 0 0  550000 0 0  600000 0 0  650000 0 0  700000 0 0  750000 0 0  800000 0 0  850000 0 0  900000 0 0  950000 0 0  1000000 0 0  0 50000 0  50000 50000 0  100000 50000 0  150000 50000 0  200000 50000 0  250000 50000 0  300000 50000 0  350000 50000 0  400000 50000 0  450000 50000 0  500000 50000 0  550000 50000 0  600000 50000 0  650000 50000 0  700000 50000 0  750000 50000 0  800000 50000 0  850000 50000 0  900000 50000 0  950000 50000 0  1000000 50000 0  0 100000 0  50000 100000 0  100000 100000 0  150000 100000 0  200000 100000 0  250000 100000 0  300000 100000 0  350000 100000 0  400000 100000 0  450000 100000 0  500000 100000 0  550000 100000 0  600000 100000 0  650000 100000 0  700000 100000 0  750000 100000 0  800000 100000 0  850000 100000 0  900000 100000 0  950000 100000 0  1000000 100000 0  0 150000 0  50000 150000 0  100000 150000 0  150000 150000 0  200000 150000 0  250000 150000 0  300000 150000 0  350000 150000 0  400000 150000 0  450000 150000 0  500000 150000 0  550000 150000 0  600000 150000 0  650000 150000 0  700000 150000 0  750000 150000 0  800000 150000 0  850000 150000 0  900000 150000 0  950000 150000 0  1000000 150000 0  0 200000 0  50000 200000 0  100000 200000 0  150000 200000 0  200000 200000 0  250000 200000 0  300000 200000 0  350000 200000 0  400000 200000 0  450000 200000 0  500000 200000 0  550000 200000 0  600000 200000 0  650000 200000 0  700000 200000 0  750000 200000 0  800000 200000 0  850000 200000 0  900000 200000 0  950000 200000 0  1000000 200000 0  0 250000 0  50000 250000 0  100000 250000 0  150000 250000 0  200000 250000 0  250000 250000 0  300000 250000 0  350000 250000 0  400000 250000 0  450000 250000 0  500000 250000 0  550000 250000 0  600000 250000 0  650000 250000 0  700000 250000 0  750000 250000 0  800000 250000 0  850000 250000 0  900000 250000 0  950000 250000 0  1000000 250000 0  0 300000 0  50000 300000 0  100000 300000 0  150000 300000 0  200000 300000 0  250000 300000 0  300000 300000 0  350000 300000 0  400000 300000 0  450000 300000 0  500000 300000 0  550000 300000 0  600000 300000 0  650000 300000 0  700000 300000 0  750000 300000 0  800000 300000 0  850000 300000 0  900000 300000 0  950000 300000 0  1000000 300000 0  0 350000 0  50000 350000 0  100000 350000 0  150000 350000 0  200000 350000 0  250000 350000 0  300000 350000 0  350000 350000 0  400000 350000 0  450000 350000 0  500000 350000 0  550000 350000 0  600000 350000 0  650000 350000 0  700000 350000 0  750000 350000 0  800000 350000 0  850000 350000 0  900000 350000 0  950000 350000 0  1000000 350000 0  0 400000 0  50000 400000 0  100000 400000 0  150000 400000 0  200000 400000 0  250000 400000 0  300000 400000 0  350000 400000 0  400000 400000 0  450000 400000 0  500000 400000 0  550000 400000 0  600000 400000 0  650000 400000 0  700000 400000 0  750000 400000 0  800000 400000 0  850000 400000 0  900000 400000 0  950000 400000 0  1000000 400000 0  0 450000 0  50000 450000 0  100000 450000 0  150000 450000 0  200000 450000 0  250000 450000 0  300000 450000 0  350000 450000 0  400000 450000 0  450000 450000 0  500000 450000 0  550000 450000 0  600000 450000 0  650000 450000 0  700000 450000 0  750000 450000 0  800000 450000 0  850000 450000 0  900000 450000 0  950000 450000 0  1000000 450000 0  0 500000 0  50000 500000 0  100000 500000 0  150000 500000 0  200000 500000 0  250000 500000 0  300000 500000 0  350000 500000 0  400000 500000 0  450000 500000 0  500000 500000 0  550000 500000 0  600000 500000 0  650000 500000 0  700000 500000 0  750000 500000 0  800000 500000 0  850000 500000 0  900000 500000 0  950000 500000 0  1000000 500000 0  0 550000 0  50000 550000 0  100000 550000 0  150000 550000 0  200000 550000 0  250000 550000 0  300000 550000 0  350000 550000 0  400000 550000 0  450000 550000 0  500000 550000 0  550000 550000 0  600000 550000 0  650000 550000 0  700000 550000 0  750000 550000 0  800000 550000 0  850000 550000 0  900000 550000 0  950000 550000 0  1000000 550000 0  0 600000 0  50000 600000 0  100000 600000 0  150000 600000 0  200000 600000 0  250000 600000 0  300000 600000 0  350000 600000 0  400000 600000 0  450000 600000 0  500000 600000 0  550000 600000 0  600000 600000 0  650000 600000 0  700000 600000 0  750000 600000 0  800000 600000 0  850000 600000 0  900000 600000 0  950000 600000 0  1000000 600000 0  0 650000 0  50000 650000 0  100000 650000 0  150000 650000 0  200000 650000 0  250000 650000 0  300000 650000 0  350000 650000 0  400000 650000 0  450000 650000 0  500000 650000 0  550000 650000 0  600000 650000 0  650000 650000 0  700000 650000 0  750000 650000 0  800000 650000 0  850000 650000 0  900000 650000 0  950000 650000 0  1000000 650000 0  0 700000 0  50000 700000 0  100000 700000 0  150000 700000 0  200000 700000 0  250000 700000 0  300000 700000 0  350000 700000 0  400000 700000 0  450000 700000 0  500000 700000 0  550000 700000 0  600000 700000 0  650000 700000 0  700000 700000 0  750000 700000 0  800000 700000 0  850000 700000 0  900000 700000 0  950000 700000 0  1000000 700000 0  0 750000 0  50000 750000 0  100000 750000 0  150000 750000 0  200000 750000 0  250000 750000 0  300000 750000 0  350000 750000 0  400000 750000 0  450000 750000 0  500000 750000 0  550000 750000 0  600000 750000 0  650000 750000 0  700000 750000 0  750000 750000 0  800000 750000 0  850000 750000 0  900000 750000 0  950000 750000 0  1000000 750000 0  0 800000 0  50000 800000 0  100000 800000 0  150000 800000 0  200000 800000 0  250000 800000 0  300000 800000 0  350000 800000 0  400000 800000 0  450000 800000 0  500000 800000 0  550000 800000 0  600000 800000 0  650000 800000 0  700000 800000 0  750000 800000 0  800000 800000 0  850000 800000 0  900000 800000 0  950000 800000 0  1000000 800000 0  0 850000 0  50000 850000 0  100000 850000 0  150000 850000 0  200000 850000 0  250000 850000 0  300000 850000 0  350000 850000 0  400000 850000 0  450000 850000 0  500000 850000 0  550000 850000 0  600000 850000 0  650000 850000 0  700000 850000 0  750000 850000 0  800000 850000 0  850000 850000 0  900000 850000 0  950000 850000 0  1000000 850000 0  0 900000 0  50000 900000 0  100000 900000 0  150000 900000 0  200000 900000 0  250000 900000 0  300000 900000 0  350000 900000 0  400000 900000 0  450000 900000 0  500000 900000 0  550000 900000 0  600000 900000 0  650000 900000 0  700000 900000 0  750000 900000 0  800000 900000 0  850000 900000 0  900000 900000 0  950000 900000 0  1000000 900000 0  0 950000 0  50000 950000 0  100000 950000 0  150000 950000 0  200000 950000 0  250000 950000 0  300000 950000 0  350000 950000 0  400000 950000 0  450000 950000 0  500000 950000 0  550000 950000 0  600000 950000 0  650000 950000 0  700000 950000 0  750000 950000 0  800000 950000 0  850000 950000 0  900000 950000 0  950000 950000 0  1000000 950000 0  0 1000000 0  50000 1000000 0  100000 1000000 0  150000 1000000 0  200000 1000000 0  250000 1000000 0  300000 1000000 0  350000 1000000 0  400000 1000000 0  450000 1000000 0  500000 1000000 0  550000 1000000 0  600000 1000000 0  650000 1000000 0  700000 1000000 0  750000 1000000 0  800000 1000000 0  850000 1000000 0  900000 1000000 0  950000 1000000 0  1000000 1000000 0  0 1050000 0  50000 1050000 0  100000 1050000 0  150000 1050000 0  200000 1050000 0  250000 1050000 0  300000 1050000 0  350000 1050000 0  400000 1050000 0  450000 1050000 0  500000 1050000 0  550000 1050000 0  600000 1050000 0  650000 1050000 0  700000 1050000 0  750000 1050000 0  800000 1050000 0  850000 1050000 0  900000 1050000 0  950000 1050000 0  1000000 1050000 0  0 1100000 0  50000 1100000 0  100000 1100000 0  150000 1100000 0  200000 1100000 0  250000 1100000 0  300000 1100000 0  350000 1100000 0  400000 1100000 0  450000 1100000 0  500000 1100000 0  550000 1100000 0  600000 1100000 0  650000 1100000 0  700000 1100000 0  750000 1100000 0  800000 1100000 0  850000 1100000 0  900000 1100000 0  950000 1100000 0  1000000 1100000 0  0 1150000 0  50000 1150000 0  100000 1150000 0  150000 1150000 0  200000 1150000 0  250000 1150000 0  300000 1150000 0  350000 1150000 0  400000 1150000 0  450000 1150000 0  500000 1150000 0  550000 1150000 0  600000 1150000 0  650000 1150000 0  700000 1150000 0  750000 1150000 0  800000 1150000 0  850000 1150000 0  900000 1150000 0  950000 1150000 0  1000000 1150000 0  0 1200000 0  50000 1200000 0  100000 1200000 0  150000 1200000 0  200000 1200000 0  250000 1200000 0  300000 1200000 0  350000 1200000 0  400000 1200000 0  450000 1200000 0  500000 1200000 0  550000 1200000 0  600000 1200000 0  650000 1200000 0  700000 1200000 0  750000 1200000 0  800000 1200000 0  850000 1200000 0  900000 1200000 0  950000 1200000 0  1000000 1200000 0  0 1250000 0  50000 1250000 0  100000 1250000 0  150000 1250000 0  200000 1250000 0  250000 1250000 0  300000 1250000 0  350000 1250000 0  400000 1250000 0  450000 1250000 0  500000 1250000 0  550000 1250000 0  600000 1250000 0  650000 1250000 0  700000 1250000 0  750000 1250000 0  800000 1250000 0  850000 1250000 0  900000 1250000 0  950000 1250000 0  1000000 1250000 0  0 1300000 0  50000 1300000 0  100000 1300000 0  150000 1300000 0  200000 1300000 0  250000 1300000 0  300000 1300000 0  350000 1300000 0  400000 1300000 0  450000 1300000 0  500000 1300000 0  550000 1300000 0  600000 1300000 0  650000 1300000 0  700000 1300000 0  750000 1300000 0  800000 1300000 0  850000 1300000 0  900000 1300000 0  950000 1300000 0  1000000 1300000 0  0 1350000 0  50000 1350000 0  100000 1350000 0  150000 1350000 0  200000 1350000 0  250000 1350000 0  300000 1350000 0  350000 1350000 0  400000 1350000 0  450000 1350000 0  500000 1350000 0  550000 1350000 0  600000 1350000 0  650000 1350000 0  700000 135
[...]
<PointData  Scalars="f_25027"> 
<DataArray  type="Float64"  Name="f_25027"  format="ascii">-8.7626805975862907e-04  3.0703148034118228e-05  2.5448788891585410e-05  9.2832677496195560e-05  1.3465844163108889e-04  1.6597703144169076e-04  1.9297216079590764e-04  2.1678544628473450e-04  2.3869175086886000e-04  2.5947683330762730e-04  2.7973816780546920e-04  2.9999943618180802e-04  3.2078510337289935e-04  3.4268436715802225e-04  3.6650943717171614e-04  3.9359925565963762e-04  4.2377622464994746e-04  4.7132085374303277e-04  5.3158273968965182e-04  4.0899644892526091e-04  3.1643786260182956e-03  -4.8938855424655344e-05  -3.9372857271984886e-06  1.9131731746264466e-05  9.8913784707687263e-05  1.3439444969071278e-04  1.6636048593684705e-04  1.9317396027536011e-04  2.1689783603770195e-04  2.3876696811593416e-04  2.5952203742167382e-04  2.7976094441142471e-04  3.0000264180844434e-04  3.2076568958252247e-04  3.4264790205557787e-04  3.6644092463643176e-04  3.9316390292711576e-04  4.2521017106107712e-04  4.6601120751115443e-04  5.0800342992978950e-04  6.9398869437356438e-04  4.9052271930894473e-04  3.2035010693551026e-05  2.4802585387434497e-05  7.5665840952734940e-05  1.1401409636888546e-04  1.4241029014786397e-04  1.7168521417664545e-04  1.9633008716738517e-04  2.1890707816243449e-04  2.3996749589590109e-04  2.6010211242823861e-04  2.7980513304673926e-04  2.9951629295392582e-04  3.1967936586127635e-04  3.4079175528729187e-04  3.6345732422420529e-04  3.8851681636629346e-04  4.1709285144112440e-04  4.4967996181110122e-04  4.9468268942251396e-04  5.1351868416048957e-04  5.2037200423717372e-04  8.7444378945928807e-05  9.1723964269524745e-05  1.1053397118751422e-04  1.3084105531011451e-04  1.5617436526924307e-04  1.7995523896888809e-04  2.0168434991590467e-04  2.2238628641708534e-04  2.4205446091306125e-04  2.6109610468930963e-04  2.7983251995897284e-04  2.9857950509093288e-04  3.1765672964177309e-04  3.3740041013309677e-04  3.5817406983106249e-04  3.8034399617896603e-04  4.0410388313179318e-04  4.2959297603990511e-04  4.5270988407574179e-04  4.6980507837503943e-04  4.7715232988380278e-04  1.2609750168906546e-04  1.2647873596404610e-04  1.3612130835011872e-04  1.5221470841277076e-04  1.7090179219852544e-04  1.8961211107363914e-04  2.0843418394992942e-04  2.2684373840613833e-04  2.4477878061787293e-04  2.6240057820262465e-04  2.7985474482092467e-04  2.9732036737534163e-04  3.1497651220982324e-04  3.3298978691229499e-04  3.5148420149866720e-04  3.7046513094441584e-04  3.8968174947196687e-04  4.0810043344557538e-04  4.2379516191887547e-04  4.3349314555245905e-04  4.3215881954646637e-04  1.5259467538411410e-04  1.5295722892848292e-04  1.5963064033251121e-04  1.7069499898872612e-04  1.8440784896235616e-04  1.9968882390484680e-04  2.1565126206007262e-04  2.3174282393993373e-04  2.4783563641209345e-04  2.6387105187157870e-04  2.7986416240812243e-04  2.9586756895022651e-04  3.1193200432532732e-04  3.2807977652561589e-04  3.4426064809700145e-04  3.6027980183518768e-04  3.7566508642325377e-04  3.8952553195327222e-04  4.0042641679119835e-04  4.0649060845749881e-04  4.0690748483512097e-04  1.7306239990431765e-04  1.7331225422625204e-04  1.7792344261570773e-04  1.8604191377800413e-04  1.9680146764726759e-04  2.0925509974007833e-04  2.2268703496574257e-04  2.3667898003567955e-04  2.5096581472825450e-04  2.6538700151634311e-04  2.7986466309523524e-04  2.9434991851408696e-04  3.0879342920093225e-04  3.2311377728015146e-04  3.3715698068241805e-04  3.5064240534617082e-04  3.6309873008432536e-04  3.7381071260185114e-04  3.8183783765687089e-04  3.8624173717212364e-04  3.8637384386556301e-04  1.8904662084897881e-04  1.8920691174695273e-04  1.9267826595513753e-04  1.9897845991461886e-04  2.0755990314625874e-04  2.1780168370279864e-04  2.2919819568001544e-04  2.4135099331830195e-04  2.5396823720770403e-04  2.6685155223512506e-04  2.7985771527391415e-04  2.9286858891919417e-04  3.0576608376189511e-04  3.1840393514612366e-04  3.3057752745220011e-04  3.4199166925116315e-04  3.5223276484387884e-04  3.6076440131863421e-04  3.6697625316558965e-04  3.7030065339201037e-04  3.7038986293956095e-04  2.0170483689856518e-04  2.0182523498710306e-04  2.0456181585480393e-04  2.0961163709866528e-04  2.1663896128120214e-04  2.2522605748723649e-04  2.3498247372008877e-04  2.4556866710955026e-04  2.5671285238797144e-04  2.6819828819244770e-04  2.7984580861952515e-04  2.9149594391758490e-04  3.0298863286734129e-04  3.1414284832110331e-04  3.2473690246597684e-04  3.3449147953490231e-04  3.4306140208532687e-04  3.5004722462863999e-04  3.5503429497503057e-04  3.5766993162887671e-04  3.5774679683787930e-04  2.1175566830023646e-04  2.1184867836244672e-04  2.1408617912945131e-04  2.1826685549949882e-04  2.2416912906837006e-04  2.3149470937627517e-04  2.3994434130619554e-04  2.4923684915233315e-04  2.5912336570992523e-04  2.6938599280120092e-04  2.7983099912395182e-04  2.9027718560683955e-04  3.0054267333235536e-04  3.1043190246800897e-04  3.1972408889787047e-04  3.2816579288362399e-04  3.3547149077628376e-04  3.4133770788638074e-04  3.4547138691132554e-04  3.4763916714073361e-04  3.4770078702494467e-04  2.1967368115933633e-04  2.1974837935475000e-04  2.2163766732491324e-04  2.2519791337424330e-04  2.3027315957113226e-04  2.3664194145256841e-04  2.4406882990953921e-04  2.5231700094232240e-04  2.6116169111341903e-04  2.7039323146704243e-04  2.7981485294679493e-04  2.8923672234419640e-04  2.9846855791124279e-04  3.0731222733962891e-04  3.1555600105396257e-04  3.2297256761614043e-04  3.2932299116361511e-04  3.3436947488089307e-04  3.3789459998671525e-04  3.3973406048241227e-04  3.3978661545162105e-04  2.2579051562326286e-04  2.2585257223927267e-04  2.2749515944408812e-04  2.3060973834704651e-04  2.3507962867030743e-04  2.4073196204571815e-04  2.4737432107766009e-04  2.5480319764702169e-04  2.6281525233640769e-04  2.7121155377364488e-04  2.7979832465941718e-04  2.8838486481847300e-04  2.9678017922772886e-04  3.0478962288084280e-04  3.1221296595161039e-04  3.1884534735057484e-04  3.2448224844767705e-04  3.2893007512890430e-04  3.3201893503107910e-04  3.3362610589959726e-04  3.3367249853563966e-04  2.3033952636284673e-04  2.3039266122705043e-04  2.3186238718843490e-04  2.3466226441471913e-04  2.3869911104976168e-04  2.4383072924389325e-04  2.4989329772469136e-04  2.5670704948670256e-04  2.6408547468615183e-04  2.7183991568617392e-04  2.7978192158189608e-04  2.8772353833500644e-04  2.9547662379063696e-04  3.0285219583567260e-04  3.0966084323549978e-04  3.1571520644024039e-04  3.2083503762088243e-04  3.2485590609927344e-04  3.2763771912175832e-04  3.2908308267864240e-04  3.2912546556689948e-04  2.3348317351441317e-04  2.3353008280954706e-04  2.3488448181945972e-04  2.3747399223423903e-04  2.4121908027838288e-04  2.4599633092168682e-04  2.5165997470179903e-04  2.5804596895521634e-04  2.6497974197704218e-04  2.7228079094714433e-04  2.7976584307202291e-04  2.8725054352090744e-04  2.9455043125775068e-04  3.0148193644631506e-04  3.0786414802547570e-04  3.1352205291426260e-04  3.1829140175569957e-04  3.2202611663666685e-04  3.2460411869420858e-04  3.2594320037510771e-04  3.2598336387558799e-04  2.3532881404707222e-04  2.3537158363452174e-04  2.3665868000248433e-04  2.3912641558121754e-04  2.4270218774867847e-04  2.4727283741733815e-04  2.5270253583266052e-04  2.5883618752623637e-04  2.6550629318298862e-04  2.7253748752654252e-04  2.7975007927473667e-04  2.8696246965944424e-04  2.9399301277020345e-04  3.0066188614811818e-04  3.0679354718132892e-04  3.1222030942717967e-04  3.1678700405003197e-04  3.2035767340189193e-04  3.2281980634007437e-04  3.2409950025678863e-04  3.2413901352276470e-04  2.3593775665995919e-04  2.3597812113722183e-04  2.3724089240308659e-04  2.3966707408122300e-04  2.4318579601300221e-04  2.4768735321469433e-04  2.5303905572227260e-04  2.5908869378266742e-04  2.6567105663498672e-04  2.7261247861701016e-04  2.7973449985534604e-04  2.8685652109371765e-04  2.9379794307584674e-04  3.0038030592833068e-04  3.0642994398893269e-04  3.1178164649674125e-04  3.1628320369866096e-04  3.1980192563064064e-04  3.2222810730892702e-04  3.2349087857487296e-04  3.2353124305214536e-04  2.3532998618933299e-04  2.3536949945529903e-04  2.3664919337193046e-04  2.3911132630995878e-04  2.4268199566161345e-04  2.4724869028423216e-04  2.5267545252984764e-04  2.5880711356284652e-04  2.6547598694059304e-04  2.7250653005124600e-04  2.7971892043591865e-04  2.8693151218415249e-04  2.9396270652781779e-04  3.0063281218474253e-04  3.0676646387853631e-04  3.1219616229410008e-04  3.1676681196300005e-04  3.2034258413067226e-04  3.2281031970956452e-04  3.2409741607761336e-04  3.2414018566507386e-04  2.3348563583653573e-04  2.3352579933700647e-04  2.3486488101781384e-04  2.3744288307518509e-04  2.4117759795592444e-04  2.4594694679710364e-04  2.5160485168563190e-04  2.5798706326456031e-04  2.6491856845294260e-04  2.7221845618967134e-04  2.7970315663851923e-04  2.8718820876344329e-04  2.9448925773366963e-04  3.0142303075568819e-04  3.0780902500934928e-04  3.1347266878973293e-04  3.1824991943330797e-04  3.2199500747769175e-04  3.2458451789265286e-04  3.2593891690266486e-04  3.2598582619781041e-04  2.3034353414529241e-04  2.3038591703353732e-04  2.3183128059031270e-04  2.3461309361259424e-04  2.3863396209071561e-04  2.4375379327105373e-04  2.4980815647549236e-04  2.5661680387505044e-04  2.6399237591987683e-04  2.7174546137537632e-04  2.7968707812844635e-04  2.8762908402422212e-04  2.9538352502438874e-04  3.0276195022406244e-04  3.0957570198636056e-04  3.1563827046748031e-04  3.2076988866193667e-04  3.2480673529727030e-04  3.2760661252377479e-04  3.2907633848528085e-04  3.2912947334949924e-04  2.2579650117666807e-04  2.2584289381269630e-04  2.2745006468107766e-04  2.3053892458299653e-04  2.3498675126388581e-04  2.4062365236061161e-04  2.4725603375920659e-04  2.5467937682964871e-04  2.6268882048251213e-04  2.7108413489161269e-04  2.7967067505062069e-04  2.8825744593645680e-04  2.9665374737386643e-04  3.0466580206352272e-04  3.1209467863323333e-04  3.1873703766557263e-04  3.2438937104139082e-04  3.2885926136502042e-04  3.3197384026826209e-04  3.3361642747323461e-04  3.3367848408926272e-04  2.1968238426086923e-04  2.1973493923006036e-04  2.2157439972557660e-04  2.2509952483106040e-04  2.3014600854789723e-04  2.3649643209488808e-04  2.4391299865659892e-04  2.5215677237052855e-04  2.6100044179860812e-04  2.7023227736546591e-04  2.7965414676280894e-04  2.8907576824263706e-04  2.9830730859646830e-04  3.0715199876789551e-04  3.1540016980111216e-04  3.2282705825858690e-04  3.2919584014054915e-04  3.3427108633792474e-04  3.3783133238763459e-04  3.3972062035800981e-04  3.3979531855344815e-04  2.1176821268781903e-04  2.1182983257200789e-04  2.1399761280116648e-04  2.1813129182564746e-04  2.2399750893514834e-04  2.3130320682716998e-04  2.3974491081232271e-04  2.4903709724167724e-04  2.5892632637695409e-04  2.6919181410224125e-04  2.7963800058505666e-04  2.9008300690789614e-04  3.0034563399942055e-04  3.1023215055741557e-04  3.1952465840409412e-04  3.2797429033466085e-04  3.3529987064326224e-04  3.4120214421279592e-04  3.4538282058337114e-04  3.4762032135067397e-04  3.4771333141291830e-04  2.0172220287529026e-04  2.0179906808426109e-04  2.0443470473775053e-04  2.0942177508348096e-04  2.1640759762596714e-04  2.2497752017553688e-04  2.3473209724368628e-04  2.4532615138792837e-04  2.5648036684123329e-04  2.6797305579071652e-04  2.7962319108868931e-04  2.9127071151586716e-04  3.0275614732063350e-04  3.1390033259953590e-04  3.2448652598966748e-04  3.3424294222335316e-04  3.4283003843031776e-04  3.4985736261377442e-04  3.5490718385839586e-04  3.5764376472653697e-04  3.5776416281512352e-04  1.8907913677419100e-04  1.8916834632171157e-04  1.9249274654760103e-04  1.9870459839358052e-04  2.0723623486716296e-04  2.1747733045872537e-04  2.2889147225669678e-04  2.4106506456200545e-04  2.5370291594569995e-04  2.6660041078808999e-04  2.7961128443326988e-04  2.9261744747216572e-04  3.0550076249990794e-04  3.1811800638986541e-04  3.3027080402895780e-04  3.4166731600721593e-04  3.5190909656499658e-04  3.6049053979796087e-04  3.6679073375859065e-04  3.7026208796744480e-04  3.7042237886548355e-04  1.7309515584906657e-04  1.7322726254248724e-04  1.7763116205687368e-04  1.8565828711040327e-04  1.9637026962623181e-04  2.0882659436284091e-04  2.2231201902536696e-04  2.3635522242674935e-04  2.5067557050538816e-04  2.6511908119190728e-04  2.7960433661065247e-04  2.9408199818964663e-04  3.0850318497806212e-04  3.2279001967123046e-04  3.3678196474206306e-04  3.5021389996901618e-04  3.6266753206354833e-04  3.7342708593470137e-04  3.8154555709869243e-04  3.8615674548923433e-04  3.8640659981132187e-04  1.5256151488111811e-04  1.5297839125829460e-04  1.5904258292329443e-04  1.6994346775880625e-04  1.8380391328633072e-04  1.9918919787239930e-04  2.1520835160917173e-04  2.3138922317964450e-04  2.4753699537938219e-04  2.6360143075418972e-04  2.7960483729619649e-04  2.9559794783281872e-04  3.1163336329258576e-04  3.2772617576527958e-04  3.4381773764606077e-04  3.5978017580281602e-04  3.7506115074723381e-04  3.8877400072330292e-04  3.9983835938263060e-04  4.0651177078891232e-04  4.0687432433340084e-04  1.2731018016971321e-04  1.2597585416562401e-04  1.3567383779654685e-04  1.5136856626553184e-04  1.6978725023567243e-04  1.8900386876083232e-04  2.0798479820521528e-04  2.2647921279084552e-04  2.4449248749293633e-04  2.6214863232723639e-04  2.7961425488158922e-04  2.9706842149991803e-04  3.1469021908481958e-04  3.3262526129689181e-04  3.5103481575389419e-04  3.6985688863142648e-04  3.8856720750872470e-04  4.0725429129959384e-04  4.2334769136738242e-04  4.3299026375578236e-04  4.3337149803055321e-04  8.2316669842345873e-05  8.9663921347661981e-05  1.0675911563874534e-04  1.2987602366852007e-04  1.5536511657175431e-04  1.7912500352259438e-04  2.0129492986970392e-04  2.2206858956745244e-04  2.4181227005876449e-04  2.6088949460963416e-04  2.7963647974159171e-04  2.9837289501120093e-04  3.1741453878736191e-04  3.3708271328329484e-04  3.5778464978468048e-04  3.7951376073211846e-04  4.0329463443487319e-04  4.2862794439719977e-04  4.4893502852066296e-04  4.6774503545239421e-04  4.7202462078333086e-04  3.9096995489388689e-05  4.5950315556269170e-05  6.4786310290438647e-05  1.0978903788714239e-04  1.4237614825521908e-04  1.7095218332990981e-04  1.9601167547272539e-04  2.1867724441037334e-04  2.3978963383695096e-04  2.5995270674463247e-04  2.7966386665190560e-04  2.9936688727024509e-04  3.1950150380217769e-04  3.4056192153500653e-04  3.6313891252921050e-04  3.8778378551930195e-04  4.1705870954862877e-04  4.4545490332602988e-04  4.8380315876663470e-04  5.3466641437108805e-04  5.2743398903833040e-04  6.8946280492258394e-05  -1.3451969466737312e-04  5.1465569743655591e-05  9.3457792171070274e-05  1.3425882862479535e-04  1.6630509676321336e-04  1.9302807505669101e-04  2.1682109763944971e-04  2.3870331011369668e-04  2.5946635788841392e-04  2.7970805528560258e-04  2.9994696227507353e-04  3.2070203158005294e-04  3.4257116365692792e-04  3.6629503941719665e-04  3.9310851375269656e-04  4.2507454999267581e-04  4.6055521497371707e-04  5.4033726793069000e-04  5.6340628535038906e-04  6.0840785514119163e-04  -2.6049096252007717e-03  1.5047255054892854e-04  2.7886259993843190e-05  8.8148145940253775e-05  1.3569277503396588e-04  1.6586974402992103e-04  1.9295956252096325e-04  2.1678463253668810e-04  2.3868389632307946e-04  2.5946956351484684e-04  2.7973083189136364e-04  2.9999216638890755e-04  3.2077724882686499e-04  3.4268355340955043e-04  3.6649683889616749e-04  3.9349196824666936e-04  4.2481055805182444e-04  4.6663632218413688e-04  5.3402021076321001e-04  5.2876585157935136e-04  1.4357370600716782e-03  </DataArray> 
</PointData> 
</Piece>
</UnstructuredGrid>
</VTKFile>