<?xml version="1.0"?>
<VTKFile type="UnstructuredGrid"  version="0.1"  >
<UnstructuredGrid>
<Piece  NumberOfPoints="651" NumberOfCells="1200">
<Points>
<DataArray  type="Float64"  NumberOfComponents="3"  format="ascii">0 0 0  50000 0 0  100000 0 0  150000 0 0  200000 0 0  250000 0 0  300000 0 0  350000 0 0  400000 0 0  450000 0 0  500000 0 0  550000 0 0  600000 0 0  650000 0 0  700000 0 0  750000 0 0  800000 0 0  850000 0 0  900000 0 0  950000 0 0  1000000 0 0  0 50000 0  50000 50000 0  100000 50000 0  150000 50000 0  200000 50000 0  250000 50000 0  300000 50000 0  350000 50000 0  400000 50000 0  450000 50000 0  500000 50000 0  550000 50000 0  600000 50000 0  650000 50000 0  700000 50000 0  750000 50000 0  800000 50000 0  850000 50000 0  900000 50000 0  950000 50000 0  1000000 50000 0  0 100000 0  50000 100000 0  100000 100000 0  150000 100000 0  200000 100000 0  250000 100000 0  300000 100000 0  350000 100000 0  400000 100000 0  450000 100000 0  500000 100000 0  550000 100000 0  600000 100000 0  650000 100000 0  700000 100000 0  750000 100000 0  800000 100000 0  850000 100000 0  900000 100000 0  950000 100000 0  1000000 100000 0  0 150000 0  50000 150000 0  100000 150000 0  150000 150000 0  200000 150000 0  250000 150000 0  300000 150000 0  350000 150000 0  400000 150000 0  450000 150000 0  500000 150000 0  550000 150000 0  600000 150000 0  650000 150000 0  700000 150000 0  750000 150000 0  800000 150000 0  850000 150000 0  900000 150000 0  950000 150000 0  1000000 150000 0  0 200000 0  50000 200000 0  100000 200000 0  150000 200000 0  200000 200000 0  250000 200000 0  300000 200000 0  350000 200000 0  400000 200000 0  450000 200000 0  500000 200000 0  550000 200000 0  600000 200000 0  650000 200000 0  700000 200000 0  750000 200000 0  800000 200000 0  850000 200000 0  900000 200000 0  950000 200000 0  1000000 200000 0  0 250000 0  50000 250000 0  100000 250000 0  150000 250000 0  200000 250000 0  250000 250000 0  300000 250000 0  350000 250000 0  400000 250000 0  450000 250000 0  500000 250000 0  550000 250000 0  600000 250000 0  650000 250000 0  700000 250000 0  750000 250000 0  800000 250000 0  850000 250000 0  900000 250000 0  950000 250000 0  1000000 250000 0  0 300000 0  50000 300000 0  100000 300000 0  150000 300000 0  200000 300000 0  250000 300000 0  300000 300000 0  350000 300000 0  400000 300000 0  450000 300000 0  500000 300000 0  550000 300000 0  600000 300000 0  650000 300000 0  700000 300000 0  750000 300000 0  800000 300000 0  850000 300000 0  900000 300000 0  950000 300000 0  1000000 300000 0  0 350000 0  50000 350000 0  100000 350000 0  150000 350000 0  200000 350000 0  250000 350000 0  300000 350000 0  350000 350000 0  400000 350000 0  450000 350000 0  500000 350000 0  550000 350000 0  600000 350000 0  650000 350000 0  700000 350000 0  750000 350000 0  800000 350000 0  850000 350000 0  900000 350000 0  950000 350000 0  1000000 350000 0  0 400000 0  50000 400000 0  100000 400000 0  150000 400000 0  200000 400000 0  250000 400000 0  300000 400000 0  350000 400000 0  400000 400000 0  450000 400000 0  500000 400000 0  550000 400000 0  600000 400000 0  650000 400000 0  700000 400000 0  750000 400000 0  800000 400000 0  850000 400000 0  900000 400000 0  950000 400000 0  1000000 400000 0  0 450000 0  50000 450000 0  100000 450000 0  150000 450000 0  200000 450000 0  250000 450000 0  300000 450000 0  350000 450000 0  400000 450000 0  450000 450000 0  500000 450000 0  550000 450000 0  600000 450000 0  650000 450000 0  700000 450000 0  750000 450000 0  800000 450000 0  850000 450000 0  900000 450000 0  950000 450000 0  1000000 450000 0  0 500000 0  50000 500000 0  100000 500000 0  150000 500000 0  200000 500000 0  250000 500000 0  300000 500000 0  350000 500000 0  400000 500000 0  450000 500000 0  500000 500000 0  550000 500000 0  600000 500000 0  650000 500000 0  700000 500000 0  750000 500000 0  800000 500000 0  850000 500000 0  900000 500000 0  950000 500000 0  1000000 500000 0  0 550000 0  50000 550000 0  100000 550000 0  150000 550000 0  200000 550000 0  250000 550000 0  300000 550000 0  350000 550000 0  400000 550000 0  450000 550000 0  500000 550000 0  550000 550000 0  600000 550000 0  650000 550000 0  700000 550000 0  750000 550000 0  800000 550000 0  850000 550000 0  900000 550000 0  950000 550000 0  1000000 550000 0  0 600000 0  50000 600000 0  100000 600000 0  150000 600000 0  200000 600000 0  250000 600000 0  300000 600000 0  350000 600000 0  400000 600000 0  450000 600000 0  500000 600000 0  550000 600000 0  600000 600000 0  650000 600000 0  700000 600000 0  750000 600000 0  800000 600000 0  850000 600000 0  900000 600000 0  950000 600000 0  1000000 600000 0  0 650000 0  50000 650000 0  100000 650000 0  150000 650000 0  200000 650000 0  250000 650000 0  300000 650000 0  350000 650000 0  400000 650000 0  450000 650000 0  500000 650000 0  550000 650000 0  600000 650000 0  650000 650000 0  700000 650000 0  750000 650000 0  800000 650000 0  850000 650000 0  900000 650000 0  950000 650000 0  1000000 650000 0  0 700000 0  50000 700000 0  100000 700000 0  150000 700000 0  200000 700000 0  250000 700000 0  300000 700000 0  350000 700000 0  400000 700000 0  450000 700000 0  500000 700000 0  550000 700000 0  600000 700000 0  650000 700000 0  700000 700000 0  750000 700000 0  800000 700000 0  850000 700000 0  900000 700000 0  950000 700000 0  1000000 700000 0  0 750000 0  50000 750000 0  100000 750000 0  150000 750000 0  200000 750000 0  250000 750000 0  300000 750000 0  350000 750000 0  400000 750000 0  450000 750000 0  500000 750000 0  550000 750000 0  600000 750000 0  650000 750000 0  700000 750000 0  750000 750000 0  800000 750000 0  850000 750000 0  900000 750000 0  950000 750000 0  1000000 750000 0  0 800000 0  50000 800000 0  100000 800000 0  150000 800000 0  200000 800000 0  250000 800000 0  300000 800000 0  350000 800000 0  400000 800000 0  450000 800000 0  500000 800000 0  550000 800000 0  600000 800000 0  650000 800000 0  700000 800000 0  750000 800000 0  800000 800000 0  850000 800000 0  900000 800000 0  950000 800000 0  1000000 800000 0  0 850000 0  50000 850000 0  100000 850000 0  150000 850000 0  200000 850000 0  250000 850000 0  300000 850000 0  350000 850000 0  400000 850000 0  450000 850000 0  500000 850000 0  550000 850000 0  600000 850000 0  650000 850000 0  700000 850000 0  750000 850000 0  800000 850000 0  850000 850000 0  900000 850000 0  950000 850000 0  1000000 850000 0  0 900000 0  50000 900000 0  100000 900000 0  150000 900000 0  200000 900000 0  250000 900000 0  300000 900000 0  350000 900000 0  400000 900000 0  450000 900000 0  500000 900000 0  550000 900000 0  600000 900000 0  650000 900000 0  700000 900000 0  750000 900000 0  800000 900000 0  850000 900000 0  900000 900000 0  950000 900000 0  1000000 900000 0  0 950000 0  50000 950000 0  100000 950000 0  150000 950000 0  200000 950000 0  250000 950000 0  300000 950000 0  350000 950000 0  400000 950000 0  450000 950000 0  500000 950000 0  550000 950000 0  600000 950000 0  650000 950000 0  700000 950000 0  750000 950000 0  800000 950000 0  850000 950000 0  900000 950000 0  950000 950000 0  1000000 950000 0  0 1000000 0  50000 1000000 0  100000 1000000 0  150000 1000000 0  200000 1000000 0  250000 1000000 0  300000 1000000 0  350000 1000000 0  400000 1000000 0  450000 1000000 0  500000 1000000 0  550000 1000000 0  600000 1000000 0  650000 1000000 0  700000 1000000 0  750000 1000000 0  800000 1000000 0  850000 1000000 0  900000 1000000 0  950000 1000000 0  1000000 1000000 0  0 1050000 0  50000 1050000 0  100000 1050000 0  150000 1050000 0  200000 1050000 0  250000 1050000 0  300000 1050000 0  350000 1050000 0  400000 1050000 0  450000 1050000 0  500000 1050000 0  550000 1050000 0  600000 1050000 0  650000 1050000 0  700000 1050000 0  750000 1050000 0  800000 1050000 0  850000 1050000 0  900000 1050000 0  950000 1050000 0  1000000 1050000 0  0 1100000 0  50000 1100000 0  100000 1100000 0  150000 1100000 0  200000 1100000 0  250000 1100000 0  300000 1100000 0  350000 1100000 0  400000 1100000 0  450000 1100000 0  500000 1100000 0  550000 1100000 0  600000 1100000 0  650000 1100000 0  700000 1100000 0  750000 1100000 0  800000 1100000 0  850000 1100000 0  900000 1100000 0  950000 1100000 0  1000000 1100000 0  0 1150000 0  50000 1150000 0  100000 1150000 0  150000 1150000 0  200000 1150000 0  250000 1150000 0  300000 1150000 0  350000 1150000 0  400000 1150000 0  450000 1150000 0  500000 1150000 0  550000 1150000 0  600000 1150000 0  650000 1150000 0  700000 1150000 0  750000 1150000 0  800000 1150000 0  850000 1150000 0  900000 1150000 0  950000 1150000 0  1000000 1150000 0  0 1200000 0  50000 1200000 0  100000 1200000 0  150000 1200000 0  200000 1200000 0  250000 1200000 0  300000 1200000 0  350000 1200000 0  400000 1200000 0  450000 1200000 0  500000 1200000 0  550000 1200000 0  600000 1200000 0  650000 1200000 0  700000 1200000 0  750000 1200000 0  800000 1200000 0  850000 1200000 0  900000 1200000 0  950000 1200000 0  1000000 1200000 0  0 1250000 0  50000 1250000 0  100000 1250000 0  150000 1250000 0  200000 1250000 0  250000 1250000 0  300000 1250000 0  350000 1250000 0  400000 1250000 0  450000 1250000 0  500000 1250000 0  550000 1250000 0  600000 1250000 0  650000 1250000 0  700000 1250000 0  750000 1250000 0  800000 1250000 0  850000 1250000 0  900000 1250000 0  950000 1250000 0  1000000 1250000 0  0 1300000 0  50000 1300000 0  100000 1300000 0  150000 1300000 0  200000 1300000 0  250000 1300000 0  300000 1300000 0  350000 1300000 0  400000 1300000 0  450000 1300000 0  500000 1300000 0  550000 1300000 0  600000 1300000 0  650000 1300000 0  700000 1300000 0  750000 1300000 0  800000 1300000 0  850000 1300000 0  900000 1300000 0  950000 1300000 0  1000000 1300000 0  0 1350000 0  50000 1350000 0  100000 1350000 0  150000 1350000 0  200000 1350000 0  250000 1350000 0  300000 1350000 0  350000 1350000 0  400000 1350000 0  450000 1350000 0  500000 1350000 0  550000 1350000 0  600000 1350000 0  650000 1350000 0  700000 135
[...]
<PointData  Scalars="f_25027"> 
<DataArray  type="Float64"  Name="f_25027"  format="ascii">2.1660762417114411e-04  4.3730742332774228e-04  4.6730654582236020e-04  4.9108550537644332e-04  5.0981317435885084e-04  5.2446500234671527e-04  5.3691036517744312e-04  5.4801483607692686e-04  5.5827160201884606e-04  5.6802560396000234e-04  5.7754455812493292e-04  5.8706238711105725e-04  5.9681286523379363e-04  6.0706318030957589e-04  6.1815497416950460e-04  6.3057046103135405e-04  6.4524104287933871e-04  6.6433658125480098e-04  6.8489152945418457e-04  7.0315753214133527e-04  1.2718744493320593e-03  4.2731734379175058e-04  4.4949359500513964e-04  4.6770364921267448e-04  4.9337094046298855e-04  5.1089736927284327e-04  5.2505273973552102e-04  5.3728107556795101e-04  5.4824690973561449e-04  5.5840622790039117e-04  5.6808545300484703e-04  5.7753975047330141e-04  5.8699389506196493e-04  5.9667273503094152e-04  6.0683132087721949e-04  6.1779571731262995e-04  6.3003823377058901e-04  6.4428869618837639e-04  6.6144843715766741e-04  6.8432473806894628e-04  7.3580314027416310e-04  7.0699145120449718e-04  4.6641345504061976e-04  4.6834520730799326e-04  4.8499373402327280e-04  5.0123272633579360e-04  5.1513059007675063e-04  5.2766582619837639e-04  5.3895185376996008e-04  5.4931235003739646e-04  5.5904638608797322e-04  5.6839415802373435e-04  5.7755856474058182e-04  5.8672550154492838e-04  5.9608178456338403e-04  6.0583366094126305e-04  6.1622853427465384e-04  6.2757888184731343e-04  6.4028052199036653e-04  6.5490485993212712e-04  6.7222054155577490e-04  6.8578868673180890e-04  6.8782774041805772e-04  4.8907518037546408e-04  4.9127349218833108e-04  4.9985501036062350e-04  5.1013126470092290e-04  5.2101415347408206e-04  5.3155612936712485e-04  5.4153057812105409e-04  5.5099603701666609e-04  5.6007153347337505e-04  5.6888957604548729e-04  5.7758203989654938e-04  5.8627864350623341e-04  5.9511028719969636e-04  6.0421299350406333e-04  6.1372831741953826e-04  6.2379198589290915e-04  6.3449125409189807e-04  6.4570508834113475e-04  6.5643430738513699e-04  6.6403338484989974e-04  6.6710268955437078e-04  5.0559651532943047e-04  5.0684216125210983e-04  5.1186220853164418e-04  5.1907847074747406e-04  5.2739478242401093e-04  5.3601970416947229e-04  5.4461674451055178e-04  5.5306276922784136e-04  5.6134450928579005e-04  5.6950051302127316e-04  5.7759179182545809e-04  5.8568783643458695e-04  5.9385910580483979e-04  6.0216975218421352e-04  6.1066436009117153e-04  6.1933873872440975e-04  6.2807393341241435e-04  6.3649218525278263e-04  6.4374714279710852e-04  6.4862131296657968e-04  6.4972968168642230e-04  5.1767662123351408e-04  5.1845261427188138e-04  5.2184293517291394e-04  5.2708684225029638e-04  5.3350208112119260e-04  5.4054436683013398e-04  5.4787420805960216e-04  5.5530475920175838e-04  5.6274956913452637e-04  5.7018045699624227e-04  5.7759998124936012e-04  5.8502397532682717e-04  5.9246879548170066e-04  5.9993848425266732e-04  6.0740677291533710e-04  6.1478749938371732e-04  6.2188609656999906e-04  6.2833454901998673e-04  6.3355565323748792e-04  6.3683674752011796e-04  6.3753845509405607e-04  5.2695765274441439e-04  5.2751345566877828e-04  5.2997938800252895e-04  5.3394461020900047e-04  5.3901192962514872e-04  5.4480697123597533e-04  5.5104689247780891e-04  5.5754152986520970e-04  5.6417332074495312e-04  5.7087383638805523e-04  5.7760380615994955e-04  5.8433739927298250e-04  5.9104889213725149e-04  5.9769912195400704e-04  6.0421899702300550e-04  6.1048784329731571e-04  6.1630728601782235e-04  6.2138033194604513e-04  6.2531864201670611e-04  6.2770613459981806e-04  6.2823290320059629e-04  5.3427671739366355e-04  5.3469930033812711e-04  5.3659012614474752e-04  5.3970789427483642e-04  5.4381049175690629e-04  5.4864024043709968e-04  5.5397659995207269e-04  5.5964892046882068e-04  5.6553292874789586e-04  5.7153985730932708e-04  5.7760398356356945e-04  5.8367072320425863e-04  5.8968534609188687e-04  5.9558152418851386e-04  6.0126889808393867e-04  6.0661980704725441e-04  6.1145784994362181e-04  6.1555523988565035e-04  6.1864905201118993e-04  6.2048784318489536e-04  6.2089087809158179e-04  5.4010663218333839e-04  5.4044184756234053e-04  5.4195362365338097e-04  5.4448794675276046e-04  5.4788879678782936e-04  5.5197544735768823e-04  5.5657799130066216e-04  5.6155038940193937e-04  5.6677332849172516e-04  5.7215045594814437e-04  5.7760149224528757e-04  5.8305422903224538e-04  5.8843622060475431e-04  5.9366638501635296e-04  5.9864676328955590e-04  6.0325539105600000e-04  6.0734261814601297e-04  6.1073480422728626e-04  6.1324930833294594e-04  6.1472485498915627e-04  6.1504593442352287e-04  5.4475355730690487e-04  5.4502929665124788e-04  5.4627994610373246e-04  5.4840006314842442e-04  5.5128344177156601e-04  5.5479895443930364e-04  5.5881403526586329e-04  5.6320511277722289e-04  5.6786216327544094e-04  5.7268844082321345e-04  5.7759722294109127e-04  5.8250700260524611e-04  5.8733604063671647e-04  5.9199688643700725e-04  5.9639150771155253e-04  6.0040803997621665e-04  6.0392074053972121e-04  6.0679511830728696e-04  6.0889936397201657e-04  6.1012389013961410e-04  6.1038953694631188e-04  5.4842603201689095e-04  5.4866003685879506e-04  5.4972578480697661e-04  5.5154655693109747e-04  5.5404588935775657e-04  5.5712455991438470e-04  5.6067642150958014e-04  5.6459609353767923e-04  5.6878342461128451e-04  5.7314476031751786e-04  5.7759188066590394e-04  5.8203951714768071e-04  5.8640221437459455e-04  5.9059119049120854e-04  5.9451186888327581e-04  5.9806289550476171e-04  6.0113760834198721e-04  6.0362886071546119e-04  6.0543721900747623e-04  6.0648392457964950e-04  6.0671066640953129e-04  5.5127006080054892e-04  5.5147440280409828e-04  5.5240803878103264e-04  5.5401199221144417e-04  5.5622793542755298e-04  5.5897721791979473e-04  5.6217194198756790e-04  5.6572052916988751e-04  5.6953158889830172e-04  5.7351577048992981e-04  5.7758596111656365e-04  5.8165637220726615e-04  5.8564108063944794e-04  5.8945257949957340e-04  5.9300090149622326e-04  5.9619390100656045e-04  5.9893925286916272e-04  6.0114853853817860e-04  6.0274307538999946e-04  6.0366295256185040e-04  6.0386209121590412e-04  5.5338902706420217e-04  5.5357252299527827e-04  5.5441310064114951e-04  5.5586304742526052e-04  5.5787514256832715e-04  5.6038389704353051e-04  5.6331368737515123e-04  5.6658286334114840e-04  5.7010701347950314e-04  5.7380098439414786e-04  5.7757977676682951e-04  5.8135863116497838e-04  5.8505269923768183e-04  5.8857672562220474e-04  5.9184516882256923e-04  5.9477316230140348e-04  5.9727862992779213e-04  5.9928567973503027e-04  6.0072885022642390e-04  6.0155984913567583e-04  6.0173974431728479e-04  5.5485516499850676e-04  5.5502470728863737e-04  5.5580306908462203e-04  5.5714971406934700e-04  5.5902401443298755e-04  5.6136858535566934e-04  5.6411562865049409e-04  5.6719012635873746e-04  5.7051265429497575e-04  5.7400141432179246e-04  5.7757350094350419e-04  5.8114558339005863e-04  5.8463427805324406e-04  5.8795652892440942e-04  5.9103031435706911e-04  5.9377595557637069e-04  5.9611820556599031e-04  5.9798913400730313e-04  5.9933139186184997e-04  6.0010368337812432e-04  6.0027095341118558e-04  5.5571629254279158e-04  5.5587764609103774e-04  5.5661980328138873e-04  5.5790660717736616e-04  5.5970087636576023e-04  5.6194963063519636e-04  5.6458941180195094e-04  5.6754898558498935e-04  5.7075189020975865e-04  5.7411844796552945e-04  5.7756721174554023e-04  5.8101596056388824e-04  5.8438244903692878e-04  5.8758516097914902e-04  5.9054431728961605e-04  5.9318334264758777e-04  5.9543090307994891e-04  5.9722348650648768e-04  5.9850813471955039e-04  5.9924734479271068e-04  5.9940759792210553e-04  5.5599971500411923e-04  5.5615804219130173e-04  5.5688743479667571e-04  5.5815398657424779e-04  5.5992149205099783e-04  5.6213837544514622e-04  5.6474255470977521e-04  5.6766399711875761e-04  5.7082719037510879e-04  5.7415315083174270e-04  5.7756092939495278e-04  5.8096870795816406e-04  5.8429466841480242e-04  5.8745786167116042e-04  5.9037930408015107e-04  5.9298348334479003e-04  5.9520036673894807e-04  5.9696787221570689e-04  5.9823442399328591e-04  5.9896381659866379e-04  5.9912214378584738e-04  5.5571426086785923e-04  5.5587451399725300e-04  5.5661372407040917e-04  5.5789837228346483e-04  5.5969095570999482e-04  5.6193851614234620e-04  5.6457754150030816e-04  5.6753669781076696e-04  5.7073940975298015e-04  5.7410589822601656e-04  5.7755464704436371e-04  5.8100341082437633e-04  5.8436996858015190e-04  5.8757287320492858e-04  5.9053244698797631e-04  5.9317222815474119e-04  5.9542098242418805e-04  5.9721525161259145e-04  5.9850205550857668e-04  5.9924421269893190e-04  5.9940556624717937e-04  5.5485090537877875e-04  5.5501817541183925e-04  5.5579046692810893e-04  5.5713272478264807e-04  5.5900365322395103e-04  5.6134590321356003e-04  5.6409154443285120e-04  5.6716532986550189e-04  5.7048758073666042e-04  5.7397627539984184e-04  5.7754835784639541e-04  5.8112044446810931e-04  5.8460920449493166e-04  5.8793173243117840e-04  5.9100623013943262e-04  5.9375327343426951e-04  5.9609784435696333e-04  5.9797214472061472e-04  5.9931878970534858e-04  6.0009715150133856e-04  6.0026669379147025e-04  5.5338211447268247e-04  5.5356200965429002e-04  5.5439300856353619e-04  5.5583617905492040e-04  5.5784322886214704e-04  5.6034869648852311e-04  5.6327668996734566e-04  5.6654513316769974e-04  5.7006915955221506e-04  5.7376322762491417e-04  5.7754208202306250e-04  5.8132087439574729e-04  5.8501484531039874e-04  5.8853899544876302e-04  5.9180817141477320e-04  5.9473796174640812e-04  5.9724671622162623e-04  5.9925881136470662e-04  6.0070875814882815e-04  6.0154933579470600e-04  6.0173283172578384e-04  5.5125976757406823e-04  5.5145890622812022e-04  5.5237878339996368e-04  5.5397332025177261e-04  5.5618260592077385e-04  5.5892795778336062e-04  5.6212095729368371e-04  5.6566927929032121e-04  5.6948077815043767e-04  5.7346548658261459e-04  5.7753589767331676e-04  5.8160608829995462e-04  5.8559026989159061e-04  5.8940132962001653e-04  5.9294991680235133e-04  5.9614464087014239e-04  5.9889392336240311e-04  6.0110986657852927e-04  6.0271382000895467e-04  6.0364745598589771e-04  6.0385179798944902e-04  5.4841119238045017e-04  5.4863793421032947e-04  5.4968463978249276e-04  5.5149299807449143e-04  5.5398425044794644e-04  5.5705896328515176e-04  5.6060998990661967e-04  5.6453066829867198e-04  5.6871964441527556e-04  5.7308234164218377e-04  5.7752997812395989e-04  5.8197709847235073e-04  5.8633843417859374e-04  5.9052576525221354e-04  5.9444543728033182e-04  5.9799729887554981e-04  6.0107596943220190e-04  6.0357530185888378e-04  6.0539607398302350e-04  6.0646182193121708e-04  6.0669582677312412e-04  5.4473232184368379e-04  5.4499796865037820e-04  5.4622249481796109e-04  5.4832674048266804e-04  5.5120111825020777e-04  5.5471381881368588e-04  5.5873035107832680e-04  5.6312497235285375e-04  5.6778581815313249e-04  5.7261485618459635e-04  5.7752463584875055e-04  5.8243341796663367e-04  5.8725969551441757e-04  5.9191674601265308e-04  5.9630782352403620e-04  6.0032290435062415e-04  6.0383841701839322e-04  6.0672179564156582e-04  6.0884191268628456e-04  6.1009256213878649e-04  6.1036830148313373e-04  5.4007592436649502e-04  5.4039700380085673e-04  5.4187255045704474e-04  5.4438705456267102e-04  5.4777924064390744e-04  5.5186646773388562e-04  5.5647509550030034e-04  5.6145547377348148e-04  5.6668563818506614e-04  5.7206762975756781e-04  5.7752036654452486e-04  5.8297140284167424e-04  5.8834853029810646e-04  5.9357146938791231e-04  5.9854386748921771e-04  6.0314641143222731e-04  6.0723306200212771e-04  6.1063391203724018e-04  6.1316823513665796e-04  6.1468001122772474e-04  6.1501522660673328e-04  5.3423098069847177e-04  5.3463401560514996e-04  5.3647280677881918e-04  5.3956661890430769e-04  5.4366400884628321e-04  5.4850205174260442e-04  5.5385296070588461e-04  5.5954033460128469e-04  5.6543651269789618e-04  5.7145113558551704e-04  5.7751787522620536e-04  5.8358200148045424e-04  5.8958893004189934e-04  5.9547293832099674e-04  6.0114525883777725e-04  6.0648161835279407e-04  6.1131136703304232e-04  6.1541396451517388e-04  6.1853173264532089e-04  6.2042255845198282e-04  6.2084514139645593e-04  5.2688895558951657e-04  5.2741572419027756e-04  5.2980321677332826e-04  5.3374152684390727e-04  5.3881457277205329e-04  5.4463401549250106e-04  5.5090286176677061e-04  5.5742273683574359e-04  5.6407296665248439e-04  5.7078445951674677e-04  5.7751805262977929e-04  5.8424802240167957e-04  5.9094853804479448e-04  5.9758032892456023e-04  6.0407496631199615e-04  6.1031488755388123e-04  6.1610992916477864e-04  6.2117724858101438e-04  6.2514247078757730e-04  6.2760840312139801e-04  6.2816420604577784e-04  5.1758340369615046e-04  5.1828511127006212e-04  5.2156620555257767e-04  5.2678730976994008e-04  5.3323576221981923e-04  5.4033435940603180e-04  5.4771508587437244e-04  5.5518337453702162e-04  5.6265306330797798e-04  5.7009788346284703e-04  5.7752187754031461e-04  5.8494140179343691e-04  5.9237228965516278e-04  5.9981709958794856e-04  6.0724765073013665e-04  6.1457749195965937e-04  6.2161977766868630e-04  6.2803501653970687e-04  6.3327892361723719e-04  6.3666924451839498e-04  6.3744523755679145e-04  5.0539217710391542e-04  5.0650054582377713e-04  5.1137471599297204e-04  5.1862967353705940e-04  5.2704792537729063e-04  5.3578312006523343e-04  5.4445749869844846e-04  5.5295210660539953e-04  5.6126275298477239e-04  5.6943402235502631e-04  5.7753006696415669e-04  5.8562134576834292e-04  5.9377734950382863e-04  6.0205908956178491e-04  6.1050511427909401e-04  6.1910215462021773e-04  6.2772707636577006e-04  6.3604338804247661e-04  6.4325965025852549e-04  6.4827969753831463e-04  6.4952534346109168e-04  4.8801916923668534e-04  4.9108847394081724e-04  4.9868755140482105e-04  5.0941677044846550e-04  5.2063060469759853e-04  5.3132987289658399e-04  5.4139354136997103e-04  5.5090886528546439e-04  5.6001157158984567e-04  5.6884321528331719e-04  5.7753981889300371e-04  5.8623228274406276e-04  5.9505032531616644e-04  6.0412582177286466e-04  6.1359128066846896e-04  6.2356572942240916e-04  6.3410770531552221e-04  6.4499059408881527e-04  6.5526684842937856e-04  6.6384836660245204e-04  6.6604667841553176e-04  4.6729411837704606e-04  4.6933317205839477e-04  4.8290131723356514e-04  5.0021699885685221e-04  5.1484133679882899e-04  5.2754297694200156e-04  5.3889332451473565e-04  5.4928819784817815e-04  5.5904007422609013e-04  5.6839635724456323e-04  5.7756329404891381e-04  5.8672770076575185e-04  5.9607547270149031e-04  6.0580950875203010e-04  6.1617000501941477e-04  6.2745603259093655e-04  6.3999126871249325e-04  6.5388913245335043e-04  6.7012812476700129e-04  6.8677665148429018e-04  6.8870840375028690e-04  4.4813040759298647e-04  4.1931871851540658e-04  4.7079712071648771e-04  4.9367342163086111e-04  5.1083316260063286e-04  5.2508362501857929e-04  5.3732614147666911e-04  5.4829053791216327e-04  5.5844912375848938e-04  5.6812796372748971e-04  5.7758210831615725e-04  5.8703640578459699e-04  5.9671563088901751e-04  6.0687494905373261e-04  6.1784078322129840e-04  6.3006911905356977e-04  6.4422448951596985e-04  6.6175091832549953e-04  6.8741820957590825e-04  7.0562826377705047e-04  7.2780451499979766e-04  -1.1675259041761901e-04  4.5196432658970934e-04  4.7023032933192781e-04  4.9078527753465475e-04  5.0988081590933639e-04  5.2455139775764773e-04  5.3696688461972247e-04  5.4805867847975787e-04  5.5830899355560008e-04  5.6805947167836573e-04  5.7757730066449592e-04  5.8709625482940894e-04  5.9685025677052336e-04  6.0710702271236656e-04  6.1821149361172248e-04  6.3065685644222731e-04  6.4530868442975011e-04  6.6403635341174855e-04  6.8781531296282920e-04  7.1781443544315820e-04  9.3851423466540331e-04  </DataArray> 
</PointData> 
</Piece>
</UnstructuredGrid>
</VTKFile>