<?xml version="1.0"?>
<VTKFile type="UnstructuredGrid"  version="0.1"  >
<UnstructuredGrid>
<Piece  NumberOfPoints="651" NumberOfCells="1200">
<Points>
<DataArray  type="Float64"  NumberOfComponents="3"  format="ascii">0 0 0  50000 0 0  100000 0 0  150000 0 0  200000 0 0  250000 0 0  300000 0 0  350000 0 0  400000 0 0  450000 0 0  500000 0 0  550000 0 0  600000 0 0  650000 0 0  700000 0 0  750000 0 0  800000 0 0  850000 0 0  900000 0 0  950000 0 0  1000000 0 0  0 50000 0  50000 50000 0  100000 50000 0  150000 50000 0  200000 50000 0  250000 50000 0  300000 50000 0  350000 50000 0  400000 50000 0  450000 50000 0  500000 50000 0  550000 50000 0  600000 50000 0  650000 50000 0  700000 50000 0  750000 50000 0  800000 50000 0  850000 50000 0  900000 50000 0  950000 50000 0  1000000 50000 0  0 100000 0  50000 100000 0  100000 100000 0  150000 100000 0  200000 100000 0  250000 100000 0  300000 100000 0  350000 100000 0  400000 100000 0  450000 100000 0  500000 100000 0  550000 100000 0  600000 100000 0  650000 100000 0  700000 100000 0  750000 100000 0  800000 100000 0  850000 100000 0  900000 100000 0  950000 100000 0  1000000 100000 0  0 150000 0  50000 150000 0  100000 150000 0  150000 150000 0  200000 150000 0  250000 150000 0  300000 150000 0  350000 150000 0  400000 150000 0  450000 150000 0  500000 150000 0  550000 150000 0  600000 150000 0  650000 150000 0  700000 150000 0  750000 150000 0  800000 150000 0  850000 150000 0  900000 150000 0  950000 150000 0  1000000 150000 0  0 200000 0  50000 200000 0  100000 200000 0  150000 200000 0  200000 200000 0  250000 200000 0  300000 200000 0  350000 200000 0  400000 200000 0  450000 200000 0  500000 200000 0  550000 200000 0  600000 200000 0  650000 200000 0  700000 200000 0  750000 200000 0  800000 200000 0  850000 200000 0  900000 200000 0  950000 200000 0  1000000 200000 0  0 250000 0  50000 250000 0  100000 250000 0  150000 250000 0  200000 250000 0  250000 250000 0  300000 250000 0  350000 250000 0  400000 250000 0  450000 250000 0  500000 250000 0  550000 250000 0  600000 250000 0  650000 250000 0  700000 250000 0  750000 250000 0  800000 250000 0  850000 250000 0  900000 250000 0  950000 250000 0  1000000 250000 0  0 300000 0  50000 300000 0  100000 300000 0  150000 300000 0  200000 300000 0  250000 300000 0  300000 300000 0  350000 300000 0  400000 300000 0  450000 300000 0  500000 300000 0  550000 300000 0  600000 300000 0  650000 300000 0  700000 300000 0  750000 300000 0  800000 300000 0  850000 300000 0  900000 300000 0  950000 300000 0  1000000 300000 0  0 350000 0  50000 350000 0  100000 350000 0  150000 350000 0  200000 350000 0  250000 350000 0  300000 350000 0  350000 350000 0  400000 350000 0  450000 350000 0  500000 350000 0  550000 350000 0  600000 350000 0  650000 350000 0  700000 350000 0  750000 350000 0  800000 350000 0  850000 350000 0  900000 350000 0  950000 350000 0  1000000 350000 0  0 400000 0  50000 400000 0  100000 400000 0  150000 400000 0  200000 400000 0  250000 400000 0  300000 400000 0  350000 400000 0  400000 400000 0  450000 400000 0  500000 400000 0  550000 400000 0  600000 400000 0  650000 400000 0  700000 400000 0  750000 400000 0  800000 400000 0  850000 400000 0  900000 400000 0  950000 400000 0  1000000 400000 0  0 450000 0  50000 450000 0  100000 450000 0  150000 450000 0  200000 450000 0  250000 450000 0  300000 450000 0  350000 450000 0  400000 450000 0  450000 450000 0  500000 450000 0  550000 450000 0  600000 450000 0  650000 450000 0  700000 450000 0  750000 450000 0  800000 450000 0  850000 450000 0  900000 450000 0  950000 450000 0  1000000 450000 0  0 500000 0  50000 500000 0  100000 500000 0  150000 500000 0  200000 500000 0  250000 500000 0  300000 500000 0  350000 500000 0  400000 500000 0  450000 500000 0  500000 500000 0  550000 500000 0  600000 500000 0  650000 500000 0  700000 500000 0  750000 500000 0  800000 500000 0  850000 500000 0  900000 500000 0  950000 500000 0  1000000 500000 0  0 550000 0  50000 550000 0  100000 550000 0  150000 550000 0  200000 550000 0  250000 550000 0  300000 550000 0  350000 550000 0  400000 550000 0  450000 550000 0  500000 550000 0  550000 550000 0  600000 550000 0  650000 550000 0  700000 550000 0  750000 550000 0  800000 550000 0  850000 550000 0  900000 550000 0  950000 550000 0  1000000 550000 0  0 600000 0  50000 600000 0  100000 600000 0  150000 600000 0  200000 600000 0  250000 600000 0  300000 600000 0  350000 600000 0  400000 600000 0  450000 600000 0  500000 600000 0  550000 600000 0  600000 600000 0  650000 600000 0  700000 600000 0  750000 600000 0  800000 600000 0  850000 600000 0  900000 600000 0  950000 600000 0  1000000 600000 0  0 650000 0  50000 650000 0  100000 650000 0  150000 650000 0  200000 650000 0  250000 650000 0  300000 650000 0  350000 650000 0  400000 650000 0  450000 650000 0  500000 650000 0  550000 650000 0  600000 650000 0  650000 650000 0  700000 650000 0  750000 650000 0  800000 650000 0  850000 650000 0  900000 650000 0  950000 650000 0  1000000 650000 0  0 700000 0  50000 700000 0  100000 700000 0  150000 700000 0  200000 700000 0  250000 700000 0  300000 700000 0  350000 700000 0  400000 700000 0  450000 700000 0  500000 700000 0  550000 700000 0  600000 700000 0  650000 700000 0  700000 700000 0  750000 700000 0  800000 700000 0  850000 700000 0  900000 700000 0  950000 700000 0  1000000 700000 0  0 750000 0  50000 750000 0  100000 750000 0  150000 750000 0  200000 750000 0  250000 750000 0  300000 750000 0  350000 750000 0  400000 750000 0  450000 750000 0  500000 750000 0  550000 750000 0  600000 750000 0  650000 750000 0  700000 750000 0  750000 750000 0  800000 750000 0  850000 750000 0  900000 750000 0  950000 750000 0  1000000 750000 0  0 800000 0  50000 800000 0  100000 800000 0  150000 800000 0  200000 800000 0  250000 800000 0  300000 800000 0  350000 800000 0  400000 800000 0  450000 800000 0  500000 800000 0  550000 800000 0  600000 800000 0  650000 800000 0  700000 800000 0  750000 800000 0  800000 800000 0  850000 800000 0  900000 800000 0  950000 800000 0  1000000 800000 0  0 850000 0  50000 850000 0  100000 850000 0  150000 850000 0  200000 850000 0  250000 850000 0  300000 850000 0  350000 850000 0  400000 850000 0  450000 850000 0  500000 850000 0  550000 850000 0  600000 850000 0  650000 850000 0  700000 850000 0  750000 850000 0  800000 850000 0  850000 850000 0  900000 850000 0  950000 850000 0  1000000 850000 0  0 900000 0  50000 900000 0  100000 900000 0  150000 900000 0  200000 900000 0  250000 900000 0  300000 900000 0  350000 900000 0  400000 900000 0  450000 900000 0  500000 900000 0  550000 900000 0  600000 900000 0  650000 900000 0  700000 900000 0  750000 900000 0  800000 900000 0  850000 900000 0  900000 900000 0  950000 900000 0  1000000 900000 0  0 950000 0  50000 950000 0  100000 950000 0  150000 950000 0  200000 950000 0  250000 950000 0  300000 950000 0  350000 950000 0  400000 950000 0  450000 950000 0  500000 950000 0  550000 950000 0  600000 950000 0  650000 950000 0  700000 950000 0  750000 950000 0  800000 950000 0  850000 950000 0  900000 950000 0  950000 950000 0  1000000 950000 0  0 1000000 0  50000 1000000 0  100000 1000000 0  150000 1000000 0  200000 1000000 0  250000 1000000 0  300000 1000000 0  350000 1000000 0  400000 1000000 0  450000 1000000 0  500000 1000000 0  550000 1000000 0  600000 1000000 0  650000 1000000 0  700000 1000000 0  750000 1000000 0  800000 1000000 0  850000 1000000 0  900000 1000000 0  950000 1000000 0  1000000 1000000 0  0 1050000 0  50000 1050000 0  100000 1050000 0  150000 1050000 0  200000 1050000 0  250000 1050000 0  300000 1050000 0  350000 1050000 0  400000 1050000 0  450000 1050000 0  500000 1050000 0  550000 1050000 0  600000 1050000 0  650000 1050000 0  700000 1050000 0  750000 1050000 0  800000 1050000 0  850000 1050000 0  900000 1050000 0  950000 1050000 0  1000000 1050000 0  0 1100000 0  50000 1100000 0  100000 1100000 0  150000 1100000 0  200000 1100000 0  250000 1100000 0  300000 1100000 0  350000 1100000 0  400000 1100000 0  450000 1100000 0  500000 1100000 0  550000 1100000 0  600000 1100000 0  650000 1100000 0  700000 1100000 0  750000 1100000 0  800000 1100000 0  850000 1100000 0  900000 1100000 0  950000 1100000 0  1000000 1100000 0  0 1150000 0  50000 1150000 0  100000 1150000 0  150000 1150000 0  200000 1150000 0  250000 1150000 0  300000 1150000 0  350000 1150000 0  400000 1150000 0  450000 1150000 0  500000 1150000 0  550000 1150000 0  600000 1150000 0  650000 1150000 0  700000 1150000 0  750000 1150000 0  800000 1150000 0  850000 1150000 0  900000 1150000 0  950000 1150000 0  1000000 1150000 0  0 1200000 0  50000 1200000 0  100000 1200000 0  150000 1200000 0  200000 1200000 0  250000 1200000 0  300000 1200000 0  350000 1200000 0  400000 1200000 0  450000 1200000 0  500000 1200000 0  550000 1200000 0  600000 1200000 0  650000 1200000 0  700000 1200000 0  750000 1200000 0  800000 1200000 0  850000 1200000 0  900000 1200000 0  950000 1200000 0  1000000 1200000 0  0 1250000 0  50000 1250000 0  100000 1250000 0  150000 1250000 0  200000 1250000 0  250000 1250000 0  300000 1250000 0  350000 1250000 0  400000 1250000 0  450000 1250000 0  500000 1250000 0  550000 1250000 0  600000 1250000 0  650000 1250000 0  700000 1250000 0  750000 1250000 0  800000 1250000 0  850000 1250000 0  900000 1250000 0  950000 1250000 0  1000000 1250000 0  0 1300000 0  50000 1300000 0  100000 1300000 0  150000 1300000 0  200000 1300000 0  250000 1300000 0  300000 1300000 0  350000 1300000 0  400000 1300000 0  450000 1300000 0  500000 1300000 0  550000 1300000 0  600000 1300000 0  650000 1300000 0  700000 1300000 0  750000 1300000 0  800000 1300000 0  850000 1300000 0  900000 1300000 0  950000 1300000 0  1000000 1300000 0  0 1350000 0  50000 1350000 0  100000 1350000 0  150000 1350000 0  200000 1350000 0  250000 1350000 0  300000 1350000 0  350000 1350000 0  400000 1350000 0  450000 1350000 0  500000 1350000 0  550000 1350000 0  600000 1350000 0  650000 1350000 0  700000 135
[...]
<PointData  Scalars="f_25027"> 
<DataArray  type="Float64"  Name="f_25027"  format="ascii">-5.7601615236968615e-04  9.3380752907571701e-05  1.0480320657661086e-04  1.5901727740994206e-04  1.9493682425565732e-04  2.2201967778287312e-04  2.4529987875582677e-04  2.6591794835158466e-04  2.8490241271632478e-04  3.0292879116047838e-04  3.2050771094398466e-04  3.3808668361503277e-04  3.5611308741556673e-04  3.7509406317476340e-04  3.9572452465796960e-04  4.1903320833133311e-04  4.4548197739785738e-04  4.8515445537792396e-04  5.3394900448994968e-04  4.6638932473514735e-04  2.4584204365039838e-03  3.9312475775843519e-05  7.8257510211997833e-05  1.0160285734356381e-04  1.6426033555472957e-04  1.9543737621957721e-04  2.2259648615076326e-04  2.4565832856292372e-04  2.6613256267300805e-04  2.8503568538228375e-04  3.0299994862633675e-04  3.2052697463469528e-04  3.3805619415624576e-04  3.5602683624903319e-04  3.7494387918493463e-04  3.9546274373441560e-04  4.1846620429198317e-04  4.4584605287000071e-04  4.8010045461481591e-04  5.1767375681720121e-04  6.5866504759938506e-04  5.1463731185854222e-04  1.0806436888662920e-04  1.0526907829117511e-04  1.4554362198349066e-04  1.7783386615640353e-04  2.0264301691447009e-04  2.2728945216145627e-04  2.4852197982315564e-04  2.6794962155467694e-04  2.8612490673297734e-04  3.0352634513579731e-04  3.2056497352449910e-04  3.3761058419281767e-04  3.5503533567954641e-04  3.7325400515544297e-04  3.9276923679122905e-04  4.1426496794679489e-04  4.3861495266089720e-04  4.6640642307824154e-04  5.0327151542558276e-04  5.2162498538460480e-04  5.2968263449838261e-04  1.5458524473791141e-04  1.5867343944583797e-04  1.7492533553675638e-04  1.9286572799076952e-04  2.1420275440141626e-04  2.3447795030287144e-04  2.5319621107282975e-04  2.7098874218939951e-04  2.8795632594590413e-04  3.0439897844953889e-04  3.2058814368262067e-04  3.3678636956442100e-04  3.5325924069122604e-04  3.7028522913950699e-04  3.8816192181867991e-04  4.0718151459700179e-04  4.2750721643562272e-04  4.4915109870981686e-04  4.6904568130221887e-04  4.8380376961502545e-04  4.8961577411420025e-04  1.8730165737668647e-04  1.8829019654336665e-04  1.9696390849056972e-04  2.1071791183357256e-04  2.2667745625141471e-04  2.4282199728190276e-04  2.5899401316560410e-04  2.7484198088930625e-04  2.9031703565927242e-04  3.0553011042076415e-04  3.2060734224561096e-04  3.3569407209614008e-04  3.5093744503338732e-04  3.6647326954636366e-04  3.8240006635291592e-04  3.9871758707017046e-04  4.1520526017844707e-04  4.3103115223229802e-04  4.4457284500621692e-04  4.5317756228447574e-04  4.5306738527014888e-04  2.1008316586329059e-04  2.1076331302567069e-04  2.1672216352926842e-04  2.2636513956691962e-04  2.3825803831496801e-04  2.5142769399695190e-04  2.6517168446887169e-04  2.7905717848152219e-04  2.9294847495802843e-04  3.0679777122677091e-04  3.2061594901967990e-04  3.3444250570155741e-04  3.4831707635965325e-04  3.6225483334282238e-04  3.7621018366414615e-04  3.9001666561139220e-04  4.0328116358974843e-04  4.1526166234628892e-04  4.2477637485071094e-04  4.3029458565894648e-04  4.3095560317657825e-04  2.2765779852610695e-04  2.2814228991621435e-04  2.3233491840056231e-04  2.3947203403659241e-04  2.4881305788883274e-04  2.5958371195477288e-04  2.7119720261214336e-04  2.8328878787688502e-04  2.9563421453541777e-04  3.0810023465229700e-04  3.2061666527540158e-04  3.3313944635426847e-04  3.4562422514027908e-04  3.5799959828360138e-04  3.7013369905713350e-04  3.8178966443408674e-04  3.9257245520654205e-04  4.0188612887754623e-04  4.0894643060734827e-04  4.1295595237139817e-04  4.1335222014234844e-04  2.4142649820622098e-04  2.4177332119236310e-04  2.4494335032270478e-04  2.5050303775436719e-04  2.5799293060357154e-04  2.6689128502517523e-04  2.7676786483942883e-04  2.8728799709107800e-04  2.9820751684670236e-04  3.0935638754664137e-04  3.2061116177628036e-04  3.3187006360553865e-04  3.4303096841497286e-04  3.5396830595811759e-04  3.6450793930988191e-04  3.7440035894161454e-04  3.8329765238330363e-04  3.9074930112227704e-04  3.9623987230311597e-04  3.9928878145787392e-04  3.9957757376669466e-04  2.5234570894354770e-04  2.5261483923104790e-04  2.5512517064986445e-04  2.5960267529661149e-04  2.6575965138802914e-04  2.7324052384346622e-04  2.8171553003686676e-04  2.9089855594679272e-04  3.0055844811710178e-04  3.1051036913288404e-04  3.2060138122554186e-04  3.3069471970240285e-04  3.4065309845214109e-04  3.5032180067016099e-04  3.5951217534955794e-04  3.6798746912687468e-04  3.7545579130862807e-04  3.8157920555886106e-04  3.8600512992918701e-04  3.8843133024645400e-04  3.8866415050595204e-04  2.6102531364371816e-04  2.6124240257224487e-04  2.6330254220194971e-04  2.6702123621336033e-04  2.7220737656410119e-04  2.7860629077660812e-04  2.8596335552946901e-04  2.9403948440346315e-04  3.0262285651139149e-04  3.1152790060849471e-04  3.2058909401025588e-04  3.2965135627254118e-04  3.3855909624465444e-04  3.4714527838096627e-04  3.5522175618350342e-04  3.6257298648612393e-04  3.6895632433685494e-04  3.7411347719030428e-04  3.7779340428885854e-04  3.7979484378668671e-04  3.7998609820028565e-04  2.6786955708628661e-04  2.6805064061598673e-04  2.6979509275077584e-04  2.7297027466198113e-04  2.7744101880697542e-04  2.8301696227721584e-04  2.8949656899320231e-04  2.9667781281296463e-04  3.0436894531889284e-04  3.1239094144473983e-04  3.2057558172757353e-04  3.2876050263325884e-04  3.3678296265154739e-04  3.4447362554982871e-04  3.5165172743704227e-04  3.5812332641552104e-04  3.6368449167055949e-04  3.6813175674146501e-04  3.7127781059319081e-04  3.7298027858844265e-04  3.7314299345044265e-04  2.7316070903816552e-04  2.7331650496007187e-04  2.7483678884511405e-04  2.7762057788665364e-04  2.8156625978106598e-04  2.8652452413230914e-04  2.9233000652416780e-04  2.9880848353964763e-04  3.0578596556930771e-04  3.1309229142848551e-04  3.2056167151921005e-04  3.2803091716216337e-04  3.3533658567007780e-04  3.4231215165625228e-04  3.4878635145294473e-04  3.5458390952509207e-04  3.5952964141957797e-04  3.6345719078367187e-04  3.6621953258472045e-04  3.6770989071408460e-04  3.6785267911147197e-04  2.7709787915739691e-04  2.7723591863997114e-04  2.7859887658371297e-04  2.8110576756286594e-04  2.8467518565680375e-04  2.8918386280738271e-04  2.9449054066023518e-04  3.0044086414181666e-04  3.0687489535695156e-04  3.1363101298044585e-04  3.2054781110693907e-04  3.2746432326032706e-04  3.3421942320933262e-04  3.4065125263106063e-04  3.4659753656969750e-04  3.5189761079618121e-04  3.5639664737459461e-04  3.5995287951160886e-04  3.6244465869304224e-04  3.6378699348382158e-04  3.6391609706639717e-04  2.7981979109896536e-04  2.7994579554292340e-04  2.8120371783840953e-04  2.8352531047629780e-04  2.8684094837879169e-04  2.9104334999895381e-04  2.9600652425949863e-04  3.0158932223489583e-04  3.0764179951204537e-04  3.1400912503933291e-04  3.2053418196903373e-04  3.2705896925495415e-04  3.3342539483584483e-04  3.3947608765634709e-04  3.4505585955863329e-04  3.5001438411993313e-04  3.5421029442722662e-04  3.5751734611190624e-04  3.5982929087878605e-04  3.6107423285583609e-04  3.6119462590462702e-04  2.8141815788658718e-04  2.8153679486239740e-04  2.8273346275558468e-04  2.8494775363438523e-04  2.8811604339617683e-04  2.9213978932374673e-04  2.9690142841104028e-04  3.0226733612509211e-04  3.0809349581499345e-04  3.1422936131457664e-04  3.2052079076806244e-04  3.2681206355709183e-04  3.3294741829296330e-04  3.3877260009449736e-04  3.4413690668353547e-04  3.4889615855548982e-04  3.5291664793688106e-04  3.5608070685126897e-04  3.5829029497741634e-04  3.5948068573050273e-04  3.5959661292276609e-04  2.8194536440464879e-04  2.8206072212607800e-04  2.8323539336498935e-04  2.8541313180320283e-04  2.8853182367542753e-04  2.9249585631400829e-04  2.9719033223081655e-04  3.0248404887126256e-04  3.0823490750693327e-04  3.1429377822722999e-04  3.2050754181589541e-04  3.2672130540457888e-04  3.3278017612492977e-04  3.3853103476068504e-04  3.4382475140123746e-04  3.4851922731816493e-04  3.5248325995686382e-04  3.5560195182919352e-04  3.5777969026748669e-04  3.5895436150644303e-04  3.5906971922787929e-04  2.8141847070975191e-04  2.8153439790200806e-04  2.8272478865504897e-04  2.8493437678111481e-04  2.8809843569539603e-04  2.9211892507666670e-04  2.9687817694850049e-04  3.0224248353743062e-04  3.0806766533887907e-04  3.1420302007469705e-04  3.2049429286370952e-04  3.2678572231721636e-04  3.3292158781685755e-04  3.3874774750684817e-04  3.4411365522101319e-04  3.4887529430843218e-04  3.5289904023612796e-04  3.5606732999803097e-04  3.5828162087691678e-04  3.5947828877015215e-04  3.5959692574597028e-04  2.7982045772789851e-04  2.7994085077668278e-04  2.8118579275368229e-04  2.8349773752047260e-04  2.8680478920503426e-04  2.9100069951219564e-04  2.9595922407336386e-04  3.0153899597553242e-04  3.0758968879594317e-04  3.1395611437677709e-04  3.2048090166268033e-04  3.2700595859240603e-04  3.3337328411975890e-04  3.3942576139700905e-04  3.4500855937253359e-04  3.4997173363322061e-04  3.5417413525352541e-04  3.5748977315614659e-04  3.5981136579413308e-04  3.6106928808967499e-04  3.6119529253364154e-04  2.7709898656615937e-04  2.7722809014872607e-04  2.7857042493944600e-04  2.8106220412077264e-04  2.8461843625764805e-04  2.8911747283590609e-04  2.9441754706223709e-04  3.0036383100073838e-04  3.0679566042236215e-04  3.1355076037130331e-04  3.2046727252467314e-04  3.2738407065119627e-04  3.3414018827476706e-04  3.4057421949001943e-04  3.4652454297175140e-04  3.5183122082477284e-04  3.5633989797552353e-04  3.5990931606961677e-04  3.6241620704888911e-04  3.6377916499269990e-04  3.6391720447528502e-04  2.7316240452114057e-04  2.7330519291851742e-04  2.7479555104780666e-04  2.7755789284872117e-04  2.8148544221264139e-04  2.8643117410693576e-04  2.9222873217889695e-04  2.9870293197542622e-04  3.0567849796147624e-04  3.1298416646931493e-04  3.2045341211224705e-04  3.2792279220300743e-04  3.3522911806227641e-04  3.4220660009207831e-04  3.4868507710774114e-04  3.5449055949980879e-04  3.5944882385126814e-04  3.6339450574587780e-04  3.6617829478757189e-04  3.6769857867270374e-04  3.6785437459462385e-04  2.6787209018226183e-04  2.6803480504424823e-04  2.6973727303940080e-04  2.7288332689094939e-04  2.7733059196162864e-04  2.8289175721642163e-04  2.8936335619466556e-04  2.9654145808167740e-04  3.0423212097980710e-04  3.1225458099800376e-04  3.2043950190366327e-04  3.2862414218653914e-04  3.3664613831249564e-04  3.4433727081859694e-04  3.5151851463858624e-04  3.5799812135483780e-04  3.6357406482535719e-04  3.6804480897061238e-04  3.7121999088202563e-04  3.7296444301693665e-04  3.7314552654665563e-04  2.6102898543255913e-04  2.6122023984614018e-04  2.6322167934383071e-04  2.6690160644214211e-04  2.7205875929528592e-04  2.7844209714569416e-04  2.8579332744801353e-04  2.9386980525029856e-04  3.0245598738642466e-04  3.1136372735842668e-04  3.2042598962067951e-04  3.2948718302248958e-04  3.3839222711972295e-04  3.4697559922786098e-04  3.5505172810213750e-04  3.6240879285533758e-04  3.6880770706821297e-04  3.7399384741930951e-04  3.7771254143100988e-04  3.7977268106088760e-04  3.7998976998944087e-04  2.5235093312710318e-04  2.5258375338657585e-04  2.5500995370364503e-04  2.5943587807362496e-04  2.6555929232343489e-04  2.7302761450475748e-04  2.8150290828168683e-04  2.9069328296077120e-04  3.0036198517856630e-04  3.1032036392817161e-04  3.2041370240499297e-04  3.3050471449770505e-04  3.4045663551363780e-04  3.5011652768419542e-04  3.5929955359446865e-04  3.6777455978830362e-04  3.7525543224423212e-04  3.8141240833614482e-04  3.8588991298331047e-04  3.8840024440238343e-04  3.8866937468992228e-04  2.4143750986666825e-04  2.4172630217545853e-04  2.4477521132991860e-04  2.5026578251024611e-04  2.5771743124862131e-04  2.6661472468973198e-04  2.7650714432097255e-04  2.8704677767235864e-04  2.9798411521524175e-04  3.0914502002452493e-04  3.2040392185373644e-04  3.3165869608343159e-04  3.4280756678353497e-04  3.5372708653944290e-04  3.6424721879150553e-04  3.7412379860630172e-04  3.8302215302856156e-04  3.9051204587847450e-04  3.9607173331076564e-04  3.9924176244150126e-04  3.9958858542770104e-04  2.2766286349148323e-04  2.2805913126239461e-04  2.3206865302595960e-04  2.3912895475498088e-04  2.4844262842512371e-04  2.5922541919680967e-04  2.7088138457315891e-04  2.8301548534625875e-04  2.9539085848929840e-04  3.0787563727515050e-04  3.2039841835396617e-04  3.3291484897712213e-04  3.4538086909416480e-04  3.5772629575299512e-04  3.6981788101819469e-04  3.8143137167622967e-04  3.9220202574305810e-04  4.0154304959630187e-04  4.0868016523327885e-04  4.1287279371828234e-04  4.1335728510850760e-04  2.1005948045809626e-04  2.1072049797547958e-04  2.1623870878295949e-04  2.2575342128611979e-04  2.3773392004140771e-04  2.5099841801878007e-04  2.6480489996533803e-04  2.7876025028622086e-04  2.9269800726912392e-04  3.0657257792707709e-04  3.2039913460890586e-04  3.3421731240185090e-04  3.4806660867072825e-04  3.6195790514749785e-04  3.7584339916061011e-04  3.8958738963329605e-04  4.0275704531628697e-04  4.1464994406566875e-04  4.2429292010501892e-04  4.3025177060991018e-04  4.3093191777240615e-04  1.8794769836468698e-04  1.8783752135114135e-04  1.9644223862787675e-04  2.0998393139956624e-04  2.2580982345170661e-04  2.4229749655882703e-04  2.5861501727543034e-04  2.7454181408163132e-04  2.9007763859442682e-04  3.0532101153158542e-04  3.2040774138207898e-04  3.3548497320693202e-04  3.5069804796848556e-04  3.6617310273860914e-04  3.8202107046268524e-04  3.9819308634700396e-04  4.1433762737862803e-04  4.3029717179911481e-04  4.4405117514483662e-04  4.5272488709357020e-04  4.5371342626036361e-04  1.5139930952543133e-04  1.5721131402313926e-04  1.7196940233119007e-04  1.9186398492062898e-04  2.1350786719246268e-04  2.3383356903017012e-04  2.5285316180813361e-04  2.7072985448721638e-04  2.8775584293549809e-04  3.0422871406231598e-04  3.2042693994410688e-04  3.3661610517714778e-04  3.5305875768071906e-04  3.7002634143717625e-04  3.8781887255380883e-04  4.0653713332395642e-04  4.2681232922695179e-04  4.4814935563913008e-04  4.6608974809348851e-04  4.8234164419247948e-04  4.8642983890495118e-04  1.1133244914689464e-04  1.1939009824979007e-04  1.3774356820715045e-04  1.7460866054697742e-04  2.0240013096370929e-04  2.2675011567777439e-04  2.4824584683372095e-04  2.6776107846988227e-04  2.8597974794605585e-04  3.0340449943294119e-04  3.2045011010128991e-04  3.3748873848989309e-04  3.5489017689248619e-04  3.7306546207043368e-04  3.9249310380149328e-04  4.1372563146279014e-04  4.3837206671007390e-04  4.6318121746690154e-04  4.9547146165419408e-04  5.3574600536893807e-04  5.3295071475731846e-04  1.2637777182375641e-04  -1.7649963975753113e-05  1.2334132679170691e-04  1.6091462900281035e-04  1.9516903074922855e-04  2.2254887932957127e-04  2.4555233988861618e-04  2.6607120443905612e-04  2.8498824737555392e-04  3.0295888946865231e-04  3.2048810899027130e-04  3.3801513499846601e-04  3.5597939824210160e-04  3.7488252095064487e-04  3.9535675505960249e-04  4.1841859747006240e-04  4.4557770739800428e-04  4.7675474806074954e-04  5.3941222626991369e-04  5.6275757335996583e-04  6.0170260785655271e-04  -1.8174053521431669e-03  1.7462575869399069e-04  1.0706607912434298e-04  1.5586062823915033e-04  1.9553310621902304e-04  2.2198187528950811e-04  2.4529055896458773e-04  2.6592102044890653e-04  2.8490199620878604e-04  3.0292840000966975e-04  3.2050737268079875e-04  3.3808629246412630e-04  3.5611267090781976e-04  3.7509713527174602e-04  3.9571520486622207e-04  4.1899540583700882e-04  4.4607825936077324e-04  4.8199780620386350e-04  5.3621187701992053e-04  5.4763433063779131e-04  1.2170312363643696e-03  </DataArray> 
</PointData> 
</Piece>
</UnstructuredGrid>
</VTKFile>