<?xml version="1.0"?>
<VTKFile type="UnstructuredGrid"  version="0.1"  >
<UnstructuredGrid>
<Piece  NumberOfPoints="651" NumberOfCells="1200">
<Points>
<DataArray  type="Float64"  NumberOfComponents="3"  format="ascii">0 0 0  50000 0 0  100000 0 0  150000 0 0  200000 0 0  250000 0 0  300000 0 0  350000 0 0  400000 0 0  450000 0 0  500000 0 0  550000 0 0  600000 0 0  650000 0 0  700000 0 0  750000 0 0  800000 0 0  850000 0 0  900000 0 0  950000 0 0  1000000 0 0  0 50000 0  50000 50000 0  100000 50000 0  150000 50000 0  200000 50000 0  250000 50000 0  300000 50000 0  350000 50000 0  400000 50000 0  450000 50000 0  500000 50000 0  550000 50000 0  600000 50000 0  650000 50000 0  700000 50000 0  750000 50000 0  800000 50000 0  850000 50000 0  900000 50000 0  950000 50000 0  1000000 50000 0  0 100000 0  50000 100000 0  100000 100000 0  150000 100000 0  200000 100000 0  250000 100000 0  300000 100000 0  350000 100000 0  400000 100000 0  450000 100000 0  500000 100000 0  550000 100000 0  600000 100000 0  650000 100000 0  700000 100000 0  750000 100000 0  800000 100000 0  850000 100000 0  900000 100000 0  950000 100000 0  1000000 100000 0  0 150000 0  50000 150000 0  100000 150000 0  150000 150000 0  200000 150000 0  250000 150000 0  300000 150000 0  350000 150000 0  400000 150000 0  450000 150000 0  500000 150000 0  550000 150000 0  600000 150000 0  650000 150000 0  700000 150000 0  750000 150000 0  800000 150000 0  850000 150000 0  900000 150000 0  950000 150000 0  1000000 150000 0  0 200000 0  50000 200000 0  100000 200000 0  150000 200000 0  200000 200000 0  250000 200000 0  300000 200000 0  350000 200000 0  400000 200000 0  450000 200000 0  500000 200000 0  550000 200000 0  600000 200000 0  650000 200000 0  700000 200000 0  750000 200000 0  800000 200000 0  850000 200000 0  900000 200000 0  950000 200000 0  1000000 200000 0  0 250000 0  50000 250000 0  100000 250000 0  150000 250000 0  200000 250000 0  250000 250000 0  300000 250000 0  350000 250000 0  400000 250000 0  450000 250000 0  500000 250000 0  550000 250000 0  600000 250000 0  650000 250000 0  700000 250000 0  750000 250000 0  800000 250000 0  850000 250000 0  900000 250000 0  950000 250000 0  1000000 250000 0  0 300000 0  50000 300000 0  100000 300000 0  150000 300000 0  200000 300000 0  250000 300000 0  300000 300000 0  350000 300000 0  400000 300000 0  450000 300000 0  500000 300000 0  550000 300000 0  600000 300000 0  650000 300000 0  700000 300000 0  750000 300000 0  800000 300000 0  850000 300000 0  900000 300000 0  950000 300000 0  1000000 300000 0  0 350000 0  50000 350000 0  100000 350000 0  150000 350000 0  200000 350000 0  250000 350000 0  300000 350000 0  350000 350000 0  400000 350000 0  450000 350000 0  500000 350000 0  550000 350000 0  600000 350000 0  650000 350000 0  700000 350000 0  750000 350000 0  800000 350000 0  850000 350000 0  900000 350000 0  950000 350000 0  1000000 350000 0  0 400000 0  50000 400000 0  100000 400000 0  150000 400000 0  200000 400000 0  250000 400000 0  300000 400000 0  350000 400000 0  400000 400000 0  450000 400000 0  500000 400000 0  550000 400000 0  600000 400000 0  650000 400000 0  700000 400000 0  750000 400000 0  800000 400000 0  850000 400000 0  900000 400000 0  950000 400000 0  1000000 400000 0  0 450000 0  50000 450000 0  100000 450000 0  150000 450000 0  200000 450000 0  250000 450000 0  300000 450000 0  350000 450000 0  400000 450000 0  450000 450000 0  500000 450000 0  550000 450000 0  600000 450000 0  650000 450000 0  700000 450000 0  750000 450000 0  800000 450000 0  850000 450000 0  900000 450000 0  950000 450000 0  1000000 450000 0  0 500000 0  50000 500000 0  100000 500000 0  150000 500000 0  200000 500000 0  250000 500000 0  300000 500000 0  350000 500000 0  400000 500000 0  450000 500000 0  500000 500000 0  550000 500000 0  600000 500000 0  650000 500000 0  700000 500000 0  750000 500000 0  800000 500000 0  850000 500000 0  900000 500000 0  950000 500000 0  1000000 500000 0  0 550000 0  50000 550000 0  100000 550000 0  150000 550000 0  200000 550000 0  250000 550000 0  300000 550000 0  350000 550000 0  400000 550000 0  450000 550000 0  500000 550000 0  550000 550000 0  600000 550000 0  650000 550000 0  700000 550000 0  750000 550000 0  800000 550000 0  850000 550000 0  900000 550000 0  950000 550000 0  1000000 550000 0  0 600000 0  50000 600000 0  100000 600000 0  150000 600000 0  200000 600000 0  250000 600000 0  300000 600000 0  350000 600000 0  400000 600000 0  450000 600000 0  500000 600000 0  550000 600000 0  600000 600000 0  650000 600000 0  700000 600000 0  750000 600000 0  800000 600000 0  850000 600000 0  900000 600000 0  950000 600000 0  1000000 600000 0  0 650000 0  50000 650000 0  100000 650000 0  150000 650000 0  200000 650000 0  250000 650000 0  300000 650000 0  350000 650000 0  400000 650000 0  450000 650000 0  500000 650000 0  550000 650000 0  600000 650000 0  650000 650000 0  700000 650000 0  750000 650000 0  800000 650000 0  850000 650000 0  900000 650000 0  950000 650000 0  1000000 650000 0  0 700000 0  50000 700000 0  100000 700000 0  150000 700000 0  200000 700000 0  250000 700000 0  300000 700000 0  350000 700000 0  400000 700000 0  450000 700000 0  500000 700000 0  550000 700000 0  600000 700000 0  650000 700000 0  700000 700000 0  750000 700000 0  800000 700000 0  850000 700000 0  900000 700000 0  950000 700000 0  1000000 700000 0  0 750000 0  50000 750000 0  100000 750000 0  150000 750000 0  200000 750000 0  250000 750000 0  300000 750000 0  350000 750000 0  400000 750000 0  450000 750000 0  500000 750000 0  550000 750000 0  600000 750000 0  650000 750000 0  700000 750000 0  750000 750000 0  800000 750000 0  850000 750000 0  900000 750000 0  950000 750000 0  1000000 750000 0  0 800000 0  50000 800000 0  100000 800000 0  150000 800000 0  200000 800000 0  250000 800000 0  300000 800000 0  350000 800000 0  400000 800000 0  450000 800000 0  500000 800000 0  550000 800000 0  600000 800000 0  650000 800000 0  700000 800000 0  750000 800000 0  800000 800000 0  850000 800000 0  900000 800000 0  950000 800000 0  1000000 800000 0  0 850000 0  50000 850000 0  100000 850000 0  150000 850000 0  200000 850000 0  250000 850000 0  300000 850000 0  350000 850000 0  400000 850000 0  450000 850000 0  500000 850000 0  550000 850000 0  600000 850000 0  650000 850000 0  700000 850000 0  750000 850000 0  800000 850000 0  850000 850000 0  900000 850000 0  950000 850000 0  1000000 850000 0  0 900000 0  50000 900000 0  100000 900000 0  150000 900000 0  200000 900000 0  250000 900000 0  300000 900000 0  350000 900000 0  400000 900000 0  450000 900000 0  500000 900000 0  550000 900000 0  600000 900000 0  650000 900000 0  700000 900000 0  750000 900000 0  800000 900000 0  850000 900000 0  900000 900000 0  950000 900000 0  1000000 900000 0  0 950000 0  50000 950000 0  100000 950000 0  150000 950000 0  200000 950000 0  250000 950000 0  300000 950000 0  350000 950000 0  400000 950000 0  450000 950000 0  500000 950000 0  550000 950000 0  600000 950000 0  650000 950000 0  700000 950000 0  750000 950000 0  800000 950000 0  850000 950000 0  900000 950000 0  950000 950000 0  1000000 950000 0  0 1000000 0  50000 1000000 0  100000 1000000 0  150000 1000000 0  200000 1000000 0  250000 1000000 0  300000 1000000 0  350000 1000000 0  400000 1000000 0  450000 1000000 0  500000 1000000 0  550000 1000000 0  600000 1000000 0  650000 1000000 0  700000 1000000 0  750000 1000000 0  800000 1000000 0  850000 1000000 0  900000 1000000 0  950000 1000000 0  1000000 1000000 0  0 1050000 0  50000 1050000 0  100000 1050000 0  150000 1050000 0  200000 1050000 0  250000 1050000 0  300000 1050000 0  350000 1050000 0  400000 1050000 0  450000 1050000 0  500000 1050000 0  550000 1050000 0  600000 1050000 0  650000 1050000 0  700000 1050000 0  750000 1050000 0  800000 1050000 0  850000 1050000 0  900000 1050000 0  950000 1050000 0  1000000 1050000 0  0 1100000 0  50000 1100000 0  100000 1100000 0  150000 1100000 0  200000 1100000 0  250000 1100000 0  300000 1100000 0  350000 1100000 0  400000 1100000 0  450000 1100000 0  500000 1100000 0  550000 1100000 0  600000 1100000 0  650000 1100000 0  700000 1100000 0  750000 1100000 0  800000 1100000 0  850000 1100000 0  900000 1100000 0  950000 1100000 0  1000000 1100000 0  0 1150000 0  50000 1150000 0  100000 1150000 0  150000 1150000 0  200000 1150000 0  250000 1150000 0  300000 1150000 0  350000 1150000 0  400000 1150000 0  450000 1150000 0  500000 1150000 0  550000 1150000 0  600000 1150000 0  650000 1150000 0  700000 1150000 0  750000 1150000 0  800000 1150000 0  850000 1150000 0  900000 1150000 0  950000 1150000 0  1000000 1150000 0  0 1200000 0  50000 1200000 0  100000 1200000 0  150000 1200000 0  200000 1200000 0  250000 1200000 0  300000 1200000 0  350000 1200000 0  400000 1200000 0  450000 1200000 0  500000 1200000 0  550000 1200000 0  600000 1200000 0  650000 1200000 0  700000 1200000 0  750000 1200000 0  800000 1200000 0  850000 1200000 0  900000 1200000 0  950000 1200000 0  1000000 1200000 0  0 1250000 0  50000 1250000 0  100000 1250000 0  150000 1250000 0  200000 1250000 0  250000 1250000 0  300000 1250000 0  350000 1250000 0  400000 1250000 0  450000 1250000 0  500000 1250000 0  550000 1250000 0  600000 1250000 0  650000 1250000 0  700000 1250000 0  750000 1250000 0  800000 1250000 0  850000 1250000 0  900000 1250000 0  950000 1250000 0  1000000 1250000 0  0 1300000 0  50000 1300000 0  100000 1300000 0  150000 1300000 0  200000 1300000 0  250000 1300000 0  300000 1300000 0  350000 1300000 0  400000 1300000 0  450000 1300000 0  500000 1300000 0  550000 1300000 0  600000 1300000 0  650000 1300000 0  700000 1300000 0  750000 1300000 0  800000 1300000 0  850000 1300000 0  900000 1300000 0  950000 1300000 0  1000000 1300000 0  0 1350000 0  50000 1350000 0  100000 1350000 0  150000 1350000 0  200000 1350000 0  250000 1350000 0  300000 1350000 0  350000 1350000 0  400000 1350000 0  450000 1350000 0  500000 1350000 0  550000 1350000 0  600000 1350000 0  650000 1350000 0  700000 135
[...]
<PointData  Scalars="f_25027"> 
<DataArray  type="Float64"  Name="f_25027"  format="ascii">1.6571112489694763e-04  4.0418327331782770e-04  4.3404764858870701e-04  4.5919302821554925e-04  4.7885948274473285e-04  4.9418792041536111e-04  5.0721592515319905e-04  5.1883997241793502e-04  5.2957491033496496e-04  5.3978290460163821e-04  5.4974469535645852e-04  5.5970544822833148e-04  5.6991019883073939e-04  5.8063934439442594e-04  5.9225206496877497e-04  6.0524882853686527e-04  6.2059135962383156e-04  6.4074614553823758e-04  6.6255607704428991e-04  6.7842884472927147e-04  1.3019701585272566e-03  3.9241878444627108e-04  4.1565416001790203e-04  4.3435310596704098e-04  4.6164066129355933e-04  4.7996116757153152e-04  4.9478697789721111e-04  5.0759657759012311e-04  5.1907847287254968e-04  5.2971375544407201e-04  5.3984549780620539e-04  5.4974141484532646e-04  5.5963732804739012e-04  5.6976919625876534e-04  5.8040475318584569e-04  5.9188605953935751e-04  6.0471017729541170e-04  6.1965951065636859e-04  6.3766696569205383e-04  6.6141221589397815e-04  7.1667123327324371e-04  6.8332198058332946e-04  4.3317408508489929e-04  4.3504586268602560e-04  4.5276965436298280e-04  4.6985340938506307e-04  4.8436978137939983e-04  4.9751533323159046e-04  5.0934035337950215e-04  5.2019004525868614e-04  5.3038176454100442e-04  5.4016798391203727e-04  5.4976176729408901e-04  5.5935833077284350e-04  5.6915387617459466e-04  5.7936511443740419e-04  5.9025239355731216e-04  6.0214525612515559e-04  6.1545753023267886e-04  6.3078379470274393e-04  6.4904336026319403e-04  6.6299371641772133e-04  6.6558491689188391e-04  4.5704745676350287e-04  4.5937263168756748e-04  4.6838795815514552e-04  4.7911810149252424e-04  4.9053229885179922e-04  5.0158625201524921e-04  5.1203547678278804e-04  5.2194872214583071e-04  5.3145190392642552e-04  5.4068440850845085e-04  5.4978494161023943e-04  5.5888987981202556e-04  5.6813683349946271e-04  5.7766886925077752e-04  5.8763499150986799e-04  5.9817802403344526e-04  6.0939017524342081e-04  6.2114835222927490e-04  6.3238177442526068e-04  6.4036362685704481e-04  6.4357994452901677e-04  4.7442413776048811e-04  4.7570089537178509e-04  4.8094480910822928e-04  4.8850474905132927e-04  4.9722547771195475e-04  5.0626140141558885e-04  5.1526627220878449e-04  5.2411172965841654e-04  5.3278382471203336e-04  5.4132339194127622e-04  5.4979478829147868e-04  5.5827119760779801e-04  5.6682680184152155e-04  5.7552917816111376e-04  5.8442537370363278e-04  5.9351122714966541e-04  6.0266208230182151e-04  6.1148031948975927e-04  6.1907575380638837e-04  6.2417544195836371e-04  6.2526855188123570e-04  4.8708515188315205e-04  4.8787715021464710e-04  4.9141853094843721e-04  4.9690823356024179e-04  5.0362689537197260e-04  5.1100222647294086e-04  5.1867864595898461e-04  5.2645973272697670e-04  5.3425499248076604e-04  5.4203513198319364e-04  5.4980309221206336e-04  5.5757571504499754e-04  5.6537037220573069e-04  5.7319149604877727e-04  5.8101167462759455e-04  5.8874055423555202e-04  5.9617375719015636e-04  6.0292445137740194e-04  6.0838649120452859e-04  6.1180649218953392e-04  6.1252020456557452e-04  4.9681106717552252e-04  4.9737901274210787e-04  4.9995225815992075e-04  5.0409882034821386e-04  5.0940248183203364e-04  5.1546959931396570e-04  5.2200296155694163e-04  5.2880288495491977e-04  5.3574613303803635e-04  5.4276107796183057e-04  5.4980669683593673e-04  5.5685606683969187e-04  5.6388236338994458e-04  5.7084463316626121e-04  5.7767046794864377e-04  5.8423323732916378e-04  5.9032461638542895e-04  5.9563263388116470e-04  5.9974915083119877e-04  6.0223696921708249e-04  6.0277438079182866e-04  5.0447959736656524e-04  5.0491080625790681e-04  5.0688217614756328e-04  5.1014046572944358e-04  5.1443245040706115e-04  5.1948717105145795e-04  5.2507301469642304e-04  5.3101087055941324e-04  5.3717039237648212e-04  5.4345855082680271e-04  5.4980652276889904e-04  5.5615717787355155e-04  5.6245322347298098e-04  5.6862517368173892e-04  5.7457828505136908e-04  5.8017861001992031e-04  5.8524097646434211e-04  5.8952622738903430e-04  5.9275830372003803e-04  5.9467377452371696e-04  5.9508352661482797e-04  5.1058626215688067e-04  5.1092792140082488e-04  5.1250318313227831e-04  5.1515052938056317e-04  5.1870696209798111e-04  5.2298258713181849e-04  5.2779909792690792e-04  5.3300325673436607e-04  5.3846992056093149e-04  5.4409807872752745e-04  5.4980360927888957e-04  5.5551086664397105e-04  5.6114395105839301e-04  5.6661788474160609e-04  5.7182995463642757e-04  5.7665222517037571e-04  5.8092767818128529e-04  5.8447412730082079e-04  5.8709999700079290e-04  5.8863644789679270e-04  5.8896266646795564e-04  5.1545290449988960e-04  5.1573374195908054e-04  5.1703635410869442e-04  5.1925020945293857e-04  5.2226448901514222e-04  5.2594152342552258e-04  5.3014227583056926e-04  5.3473713186645729e-04  5.3961071322523922e-04  5.4466159568182797e-04  5.4979888743697427e-04  5.5493717530671698e-04  5.5999080048300953e-04  5.6486810248867656e-04  5.6946630435591647e-04  5.7366810191723122e-04  5.7734162428282366e-04  5.8034585145024463e-04  5.8254261749507322e-04  5.8381729796245401e-04  5.8408718094240598e-04  5.1929854209418135e-04  5.1953673823817634e-04  5.2064638922164671e-04  5.2254709654203017e-04  5.2515916556281669e-04  5.2837849376916870e-04  5.3209381127956694e-04  5.3619462781506072e-04  5.4057594371523232e-04  5.4513958563668610e-04  5.4979309018673235e-04  5.5444709485231059e-04  5.5901204081630683e-04  5.6339487545579027e-04  5.6749646144223047e-04  5.7121054856975348e-04  5.7442532457853987e-04  5.7702850161353309e-04  5.7891590203955042e-04  5.8000523207625879e-04  5.8023556125766384e-04  5.2227639293399265e-04  5.2248429370894576e-04  5.2345612225089999e-04  5.2513008528555798e-04  5.2744544524057941e-04  5.3031972973836177e-04  5.3366084131758671e-04  5.3737279590407880e-04  5.4135980266966266e-04  5.4552821288485784e-04  5.4978672876968210e-04  5.5404544404661954e-04  5.5821431187590349e-04  5.6220162340990499e-04  5.6591308886952375e-04  5.6925213696699137e-04  5.7212201898036632e-04  5.7443011373522557e-04  5.7609401466149790e-04  5.7705118261167912e-04  5.7725345343071562e-04  5.2449491622281151e-04  5.2468152918566592e-04  5.2555629731805727e-04  5.2706923791272318e-04  5.2917120913963936e-04  5.3179357244668686e-04  5.3485712080012405e-04  5.3827630205179088e-04  5.4196266013006118e-04  5.4582695837771726e-04  5.4978012165029589e-04  5.5373332706834674e-04  5.5759765928318648e-04  5.6128377731500824e-04  5.6470204301192241e-04  5.6776353258563043e-04  5.7038226091060760e-04  5.7247875481829832e-04  5.7398447062268962e-04  5.7484904302727922e-04  5.7503176351861643e-04  5.2602988074979418e-04  5.2620224016160981e-04  5.2701212083461151e-04  5.2841706623279376e-04  5.3037480800294202e-04  5.3282522532747652e-04  5.3569732733063570e-04  5.3891252941747211e-04  5.4238761643273577e-04  5.4603687843086447e-04  5.4977344170348622e-04  5.5350998587773090e-04  5.5715913583592822e-04  5.6063386219884601e-04  5.6384822476118724e-04  5.6671874799888713e-04  5.6916661598332681e-04  5.7112070881650315e-04  5.7252098358941204e-04  5.7332440759613550e-04  5.7349431224095013e-04  5.2693144024699046e-04  5.2709542423100676e-04  5.2786753870460578e-04  5.2920992335132313e-04  5.3108389425472952e-04  5.3343396253845241e-04  5.3619369398634443e-04  5.3928847911414231e-04  5.4263821611819118e-04  5.4615942405921965e-04  5.4976676260620532e-04  5.5337407828329557e-04  5.5689519239960402e-04  5.6024469336386155e-04  5.6333899608443090e-04  5.6609788303713235e-04  5.6844664453382823e-04  5.7031879438188828e-04  5.7165888597639832e-04  5.7242786704404379e-04  5.7259066266254603e-04  5.2722823538544456e-04  5.2738910377300198e-04  5.2814788464974460e-04  5.2946908517973845e-04  5.3131502487192232e-04  5.3363169781788433e-04  5.3635411596583563e-04  5.3940893354320141e-04  5.4271704772889946e-04  5.4619570796054248e-04  5.4976009795271944e-04  5.5332448794489781e-04  5.5680314817654604e-04  5.6011126236225233e-04  5.6316607993962809e-04  5.6588849808759131e-04  5.6820517103356493e-04  5.7005111072575942e-04  5.7137231125576140e-04  5.7213109213250879e-04  5.7229196052006740e-04  5.2692953324296376e-04  5.2709232886146481e-04  5.2786130992910530e-04  5.2920140152360687e-04  5.3107355137165630e-04  5.3342231286834026e-04  5.3618119982103043e-04  5.3927550254158959e-04  5.4262500350583888e-04  5.4614611762214267e-04  5.4975343329923183e-04  5.5336077184621989e-04  5.5688197978725389e-04  5.6023171679131121e-04  5.6332650191912037e-04  5.6608623336702475e-04  5.6843630165076054e-04  5.7031027255417810e-04  5.7165265720090445e-04  5.7242477167450867e-04  5.7258875565852649e-04  5.2602588366455880e-04  5.2619578830937256e-04  5.2699921231609060e-04  5.2839948708899049e-04  5.3035357992215512e-04  5.3280144790658179e-04  5.3567197114426932e-04  5.3888633370659960e-04  5.4236106006950926e-04  5.4601021002770192e-04  5.4974675420194530e-04  5.5348331747456987e-04  5.5713257947270518e-04  5.6060766648797903e-04  5.6382286857482834e-04  5.6669497057800194e-04  5.6914538790255108e-04  5.7110312967271224e-04  5.7250807507090511e-04  5.7331795574391299e-04  5.7349031515572992e-04  5.2448843238689575e-04  5.2467115287823144e-04  5.2553572528281454e-04  5.2704144108719456e-04  5.2913793499487162e-04  5.3175666331983350e-04  5.3481815289352754e-04  5.3823641859042913e-04  5.4192253662224178e-04  5.4578686883707621e-04  5.4974007425512641e-04  5.5369323752770862e-04  5.5755753577537272e-04  5.6124389385365451e-04  5.6466307510533707e-04  5.6772662345879127e-04  5.7034898676585645e-04  5.7245095799278911e-04  5.7396389858746760e-04  5.7483866671986686e-04  5.7502527968272311e-04  5.2226674247480231e-04  5.2246901329383697e-04  5.2342618124400961e-04  5.2509008217026796e-04  5.2739817692510976e-04  5.3026805893846606e-04  5.3360710703591666e-04  5.3731857249552034e-04  5.4130588402951122e-04  5.4547475185878921e-04  5.4973346713572599e-04  5.5399198302055470e-04  5.5816039323575953e-04  5.6214740000135770e-04  5.6585935458786855e-04  5.6920046616711452e-04  5.7207475066491955e-04  5.7439011061996158e-04  5.7606407365463604e-04  5.7703590219660079e-04  5.7724380297155618e-04  5.1928463464786460e-04  5.1951496382926694e-04  5.2060429386596360e-04  5.2249169429196163e-04  5.2509487132693219e-04  5.2830964733569473e-04  5.3202373446319627e-04  5.3612532044961826e-04  5.4050815508908912e-04  5.4507310105307821e-04  5.4972710571865558e-04  5.5438061026870725e-04  5.5894425219017263e-04  5.6332556809036191e-04  5.6742638462587856e-04  5.7114170213630380e-04  5.7436103034268454e-04  5.7697309936349827e-04  5.7887380668390418e-04  5.7998345766738907e-04  5.8022165381138753e-04  5.1543301496313895e-04  5.1570289794308701e-04  5.1697757841045078e-04  5.1917434445525280e-04  5.2217857162264254e-04  5.2585209398820377e-04  5.3005389154949087e-04  5.3465209341670866e-04  5.3952939542236073e-04  5.4458302059864514e-04  5.4972130846838688e-04  5.5485860022353936e-04  5.5990948268014166e-04  5.6478306403894474e-04  5.6937792007486084e-04  5.7357867247994168e-04  5.7725570689035944e-04  5.8026998645260060e-04  5.8248384179687641e-04  5.8378645394651112e-04  5.8406729140570693e-04  5.1055752943761498e-04  5.1088374800877206e-04  5.1242019890474617e-04  5.1504606860467903e-04  5.1859251772417084e-04  5.2286797073503911e-04  5.2769024126895234e-04  5.3290231116374747e-04  5.3837624484694298e-04  5.4400932926135551e-04  5.4971658662643591e-04  5.5542211717780519e-04  5.6105027534441676e-04  5.6651693917100646e-04  5.7172109797849844e-04  5.7653760877363080e-04  5.8081323380751795e-04  5.8436966652498793e-04  5.8701701277331865e-04  5.8859227450480341e-04  5.8893393374875489e-04  5.0443666929078331e-04  5.0484642138188499e-04  5.0676189218552218e-04  5.0999396851646617e-04  5.1427921944109591e-04  5.1934158588546307e-04  5.2494191085397126e-04  5.3089502222357105e-04  5.3706697243230948e-04  5.4336301803172937e-04  5.4971367313638080e-04  5.5606164507848439e-04  5.6234980352882179e-04  5.6850932534591755e-04  5.7444718120894689e-04  5.8003302485396479e-04  5.8508774549842751e-04  5.8937973017611858e-04  5.9263801975806838e-04  5.9460938964777429e-04  5.9504059853912725e-04  4.9674581511385037e-04  4.9728322668857725e-04  4.9977104507439060e-04  5.0388756202432948e-04  5.0919557951997492e-04  5.1528695857616972e-04  5.2184972795664040e-04  5.2867556273899130e-04  5.3563783251528950e-04  5.4266412906553310e-04  5.4971349906928705e-04  5.5675911794340004e-04  5.6377406286720988e-04  5.7071731095035313e-04  5.7751723434837355e-04  5.8405059659141182e-04  5.9011771407342900e-04  5.9542137555735350e-04  5.9956793774575590e-04  6.0214118316365215e-04  6.0270912873025616e-04  4.8699999134021202e-04  4.8771370371622079e-04  4.9113370470109689e-04  4.9659574452806329e-04  5.0334643871518094e-04  5.1077964166970180e-04  5.1850852127761015e-04  5.2632869985640097e-04  5.3414982369943368e-04  5.4194448086016076e-04  5.4971710369309461e-04  5.5748506392196910e-04  5.6526520342440852e-04  5.7306046317821943e-04  5.8084154994625045e-04  5.8851796943236022e-04  5.9589330053343159e-04  6.0261196234531148e-04  6.0810166495729387e-04  6.1164304569123252e-04  6.1243504402276030e-04  4.7425164402468739e-04  4.7534475394758963e-04  4.8044444209925609e-04  4.8803987641561050e-04  4.9685811360338492e-04  5.0600896875546361e-04  5.1509482220146480e-04  5.2399101774397287e-04  5.3269339406356226e-04  5.4124899829728569e-04  5.4972540761360599e-04  5.5819680396380954e-04  5.6673637119305544e-04  5.7540846624668158e-04  5.8425392369633770e-04  5.9325879448958701e-04  6.0229471819333170e-04  6.1101544685416447e-04  6.1857538679752620e-04  6.2381930053426714e-04  6.2509605814567752e-04  4.5594025137768413e-04  4.5915656904932926e-04  4.6713842148024537e-04  4.7837184367582376e-04  4.9013002066154341e-04  5.0134217187150574e-04  5.1188520439509634e-04  5.2185132665420525e-04  5.3138336240553491e-04  5.4063031609298117e-04  5.4973525429476958e-04  5.5883578739655392e-04  5.6806829197856906e-04  5.7757147375915108e-04  5.8748471912218562e-04  5.9793394388973898e-04  6.0898789705327873e-04  6.2040209441271358e-04  6.3113223775037891e-04  6.4014756421889630e-04  6.4247273914324970e-04  4.3393527901931588e-04  4.3652647948802200e-04  4.5047683564166665e-04  4.6873640120163472e-04  4.8406266567193050e-04  4.9737493977957943e-04  5.0926780234750483e-04  5.2015508146747167e-04  5.3036631973031893e-04  5.4016186513208982e-04  5.4975842861084822e-04  5.5935221199288846e-04  5.6913843136389432e-04  5.7933015064616847e-04  5.9017984252529153e-04  6.0200486267313210e-04  6.1515041452524894e-04  6.2966678651946173e-04  6.4675054154294121e-04  6.6447433322233749e-04  6.6634611082174160e-04  4.1619821533065305e-04  3.8284896263158206e-04  4.3810798000640185e-04  4.6185323021181800e-04  4.7986068524798951e-04  4.9481001860913251e-04  5.0763413636534336e-04  5.1911544271895428e-04  5.2975099964609144e-04  5.3988286785749463e-04  5.4977878105956274e-04  5.5967469809866592e-04  5.6980644046075648e-04  5.8044172303220465e-04  5.9192361831451369e-04  6.0473321800723616e-04  6.1955902833258302e-04  6.3787953461015708e-04  6.6516708993677323e-04  6.8386603587834379e-04  7.0710141146083331e-04  -2.0244996247805662e-04  4.2109135110968263e-04  4.3696411885709552e-04  4.5877405036655750e-04  4.7892883628008912e-04  4.9427136736748714e-04  5.0726813093584177e-04  5.1888085151031559e-04  5.2960999707407305e-04  5.3981474767651608e-04  5.4977550054839566e-04  5.5973729130319450e-04  5.6994528556981734e-04  5.8068022348675653e-04  5.9230427075134006e-04  6.0533227548891075e-04  6.2066071315912115e-04  6.4032716768782424e-04  6.6547254731127851e-04  6.9533692256563983e-04  9.3380907106304517e-04  </DataArray> 
</PointData> 
</Piece>
</UnstructuredGrid>
</VTKFile>