<?xml version="1.0"?>
<VTKFile type="UnstructuredGrid"  version="0.1"  >
<UnstructuredGrid>
<Piece  NumberOfPoints="651" NumberOfCells="1200">
<Points>
<DataArray  type="Float64"  NumberOfComponents="3"  format="ascii">0 0 0  50000 0 0  100000 0 0  150000 0 0  200000 0 0  250000 0 0  300000 0 0  350000 0 0  400000 0 0  450000 0 0  500000 0 0  550000 0 0  600000 0 0  650000 0 0  700000 0 0  750000 0 0  800000 0 0  850000 0 0  900000 0 0  950000 0 0  1000000 0 0  0 50000 0  50000 50000 0  100000 50000 0  150000 50000 0  200000 50000 0  250000 50000 0  300000 50000 0  350000 50000 0  400000 50000 0  450000 50000 0  500000 50000 0  550000 50000 0  600000 50000 0  650000 50000 0  700000 50000 0  750000 50000 0  800000 50000 0  850000 50000 0  900000 50000 0  950000 50000 0  1000000 50000 0  0 100000 0  50000 100000 0  100000 100000 0  150000 100000 0  200000 100000 0  250000 100000 0  300000 100000 0  350000 100000 0  400000 100000 0  450000 100000 0  500000 100000 0  550000 100000 0  600000 100000 0  650000 100000 0  700000 100000 0  750000 100000 0  800000 100000 0  850000 100000 0  900000 100000 0  950000 100000 0  1000000 100000 0  0 150000 0  50000 150000 0  100000 150000 0  150000 150000 0  200000 150000 0  250000 150000 0  300000 150000 0  350000 150000 0  400000 150000 0  450000 150000 0  500000 150000 0  550000 150000 0  600000 150000 0  650000 150000 0  700000 150000 0  750000 150000 0  800000 150000 0  850000 150000 0  900000 150000 0  950000 150000 0  1000000 150000 0  0 200000 0  50000 200000 0  100000 200000 0  150000 200000 0  200000 200000 0  250000 200000 0  300000 200000 0  350000 200000 0  400000 200000 0  450000 200000 0  500000 200000 0  550000 200000 0  600000 200000 0  650000 200000 0  700000 200000 0  750000 200000 0  800000 200000 0  850000 200000 0  900000 200000 0  950000 200000 0  1000000 200000 0  0 250000 0  50000 250000 0  100000 250000 0  150000 250000 0  200000 250000 0  250000 250000 0  300000 250000 0  350000 250000 0  400000 250000 0  450000 250000 0  500000 250000 0  550000 250000 0  600000 250000 0  650000 250000 0  700000 250000 0  750000 250000 0  800000 250000 0  850000 250000 0  900000 250000 0  950000 250000 0  1000000 250000 0  0 300000 0  50000 300000 0  100000 300000 0  150000 300000 0  200000 300000 0  250000 300000 0  300000 300000 0  350000 300000 0  400000 300000 0  450000 300000 0  500000 300000 0  550000 300000 0  600000 300000 0  650000 300000 0  700000 300000 0  750000 300000 0  800000 300000 0  850000 300000 0  900000 300000 0  950000 300000 0  1000000 300000 0  0 350000 0  50000 350000 0  100000 350000 0  150000 350000 0  200000 350000 0  250000 350000 0  300000 350000 0  350000 350000 0  400000 350000 0  450000 350000 0  500000 350000 0  550000 350000 0  600000 350000 0  650000 350000 0  700000 350000 0  750000 350000 0  800000 350000 0  850000 350000 0  900000 350000 0  950000 350000 0  1000000 350000 0  0 400000 0  50000 400000 0  100000 400000 0  150000 400000 0  200000 400000 0  250000 400000 0  300000 400000 0  350000 400000 0  400000 400000 0  450000 400000 0  500000 400000 0  550000 400000 0  600000 400000 0  650000 400000 0  700000 400000 0  750000 400000 0  800000 400000 0  850000 400000 0  900000 400000 0  950000 400000 0  1000000 400000 0  0 450000 0  50000 450000 0  100000 450000 0  150000 450000 0  200000 450000 0  250000 450000 0  300000 450000 0  350000 450000 0  400000 450000 0  450000 450000 0  500000 450000 0  550000 450000 0  600000 450000 0  650000 450000 0  700000 450000 0  750000 450000 0  800000 450000 0  850000 450000 0  900000 450000 0  950000 450000 0  1000000 450000 0  0 500000 0  50000 500000 0  100000 500000 0  150000 500000 0  200000 500000 0  250000 500000 0  300000 500000 0  350000 500000 0  400000 500000 0  450000 500000 0  500000 500000 0  550000 500000 0  600000 500000 0  650000 500000 0  700000 500000 0  750000 500000 0  800000 500000 0  850000 500000 0  900000 500000 0  950000 500000 0  1000000 500000 0  0 550000 0  50000 550000 0  100000 550000 0  150000 550000 0  200000 550000 0  250000 550000 0  300000 550000 0  350000 550000 0  400000 550000 0  450000 550000 0  500000 550000 0  550000 550000 0  600000 550000 0  650000 550000 0  700000 550000 0  750000 550000 0  800000 550000 0  850000 550000 0  900000 550000 0  950000 550000 0  1000000 550000 0  0 600000 0  50000 600000 0  100000 600000 0  150000 600000 0  200000 600000 0  250000 600000 0  300000 600000 0  350000 600000 0  400000 600000 0  450000 600000 0  500000 600000 0  550000 600000 0  600000 600000 0  650000 600000 0  700000 600000 0  750000 600000 0  800000 600000 0  850000 600000 0  900000 600000 0  950000 600000 0  1000000 600000 0  0 650000 0  50000 650000 0  100000 650000 0  150000 650000 0  200000 650000 0  250000 650000 0  300000 650000 0  350000 650000 0  400000 650000 0  450000 650000 0  500000 650000 0  550000 650000 0  600000 650000 0  650000 650000 0  700000 650000 0  750000 650000 0  800000 650000 0  850000 650000 0  900000 650000 0  950000 650000 0  1000000 650000 0  0 700000 0  50000 700000 0  100000 700000 0  150000 700000 0  200000 700000 0  250000 700000 0  300000 700000 0  350000 700000 0  400000 700000 0  450000 700000 0  500000 700000 0  550000 700000 0  600000 700000 0  650000 700000 0  700000 700000 0  750000 700000 0  800000 700000 0  850000 700000 0  900000 700000 0  950000 700000 0  1000000 700000 0  0 750000 0  50000 750000 0  100000 750000 0  150000 750000 0  200000 750000 0  250000 750000 0  300000 750000 0  350000 750000 0  400000 750000 0  450000 750000 0  500000 750000 0  550000 750000 0  600000 750000 0  650000 750000 0  700000 750000 0  750000 750000 0  800000 750000 0  850000 750000 0  900000 750000 0  950000 750000 0  1000000 750000 0  0 800000 0  50000 800000 0  100000 800000 0  150000 800000 0  200000 800000 0  250000 800000 0  300000 800000 0  350000 800000 0  400000 800000 0  450000 800000 0  500000 800000 0  550000 800000 0  600000 800000 0  650000 800000 0  700000 800000 0  750000 800000 0  800000 800000 0  850000 800000 0  900000 800000 0  950000 800000 0  1000000 800000 0  0 850000 0  50000 850000 0  100000 850000 0  150000 850000 0  200000 850000 0  250000 850000 0  300000 850000 0  350000 850000 0  400000 850000 0  450000 850000 0  500000 850000 0  550000 850000 0  600000 850000 0  650000 850000 0  700000 850000 0  750000 850000 0  800000 850000 0  850000 850000 0  900000 850000 0  950000 850000 0  1000000 850000 0  0 900000 0  50000 900000 0  100000 900000 0  150000 900000 0  200000 900000 0  250000 900000 0  300000 900000 0  350000 900000 0  400000 900000 0  450000 900000 0  500000 900000 0  550000 900000 0  600000 900000 0  650000 900000 0  700000 900000 0  750000 900000 0  800000 900000 0  850000 900000 0  900000 900000 0  950000 900000 0  1000000 900000 0  0 950000 0  50000 950000 0  100000 950000 0  150000 950000 0  200000 950000 0  250000 950000 0  300000 950000 0  350000 950000 0  400000 950000 0  450000 950000 0  500000 950000 0  550000 950000 0  600000 950000 0  650000 950000 0  700000 950000 0  750000 950000 0  800000 950000 0  850000 950000 0  900000 950000 0  950000 950000 0  1000000 950000 0  0 1000000 0  50000 1000000 0  100000 1000000 0  150000 1000000 0  200000 1000000 0  250000 1000000 0  300000 1000000 0  350000 1000000 0  400000 1000000 0  450000 1000000 0  500000 1000000 0  550000 1000000 0  600000 1000000 0  650000 1000000 0  700000 1000000 0  750000 1000000 0  800000 1000000 0  850000 1000000 0  900000 1000000 0  950000 1000000 0  1000000 1000000 0  0 1050000 0  50000 1050000 0  100000 1050000 0  150000 1050000 0  200000 1050000 0  250000 1050000 0  300000 1050000 0  350000 1050000 0  400000 1050000 0  450000 1050000 0  500000 1050000 0  550000 1050000 0  600000 1050000 0  650000 1050000 0  700000 1050000 0  750000 1050000 0  800000 1050000 0  850000 1050000 0  900000 1050000 0  950000 1050000 0  1000000 1050000 0  0 1100000 0  50000 1100000 0  100000 1100000 0  150000 1100000 0  200000 1100000 0  250000 1100000 0  300000 1100000 0  350000 1100000 0  400000 1100000 0  450000 1100000 0  500000 1100000 0  550000 1100000 0  600000 1100000 0  650000 1100000 0  700000 1100000 0  750000 1100000 0  800000 1100000 0  850000 1100000 0  900000 1100000 0  950000 1100000 0  1000000 1100000 0  0 1150000 0  50000 1150000 0  100000 1150000 0  150000 1150000 0  200000 1150000 0  250000 1150000 0  300000 1150000 0  350000 1150000 0  400000 1150000 0  450000 1150000 0  500000 1150000 0  550000 1150000 0  600000 1150000 0  650000 1150000 0  700000 1150000 0  750000 1150000 0  800000 1150000 0  850000 1150000 0  900000 1150000 0  950000 1150000 0  1000000 1150000 0  0 1200000 0  50000 1200000 0  100000 1200000 0  150000 1200000 0  200000 1200000 0  250000 1200000 0  300000 1200000 0  350000 1200000 0  400000 1200000 0  450000 1200000 0  500000 1200000 0  550000 1200000 0  600000 1200000 0  650000 1200000 0  700000 1200000 0  750000 1200000 0  800000 1200000 0  850000 1200000 0  900000 1200000 0  950000 1200000 0  1000000 1200000 0  0 1250000 0  50000 1250000 0  100000 1250000 0  150000 1250000 0  200000 1250000 0  250000 1250000 0  300000 1250000 0  350000 1250000 0  400000 1250000 0  450000 1250000 0  500000 1250000 0  550000 1250000 0  600000 1250000 0  650000 1250000 0  700000 1250000 0  750000 1250000 0  800000 1250000 0  850000 1250000 0  900000 1250000 0  950000 1250000 0  1000000 1250000 0  0 1300000 0  50000 1300000 0  100000 1300000 0  150000 1300000 0  200000 1300000 0  250000 1300000 0  300000 1300000 0  350000 1300000 0  400000 1300000 0  450000 1300000 0  500000 1300000 0  550000 1300000 0  600000 1300000 0  650000 1300000 0  700000 1300000 0  750000 1300000 0  800000 1300000 0  850000 1300000 0  900000 1300000 0  950000 1300000 0  1000000 1300000 0  0 1350000 0  50000 1350000 0  100000 1350000 0  150000 1350000 0  200000 1350000 0  250000 1350000 0  300000 1350000 0  350000 1350000 0  400000 1350000 0  450000 1350000 0  500000 1350000 0  550000 1350000 0  600000 1350000 0  650000 1350000 0  700000 135
[...]
<PointData  Scalars="f_25027"> 
<DataArray  type="Float64"  Name="f_25027"  format="ascii">-1.4011307561867978e-04  2.3002869702747986e-04  2.5683454297449306e-04  2.9170843744311960e-04  3.1746266403046681e-04  3.3718790023775801e-04  3.5403411960119286e-04  3.6904051202061769e-04  3.8288202115536194e-04  3.9603774742205314e-04  4.0887367282522232e-04  4.2170907372175156e-04  4.3486301063639239e-04  4.4870179006619495e-04  4.6370774398179945e-04  4.8052208718813827e-04  5.0014077344821611e-04  5.2733044560315692e-04  5.5824583628236960e-04  5.5263260377625713e-04  1.5890487246538472e-03  2.0552501105783910e-04  2.3505889411134159e-04  2.5636394175281545e-04  2.9522280981172965e-04  3.1854816974881509e-04  3.3783470405746659e-04  3.5445779235214215e-04  3.6930418578852149e-04  3.8303897508715153e-04  3.9611420445948264e-04  4.0888088948821759e-04  4.2164843018275514e-04  4.3472669021594226e-04  4.4846879274869133e-04  4.6332433907662169e-04  4.7994212372603833e-04  4.9948471459131821e-04  5.2326833632519146e-04  5.5243859888492964e-04  6.3487391159775116e-04  5.6751368584991089e-04  2.5668319255019742e-04  2.5771717772534261e-04  2.8297438582193469e-04  3.0560733895573452e-04  3.2406455312065192e-04  3.4131367789518583e-04  3.5665991710760893e-04  3.7070283752353483e-04  3.8387952364175198e-04  3.9652108020177631e-04  4.0890919706484312e-04  4.2130170339548472e-04  4.3395767905976638e-04  4.4716391258757976e-04  4.6126743717100546e-04  4.7671919713741502e-04  4.9406761335152999e-04  5.1397701087261725e-04  5.3870779844159087e-04  5.5478739748519011e-04  5.6060464184246159e-04  2.8870493110084652e-04  2.9181617664301632e-04  3.0359899082564996e-04  3.1716017528445170e-04  3.3212547149837502e-04  3.4656346550960947e-04  3.6010688958478958e-04  3.7294630153617123e-04  3.8523968940429277e-04  3.9717250975114830e-04  4.0893024473363137e-04  4.2069414513964156e-04  4.3264697320412500e-04  4.4497940907820059e-04  4.5789160157253418e-04  4.7157518878487121e-04  4.8615240119099812e-04  5.0151337220934210e-04  5.1598768073671394e-04  5.2652631227134011e-04  5.3053727986983974e-04  3.1170470542137918e-04  3.1306521578700687e-04  3.1969648055968673e-04  3.2952564994857727e-04  3.4091165692718989e-04  3.5261859604570223e-04  3.6428682109471860e-04  3.7574082657088840e-04  3.8695787496685467e-04  3.9799614117955829e-04  4.0894289568677933e-04  4.1989632644116209e-04  4.3095589647837023e-04  4.4221259766226759e-04  4.5373052618756136e-04  4.6550606132552498e-04  4.7737696066892500e-04  4.8880407654414506e-04  4.9862153116273379e-04  5.0511453706267859e-04  5.0600240513874262e-04  3.2814005909323756e-04  3.2898437994594753e-04  3.3348229706112002e-04  3.4055796166634320e-04  3.4923859129043012e-04  3.5878001713549106e-04  3.6871778050747664e-04  3.7878343126115439e-04  3.8886129605166946e-04  3.9891545824915646e-04  4.0895165506405742e-04  4.1899381783119577e-04  4.2906650038105693e-04  4.3917713883099793e-04  4.4929100728323748e-04  4.5928983038072765e-04  4.6890292367417067e-04  4.7761666476776475e-04  4.8462845762114602e-04  4.8890668186952427e-04  4.8967570197654511e-04  3.4077856817031334e-04  3.4138772617980012e-04  3.4462805481577180e-04  3.4993268519732109e-04  3.5676368203628586e-04  3.6459779088278253e-04  3.7303917043241902e-04  3.8182485834548834e-04  3.9079440916089605e-04  3.9985487508998344e-04  4.0895382030409943e-04  4.1805739366625308e-04  4.2713177948511808e-04  4.3612439827357598e-04  4.4494093345198227e-04  4.5341501592794699e-04  4.6127161736275426e-04  4.6809830184367008e-04  4.7335317543109015e-04  4.7646562982714424e-04  4.7702986179224246e-04  3.5072654483359571e-04  3.5118281916017791e-04  3.5365141744988490e-04  3.5780490512758386e-04  3.6331720480955223e-04  3.6982774926029734e-04  3.7703164753212579e-04  3.8469372493979501e-04  3.9264322720678949e-04  4.0075887853987510e-04  4.0895148080049860e-04  4.1714725463083967e-04  4.2527214532439903e-04  4.3323590314370318e-04  4.4091477349614099e-04  4.4813300480078398e-04  4.5464694906670929e-04  4.6014162564704585e-04  4.6425407462928104e-04  4.6664271702952031e-04  4.6706352442644935e-04  3.5863497602281474e-04  3.5899391552577910e-04  3.6095991506790740e-04  3.6432497076496425e-04  3.6888048116726031e-04  3.7437562838644594e-04  3.8057690497561694e-04  3.8728330865108455e-04  3.9433106489104034e-04  4.0158839899052181e-04  4.0894588705840608e-04  4.1630529601115987e-04  4.2356802537955212e-04  4.3062343373331282e-04  4.3733739083744204e-04  4.4354240195619863e-04  4.4903257971845670e-04  4.5356917725625906e-04  4.5690180720549229e-04  4.5881224991540425e-04  4.5914752352241241e-04  3.6493114823029157e-04  3.6522485350348836e-04  3.6684632160023949e-04  3.6965368987995840e-04  3.7350632644886204e-04  3.7822337872146512e-04  3.8362339730681135e-04  3.8953683580348177e-04  3.9581298001936324e-04  4.0231956768111126e-04  4.0893825949521689e-04  4.1555795182149867e-04  4.2206720480150489e-04  4.2834663651716821e-04  4.3426217913146870e-04  4.3966061735857651e-04  4.4436962449769554e-04  4.4820520774901100e-04  4.5098749865954397e-04  4.5256939066777238e-04  4.5284662419277025e-04  3.6990267226396061e-04  3.7015079838800081e-04  3.7152914288400557e-04  3.7393478816193857e-04  3.7726731836528865e-04  3.8139053814559932e-04  3.8615972598145465e-04  3.9143076550864384e-04  3.9706675911827617e-04  4.0293980225339832e-04  4.0892952554604894e-04  4.1491965243480554e-04  4.2079364649407879e-04  4.2643036410183228e-04  4.3170065371135629e-04  4.3646604247240899e-04  4.4058084862141618e-04  4.4389909444280664e-04  4.4628560059470628e-04  4.4763543453232662e-04  4.4787176368624225e-04  3.7375009349247136e-04  3.7396591846425656e-04  3.7517098056409870e-04  3.7728633386489114e-04  3.8023587255126370e-04  3.8391207411253884e-04  3.8819550816805633e-04  3.9296129154383963e-04  3.9808475377406627e-04  4.0344401969545060e-04  4.0892030400088198e-04  4.1439665467615349e-04  4.1975593849433087e-04  4.2487884434692133e-04  4.2964269083891487e-04  4.3392185576216391e-04  4.3759058899186897e-04  4.4052883325468599e-04  4.4262991822090957e-04  4.4381454741823043e-04  4.4402196812843886e-04  3.7661522848928068e-04  3.7680837379281703e-04  3.7789155863042625e-04  3.7980103563387923e-04  3.8247546802804396e-04  3.8582563138799187e-04  3.8974905384247594e-04  3.9413465175543091e-04  3.9886747595704674e-04  4.0383151553584188e-04  4.0891095624741270e-04  4.1399031177553338e-04  4.1895397934872816e-04  4.2368581275902646e-04  4.2806930913924735e-04  4.3198896667005006e-04  4.3533323310835536e-04  4.3799932774710821e-04  4.3989866148815980e-04  4.4096770254305813e-04  4.4115506051083195e-04  3.7859705752571200e-04  3.7877498122169213e-04  3.7977672322369736e-04  3.8154822614967483e-04  3.8403684119795963e-04  3.8716460531924434e-04  3.9083983372812964e-04  3.9496064637920838e-04  3.9941903250659879e-04  4.0410366249775447e-04  4.0890165453109060e-04  4.1369953129295826e-04  4.1838374785351754e-04  4.2284123190215885e-04  4.2696037797085198e-04  4.3063287615012833e-04  4.3375660693008354e-04  4.3623974033290598e-04  4.3800472935035369e-04  4.3899754315807808e-04  4.3917182643272816e-04  3.7976106519549651e-04  3.7992996143613637e-04  3.8088425896115174e-04  3.8257583687337227e-04  3.8495652159724146e-04  3.8795449380721537e-04  3.9148404445036585e-04  3.9544854368085751e-04  3.9974410255254258e-04  4.0426235003133227e-04  4.0889244504667540e-04  4.1352246608722219e-04  4.1804046091137954e-04  4.2233550246715152e-04  4.2629909690320236e-04  4.2982722497279433e-04  4.3282315655356345e-04  4.3520112552397882e-04  4.3688951759223305e-04  4.3783949036962265e-04  4.3800662675565173e-04  3.8014465492895873e-04  3.8031003842500002e-04  3.8124746469567460e-04  3.8291190448096511e-04  3.8525636511117290e-04  3.8821104142455992e-04  3.9169212299786674e-04  3.9560465843464418e-04  3.9984608824031765e-04  4.0430901547457143e-04  4.0888329897500911e-04  4.1345758247545149e-04  4.1792050970971970e-04  4.2216193951541571e-04  4.2607447495222130e-04  4.2955555652556031e-04  4.3251023283897942e-04  4.3485469346921611e-04  4.3651913325452874e-04  4.3745655952521644e-04  4.3762194302126038e-04  3.7975997119456186e-04  3.7992710758058806e-04  3.8087708035796448e-04  3.8256547242619600e-04  3.8494344139658254e-04  3.8793937297731924e-04  3.9146750104687928e-04  3.9543109548290193e-04  3.9972613703865130e-04  4.0424413186279510e-04  4.0887415290333793e-04  4.1350424791868713e-04  4.1802249539749260e-04  4.2231805426920152e-04  4.2628255349972386e-04  4.2981210414290855e-04  4.3281007635291721e-04  4.3519076107681709e-04  4.3688233898906185e-04  4.3783663651409137e-04  4.3800553275473436e-04  3.7859477151748456e-04  3.7876905479213214e-04  3.7976186859984190e-04  3.8152685761726494e-04  3.8400999102005572e-04  3.8713372179997586e-04  3.9080621997921757e-04  3.9492536604788028e-04  3.9938285009649818e-04  4.0406706665704352e-04  4.0886494341890761e-04  4.1366293545225122e-04  4.1834756544342495e-04  4.2280595157084279e-04  4.2692676422195655e-04  4.3060199263088089e-04  4.3372975675220516e-04  4.3621837180052542e-04  4.3798987472653107e-04  4.3899161672855311e-04  4.3916954042453650e-04  3.7661153743938765e-04  3.7679889540715778e-04  3.7786793646203898e-04  3.7976727020306103e-04  3.8243336484177680e-04  3.8577763128004106e-04  3.8969728881080410e-04  3.9408078519099013e-04  3.9881261860126219e-04  4.0377628617444135e-04  4.0885564170255894e-04  4.1393508241413887e-04  4.1889912199295553e-04  4.2363194619460362e-04  4.2801754410760028e-04  4.3194096656213080e-04  4.3529112992212664e-04  4.3796556231633533e-04  4.3987503931982235e-04  4.4095822415745261e-04  4.4115136946099330e-04  3.7374462982179451e-04  3.7395205053199871e-04  3.7513667972929768e-04  3.7723776469548412e-04  3.8017600895825458e-04  3.8384474218790911e-04  3.8812390711111022e-04  3.9288775360306219e-04  3.9801065945562169e-04  4.0336994327378113e-04  4.0884629394904911e-04  4.1432257825449166e-04  4.1968184417590169e-04  4.2480530640616758e-04  4.2957108978200113e-04  4.3385452383757652e-04  4.3753072539891226e-04  4.4048026408534060e-04  4.4259561738617761e-04  4.4380067948604718e-04  4.4401650445783790e-04  3.6989483426401562e-04  3.7013116341792562e-04  3.7148099735551663e-04  3.7386750350736683e-04  3.7718574932869657e-04  3.8130055547763920e-04  3.8606594423863173e-04  3.9133623384810472e-04  3.9697295145582113e-04  4.0284694551507270e-04  4.0883707240382485e-04  4.1482679569648871e-04  4.2069983883164175e-04  4.2633583244132178e-04  4.3160687196857332e-04  4.3637605980450199e-04  4.4049927958489062e-04  4.4383180978831464e-04  4.4623745506630809e-04  4.4761579956235041e-04  4.4786392568639836e-04  3.6491997375752639e-04  3.6519720728251639e-04  3.6677909929070334e-04  3.6956139020116849e-04  3.7339697345240149e-04  3.7810598059143580e-04  3.8350441881846668e-04  3.8941996143270429e-04  3.9569939314832272e-04  4.0220864612830319e-04  4.0882833845457927e-04  4.1544703026870008e-04  4.2195361793048443e-04  4.2822976214642325e-04  4.3414320064317076e-04  4.3954321922861012e-04  4.4426027150131582e-04  4.4811290807032046e-04  4.5092027635012415e-04  4.5254174444692911e-04  4.5283544972013695e-04  3.5861907442794391e-04  3.5895434803494080e-04  3.6086479074479182e-04  3.6419742069392709e-04  3.6873401823161507e-04  3.7422419599376087e-04  3.8042920711241939e-04  3.8714316421647175e-04  3.9419857257017867e-04  4.0146130193854056e-04  4.0882071089128725e-04  4.1617819895918828e-04  4.2343553305871116e-04  4.3048328929873385e-04  4.3718969297429518e-04  4.4339096956358447e-04  4.4888611678290654e-04  4.5344162718534344e-04  4.5680668288252291e-04  4.5877268242473183e-04  4.5913162192771288e-04  3.5070307352399799e-04  3.5112388092091142e-04  3.5351252332105533e-04  3.5762497230314421e-04  3.6311964888331906e-04  3.6963359314909491e-04  3.7685182445361528e-04  3.8453069480596163e-04  3.9249445262520458e-04  4.0061934331873017e-04  4.0881511714906278e-04  4.1700771940970330e-04  4.2512337074283315e-04  4.3307287300990227e-04  4.4073495041768111e-04  4.4793884868965658e-04  4.5444939314058335e-04  4.5996169282275142e-04  4.6411518050063432e-04  4.6658377879046806e-04  4.6704005311707676e-04  3.4073673615835385e-04  3.4130096812342073e-04  3.4441342251931729e-04  3.4966829610651038e-04  3.5649498058719386e-04  3.6435158202180598e-04  3.7282566449762410e-04  3.8164219967592951e-04  3.9063481846432350e-04  3.9970920428315402e-04  4.0881277764529824e-04  4.1791172285942925e-04  4.2697218878855870e-04  4.3594173960404236e-04  4.4472742751723181e-04  4.5316880706704400e-04  4.6100291591377718e-04  4.6783391275302439e-04  4.7313854313486110e-04  4.7637887177104783e-04  4.7698802978057982e-04  3.2809089597430447e-04  3.2885991608123905e-04  3.3313814032935276e-04  3.4014993318236053e-04  3.4886367427562338e-04  3.5847676756882462e-04  3.6847559066615612e-04  3.7858945911829918e-04  3.8870009756818391e-04  3.9877278011801574e-04  4.0881494288514531e-04  4.1885113970005570e-04  4.2890530189757491e-04  4.3898316668815416e-04  4.4904881744194705e-04  4.5898658081412378e-04  4.6852800665946623e-04  4.7720863628395414e-04  4.8428430088966201e-04  4.8878221800522075e-04  4.8962653885798986e-04  3.1176419281227913e-04  3.1265206088846952e-04  3.1914506678784198e-04  3.2896252140578793e-04  3.4038963728056845e-04  3.5226053662370957e-04  3.6403607176153967e-04  3.7555400028676752e-04  3.8681070147063333e-04  3.9787027150782657e-04  4.0882370226220287e-04  4.1977045676942358e-04  4.3080872298213702e-04  4.4202577137813560e-04  4.5347977685438433e-04  4.6514800190355606e-04  4.7685494102237935e-04  4.8824094800163257e-04  4.9807011739124753e-04  5.0470138216457394e-04  5.0606189253040465e-04  2.8722931808253743e-04  2.9124028568075315e-04  3.0177891721357484e-04  3.1625322574008343e-04  3.3161419675791453e-04  3.4619140916389014e-04  3.5987499637618744e-04  3.7278718887052639e-04  3.8511962474461721e-04  3.9707245280911057e-04  4.0883635321511887e-04  4.2059408819758730e-04  4.3252690854441751e-04  4.4482029641251244e-04  4.5765970836388552e-04  4.7120313243911649e-04  4.8564112645068123e-04  5.0060642266501997e-04  5.1416760712418366e-04  5.2595042130933873e-04  5.2906166685270646e-04  2.5716195611680644e-04  2.6297920046535595e-04  2.7905879950799176e-04  3.0378958707515910e-04  3.2369898459647621e-04  3.4104740081071342e-04  3.5649916077726751e-04  3.7060268536081588e-04  3.8380891888871135e-04  3.9646489455303583e-04  4.0885740088368258e-04  4.2124551774671675e-04  4.3388707430667007e-04  4.4706376042477543e-04  4.6110668084055123e-04  4.7645292005282205e-04  4.9370204482730576e-04  5.1215925899182559e-04  5.3479221212986454e-04  5.6004942023323554e-04  5.6108340540326899e-04  2.5025291211747325e-04  1.8289268634884027e-04  2.6532799905554911e-04  2.9449826162118161e-04  3.1828188335555961e-04  3.3782447422139330e-04  3.5444225887123197e-04  3.6929780519941548e-04  3.8303990773231499e-04  3.9611816776557735e-04  4.0888570846012607e-04  4.2165239348881034e-04  4.3472762286102186e-04  4.4846241215944617e-04  4.6330880559550383e-04  4.7993189388967345e-04  4.9921842819743547e-04  5.2254378813349324e-04  5.6140265619234603e-04  5.8270770381603780e-04  6.1224158689344250e-04  -7.7128212640127387e-04  2.6513399405492358e-04  2.5952076166099307e-04  2.9043615234361676e-04  3.1762582449742111e-04  3.3724451075892978e-04  3.5405885396585086e-04  3.6906480788176572e-04  3.8290358731175877e-04  3.9605752422649311e-04  4.0889292512303921e-04  4.2172885052615120e-04  4.3488457679270455e-04  4.4872608592720495e-04  4.6373247834623254e-04  4.8057869770898044e-04  5.0030393391511864e-04  5.2605816050128624e-04  5.6093205496310719e-04  5.8773790087751512e-04  9.5787967369567056e-04  </DataArray> 
</PointData> 
</Piece>
</UnstructuredGrid>
</VTKFile>