<?xml version="1.0"?>
<VTKFile type="UnstructuredGrid"  version="0.1"  >
<UnstructuredGrid>
<Piece  NumberOfPoints="651" NumberOfCells="1200">
<Points>
<DataArray  type="Float64"  NumberOfComponents="3"  format="ascii">0 0 0  50000 0 0  100000 0 0  150000 0 0  200000 0 0  250000 0 0  300000 0 0  350000 0 0  400000 0 0  450000 0 0  500000 0 0  550000 0 0  600000 0 0  650000 0 0  700000 0 0  750000 0 0  800000 0 0  850000 0 0  900000 0 0  950000 0 0  1000000 0 0  0 50000 0  50000 50000 0  100000 50000 0  150000 50000 0  200000 50000 0  250000 50000 0  300000 50000 0  350000 50000 0  400000 50000 0  450000 50000 0  500000 50000 0  550000 50000 0  600000 50000 0  650000 50000 0  700000 50000 0  750000 50000 0  800000 50000 0  850000 50000 0  900000 50000 0  950000 50000 0  1000000 50000 0  0 100000 0  50000 100000 0  100000 100000 0  150000 100000 0  200000 100000 0  250000 100000 0  300000 100000 0  350000 100000 0  400000 100000 0  450000 100000 0  500000 100000 0  550000 100000 0  600000 100000 0  650000 100000 0  700000 100000 0  750000 100000 0  800000 100000 0  850000 100000 0  900000 100000 0  950000 100000 0  1000000 100000 0  0 150000 0  50000 150000 0  100000 150000 0  150000 150000 0  200000 150000 0  250000 150000 0  300000 150000 0  350000 150000 0  400000 150000 0  450000 150000 0  500000 150000 0  550000 150000 0  600000 150000 0  650000 150000 0  700000 150000 0  750000 150000 0  800000 150000 0  850000 150000 0  900000 150000 0  950000 150000 0  1000000 150000 0  0 200000 0  50000 200000 0  100000 200000 0  150000 200000 0  200000 200000 0  250000 200000 0  300000 200000 0  350000 200000 0  400000 200000 0  450000 200000 0  500000 200000 0  550000 200000 0  600000 200000 0  650000 200000 0  700000 200000 0  750000 200000 0  800000 200000 0  850000 200000 0  900000 200000 0  950000 200000 0  1000000 200000 0  0 250000 0  50000 250000 0  100000 250000 0  150000 250000 0  200000 250000 0  250000 250000 0  300000 250000 0  350000 250000 0  400000 250000 0  450000 250000 0  500000 250000 0  550000 250000 0  600000 250000 0  650000 250000 0  700000 250000 0  750000 250000 0  800000 250000 0  850000 250000 0  900000 250000 0  950000 250000 0  1000000 250000 0  0 300000 0  50000 300000 0  100000 300000 0  150000 300000 0  200000 300000 0  250000 300000 0  300000 300000 0  350000 300000 0  400000 300000 0  450000 300000 0  500000 300000 0  550000 300000 0  600000 300000 0  650000 300000 0  700000 300000 0  750000 300000 0  800000 300000 0  850000 300000 0  900000 300000 0  950000 300000 0  1000000 300000 0  0 350000 0  50000 350000 0  100000 350000 0  150000 350000 0  200000 350000 0  250000 350000 0  300000 350000 0  350000 350000 0  400000 350000 0  450000 350000 0  500000 350000 0  550000 350000 0  600000 350000 0  650000 350000 0  700000 350000 0  750000 350000 0  800000 350000 0  850000 350000 0  900000 350000 0  950000 350000 0  1000000 350000 0  0 400000 0  50000 400000 0  100000 400000 0  150000 400000 0  200000 400000 0  250000 400000 0  300000 400000 0  350000 400000 0  400000 400000 0  450000 400000 0  500000 400000 0  550000 400000 0  600000 400000 0  650000 400000 0  700000 400000 0  750000 400000 0  800000 400000 0  850000 400000 0  900000 400000 0  950000 400000 0  1000000 400000 0  0 450000 0  50000 450000 0  100000 450000 0  150000 450000 0  200000 450000 0  250000 450000 0  300000 450000 0  350000 450000 0  400000 450000 0  450000 450000 0  500000 450000 0  550000 450000 0  600000 450000 0  650000 450000 0  700000 450000 0  750000 450000 0  800000 450000 0  850000 450000 0  900000 450000 0  950000 450000 0  1000000 450000 0  0 500000 0  50000 500000 0  100000 500000 0  150000 500000 0  200000 500000 0  250000 500000 0  300000 500000 0  350000 500000 0  400000 500000 0  450000 500000 0  500000 500000 0  550000 500000 0  600000 500000 0  650000 500000 0  700000 500000 0  750000 500000 0  800000 500000 0  850000 500000 0  900000 500000 0  950000 500000 0  1000000 500000 0  0 550000 0  50000 550000 0  100000 550000 0  150000 550000 0  200000 550000 0  250000 550000 0  300000 550000 0  350000 550000 0  400000 550000 0  450000 550000 0  500000 550000 0  550000 550000 0  600000 550000 0  650000 550000 0  700000 550000 0  750000 550000 0  800000 550000 0  850000 550000 0  900000 550000 0  950000 550000 0  1000000 550000 0  0 600000 0  50000 600000 0  100000 600000 0  150000 600000 0  200000 600000 0  250000 600000 0  300000 600000 0  350000 600000 0  400000 600000 0  450000 600000 0  500000 600000 0  550000 600000 0  600000 600000 0  650000 600000 0  700000 600000 0  750000 600000 0  800000 600000 0  850000 600000 0  900000 600000 0  950000 600000 0  1000000 600000 0  0 650000 0  50000 650000 0  100000 650000 0  150000 650000 0  200000 650000 0  250000 650000 0  300000 650000 0  350000 650000 0  400000 650000 0  450000 650000 0  500000 650000 0  550000 650000 0  600000 650000 0  650000 650000 0  700000 650000 0  750000 650000 0  800000 650000 0  850000 650000 0  900000 650000 0  950000 650000 0  1000000 650000 0  0 700000 0  50000 700000 0  100000 700000 0  150000 700000 0  200000 700000 0  250000 700000 0  300000 700000 0  350000 700000 0  400000 700000 0  450000 700000 0  500000 700000 0  550000 700000 0  600000 700000 0  650000 700000 0  700000 700000 0  750000 700000 0  800000 700000 0  850000 700000 0  900000 700000 0  950000 700000 0  1000000 700000 0  0 750000 0  50000 750000 0  100000 750000 0  150000 750000 0  200000 750000 0  250000 750000 0  300000 750000 0  350000 750000 0  400000 750000 0  450000 750000 0  500000 750000 0  550000 750000 0  600000 750000 0  650000 750000 0  700000 750000 0  750000 750000 0  800000 750000 0  850000 750000 0  900000 750000 0  950000 750000 0  1000000 750000 0  0 800000 0  50000 800000 0  100000 800000 0  150000 800000 0  200000 800000 0  250000 800000 0  300000 800000 0  350000 800000 0  400000 800000 0  450000 800000 0  500000 800000 0  550000 800000 0  600000 800000 0  650000 800000 0  700000 800000 0  750000 800000 0  800000 800000 0  850000 800000 0  900000 800000 0  950000 800000 0  1000000 800000 0  0 850000 0  50000 850000 0  100000 850000 0  150000 850000 0  200000 850000 0  250000 850000 0  300000 850000 0  350000 850000 0  400000 850000 0  450000 850000 0  500000 850000 0  550000 850000 0  600000 850000 0  650000 850000 0  700000 850000 0  750000 850000 0  800000 850000 0  850000 850000 0  900000 850000 0  950000 850000 0  1000000 850000 0  0 900000 0  50000 900000 0  100000 900000 0  150000 900000 0  200000 900000 0  250000 900000 0  300000 900000 0  350000 900000 0  400000 900000 0  450000 900000 0  500000 900000 0  550000 900000 0  600000 900000 0  650000 900000 0  700000 900000 0  750000 900000 0  800000 900000 0  850000 900000 0  900000 900000 0  950000 900000 0  1000000 900000 0  0 950000 0  50000 950000 0  100000 950000 0  150000 950000 0  200000 950000 0  250000 950000 0  300000 950000 0  350000 950000 0  400000 950000 0  450000 950000 0  500000 950000 0  550000 950000 0  600000 950000 0  650000 950000 0  700000 950000 0  750000 950000 0  800000 950000 0  850000 950000 0  900000 950000 0  950000 950000 0  1000000 950000 0  0 1000000 0  50000 1000000 0  100000 1000000 0  150000 1000000 0  200000 1000000 0  250000 1000000 0  300000 1000000 0  350000 1000000 0  400000 1000000 0  450000 1000000 0  500000 1000000 0  550000 1000000 0  600000 1000000 0  650000 1000000 0  700000 1000000 0  750000 1000000 0  800000 1000000 0  850000 1000000 0  900000 1000000 0  950000 1000000 0  1000000 1000000 0  0 1050000 0  50000 1050000 0  100000 1050000 0  150000 1050000 0  200000 1050000 0  250000 1050000 0  300000 1050000 0  350000 1050000 0  400000 1050000 0  450000 1050000 0  500000 1050000 0  550000 1050000 0  600000 1050000 0  650000 1050000 0  700000 1050000 0  750000 1050000 0  800000 1050000 0  850000 1050000 0  900000 1050000 0  950000 1050000 0  1000000 1050000 0  0 1100000 0  50000 1100000 0  100000 1100000 0  150000 1100000 0  200000 1100000 0  250000 1100000 0  300000 1100000 0  350000 1100000 0  400000 1100000 0  450000 1100000 0  500000 1100000 0  550000 1100000 0  600000 1100000 0  650000 1100000 0  700000 1100000 0  750000 1100000 0  800000 1100000 0  850000 1100000 0  900000 1100000 0  950000 1100000 0  1000000 1100000 0  0 1150000 0  50000 1150000 0  100000 1150000 0  150000 1150000 0  200000 1150000 0  250000 1150000 0  300000 1150000 0  350000 1150000 0  400000 1150000 0  450000 1150000 0  500000 1150000 0  550000 1150000 0  600000 1150000 0  650000 1150000 0  700000 1150000 0  750000 1150000 0  800000 1150000 0  850000 1150000 0  900000 1150000 0  950000 1150000 0  1000000 1150000 0  0 1200000 0  50000 1200000 0  100000 1200000 0  150000 1200000 0  200000 1200000 0  250000 1200000 0  300000 1200000 0  350000 1200000 0  400000 1200000 0  450000 1200000 0  500000 1200000 0  550000 1200000 0  600000 1200000 0  650000 1200000 0  700000 1200000 0  750000 1200000 0  800000 1200000 0  850000 1200000 0  900000 1200000 0  950000 1200000 0  1000000 1200000 0  0 1250000 0  50000 1250000 0  100000 1250000 0  150000 1250000 0  200000 1250000 0  250000 1250000 0  300000 1250000 0  350000 1250000 0  400000 1250000 0  450000 1250000 0  500000 1250000 0  550000 1250000 0  600000 1250000 0  650000 1250000 0  700000 1250000 0  750000 1250000 0  800000 1250000 0  850000 1250000 0  900000 1250000 0  950000 1250000 0  1000000 1250000 0  0 1300000 0  50000 1300000 0  100000 1300000 0  150000 1300000 0  200000 1300000 0  250000 1300000 0  300000 1300000 0  350000 1300000 0  400000 1300000 0  450000 1300000 0  500000 1300000 0  550000 1300000 0  600000 1300000 0  650000 1300000 0  700000 1300000 0  750000 1300000 0  800000 1300000 0  850000 1300000 0  900000 1300000 0  950000 1300000 0  1000000 1300000 0  0 1350000 0  50000 1350000 0  100000 1350000 0  150000 1350000 0  200000 1350000 0  250000 1350000 0  300000 1350000 0  350000 1350000 0  400000 1350000 0  450000 1350000 0  500000 1350000 0  550000 1350000 0  600000 1350000 0  650000 1350000 0  700000 135
[...]
<PointData  Scalars="f_25027"> 
<DataArray  type="Float64"  Name="f_25027"  format="ascii">-7.8508110946904101e-04  4.4552479496109555e-05  4.5014224816982928e-05  1.0829111414774095e-04  1.4835156155037580e-04  1.7841104529379566e-04  2.0430018178532744e-04  2.2716587983788323e-04  2.4820642801854379e-04  2.6817488603896115e-04  2.8764253076290569e-04  3.0711019583583331e-04  3.2707915128764770e-04  3.4811401451348667e-04  3.7099236431548110e-04  3.9695418689411372e-04  4.2604297299866239e-04  4.7117186146656317e-04  5.2793567054160043e-04  4.2361359819563483e-04  2.9301965409806196e-03  -2.6543079410524244e-05  1.6525366015263215e-05  3.9802505032748128e-05  1.1414399997764429e-04  1.4835873177512893e-04  1.7886892885255631e-04  2.0456067835933993e-04  2.2731614659106882e-04  2.4830335103167710e-04  2.6822998157189271e-04  2.8766441927058188e-04  3.0710150346248513e-04  3.2703568356933990e-04  3.4803658039218985e-04  3.7085376383520600e-04  3.9646544081720661e-04  4.2710622248722446e-04  4.6590883965090860e-04  5.0662335365152169e-04  6.7804328051729909e-04  4.9381870802879286e-04  5.0502078322968844e-05  4.4823465830085518e-05  9.2335216025671733e-05  1.2882056314784710e-04  1.5615200766704639e-04  1.8401388053528655e-04  2.0763873465167362e-04  2.2927333360203553e-04  2.4947406457667242e-04  2.6879560397914643e-04  2.8770666033394723e-04  3.0662554680792792e-04  3.2597405327874045e-04  3.4622411437010633e-04  3.6794821953142683e-04  3.9193786893706875e-04  4.1923588405462422e-04  4.5036719297468866e-04  4.9282314339059148e-04  5.1158974324194413e-04  5.1901770937158034e-04  1.0320677688276407e-04  1.0747225056788350e-04  1.2551742428058146e-04  1.4513211495068931e-04  1.6924383176724746e-04  1.9196539409278840e-04  2.1279365618866969e-04  2.3262380838133024e-04  2.5148679971001710e-04  2.6975425613432895e-04  2.8773263362151638e-04  3.0572112981153295e-04  3.2402267538730319e-04  3.4295554058619699e-04  3.6286255618760328e-04  3.8408632300045636e-04  4.0681025869791857e-04  4.3112990010604112e-04  4.5327440476627631e-04  4.6968163220895750e-04  4.7654269465180412e-04  1.4005534428987391e-04  1.4065773896034065e-04  1.5003306734551728e-04  1.6542272568801289e-04  1.8328756785473927e-04  2.0123129034228655e-04  2.1925844224959904e-04  2.3690201987447456e-04  2.5410350778675339e-04  2.7100748741139881e-04  2.8775398021520601e-04  3.0451128530810335e-04  3.2144852969742232e-04  3.3872261334949366e-04  3.5644935141415917e-04  3.7463196610607567e-04  3.9302830294475822e-04  4.1066790655665421e-04  4.2572006418628165e-04  4.3510562556573721e-04  4.3420106644116079e-04  1.6544001826554220e-04  1.6592081625149766e-04  1.7239492691428345e-04  1.8304106777671642e-04  1.9621391517846587e-04  2.1086376290422551e-04  2.2616287367725586e-04  2.4159657780082770e-04  2.5703309064991996e-04  2.7241736936196067e-04  2.8776303942555322e-04  3.0311836904648647e-04  3.1853054674026464e-04  3.3401945440882569e-04  3.4953604698681988e-04  3.6489399683159115e-04  3.7964549534217018e-04  3.9294588877193383e-04  4.0343921061524992e-04  4.0935814293836050e-04  4.0986648469604203e-04  1.8504140656266309e-04  1.8537780063249110e-04  1.8987729078492660e-04  1.9771079601206472e-04  2.0805068632558118e-04  2.2000387767394012e-04  2.3289486350401450e-04  2.4632102501879490e-04  2.6002988255326831e-04  2.7386934658159208e-04  2.8776355493889368e-04  3.0166496645519332e-04  3.1552560218077170e-04  3.2926692528209702e-04  3.4274157953420142e-04  3.5568227653833988e-04  3.6764116322322848e-04  3.7793992428386075e-04  3.8568643527126260e-04  3.8998528188280527e-04  3.9021321299275704e-04  2.0036415740118312e-04  2.0059258487530767e-04  2.0398460736539020e-04  2.1007130506862966e-04  2.1833236031703859e-04  2.2817704543014915e-04  2.3912268560948106e-04  2.5079049328313898e-04  2.6290333072341186e-04  2.7527126723574710e-04  2.8775698694490917e-04  3.0024724479644805e-04  3.1262866994457309e-04  3.2476119078369745e-04  3.3644941201314106e-04  3.4741207395121187e-04  3.5725572207199351e-04  3.6547036416022482e-04  3.7147466626128665e-04  3.7472761965576847e-04  3.7488898802989697e-04  2.1250396316124722e-04  2.1267853450982968e-04  2.1535654466460139e-04  2.2024277818915574e-04  2.2701604826638795e-04  2.3527735515189882e-04  2.4465489103058028e-04  2.5482544324702256e-04  2.6552951172485566e-04  2.7656000382448264e-04  2.8774568444450883e-04  2.9893388669017607e-04  3.0997137733330683e-04  3.2068505658604225e-04  3.3086323944085747e-04  3.4023956086172159e-04  3.4848510241951893e-04  3.5521920428405873e-04  3.6004602450572708e-04  3.6262814119800667e-04  3.6276131431325356e-04  2.2214657521477127e-04  2.2228463983969674e-04  2.2447688173635617e-04  2.2852626967275564e-04  2.3422044224657838e-04  2.4127420541700866e-04  2.4940185610385296e-04  2.5833495453219052e-04  2.6783587012499209e-04  2.7769649878623830e-04  2.8773160883227941e-04  2.9776785676510368e-04  3.0763127889271203e-04  3.1713491793578864e-04  3.2606786096635646e-04  3.3418816112140243e-04  3.4122331101525325e-04  3.4688354711693604e-04  3.5088842918263815e-04  3.5301424776841724e-04  3.5312259446037143e-04  2.2974527739664323e-04  2.2985850584251018e-04  2.3171127785076608e-04  2.3516266956335904e-04  2.4006298221242026e-04  2.4619999201743278e-04  2.5334849763529623e-04  2.6128218739583170e-04  2.6978627980828559e-04  2.7866035065919154e-04  2.8771623327789053e-04  2.9677236958874031e-04  3.0564677283270844e-04  3.1414999142953358e-04  3.2207964445315947e-04  3.2921850584652850e-04  3.3533821473007500e-04  3.4021133143252778e-04  3.4362940792463691e-04  3.4543470367923466e-04  3.4552691742232943e-04  2.3561679090887348e-04  2.3571272949376250e-04  2.3732482205101756e-04  2.4034630650737228e-04  2.4466501904670494e-04  2.5011504889315198e-04  2.5651210839659023e-04  2.6366149560919468e-04  2.7136870989774949e-04  2.7944348591271744e-04  2.8770047548000194e-04  2.9595726092156681e-04  3.0403114160373299e-04  3.1173594133188001e-04  3.1888015767566035e-04  3.2526784318612494e-04  3.3070330356955817e-04  3.3500112154266691e-04  3.3799817139127194e-04  3.3957648954669844e-04  3.3965755890960544e-04  2.3998414522493340e-04  2.4006791609856599e-04  2.4151127700358657e-04  2.4422900233941311e-04  2.4813143238323676e-04  2.5308193146763360e-04  2.5892342889215426e-04  2.6548377242071258e-04  2.7258443575181910e-04  2.8004489155124913e-04  2.8768482354069741e-04  2.9532439558916111e-04  3.0278359245738251e-04  3.0988159126891943e-04  3.1643714163662548e-04  3.2227090565550024e-04  3.2721025588067519e-04  3.3109753834341388e-04  3.3379808725662836e-04  3.3521820361224797e-04  3.3529176519649323e-04  2.4300264458883785e-04  2.4307805293087602e-04  2.4440881687352335e-04  2.4692341887659456e-04  2.5054528330154126e-04  2.5515571709969681e-04  2.6061485017209125e-04  2.6676548374555660e-04  2.7344043104266181e-04  2.8046689763643078e-04  2.8766946983930386e-04  2.9487171397816277e-04  3.0189709487223070e-04  3.0856991523607597e-04  3.1471698837858507e-04  3.2017070445350209e-04  3.2477365609132552e-04  3.2838567871423102e-04  3.3088933155477697e-04  3.3220547664643312e-04  3.3227447798055669e-04  2.4477493281837534e-04  2.4484500795040161e-04  2.4611007729372650e-04  2.4850708312562224e-04  2.5196609951340230e-04  2.5637823575165580e-04  2.6161310093547575e-04  2.6752200850254390e-04  2.7394449214428293e-04  2.8071263212668484e-04  2.8765440881580107e-04  2.9459599711286957e-04  3.0136352672293645e-04  3.0778485249494792e-04  3.1369188402165016e-04  3.1892397544771927e-04  3.2333236457791025e-04  3.2678653747008376e-04  3.2917821106639853e-04  3.3043621420029648e-04  3.3050319622438077e-04  2.4535963113230506e-04  2.4542696538679078e-04  2.4666834019709230e-04  2.4902523877127141e-04  2.5242939889000830e-04  2.5677522852690882e-04  2.6193533080792920e-04  2.6776376348374033e-04  2.7410223504152902e-04  2.8078443812857445e-04  2.8763952002624403e-04  2.9449460192394305e-04  3.0117680501107533e-04  3.0751527656899949e-04  3.1334370924498105e-04  3.1850381152619155e-04  3.2284964116327980e-04  3.2625380128218268e-04  3.2861069985648636e-04  3.2985207466685646e-04  3.2991940892135118e-04  2.4477584382926691e-04  2.4484282585334193e-04  2.4610082898717011e-04  2.4849250258335688e-04  2.5194667547536088e-04  2.5635506460535925e-04  2.6158715603123494e-04  2.6749418755776333e-04  2.7391551332963673e-04  2.8068304293961670e-04  2.8762463123665685e-04  2.9456640792580616e-04  3.0133454790829995e-04  3.0775703155018122e-04  3.1366593911742925e-04  3.1890080430144868e-04  3.2331294053990092e-04  3.2677195692785624e-04  3.2916896275988458e-04  3.3043403210328233e-04  3.3050410723531873e-04  2.4300456207310985e-04  2.4307356340722472e-04  2.4438970849880359e-04  2.4689336133920821e-04  2.5050538396192583e-04  2.5510833559953708e-04  2.6056205167424181e-04  2.6670912481656058e-04  2.7338194518025687e-04  2.8040732607423157e-04  2.8760957021306099e-04  2.9481214241597212e-04  3.0183860900984404e-04  3.0851355630710862e-04  3.1466418988077553e-04  3.2012332295339462e-04  3.2473375675177481e-04  3.2835562117692095e-04  3.3087022318014405e-04  3.3220098712287552e-04  3.3227639546492459e-04  2.3998727485722776e-04  2.4006083644146172e-04  2.4148095279698993e-04  2.4418150171003593e-04  2.4806878417255252e-04  2.5300813439747773e-04  2.5884189841610485e-04  2.6539744878359070e-04  2.7249544759495680e-04  2.7995464446307184e-04  2.8759421651150340e-04  2.9523414850099672e-04  3.0269460430054683e-04  3.0979526763183908e-04  3.1635561116063495e-04  3.2219710858542215e-04  3.2714760767008853e-04  3.3105003771415450e-04  3.3376776305016527e-04  3.3521112395528909e-04  3.3529489482893537e-04  2.3562148114420945e-04  2.3570255050710324e-04  2.3728086866241476e-04  2.4027791851080789e-04  2.4457573648363831e-04  2.5001119686676255e-04  2.5639888237692464e-04  2.6354309872043892e-04  2.7124789844838173e-04  2.7932177913042198e-04  2.8757856457194890e-04  2.9583555413928729e-04  3.0391033015439835e-04  3.1161754444317705e-04  3.1876693165607022e-04  3.2516399115983780e-04  3.3061402100662338e-04  3.3493273354626331e-04  3.3795421800285536e-04  3.3956631056024415e-04  3.3966224914515027e-04  2.2975212263163513e-04  2.2984433637471318e-04  2.3164963212915892e-04  2.3506770862098781e-04  2.3994082532307750e-04  2.4606053420622715e-04  2.5319939559921426e-04  2.6112904862251029e-04  2.6963226721908579e-04  2.7850667046290094e-04  2.8756280677370442e-04  2.9661868939246728e-04  3.0549276024354556e-04  3.1399685265627288e-04  3.2193054241716690e-04  3.2907904803544793e-04  3.3521605784089749e-04  3.4011637049036458e-04  3.4356776220327621e-04  3.4542053421171293e-04  3.4553376265760311e-04  2.2215644559381843e-04  2.2226479228575107e-04  2.2439061087132015e-04  2.2839549293663809e-04  2.3405572903783034e-04  2.4109087893115833e-04  2.4921117908571359e-04  2.5814412211586806e-04  2.6764776115863800e-04  2.7751118328606100e-04  2.8754743121882787e-04  2.9758254126494336e-04  3.0744316992639529e-04  3.1694408551952966e-04  3.2587718394831434e-04  3.3400483463569394e-04  3.4105859780670229e-04  3.4675277038107748e-04  3.5080215831792029e-04  3.5299440021483466e-04  3.5313246483979256e-04  2.1251772574127153e-04  2.1265089885648782e-04  2.1523301554846665e-04  2.2005983576958810e-04  2.2679393763344813e-04  2.3503947919054603e-04  2.4441580061077673e-04  2.5459398346507777e-04  2.6530766271744147e-04  2.7634515336035068e-04  2.8753335560594863e-04  2.9871903622605853e-04  3.0974952832592474e-04  3.2045359680415449e-04  3.3062414902114960e-04  3.4000168490051969e-04  3.4826299178680238e-04  3.5503626186480228e-04  3.5992249538999578e-04  3.6260050554514452e-04  3.6277507689377360e-04  2.0039005202511184e-04  2.0055142039920816e-04  2.0380437379324053e-04  2.0980867589349427e-04  2.1802331798076259e-04  2.2786696610060193e-04  2.3882962803786474e-04  2.5051784926668390e-04  2.6265037010537442e-04  2.7503179525324739e-04  2.8752205310470582e-04  3.0000777281395609e-04  3.1237570932655538e-04  3.2448854676728444e-04  3.3615635444160513e-04  3.4710199462179735e-04  3.5694667973593775e-04  3.6520773498545009e-04  3.7129443268965357e-04  3.7468645518031108e-04  3.7491488265450044e-04  1.8506582706298271e-04  1.8529375817290456e-04  1.8959260478371550e-04  1.9733911576988404e-04  2.0763787682912503e-04  2.1959676351275353e-04  2.3253746051589473e-04  2.4601211476728117e-04  2.5975343786813562e-04  2.7361407359344946e-04  2.8751548510966285e-04  3.0140969346704766e-04  3.1524915749563831e-04  3.2895801503059658e-04  3.4238417654611279e-04  3.5527516237724902e-04  3.6722835372702720e-04  3.7756824404211421e-04  3.8540174927068213e-04  3.8990123942405784e-04  3.9023763349403141e-04  1.6541255536102614e-04  1.6592089711833316e-04  1.7183982944033390e-04  1.8233315128165486e-04  1.9563354470938026e-04  2.1038504321833530e-04  2.2574299306196016e-04  2.4125958563921533e-04  2.5674849330733032e-04  2.7216067100087029e-04  2.8751600062172373e-04  3.0286167068537868e-04  3.1824594939764675e-04  3.3368246224717323e-04  3.4911616637149726e-04  3.6441527714577805e-04  3.7906512487312903e-04  3.9223797227691851e-04  4.0288411314196298e-04  4.0935822380667433e-04  4.0983902179275548e-04  1.4107797361594243e-04  1.4017341449284844e-04  1.4955897587004452e-04  1.6461113349611835e-04  1.8225073710519536e-04  2.0064707394194190e-04  2.1882968863275585e-04  2.3655642669682294e-04  2.5383051034858655e-04  2.7076775473775753e-04  2.8752505983060055e-04  3.0427155263442732e-04  3.2117553225918918e-04  3.3837702017173869e-04  3.5602059779725324e-04  3.7404774970557780e-04  3.9199147219492726e-04  4.0985631436588630e-04  4.2524597271265487e-04  4.3462130109988721e-04  4.3522369577027141e-04  9.8736345413371419e-05  1.0559740785346910e-04  1.2200463528918324e-04  1.4414913994451926e-04  1.6846878134869084e-04  1.9119271704456177e-04  2.1241648385677999e-04  2.3232349945801503e-04  2.5125636465690086e-04  2.6955791023269338e-04  2.8754640642270361e-04  3.0552478390984047e-04  3.2379224033407208e-04  3.4265523166271216e-04  3.6248538385552398e-04  3.8331364595173419e-04  4.0603520827981837e-04  4.3014692509894245e-04  4.4976161576966032e-04  4.6780678949415676e-04  4.7207226318574195e-04  5.6261330695947048e-05  6.3689296815292606e-05  8.2455896663760557e-05  1.2491184706754681e-04  1.5604315598617704e-04  1.8334117110361571e-04  2.0733082050985248e-04  2.2905492567177235e-04  2.4930498676359330e-04  2.6865349323467103e-04  2.8757237970871590e-04  3.0648343606337700e-04  3.2580497546551003e-04  3.4600570643961208e-04  3.6764030538926978e-04  3.9126515950509377e-04  4.1912703237381894e-04  4.4645847689150280e-04  4.8294382403470289e-04  5.3045557426361083e-04  5.2477696174760117e-04  8.1460332099857050e-05  -1.0276424047147033e-04  6.8655686368684842e-05  1.0937020037832143e-04  1.4817281754489391e-04  1.7881359921861486e-04  2.0442527620293592e-04  2.2724245964751331e-04  2.4824335647133844e-04  2.6817753657871200e-04  2.8761462077074611e-04  3.0704905846919552e-04  3.2697568900877237e-04  3.4796289344824605e-04  3.7071836167823800e-04  3.9641011118246648e-04  4.2692030825477626e-04  4.6113504005012706e-04  5.3547653499136285e-04  5.5875367395819627e-04  6.0182211946632422e-04  -2.3549174999473615e-03  1.5166544162849454e-04  4.7343369486671365e-05  1.0410717856290854e-04  1.4923606703121775e-04  1.7832485314091899e-04  2.0428667572217277e-04  2.2716502552587860e-04  2.4819988875277846e-04  2.6816884420515202e-04  2.8763650927822145e-04  3.0710415400190877e-04  3.2707261202163810e-04  3.4811316020107711e-04  3.7097885825174175e-04  3.9686799474008931e-04  4.2692747847870578e-04  4.6698792587858190e-04  5.3026481518631560e-04  5.3072656046025549e-04  1.3603601500416945e-03  </DataArray> 
</PointData> 
</Piece>
</UnstructuredGrid>
</VTKFile>