<?xml version="1.0"?>
<VTKFile type="UnstructuredGrid"  version="0.1"  >
<UnstructuredGrid>
<Piece  NumberOfPoints="651" NumberOfCells="1200">
<Points>
<DataArray  type="Float64"  NumberOfComponents="3"  format="ascii">0 0 0  50000 0 0  100000 0 0  150000 0 0  200000 0 0  250000 0 0  300000 0 0  350000 0 0  400000 0 0  450000 0 0  500000 0 0  550000 0 0  600000 0 0  650000 0 0  700000 0 0  750000 0 0  800000 0 0  850000 0 0  900000 0 0  950000 0 0  1000000 0 0  0 50000 0  50000 50000 0  100000 50000 0  150000 50000 0  200000 50000 0  250000 50000 0  300000 50000 0  350000 50000 0  400000 50000 0  450000 50000 0  500000 50000 0  550000 50000 0  600000 50000 0  650000 50000 0  700000 50000 0  750000 50000 0  800000 50000 0  850000 50000 0  900000 50000 0  950000 50000 0  1000000 50000 0  0 100000 0  50000 100000 0  100000 100000 0  150000 100000 0  200000 100000 0  250000 100000 0  300000 100000 0  350000 100000 0  400000 100000 0  450000 100000 0  500000 100000 0  550000 100000 0  600000 100000 0  650000 100000 0  700000 100000 0  750000 100000 0  800000 100000 0  850000 100000 0  900000 100000 0  950000 100000 0  1000000 100000 0  0 150000 0  50000 150000 0  100000 150000 0  150000 150000 0  200000 150000 0  250000 150000 0  300000 150000 0  350000 150000 0  400000 150000 0  450000 150000 0  500000 150000 0  550000 150000 0  600000 150000 0  650000 150000 0  700000 150000 0  750000 150000 0  800000 150000 0  850000 150000 0  900000 150000 0  950000 150000 0  1000000 150000 0  0 200000 0  50000 200000 0  100000 200000 0  150000 200000 0  200000 200000 0  250000 200000 0  300000 200000 0  350000 200000 0  400000 200000 0  450000 200000 0  500000 200000 0  550000 200000 0  600000 200000 0  650000 200000 0  700000 200000 0  750000 200000 0  800000 200000 0  850000 200000 0  900000 200000 0  950000 200000 0  1000000 200000 0  0 250000 0  50000 250000 0  100000 250000 0  150000 250000 0  200000 250000 0  250000 250000 0  300000 250000 0  350000 250000 0  400000 250000 0  450000 250000 0  500000 250000 0  550000 250000 0  600000 250000 0  650000 250000 0  700000 250000 0  750000 250000 0  800000 250000 0  850000 250000 0  900000 250000 0  950000 250000 0  1000000 250000 0  0 300000 0  50000 300000 0  100000 300000 0  150000 300000 0  200000 300000 0  250000 300000 0  300000 300000 0  350000 300000 0  400000 300000 0  450000 300000 0  500000 300000 0  550000 300000 0  600000 300000 0  650000 300000 0  700000 300000 0  750000 300000 0  800000 300000 0  850000 300000 0  900000 300000 0  950000 300000 0  1000000 300000 0  0 350000 0  50000 350000 0  100000 350000 0  150000 350000 0  200000 350000 0  250000 350000 0  300000 350000 0  350000 350000 0  400000 350000 0  450000 350000 0  500000 350000 0  550000 350000 0  600000 350000 0  650000 350000 0  700000 350000 0  750000 350000 0  800000 350000 0  850000 350000 0  900000 350000 0  950000 350000 0  1000000 350000 0  0 400000 0  50000 400000 0  100000 400000 0  150000 400000 0  200000 400000 0  250000 400000 0  300000 400000 0  350000 400000 0  400000 400000 0  450000 400000 0  500000 400000 0  550000 400000 0  600000 400000 0  650000 400000 0  700000 400000 0  750000 400000 0  800000 400000 0  850000 400000 0  900000 400000 0  950000 400000 0  1000000 400000 0  0 450000 0  50000 450000 0  100000 450000 0  150000 450000 0  200000 450000 0  250000 450000 0  300000 450000 0  350000 450000 0  400000 450000 0  450000 450000 0  500000 450000 0  550000 450000 0  600000 450000 0  650000 450000 0  700000 450000 0  750000 450000 0  800000 450000 0  850000 450000 0  900000 450000 0  950000 450000 0  1000000 450000 0  0 500000 0  50000 500000 0  100000 500000 0  150000 500000 0  200000 500000 0  250000 500000 0  300000 500000 0  350000 500000 0  400000 500000 0  450000 500000 0  500000 500000 0  550000 500000 0  600000 500000 0  650000 500000 0  700000 500000 0  750000 500000 0  800000 500000 0  850000 500000 0  900000 500000 0  950000 500000 0  1000000 500000 0  0 550000 0  50000 550000 0  100000 550000 0  150000 550000 0  200000 550000 0  250000 550000 0  300000 550000 0  350000 550000 0  400000 550000 0  450000 550000 0  500000 550000 0  550000 550000 0  600000 550000 0  650000 550000 0  700000 550000 0  750000 550000 0  800000 550000 0  850000 550000 0  900000 550000 0  950000 550000 0  1000000 550000 0  0 600000 0  50000 600000 0  100000 600000 0  150000 600000 0  200000 600000 0  250000 600000 0  300000 600000 0  350000 600000 0  400000 600000 0  450000 600000 0  500000 600000 0  550000 600000 0  600000 600000 0  650000 600000 0  700000 600000 0  750000 600000 0  800000 600000 0  850000 600000 0  900000 600000 0  950000 600000 0  1000000 600000 0  0 650000 0  50000 650000 0  100000 650000 0  150000 650000 0  200000 650000 0  250000 650000 0  300000 650000 0  350000 650000 0  400000 650000 0  450000 650000 0  500000 650000 0  550000 650000 0  600000 650000 0  650000 650000 0  700000 650000 0  750000 650000 0  800000 650000 0  850000 650000 0  900000 650000 0  950000 650000 0  1000000 650000 0  0 700000 0  50000 700000 0  100000 700000 0  150000 700000 0  200000 700000 0  250000 700000 0  300000 700000 0  350000 700000 0  400000 700000 0  450000 700000 0  500000 700000 0  550000 700000 0  600000 700000 0  650000 700000 0  700000 700000 0  750000 700000 0  800000 700000 0  850000 700000 0  900000 700000 0  950000 700000 0  1000000 700000 0  0 750000 0  50000 750000 0  100000 750000 0  150000 750000 0  200000 750000 0  250000 750000 0  300000 750000 0  350000 750000 0  400000 750000 0  450000 750000 0  500000 750000 0  550000 750000 0  600000 750000 0  650000 750000 0  700000 750000 0  750000 750000 0  800000 750000 0  850000 750000 0  900000 750000 0  950000 750000 0  1000000 750000 0  0 800000 0  50000 800000 0  100000 800000 0  150000 800000 0  200000 800000 0  250000 800000 0  300000 800000 0  350000 800000 0  400000 800000 0  450000 800000 0  500000 800000 0  550000 800000 0  600000 800000 0  650000 800000 0  700000 800000 0  750000 800000 0  800000 800000 0  850000 800000 0  900000 800000 0  950000 800000 0  1000000 800000 0  0 850000 0  50000 850000 0  100000 850000 0  150000 850000 0  200000 850000 0  250000 850000 0  300000 850000 0  350000 850000 0  400000 850000 0  450000 850000 0  500000 850000 0  550000 850000 0  600000 850000 0  650000 850000 0  700000 850000 0  750000 850000 0  800000 850000 0  850000 850000 0  900000 850000 0  950000 850000 0  1000000 850000 0  0 900000 0  50000 900000 0  100000 900000 0  150000 900000 0  200000 900000 0  250000 900000 0  300000 900000 0  350000 900000 0  400000 900000 0  450000 900000 0  500000 900000 0  550000 900000 0  600000 900000 0  650000 900000 0  700000 900000 0  750000 900000 0  800000 900000 0  850000 900000 0  900000 900000 0  950000 900000 0  1000000 900000 0  0 950000 0  50000 950000 0  100000 950000 0  150000 950000 0  200000 950000 0  250000 950000 0  300000 950000 0  350000 950000 0  400000 950000 0  450000 950000 0  500000 950000 0  550000 950000 0  600000 950000 0  650000 950000 0  700000 950000 0  750000 950000 0  800000 950000 0  850000 950000 0  900000 950000 0  950000 950000 0  1000000 950000 0  0 1000000 0  50000 1000000 0  100000 1000000 0  150000 1000000 0  200000 1000000 0  250000 1000000 0  300000 1000000 0  350000 1000000 0  400000 1000000 0  450000 1000000 0  500000 1000000 0  550000 1000000 0  600000 1000000 0  650000 1000000 0  700000 1000000 0  750000 1000000 0  800000 1000000 0  850000 1000000 0  900000 1000000 0  950000 1000000 0  1000000 1000000 0  0 1050000 0  50000 1050000 0  100000 1050000 0  150000 1050000 0  200000 1050000 0  250000 1050000 0  300000 1050000 0  350000 1050000 0  400000 1050000 0  450000 1050000 0  500000 1050000 0  550000 1050000 0  600000 1050000 0  650000 1050000 0  700000 1050000 0  750000 1050000 0  800000 1050000 0  850000 1050000 0  900000 1050000 0  950000 1050000 0  1000000 1050000 0  0 1100000 0  50000 1100000 0  100000 1100000 0  150000 1100000 0  200000 1100000 0  250000 1100000 0  300000 1100000 0  350000 1100000 0  400000 1100000 0  450000 1100000 0  500000 1100000 0  550000 1100000 0  600000 1100000 0  650000 1100000 0  700000 1100000 0  750000 1100000 0  800000 1100000 0  850000 1100000 0  900000 1100000 0  950000 1100000 0  1000000 1100000 0  0 1150000 0  50000 1150000 0  100000 1150000 0  150000 1150000 0  200000 1150000 0  250000 1150000 0  300000 1150000 0  350000 1150000 0  400000 1150000 0  450000 1150000 0  500000 1150000 0  550000 1150000 0  600000 1150000 0  650000 1150000 0  700000 1150000 0  750000 1150000 0  800000 1150000 0  850000 1150000 0  900000 1150000 0  950000 1150000 0  1000000 1150000 0  0 1200000 0  50000 1200000 0  100000 1200000 0  150000 1200000 0  200000 1200000 0  250000 1200000 0  300000 1200000 0  350000 1200000 0  400000 1200000 0  450000 1200000 0  500000 1200000 0  550000 1200000 0  600000 1200000 0  650000 1200000 0  700000 1200000 0  750000 1200000 0  800000 1200000 0  850000 1200000 0  900000 1200000 0  950000 1200000 0  1000000 1200000 0  0 1250000 0  50000 1250000 0  100000 1250000 0  150000 1250000 0  200000 1250000 0  250000 1250000 0  300000 1250000 0  350000 1250000 0  400000 1250000 0  450000 1250000 0  500000 1250000 0  550000 1250000 0  600000 1250000 0  650000 1250000 0  700000 1250000 0  750000 1250000 0  800000 1250000 0  850000 1250000 0  900000 1250000 0  950000 1250000 0  1000000 1250000 0  0 1300000 0  50000 1300000 0  100000 1300000 0  150000 1300000 0  200000 1300000 0  250000 1300000 0  300000 1300000 0  350000 1300000 0  400000 1300000 0  450000 1300000 0  500000 1300000 0  550000 1300000 0  600000 1300000 0  650000 1300000 0  700000 1300000 0  750000 1300000 0  800000 1300000 0  850000 1300000 0  900000 1300000 0  950000 1300000 0  1000000 1300000 0  0 1350000 0  50000 1350000 0  100000 1350000 0  150000 1350000 0  200000 1350000 0  250000 1350000 0  300000 1350000 0  350000 1350000 0  400000 1350000 0  450000 1350000 0  500000 1350000 0  550000 1350000 0  600000 1350000 0  650000 1350000 0  700000 135
[...]
<PointData  Scalars="f_25027"> 
<DataArray  type="Float64"  Name="f_25027"  format="ascii">-1.2514130920073545e-03  -1.4355790594266559e-05  -4.6102450132663721e-05  3.7146254652485269e-05  8.5155080005704597e-05  1.2079973659039485e-04  1.5162174849978790e-04  1.7868212478097084e-04  2.0354814094733384e-04  2.2711840690718642e-04  2.5008362507365539e-04  2.7304802207588422e-04  2.9661830271675917e-04  3.2146950137850372e-04  3.4853290985216640e-04  3.7954378945202093e-04  4.1327234406407921e-04  4.6983846069936221e-04  5.4289755041131730e-04  3.3972356936553719e-04  4.1611768244553034e-03  -1.3273030445103972e-04  -7.9426584723010714e-05  -5.8100355623661794e-05  4.3769449832821180e-05  8.3526637035328865e-05  1.2075708381078142e-04  1.5150516041260938e-04  1.7859226802339765e-04  2.0350660376324643e-04  2.2710968817403227e-04  2.5010909802389725e-04  2.7311146588365824e-04  2.9672330794364670e-04  3.2164545469580495e-04  3.4882883571397532e-04  3.7943658502554838e-04  4.1650530619133732e-04  4.6468994892924921e-04  5.1080862492187875e-04  7.5852638362190554e-04  4.7352445799602556e-04  -3.5030211515418477e-05  -4.9795459206520994e-05  1.4617486024548768e-05  6.0039467461925823e-05  9.2117961258531147e-05  1.2661647055979143e-04  1.5484431545857634e-04  1.8073024716955526e-04  2.0477793949856335e-04  2.2772480212990525e-04  2.5016076843260940e-04  2.7260566908099388e-04  2.9558565790242596e-04  3.1969458204331088e-04  3.4565676206322189e-04  3.7450933810650414e-04  4.0770687032285266e-04  4.4562195981629100e-04  5.0068289370313853e-04  5.1912842026483334e-04  5.2238680527757933e-04  3.0489165810623213e-05  3.4355342915038764e-05  5.5869091590402732e-05  7.8478916428744472e-05  1.0834724803406468e-04  1.3595611095537757e-04  1.6085576798162049e-04  1.8463100481595047e-04  2.0710334529550385e-04  2.2883272922762972e-04  2.5019399829257698e-04  2.7156747888361750e-04  2.9333685649631316e-04  3.1590787612982297e-04  3.3972636328036623e-04  3.6525686366493249e-04  3.9274222052912124e-04  4.2253239026359877e-04  4.4916070126957376e-04  4.6859219847481426e-04  4.7765083438118424e-04  7.5740976376955093e-05  7.4955770474482069e-05  8.5323593820684908e-05  1.0392651006520623e-04  1.2556879116978252e-04  1.4697101748445738e-04  1.6860536603279089e-04  1.8970349870858313e-04  2.1019439309542603e-04  2.3031145621369106e-04  2.5021964432130121e-04  2.7014203846742799e-04  2.9029642971082709e-04  3.1088844775376153e-04  3.3207655390170185e-04  3.5387874268665416e-04  3.7601801827145357e-04  3.9721207725629493e-04  4.1515693246078569e-04  4.2579983909549549e-04  4.2239548528705891e-04  1.0615121257738272e-04  1.0587237816382497e-04  1.1310648183699155e-04  1.2557767174616039e-04  1.4115019988935945e-04  1.5864450268558139e-04  1.7693504546212807e-04  1.9531999821922511e-04  2.1369720543058571e-04  2.3199343046768000e-04  2.5023118501918862e-04  2.6848195738953803e-04  2.8681128047326537e-04  3.0525290898156769e-04  3.2375447740468614e-04  3.4209148695914373e-04  3.5969979536019811e-04  3.7550870384394725e-04  3.8777482211350441e-04  3.9417969326681752e-04  3.9408600344058146e-04  1.2966885803069258e-04  1.2945846885318760e-04  1.3433476807422242e-04  1.4337336798457437e-04  1.5556295779086744e-04  1.6974737428761185e-04  1.8505316732291807e-04  2.0100813906867069e-04  2.1729948585194164e-04  2.3373502231881858e-04  2.5023215248131195e-04  2.6673838662629042e-04  2.8320101623311616e-04  2.9952967566730182e-04  3.1554709986892255e-04  3.3092346384934370e-04  3.4509875130085146e-04  3.5721584613985190e-04  3.6614793798598976e-04  3.7079729991753853e-04  3.7043123698719154e-04  1.4796393071643969e-04  1.4776743365692191e-04  1.5141507526925905e-04  1.5838942572104321e-04  1.6803966200720305e-04  1.7963288429762822e-04  1.9257824958252549e-04  2.0640321377295807e-04  2.2076053070224560e-04  2.3542221911768813e-04  2.5022437029993764e-04  2.6503184326066653e-04  2.7971057052567826e-04  2.9409255152257726e-04  3.0793985786880602e-04  3.2090581913054613e-04  3.3250132444084444e-04  3.4209002141666632e-04  3.4895361139869636e-04  3.5242529148276497e-04  3.5214267016157056e-04  1.6242541707138915e-04  1.6226385646169616e-04  1.6512064013205388e-04  1.7067376377220657e-04  1.7853482644674995e-04  1.8821859841144283e-04  1.9926474320245961e-04  2.1127314585549605e-04  2.2392737425643236e-04  2.3697577377502753e-04  2.5021062265383816e-04  2.6344849856304551e-04  2.7650523231316374e-04  2.8917144455814454e-04  3.0118919016124492e-04  3.1223156171071814e-04  3.2189317011388204e-04  3.2970482362521073e-04  3.3518328684719353e-04  3.3792102381176612e-04  3.3770858960865729e-04  1.7389122486274203e-04  1.7375119282265507e-04  1.7607470800774734e-04  1.8065176634630381e-04  1.8722786182131357e-04  1.9545817578190688e-04  2.0499390815874579e-04  2.1550764251496111e-04  2.2670953916518170e-04  2.3834618843008939e-04  2.5019343962514191e-04  2.6204210363868870e-04  2.7368203082084536e-04  2.8488680254400660e-04  2.9539993891457321e-04  3.0492612028063833e-04  3.1313226571541856e-04  3.1966483851087596e-04  3.2418588797930922e-04  3.2642799374818363e-04  3.2625049369230133e-04  1.8291273578172122e-04  1.8278909825217307e-04  1.8474307457088990e-04  1.8862642831826080e-04  1.9426119307782309e-04  2.0139390878860742e-04  2.0975234099217531e-04  2.1906175833636744e-04  2.2906133329175161e-04  2.3950819070743220e-04  2.5017474858157453e-04  2.6084156921925354e-04  2.7128871334403836e-04  2.8128693078046855e-04  2.9059083969451219e-04  2.9893670715914713e-04  3.0604744939155315e-04  3.1164804199252326e-04  3.1548981518730092e-04  3.1738561048403637e-04  3.1723581929892034e-04  1.8987533316317814e-04  1.8976365864431923e-04  1.9145663631245976e-04  1.9484352320584512e-04  1.9979197200932459e-04  2.0610541847424841e-04  2.1356254552552068e-04  2.2192848307394823e-04  2.3096826766938334e-04  2.4045195751232131e-04  2.5015562845270557e-04  2.5985899729399561e-04  2.6934144300734211e-04  2.7837803201817801e-04  2.8673728516055670e-04  2.9418241866940295e-04  3.0047744091404497e-04  3.0539976036724441e-04  3.0875634833382693e-04  3.1040810781225443e-04  3.1027794632884490e-04  1.9504940735340498e-04  1.9494597122637677e-04  1.9645649742891690e-04  1.9949373230036246e-04  2.0395237804327231e-04  2.0967157002442255e-04  2.1646377607364010e-04  2.2412235727227174e-04  2.3243241650685949e-04  2.4117633596783649e-04  2.5013667181355892e-04  2.5909653250725634e-04  2.6783880028450154e-04  2.7614540216316019e-04  2.8379785013505379e-04  2.9058025819321374e-04  2.9628545420949274e-04  3.0072523648971475e-04  3.0374124422155547e-04  3.0522346177072520e-04  3.0510735061501656e-04  1.9862305742079255e-04  1.9852470442118539e-04  1.9991361673973523e-04  2.0271747508727959e-04  2.0684663884318070e-04  2.1216202020182828e-04  2.1849729920184752e-04  2.2566443841546494e-04  2.3346274853147160e-04  2.4168437855907050e-04  2.5011811802718592e-04  2.5855143138139110e-04  2.6677165928373173e-04  2.7456724193907503e-04  2.8172985477172344e-04  2.8805829870091350e-04  2.9336432095400925e-04  2.9748126631972332e-04  3.0027162726766762e-04  3.0164275907855725e-04  3.0153646175422148e-04  2.0072050092316643e-04  2.0062436936446802e-04  2.0194223486664752e-04  2.0461107666496436e-04  2.0854918685443149e-04  2.1362933029838577e-04  2.1969683518114665e-04  2.2657422964534089e-04  2.3406922428386830e-04  2.4198010125909823e-04  2.5009994716327337e-04  2.5821954985496881e-04  2.6612964264114336e-04  2.7362315919536161e-04  2.8049817738177573e-04  2.8656219179048028e-04  2.9163765723411828e-04  2.9556976361780758e-04  2.9823204145285661e-04  2.9954131956113950e-04  2.9944135462901686e-04  2.0141265289395848e-04  2.0131600010862738e-04  2.0260794713100326e-04  2.0523062460699805e-04  2.0910431103141712e-04  2.1410576300778521e-04  2.2008398588186731e-04  2.2686491505092581e-04  2.3425897718231214e-04  2.4206648375859713e-04  2.5008199895969939e-04  2.5809751416087283e-04  2.6590502073736645e-04  2.7329908286907745e-04  2.8008001203854365e-04  2.8605823491307630e-04  2.9105968688988642e-04  2.9493337331469035e-04  2.9755605079096701e-04  2.9884799781348676e-04  2.9875134502816618e-04  2.0072264329311465e-04  2.0062267836098134e-04  2.0193195646911667e-04  2.0459423430387456e-04  2.0852634068716731e-04  2.1360180613034876e-04  2.1966582053858978e-04  2.2654083872458404e-04  2.3403435527846809e-04  2.4194444806442959e-04  2.5006405075605288e-04  2.5818389666030383e-04  2.6609477363575098e-04  2.7358976827461577e-04  2.8046716273923573e-04  2.8653466762246612e-04  2.9161481106688368e-04  2.9555292125675380e-04  2.9822176305536731e-04  2.9953962855769860e-04  2.9944349699901197e-04  1.9862753616797695e-04  1.9852123884363159e-04  1.9989237065435738e-04  2.0268273160197817e-04  2.0679967696725035e-04  2.1210569921983958e-04  2.1843414314851720e-04  2.2559675598070271e-04  2.3339233863568060e-04  2.4161256653778895e-04  2.5004587989191601e-04  2.5847961936011592e-04  2.6670124938795489e-04  2.7449955950433592e-04  2.8166669871842667e-04  2.8800197771897075e-04  2.9331735907813829e-04  2.9744652283449422e-04  3.0025038118237501e-04  3.0163929350109791e-04  3.0154094050150300e-04  1.9505664730732372e-04  1.9494053615160339e-04  1.9642275370057900e-04  1.9943876143203350e-04  2.0387854371173067e-04  2.0958373972741049e-04  2.1636614778496917e-04  2.2401859575632362e-04  2.3232519763455959e-04  2.4106746541153722e-04  2.5002732610514603e-04  2.5898766195096666e-04  2.6773158141222170e-04  2.7604164064724449e-04  2.8370022184643110e-04  2.9049242789626871e-04  2.9621161987803925e-04  3.0067026562149724e-04  3.0370750049334855e-04  3.0521802669609846e-04  3.0511459056908489e-04  1.8988605159372582e-04  1.8975589011030404e-04  1.9140764958848773e-04  1.9476423755458369e-04  1.9968655700712402e-04  2.0598157925102157e-04  2.1342671275912956e-04  2.2178596590085353e-04  2.3082255491118142e-04  2.4030500062420862e-04  2.5000836946539314e-04  2.5971204040589396e-04  2.6919573024916367e-04  2.7823551484512242e-04  2.8660145239422488e-04  2.9405857944626195e-04  3.0037202591196190e-04  3.0532047471613390e-04  3.0870736161003762e-04  3.1040033927844687e-04  3.1028866475960514e-04  1.8292817862400359e-04  1.8277838743887404e-04  1.8467418273528826e-04  1.8851595592942285e-04  1.9411654852953075e-04  2.0122729076097709e-04  2.0957315822467604e-04  2.1887706713790415e-04  2.2887528457371075e-04  2.3932242869810708e-04  2.4998924933565764e-04  2.6065580720993918e-04  2.7110266462602095e-04  2.8110223958204694e-04  2.9041165692707933e-04  2.9877008913161747e-04  3.0590280484340404e-04  3.1153756960387825e-04  3.1542092335194103e-04  3.1737489967101790e-04  3.1725126214149146e-04  1.7391350423114364e-04  1.7373600417524814e-04  1.7597810994368136e-04  1.8049915941123230e-04  1.8703173220552212e-04  1.9523787763903232e-04  2.0476405900388958e-04  2.1527719537342961e-04  2.2648196709582213e-04  2.3812189427750697e-04  2.4997055829089704e-04  2.6181780948611455e-04  2.7345445875150609e-04  2.8465635540251346e-04  2.9517008975978059e-04  3.0470582213786728e-04  3.1293613609978974e-04  3.1951223157604115e-04  3.2408928991555565e-04  3.2641280510114953e-04  3.2627277306109025e-04  1.6245540831555619e-04  1.6224297411242800e-04  1.6498071107637260e-04  1.7045917429709930e-04  1.7827082780680285e-04  1.8793243620825805e-04  1.9897480775616435e-04  2.1099255335798044e-04  2.2365876560202644e-04  2.3671549935158187e-04  2.4995337526060311e-04  2.6318822413960485e-04  2.7623662365877015e-04  2.8889085206065237e-04  3.0089925471500054e-04  3.1194539950763720e-04  3.2162917147411240e-04  3.2949023415037741e-04  3.3504335779190497e-04  3.3790014146299738e-04  3.3773858085334174e-04  1.4802132776373111e-04  1.4773870644254448e-04  1.5121038652568715e-04  1.5807397650585491e-04  1.6766267347936048e-04  1.7925817878734068e-04  1.9222414004706759e-04  2.0607144639172783e-04  2.2045342738753198e-04  2.3513215465190341e-04  2.4993962761242185e-04  2.6474177879488094e-04  2.7940346721096204e-04  2.9376078414135347e-04  3.0758574833337956e-04  3.2053111362030678e-04  3.3212433591311004e-04  3.4177457220176198e-04  3.4874892265563512e-04  3.5239656426907834e-04  3.5220006720959081e-04  1.2973276093971990e-04  1.2936669800947895e-04  1.3401605993950536e-04  1.4294815178278911e-04  1.5506524661841313e-04  1.6924053406679036e-04  1.8461689804470454e-04  2.0063432224450998e-04  2.1696298167750219e-04  2.3342561128365772e-04  2.4993184542841857e-04  2.6642897559111980e-04  2.8286451205865955e-04  2.9915585884312840e-04  3.1511083059066131e-04  3.3041662362849980e-04  3.4460104012859960e-04  3.5679062993848333e-04  3.6582922985188890e-04  3.7070552907467321e-04  3.7049513989729490e-04  1.0607799448945061e-04  1.0598430466243662e-04  1.1238917581352229e-04  1.2465529407841393e-04  1.4046420255714456e-04  1.5807251095411221e-04  1.7640952050565858e-04  1.9491108892689260e-04  2.1335271743406028e-04  2.3168204051718884e-04  2.4993281288734789e-04  2.6817056743902912e-04  2.8646679247671503e-04  3.0484399968917097e-04  3.2322895244812395e-04  3.4151949522773798e-04  3.5901379802775427e-04  3.7458632617556642e-04  3.8705751609041168e-04  3.9429161976732536e-04  3.9401278535374884e-04  7.7768512642282091e-05  7.4364158838101290e-05  8.5007065468202875e-05  1.0295192066422708e-04  1.2414597964195492e-04  1.4628525522181903e-04  1.6808744400393725e-04  1.8927555015033952e-04  2.0986756819249113e-04  2.3002195943552816e-04  2.4994435358154403e-04  2.6985254168924235e-04  2.8996960480785137e-04  3.1046049919541523e-04  3.3155863187285577e-04  3.5319298042372154e-04  3.7459520674269125e-04  3.9623748785698156e-04  4.1484040411114595e-04  4.2520822746098066e-04  4.2442302155747504e-04  2.2513163568052972e-05  3.1571799468019888e-05  5.1003296658325549e-05  7.7631607651495489e-05  1.0742177737592764e-04  1.3490713423593286e-04  1.6043763461884552e-04  1.8425612176893556e-04  2.0682714140242962e-04  2.2859651901520797e-04  2.4996999960627927e-04  2.7133126867116608e-04  2.9306065260317798e-04  3.1553299308272954e-04  3.3930822991756147e-04  3.6420788694483194e-04  3.9181674987225946e-04  4.2168508148457016e-04  4.4429490632597231e-04  4.6580865502433106e-04  4.6967483213907466e-04  -2.2222807336955337e-05  -1.8964422331413405e-05  -5.1889578058529179e-07  5.4542038077776366e-05  9.2457127566878934e-05  1.2565465978316991e-04  1.5450723582800062e-04  1.8046941584944702e-04  2.0457833999151974e-04  2.2755832881366791e-04  2.5000322946227790e-04  2.7243919576471317e-04  2.9538605839530451e-04  3.1943375072310894e-04  3.4531968243243312e-04  3.7354752733011437e-04  4.0804603663186282e-04  4.4012453042713062e-04  4.8554651190523229e-04  5.4995945720471141e-04  5.3519420947133623e-04  2.6639540089327445e-05  -2.5836238568536076e-04  -1.0644627062104242e-05  3.5474048934055429e-05  8.3658691679459359e-05  1.2072741285338808e-04  1.5133516217017440e-04  1.7851854319205792e-04  2.0344068994655525e-04  2.2705253200783161e-04  2.5005489986797759e-04  2.7305430971736569e-04  2.9665739412677058e-04  3.2157172986412046e-04  3.4865883747113054e-04  3.7940691406771479e-04  4.1663736083184420e-04  4.5639454803438246e-04  5.5826435348472700e-04  5.7959058252759533e-04  6.3289430239808536e-04  -3.6610128248613367e-03  1.6044042831026063e-04  -4.2733552526913632e-05  3.0325537172088402e-05  8.6891653807927969e-05  1.2062020842678163e-04  1.5163108803220308e-04  1.7869449650939978e-04  2.0354569517344584e-04  2.2711597581559495e-04  2.5008037281819430e-04  2.7304559098417281e-04  2.9661585694262257e-04  3.2148187310648688e-04  3.4854224938398137e-04  3.7936426128723467e-04  4.1500891786408082e-04  4.6301774321776676e-04  5.4626644797034474e-04  5.1451978843839905e-04  1.7515770909188599e-03  </DataArray> 
</PointData> 
</Piece>
</UnstructuredGrid>
</VTKFile>