<?xml version="1.0"?>
<VTKFile type="UnstructuredGrid"  version="0.1"  >
<UnstructuredGrid>
<Piece  NumberOfPoints="651" NumberOfCells="1200">
<Points>
<DataArray  type="Float64"  NumberOfComponents="3"  format="ascii">0 0 0  50000 0 0  100000 0 0  150000 0 0  200000 0 0  250000 0 0  300000 0 0  350000 0 0  400000 0 0  450000 0 0  500000 0 0  550000 0 0  600000 0 0  650000 0 0  700000 0 0  750000 0 0  800000 0 0  850000 0 0  900000 0 0  950000 0 0  1000000 0 0  0 50000 0  50000 50000 0  100000 50000 0  150000 50000 0  200000 50000 0  250000 50000 0  300000 50000 0  350000 50000 0  400000 50000 0  450000 50000 0  500000 50000 0  550000 50000 0  600000 50000 0  650000 50000 0  700000 50000 0  750000 50000 0  800000 50000 0  850000 50000 0  900000 50000 0  950000 50000 0  1000000 50000 0  0 100000 0  50000 100000 0  100000 100000 0  150000 100000 0  200000 100000 0  250000 100000 0  300000 100000 0  350000 100000 0  400000 100000 0  450000 100000 0  500000 100000 0  550000 100000 0  600000 100000 0  650000 100000 0  700000 100000 0  750000 100000 0  800000 100000 0  850000 100000 0  900000 100000 0  950000 100000 0  1000000 100000 0  0 150000 0  50000 150000 0  100000 150000 0  150000 150000 0  200000 150000 0  250000 150000 0  300000 150000 0  350000 150000 0  400000 150000 0  450000 150000 0  500000 150000 0  550000 150000 0  600000 150000 0  650000 150000 0  700000 150000 0  750000 150000 0  800000 150000 0  850000 150000 0  900000 150000 0  950000 150000 0  1000000 150000 0  0 200000 0  50000 200000 0  100000 200000 0  150000 200000 0  200000 200000 0  250000 200000 0  300000 200000 0  350000 200000 0  400000 200000 0  450000 200000 0  500000 200000 0  550000 200000 0  600000 200000 0  650000 200000 0  700000 200000 0  750000 200000 0  800000 200000 0  850000 200000 0  900000 200000 0  950000 200000 0  1000000 200000 0  0 250000 0  50000 250000 0  100000 250000 0  150000 250000 0  200000 250000 0  250000 250000 0  300000 250000 0  350000 250000 0  400000 250000 0  450000 250000 0  500000 250000 0  550000 250000 0  600000 250000 0  650000 250000 0  700000 250000 0  750000 250000 0  800000 250000 0  850000 250000 0  900000 250000 0  950000 250000 0  1000000 250000 0  0 300000 0  50000 300000 0  100000 300000 0  150000 300000 0  200000 300000 0  250000 300000 0  300000 300000 0  350000 300000 0  400000 300000 0  450000 300000 0  500000 300000 0  550000 300000 0  600000 300000 0  650000 300000 0  700000 300000 0  750000 300000 0  800000 300000 0  850000 300000 0  900000 300000 0  950000 300000 0  1000000 300000 0  0 350000 0  50000 350000 0  100000 350000 0  150000 350000 0  200000 350000 0  250000 350000 0  300000 350000 0  350000 350000 0  400000 350000 0  450000 350000 0  500000 350000 0  550000 350000 0  600000 350000 0  650000 350000 0  700000 350000 0  750000 350000 0  800000 350000 0  850000 350000 0  900000 350000 0  950000 350000 0  1000000 350000 0  0 400000 0  50000 400000 0  100000 400000 0  150000 400000 0  200000 400000 0  250000 400000 0  300000 400000 0  350000 400000 0  400000 400000 0  450000 400000 0  500000 400000 0  550000 400000 0  600000 400000 0  650000 400000 0  700000 400000 0  750000 400000 0  800000 400000 0  850000 400000 0  900000 400000 0  950000 400000 0  1000000 400000 0  0 450000 0  50000 450000 0  100000 450000 0  150000 450000 0  200000 450000 0  250000 450000 0  300000 450000 0  350000 450000 0  400000 450000 0  450000 450000 0  500000 450000 0  550000 450000 0  600000 450000 0  650000 450000 0  700000 450000 0  750000 450000 0  800000 450000 0  850000 450000 0  900000 450000 0  950000 450000 0  1000000 450000 0  0 500000 0  50000 500000 0  100000 500000 0  150000 500000 0  200000 500000 0  250000 500000 0  300000 500000 0  350000 500000 0  400000 500000 0  450000 500000 0  500000 500000 0  550000 500000 0  600000 500000 0  650000 500000 0  700000 500000 0  750000 500000 0  800000 500000 0  850000 500000 0  900000 500000 0  950000 500000 0  1000000 500000 0  0 550000 0  50000 550000 0  100000 550000 0  150000 550000 0  200000 550000 0  250000 550000 0  300000 550000 0  350000 550000 0  400000 550000 0  450000 550000 0  500000 550000 0  550000 550000 0  600000 550000 0  650000 550000 0  700000 550000 0  750000 550000 0  800000 550000 0  850000 550000 0  900000 550000 0  950000 550000 0  1000000 550000 0  0 600000 0  50000 600000 0  100000 600000 0  150000 600000 0  200000 600000 0  250000 600000 0  300000 600000 0  350000 600000 0  400000 600000 0  450000 600000 0  500000 600000 0  550000 600000 0  600000 600000 0  650000 600000 0  700000 600000 0  750000 600000 0  800000 600000 0  850000 600000 0  900000 600000 0  950000 600000 0  1000000 600000 0  0 650000 0  50000 650000 0  100000 650000 0  150000 650000 0  200000 650000 0  250000 650000 0  300000 650000 0  350000 650000 0  400000 650000 0  450000 650000 0  500000 650000 0  550000 650000 0  600000 650000 0  650000 650000 0  700000 650000 0  750000 650000 0  800000 650000 0  850000 650000 0  900000 650000 0  950000 650000 0  1000000 650000 0  0 700000 0  50000 700000 0  100000 700000 0  150000 700000 0  200000 700000 0  250000 700000 0  300000 700000 0  350000 700000 0  400000 700000 0  450000 700000 0  500000 700000 0  550000 700000 0  600000 700000 0  650000 700000 0  700000 700000 0  750000 700000 0  800000 700000 0  850000 700000 0  900000 700000 0  950000 700000 0  1000000 700000 0  0 750000 0  50000 750000 0  100000 750000 0  150000 750000 0  200000 750000 0  250000 750000 0  300000 750000 0  350000 750000 0  400000 750000 0  450000 750000 0  500000 750000 0  550000 750000 0  600000 750000 0  650000 750000 0  700000 750000 0  750000 750000 0  800000 750000 0  850000 750000 0  900000 750000 0  950000 750000 0  1000000 750000 0  0 800000 0  50000 800000 0  100000 800000 0  150000 800000 0  200000 800000 0  250000 800000 0  300000 800000 0  350000 800000 0  400000 800000 0  450000 800000 0  500000 800000 0  550000 800000 0  600000 800000 0  650000 800000 0  700000 800000 0  750000 800000 0  800000 800000 0  850000 800000 0  900000 800000 0  950000 800000 0  1000000 800000 0  0 850000 0  50000 850000 0  100000 850000 0  150000 850000 0  200000 850000 0  250000 850000 0  300000 850000 0  350000 850000 0  400000 850000 0  450000 850000 0  500000 850000 0  550000 850000 0  600000 850000 0  650000 850000 0  700000 850000 0  750000 850000 0  800000 850000 0  850000 850000 0  900000 850000 0  950000 850000 0  1000000 850000 0  0 900000 0  50000 900000 0  100000 900000 0  150000 900000 0  200000 900000 0  250000 900000 0  300000 900000 0  350000 900000 0  400000 900000 0  450000 900000 0  500000 900000 0  550000 900000 0  600000 900000 0  650000 900000 0  700000 900000 0  750000 900000 0  800000 900000 0  850000 900000 0  900000 900000 0  950000 900000 0  1000000 900000 0  0 950000 0  50000 950000 0  100000 950000 0  150000 950000 0  200000 950000 0  250000 950000 0  300000 950000 0  350000 950000 0  400000 950000 0  450000 950000 0  500000 950000 0  550000 950000 0  600000 950000 0  650000 950000 0  700000 950000 0  750000 950000 0  800000 950000 0  850000 950000 0  900000 950000 0  950000 950000 0  1000000 950000 0  0 1000000 0  50000 1000000 0  100000 1000000 0  150000 1000000 0  200000 1000000 0  250000 1000000 0  300000 1000000 0  350000 1000000 0  400000 1000000 0  450000 1000000 0  500000 1000000 0  550000 1000000 0  600000 1000000 0  650000 1000000 0  700000 1000000 0  750000 1000000 0  800000 1000000 0  850000 1000000 0  900000 1000000 0  950000 1000000 0  1000000 1000000 0  0 1050000 0  50000 1050000 0  100000 1050000 0  150000 1050000 0  200000 1050000 0  250000 1050000 0  300000 1050000 0  350000 1050000 0  400000 1050000 0  450000 1050000 0  500000 1050000 0  550000 1050000 0  600000 1050000 0  650000 1050000 0  700000 1050000 0  750000 1050000 0  800000 1050000 0  850000 1050000 0  900000 1050000 0  950000 1050000 0  1000000 1050000 0  0 1100000 0  50000 1100000 0  100000 1100000 0  150000 1100000 0  200000 1100000 0  250000 1100000 0  300000 1100000 0  350000 1100000 0  400000 1100000 0  450000 1100000 0  500000 1100000 0  550000 1100000 0  600000 1100000 0  650000 1100000 0  700000 1100000 0  750000 1100000 0  800000 1100000 0  850000 1100000 0  900000 1100000 0  950000 1100000 0  1000000 1100000 0  0 1150000 0  50000 1150000 0  100000 1150000 0  150000 1150000 0  200000 1150000 0  250000 1150000 0  300000 1150000 0  350000 1150000 0  400000 1150000 0  450000 1150000 0  500000 1150000 0  550000 1150000 0  600000 1150000 0  650000 1150000 0  700000 1150000 0  750000 1150000 0  800000 1150000 0  850000 1150000 0  900000 1150000 0  950000 1150000 0  1000000 1150000 0  0 1200000 0  50000 1200000 0  100000 1200000 0  150000 1200000 0  200000 1200000 0  250000 1200000 0  300000 1200000 0  350000 1200000 0  400000 1200000 0  450000 1200000 0  500000 1200000 0  550000 1200000 0  600000 1200000 0  650000 1200000 0  700000 1200000 0  750000 1200000 0  800000 1200000 0  850000 1200000 0  900000 1200000 0  950000 1200000 0  1000000 1200000 0  0 1250000 0  50000 1250000 0  100000 1250000 0  150000 1250000 0  200000 1250000 0  250000 1250000 0  300000 1250000 0  350000 1250000 0  400000 1250000 0  450000 1250000 0  500000 1250000 0  550000 1250000 0  600000 1250000 0  650000 1250000 0  700000 1250000 0  750000 1250000 0  800000 1250000 0  850000 1250000 0  900000 1250000 0  950000 1250000 0  1000000 1250000 0  0 1300000 0  50000 1300000 0  100000 1300000 0  150000 1300000 0  200000 1300000 0  250000 1300000 0  300000 1300000 0  350000 1300000 0  400000 1300000 0  450000 1300000 0  500000 1300000 0  550000 1300000 0  600000 1300000 0  650000 1300000 0  700000 1300000 0  750000 1300000 0  800000 1300000 0  850000 1300000 0  900000 1300000 0  950000 1300000 0  1000000 1300000 0  0 1350000 0  50000 1350000 0  100000 1350000 0  150000 1350000 0  200000 1350000 0  250000 1350000 0  300000 1350000 0  350000 1350000 0  400000 1350000 0  450000 1350000 0  500000 1350000 0  550000 1350000 0  600000 1350000 0  650000 1350000 0  700000 135
[...]
<PointData  Scalars="f_25027"> 
<DataArray  type="Float64"  Name="f_25027"  format="ascii">-1.6660104421295155e-04  2.2025215005663719e-04  2.4645753142935246e-04  2.8250940348203610e-04  3.0894606036491765e-04  3.2916523553192786e-04  3.4644248750615250e-04  3.6182810847043372e-04  3.7601748734759726e-04  3.8950310079498670e-04  4.0266052498743883e-04  4.1581747797309401e-04  4.2930143717259998e-04  4.4348825963135105e-04  4.5887471885018246e-04  4.7612160919304928e-04  4.9621107163748889e-04  5.2420767483384349e-04  5.5623139707766417e-04  5.4753381327156967e-04  1.6369177745744711e-03  1.9414823844960283e-04  2.2433644744463549e-04  2.4587062147362286e-04  2.8614409343342219e-04  3.1001530614418858e-04  3.2981420958036624e-04  3.4686793149934109e-04  3.6209242817205174e-04  3.7617521251077284e-04  3.8958047898142239e-04  4.0266883364655837e-04  4.1575813301070067e-04  4.2916669800009417e-04  4.4325753546734084e-04  4.5849293089979596e-04  4.7553781037887273e-04  4.9560021717799890e-04  5.2005698305605081e-04  5.4981721785319953e-04  6.3561801575682164e-04  5.6392814752179556e-04  2.4644797890034892e-04  2.4733283256294459e-04  2.7349737784463079e-04  2.9676058042429383e-04  3.1565244780989787e-04  3.3337711389254903e-04  3.4911916239945895e-04  3.6352175432166069e-04  3.7703413418691494e-04  3.8999624733678282e-04  4.0269785973088683e-04  4.1540404383726522e-04  4.2838114488193217e-04  4.4192407125324880e-04  4.5638981761332733e-04  4.7224390270421293e-04  4.9005256425338191e-04  5.1048041440145413e-04  5.3597129108594896e-04  5.5225451497875415e-04  5.5836638699264401e-04  2.7941171531802820e-04  2.8260472000018935e-04  2.9469290094829887e-04  3.0856054371348698e-04  3.2393581941738043e-04  3.3875898351377664e-04  3.5264987421506489e-04  3.6581935584120901e-04  3.7842660272911343e-04  3.9066273646816565e-04  4.0271878590844638e-04  4.1478120369723424e-04  4.2703799470968491e-04  4.3968538645261789e-04  4.5292958225298262e-04  4.6696810643012633e-04  4.8192614942094587e-04  4.9769847844870988e-04  5.1253465875926224e-04  5.2336180835341856e-04  5.2746306676677553e-04  3.0304984279817739e-04  3.0440646669171670e-04  3.1118618710578846e-04  3.2127404394819380e-04  3.3296272896533380e-04  3.4496880289134208e-04  3.5693725259976038e-04  3.6868513644666310e-04  3.8018825932236593e-04  3.9150719434487941e-04  4.0273188956622058e-04  4.1396345110215893e-04  4.2530430830115212e-04  4.3684821874239864e-04  4.4866132381245520e-04  4.6074011402494423e-04  4.7291819390903283e-04  4.8463891209236032e-04  4.9470653609976617e-04  5.0134886164454129e-04  5.0220050683893915e-04  3.1990929786261159e-04  3.2075350051545461e-04  3.2535572057439713e-04  3.3260753742662307e-04  3.4150672149120006e-04  3.5129136529667610e-04  3.6148375580172064e-04  3.7180613643553607e-04  3.8214036839070742e-04  3.9244984944842280e-04  4.0274064844273924e-04  4.1303756322742471e-04  4.2336602728663405e-04  4.3373387486309191e-04  4.4410558343166960e-04  4.5435968510986748e-04  4.6421776053574013e-04  4.7315154011504432e-04  4.8033506873016541e-04  4.8470496768092077e-04  4.8547611212193764e-04  3.3287683222844974e-04  3.3348600330356621e-04  3.3679734518557918e-04  3.4222939686563719e-04  3.4923074031943002e-04  3.5726286315660382e-04  3.6591818017397276e-04  3.7492659655360917e-04  3.8412348147414120e-04  3.9341340891236025e-04  4.0274266890113515e-04  4.1207666034829399e-04  4.2138080791202998e-04  4.3060123560857754e-04  4.3964113639538164e-04  4.4832957279774936e-04  4.5638380729430967e-04  4.6337976265383357e-04  4.6876000428170480e-04  4.7193917225236569e-04  4.7250109350510449e-04  3.4308115930913816e-04  3.4353653979238828e-04  3.4605776609881485e-04  3.5030953207231815e-04  3.5595738890283030e-04  3.6263035213329151e-04  3.7001520021971170e-04  3.7787034661204753e-04  3.8602038037819129e-04  3.9434079860200622e-04  4.0274010088837129e-04  4.1114263352449423e-04  4.1947245386279197e-04  4.2763696065146821e-04  4.3550909062915798e-04  4.4290829865018102e-04  4.4958421023436155e-04  4.5521311401292285e-04  4.5942213438758333e-04  4.6186074354694789e-04  4.6227903249682989e-04  3.5119192452362383e-04  3.5154989079837332e-04  3.5355710448061530e-04  3.5700062900197150e-04  3.6166668089934902e-04  3.6729749302002014e-04  3.7365329141535251e-04  3.8052759028709440e-04  3.8775219735315790e-04  3.9519183686428808e-04  4.0273421300873963e-04  4.1027853425191563e-04  4.1772362892753711e-04  4.2495594142804514e-04  4.3183776131590709e-04  4.3819707274374081e-04  4.4382239442389943e-04  4.4846851727716331e-04  4.5187835884222548e-04  4.5382811894267096e-04  4.5416154272056078e-04  3.5764852177930473e-04  3.5794126721655966e-04  3.5959623606689732e-04  3.6246827496500439e-04  3.6641340675830104e-04  3.7124587724545778e-04  3.7677943106191088e-04  3.8283996420124163e-04  3.8927274093251280e-04  3.9594199260573396e-04  4.0272626372073016e-04  4.0951153731567133e-04  4.1618344979924509e-04  4.2261947148479592e-04  4.2868197510581709e-04  4.3421365505347758e-04  4.3903757530046686e-04  4.4296485959001631e-04  4.4581091452835652e-04  4.4742500988989142e-04  4.4770066608752670e-04  3.6274629366538107e-04  3.6299348068143887e-04  3.6439996464309777e-04  3.6686048501030421e-04  3.7027231490815402e-04  3.7449562911676186e-04  3.7938193296808769e-04  3.8478329024354277e-04  3.9055918307785362e-04  3.9657833226017339e-04  4.0271720302096330e-04  4.0885646741135477e-04  4.1487653023773762e-04  4.2065306108766552e-04  4.2605350102898178e-04  4.3093571835158787e-04  4.3515018739246632e-04  4.3854711969683042e-04  4.4098784127188549e-04  4.4236490504172016e-04  4.4259985223235002e-04  3.6669115605067340e-04  3.6690606818149079e-04  3.6813549139289774e-04  3.7029870903914014e-04  3.7331790941624301e-04  3.7708274704752762e-04  3.8147072047390045e-04  3.8635367473777317e-04  3.9160366963491411e-04  3.9709563203275088e-04  4.0270766236060027e-04  4.0831974461303608e-04  4.1381167685494881e-04  4.1906102041099226e-04  4.2394187680691348e-04  4.2832533382954345e-04  4.3208236046925468e-04  4.3508980869030650e-04  4.3723828289270661e-04  4.3844663184180977e-04  4.3865282859239493e-04  3.6962871118501213e-04  3.6982096386281799e-04  3.7092586980713108e-04  3.7287827053146712e-04  3.7561548108586639e-04  3.7904596411688838e-04  3.8306464105593622e-04  3.8755754538840134e-04  3.9240673452731081e-04  3.9749316892787176e-04  4.0269800836382905e-04  4.0790274858465653e-04  4.1298876610243045e-04  4.1783688105767830e-04  4.2232755146291565e-04  4.2634227196280256e-04  4.2976660518371677e-04  4.3249515336706522e-04  4.3443708149653779e-04  4.3552740519191974e-04  4.3571365815664605e-04  3.7166056982322349e-04  3.7183760918958937e-04  3.7285931250083984e-04  3.7467044039729927e-04  3.7721719996851267e-04  3.8041962807330268e-04  3.8418372559993568e-04  3.8840498725839484e-04  3.9297260489431840e-04  3.9777235438487557e-04  4.0268841345456193e-04  4.0760434658822377e-04  4.1240364916153284e-04  4.1697030437190600e-04  4.2118980694625849e-04  4.2495104490953542e-04  4.2814927371740688e-04  4.3069034376360857e-04  4.3249474987952779e-04  4.3350725063591027e-04  4.3368051661954666e-04  3.7285395310993752e-04  3.7302195875497652e-04  3.7399518849149239e-04  3.7572448154571370e-04  3.7816062043217720e-04  3.8122995815923329e-04  3.8484463209949023e-04  3.8890553392371724e-04  3.9330609354135257e-04  3.9793512998201303e-04  4.0267892088665980e-04  4.0742263213379057e-04  4.1205139823188521e-04  4.1645140913266885e-04  4.2051135887817169e-04  4.2412454529611247e-04  4.2719176031809825e-04  4.2962508199032647e-04  4.3135108855211335e-04  4.3231986131920792e-04  4.3248604300828605e-04  3.7324725685984839e-04  3.7341172699426680e-04  3.7436770762429896e-04  3.7606920709991576e-04  3.7846820922511030e-04  3.8149314225698945e-04  3.8505809285150890e-04  3.8906567899929864e-04  3.9341069808975475e-04  3.9798297146893108e-04  4.0266949716682315e-04  4.0735602286472020e-04  4.1192829624391275e-04  4.1627331533439379e-04  4.2028090148221470e-04  4.2384585207676966e-04  4.2687078510868410e-04  4.2926978723391025e-04  4.3097128670955160e-04  4.3192726733959819e-04  4.3209173747401952e-04  3.7285295132557584e-04  3.7301913301465082e-04  3.7398790578173097e-04  3.7571391234349298e-04  3.7814723401568943e-04  3.8121444903763954e-04  3.8482763545554498e-04  3.8888758520101653e-04  3.9328759610177501e-04  3.9791636219985448e-04  4.0266007344698097e-04  4.0740386435163430e-04  4.1203290079231238e-04  4.1643346040997416e-04  4.2049436223423516e-04  4.2410903617452972e-04  4.2717837390162392e-04  4.2961451278812136e-04  4.3134380584236917e-04  4.3231703557890049e-04  4.3248504122394302e-04  3.7165847771431447e-04  3.7183174369794832e-04  3.7284424445431464e-04  3.7464865057020686e-04  3.7718972061637354e-04  3.8038794942420607e-04  3.8414918738744489e-04  3.8836868996176366e-04  3.9293534517211075e-04  3.9773464774540425e-04  4.0265058087906198e-04  4.0756663994875647e-04  4.1236638943933370e-04  4.1693400707528772e-04  4.2115526873378554e-04  4.2491936626046158e-04  4.2812179436529506e-04  4.3066855393654761e-04  4.3247968183303794e-04  4.3350138514430678e-04  4.3367842451067634e-04  3.6962533617722278e-04  3.6981158914194524e-04  3.7090191283730816e-04  3.7284384096674826e-04  3.7557238915005584e-04  3.7899672237092473e-04  3.8301144287076767e-04  3.8750211327596648e-04  3.9235022823118528e-04  3.9743624574894185e-04  4.0264098596976558e-04  4.0784582540573296e-04  4.1293225980631754e-04  4.1778144894526252e-04  4.2227435327777361e-04  4.2629303021687285e-04  4.2972351324794753e-04  4.3246072380239526e-04  4.3441312452676881e-04  4.3551803047110494e-04  4.3571028314891552e-04  3.6668616574148897e-04  3.6689236249206952e-04  3.6810071144114862e-04  3.7024918564350801e-04  3.7325663386450849e-04  3.7701366050416410e-04  3.8139711752674095e-04  3.8627797392261603e-04  3.9152731747862522e-04  3.9701924972051789e-04  4.0263133197294948e-04  4.0824336230081118e-04  4.1373532469867613e-04  4.1898531959586017e-04  4.2386827385978862e-04  4.2825624728622515e-04  4.3202108491757659e-04  4.3504028529474094e-04  4.3720350294103235e-04  4.3843292615246954e-04  4.3864783828329284e-04  3.6273914210156077e-04  3.6297408929218444e-04  3.6435115306198703e-04  3.6679187463698766e-04  3.7018880694128503e-04  3.7440327598209225e-04  3.7928549330463167e-04  3.8468593324589149e-04  3.9046246409577803e-04  3.9648252692213665e-04  4.0262179131252297e-04  4.0876066207332735e-04  4.1477981125568095e-04  4.2055570409004443e-04  4.2595706136556836e-04  4.3084336521697513e-04  4.3506667942566884e-04  4.3847850932360007e-04  4.4093902969087308e-04  4.4234551365257330e-04  4.4259270066863954e-04  3.5763832824642643e-04  3.5791398444405342e-04  3.5952807980554311e-04  3.6237413474380861e-04  3.6630141903326732e-04  3.7112533928016319e-04  3.7665701922773851e-04  3.8271952284868964e-04  3.8915554453419049e-04  3.9582745701773552e-04  4.0261273061267008e-04  4.0939700172768281e-04  4.1606625340094377e-04  4.2249903013227819e-04  4.2855956327169406e-04  4.3409311708825015e-04  4.3892558757551998e-04  4.4287071936892792e-04  4.4574275826712818e-04  4.4739772711752492e-04  4.4769047255479195e-04  3.5117745161345767e-04  3.5151087539133546e-04  3.5346063549171458e-04  3.5687047705666920e-04  3.6151659990980731e-04  3.6714192158984190e-04  3.7350123301756693e-04  3.8038305290534333e-04  3.8761536540579135e-04  3.9506046008137868e-04  4.0260478132454660e-04  4.1014715746901637e-04  4.1758679698019208e-04  4.2481140404632942e-04  4.3168570291817474e-04  4.3804150131363786e-04  4.4367231343445947e-04  4.4833836533199220e-04  4.5178188985348317e-04  4.5378910353581356e-04  4.5414706981058105e-04  3.4305996183728787e-04  3.4347825078715339e-04  3.4591685994641436e-04  3.5012588032091449e-04  3.5575478409929771e-04  3.6243069568331316e-04  3.6982990370419997e-04  3.7770203368178799e-04  3.8586654047039555e-04  3.9419636080865523e-04  4.0259889344476836e-04  4.1099819573115197e-04  4.1931861395501564e-04  4.2746864772124201e-04  4.3532379411369911e-04  4.4270864220028188e-04  4.4938160543094339e-04  4.5502946226167558e-04  4.5928122823538119e-04  4.6180245454194638e-04  4.6225783502522506e-04  3.3283790082917465e-04  3.3339982208188126e-04  3.3657899005237106e-04  3.4195923167999406e-04  3.4895518703926230e-04  3.5700942153560637e-04  3.6569785793781091e-04  3.7473775872450221e-04  3.8395818642097788e-04  3.9326233398467495e-04  4.0259632543182284e-04  4.1192558542061406e-04  4.2121551285887956e-04  4.3041239777949578e-04  4.3942081415926528e-04  4.4807613117682862e-04  4.5610825401426382e-04  4.6310959746836776e-04  4.6854164914874132e-04  4.7185299103098962e-04  4.7246216210615526e-04  3.1986288221261819e-04  3.2063402665354117e-04  3.2500392560401117e-04  3.3218745421872482e-04  3.4112123379766390e-04  3.5097930922326772e-04  3.6123341090128818e-04  3.7160511946975712e-04  3.8197296704615112e-04  3.9230143110532707e-04  4.0259834589000202e-04  4.1288914488432882e-04  4.2319862594207992e-04  4.3353285789732266e-04  4.4385523853126630e-04  4.5404762903652302e-04  4.6383227284230925e-04  4.7273145690732670e-04  4.7998327376008710e-04  4.8458549381945386e-04  4.8542969647235934e-04  3.0313848749579292e-04  3.0399013269033411e-04  3.1063245823449850e-04  3.2070008224120174e-04  3.3242080042404366e-04  3.4459888030784154e-04  3.5667767052017895e-04  3.6849077559015971e-04  3.8003468603136920e-04  3.9137554323034473e-04  4.0260710476627538e-04  4.1383179998761611e-04  4.2515073501014092e-04  4.3665385788588024e-04  4.4840174173287159e-04  4.6037019144146239e-04  4.7237626536781387e-04  4.8406495038566972e-04  4.9415280722887726e-04  5.0093252764364259e-04  5.0228915153739098e-04  2.7787592756941561e-04  2.8197718598247490e-04  2.9280433557469436e-04  3.0764051588431013e-04  3.2341284491149447e-04  3.3837088790213702e-04  3.5240941207923031e-04  3.6565360787959726e-04  3.7830099962254509e-04  3.9055779063500563e-04  4.0262020842379094e-04  4.1467625786405563e-04  4.2691239160308047e-04  4.3951963849095670e-04  4.5268912011709296e-04  4.6658001081843737e-04  4.8140317491520703e-04  4.9677845061955655e-04  5.1064609338510598e-04  5.2273427433598368e-04  5.2592727901949504e-04  2.4697260735060441e-04  2.5308447935547474e-04  2.6936770324730534e-04  2.9485857992977510e-04  3.1528643007806042e-04  3.3309509162734633e-04  3.4894917671838557e-04  3.6341492307859652e-04  3.7695784945000245e-04  3.8993495049471607e-04  4.0264113460109998e-04  4.1534274699516827e-04  4.2830486014495842e-04  4.4181724001009063e-04  4.5621983193212860e-04  4.7196188043887438e-04  4.8968654652148619e-04  5.0857841390664754e-04  5.3184161649100258e-04  5.5800616178014950e-04  5.5889101543711757e-04  2.4141084683057057e-04  1.6972097857300406e-04  2.5552177647030069e-04  2.8528201127358464e-04  3.0973877715215626e-04  3.2980118395190314e-04  3.4684606343144385e-04  3.6208145886417787e-04  3.7617229633159097e-04  3.8958086132106790e-04  4.0267016068522288e-04  4.1575851535030313e-04  4.2916378182082069e-04  4.4324656615931480e-04  4.5847106283167081e-04  4.7552478475008925e-04  4.9532368818528685e-04  5.1919490089494312e-04  5.5946837285463283e-04  5.8100254686443596e-04  6.1119075588520790e-04  -8.3157877991647171e-04  2.5780518093723953e-04  2.4910759724888532e-04  2.8113131949609869e-04  3.0912792269133016e-04  3.2921738513734175e-04  3.4646427548083622e-04  3.6185073470000969e-04  3.7603755715897073e-04  3.8952151635857980e-04  4.0267846934425390e-04  4.1583589353664320e-04  4.2932150698388085e-04  4.4351088586077643e-04  4.5889650682462185e-04  4.7617375879809509e-04  4.9639293396384204e-04  5.2282959084544521e-04  5.5888146289081813e-04  5.8508684422909859e-04  9.7194003868434188e-04  </DataArray> 
</PointData> 
</Piece>
</UnstructuredGrid>
</VTKFile>