<?xml version="1.0"?>
<VTKFile type="UnstructuredGrid"  version="0.1"  >
<UnstructuredGrid>
<Piece  NumberOfPoints="651" NumberOfCells="1200">
<Points>
<DataArray  type="Float64"  NumberOfComponents="3"  format="ascii">0 0 0  50000 0 0  100000 0 0  150000 0 0  200000 0 0  250000 0 0  300000 0 0  350000 0 0  400000 0 0  450000 0 0  500000 0 0  550000 0 0  600000 0 0  650000 0 0  700000 0 0  750000 0 0  800000 0 0  850000 0 0  900000 0 0  950000 0 0  1000000 0 0  0 50000 0  50000 50000 0  100000 50000 0  150000 50000 0  200000 50000 0  250000 50000 0  300000 50000 0  350000 50000 0  400000 50000 0  450000 50000 0  500000 50000 0  550000 50000 0  600000 50000 0  650000 50000 0  700000 50000 0  750000 50000 0  800000 50000 0  850000 50000 0  900000 50000 0  950000 50000 0  1000000 50000 0  0 100000 0  50000 100000 0  100000 100000 0  150000 100000 0  200000 100000 0  250000 100000 0  300000 100000 0  350000 100000 0  400000 100000 0  450000 100000 0  500000 100000 0  550000 100000 0  600000 100000 0  650000 100000 0  700000 100000 0  750000 100000 0  800000 100000 0  850000 100000 0  900000 100000 0  950000 100000 0  1000000 100000 0  0 150000 0  50000 150000 0  100000 150000 0  150000 150000 0  200000 150000 0  250000 150000 0  300000 150000 0  350000 150000 0  400000 150000 0  450000 150000 0  500000 150000 0  550000 150000 0  600000 150000 0  650000 150000 0  700000 150000 0  750000 150000 0  800000 150000 0  850000 150000 0  900000 150000 0  950000 150000 0  1000000 150000 0  0 200000 0  50000 200000 0  100000 200000 0  150000 200000 0  200000 200000 0  250000 200000 0  300000 200000 0  350000 200000 0  400000 200000 0  450000 200000 0  500000 200000 0  550000 200000 0  600000 200000 0  650000 200000 0  700000 200000 0  750000 200000 0  800000 200000 0  850000 200000 0  900000 200000 0  950000 200000 0  1000000 200000 0  0 250000 0  50000 250000 0  100000 250000 0  150000 250000 0  200000 250000 0  250000 250000 0  300000 250000 0  350000 250000 0  400000 250000 0  450000 250000 0  500000 250000 0  550000 250000 0  600000 250000 0  650000 250000 0  700000 250000 0  750000 250000 0  800000 250000 0  850000 250000 0  900000 250000 0  950000 250000 0  1000000 250000 0  0 300000 0  50000 300000 0  100000 300000 0  150000 300000 0  200000 300000 0  250000 300000 0  300000 300000 0  350000 300000 0  400000 300000 0  450000 300000 0  500000 300000 0  550000 300000 0  600000 300000 0  650000 300000 0  700000 300000 0  750000 300000 0  800000 300000 0  850000 300000 0  900000 300000 0  950000 300000 0  1000000 300000 0  0 350000 0  50000 350000 0  100000 350000 0  150000 350000 0  200000 350000 0  250000 350000 0  300000 350000 0  350000 350000 0  400000 350000 0  450000 350000 0  500000 350000 0  550000 350000 0  600000 350000 0  650000 350000 0  700000 350000 0  750000 350000 0  800000 350000 0  850000 350000 0  900000 350000 0  950000 350000 0  1000000 350000 0  0 400000 0  50000 400000 0  100000 400000 0  150000 400000 0  200000 400000 0  250000 400000 0  300000 400000 0  350000 400000 0  400000 400000 0  450000 400000 0  500000 400000 0  550000 400000 0  600000 400000 0  650000 400000 0  700000 400000 0  750000 400000 0  800000 400000 0  850000 400000 0  900000 400000 0  950000 400000 0  1000000 400000 0  0 450000 0  50000 450000 0  100000 450000 0  150000 450000 0  200000 450000 0  250000 450000 0  300000 450000 0  350000 450000 0  400000 450000 0  450000 450000 0  500000 450000 0  550000 450000 0  600000 450000 0  650000 450000 0  700000 450000 0  750000 450000 0  800000 450000 0  850000 450000 0  900000 450000 0  950000 450000 0  1000000 450000 0  0 500000 0  50000 500000 0  100000 500000 0  150000 500000 0  200000 500000 0  250000 500000 0  300000 500000 0  350000 500000 0  400000 500000 0  450000 500000 0  500000 500000 0  550000 500000 0  600000 500000 0  650000 500000 0  700000 500000 0  750000 500000 0  800000 500000 0  850000 500000 0  900000 500000 0  950000 500000 0  1000000 500000 0  0 550000 0  50000 550000 0  100000 550000 0  150000 550000 0  200000 550000 0  250000 550000 0  300000 550000 0  350000 550000 0  400000 550000 0  450000 550000 0  500000 550000 0  550000 550000 0  600000 550000 0  650000 550000 0  700000 550000 0  750000 550000 0  800000 550000 0  850000 550000 0  900000 550000 0  950000 550000 0  1000000 550000 0  0 600000 0  50000 600000 0  100000 600000 0  150000 600000 0  200000 600000 0  250000 600000 0  300000 600000 0  350000 600000 0  400000 600000 0  450000 600000 0  500000 600000 0  550000 600000 0  600000 600000 0  650000 600000 0  700000 600000 0  750000 600000 0  800000 600000 0  850000 600000 0  900000 600000 0  950000 600000 0  1000000 600000 0  0 650000 0  50000 650000 0  100000 650000 0  150000 650000 0  200000 650000 0  250000 650000 0  300000 650000 0  350000 650000 0  400000 650000 0  450000 650000 0  500000 650000 0  550000 650000 0  600000 650000 0  650000 650000 0  700000 650000 0  750000 650000 0  800000 650000 0  850000 650000 0  900000 650000 0  950000 650000 0  1000000 650000 0  0 700000 0  50000 700000 0  100000 700000 0  150000 700000 0  200000 700000 0  250000 700000 0  300000 700000 0  350000 700000 0  400000 700000 0  450000 700000 0  500000 700000 0  550000 700000 0  600000 700000 0  650000 700000 0  700000 700000 0  750000 700000 0  800000 700000 0  850000 700000 0  900000 700000 0  950000 700000 0  1000000 700000 0  0 750000 0  50000 750000 0  100000 750000 0  150000 750000 0  200000 750000 0  250000 750000 0  300000 750000 0  350000 750000 0  400000 750000 0  450000 750000 0  500000 750000 0  550000 750000 0  600000 750000 0  650000 750000 0  700000 750000 0  750000 750000 0  800000 750000 0  850000 750000 0  900000 750000 0  950000 750000 0  1000000 750000 0  0 800000 0  50000 800000 0  100000 800000 0  150000 800000 0  200000 800000 0  250000 800000 0  300000 800000 0  350000 800000 0  400000 800000 0  450000 800000 0  500000 800000 0  550000 800000 0  600000 800000 0  650000 800000 0  700000 800000 0  750000 800000 0  800000 800000 0  850000 800000 0  900000 800000 0  950000 800000 0  1000000 800000 0  0 850000 0  50000 850000 0  100000 850000 0  150000 850000 0  200000 850000 0  250000 850000 0  300000 850000 0  350000 850000 0  400000 850000 0  450000 850000 0  500000 850000 0  550000 850000 0  600000 850000 0  650000 850000 0  700000 850000 0  750000 850000 0  800000 850000 0  850000 850000 0  900000 850000 0  950000 850000 0  1000000 850000 0  0 900000 0  50000 900000 0  100000 900000 0  150000 900000 0  200000 900000 0  250000 900000 0  300000 900000 0  350000 900000 0  400000 900000 0  450000 900000 0  500000 900000 0  550000 900000 0  600000 900000 0  650000 900000 0  700000 900000 0  750000 900000 0  800000 900000 0  850000 900000 0  900000 900000 0  950000 900000 0  1000000 900000 0  0 950000 0  50000 950000 0  100000 950000 0  150000 950000 0  200000 950000 0  250000 950000 0  300000 950000 0  350000 950000 0  400000 950000 0  450000 950000 0  500000 950000 0  550000 950000 0  600000 950000 0  650000 950000 0  700000 950000 0  750000 950000 0  800000 950000 0  850000 950000 0  900000 950000 0  950000 950000 0  1000000 950000 0  0 1000000 0  50000 1000000 0  100000 1000000 0  150000 1000000 0  200000 1000000 0  250000 1000000 0  300000 1000000 0  350000 1000000 0  400000 1000000 0  450000 1000000 0  500000 1000000 0  550000 1000000 0  600000 1000000 0  650000 1000000 0  700000 1000000 0  750000 1000000 0  800000 1000000 0  850000 1000000 0  900000 1000000 0  950000 1000000 0  1000000 1000000 0  0 1050000 0  50000 1050000 0  100000 1050000 0  150000 1050000 0  200000 1050000 0  250000 1050000 0  300000 1050000 0  350000 1050000 0  400000 1050000 0  450000 1050000 0  500000 1050000 0  550000 1050000 0  600000 1050000 0  650000 1050000 0  700000 1050000 0  750000 1050000 0  800000 1050000 0  850000 1050000 0  900000 1050000 0  950000 1050000 0  1000000 1050000 0  0 1100000 0  50000 1100000 0  100000 1100000 0  150000 1100000 0  200000 1100000 0  250000 1100000 0  300000 1100000 0  350000 1100000 0  400000 1100000 0  450000 1100000 0  500000 1100000 0  550000 1100000 0  600000 1100000 0  650000 1100000 0  700000 1100000 0  750000 1100000 0  800000 1100000 0  850000 1100000 0  900000 1100000 0  950000 1100000 0  1000000 1100000 0  0 1150000 0  50000 1150000 0  100000 1150000 0  150000 1150000 0  200000 1150000 0  250000 1150000 0  300000 1150000 0  350000 1150000 0  400000 1150000 0  450000 1150000 0  500000 1150000 0  550000 1150000 0  600000 1150000 0  650000 1150000 0  700000 1150000 0  750000 1150000 0  800000 1150000 0  850000 1150000 0  900000 1150000 0  950000 1150000 0  1000000 1150000 0  0 1200000 0  50000 1200000 0  100000 1200000 0  150000 1200000 0  200000 1200000 0  250000 1200000 0  300000 1200000 0  350000 1200000 0  400000 1200000 0  450000 1200000 0  500000 1200000 0  550000 1200000 0  600000 1200000 0  650000 1200000 0  700000 1200000 0  750000 1200000 0  800000 1200000 0  850000 1200000 0  900000 1200000 0  950000 1200000 0  1000000 1200000 0  0 1250000 0  50000 1250000 0  100000 1250000 0  150000 1250000 0  200000 1250000 0  250000 1250000 0  300000 1250000 0  350000 1250000 0  400000 1250000 0  450000 1250000 0  500000 1250000 0  550000 1250000 0  600000 1250000 0  650000 1250000 0  700000 1250000 0  750000 1250000 0  800000 1250000 0  850000 1250000 0  900000 1250000 0  950000 1250000 0  1000000 1250000 0  0 1300000 0  50000 1300000 0  100000 1300000 0  150000 1300000 0  200000 1300000 0  250000 1300000 0  300000 1300000 0  350000 1300000 0  400000 1300000 0  450000 1300000 0  500000 1300000 0  550000 1300000 0  600000 1300000 0  650000 1300000 0  700000 1300000 0  750000 1300000 0  800000 1300000 0  850000 1300000 0  900000 1300000 0  950000 1300000 0  1000000 1300000 0  0 1350000 0  50000 1350000 0  100000 1350000 0  150000 1350000 0  200000 1350000 0  250000 1350000 0  300000 1350000 0  350000 1350000 0  400000 1350000 0  450000 1350000 0  500000 1350000 0  550000 1350000 0  600000 1350000 0  650000 1350000 0  700000 135
[...]
<PointData  Scalars="f_25027"> 
<DataArray  type="Float64"  Name="f_25027"  format="ascii">6.8527159655329146e-04  8.0055657857812292e-04  8.2946997244619171e-04  8.4524840888144720e-04  8.5766599954654088e-04  8.6772904483887494e-04  8.7629512086650346e-04  8.8393288757053468e-04  8.9099046560481060e-04  8.9770437742255548e-04  9.0425699174470847e-04  9.1080781101726801e-04  9.1751596638272323e-04  9.2456254175060041e-04  9.3218183542195668e-04  9.4072171803883222e-04  9.5074897335653747e-04  9.6290148367239137e-04  9.7663426796218227e-04  1.0051264421749896e-03  1.2550614155215306e-03  8.0175851575045175e-04  8.1621625428454127e-04  8.3061045839400750e-04  8.4645678131838053e-04  8.5848203505922076e-04  8.6820835999010064e-04  8.7658775228705694e-04  8.8411337514307997e-04  8.9109347266815432e-04  8.9774727687854652e-04  9.0424749745991197e-04  9.1074650035377559e-04  9.1739649480412585e-04  9.2436979846203984e-04  9.3188529265288188e-04  9.4024799733537332e-04  9.4991249852597551e-04  9.6170421612331149e-04  9.7822816221359936e-04  1.0066021431993459e-03  1.0040815079669205e-03  8.2929807934097543e-04  8.3122495707704217e-04  8.4122023091056806e-04  8.5184581573714954e-04  8.6148034663170183e-04  8.7004423532349284e-04  8.7775999489071049e-04  8.8486051577710907e-04  8.9154060719109831e-04  8.9795994356596639e-04  9.0425487047874232e-04  9.1055058808779427e-04  9.1697278554834962e-04  9.2365966535221144e-04  9.3077575266629670e-04  9.3852902186036986e-04  9.4719534412592997e-04  9.5714646700523513e-04  9.6858343113008700e-04  9.7894580573072948e-04  9.7788024818606174e-04  8.4416177120058534e-04  8.4548857628830585e-04  8.5109624792647771e-04  8.5817346509385909e-04  8.6556676570255097e-04  8.7273821274365306e-04  8.7955363450340591e-04  8.8603537900134395e-04  8.9225811887001078e-04  8.9830895678729458e-04  9.0427554020250714e-04  9.1024447592597403e-04  9.1630321620571819e-04  9.2254241739534750e-04  9.2905614411989434e-04  9.3593451405983542e-04  9.4323212429967733e-04  9.5085171537342690e-04  9.5816780701900360e-04  9.6337925202864296e-04  9.6486330188429680e-04  8.5499982177879665e-04  8.5591499261948199e-04  8.5935039572353092e-04  8.6427759151928244e-04  8.6992346781551494e-04  8.7580473247591574e-04  8.8168147984436643e-04  8.8746427655872658e-04  8.9314098055039083e-04  8.9873551423222885e-04  9.0428751028354441e-04  9.0984268772061072e-04  9.1544755797849501e-04  9.2114434758295096e-04  9.2696195649197223e-04  9.3289604344556464e-04  9.3886437609965563e-04  9.4461423500202650e-04  9.4958322129569124e-04  9.5289878446831386e-04  9.5389266787324414e-04  8.6315792522905865e-04  8.6377078481628773e-04  8.6611562742956922e-04  8.6970513934589628e-04  8.7408565375338696e-04  8.7889896933163875e-04  8.8391431407149556e-04  8.8900401913278974e-04  8.9410783957758291e-04  8.9920503937978495e-04  9.0429596322302494e-04  9.0939014869661507e-04  9.1449762092373312e-04  9.1962015414441859e-04  9.2473909768200490e-04  9.2979551113519892e-04  9.3465803301805660e-04  9.3907986246578130e-04  9.4267239419350995e-04  9.4496730014498754e-04  9.4557396281198130e-04  8.6946871258266191e-04  8.6990929386990181e-04  8.7162906600150858e-04  8.7436116595095582e-04  8.7783677026050393e-04  8.8180741944084867e-04  8.8608333856350803e-04  8.9053587318896072e-04  8.9508467526378042e-04  8.9968238062618005e-04  9.0430136318662329e-04  9.0892318066151424e-04  9.1352956260954668e-04  9.1809326154893500e-04  9.2256696221641623e-04  9.2686881222162260e-04  9.3086506353130328e-04  9.3435604176978447e-04  9.3708175820600014e-04  9.3876776682292066e-04  9.3919630785242042e-04  8.7445513160478371e-04  8.7479234233631717e-04  8.7612003489333863e-04  8.7827912210628736e-04  8.8110311206515094e-04  8.8442056608857805e-04  8.8808349201376818e-04  8.9197670351689963e-04  8.9601575761614918e-04  9.0013993185766947e-04  9.0430399419487429e-04  9.0847025115148165e-04  9.1260097129607282e-04  9.1665068481063569e-04  9.2055784097277646e-04  9.2423593731506609e-04  9.2756589154669453e-04  9.3039428922097266e-04  9.3254466486736786e-04  9.3384762480601716e-04  9.3417664294447348e-04  8.7843442961435926e-04  8.7870407106339444e-04  8.7977077638698442e-04  8.8153234908821556e-04  8.8388029572848161e-04  8.8669376120599182e-04  8.8985838370373566e-04  8.9327550897693884e-04  8.9686419500104909e-04  9.0055879218083436e-04  9.0430440779275516e-04  9.0805157800642224e-04  9.1175070762479764e-04  9.1534643748016943e-04  9.1877211938285949e-04  9.2194504321871222e-04  9.2476397215900531e-04  9.2711158336788503e-04  9.2886458627672341e-04  9.2991304830285107e-04  9.3017695584955489e-04  8.8161098904319685e-04  8.8183410962953783e-04  8.8271975019106955e-04  8.8419768267916274e-04  8.8619333113380285e-04  8.8861853251323293e-04  8.9138372004196338e-04  8.9440524946611088e-04  8.9760845263175970e-04  9.0092749085418969e-04  9.0430321259894254e-04  9.0767995781401560e-04  9.1100191869883797e-04  9.1420947040940146e-04  9.1723590598090474e-04  9.2000525371590462e-04  9.2243223085289533e-04  9.2442561947099532e-04  9.2589598856541099e-04  9.2676803512755810e-04  9.2698692530094728e-04  8.8412411447169148e-04  8.8431431421612347e-04  8.8507113690100689e-04  8.8634334172965851e-04  8.8807677894466855e-04  8.9020440829995083e-04  8.9265424332734720e-04  8.9535477742315602e-04  8.9823796090818578e-04  9.0124005524792503e-04  9.0430093717247030e-04  9.0736244982268961e-04  9.1036630866724033e-04  9.1325200080652784e-04  9.1595512944913455e-04  9.1840674856112896e-04  9.2053432927753317e-04  9.2226494130454679e-04  9.2353084994757531e-04  9.2427751728884212e-04  9.2446456729393476e-04  8.8607181092808271e-04  8.8623850868836955e-04  8.8690300087803406e-04  8.8802580657630767e-04  8.8956534246238260e-04  8.9146823899930350e-04  8.9367468333769763e-04  8.9612238325015281e-04  8.9874915080798514e-04  9.0149413968518418e-04  9.0429798351613299e-04  9.0710219126143292e-04  9.0984817528337114e-04  9.1247628254887032e-04  9.1492520593066057e-04  9.1713216748921149e-04  9.1903424445312636e-04  9.2057107597043580e-04  9.2168889949356030e-04  9.2234591441615562e-04  9.2251030297962140e-04  8.8752370982657922e-04  8.8767386529024089e-04  8.8827320139553867e-04  8.8928970409473025e-04  8.9068955965583628e-04  8.9242816824524132e-04  8.9445392105934568e-04  8.9671116036031651e-04  8.9914236578282473e-04  9.0168950392045637e-04  9.0429463069936593e-04  9.0689995268827546e-04  9.0944761008939846e-04  9.1187946522223811e-04  9.1413718293630237e-04  9.1616287148167175e-04  9.1790049300575745e-04  9.1929812211249203e-04  9.2031093474963406e-04  9.2090499318539954e-04  9.2105352559570879e-04  8.8852855455222475e-04  8.8866765725389551e-04  8.8922341328237368e-04  8.9016854897344254e-04  8.9147391664748128e-04  8.9310032192443651e-04  8.9500139169451946e-04  8.9712590227478909e-04  8.9941966755362895e-04  9.0182689961621572e-04  9.0429105881863398e-04  9.0675531314187569e-04  9.0916278993172998e-04  9.1145683221344567e-04  9.1358147260890438e-04  9.1548230948101917e-04  9.1710790458877358e-04  9.1841171123719983e-04  9.1935441256994559e-04  9.1990679272952499e-04  9.2004486055823195e-04  8.8911863904882942e-04  8.8925131472770741e-04  8.8978176223542254e-04  8.9068557146974479e-04  8.9193608369897903e-04  8.9349703487078002e-04  8.9532495213398577e-04  8.9737113828359464e-04  8.9958338441758383e-04  9.0190731871642258e-04  9.0428737738733052e-04  9.0666747356073208e-04  9.0899150123372277e-04  9.1120384167027728e-04  9.1325003986108286e-04  9.1507778833355992e-04  9.1663829327951233e-04  9.1788800502691145e-04  9.1879060530162095e-04  9.1931940497014708e-04  9.1945157647944453e-04  8.8931239252291918e-04  8.8944280830398359e-04  8.8996446187908362e-04  8.9085436873192233e-04  8.9208664366032713e-04  8.9362593560824224e-04  8.9542967877524250e-04  8.9744996887409871e-04  8.9963522337344135e-04  9.0193152883793484e-04  9.0428365171545176e-04  9.0663577459296858e-04  9.0893208005746271e-04  9.1111733455680665e-04  9.1313762465566439e-04  9.1494136782266692e-04  9.1648065977058388e-04  9.1771293469899062e-04  9.1860284155183063e-04  9.1912449512693110e-04  9.1925491090799594e-04  8.8911572695147059e-04  8.8924789846076793e-04  8.8977669812929320e-04  8.9067929840400107e-04  8.9192901015139835e-04  8.9348951509734859e-04  8.9531726356982403e-04  8.9736346176062820e-04  8.9957580219718119e-04  9.0189982987017123e-04  9.0427992604357279e-04  9.0665998471448094e-04  9.0898391901332034e-04  9.1119616514731051e-04  9.1324235129692111e-04  9.1507026856012892e-04  9.1663121973193263e-04  9.1788173196116871e-04  9.1878554119549259e-04  9.1931598870320836e-04  9.1944866438208668e-04  8.8852244287268318e-04  8.8866051070139035e-04  8.8921289086096888e-04  8.9015559219371302e-04  8.9145939884213688e-04  8.9308499394988902e-04  8.9498583082200239e-04  8.9711047121745894e-04  8.9940451349917365e-04  9.0181199028902719e-04  9.0427624461226846e-04  9.0674040381468737e-04  9.0914763587727479e-04  9.1144140115611628e-04  9.1356591173638807e-04  9.1546698150647351e-04  9.1709338678343157e-04  9.1839875445747215e-04  9.1934389014854286e-04  9.1989964617702222e-04  9.2003874887869287e-04  8.8751377783520828e-04  8.8766231024551710e-04  8.8825636868128160e-04  8.8926918131842136e-04  8.9066681042515355e-04  8.9240443194923665e-04  8.9443012049460376e-04  8.9668783820866563e-04  8.9911969334150387e-04  9.0166735074262601e-04  9.0427267273153575e-04  9.0687779951044596e-04  9.0942493764807858e-04  9.1185614307058864e-04  9.1411338237156197e-04  9.1613913518566914e-04  9.1787774377507744e-04  9.1927759933618618e-04  9.2029410203537960e-04  9.2089343814067879e-04  9.2104359360434078e-04  8.8605700045129817e-04  8.8622138901476373e-04  8.8687840393735754e-04  8.8799622746047911e-04  8.8953305897778530e-04  8.9143513594169659e-04  8.9364209750024469e-04  8.9609102088203201e-04  8.9871912814752956e-04  9.0146511216946681e-04  9.0426931991476728e-04  9.0707316374571674e-04  9.0981815262291719e-04  9.1244492018075125e-04  9.1489262009320936e-04  9.1709906443160718e-04  9.1900196096853242e-04  9.2054149685461060e-04  9.2166430255288660e-04  9.2232879474255295e-04  9.2249549250284033e-04  8.8410273613698926e-04  8.8428978614208114e-04  8.8503645348334545e-04  8.8630236212636974e-04  8.8803297415337903e-04  8.9016055486977846e-04  8.9261217398176919e-04  8.9531530262437244e-04  8.9820099476365821e-04  9.0120485360820784e-04  9.0426636625842727e-04  9.0732724818297339e-04  9.1032934252271481e-04  9.1321252600774739e-04  9.1591306010355990e-04  9.1836289513096071e-04  9.2049052448624788e-04  9.2222396170126215e-04  9.2349616652991724e-04  9.2425298921480303e-04  9.2444318895923568e-04  8.8158037812998238e-04  8.8179926830337057e-04  8.8267131486551367e-04  8.8414168395992371e-04  8.8613507257801730e-04  8.8856204971500172e-04  8.9133139744999651e-04  8.9435783302149610e-04  8.9756538473205786e-04  9.0088734561687904e-04  9.0426409083195210e-04  9.0763981257670602e-04  9.1095885079913840e-04  9.1416205396479080e-04  9.1718358338894275e-04  9.1994877091767851e-04  9.2237397229711455e-04  9.2436962075176073e-04  9.2584755323985891e-04  9.2673319380139388e-04  9.2695631438773605e-04  8.7839034758138332e-04  8.7865425512808541e-04  8.7970271715420690e-04  8.8145572006303650e-04  8.8380333127190689e-04  8.8662226021219185e-04  8.8979518404803818e-04  8.9322086595072423e-04  8.9681659580609385e-04  9.0051572542446806e-04  9.0426289563813513e-04  9.0800851125005767e-04  9.1170310842984587e-04  9.1529179445395980e-04  9.1870891972716797e-04  9.2187354222491853e-04  9.2468700770243688e-04  9.2703495434271128e-04  9.2879652704394946e-04  9.2986323236754465e-04  9.3013287381658134e-04  8.7439066048647764e-04  8.7471967862493114e-04  8.7602263856356971e-04  8.7817301420995060e-04  8.8100141188421561e-04  8.8433136611583332e-04  8.8800946245811525e-04  8.9191661862025168e-04  8.9596633213481227e-04  9.0009705227940247e-04  9.0426330923601037e-04  9.0842737157321692e-04  9.1255154581474035e-04  9.1659059991399425e-04  9.2048381141713145e-04  9.2414673734232948e-04  9.2746419136576722e-04  9.3028818132464284e-04  9.3244726853760262e-04  9.3377496109463233e-04  9.3411217182616784e-04  8.6937099557855119e-04  8.6979953660804585e-04  8.7148554522494697e-04  8.7421126166113922e-04  8.7770223989960079e-04  8.8169849120926834e-04  8.8600034121446658e-04  8.9047404188194402e-04  8.9503774082133061e-04  8.9964412276936283e-04  9.0426594024425443e-04  9.0888492280469940e-04  9.1348262816710207e-04  9.1803143024192589e-04  9.2248396486738487e-04  9.2675988399005334e-04  9.3073053317041163e-04  9.3420613747997655e-04  9.3693823742944178e-04  9.3865800956106297e-04  9.3909859084830667e-04  8.6299334061902631e-04  8.6360000328601085e-04  8.6589490923744854e-04  8.6948744096513654e-04  8.7390927041283381e-04  8.7877179229567696e-04  8.8382820574886437e-04  8.8894714928644937e-04  8.9406968250713495e-04  8.9917715473425354e-04  9.0427134020784486e-04  9.0936226405108637e-04  9.1445946385329091e-04  9.1956328429808700e-04  9.2465298935938672e-04  9.2966833409925329e-04  9.3448164967752079e-04  9.3886216408503511e-04  9.4245167600139155e-04  9.4479651861469928e-04  9.4540937820193594e-04  8.5467463555784521e-04  8.5566851896274373e-04  8.5898408213527116e-04  8.6395306842886597e-04  8.6970292733120540e-04  8.7567125998528695e-04  8.8160534693887968e-04  8.8742295584790377e-04  8.9311974545236211e-04  8.9872461571024857e-04  9.0427979314731662e-04  9.0983178919863336e-04  9.1542632288047193e-04  9.2110302687213748e-04  9.2688582358650077e-04  9.3276257095495905e-04  9.3864383561537504e-04  9.4428971191163713e-04  9.4921690770743798e-04  9.5265231081154307e-04  9.5356748165224348e-04  8.4370400154710036e-04  8.4518805140250950e-04  8.5039949641191304e-04  8.5771558805739141e-04  8.6533517913112948e-04  8.7263278937098300e-04  8.7951115931093665e-04  8.8602488603549314e-04  8.9226408722512841e-04  8.9832282750487648e-04  9.0429176322834510e-04  9.1025834664355831e-04  9.1630918456084059e-04  9.2253192442950504e-04  9.2901366892744080e-04  9.3582909068719311e-04  9.4300053772830312e-04  9.5039383833702058e-04  9.5747105550448674e-04  9.6307872714279891e-04  9.6440553223052267e-04  8.3068705524649389e-04  8.2962149770041810e-04  8.3998387230057041e-04  8.5142083642541621e-04  8.6137195930480431e-04  8.7003828157041527e-04  8.7779155076451608e-04  8.8490763807861728e-04  8.9159451788248852e-04  8.9801671534304919e-04  9.0431243295210331e-04  9.1060735986487826e-04  9.1702669623974233e-04  9.2370678765372419e-04  9.3080730854011215e-04  9.3852306810731419e-04  9.4708695679908525e-04  9.5672148769362475e-04  9.6734707252034706e-04  9.7734234635418944e-04  9.7926922409020804e-04  8.0448579546657788e-04  8.0196516023179048e-04  8.3033914121622299e-04  8.4686308730716616e-04  8.5865480490473730e-04  8.6831930609540466e-04  8.7668201077792634e-04  8.8419750496878682e-04  8.9117080862671197e-04  8.9782080307706808e-04  9.0431980597093333e-04  9.1082002655229651e-04  9.1747383076268263e-04  9.2445392828774604e-04  9.3197955114375118e-04  9.4035894344067787e-04  9.5008526837151222e-04  9.6211052211231732e-04  9.7795684503670260e-04  9.9235104914506588e-04  1.0068087876814299e-03  5.5350588793574786e-04  8.0344086124194071e-04  8.3193303546686488e-04  8.4566581975839474e-04  8.5781833007421936e-04  8.6784558539192776e-04  8.7638546800883723e-04  8.8400476168021681e-04  8.9105133704810765e-04  8.9775949241356959e-04  9.0431031168613065e-04  9.1086292600828071e-04  9.1757683782601812e-04  9.2463441586027983e-04  9.3227218256428730e-04  9.4083825859187908e-04  9.5090130388416120e-04  9.6331889454911242e-04  9.7909733098347886e-04  1.0080107248487894e-03  1.1232957068875952e-03  </DataArray> 
</PointData> 
</Piece>
</UnstructuredGrid>
</VTKFile>