<?xml version="1.0"?>
<VTKFile type="UnstructuredGrid"  version="0.1"  >
<UnstructuredGrid>
<Piece  NumberOfPoints="651" NumberOfCells="1200">
<Points>
<DataArray  type="Float64"  NumberOfComponents="3"  format="ascii">0 0 0  50000 0 0  100000 0 0  150000 0 0  200000 0 0  250000 0 0  300000 0 0  350000 0 0  400000 0 0  450000 0 0  500000 0 0  550000 0 0  600000 0 0  650000 0 0  700000 0 0  750000 0 0  800000 0 0  850000 0 0  900000 0 0  950000 0 0  1000000 0 0  0 50000 0  50000 50000 0  100000 50000 0  150000 50000 0  200000 50000 0  250000 50000 0  300000 50000 0  350000 50000 0  400000 50000 0  450000 50000 0  500000 50000 0  550000 50000 0  600000 50000 0  650000 50000 0  700000 50000 0  750000 50000 0  800000 50000 0  850000 50000 0  900000 50000 0  950000 50000 0  1000000 50000 0  0 100000 0  50000 100000 0  100000 100000 0  150000 100000 0  200000 100000 0  250000 100000 0  300000 100000 0  350000 100000 0  400000 100000 0  450000 100000 0  500000 100000 0  550000 100000 0  600000 100000 0  650000 100000 0  700000 100000 0  750000 100000 0  800000 100000 0  850000 100000 0  900000 100000 0  950000 100000 0  1000000 100000 0  0 150000 0  50000 150000 0  100000 150000 0  150000 150000 0  200000 150000 0  250000 150000 0  300000 150000 0  350000 150000 0  400000 150000 0  450000 150000 0  500000 150000 0  550000 150000 0  600000 150000 0  650000 150000 0  700000 150000 0  750000 150000 0  800000 150000 0  850000 150000 0  900000 150000 0  950000 150000 0  1000000 150000 0  0 200000 0  50000 200000 0  100000 200000 0  150000 200000 0  200000 200000 0  250000 200000 0  300000 200000 0  350000 200000 0  400000 200000 0  450000 200000 0  500000 200000 0  550000 200000 0  600000 200000 0  650000 200000 0  700000 200000 0  750000 200000 0  800000 200000 0  850000 200000 0  900000 200000 0  950000 200000 0  1000000 200000 0  0 250000 0  50000 250000 0  100000 250000 0  150000 250000 0  200000 250000 0  250000 250000 0  300000 250000 0  350000 250000 0  400000 250000 0  450000 250000 0  500000 250000 0  550000 250000 0  600000 250000 0  650000 250000 0  700000 250000 0  750000 250000 0  800000 250000 0  850000 250000 0  900000 250000 0  950000 250000 0  1000000 250000 0  0 300000 0  50000 300000 0  100000 300000 0  150000 300000 0  200000 300000 0  250000 300000 0  300000 300000 0  350000 300000 0  400000 300000 0  450000 300000 0  500000 300000 0  550000 300000 0  600000 300000 0  650000 300000 0  700000 300000 0  750000 300000 0  800000 300000 0  850000 300000 0  900000 300000 0  950000 300000 0  1000000 300000 0  0 350000 0  50000 350000 0  100000 350000 0  150000 350000 0  200000 350000 0  250000 350000 0  300000 350000 0  350000 350000 0  400000 350000 0  450000 350000 0  500000 350000 0  550000 350000 0  600000 350000 0  650000 350000 0  700000 350000 0  750000 350000 0  800000 350000 0  850000 350000 0  900000 350000 0  950000 350000 0  1000000 350000 0  0 400000 0  50000 400000 0  100000 400000 0  150000 400000 0  200000 400000 0  250000 400000 0  300000 400000 0  350000 400000 0  400000 400000 0  450000 400000 0  500000 400000 0  550000 400000 0  600000 400000 0  650000 400000 0  700000 400000 0  750000 400000 0  800000 400000 0  850000 400000 0  900000 400000 0  950000 400000 0  1000000 400000 0  0 450000 0  50000 450000 0  100000 450000 0  150000 450000 0  200000 450000 0  250000 450000 0  300000 450000 0  350000 450000 0  400000 450000 0  450000 450000 0  500000 450000 0  550000 450000 0  600000 450000 0  650000 450000 0  700000 450000 0  750000 450000 0  800000 450000 0  850000 450000 0  900000 450000 0  950000 450000 0  1000000 450000 0  0 500000 0  50000 500000 0  100000 500000 0  150000 500000 0  200000 500000 0  250000 500000 0  300000 500000 0  350000 500000 0  400000 500000 0  450000 500000 0  500000 500000 0  550000 500000 0  600000 500000 0  650000 500000 0  700000 500000 0  750000 500000 0  800000 500000 0  850000 500000 0  900000 500000 0  950000 500000 0  1000000 500000 0  0 550000 0  50000 550000 0  100000 550000 0  150000 550000 0  200000 550000 0  250000 550000 0  300000 550000 0  350000 550000 0  400000 550000 0  450000 550000 0  500000 550000 0  550000 550000 0  600000 550000 0  650000 550000 0  700000 550000 0  750000 550000 0  800000 550000 0  850000 550000 0  900000 550000 0  950000 550000 0  1000000 550000 0  0 600000 0  50000 600000 0  100000 600000 0  150000 600000 0  200000 600000 0  250000 600000 0  300000 600000 0  350000 600000 0  400000 600000 0  450000 600000 0  500000 600000 0  550000 600000 0  600000 600000 0  650000 600000 0  700000 600000 0  750000 600000 0  800000 600000 0  850000 600000 0  900000 600000 0  950000 600000 0  1000000 600000 0  0 650000 0  50000 650000 0  100000 650000 0  150000 650000 0  200000 650000 0  250000 650000 0  300000 650000 0  350000 650000 0  400000 650000 0  450000 650000 0  500000 650000 0  550000 650000 0  600000 650000 0  650000 650000 0  700000 650000 0  750000 650000 0  800000 650000 0  850000 650000 0  900000 650000 0  950000 650000 0  1000000 650000 0  0 700000 0  50000 700000 0  100000 700000 0  150000 700000 0  200000 700000 0  250000 700000 0  300000 700000 0  350000 700000 0  400000 700000 0  450000 700000 0  500000 700000 0  550000 700000 0  600000 700000 0  650000 700000 0  700000 700000 0  750000 700000 0  800000 700000 0  850000 700000 0  900000 700000 0  950000 700000 0  1000000 700000 0  0 750000 0  50000 750000 0  100000 750000 0  150000 750000 0  200000 750000 0  250000 750000 0  300000 750000 0  350000 750000 0  400000 750000 0  450000 750000 0  500000 750000 0  550000 750000 0  600000 750000 0  650000 750000 0  700000 750000 0  750000 750000 0  800000 750000 0  850000 750000 0  900000 750000 0  950000 750000 0  1000000 750000 0  0 800000 0  50000 800000 0  100000 800000 0  150000 800000 0  200000 800000 0  250000 800000 0  300000 800000 0  350000 800000 0  400000 800000 0  450000 800000 0  500000 800000 0  550000 800000 0  600000 800000 0  650000 800000 0  700000 800000 0  750000 800000 0  800000 800000 0  850000 800000 0  900000 800000 0  950000 800000 0  1000000 800000 0  0 850000 0  50000 850000 0  100000 850000 0  150000 850000 0  200000 850000 0  250000 850000 0  300000 850000 0  350000 850000 0  400000 850000 0  450000 850000 0  500000 850000 0  550000 850000 0  600000 850000 0  650000 850000 0  700000 850000 0  750000 850000 0  800000 850000 0  850000 850000 0  900000 850000 0  950000 850000 0  1000000 850000 0  0 900000 0  50000 900000 0  100000 900000 0  150000 900000 0  200000 900000 0  250000 900000 0  300000 900000 0  350000 900000 0  400000 900000 0  450000 900000 0  500000 900000 0  550000 900000 0  600000 900000 0  650000 900000 0  700000 900000 0  750000 900000 0  800000 900000 0  850000 900000 0  900000 900000 0  950000 900000 0  1000000 900000 0  0 950000 0  50000 950000 0  100000 950000 0  150000 950000 0  200000 950000 0  250000 950000 0  300000 950000 0  350000 950000 0  400000 950000 0  450000 950000 0  500000 950000 0  550000 950000 0  600000 950000 0  650000 950000 0  700000 950000 0  750000 950000 0  800000 950000 0  850000 950000 0  900000 950000 0  950000 950000 0  1000000 950000 0  0 1000000 0  50000 1000000 0  100000 1000000 0  150000 1000000 0  200000 1000000 0  250000 1000000 0  300000 1000000 0  350000 1000000 0  400000 1000000 0  450000 1000000 0  500000 1000000 0  550000 1000000 0  600000 1000000 0  650000 1000000 0  700000 1000000 0  750000 1000000 0  800000 1000000 0  850000 1000000 0  900000 1000000 0  950000 1000000 0  1000000 1000000 0  0 1050000 0  50000 1050000 0  100000 1050000 0  150000 1050000 0  200000 1050000 0  250000 1050000 0  300000 1050000 0  350000 1050000 0  400000 1050000 0  450000 1050000 0  500000 1050000 0  550000 1050000 0  600000 1050000 0  650000 1050000 0  700000 1050000 0  750000 1050000 0  800000 1050000 0  850000 1050000 0  900000 1050000 0  950000 1050000 0  1000000 1050000 0  0 1100000 0  50000 1100000 0  100000 1100000 0  150000 1100000 0  200000 1100000 0  250000 1100000 0  300000 1100000 0  350000 1100000 0  400000 1100000 0  450000 1100000 0  500000 1100000 0  550000 1100000 0  600000 1100000 0  650000 1100000 0  700000 1100000 0  750000 1100000 0  800000 1100000 0  850000 1100000 0  900000 1100000 0  950000 1100000 0  1000000 1100000 0  0 1150000 0  50000 1150000 0  100000 1150000 0  150000 1150000 0  200000 1150000 0  250000 1150000 0  300000 1150000 0  350000 1150000 0  400000 1150000 0  450000 1150000 0  500000 1150000 0  550000 1150000 0  600000 1150000 0  650000 1150000 0  700000 1150000 0  750000 1150000 0  800000 1150000 0  850000 1150000 0  900000 1150000 0  950000 1150000 0  1000000 1150000 0  0 1200000 0  50000 1200000 0  100000 1200000 0  150000 1200000 0  200000 1200000 0  250000 1200000 0  300000 1200000 0  350000 1200000 0  400000 1200000 0  450000 1200000 0  500000 1200000 0  550000 1200000 0  600000 1200000 0  650000 1200000 0  700000 1200000 0  750000 1200000 0  800000 1200000 0  850000 1200000 0  900000 1200000 0  950000 1200000 0  1000000 1200000 0  0 1250000 0  50000 1250000 0  100000 1250000 0  150000 1250000 0  200000 1250000 0  250000 1250000 0  300000 1250000 0  350000 1250000 0  400000 1250000 0  450000 1250000 0  500000 1250000 0  550000 1250000 0  600000 1250000 0  650000 1250000 0  700000 1250000 0  750000 1250000 0  800000 1250000 0  850000 1250000 0  900000 1250000 0  950000 1250000 0  1000000 1250000 0  0 1300000 0  50000 1300000 0  100000 1300000 0  150000 1300000 0  200000 1300000 0  250000 1300000 0  300000 1300000 0  350000 1300000 0  400000 1300000 0  450000 1300000 0  500000 1300000 0  550000 1300000 0  600000 1300000 0  650000 1300000 0  700000 1300000 0  750000 1300000 0  800000 1300000 0  850000 1300000 0  900000 1300000 0  950000 1300000 0  1000000 1300000 0  0 1350000 0  50000 1350000 0  100000 1350000 0  150000 1350000 0  200000 1350000 0  250000 1350000 0  300000 1350000 0  350000 1350000 0  400000 1350000 0  450000 1350000 0  500000 1350000 0  550000 1350000 0  600000 1350000 0  650000 1350000 0  700000 135
[...]
<PointData  Scalars="f_25027"> 
<DataArray  type="Float64"  Name="f_25027"  format="ascii">-5.5049881477371829e-04  8.8014702984512603e-05  1.0138125912351856e-04  1.5375511040523952e-04  1.8879040802008900e-04  2.1523479597415054e-04  2.3795599074634226e-04  2.5809038822444206e-04  2.7663202237420824e-04  2.9423967992766599e-04  3.1141118661620019e-04  3.2858272631312738e-04  3.4619027442134417e-04  3.6472874052323787e-04  3.8487507832143817e-04  4.0761664404341086e-04  4.3348864442128282e-04  4.7202911793949720e-04  5.1916679020556846e-04  4.5848315068105301e-04  2.3514906781827763e-03  3.7122539802441347e-05  7.5236427185151601e-05  9.8524999699279935e-05  1.5885769109750229e-04  1.8937416540495272e-04  2.1582858654289354e-04  2.3832912214302390e-04  2.5831489856752073e-04  2.7677075135782131e-04  2.9431310523790724e-04  3.1142975420213602e-04  3.2854848501154781e-04  3.4609695221431998e-04  3.6456656046755749e-04  3.8459339841273230e-04  4.0703998406671959e-04  4.3372927978839487e-04  4.6703517188315726e-04  5.0391388112980989e-04  6.3898786765055539e-04  5.0277101137041378e-04  1.0423107611648204e-04  1.0193256115362563e-04  1.4075882213707914e-04  1.7217872044122796e-04  1.9644471371596523e-04  2.2042067962289380e-04  2.4114213599031061e-04  2.6009930697447597e-04  2.7784079816527368e-04  2.9483030496032711e-04  3.1146690099935953e-04  3.2811027737477902e-04  3.4512230145180228e-04  3.6290596108050376e-04  3.8194957459168242e-04  4.0291529119264920e-04  4.2664364419700898e-04  4.5373340893427425e-04  4.8946297348737738e-04  5.0768661679980050e-04  5.1575377956956914e-04  1.4945405699368750e-04  1.5348337358649724e-04  1.6935151412019570e-04  1.8692595762367380e-04  2.0768511898627010e-04  2.2744379308433735e-04  2.4571183384916194e-04  2.6307060831475308e-04  2.7963243839617487e-04  2.9568413100391843e-04  3.1148958532654805e-04  3.2730386827737381e-04  3.4338489796020800e-04  3.6000300459433383e-04  3.7744661202449953e-04  3.9599795449155701e-04  4.1581644930789905e-04  4.3689921975341970e-04  4.5631774222587329e-04  4.7071762843200820e-04  4.7632762772745457e-04  1.8130387112282777e-04  1.8235441066332639e-04  1.9086673802171642e-04  2.0427402162992924e-04  2.1983024827417215e-04  2.3559017292227639e-04  2.5136764013885789e-04  2.6683241751973411e-04  2.8193793265089370e-04  2.9678889094956687e-04  3.1150828817937923e-04  3.2623692850060592e-04  3.4111747652992234e-04  3.5628149081679629e-04  3.7182409384728052e-04  3.8774451957465335e-04  4.0382698262862249e-04  4.1926759887130733e-04  4.3248611488530249e-04  4.4091700938184066e-04  4.4094199128923628e-04  2.0353075987342479e-04  2.0424151427651108e-04  2.1008300894058790e-04  2.1950816285958626e-04  2.3112549499026378e-04  2.4397915649355148e-04  2.5739125581360000e-04  2.7094533816928031e-04  2.8450581067201969e-04  2.9802619048797637e-04  3.1151686129104555e-04  3.2501567054065702e-04  3.3856075803118623e-04  3.5216643627317585e-04  3.6578794492254002e-04  3.7926305129642074e-04  3.9220992998892183e-04  4.0390756911428733e-04  4.1320976377728490e-04  4.1863302187717820e-04  4.1931716598783383e-04  2.2067359069667233e-04  2.2118114850712821e-04  2.2530119542205060e-04  2.3228523082540365e-04  2.4141075802942960e-04  2.5192756127692103e-04  2.6326688443533894e-04  2.7507233313714933e-04  2.8712545047715195e-04  2.9929682720036631e-04  3.1151764718835632e-04  3.2374464770884917e-04  3.3593431317786811e-04  3.4801681776746690e-04  3.5986359125067329e-04  3.7124412576224872e-04  3.8177431368532466e-04  3.9087514384055519e-04  3.9778454181562870e-04  4.0172558969977525e-04  4.0214908011925495e-04  2.3411010058800572e-04  2.3447574246929234e-04  2.3759276760096522e-04  2.4303584315462151e-04  2.5035798009527175e-04  2.5905190229521396e-04  2.6869840678529929e-04  2.7897191557096646e-04  2.8963505017387287e-04  3.0052203691439261e-04  3.1151239503599286e-04  3.2250679275972735e-04  3.3340553063920461e-04  3.4408612932875849e-04  3.5437893130634191e-04  3.6404106109538673e-04  3.7273406510667705e-04  3.8001974333331861e-04  3.8539640729545591e-04  3.8839605174482126e-04  3.8870554087536071e-04  2.4476801408396227e-04  2.4505225599351664e-04  2.4752203517749939e-04  2.5190834203844841e-04  2.5793052209243257e-04  2.6524220438008567e-04  2.7352233782605728e-04  2.8249253232131281e-04  2.9192761785954243e-04  3.0164745280201116e-04  3.1150295644470578e-04  3.2136074763844570e-04  3.3108693331167737e-04  3.4053068763367772e-04  3.4950820956637809e-04  3.5778894889246937e-04  3.6508874904555861e-04  3.7107859002943086e-04  3.7541499471476522e-04  3.7780314474688745e-04  3.7805216951617446e-04  2.5324116934426346e-04  2.5347095517085782e-04  2.5549881113960242e-04  2.5914332733188201e-04  2.6421786956301222e-04  2.7047424970643271e-04  2.7766437005952876e-04  2.8555533110280343e-04  2.9394074053946658e-04  3.0263976791502134e-04  3.1149106107095873e-04  3.2034341265446193e-04  3.2904512345819259e-04  3.3743337039933414e-04  3.4532480681064178e-04  3.5250944094227893e-04  3.5875089990319842e-04  3.6379750500244108e-04  3.6740446349879793e-04  3.6937526979219262e-04  3.6958004665006271e-04  2.5992348323372182e-04  2.6011552127350868e-04  2.6183327904142077e-04  2.6494620683553238e-04  2.6932220795864288e-04  2.7477561566013360e-04  2.8110989879132011e-04  2.8812815850449644e-04  2.9564350492359615e-04  3.0348143595560601e-04  3.1147795480745635e-04  3.1947476218251142e-04  3.2731319180661082e-04  3.3482816322943991e-04  3.4184347917100435e-04  3.4817011132780849e-04  3.5360928644369977e-04  3.5796260801583248e-04  3.6104729276411322e-04  3.6272423670818949e-04  3.6289847281515168e-04  2.6508995998020252e-04  2.6525545478347162e-04  2.6675294176123425e-04  2.6948293969459170e-04  2.7334607620012688e-04  2.7819662964092857e-04  2.8387325476537245e-04  2.9020607154657557e-04  2.9702543525937002e-04  3.0416544213247425e-04  3.1146444519156819e-04  3.1876332978293963e-04  3.2590273362102405e-04  3.3272029329364566e-04  3.3904902981267957e-04  3.4471804462979909e-04  3.4955650265148868e-04  3.5340209962856040e-04  3.5611128375942323e-04  3.5757966731623690e-04  3.5773255248914209e-04  2.6893464871059124e-04  2.6908150887648902e-04  2.7042437326403124e-04  2.7288339398835081e-04  2.7637892087496214e-04  2.8079059019304700e-04  2.8598051715663086e-04  2.9179813562189215e-04  2.9808745543620746e-04  3.0469086592320276e-04  3.1145097182948620e-04  3.1821080833186404e-04  3.2481325478871294e-04  3.3110047461937838e-04  3.3691421803876695e-04  3.4209778579001869e-04  3.4650013819362773e-04  3.4998289994131270e-04  3.5242724667076394e-04  3.5375004829443286e-04  3.5388824502451919e-04  2.7159276530630945e-04  2.7172701500549824e-04  2.7296663900694992e-04  2.7524429716966595e-04  2.7849184546004845e-04  2.8260449120378174e-04  2.8745921394862531e-04  2.9291829031189863e-04  2.9883544507410139e-04  3.0505966384258815e-04  3.1143771463751623e-04  3.1781550870875664e-04  3.2403886844355575e-04  3.2995431359530460e-04  3.3541047992650415e-04  3.4026071854462170e-04  3.4436708553673892e-04  3.4760631706289978e-04  3.4987460337508055e-04  3.5110159739745733e-04  3.5123040607796982e-04  2.7315370886897133e-04  2.7328027603608937e-04  2.7445969813409742e-04  2.7663232920687245e-04  2.7973588988604450e-04  2.8367409934120939e-04  2.8833214556476345e-04  2.9357962375410845e-04  2.9927602222861859e-04  3.0527448979238088e-04  3.1142468324644963e-04  3.1757472700450439e-04  3.2357270563030142e-04  3.2926816543227440e-04  3.3451410208700704e-04  3.3916984440572829e-04  3.4310490249814073e-04  3.4620436380751170e-04  3.4837242568553414e-04  3.4954573939987481e-04  3.4966967887154301e-04  2.7366854348622843e-04  2.7379175534739396e-04  2.7494957758324639e-04  2.7708644031988489e-04  2.8014154328241388e-04  2.8402145632110728e-04  2.8861396444670171e-04  2.9379101753807251e-04  2.9941396851884450e-04  3.0533734192638009e-04  3.1141178748733239e-04  3.1748623304830110e-04  3.2340960645588565e-04  3.2903255743673381e-04  3.3420961052820045e-04  3.3880211865390249e-04  3.4268203169270247e-04  3.4573713465532626e-04  3.4787399739203681e-04  3.4903181962793022e-04  3.4915503148910221e-04  2.7315389610377765e-04  2.7327783557543907e-04  2.7445114928973833e-04  2.7661921116768710e-04  2.7971867247696190e-04  2.8365373056926560e-04  2.8830947288787826e-04  2.9355540954251381e-04  2.9925086934440965e-04  3.0524884797015871e-04  3.1139889172819834e-04  3.1754908518228617e-04  3.2354755274610094e-04  3.2924395122069157e-04  3.3449142941013865e-04  3.3914947563380606e-04  3.4308768508908475e-04  3.4619124576835747e-04  3.4836387684120975e-04  3.4954329893926154e-04  3.4966986610638701e-04  2.7159316889735675e-04  2.7172197757786289e-04  2.7294897160019393e-04  2.7521725791229386e-04  2.7845648943834842e-04  2.8256285643034649e-04  2.8741309504834569e-04  2.9286926137943943e-04  2.9878470653110610e-04  3.0500806626585435e-04  3.1138586033707964e-04  3.1776391113203022e-04  3.2398812990057612e-04  3.2990528466286985e-04  3.3536436102625831e-04  3.4021908377123035e-04  3.4433172951509272e-04  3.4757927780559031e-04  3.4985693596839540e-04  3.5109655996989821e-04  3.5123080966909486e-04  2.6893532995083476e-04  2.6907352668091269e-04  2.7039632830452761e-04  2.7284067503388252e-04  2.7632343678144237e-04  2.8072578918491176e-04  2.8590935693602603e-04  2.9172310035529289e-04  2.9801032018586467e-04  3.0461276664265599e-04  3.1137260314501801e-04  3.1813270905132866e-04  3.2473611953839318e-04  3.3102543935281469e-04  3.3684305781821216e-04  3.4203298478194878e-04  3.4644465410018895e-04  3.4994018098694117e-04  3.5239920171136911e-04  3.5374206609897437e-04  3.5388892626488241e-04  2.6509102248626173e-04  2.6524390765915706e-04  2.6671229121590252e-04  2.6942147534664442e-04  2.7326707232355963e-04  2.7810553034507694e-04  2.8377454516202927e-04  2.9010328168091676e-04  2.9692084135342687e-04  3.0406024519144363e-04  3.1135912978279642e-04  3.1865813284192299e-04  3.2579813971510990e-04  3.3261750342803250e-04  3.3895032020940101e-04  3.4462694533403409e-04  3.4947749877503137e-04  3.5334063528074549e-04  3.5607063321424330e-04  3.5756812019208795e-04  3.5773361499536995e-04  2.5992510216033454e-04  2.6009933826728405e-04  2.6177628221127000e-04  2.6486096695939060e-04  2.6921428853131959e-04  2.7465346364699008e-04  2.8098009580358356e-04  2.8799541174496704e-04  2.9551038316766038e-04  3.0334881279167771e-04  3.1134562016671007e-04  3.1934213901859890e-04  3.2718007005070796e-04  3.3469541646996407e-04  3.4171367618334553e-04  3.4804795931477181e-04  3.5350136701651510e-04  3.5787736813986228e-04  3.6099029593416270e-04  3.6270805370218641e-04  3.6290009174199110e-04  2.5324352832554971e-04  2.5344830518340305e-04  2.5541911147667251e-04  2.5902606997281003e-04  2.6407267507177747e-04  2.7031413403240677e-04  2.7749876816377379e-04  2.8539020457485538e-04  2.9377845151583071e-04  3.0248016231946206e-04  3.1133251390293664e-04  3.2018380705891864e-04  3.2888283443459115e-04  3.3726824387144376e-04  3.4515920491497333e-04  3.5234932526837605e-04  3.5860570541213014e-04  3.6368024764358279e-04  3.6732476383612595e-04  3.6935261980502879e-04  3.6958240563164841e-04  2.4477140545962791e-04  2.4502043022889085e-04  2.4740858026083299e-04  2.5174498494585457e-04  2.5773482592934593e-04  2.6503462608204822e-04  2.7331536540779202e-04  2.8229288734021239e-04  2.9173664166201179e-04  3.0146282733512479e-04  3.1132061852882968e-04  3.2117612217157364e-04  3.3089595711417833e-04  3.4033104265263216e-04  3.4930123714820114e-04  3.5758137059456512e-04  3.6489305288266274e-04  3.7091523293709592e-04  3.7530153979842577e-04  3.7777131898264352e-04  3.7805556089223465e-04  2.3411803410072006e-04  2.3442752323123004e-04  2.3742716768032353e-04  2.4280383164199852e-04  2.5008950986810162e-04  2.5878251387887282e-04  2.6844464366747658e-04  2.7873744564472168e-04  2.8941804433404186e-04  3.0031678221338430e-04  3.1131117993707732e-04  3.2230153805872848e-04  3.3318852479939637e-04  3.4385165940255800e-04  3.5412516818859776e-04  3.6377167267917309e-04  3.7246559487970912e-04  3.7978773182100140e-04  3.8523080737522930e-04  3.8834783250726390e-04  3.8871347438860582e-04  2.2067449485725117e-04  2.2109798527669187e-04  2.2503903316039556e-04  2.3194843113476292e-04  2.4104926128921836e-04  2.5157944921160458e-04  2.6295998372263975e-04  2.7480675720545990e-04  2.8688926179480634e-04  2.9907892726368406e-04  3.1130592778413137e-04  3.2352674777216773e-04  3.3569812449552868e-04  3.4775124183579850e-04  3.5955669053802137e-04  3.7089601369703819e-04  3.8141281694533020e-04  3.9053834415026477e-04  3.9752237955448179e-04  4.0164242647000803e-04  4.0214998428057510e-04  2.0350640898943631e-04  2.0419055309986407e-04  2.0961381119906310e-04  2.1891600586091927e-04  2.3061364498515937e-04  2.4356052367678001e-04  2.5703563005004666e-04  2.7065713869901798e-04  2.8426281694077070e-04  2.9780790443117278e-04  3.1130671368074088e-04  3.2479738448384216e-04  3.3831776429991901e-04  3.5187823680289405e-04  3.6543231915898880e-04  3.7884441847972454e-04  3.9169807998392313e-04  4.0331541211581528e-04  4.1274056603635687e-04  4.1858206070161477e-04  4.1929281510481251e-04  1.8188158368820845e-04  1.8190656559627841e-04  1.9033746009141796e-04  2.0355597610339994e-04  2.1899659234455215e-04  2.3507905539749087e-04  2.5099948112428534e-04  2.6654208415445823e-04  2.8170609844117210e-04  2.9658664647040981e-04  3.1131528679160446e-04  3.2603468402142127e-04  3.4088564232014789e-04  3.5599115745144701e-04  3.7145593483265467e-04  3.8723340204978990e-04  4.0299332669892045e-04  4.1854955334554050e-04  4.3195683695621001e-04  4.4046916431603439e-04  4.4151970385667328e-04  1.4649594725426560e-04  1.5210594654845218e-04  1.6650583275020224e-04  1.8592435521999582e-04  2.0700712566341285e-04  2.2682562047895028e-04  2.4537696294569438e-04  2.6282057037578337e-04  2.7943867700991180e-04  2.9551970669275770e-04  3.1133398964357402e-04  3.2713944396616515e-04  3.4319113657384887e-04  3.5975296665522431e-04  3.7711174112086516e-04  3.9537978188585897e-04  4.1513845598530025e-04  4.3589761734926815e-04  4.5347206085307378e-04  4.6934020139417819e-04  4.7336951799115682e-04  1.0706979541827327e-04  1.1513695817714112e-04  1.3336060148805021e-04  1.6909016603440435e-04  1.9617993077119064e-04  2.1990828377553163e-04  2.4087400037684620e-04  2.5991761388836497e-04  2.7770127351731550e-04  2.9471329759447846e-04  3.1135667396992326e-04  3.2799327000886466e-04  3.4498277680371068e-04  3.6272426799418623e-04  3.8168143897792972e-04  4.0240289534497308e-04  4.2637886125215720e-04  4.5064485452572990e-04  4.8206475284305616e-04  5.2089101384702519e-04  5.1859249886928151e-04  1.2005256365044955e-04  -1.6164292683934339e-05  1.1890969382361371e-04  1.5578840307882208e-04  1.8909429517499160e-04  2.1578359089875833e-04  2.3823017655408277e-04  2.5825701450011841e-04  2.7672662275389026e-04  2.9427508995693983e-04  3.1139382076641065e-04  3.2851046973048922e-04  3.4605282361019568e-04  3.6450867639983218e-04  3.8449445282330607e-04  4.0699498842188485e-04  4.3344940955689591e-04  4.6396588386229964e-04  5.2429857525881267e-04  5.4758714773355996e-04  5.8570103517264019e-04  -1.7286671025260056e-03  1.6434042409736702e-04  1.0365678475290185e-04  1.5079445702190474e-04  1.8933493053979822e-04  2.1520693092138201e-04  2.3794849664491932e-04  2.5809483444412827e-04  2.7663330054664067e-04  2.9424084865517232e-04  3.1141238835217052e-04  3.2858389504054040e-04  3.4619155259357813e-04  3.6473318674260164e-04  3.8486758421952763e-04  4.0758877898973319e-04  4.3403316694060122e-04  4.6906846455291713e-04  5.2144231581851218e-04  5.3480887190670407e-04  1.1733223900831770e-03  </DataArray> 
</PointData> 
</Piece>
</UnstructuredGrid>
</VTKFile>