<?xml version="1.0"?>
<VTKFile type="UnstructuredGrid"  version="0.1"  >
<UnstructuredGrid>
<Piece  NumberOfPoints="651" NumberOfCells="1200">
<Points>
<DataArray  type="Float64"  NumberOfComponents="3"  format="ascii">0 0 0  50000 0 0  100000 0 0  150000 0 0  200000 0 0  250000 0 0  300000 0 0  350000 0 0  400000 0 0  450000 0 0  500000 0 0  550000 0 0  600000 0 0  650000 0 0  700000 0 0  750000 0 0  800000 0 0  850000 0 0  900000 0 0  950000 0 0  1000000 0 0  0 50000 0  50000 50000 0  100000 50000 0  150000 50000 0  200000 50000 0  250000 50000 0  300000 50000 0  350000 50000 0  400000 50000 0  450000 50000 0  500000 50000 0  550000 50000 0  600000 50000 0  650000 50000 0  700000 50000 0  750000 50000 0  800000 50000 0  850000 50000 0  900000 50000 0  950000 50000 0  1000000 50000 0  0 100000 0  50000 100000 0  100000 100000 0  150000 100000 0  200000 100000 0  250000 100000 0  300000 100000 0  350000 100000 0  400000 100000 0  450000 100000 0  500000 100000 0  550000 100000 0  600000 100000 0  650000 100000 0  700000 100000 0  750000 100000 0  800000 100000 0  850000 100000 0  900000 100000 0  950000 100000 0  1000000 100000 0  0 150000 0  50000 150000 0  100000 150000 0  150000 150000 0  200000 150000 0  250000 150000 0  300000 150000 0  350000 150000 0  400000 150000 0  450000 150000 0  500000 150000 0  550000 150000 0  600000 150000 0  650000 150000 0  700000 150000 0  750000 150000 0  800000 150000 0  850000 150000 0  900000 150000 0  950000 150000 0  1000000 150000 0  0 200000 0  50000 200000 0  100000 200000 0  150000 200000 0  200000 200000 0  250000 200000 0  300000 200000 0  350000 200000 0  400000 200000 0  450000 200000 0  500000 200000 0  550000 200000 0  600000 200000 0  650000 200000 0  700000 200000 0  750000 200000 0  800000 200000 0  850000 200000 0  900000 200000 0  950000 200000 0  1000000 200000 0  0 250000 0  50000 250000 0  100000 250000 0  150000 250000 0  200000 250000 0  250000 250000 0  300000 250000 0  350000 250000 0  400000 250000 0  450000 250000 0  500000 250000 0  550000 250000 0  600000 250000 0  650000 250000 0  700000 250000 0  750000 250000 0  800000 250000 0  850000 250000 0  900000 250000 0  950000 250000 0  1000000 250000 0  0 300000 0  50000 300000 0  100000 300000 0  150000 300000 0  200000 300000 0  250000 300000 0  300000 300000 0  350000 300000 0  400000 300000 0  450000 300000 0  500000 300000 0  550000 300000 0  600000 300000 0  650000 300000 0  700000 300000 0  750000 300000 0  800000 300000 0  850000 300000 0  900000 300000 0  950000 300000 0  1000000 300000 0  0 350000 0  50000 350000 0  100000 350000 0  150000 350000 0  200000 350000 0  250000 350000 0  300000 350000 0  350000 350000 0  400000 350000 0  450000 350000 0  500000 350000 0  550000 350000 0  600000 350000 0  650000 350000 0  700000 350000 0  750000 350000 0  800000 350000 0  850000 350000 0  900000 350000 0  950000 350000 0  1000000 350000 0  0 400000 0  50000 400000 0  100000 400000 0  150000 400000 0  200000 400000 0  250000 400000 0  300000 400000 0  350000 400000 0  400000 400000 0  450000 400000 0  500000 400000 0  550000 400000 0  600000 400000 0  650000 400000 0  700000 400000 0  750000 400000 0  800000 400000 0  850000 400000 0  900000 400000 0  950000 400000 0  1000000 400000 0  0 450000 0  50000 450000 0  100000 450000 0  150000 450000 0  200000 450000 0  250000 450000 0  300000 450000 0  350000 450000 0  400000 450000 0  450000 450000 0  500000 450000 0  550000 450000 0  600000 450000 0  650000 450000 0  700000 450000 0  750000 450000 0  800000 450000 0  850000 450000 0  900000 450000 0  950000 450000 0  1000000 450000 0  0 500000 0  50000 500000 0  100000 500000 0  150000 500000 0  200000 500000 0  250000 500000 0  300000 500000 0  350000 500000 0  400000 500000 0  450000 500000 0  500000 500000 0  550000 500000 0  600000 500000 0  650000 500000 0  700000 500000 0  750000 500000 0  800000 500000 0  850000 500000 0  900000 500000 0  950000 500000 0  1000000 500000 0  0 550000 0  50000 550000 0  100000 550000 0  150000 550000 0  200000 550000 0  250000 550000 0  300000 550000 0  350000 550000 0  400000 550000 0  450000 550000 0  500000 550000 0  550000 550000 0  600000 550000 0  650000 550000 0  700000 550000 0  750000 550000 0  800000 550000 0  850000 550000 0  900000 550000 0  950000 550000 0  1000000 550000 0  0 600000 0  50000 600000 0  100000 600000 0  150000 600000 0  200000 600000 0  250000 600000 0  300000 600000 0  350000 600000 0  400000 600000 0  450000 600000 0  500000 600000 0  550000 600000 0  600000 600000 0  650000 600000 0  700000 600000 0  750000 600000 0  800000 600000 0  850000 600000 0  900000 600000 0  950000 600000 0  1000000 600000 0  0 650000 0  50000 650000 0  100000 650000 0  150000 650000 0  200000 650000 0  250000 650000 0  300000 650000 0  350000 650000 0  400000 650000 0  450000 650000 0  500000 650000 0  550000 650000 0  600000 650000 0  650000 650000 0  700000 650000 0  750000 650000 0  800000 650000 0  850000 650000 0  900000 650000 0  950000 650000 0  1000000 650000 0  0 700000 0  50000 700000 0  100000 700000 0  150000 700000 0  200000 700000 0  250000 700000 0  300000 700000 0  350000 700000 0  400000 700000 0  450000 700000 0  500000 700000 0  550000 700000 0  600000 700000 0  650000 700000 0  700000 700000 0  750000 700000 0  800000 700000 0  850000 700000 0  900000 700000 0  950000 700000 0  1000000 700000 0  0 750000 0  50000 750000 0  100000 750000 0  150000 750000 0  200000 750000 0  250000 750000 0  300000 750000 0  350000 750000 0  400000 750000 0  450000 750000 0  500000 750000 0  550000 750000 0  600000 750000 0  650000 750000 0  700000 750000 0  750000 750000 0  800000 750000 0  850000 750000 0  900000 750000 0  950000 750000 0  1000000 750000 0  0 800000 0  50000 800000 0  100000 800000 0  150000 800000 0  200000 800000 0  250000 800000 0  300000 800000 0  350000 800000 0  400000 800000 0  450000 800000 0  500000 800000 0  550000 800000 0  600000 800000 0  650000 800000 0  700000 800000 0  750000 800000 0  800000 800000 0  850000 800000 0  900000 800000 0  950000 800000 0  1000000 800000 0  0 850000 0  50000 850000 0  100000 850000 0  150000 850000 0  200000 850000 0  250000 850000 0  300000 850000 0  350000 850000 0  400000 850000 0  450000 850000 0  500000 850000 0  550000 850000 0  600000 850000 0  650000 850000 0  700000 850000 0  750000 850000 0  800000 850000 0  850000 850000 0  900000 850000 0  950000 850000 0  1000000 850000 0  0 900000 0  50000 900000 0  100000 900000 0  150000 900000 0  200000 900000 0  250000 900000 0  300000 900000 0  350000 900000 0  400000 900000 0  450000 900000 0  500000 900000 0  550000 900000 0  600000 900000 0  650000 900000 0  700000 900000 0  750000 900000 0  800000 900000 0  850000 900000 0  900000 900000 0  950000 900000 0  1000000 900000 0  0 950000 0  50000 950000 0  100000 950000 0  150000 950000 0  200000 950000 0  250000 950000 0  300000 950000 0  350000 950000 0  400000 950000 0  450000 950000 0  500000 950000 0  550000 950000 0  600000 950000 0  650000 950000 0  700000 950000 0  750000 950000 0  800000 950000 0  850000 950000 0  900000 950000 0  950000 950000 0  1000000 950000 0  0 1000000 0  50000 1000000 0  100000 1000000 0  150000 1000000 0  200000 1000000 0  250000 1000000 0  300000 1000000 0  350000 1000000 0  400000 1000000 0  450000 1000000 0  500000 1000000 0  550000 1000000 0  600000 1000000 0  650000 1000000 0  700000 1000000 0  750000 1000000 0  800000 1000000 0  850000 1000000 0  900000 1000000 0  950000 1000000 0  1000000 1000000 0  0 1050000 0  50000 1050000 0  100000 1050000 0  150000 1050000 0  200000 1050000 0  250000 1050000 0  300000 1050000 0  350000 1050000 0  400000 1050000 0  450000 1050000 0  500000 1050000 0  550000 1050000 0  600000 1050000 0  650000 1050000 0  700000 1050000 0  750000 1050000 0  800000 1050000 0  850000 1050000 0  900000 1050000 0  950000 1050000 0  1000000 1050000 0  0 1100000 0  50000 1100000 0  100000 1100000 0  150000 1100000 0  200000 1100000 0  250000 1100000 0  300000 1100000 0  350000 1100000 0  400000 1100000 0  450000 1100000 0  500000 1100000 0  550000 1100000 0  600000 1100000 0  650000 1100000 0  700000 1100000 0  750000 1100000 0  800000 1100000 0  850000 1100000 0  900000 1100000 0  950000 1100000 0  1000000 1100000 0  0 1150000 0  50000 1150000 0  100000 1150000 0  150000 1150000 0  200000 1150000 0  250000 1150000 0  300000 1150000 0  350000 1150000 0  400000 1150000 0  450000 1150000 0  500000 1150000 0  550000 1150000 0  600000 1150000 0  650000 1150000 0  700000 1150000 0  750000 1150000 0  800000 1150000 0  850000 1150000 0  900000 1150000 0  950000 1150000 0  1000000 1150000 0  0 1200000 0  50000 1200000 0  100000 1200000 0  150000 1200000 0  200000 1200000 0  250000 1200000 0  300000 1200000 0  350000 1200000 0  400000 1200000 0  450000 1200000 0  500000 1200000 0  550000 1200000 0  600000 1200000 0  650000 1200000 0  700000 1200000 0  750000 1200000 0  800000 1200000 0  850000 1200000 0  900000 1200000 0  950000 1200000 0  1000000 1200000 0  0 1250000 0  50000 1250000 0  100000 1250000 0  150000 1250000 0  200000 1250000 0  250000 1250000 0  300000 1250000 0  350000 1250000 0  400000 1250000 0  450000 1250000 0  500000 1250000 0  550000 1250000 0  600000 1250000 0  650000 1250000 0  700000 1250000 0  750000 1250000 0  800000 1250000 0  850000 1250000 0  900000 1250000 0  950000 1250000 0  1000000 1250000 0  0 1300000 0  50000 1300000 0  100000 1300000 0  150000 1300000 0  200000 1300000 0  250000 1300000 0  300000 1300000 0  350000 1300000 0  400000 1300000 0  450000 1300000 0  500000 1300000 0  550000 1300000 0  600000 1300000 0  650000 1300000 0  700000 1300000 0  750000 1300000 0  800000 1300000 0  850000 1300000 0  900000 1300000 0  950000 1300000 0  1000000 1300000 0  0 1350000 0  50000 1350000 0  100000 1350000 0  150000 1350000 0  200000 1350000 0  250000 1350000 0  300000 1350000 0  350000 1350000 0  400000 1350000 0  450000 1350000 0  500000 1350000 0  550000 1350000 0  600000 1350000 0  650000 1350000 0  700000 135
[...]
<PointData  Scalars="f_25027"> 
<DataArray  type="Float64"  Name="f_25027"  format="ascii">1.0139590999086762e-03  1.0732075335559456e-03  1.0996589536664745e-03  1.1135571133979100e-03  1.1234008264557102e-03  1.1312573140329523e-03  1.1379577677346905e-03  1.1439381208732129e-03  1.1494652177373116e-03  1.1547232287103344e-03  1.1598546488086137e-03  1.1649840906151881e-03  1.1702358257092748e-03  1.1757512070723079e-03  1.1817120575535534e-03  1.1883808590146961e-03  1.1961857472175671e-03  1.2059415584572701e-03  1.2196643177661258e-03  1.2463914487501021e-03  1.3296519361713844e-03  1.0792399927558470e-03  1.0901927243231995e-03  1.1030638469250278e-03  1.1148264414697895e-03  1.1240700574999699e-03  1.1316625087223651e-03  1.1382162030012368e-03  1.1441028657088795e-03  1.1495636469302114e-03  1.1547697495491894e-03  1.1598557693500982e-03  1.1649404194199206e-03  1.1701423250455186e-03  1.1755959084009421e-03  1.1814725899162773e-03  1.1880160043952770e-03  1.1956093782786561e-03  1.2049131335579685e-03  1.2171128661771545e-03  1.2335981430632776e-03  1.2439598190908375e-03  1.1008152547518698e-03  1.1038439389757999e-03  1.1111116043252148e-03  1.1190184198987853e-03  1.1264516852621308e-03  1.1331260839435343e-03  1.1391516585798878e-03  1.1447004926775116e-03  1.1499227797647392e-03  1.1549422723778065e-03  1.1598647504126776e-03  1.1647873879640806e-03  1.1698077148536452e-03  1.1750328491539079e-03  1.1805899138222235e-03  1.1866374030400939e-03  1.1933710478247224e-03  1.2009903626645799e-03  1.2094779439132373e-03  1.2176126736475551e-03  1.2196829402936189e-03  1.1130749793128811e-03  1.1143786835748925e-03  1.1185703135206673e-03  1.1239821846131431e-03  1.1296914515499361e-03  1.1352585123132416e-03  1.1405679006431337e-03  1.1456261453372956e-03  1.1504864533873141e-03  1.1552145225438043e-03  1.1598774589140326e-03  1.1645418647772919e-03  1.1692749378942574e-03  1.1741458652604281e-03  1.1792250299914326e-03  1.1845759249974740e-03  1.1902267414538837e-03  1.1960894402823225e-03  1.2017591391890509e-03  1.2061294917292517e-03  1.2071277235409376e-03  1.1215108389409868e-03  1.1222653453311342e-03  1.1249150417745842e-03  1.1287270832511893e-03  1.1331015064828726e-03  1.1376692500417547e-03  1.1422432989684316e-03  1.1467519597811342e-03  1.1511826433717720e-03  1.1555516858351078e-03  1.1598884865615024e-03  1.1642275307891874e-03  1.1686038923857760e-03  1.1730489207558308e-03  1.1775828016610786e-03  1.1821990655520992e-03  1.1868327485024608e-03  1.1913005218954077e-03  1.1952090089205700e-03  1.1978879046223182e-03  1.1985602016888997e-03  1.1278029283838590e-03  1.1283139478400002e-03  1.1301425259222608e-03  1.1329364291606933e-03  1.1363421082751215e-03  1.1400862932105268e-03  1.1439918985468671e-03  1.1479598726288666e-03  1.1519422607654225e-03  1.1559216201312628e-03  1.1598970427952055e-03  1.1638749296317846e-03  1.1678620924371985e-03  1.1718588639104790e-03  1.1758497641328192e-03  1.1797888940053298e-03  1.1835772798937396e-03  1.1870323902220719e-03  1.1898623418473381e-03  1.1916875808221366e-03  1.1921729038212108e-03  1.1326882934998971e-03  1.1330640827941427e-03  1.1344131873068019e-03  1.1365476902302763e-03  1.1392574663250034e-03  1.1423517105834569e-03  1.1456848434133542e-03  1.1491575433018621e-03  1.1527072342509088e-03  1.1562964910951453e-03  1.1599030967763095e-03  1.1635119801124347e-03  1.1671082648030714e-03  1.1706702461367184e-03  1.1741610382879294e-03  1.1775179106735844e-03  1.1806395013224558e-03  1.1833743924618959e-03  1.1855214570132176e-03  1.1868611994274032e-03  1.1872258808023511e-03  1.1365595241665813e-03  1.1368505728115220e-03  1.1378969540581697e-03  1.1395886353616619e-03  1.1417952770523092e-03  1.1443847820131951e-03  1.1472432305643806e-03  1.1502817251883095e-03  1.1534347911591393e-03  1.1566550256122182e-03  1.1599068783736469e-03  1.1631606138251302e-03  1.1663865325027343e-03  1.1695491149736092e-03  1.1726007294749639e-03  1.1754749507592787e-03  1.1780805972326017e-03  1.1802995817159372e-03  1.1819943194981896e-03  1.1830313813176894e-03  1.1833160423396693e-03  1.1396539705106688e-03  1.1398882886957528e-03  1.1407320160182952e-03  1.1421154457274903e-03  1.1439534475137536e-03  1.1461527095902859e-03  1.1486249471124789e-03  1.1512939102163249e-03  1.1540968715026518e-03  1.1569827733084136e-03  1.1599087767645252e-03  1.1628362183632860e-03  1.1657263843446706e-03  1.1685362310281955e-03  1.1712141812367351e-03  1.1736964351561261e-03  1.1759048754545766e-03  1.1777485299828091e-03  1.1791311915436624e-03  1.1799669338964625e-03  1.1801969723656792e-03  1.1421268568220918e-03  1.1423216292889313e-03  1.1430240687164911e-03  1.1441869226024178e-03  1.1457515115220482e-03  1.1476496298375341e-03  1.1498119837204852e-03  1.1521738080326486e-03  1.1546772044033571e-03  1.1572710227912800e-03  1.1599092272224065e-03  1.1625484662845199e-03  1.1651453061414137e-03  1.1676534336549362e-03  1.1700211461072255e-03  1.1721896168504021e-03  1.1740927225769580e-03  1.1756594927016470e-03  1.1768201831845084e-03  1.1775161153972792e-03  1.1777078255427458e-03  1.1440847727832353e-03  1.1442513291935177e-03  1.1448528761955038e-03  1.1458553830393538e-03  1.1472161299318764e-03  1.1488831500516689e-03  1.1508006450509875e-03  1.1529131580403414e-03  1.1551678750628160e-03  1.1575152809649163e-03  1.1599086291085043e-03  1.1623026857130606e-03  1.1646521335625581e-03  1.1669099625272073e-03  1.1690261820906666e-03  1.1709472640640229e-03  1.1726168174790248e-03  1.1739780103760835e-03  1.1749780462117123e-03  1.1755744461323023e-03  1.1757387604029743e-03  1.1456029898542664e-03  1.1457492895719694e-03  1.1462783390128334e-03  1.1471642108879839e-03  1.1483740335338788e-03  1.1498663615524061e-03  1.1515947533374913e-03  1.1535108302154998e-03  1.1555662824619777e-03  1.1577138254267652e-03  1.1599073086165641e-03  1.1621012551933560e-03  1.1642501182223726e-03  1.1663075329875756e-03  1.1682258497065030e-03  1.1699562474490103e-03  1.1714497283473583e-03  1.1726592186006536e-03  1.1735428190149274e-03  1.1740679320077585e-03  1.1742125986167347e-03  1.1467351183074854e-03  1.1468671105008623e-03  1.1473449290757603e-03  1.1481477256611368e-03  1.1492487432561522e-03  1.1506132929079190e-03  1.1522012428499956e-03  1.1539693147981241e-03  1.1558727864738794e-03  1.1578665370325432e-03  1.1599055129855450e-03  1.1619447765208362e-03  1.1639393377947725e-03  1.1658439873957758e-03  1.1676133480107423e-03  1.1692023546113863e-03  1.1705673351319671e-03  1.1716677784768513e-03  1.1724687473477693e-03  1.1729437156937832e-03  1.1730745618735528e-03  1.1475187442686224e-03  1.1476411625209429e-03  1.1480847149207113e-03  1.1488317221341631e-03  1.1498591226923023e-03  1.1511363954067320e-03  1.1526274345632116e-03  1.1542923696947400e-03  1.1560890397888119e-03  1.1579740485060123e-03  1.1599034209620149e-03  1.1618329571041880e-03  1.1637184231977037e-03  1.1655157446238869e-03  1.1671813646026235e-03  1.1686729139993360e-03  1.1699502914206666e-03  1.1709771773357565e-03  1.1717229201521563e-03  1.1721646191095293e-03  1.1722863065087379e-03  1.1479787852443030e-03  1.1480956431636920e-03  1.1485193496426102e-03  1.1492340859260740e-03  1.1502187866573247e-03  1.1514451899993345e-03  1.1528794152288178e-03  1.1544835286934731e-03  1.1562168843561949e-03  1.1580371704850542e-03  1.1599011594929261e-03  1.1617652220854047e-03  1.1635857125571378e-03  1.1653193550453216e-03  1.1669237611080436e-03  1.1683581868520963e-03  1.1695845921840624e-03  1.1705690000760505e-03  1.1712830925795915e-03  1.1717058859138478e-03  1.1718223875846455e-03  1.1481294492544812e-03  1.1482443768864490e-03  1.1486613074558998e-03  1.1493652807773580e-03  1.1503358878116007e-03  1.1515455669787969e-03  1.1529611218029014e-03  1.1545452160908888e-03  1.1562576762847402e-03  1.1580565371429985e-03  1.1598988216134645e-03  1.1617411060839300e-03  1.1635399669421883e-03  1.1652524271360399e-03  1.1668365214240273e-03  1.1682520762481322e-03  1.1694617554153287e-03  1.1704323624495713e-03  1.1711363357710294e-03  1.1715532663404801e-03  1.1716681939724480e-03  1.1479752556422839e-03  1.1480917573130816e-03  1.1485145506473381e-03  1.1492286431508791e-03  1.1502130510428670e-03  1.1514394563748331e-03  1.1528738821188858e-03  1.1544782881816079e-03  1.1562119306697911e-03  1.1580324211415240e-03  1.1598964837340028e-03  1.1617604727418745e-03  1.1635807588707338e-03  1.1653141145334554e-03  1.1669182279981105e-03  1.1683524532275942e-03  1.1695788565696051e-03  1.1705635573008555e-03  1.1712782935843196e-03  1.1717020000632373e-03  1.1718188579826264e-03  1.1475113367181919e-03  1.1476330241174009e-03  1.1480747230747735e-03  1.1488204658911733e-03  1.1498473518062630e-03  1.1511247292275938e-03  1.1526162786243059e-03  1.1542818986030432e-03  1.1560792200292255e-03  1.1579646861227409e-03  1.1598942222649144e-03  1.1618235947209172e-03  1.1637086034381172e-03  1.1655052735321885e-03  1.1671702086637173e-03  1.1686612478201976e-03  1.1699385205346279e-03  1.1709659210927671e-03  1.1717129283062193e-03  1.1721564807059878e-03  1.1722788989583081e-03  1.1467230813533788e-03  1.1468539275331484e-03  1.1473288958791618e-03  1.1481298647500794e-03  1.1492303080949636e-03  1.1505952886155444e-03  1.1521842952161880e-03  1.1539536558311540e-03  1.1558583054321571e-03  1.1578528667060934e-03  1.1598921302413854e-03  1.1619311061943872e-03  1.1639248567530507e-03  1.1658283284288055e-03  1.1675964003769344e-03  1.1691843503190112e-03  1.1705488999707787e-03  1.1716499175657947e-03  1.1724527141511712e-03  1.1729305327260694e-03  1.1730625249194461e-03  1.1455850446101985e-03  1.1457297112191745e-03  1.1462548242120055e-03  1.1471384246262788e-03  1.1483479148795734e-03  1.1498413957779206e-03  1.1515717935204279e-03  1.1534901102393550e-03  1.1555475250045577e-03  1.1576963880335744e-03  1.1598903346103670e-03  1.1620838178001661e-03  1.1642313607649534e-03  1.1662868130114308e-03  1.1682028898894398e-03  1.1699312816745250e-03  1.1714236096930532e-03  1.1726334323389485e-03  1.1735193042140995e-03  1.1740483536549634e-03  1.1741946533726662e-03  1.1440588828239612e-03  1.1442231970946329e-03  1.1448195970152229e-03  1.1458196328508509e-03  1.1471808257479087e-03  1.1488503791629095e-03  1.1507714611362658e-03  1.1528876806997249e-03  1.1551455096643736e-03  1.1574949575138709e-03  1.1598890141184274e-03  1.1622823622620157e-03  1.1646297681641160e-03  1.1668844851865908e-03  1.1689969981759452e-03  1.1709144931752642e-03  1.1725815132950573e-03  1.1739422601875799e-03  1.1749447670314306e-03  1.1755463140334169e-03  1.1757128704436993e-03  1.1420898176841927e-03  1.1422815278296593e-03  1.1429774600424296e-03  1.1441381505252898e-03  1.1457049206499779e-03  1.1476080263765327e-03  1.1497764971197082e-03  1.1521442095719966e-03  1.1546523370855194e-03  1.1572491769424131e-03  1.1598884160045264e-03  1.1625266204356533e-03  1.1651204388235760e-03  1.1676238351942853e-03  1.1699856595064491e-03  1.1721480133894005e-03  1.1740461317048870e-03  1.1756107206245181e-03  1.1767735745104447e-03  1.1774760139380048e-03  1.1776707864048445e-03  1.1396006708612632e-03  1.1398307093304796e-03  1.1406664516832789e-03  1.1420491132441300e-03  1.1438927677723610e-03  1.1461012080708100e-03  1.1485834619901995e-03  1.1512614121987389e-03  1.1540712588822639e-03  1.1569614248636484e-03  1.1598888664624090e-03  1.1628148699185210e-03  1.1657007717242834e-03  1.1685037330106105e-03  1.1711726961144565e-03  1.1736449336366501e-03  1.1758441957131834e-03  1.1776821974994473e-03  1.1790656272086426e-03  1.1799093545311853e-03  1.1801436727162699e-03  1.1364816008872776e-03  1.1367662619092569e-03  1.1378033237287549e-03  1.1394980615110043e-03  1.1417170459943379e-03  1.1443226924676595e-03  1.1471969137519724e-03  1.1502485282533265e-03  1.1534111107242011e-03  1.1566370294018051e-03  1.1598907648532884e-03  1.1631426176147174e-03  1.1663628520677972e-03  1.1695159180386272e-03  1.1725544126625564e-03  1.1754128612137425e-03  1.1780023661746293e-03  1.1802090078652779e-03  1.1819006891687707e-03  1.1829470704154193e-03  1.1832381190603604e-03  1.1325717624246017e-03  1.1329364437995481e-03  1.1342761862137307e-03  1.1364232507650490e-03  1.1391581419044857e-03  1.1422797325533552e-03  1.1456366049390086e-03  1.1491273970902190e-03  1.1526893784238653e-03  1.1562856631145016e-03  1.1598945464506270e-03  1.1635011521317917e-03  1.1670904089760286e-03  1.1706400999250753e-03  1.1741127998135838e-03  1.1774459326434820e-03  1.1805401769019370e-03  1.1832499529966661e-03  1.1853844559201420e-03  1.1867335604328030e-03  1.1871093497270490e-03  1.1276247394057502e-03  1.1281100624048219e-03  1.1299353013796152e-03  1.1327652530048762e-03  1.1362203633332043e-03  1.1400087492216110e-03  1.1439478790941200e-03  1.1479387793164597e-03  1.1519355507897400e-03  1.1559227135951528e-03  1.1599006004317321e-03  1.1638760230956752e-03  1.1678553824615164e-03  1.1718377705980723e-03  1.1758057446800720e-03  1.1797113500164136e-03  1.1834555349518202e-03  1.1868612140662515e-03  1.1896551173046868e-03  1.1914836953869500e-03  1.1919947148430923e-03  1.1212374415380752e-03  1.1219097386046492e-03  1.1245886343063873e-03  1.1284971213315418e-03  1.1329648947244835e-03  1.1375985776748421e-03  1.1422148415658614e-03  1.1467487224711087e-03  1.1511937508411629e-03  1.1555701124377512e-03  1.1599091566654362e-03  1.1642459573918311e-03  1.1686149998551671e-03  1.1730456834458049e-03  1.1775543442585079e-03  1.1821283931851862e-03  1.1866961367440691e-03  1.1910705599757565e-03  1.1948826014523668e-03  1.1975322978958227e-03  1.1982868042859729e-03  1.1126699196860647e-03  1.1136681514977273e-03  1.1180385040379093e-03  1.1237082029446259e-03  1.1295709017730591e-03  1.1352217182294666e-03  1.1405726132355069e-03  1.1456517779665117e-03  1.1505227053326822e-03  1.1552557784496476e-03  1.1599201843129070e-03  1.1645831206831356e-03  1.1693111898396257e-03  1.1741714978896439e-03  1.1792297425838060e-03  1.1845391309136984e-03  1.1901061916770052e-03  1.1958154586138021e-03  1.2012273297062862e-03  1.2054189596520737e-03  1.2067226639140931e-03  1.1001147029334447e-03  1.1021849695794362e-03  1.1103196993137181e-03  1.1188072805623621e-03  1.1264265954022156e-03  1.1331602401868435e-03  1.1392077294047152e-03  1.1447647940730314e-03  1.1499899283732953e-03  1.1550102552628603e-03  1.1599328928142635e-03  1.1648553708491344e-03  1.1698748634622015e-03  1.1750971505494286e-03  1.1806459846470522e-03  1.1866715592834043e-03  1.1933459579648073e-03  1.2007792233281545e-03  1.2086860389017356e-03  1.2159537042511783e-03  1.2189823884751366e-03  1.0758378241363575e-03  1.0861995001637129e-03  1.1026847770497761e-03  1.1148845096689568e-03  1.1241882649482735e-03  1.1317816388316572e-03  1.1383250533106605e-03  1.1442017348259981e-03  1.1496553181814229e-03  1.1548572238070218e-03  1.1599418738768440e-03  1.1650278936777528e-03  1.1702339962967304e-03  1.1756947775180614e-03  1.1815814402257026e-03  1.1881351345045716e-03  1.1957275857269632e-03  1.2049712017571416e-03  1.2167337963019096e-03  1.2296049189037589e-03  1.2405576504712487e-03  9.9014570705604587e-04  1.0734061944767277e-03  1.1001333254607437e-03  1.1138560847696324e-03  1.1236118960093534e-03  1.1314167842122345e-03  1.1380855856733833e-03  1.1440464361546321e-03  1.1495618175176674e-03  1.1548135526117549e-03  1.1599429944183295e-03  1.1650744145166084e-03  1.1703324254896308e-03  1.1758595223537282e-03  1.1818398754922482e-03  1.1885403291939825e-03  1.1963968167712179e-03  1.2062405298290070e-03  1.2201386895604241e-03  1.2465901096709194e-03  1.3058385433186008e-03  </DataArray> 
</PointData> 
</Piece>
</UnstructuredGrid>
</VTKFile>