<?xml version="1.0"?>
<VTKFile type="UnstructuredGrid"  version="0.1"  >
<UnstructuredGrid>
<Piece  NumberOfPoints="651" NumberOfCells="1200">
<Points>
<DataArray  type="Float64"  NumberOfComponents="3"  format="ascii">0 0 0  50000 0 0  100000 0 0  150000 0 0  200000 0 0  250000 0 0  300000 0 0  350000 0 0  400000 0 0  450000 0 0  500000 0 0  550000 0 0  600000 0 0  650000 0 0  700000 0 0  750000 0 0  800000 0 0  850000 0 0  900000 0 0  950000 0 0  1000000 0 0  0 50000 0  50000 50000 0  100000 50000 0  150000 50000 0  200000 50000 0  250000 50000 0  300000 50000 0  350000 50000 0  400000 50000 0  450000 50000 0  500000 50000 0  550000 50000 0  600000 50000 0  650000 50000 0  700000 50000 0  750000 50000 0  800000 50000 0  850000 50000 0  900000 50000 0  950000 50000 0  1000000 50000 0  0 100000 0  50000 100000 0  100000 100000 0  150000 100000 0  200000 100000 0  250000 100000 0  300000 100000 0  350000 100000 0  400000 100000 0  450000 100000 0  500000 100000 0  550000 100000 0  600000 100000 0  650000 100000 0  700000 100000 0  750000 100000 0  800000 100000 0  850000 100000 0  900000 100000 0  950000 100000 0  1000000 100000 0  0 150000 0  50000 150000 0  100000 150000 0  150000 150000 0  200000 150000 0  250000 150000 0  300000 150000 0  350000 150000 0  400000 150000 0  450000 150000 0  500000 150000 0  550000 150000 0  600000 150000 0  650000 150000 0  700000 150000 0  750000 150000 0  800000 150000 0  850000 150000 0  900000 150000 0  950000 150000 0  1000000 150000 0  0 200000 0  50000 200000 0  100000 200000 0  150000 200000 0  200000 200000 0  250000 200000 0  300000 200000 0  350000 200000 0  400000 200000 0  450000 200000 0  500000 200000 0  550000 200000 0  600000 200000 0  650000 200000 0  700000 200000 0  750000 200000 0  800000 200000 0  850000 200000 0  900000 200000 0  950000 200000 0  1000000 200000 0  0 250000 0  50000 250000 0  100000 250000 0  150000 250000 0  200000 250000 0  250000 250000 0  300000 250000 0  350000 250000 0  400000 250000 0  450000 250000 0  500000 250000 0  550000 250000 0  600000 250000 0  650000 250000 0  700000 250000 0  750000 250000 0  800000 250000 0  850000 250000 0  900000 250000 0  950000 250000 0  1000000 250000 0  0 300000 0  50000 300000 0  100000 300000 0  150000 300000 0  200000 300000 0  250000 300000 0  300000 300000 0  350000 300000 0  400000 300000 0  450000 300000 0  500000 300000 0  550000 300000 0  600000 300000 0  650000 300000 0  700000 300000 0  750000 300000 0  800000 300000 0  850000 300000 0  900000 300000 0  950000 300000 0  1000000 300000 0  0 350000 0  50000 350000 0  100000 350000 0  150000 350000 0  200000 350000 0  250000 350000 0  300000 350000 0  350000 350000 0  400000 350000 0  450000 350000 0  500000 350000 0  550000 350000 0  600000 350000 0  650000 350000 0  700000 350000 0  750000 350000 0  800000 350000 0  850000 350000 0  900000 350000 0  950000 350000 0  1000000 350000 0  0 400000 0  50000 400000 0  100000 400000 0  150000 400000 0  200000 400000 0  250000 400000 0  300000 400000 0  350000 400000 0  400000 400000 0  450000 400000 0  500000 400000 0  550000 400000 0  600000 400000 0  650000 400000 0  700000 400000 0  750000 400000 0  800000 400000 0  850000 400000 0  900000 400000 0  950000 400000 0  1000000 400000 0  0 450000 0  50000 450000 0  100000 450000 0  150000 450000 0  200000 450000 0  250000 450000 0  300000 450000 0  350000 450000 0  400000 450000 0  450000 450000 0  500000 450000 0  550000 450000 0  600000 450000 0  650000 450000 0  700000 450000 0  750000 450000 0  800000 450000 0  850000 450000 0  900000 450000 0  950000 450000 0  1000000 450000 0  0 500000 0  50000 500000 0  100000 500000 0  150000 500000 0  200000 500000 0  250000 500000 0  300000 500000 0  350000 500000 0  400000 500000 0  450000 500000 0  500000 500000 0  550000 500000 0  600000 500000 0  650000 500000 0  700000 500000 0  750000 500000 0  800000 500000 0  850000 500000 0  900000 500000 0  950000 500000 0  1000000 500000 0  0 550000 0  50000 550000 0  100000 550000 0  150000 550000 0  200000 550000 0  250000 550000 0  300000 550000 0  350000 550000 0  400000 550000 0  450000 550000 0  500000 550000 0  550000 550000 0  600000 550000 0  650000 550000 0  700000 550000 0  750000 550000 0  800000 550000 0  850000 550000 0  900000 550000 0  950000 550000 0  1000000 550000 0  0 600000 0  50000 600000 0  100000 600000 0  150000 600000 0  200000 600000 0  250000 600000 0  300000 600000 0  350000 600000 0  400000 600000 0  450000 600000 0  500000 600000 0  550000 600000 0  600000 600000 0  650000 600000 0  700000 600000 0  750000 600000 0  800000 600000 0  850000 600000 0  900000 600000 0  950000 600000 0  1000000 600000 0  0 650000 0  50000 650000 0  100000 650000 0  150000 650000 0  200000 650000 0  250000 650000 0  300000 650000 0  350000 650000 0  400000 650000 0  450000 650000 0  500000 650000 0  550000 650000 0  600000 650000 0  650000 650000 0  700000 650000 0  750000 650000 0  800000 650000 0  850000 650000 0  900000 650000 0  950000 650000 0  1000000 650000 0  0 700000 0  50000 700000 0  100000 700000 0  150000 700000 0  200000 700000 0  250000 700000 0  300000 700000 0  350000 700000 0  400000 700000 0  450000 700000 0  500000 700000 0  550000 700000 0  600000 700000 0  650000 700000 0  700000 700000 0  750000 700000 0  800000 700000 0  850000 700000 0  900000 700000 0  950000 700000 0  1000000 700000 0  0 750000 0  50000 750000 0  100000 750000 0  150000 750000 0  200000 750000 0  250000 750000 0  300000 750000 0  350000 750000 0  400000 750000 0  450000 750000 0  500000 750000 0  550000 750000 0  600000 750000 0  650000 750000 0  700000 750000 0  750000 750000 0  800000 750000 0  850000 750000 0  900000 750000 0  950000 750000 0  1000000 750000 0  0 800000 0  50000 800000 0  100000 800000 0  150000 800000 0  200000 800000 0  250000 800000 0  300000 800000 0  350000 800000 0  400000 800000 0  450000 800000 0  500000 800000 0  550000 800000 0  600000 800000 0  650000 800000 0  700000 800000 0  750000 800000 0  800000 800000 0  850000 800000 0  900000 800000 0  950000 800000 0  1000000 800000 0  0 850000 0  50000 850000 0  100000 850000 0  150000 850000 0  200000 850000 0  250000 850000 0  300000 850000 0  350000 850000 0  400000 850000 0  450000 850000 0  500000 850000 0  550000 850000 0  600000 850000 0  650000 850000 0  700000 850000 0  750000 850000 0  800000 850000 0  850000 850000 0  900000 850000 0  950000 850000 0  1000000 850000 0  0 900000 0  50000 900000 0  100000 900000 0  150000 900000 0  200000 900000 0  250000 900000 0  300000 900000 0  350000 900000 0  400000 900000 0  450000 900000 0  500000 900000 0  550000 900000 0  600000 900000 0  650000 900000 0  700000 900000 0  750000 900000 0  800000 900000 0  850000 900000 0  900000 900000 0  950000 900000 0  1000000 900000 0  0 950000 0  50000 950000 0  100000 950000 0  150000 950000 0  200000 950000 0  250000 950000 0  300000 950000 0  350000 950000 0  400000 950000 0  450000 950000 0  500000 950000 0  550000 950000 0  600000 950000 0  650000 950000 0  700000 950000 0  750000 950000 0  800000 950000 0  850000 950000 0  900000 950000 0  950000 950000 0  1000000 950000 0  0 1000000 0  50000 1000000 0  100000 1000000 0  150000 1000000 0  200000 1000000 0  250000 1000000 0  300000 1000000 0  350000 1000000 0  400000 1000000 0  450000 1000000 0  500000 1000000 0  550000 1000000 0  600000 1000000 0  650000 1000000 0  700000 1000000 0  750000 1000000 0  800000 1000000 0  850000 1000000 0  900000 1000000 0  950000 1000000 0  1000000 1000000 0  0 1050000 0  50000 1050000 0  100000 1050000 0  150000 1050000 0  200000 1050000 0  250000 1050000 0  300000 1050000 0  350000 1050000 0  400000 1050000 0  450000 1050000 0  500000 1050000 0  550000 1050000 0  600000 1050000 0  650000 1050000 0  700000 1050000 0  750000 1050000 0  800000 1050000 0  850000 1050000 0  900000 1050000 0  950000 1050000 0  1000000 1050000 0  0 1100000 0  50000 1100000 0  100000 1100000 0  150000 1100000 0  200000 1100000 0  250000 1100000 0  300000 1100000 0  350000 1100000 0  400000 1100000 0  450000 1100000 0  500000 1100000 0  550000 1100000 0  600000 1100000 0  650000 1100000 0  700000 1100000 0  750000 1100000 0  800000 1100000 0  850000 1100000 0  900000 1100000 0  950000 1100000 0  1000000 1100000 0  0 1150000 0  50000 1150000 0  100000 1150000 0  150000 1150000 0  200000 1150000 0  250000 1150000 0  300000 1150000 0  350000 1150000 0  400000 1150000 0  450000 1150000 0  500000 1150000 0  550000 1150000 0  600000 1150000 0  650000 1150000 0  700000 1150000 0  750000 1150000 0  800000 1150000 0  850000 1150000 0  900000 1150000 0  950000 1150000 0  1000000 1150000 0  0 1200000 0  50000 1200000 0  100000 1200000 0  150000 1200000 0  200000 1200000 0  250000 1200000 0  300000 1200000 0  350000 1200000 0  400000 1200000 0  450000 1200000 0  500000 1200000 0  550000 1200000 0  600000 1200000 0  650000 1200000 0  700000 1200000 0  750000 1200000 0  800000 1200000 0  850000 1200000 0  900000 1200000 0  950000 1200000 0  1000000 1200000 0  0 1250000 0  50000 1250000 0  100000 1250000 0  150000 1250000 0  200000 1250000 0  250000 1250000 0  300000 1250000 0  350000 1250000 0  400000 1250000 0  450000 1250000 0  500000 1250000 0  550000 1250000 0  600000 1250000 0  650000 1250000 0  700000 1250000 0  750000 1250000 0  800000 1250000 0  850000 1250000 0  900000 1250000 0  950000 1250000 0  1000000 1250000 0  0 1300000 0  50000 1300000 0  100000 1300000 0  150000 1300000 0  200000 1300000 0  250000 1300000 0  300000 1300000 0  350000 1300000 0  400000 1300000 0  450000 1300000 0  500000 1300000 0  550000 1300000 0  600000 1300000 0  650000 1300000 0  700000 1300000 0  750000 1300000 0  800000 1300000 0  850000 1300000 0  900000 1300000 0  950000 1300000 0  1000000 1300000 0  0 1350000 0  50000 1350000 0  100000 1350000 0  150000 1350000 0  200000 1350000 0  250000 1350000 0  300000 1350000 0  350000 1350000 0  400000 1350000 0  450000 1350000 0  500000 1350000 0  550000 1350000 0  600000 1350000 0  650000 1350000 0  700000 135
[...]
<PointData  Scalars="f_25027"> 
<DataArray  type="Float64"  Name="f_25027"  format="ascii">-1.3173355356484000e-03  -2.3197570039803760e-05  -5.9777326343858662e-05  2.5972917590104185e-05  7.4860234302657894e-05  1.1110382040132607e-04  1.4246152794176821e-04  1.6997118899619721e-04  1.9524559337454043e-04  2.1919911371498011e-04  2.4253588231159889e-04  2.6587164749306881e-04  2.8982494716467118e-04  3.1508288557742829e-04  3.4259340719128344e-04  3.7415597594147465e-04  4.0834384953860985e-04  4.6628303346078119e-04  5.4125525838241478e-04  3.2380101359950349e-04  4.3304579893208598e-03  -1.4861433081480284e-04  -9.3834638433788024e-05  -7.2912327370348910e-05  3.2622575685732951e-05  7.2964302136777160e-05  1.1097109697035131e-04  1.4227998078175774e-04  1.6984044113079014e-04  1.9518041087691323e-04  2.1917943841086461e-04  2.4256173796078319e-04  2.6594696449815656e-04  2.8995472032702468e-04  3.1530121648709765e-04  3.4296203166459162e-04  3.7412081476492174e-04  4.1192080669200234e-04  4.6122209698764378e-04  5.0787515364624132e-04  7.6623859249230590e-04  4.6716519116842372e-04  -4.8001349605646411e-05  -6.4184344493316164e-05  2.4751846383516733e-06  4.9003519309964475e-05  8.1600236040678029e-05  1.1688913290974759e-04  1.4562920828744928e-04  1.7198719499990844e-04  1.9645590241020413e-04  2.1979677839524921e-04  2.4261455764496915e-04  2.6544133820704055e-04  2.8881591305694005e-04  3.1334710180689376e-04  3.3977819582764295e-04  3.6917851976354244e-04  4.0305921427933076e-04  4.4177395917970323e-04  4.9846792349076590e-04  5.1675655886533958e-04  5.1928336837542136e-04  1.9095761693590345e-05  2.2816443551710107e-05  4.4720892933803286e-05  6.7639536499552460e-05  9.8197989848658316e-05  1.2637269011391109e-04  1.5172663984625628e-04  1.7594259130199896e-04  1.9881138630970703e-04  2.2091912660423299e-04  2.4264874446045944e-04  2.6439081300723579e-04  2.8653906799538112e-04  3.0951031883505914e-04  3.3376384717635565e-04  3.5978092887885575e-04  3.8781389912315059e-04  4.1825303900903151e-04  4.4540117700151821e-04  4.6515616095583399e-04  4.7443457747413246e-04  6.5333136117928079e-05  6.4311669487866717e-05  7.4746701184733329e-05  9.3714881103222126e-05  1.1579159332272980e-04  1.3757886761632106e-04  1.5961840962745963e-04  1.8110033977221420e-04  2.0195279683135571e-04  2.2242173187197079e-04  2.4267497487643795e-04  2.6294288311545669e-04  2.8344946743526055e-04  3.0440679977692038e-04  3.2597927457773197e-04  3.4818762588873647e-04  3.7075194015153789e-04  3.9234976977926437e-04  4.1061568658401487e-04  4.2136566607377311e-04  4.1757207404393413e-04  9.6302859436181023e-05  9.5892764921676465e-05  1.0318263818408526e-04  1.1584426458831512e-04  1.3167641610447724e-04  1.4948639964492314e-04  1.6810930953125585e-04  1.8681904062840853e-04  2.0551898070285719e-04  2.2413362348971667e-04  2.4268694005730225e-04  2.6125373237099732e-04  2.7990208535664483e-04  2.9866790480540277e-04  3.1749889996575371e-04  3.3616638229535200e-04  3.5409195595382517e-04  3.7017628903125195e-04  3.8262598579509019e-04  3.8905028017928884e-04  3.8884901799732404e-04  1.2025707887523161e-04  1.1995372774360000e-04  1.2484589223599261e-04  1.3400202262605954e-04  1.4638838298102876e-04  1.6081553820654357e-04  1.7638467397186009e-04  1.9261595047278350e-04  2.0918925727301312e-04  2.2590759557179763e-04  2.4268806860698266e-04  2.5947788467640221e-04  2.7622411020272459e-04  2.9283531118103599e-04  3.0913090729311007e-04  3.2477365384623669e-04  3.3918977198845720e-04  3.5149972557689454e-04  3.6054719482984211e-04  3.6521007771982806e-04  3.6474480420931125e-04  1.3887988567515733e-04  1.3861207764039325e-04  1.4226723432698136e-04  1.4932483430069902e-04  1.5911811958832885e-04  1.7089705618131981e-04  1.8405775520510042e-04  1.9811624759578098e-04  2.1271674888580000e-04  2.2762702994481886e-04  2.4268024647553348e-04  2.5773887732041318e-04  2.7266667781214313e-04  2.8729255225503969e-04  3.0137365923197084e-04  3.1455553407671677e-04  3.2633744075418158e-04  3.3606749863622677e-04  3.4301086147373239e-04  3.4648569041678651e-04  3.4612945754158679e-04  1.5359578397892626e-04  1.5337813831185860e-04  1.5623740786478352e-04  1.6185018676736698e-04  1.6982032225557682e-04  1.7965260584175589e-04  1.9087598549306461e-04  2.0308113331646445e-04  2.1594495755252442e-04  2.2921064352662493e-04  2.4266628237248753e-04  2.5612502205582516e-04  2.6939923129749263e-04  2.8227539807883434e-04  2.9449020571289822e-04  3.0570958271296071e-04  3.1551899402761736e-04  3.2343862711308103e-04  3.2897498941768759e-04  3.3171254100338593e-04  3.3144297100275562e-04  1.6526037639037305e-04  1.6507420187922411e-04  1.6739750822102108e-04  1.7202007378938139e-04  1.7868265013534098e-04  1.8703366339637117e-04  1.9671689872126914e-04  2.0739805888435951e-04  2.1878119414207772e-04  2.3060763718804562e-04  2.4264879424426650e-04  2.5469141070089992e-04  2.6652122143512586e-04  2.7790729104756439e-04  2.8858786417215141e-04  2.9826137587564893e-04  3.0658762933602436e-04  3.1320560746308574e-04  3.1777083021528149e-04  3.2001102640111153e-04  3.1978647206727976e-04  1.7443634303679272e-04  1.7427357316931728e-04  1.7622592551941787e-04  1.8014528939537950e-04  1.8585059476508841e-04  1.9308386880376968e-04  2.0156747118794363e-04  2.1102108536217890e-04  2.2117856011894270e-04  2.3179214891018245e-04  2.4262976527559318e-04  2.5346765232661791e-04  2.6408154621691913e-04  2.7423764438555320e-04  2.8368561735077363e-04  2.9215635652189259e-04  2.9936715285477298e-04  3.0503752003990201e-04  3.0891435606940717e-04  3.1080731108827143e-04  3.1061780084003519e-04  1.8151696825685314e-04  1.8137111525606207e-04  1.8306161625215419e-04  1.8647805059893936e-04  1.9148590366037158e-04  1.9788533892395506e-04  2.0545085833993866e-04  2.1394303565241469e-04  2.2312228915560459e-04  2.3275414900749130e-04  2.4261029276002305e-04  2.5246612797854775e-04  2.6209671761762474e-04  2.7127270863473393e-04  2.7975805574158476e-04  2.8731130894215262e-04  2.9369189701041056e-04  2.9867304216703007e-04  3.0205850876360504e-04  3.0370695165635658e-04  3.0354219891822240e-04  1.8677806141510964e-04  1.8664389731040681e-04  1.8815142777554365e-04  1.9121382344233358e-04  1.9572413261969689e-04  2.0151896109484914e-04  2.0840739510782718e-04  2.1617893411038274e-04  2.2461456658945199e-04  2.3349246915399389e-04  2.4259098447628046e-04  2.5168901501786318e-04  2.6056523049129720e-04  2.6899732850522973e-04  2.7676259685436867e-04  2.8364101427739009e-04  2.8942153473380709e-04  2.9391257052672207e-04  2.9695327813238580e-04  2.9843192959619867e-04  2.9828481009957570e-04  1.9041146721464740e-04  1.9028466056954246e-04  1.9167025006663148e-04  1.9449640517835880e-04  1.9867211991621411e-04  2.0405621311032012e-04  2.1047946375452406e-04  2.1775041383181767e-04  2.2566461297129266e-04  2.3401025710472723e-04  2.4257208795440703e-04  2.5113348336484181e-04  2.5947769471086548e-04  2.6738910615592101e-04  2.7465542905223418e-04  2.8107169269538362e-04  2.8644622016505940e-04  2.9060945442372727e-04  2.9342182285346774e-04  2.9478927637211752e-04  2.9465435108402176e-04  1.9254386266003636e-04  1.9242056161773355e-04  1.9373489833624370e-04  1.9642439461718732e-04  2.0040612039346877e-04  2.0555097684189081e-04  2.1170164966569511e-04  2.1867749346405057e-04  2.2628266317066141e-04  2.3431164257531109e-04  2.4255358260227020e-04  2.5079527402309453e-04  2.5882345186028057e-04  2.6642711068991770e-04  2.7340052554552944e-04  2.7954763087629277e-04  2.8468770673868119e-04  2.8866330069894636e-04  2.9134609329992150e-04  2.9265167176549512e-04  2.9252445349634530e-04  1.9324756288295150e-04  1.9312413139647587e-04  1.9441242903515097e-04  1.9705518399568147e-04  2.0097149000820151e-04  2.0603631601239086e-04  2.1209610666144400e-04  2.1897370270006379e-04  2.2647604107269091e-04  2.3439968604991180e-04  2.4253530470925896e-04  2.5067092336868467e-04  2.5859456834613595e-04  2.6609690671912156e-04  2.7297450275819135e-04  2.7903429340774108e-04  2.8409911941241730e-04  2.8801542542536017e-04  2.9065818038619920e-04  2.9194647802503022e-04  2.9182304653856470e-04  1.9254615592518103e-04  1.9241893765602094e-04  1.9372451612143459e-04  1.9640730872209095e-04  2.0038290268192005e-04  2.0552297854380537e-04  2.1167008387405723e-04  2.1864349872920512e-04  2.2624715755847281e-04  2.3427533539542317e-04  2.4251702681616749e-04  2.5075896684320989e-04  2.5878794624809915e-04  2.6639311595508226e-04  2.7336895975390701e-04  2.7951963257822856e-04  2.8466448902716030e-04  2.8864621480388425e-04  2.9133571108515228e-04  2.9265004780382669e-04  2.9252674676153519e-04  1.9041625833758003e-04  1.9028133304947522e-04  1.9164878656794732e-04  1.9446115499733338e-04  1.9862438925551522e-04  2.0399891672463240e-04  2.1041518036721597e-04  2.1768150326301747e-04  2.2559291470766865e-04  2.3393712605343490e-04  2.4249852146378270e-04  2.5106035231355512e-04  2.5940599644725412e-04  2.6732019558714173e-04  2.7459114566495685e-04  2.8101439630973861e-04  2.8639848950441632e-04  2.9057420424277058e-04  2.9340035935486534e-04  2.9478594885214133e-04  2.9465914220704802e-04  1.8678579932218247e-04  1.8663867982554881e-04  1.8811733128915126e-04  1.9115803889439191e-04  1.9564907468672918e-04  2.0142959514248519e-04  2.0830801256484233e-04  2.1607328091338495e-04  2.2450537892684946e-04  2.3338159439998662e-04  2.4247962494147033e-04  2.5157814026386451e-04  2.6045604282871237e-04  2.6889167530826097e-04  2.7666321431142773e-04  2.8355164832508811e-04  2.8934647680092199e-04  2.9385678597888614e-04  2.9691918164611892e-04  2.9842671211148211e-04  2.9829254800679302e-04  1.8152841050378879e-04  1.8136365776564399e-04  1.8301210065813146e-04  1.8639756725417320e-04  1.9137871241006721e-04  1.9775930047750360e-04  2.0531255367725530e-04  2.1379790078338159e-04  2.2297389179992797e-04  2.3260448143865069e-04  2.4246031665705735e-04  2.5231646040971663e-04  2.6194832026196855e-04  2.7112757376573541e-04  2.7961975107895472e-04  2.8718527049577982e-04  2.9358470576021589e-04  2.9859255882240684e-04  3.0200899316975730e-04  3.0369949416613899e-04  3.0355364116536377e-04  1.7445280858236262e-04  1.7426329833411533e-04  1.7615625335263204e-04  1.8003308938143256e-04  1.8570345656561220e-04  1.9291425289743306e-04  2.0138499206751693e-04  2.1083296503183446e-04  2.2098906319977730e-04  2.3160295708964730e-04  2.4244084414052846e-04  2.5327846050609166e-04  2.6389204929777327e-04  2.7404952405524452e-04  2.8350313823040553e-04  2.9198674061564720e-04  2.9922001465542948e-04  3.0492532002613732e-04  3.0884468390285293e-04  3.1079703625334096e-04  3.1063426638588498e-04  1.6528413735568748e-04  1.6505958302184676e-04  1.6729977920719962e-04  1.7186500195842872e-04  1.7848298008420413e-04  1.8680923354317668e-04  1.9648274524533763e-04  2.0716331836878753e-04  2.1854938798037362e-04  2.3037919871407575e-04  2.4242181517053414e-04  2.5446297222693601e-04  2.6628941527343756e-04  2.7767255053202369e-04  2.8835371069627351e-04  2.9803694602254519e-04  3.0638795928503588e-04  3.1305053563235557e-04  3.1767310120175946e-04  3.1999640754409539e-04  3.1981023303297038e-04  1.5362763842105120e-04  1.5335806842040761e-04  1.5609562000542718e-04  1.6163198230865732e-04  1.6955161539232997e-04  1.7936102670509786e-04  1.9058040370342522e-04  2.0279521133606570e-04  2.1567137811637053e-04  2.2894558735741315e-04  2.4240432704054321e-04  2.5585996588661601e-04  2.6912565186134615e-04  2.8198947609845055e-04  2.9419462392329780e-04  3.0541800357639169e-04  3.1525028716453054e-04  3.2322042265462629e-04  3.2883320155870647e-04  3.3169247111241977e-04  3.3147482544538338e-04  1.3894115188340728e-04  1.3858491900822797e-04  1.4205974795028292e-04  1.4900311078574682e-04  1.5873316866523701e-04  1.7051507534013719e-04  1.8369695018265216e-04  1.9777805715784363e-04  2.1240393159952515e-04  2.2733173209054413e-04  2.4239036293518973e-04  2.5744357946613571e-04  2.7235386052586094e-04  2.8695436181710066e-04  3.0101285420954194e-04  3.1417355323556131e-04  3.2595248983116821e-04  3.3574577512152987e-04  3.4280337509752295e-04  3.4645853178529609e-04  3.4619072375054942e-04  1.2032580521743200e-04  1.1986053170705839e-04  1.2452341459539924e-04  1.3357088384521507e-04  1.4588083742992326e-04  1.6029695556867609e-04  1.7593970211902219e-04  1.9223529822908142e-04  2.0884649920606803e-04  2.2559272473164649e-04  2.4238254080082467e-04  2.5916301383624039e-04  2.7588135213575969e-04  2.9245465893731638e-04  3.0868593544020886e-04  3.2425507120832051e-04  3.3868222643753233e-04  3.5106858679644380e-04  3.6022471718983662e-04  3.6511688168409733e-04  3.6481353055257574e-04  9.6221591432846205e-05  9.6020329250047642e-05  1.0244462363184568e-04  1.1489432039055564e-04  1.3097865346242891e-04  1.4890422711636860e-04  1.6757170944273504e-04  1.8640270460099336e-04  2.0516852404849181e-04  2.2381687703347541e-04  2.4238366934696063e-04  2.6093698591473947e-04  2.7955162870225736e-04  2.9825156877792220e-04  3.1696129987713109e-04  3.3558420976685725e-04  3.5339419331149689e-04  3.6922634483273101e-04  3.8188797124314903e-04  3.8917784450957180e-04  3.8876774999500158e-04  6.7498535385393676e-05  6.3704943360313448e-05  7.4454922845100578e-05  9.2720839640516410e-05  1.1431866926034818e-04  1.3688298351767017e-04  1.5909133482552713e-04  1.8066380962463157e-04  2.0162114196542349e-04  2.2212772628482766e-04  2.4239563452372622e-04  2.6264887752829502e-04  2.8311781256929613e-04  3.0397026962924182e-04  3.2545219977582544e-04  3.4749174178977350e-04  3.6927901608810890e-04  3.9135572831826791e-04  4.1032390824731555e-04  4.2075893994806391e-04  4.1973747331677119e-04  1.0636031977066743e-05  1.9914448488519210e-05  3.9669432426495229e-05  6.6817570404705058e-05  9.7256710279441144e-05  1.2528968051908837e-04  1.5130676221975769e-04  1.7556029056055476e-04  1.9853154140021876e-04  2.2067979638846000e-04  2.4242186493527557e-04  2.6415148279144144e-04  2.8625922308584843e-04  3.0912801809356515e-04  3.3334396954987040e-04  3.5869791928338390e-04  3.8687261955536786e-04  4.1743107291231183e-04  4.4034971648170516e-04  4.6225416588855235e-04  4.6597484775735750e-04  -3.4212758934325931e-05  -3.1685949430994048e-05  -1.3397314069094610e-05  4.3296650210633240e-05  8.2011395106173051e-05  1.1589208962195380e-04  1.4529241355958923e-04  1.7172350758205121e-04  1.9625469633332963e-04  2.1962927118402954e-04  2.4245605174635733e-04  2.6527383099578635e-04  2.8861470698000760e-04  3.1308341438897888e-04  3.3944140109960606e-04  3.6818147647610491e-04  4.0347037334559593e-04  4.3606709007509105e-04  4.8259542479054589e-04  5.4925495399643859e-04  5.3307195906374713e-04  1.7905418431418375e-05  -2.8116798305066027e-04  -2.2804544291117725e-05  2.3848512369220090e-05  7.3149802673046858e-05  1.1094979460895121e-04  1.4210857771496411e-04  1.6976939289653256e-04  1.9511588905917564e-04  2.1912364488946412e-04  2.4250887142726737e-04  2.6589117097667063e-04  2.8989019850911773e-04  3.1523016825251538e-04  3.4279062859743554e-04  3.7409951240317666e-04  4.1210630722444632e-04  4.5244803367613202e-04  5.5798293672627266e-04  5.7890524773454111e-04  6.3368494026673418e-04  -3.8453873781249702e-03  1.6126959557834919e-04  -5.6184648999092507e-05  1.8787575906074238e-05  7.6726759828559592e-05  1.1091463343248398e-04  1.4247720218869467e-04  1.6998772380635589e-04  1.9524566222161143e-04  2.1919896189460464e-04  2.4253472707648320e-04  2.6587149567257540e-04  2.8982501601149948e-04  3.1509942038714437e-04  3.4260908143761778e-04  3.7396678897149414e-04  4.1021037506199811e-04  4.5909769177599358e-04  5.4484793567696505e-04  5.0826817939119459e-04  1.8024061461321193e-03  </DataArray> 
</PointData> 
</Piece>
</UnstructuredGrid>
</VTKFile>