<?xml version="1.0"?>
<VTKFile type="UnstructuredGrid"  version="0.1"  >
<UnstructuredGrid>
<Piece  NumberOfPoints="651" NumberOfCells="1200">
<Points>
<DataArray  type="Float64"  NumberOfComponents="3"  format="ascii">0 0 0  50000 0 0  100000 0 0  150000 0 0  200000 0 0  250000 0 0  300000 0 0  350000 0 0  400000 0 0  450000 0 0  500000 0 0  550000 0 0  600000 0 0  650000 0 0  700000 0 0  750000 0 0  800000 0 0  850000 0 0  900000 0 0  950000 0 0  1000000 0 0  0 50000 0  50000 50000 0  100000 50000 0  150000 50000 0  200000 50000 0  250000 50000 0  300000 50000 0  350000 50000 0  400000 50000 0  450000 50000 0  500000 50000 0  550000 50000 0  600000 50000 0  650000 50000 0  700000 50000 0  750000 50000 0  800000 50000 0  850000 50000 0  900000 50000 0  950000 50000 0  1000000 50000 0  0 100000 0  50000 100000 0  100000 100000 0  150000 100000 0  200000 100000 0  250000 100000 0  300000 100000 0  350000 100000 0  400000 100000 0  450000 100000 0  500000 100000 0  550000 100000 0  600000 100000 0  650000 100000 0  700000 100000 0  750000 100000 0  800000 100000 0  850000 100000 0  900000 100000 0  950000 100000 0  1000000 100000 0  0 150000 0  50000 150000 0  100000 150000 0  150000 150000 0  200000 150000 0  250000 150000 0  300000 150000 0  350000 150000 0  400000 150000 0  450000 150000 0  500000 150000 0  550000 150000 0  600000 150000 0  650000 150000 0  700000 150000 0  750000 150000 0  800000 150000 0  850000 150000 0  900000 150000 0  950000 150000 0  1000000 150000 0  0 200000 0  50000 200000 0  100000 200000 0  150000 200000 0  200000 200000 0  250000 200000 0  300000 200000 0  350000 200000 0  400000 200000 0  450000 200000 0  500000 200000 0  550000 200000 0  600000 200000 0  650000 200000 0  700000 200000 0  750000 200000 0  800000 200000 0  850000 200000 0  900000 200000 0  950000 200000 0  1000000 200000 0  0 250000 0  50000 250000 0  100000 250000 0  150000 250000 0  200000 250000 0  250000 250000 0  300000 250000 0  350000 250000 0  400000 250000 0  450000 250000 0  500000 250000 0  550000 250000 0  600000 250000 0  650000 250000 0  700000 250000 0  750000 250000 0  800000 250000 0  850000 250000 0  900000 250000 0  950000 250000 0  1000000 250000 0  0 300000 0  50000 300000 0  100000 300000 0  150000 300000 0  200000 300000 0  250000 300000 0  300000 300000 0  350000 300000 0  400000 300000 0  450000 300000 0  500000 300000 0  550000 300000 0  600000 300000 0  650000 300000 0  700000 300000 0  750000 300000 0  800000 300000 0  850000 300000 0  900000 300000 0  950000 300000 0  1000000 300000 0  0 350000 0  50000 350000 0  100000 350000 0  150000 350000 0  200000 350000 0  250000 350000 0  300000 350000 0  350000 350000 0  400000 350000 0  450000 350000 0  500000 350000 0  550000 350000 0  600000 350000 0  650000 350000 0  700000 350000 0  750000 350000 0  800000 350000 0  850000 350000 0  900000 350000 0  950000 350000 0  1000000 350000 0  0 400000 0  50000 400000 0  100000 400000 0  150000 400000 0  200000 400000 0  250000 400000 0  300000 400000 0  350000 400000 0  400000 400000 0  450000 400000 0  500000 400000 0  550000 400000 0  600000 400000 0  650000 400000 0  700000 400000 0  750000 400000 0  800000 400000 0  850000 400000 0  900000 400000 0  950000 400000 0  1000000 400000 0  0 450000 0  50000 450000 0  100000 450000 0  150000 450000 0  200000 450000 0  250000 450000 0  300000 450000 0  350000 450000 0  400000 450000 0  450000 450000 0  500000 450000 0  550000 450000 0  600000 450000 0  650000 450000 0  700000 450000 0  750000 450000 0  800000 450000 0  850000 450000 0  900000 450000 0  950000 450000 0  1000000 450000 0  0 500000 0  50000 500000 0  100000 500000 0  150000 500000 0  200000 500000 0  250000 500000 0  300000 500000 0  350000 500000 0  400000 500000 0  450000 500000 0  500000 500000 0  550000 500000 0  600000 500000 0  650000 500000 0  700000 500000 0  750000 500000 0  800000 500000 0  850000 500000 0  900000 500000 0  950000 500000 0  1000000 500000 0  0 550000 0  50000 550000 0  100000 550000 0  150000 550000 0  200000 550000 0  250000 550000 0  300000 550000 0  350000 550000 0  400000 550000 0  450000 550000 0  500000 550000 0  550000 550000 0  600000 550000 0  650000 550000 0  700000 550000 0  750000 550000 0  800000 550000 0  850000 550000 0  900000 550000 0  950000 550000 0  1000000 550000 0  0 600000 0  50000 600000 0  100000 600000 0  150000 600000 0  200000 600000 0  250000 600000 0  300000 600000 0  350000 600000 0  400000 600000 0  450000 600000 0  500000 600000 0  550000 600000 0  600000 600000 0  650000 600000 0  700000 600000 0  750000 600000 0  800000 600000 0  850000 600000 0  900000 600000 0  950000 600000 0  1000000 600000 0  0 650000 0  50000 650000 0  100000 650000 0  150000 650000 0  200000 650000 0  250000 650000 0  300000 650000 0  350000 650000 0  400000 650000 0  450000 650000 0  500000 650000 0  550000 650000 0  600000 650000 0  650000 650000 0  700000 650000 0  750000 650000 0  800000 650000 0  850000 650000 0  900000 650000 0  950000 650000 0  1000000 650000 0  0 700000 0  50000 700000 0  100000 700000 0  150000 700000 0  200000 700000 0  250000 700000 0  300000 700000 0  350000 700000 0  400000 700000 0  450000 700000 0  500000 700000 0  550000 700000 0  600000 700000 0  650000 700000 0  700000 700000 0  750000 700000 0  800000 700000 0  850000 700000 0  900000 700000 0  950000 700000 0  1000000 700000 0  0 750000 0  50000 750000 0  100000 750000 0  150000 750000 0  200000 750000 0  250000 750000 0  300000 750000 0  350000 750000 0  400000 750000 0  450000 750000 0  500000 750000 0  550000 750000 0  600000 750000 0  650000 750000 0  700000 750000 0  750000 750000 0  800000 750000 0  850000 750000 0  900000 750000 0  950000 750000 0  1000000 750000 0  0 800000 0  50000 800000 0  100000 800000 0  150000 800000 0  200000 800000 0  250000 800000 0  300000 800000 0  350000 800000 0  400000 800000 0  450000 800000 0  500000 800000 0  550000 800000 0  600000 800000 0  650000 800000 0  700000 800000 0  750000 800000 0  800000 800000 0  850000 800000 0  900000 800000 0  950000 800000 0  1000000 800000 0  0 850000 0  50000 850000 0  100000 850000 0  150000 850000 0  200000 850000 0  250000 850000 0  300000 850000 0  350000 850000 0  400000 850000 0  450000 850000 0  500000 850000 0  550000 850000 0  600000 850000 0  650000 850000 0  700000 850000 0  750000 850000 0  800000 850000 0  850000 850000 0  900000 850000 0  950000 850000 0  1000000 850000 0  0 900000 0  50000 900000 0  100000 900000 0  150000 900000 0  200000 900000 0  250000 900000 0  300000 900000 0  350000 900000 0  400000 900000 0  450000 900000 0  500000 900000 0  550000 900000 0  600000 900000 0  650000 900000 0  700000 900000 0  750000 900000 0  800000 900000 0  850000 900000 0  900000 900000 0  950000 900000 0  1000000 900000 0  0 950000 0  50000 950000 0  100000 950000 0  150000 950000 0  200000 950000 0  250000 950000 0  300000 950000 0  350000 950000 0  400000 950000 0  450000 950000 0  500000 950000 0  550000 950000 0  600000 950000 0  650000 950000 0  700000 950000 0  750000 950000 0  800000 950000 0  850000 950000 0  900000 950000 0  950000 950000 0  1000000 950000 0  0 1000000 0  50000 1000000 0  100000 1000000 0  150000 1000000 0  200000 1000000 0  250000 1000000 0  300000 1000000 0  350000 1000000 0  400000 1000000 0  450000 1000000 0  500000 1000000 0  550000 1000000 0  600000 1000000 0  650000 1000000 0  700000 1000000 0  750000 1000000 0  800000 1000000 0  850000 1000000 0  900000 1000000 0  950000 1000000 0  1000000 1000000 0  0 1050000 0  50000 1050000 0  100000 1050000 0  150000 1050000 0  200000 1050000 0  250000 1050000 0  300000 1050000 0  350000 1050000 0  400000 1050000 0  450000 1050000 0  500000 1050000 0  550000 1050000 0  600000 1050000 0  650000 1050000 0  700000 1050000 0  750000 1050000 0  800000 1050000 0  850000 1050000 0  900000 1050000 0  950000 1050000 0  1000000 1050000 0  0 1100000 0  50000 1100000 0  100000 1100000 0  150000 1100000 0  200000 1100000 0  250000 1100000 0  300000 1100000 0  350000 1100000 0  400000 1100000 0  450000 1100000 0  500000 1100000 0  550000 1100000 0  600000 1100000 0  650000 1100000 0  700000 1100000 0  750000 1100000 0  800000 1100000 0  850000 1100000 0  900000 1100000 0  950000 1100000 0  1000000 1100000 0  0 1150000 0  50000 1150000 0  100000 1150000 0  150000 1150000 0  200000 1150000 0  250000 1150000 0  300000 1150000 0  350000 1150000 0  400000 1150000 0  450000 1150000 0  500000 1150000 0  550000 1150000 0  600000 1150000 0  650000 1150000 0  700000 1150000 0  750000 1150000 0  800000 1150000 0  850000 1150000 0  900000 1150000 0  950000 1150000 0  1000000 1150000 0  0 1200000 0  50000 1200000 0  100000 1200000 0  150000 1200000 0  200000 1200000 0  250000 1200000 0  300000 1200000 0  350000 1200000 0  400000 1200000 0  450000 1200000 0  500000 1200000 0  550000 1200000 0  600000 1200000 0  650000 1200000 0  700000 1200000 0  750000 1200000 0  800000 1200000 0  850000 1200000 0  900000 1200000 0  950000 1200000 0  1000000 1200000 0  0 1250000 0  50000 1250000 0  100000 1250000 0  150000 1250000 0  200000 1250000 0  250000 1250000 0  300000 1250000 0  350000 1250000 0  400000 1250000 0  450000 1250000 0  500000 1250000 0  550000 1250000 0  600000 1250000 0  650000 1250000 0  700000 1250000 0  750000 1250000 0  800000 1250000 0  850000 1250000 0  900000 1250000 0  950000 1250000 0  1000000 1250000 0  0 1300000 0  50000 1300000 0  100000 1300000 0  150000 1300000 0  200000 1300000 0  250000 1300000 0  300000 1300000 0  350000 1300000 0  400000 1300000 0  450000 1300000 0  500000 1300000 0  550000 1300000 0  600000 1300000 0  650000 1300000 0  700000 1300000 0  750000 1300000 0  800000 1300000 0  850000 1300000 0  900000 1300000 0  950000 1300000 0  1000000 1300000 0  0 1350000 0  50000 1350000 0  100000 1350000 0  150000 1350000 0  200000 1350000 0  250000 1350000 0  300000 1350000 0  350000 1350000 0  400000 1350000 0  450000 1350000 0  500000 1350000 0  550000 1350000 0  600000 1350000 0  650000 1350000 0  700000 135
[...]
<PointData  Scalars="f_25027"> 
<DataArray  type="Float64"  Name="f_25027"  format="ascii">-6.7022549036899952e-04  6.7684156546384970e-05  7.4585376609210660e-05  1.3277072150303751e-04  1.7054750523962589e-04  1.9896859449858057e-04  2.2342102185638868e-04  2.4505100468121005e-04  2.6496153726561928e-04  2.8386307305144838e-04  3.0229329884516484e-04  3.2072359013884504e-04  3.3962540088835721e-04  3.5953161076642139e-04  3.8117448494023333e-04  4.0567395826655660e-04  4.3332021666012577e-04  4.7540649717759683e-04  5.2773366600506692e-04  4.4465889453253118e-04  2.6565452586432715e-03  6.4485135206789063e-06  4.7186800515620187e-05  7.0571282354245208e-05  1.3829819690276113e-04  1.7084915899404933e-04  1.9950067664822768e-04  2.2374181866796099e-04  2.4524063010104722e-04  2.6508082129668946e-04  2.8392817964917772e-04  3.0231385497326050e-04  3.2070194374102099e-04  3.3955622552631033e-04  3.5941043800269488e-04  3.8096147877628790e-04  4.0513480764005729e-04  4.3397145181576282e-04  4.7024327390434936e-04  5.0924904123627950e-04  6.6330067111607777e-04  5.0202291878834865e-04  7.8784017716374019e-05  7.4815853476691862e-05  1.1823825313349637e-04  1.5238358006647120e-04  1.7832831413017511e-04  2.0440092070168420e-04  2.2670654139379716e-04  2.4712332543870872e-04  2.6620839553597559e-04  2.8447300087550251e-04  3.0235370186044254e-04  3.2024178598763834e-04  3.3853136368470989e-04  3.5766243398744284e-04  3.7816837348298479e-04  4.0078014398962838e-04  4.2644445446841505e-04  4.5572221783068902e-04  4.9503538973882607e-04  5.1361514757037642e-04  5.2151177028735929e-04  1.2805502429824060e-04  1.3224451719466289e-04  1.4930113377902940e-04  1.6800072101132241e-04  1.9056767495633328e-04  2.1193412509646159e-04  2.3159833747831370e-04  2.5030349526359224e-04  2.6812223650086949e-04  2.8538467892812581e-04  3.0237803042060805e-04  3.1938092046849480e-04  3.3667537645667376e-04  3.5455735957273641e-04  3.7334423947008575e-04  3.9335001117289550e-04  4.1474638042389195e-04  4.3757991571052033e-04  4.5847900048009499e-04  4.7398268186417186e-04  4.8024588763039792e-04  1.6260878491860774e-04  1.6344485589315296e-04  1.7244497836440227e-04  1.8693011977315597e-04  2.0374061037983321e-04  2.2069242076597882e-04  2.3769492831807594e-04  2.5434804137724359e-04  2.7059832333651244e-04  2.8657087530869189e-04  3.0239822070097757e-04  3.1823562474172124e-04  3.3423987926422481e-04  3.5055599298886080e-04  3.6728994348788686e-04  3.8444280326623519e-04  4.0178413661126736e-04  4.1842141252263832e-04  4.3264116483657104e-04  4.4160340203232144e-04  4.4117140399297543e-04  1.8655668470842537e-04  1.8715959268586556e-04  1.9335700364113320e-04  2.0345349252382070e-04  2.1592265649486019e-04  2.2975613571412333e-04  2.4419745977407892e-04  2.5877816161092162e-04  2.7336339400822090e-04  2.8790232433113956e-04  3.0240696658699048e-04  3.1692052803583510e-04  3.3148591328840520e-04  3.4612025661756303e-04  3.6077631745433863e-04  3.7527873522675436e-04  3.8921025003622027e-04  4.0178374683413394e-04  4.1174095029171485e-04  4.1744836893430921e-04  4.1805050775955190e-04  2.0503941411467908e-04  2.0546612650498399e-04  2.0980348590303693e-04  2.1725735218767762e-04  2.2704863071400778e-04  2.3835102813032290e-04  2.5053887030470425e-04  2.6323019945426586e-04  2.7618833552417769e-04  2.8927175299760065e-04  3.0240756666670513e-04  3.1555010185450405e-04  3.2865331393568462e-04  3.4164254337654338e-04  3.5437898624718806e-04  3.6661227454978340e-04  3.7792403222219819e-04  3.8768203683171100e-04  3.9505452737325991e-04  3.9920057028340400e-04  3.9953017677847320e-04  2.1950548649965501e-04  2.1980573432491064e-04  2.2308098717657802e-04  2.2888116925767326e-04  2.3672004799438041e-04  2.4604521040838469e-04  2.5640308628413673e-04  2.6743954129443442e-04  2.7889587133880469e-04  2.9059310129819559e-04  3.0240155991757860e-04  3.1421433105276961e-04  3.2592422020576210e-04  3.3739915808107042e-04  3.4845553278154670e-04  3.5882974128683494e-04  3.6815371322456239e-04  3.7595064436884279e-04  3.8167587429493760e-04  3.8482204771079771e-04  3.8506027646927028e-04  2.3097283531035566e-04  2.3120468306753850e-04  2.3379500748187408e-04  2.3845978427763543e-04  2.4489639646117225e-04  2.5272986611212997e-04  2.6161184233090097e-04  2.7123976735901216e-04  2.8136984480878999e-04  2.9180731374590089e-04  3.0239107980088080e-04  3.1297725662751159e-04  3.2342141730926620e-04  3.3356063430852367e-04  3.4319599420037716e-04  3.5207758340252601e-04  3.5989707833596567e-04  3.6629759055680454e-04  3.7090726952440509e-04  3.7340819839068912e-04  3.7360144423442734e-04  2.4008519814648407e-04  2.4027105609596256e-04  2.4239455036759880e-04  2.4626515685812194e-04  2.5168229852694159e-04  2.5837764587159141e-04  2.6608274775726670e-04  2.7454543380397750e-04  2.8354239204631340e-04  2.9287801589277819e-04  3.0237798024969689e-04  3.1187903987079822e-04  3.2121739447052926e-04  3.3021711472781151e-04  3.3867990488880575e-04  3.4637846688135627e-04  3.5305686764222800e-04  3.5844280754143568e-04  3.6227208990428911e-04  3.6433342007186764e-04  3.6449170604386800e-04  2.4726867053465523e-04  2.4742288252928182e-04  2.4921950664647338e-04  2.5252187196604046e-04  2.5718832315391838e-04  2.6301866303865882e-04  2.6980079142499319e-04  2.7732184882203173e-04  2.8537981659491397e-04  2.9378611800381238e-04  3.0236362378577780e-04  3.1094139595163375e-04  3.1934809541742570e-04  3.2740540347006358e-04  3.3492291027399694e-04  3.4169628957145259e-04  3.4751071280636248e-04  3.5215201140275721e-04  3.5542337918843711e-04  3.5717555882318200e-04  3.5731021441756016e-04  2.5282088500577646e-04  2.5295293940406861e-04  2.5451761415459752e-04  2.5741107025127456e-04  2.6152697412615793e-04  2.6670852514164691e-04  2.7278189418126131e-04  2.7956370197589682e-04  2.8687079459190312e-04  2.9452402945953632e-04  3.0234887866260668e-04  3.1017356104402375e-04  3.1782602824939192e-04  3.2513097545083455e-04  3.3190809873848793e-04  3.3797288841027056e-04  3.4314099129200554e-04  3.4723752056188301e-04  3.5010819379087356e-04  3.5164121646490663e-04  3.5175942828485977e-04  2.5695163210145668e-04  2.5706811803593237e-04  2.5847008057876643e-04  2.6107440371260385e-04  2.6479598468246633e-04  2.6950550909745784e-04  2.7505462993774319e-04  2.8128102076646660e-04  2.8801642832511256e-04  2.9509077813978104e-04  3.0233421011836322e-04  3.0957732213329612e-04  3.1665054385067324e-04  3.2338353896978726e-04  3.2960554856380789e-04  3.3514755564714450e-04  3.3984676131876501e-04  3.4355427445724598e-04  3.4614256275038559e-04  3.4752272607771765e-04  3.4762970458871752e-04  2.5980703924213263e-04  2.5991292631328270e-04  2.6120627941365052e-04  2.6361717842945454e-04  2.6707288251190885e-04  2.7146093885215466e-04  2.7664912480754284e-04  2.8248909407606852e-04  2.8882318156851696e-04  2.9548851847663332e-04  3.0231980370286235e-04  3.0915079261885229e-04  3.1581514496356188e-04  3.2214729259333579e-04  3.2798399411700286e-04  3.3316718438867261e-04  3.3754830399362158e-04  3.4099485728477931e-04  3.4339552655355388e-04  3.4467516415210604e-04  3.4477508261625728e-04  2.6148370194821669e-04  2.6158301339436658e-04  2.6281301524584048e-04  2.6511191796080676e-04  2.6841327053360339e-04  2.7261383591101586e-04  2.7759028604611201e-04  2.8320223693829941e-04  2.8929830166817509e-04  2.9572015657989463e-04  3.0230566023996627e-04  3.0889099280500897e-04  3.1531229169926467e-04  3.2140729699361249e-04  3.2701752253359281e-04  3.3199141125706276e-04  3.3618849962412822e-04  3.3948534587894934e-04  3.4177926432813301e-04  3.4300263495124465e-04  3.4309906450931963e-04  2.6203679132346026e-04  2.6213302569327385e-04  2.6334023483490899e-04  2.6560096538670737e-04  2.6885034405024863e-04  2.7298822982681659e-04  2.7789410582160234e-04  2.8343015307010622e-04  2.8944701622644171e-04  2.9578787449869047e-04  3.0229167269958565e-04  3.0879547090050332e-04  3.1513632917281936e-04  3.2115319232925969e-04  3.2668923957789535e-04  3.3159511557282845e-04  3.3573300134954234e-04  3.3898238001321294e-04  3.4124311056510901e-04  3.4245031970679874e-04  3.4254655407662025e-04  2.6148428089075107e-04  2.6158071044881780e-04  2.6280408107187415e-04  2.6509799952095765e-04  2.6839484577564714e-04  2.7259193414256336e-04  2.7756582286588390e-04  2.8317604840573005e-04  2.8927105369997141e-04  2.9569235259416048e-04  3.0227768515918182e-04  3.0886318881927937e-04  3.1528504373107036e-04  3.2138110846105630e-04  3.2699305935338335e-04  3.3196950948863454e-04  3.3617007486620189e-04  3.3947142743913540e-04  3.4177033015420603e-04  3.4300033200573816e-04  3.4309964345189699e-04  2.5980826278382523e-04  2.5990818124796872e-04  2.6118781884645962e-04  2.6358848811512404e-04  2.6703504140613600e-04  2.7141616101092098e-04  2.7659935128242712e-04  2.8243605280594772e-04  2.8876820043560730e-04  2.9543255278024583e-04  3.0226354169621386e-04  3.0909482692247303e-04  3.1576016383066979e-04  3.2209425132324220e-04  3.2793422059192477e-04  3.3312240654748804e-04  3.3751046288790928e-04  3.4096616697051977e-04  3.4337706598644359e-04  3.4467041908687885e-04  3.4477630615803852e-04  2.5695364081140511e-04  2.5706061932239494e-04  2.5844078264965469e-04  2.6102907094266290e-04  2.6473658408097191e-04  2.6943578975239965e-04  2.7497779683554588e-04  2.8119980642939748e-04  2.8793280154838091e-04  2.9500602326567704e-04  3.0224913528058631e-04  3.0949256725920464e-04  3.1656691707396701e-04  3.2330232463275772e-04  3.2952871546166636e-04  3.3507783630215961e-04  3.3978736071736194e-04  3.4350894168741459e-04  3.4611326482139756e-04  3.4751522736431467e-04  3.4763171329880250e-04  2.5282391711533387e-04  2.5294212893527525e-04  2.5447515160921720e-04  2.5734582483804251e-04  2.6144235410770472e-04  2.6661045698920160e-04  2.7267524666075199e-04  2.7945236994820154e-04  2.8675731714948826e-04  2.9440978435476092e-04  3.0223446673615035e-04  3.1005931593926374e-04  3.1771255080700900e-04  3.2501964342318980e-04  3.3180145121805034e-04  3.3787482025792197e-04  3.4305637127367603e-04  3.4717227514880085e-04  3.5006573124566579e-04  3.5163040599630246e-04  3.5176246039460990e-04  2.4727313098274830e-04  2.4740778657711144e-04  2.4915996621173572e-04  2.5243133399719720e-04  2.5707263259331124e-04  2.6288705582791559e-04  2.6966043512507835e-04  2.7717794192875931e-04  2.8523524998120702e-04  2.9364194944688307e-04  3.0221972161270525e-04  3.1079722739472151e-04  3.1920352880375464e-04  3.2726149657684981e-04  3.3478255397416769e-04  3.4156468236082814e-04  3.4739502224591075e-04  3.5206147343410792e-04  3.5536383875392756e-04  3.5716046287126527e-04  3.5731467486591279e-04  2.4009163935661466e-04  2.4024992532859526e-04  2.4231125549600694e-04  2.4614053785856107e-04  2.5152647775738977e-04  2.5820487851785937e-04  2.6590344051003384e-04  2.7436623067071219e-04  2.8336595092776117e-04  2.9270430552735192e-04  3.0220536514841096e-04  3.1170532950538886e-04  3.2104095335201384e-04  3.3003791159460843e-04  3.3850059764166715e-04  3.4620569952775992e-04  3.5290104687286217e-04  3.5831818854211659e-04  3.6218879503299153e-04  3.6431228930483437e-04  3.6449814725434234e-04  2.3098190116631529e-04  2.3117514701002551e-04  2.3367607587607023e-04  2.3828575484324460e-04  2.4468626706355859e-04  2.5250576199646108e-04  2.6138735119812551e-04  2.7102271108958678e-04  2.8116192808856161e-04  2.9160608877014849e-04  3.0219226559672800e-04  3.1277603165177394e-04  3.2321350058907061e-04  3.3334357803915587e-04  3.4297150306769614e-04  3.5185347928700278e-04  3.5968694893856392e-04  3.6612356112270531e-04  3.7078833791897458e-04  3.7337866233361629e-04  3.7361051009084177e-04  2.1952306893185055e-04  2.1976129769029105e-04  2.2290747110579185e-04  2.2863270103125696e-04  2.3642963217479466e-04  2.4575360411180000e-04  2.5612781261647160e-04  2.6718418731647251e-04  2.7865912519145134e-04  2.9036901434425296e-04  3.0218178547938385e-04  3.1399024409883581e-04  3.2568747405843060e-04  3.3714380410315280e-04  3.4818025911396294e-04  3.5853813499038415e-04  3.6786329740519396e-04  3.7570217614276807e-04  3.8150235822462757e-04  3.8477761107676373e-04  3.8507785890208113e-04  2.0505316862322125e-04  2.0538277511825343e-04  2.0952881802781278e-04  2.1690130856840084e-04  2.2665931317684263e-04  2.3797107084829459e-04  2.5020435915013104e-04  2.6294080202023085e-04  2.7593003146073270e-04  2.8903324354171285e-04  3.0217577872944661e-04  3.1531159239861506e-04  3.2839500987224234e-04  3.4135314594252556e-04  3.5404447509265540e-04  3.6623231726785926e-04  3.7753471468527397e-04  3.8732599321283462e-04  3.9477985949861778e-04  3.9911721889744481e-04  3.9954393128788110e-04  1.8653283764317704e-04  1.8713497646812135e-04  1.9284239510981578e-04  2.0279959856584384e-04  2.1537309536219482e-04  2.2930461017042487e-04  2.4380702794197216e-04  2.5846308877818929e-04  2.7309743210701004e-04  2.8766281735939967e-04  3.0217637880818304e-04  3.1668102106408019e-04  3.3121995138716989e-04  3.4580518378479980e-04  3.6038588562221913e-04  3.7482720968313256e-04  3.8866068890363475e-04  4.0112985287629055e-04  4.1122634176104605e-04  4.1742375271786850e-04  4.1802666069543179e-04  1.6341194140987280e-04  1.6297994337157836e-04  1.7194218056550790e-04  1.8616193287668666e-04  2.0279920878591153e-04  2.2014054212948054e-04  2.3729340190699994e-04  2.5402735240557725e-04  2.7034346612998214e-04  2.8634772065237339e-04  3.0218512469307364e-04  3.1801247008537026e-04  3.3398502205763238e-04  3.5023530401710306e-04  3.6688841707674884e-04  3.8389092462961887e-04  4.0084273501716507e-04  4.1765322562712558e-04  4.3213836703922338e-04  4.4113848951222193e-04  4.4197456048680782e-04  1.2433745777853201e-04  1.3060066354277983e-04  1.4610434492121554e-04  1.6700342968707540e-04  1.8983696497071694e-04  2.1123333422053340e-04  2.3123910592287529e-04  2.5002598582010211e-04  2.6790796893616162e-04  2.8520242492435658e-04  3.0220531497223444e-04  3.1919866646467119e-04  3.3646110889185650e-04  3.5427985012908555e-04  3.7298500791446064e-04  3.9264922029655391e-04  4.1401567043862264e-04  4.3658262438556401e-04  4.5528221161827688e-04  4.7233882821225631e-04  4.7652832111405602e-04  8.3071575125957171e-05  9.0968197832222501e-05  1.0954795566168950e-04  1.4886112756047309e-04  1.7813889092180863e-04  2.0380320140052019e-04  2.2641497190762684e-04  2.4692091140363087e-04  2.6605198170670991e-04  2.8434155940397981e-04  3.0222964353121849e-04  3.2011034451604294e-04  3.3837494985529697e-04  3.5746001995213818e-04  3.7787680399649202e-04  4.0018242468813607e-04  4.2625503126003097e-04  4.5219976532235402e-04  4.8634509227246994e-04  5.2976749195616363e-04  5.2579932769740141e-04  1.0256042667162448e-04  -5.8717325724879307e-05  9.5334304136160408e-05  1.3434007147705696e-04  1.7061189356774363e-04  1.9944853774633115e-04  2.2362186661191493e-04  2.4517290738670553e-04  2.6502711986383656e-04  2.8388140164951875e-04  3.0226949041737173e-04  3.2065516574125935e-04  3.3950252409324069e-04  3.5934271528798858e-04  3.8084152671970185e-04  4.0508266873738531e-04  4.3373418638756691e-04  4.6628514847668487e-04  5.3401206302250740e-04  5.5739654481529448e-04  5.9813483187987342e-04  -2.0519619124090760e-03  1.5992445065148256e-04  7.6849679373693175e-05  1.2917684820345503e-04  1.7126312872100714e-04  1.9890938711907016e-04  2.2340886044747317e-04  2.4505173462264173e-04  2.6495794450154156e-04  2.8385975525148718e-04  3.0229004654527212e-04  3.2072027233877711e-04  3.3962180812405326e-04  3.5953234070748189e-04  3.8116232353077042e-04  4.0561475088599173e-04  4.3403584014091781e-04  4.7181262387474874e-04  5.2999796874878186e-04  5.3689918876100961e-04  1.2748088361960357e-03  </DataArray> 
</PointData> 
</Piece>
</UnstructuredGrid>
</VTKFile>