<?xml version="1.0"?>
<VTKFile type="UnstructuredGrid"  version="0.1"  >
<UnstructuredGrid>
<Piece  NumberOfPoints="651" NumberOfCells="1200">
<Points>
<DataArray  type="Float64"  NumberOfComponents="3"  format="ascii">0 0 0  50000 0 0  100000 0 0  150000 0 0  200000 0 0  250000 0 0  300000 0 0  350000 0 0  400000 0 0  450000 0 0  500000 0 0  550000 0 0  600000 0 0  650000 0 0  700000 0 0  750000 0 0  800000 0 0  850000 0 0  900000 0 0  950000 0 0  1000000 0 0  0 50000 0  50000 50000 0  100000 50000 0  150000 50000 0  200000 50000 0  250000 50000 0  300000 50000 0  350000 50000 0  400000 50000 0  450000 50000 0  500000 50000 0  550000 50000 0  600000 50000 0  650000 50000 0  700000 50000 0  750000 50000 0  800000 50000 0  850000 50000 0  900000 50000 0  950000 50000 0  1000000 50000 0  0 100000 0  50000 100000 0  100000 100000 0  150000 100000 0  200000 100000 0  250000 100000 0  300000 100000 0  350000 100000 0  400000 100000 0  450000 100000 0  500000 100000 0  550000 100000 0  600000 100000 0  650000 100000 0  700000 100000 0  750000 100000 0  800000 100000 0  850000 100000 0  900000 100000 0  950000 100000 0  1000000 100000 0  0 150000 0  50000 150000 0  100000 150000 0  150000 150000 0  200000 150000 0  250000 150000 0  300000 150000 0  350000 150000 0  400000 150000 0  450000 150000 0  500000 150000 0  550000 150000 0  600000 150000 0  650000 150000 0  700000 150000 0  750000 150000 0  800000 150000 0  850000 150000 0  900000 150000 0  950000 150000 0  1000000 150000 0  0 200000 0  50000 200000 0  100000 200000 0  150000 200000 0  200000 200000 0  250000 200000 0  300000 200000 0  350000 200000 0  400000 200000 0  450000 200000 0  500000 200000 0  550000 200000 0  600000 200000 0  650000 200000 0  700000 200000 0  750000 200000 0  800000 200000 0  850000 200000 0  900000 200000 0  950000 200000 0  1000000 200000 0  0 250000 0  50000 250000 0  100000 250000 0  150000 250000 0  200000 250000 0  250000 250000 0  300000 250000 0  350000 250000 0  400000 250000 0  450000 250000 0  500000 250000 0  550000 250000 0  600000 250000 0  650000 250000 0  700000 250000 0  750000 250000 0  800000 250000 0  850000 250000 0  900000 250000 0  950000 250000 0  1000000 250000 0  0 300000 0  50000 300000 0  100000 300000 0  150000 300000 0  200000 300000 0  250000 300000 0  300000 300000 0  350000 300000 0  400000 300000 0  450000 300000 0  500000 300000 0  550000 300000 0  600000 300000 0  650000 300000 0  700000 300000 0  750000 300000 0  800000 300000 0  850000 300000 0  900000 300000 0  950000 300000 0  1000000 300000 0  0 350000 0  50000 350000 0  100000 350000 0  150000 350000 0  200000 350000 0  250000 350000 0  300000 350000 0  350000 350000 0  400000 350000 0  450000 350000 0  500000 350000 0  550000 350000 0  600000 350000 0  650000 350000 0  700000 350000 0  750000 350000 0  800000 350000 0  850000 350000 0  900000 350000 0  950000 350000 0  1000000 350000 0  0 400000 0  50000 400000 0  100000 400000 0  150000 400000 0  200000 400000 0  250000 400000 0  300000 400000 0  350000 400000 0  400000 400000 0  450000 400000 0  500000 400000 0  550000 400000 0  600000 400000 0  650000 400000 0  700000 400000 0  750000 400000 0  800000 400000 0  850000 400000 0  900000 400000 0  950000 400000 0  1000000 400000 0  0 450000 0  50000 450000 0  100000 450000 0  150000 450000 0  200000 450000 0  250000 450000 0  300000 450000 0  350000 450000 0  400000 450000 0  450000 450000 0  500000 450000 0  550000 450000 0  600000 450000 0  650000 450000 0  700000 450000 0  750000 450000 0  800000 450000 0  850000 450000 0  900000 450000 0  950000 450000 0  1000000 450000 0  0 500000 0  50000 500000 0  100000 500000 0  150000 500000 0  200000 500000 0  250000 500000 0  300000 500000 0  350000 500000 0  400000 500000 0  450000 500000 0  500000 500000 0  550000 500000 0  600000 500000 0  650000 500000 0  700000 500000 0  750000 500000 0  800000 500000 0  850000 500000 0  900000 500000 0  950000 500000 0  1000000 500000 0  0 550000 0  50000 550000 0  100000 550000 0  150000 550000 0  200000 550000 0  250000 550000 0  300000 550000 0  350000 550000 0  400000 550000 0  450000 550000 0  500000 550000 0  550000 550000 0  600000 550000 0  650000 550000 0  700000 550000 0  750000 550000 0  800000 550000 0  850000 550000 0  900000 550000 0  950000 550000 0  1000000 550000 0  0 600000 0  50000 600000 0  100000 600000 0  150000 600000 0  200000 600000 0  250000 600000 0  300000 600000 0  350000 600000 0  400000 600000 0  450000 600000 0  500000 600000 0  550000 600000 0  600000 600000 0  650000 600000 0  700000 600000 0  750000 600000 0  800000 600000 0  850000 600000 0  900000 600000 0  950000 600000 0  1000000 600000 0  0 650000 0  50000 650000 0  100000 650000 0  150000 650000 0  200000 650000 0  250000 650000 0  300000 650000 0  350000 650000 0  400000 650000 0  450000 650000 0  500000 650000 0  550000 650000 0  600000 650000 0  650000 650000 0  700000 650000 0  750000 650000 0  800000 650000 0  850000 650000 0  900000 650000 0  950000 650000 0  1000000 650000 0  0 700000 0  50000 700000 0  100000 700000 0  150000 700000 0  200000 700000 0  250000 700000 0  300000 700000 0  350000 700000 0  400000 700000 0  450000 700000 0  500000 700000 0  550000 700000 0  600000 700000 0  650000 700000 0  700000 700000 0  750000 700000 0  800000 700000 0  850000 700000 0  900000 700000 0  950000 700000 0  1000000 700000 0  0 750000 0  50000 750000 0  100000 750000 0  150000 750000 0  200000 750000 0  250000 750000 0  300000 750000 0  350000 750000 0  400000 750000 0  450000 750000 0  500000 750000 0  550000 750000 0  600000 750000 0  650000 750000 0  700000 750000 0  750000 750000 0  800000 750000 0  850000 750000 0  900000 750000 0  950000 750000 0  1000000 750000 0  0 800000 0  50000 800000 0  100000 800000 0  150000 800000 0  200000 800000 0  250000 800000 0  300000 800000 0  350000 800000 0  400000 800000 0  450000 800000 0  500000 800000 0  550000 800000 0  600000 800000 0  650000 800000 0  700000 800000 0  750000 800000 0  800000 800000 0  850000 800000 0  900000 800000 0  950000 800000 0  1000000 800000 0  0 850000 0  50000 850000 0  100000 850000 0  150000 850000 0  200000 850000 0  250000 850000 0  300000 850000 0  350000 850000 0  400000 850000 0  450000 850000 0  500000 850000 0  550000 850000 0  600000 850000 0  650000 850000 0  700000 850000 0  750000 850000 0  800000 850000 0  850000 850000 0  900000 850000 0  950000 850000 0  1000000 850000 0  0 900000 0  50000 900000 0  100000 900000 0  150000 900000 0  200000 900000 0  250000 900000 0  300000 900000 0  350000 900000 0  400000 900000 0  450000 900000 0  500000 900000 0  550000 900000 0  600000 900000 0  650000 900000 0  700000 900000 0  750000 900000 0  800000 900000 0  850000 900000 0  900000 900000 0  950000 900000 0  1000000 900000 0  0 950000 0  50000 950000 0  100000 950000 0  150000 950000 0  200000 950000 0  250000 950000 0  300000 950000 0  350000 950000 0  400000 950000 0  450000 950000 0  500000 950000 0  550000 950000 0  600000 950000 0  650000 950000 0  700000 950000 0  750000 950000 0  800000 950000 0  850000 950000 0  900000 950000 0  950000 950000 0  1000000 950000 0  0 1000000 0  50000 1000000 0  100000 1000000 0  150000 1000000 0  200000 1000000 0  250000 1000000 0  300000 1000000 0  350000 1000000 0  400000 1000000 0  450000 1000000 0  500000 1000000 0  550000 1000000 0  600000 1000000 0  650000 1000000 0  700000 1000000 0  750000 1000000 0  800000 1000000 0  850000 1000000 0  900000 1000000 0  950000 1000000 0  1000000 1000000 0  0 1050000 0  50000 1050000 0  100000 1050000 0  150000 1050000 0  200000 1050000 0  250000 1050000 0  300000 1050000 0  350000 1050000 0  400000 1050000 0  450000 1050000 0  500000 1050000 0  550000 1050000 0  600000 1050000 0  650000 1050000 0  700000 1050000 0  750000 1050000 0  800000 1050000 0  850000 1050000 0  900000 1050000 0  950000 1050000 0  1000000 1050000 0  0 1100000 0  50000 1100000 0  100000 1100000 0  150000 1100000 0  200000 1100000 0  250000 1100000 0  300000 1100000 0  350000 1100000 0  400000 1100000 0  450000 1100000 0  500000 1100000 0  550000 1100000 0  600000 1100000 0  650000 1100000 0  700000 1100000 0  750000 1100000 0  800000 1100000 0  850000 1100000 0  900000 1100000 0  950000 1100000 0  1000000 1100000 0  0 1150000 0  50000 1150000 0  100000 1150000 0  150000 1150000 0  200000 1150000 0  250000 1150000 0  300000 1150000 0  350000 1150000 0  400000 1150000 0  450000 1150000 0  500000 1150000 0  550000 1150000 0  600000 1150000 0  650000 1150000 0  700000 1150000 0  750000 1150000 0  800000 1150000 0  850000 1150000 0  900000 1150000 0  950000 1150000 0  1000000 1150000 0  0 1200000 0  50000 1200000 0  100000 1200000 0  150000 1200000 0  200000 1200000 0  250000 1200000 0  300000 1200000 0  350000 1200000 0  400000 1200000 0  450000 1200000 0  500000 1200000 0  550000 1200000 0  600000 1200000 0  650000 1200000 0  700000 1200000 0  750000 1200000 0  800000 1200000 0  850000 1200000 0  900000 1200000 0  950000 1200000 0  1000000 1200000 0  0 1250000 0  50000 1250000 0  100000 1250000 0  150000 1250000 0  200000 1250000 0  250000 1250000 0  300000 1250000 0  350000 1250000 0  400000 1250000 0  450000 1250000 0  500000 1250000 0  550000 1250000 0  600000 1250000 0  650000 1250000 0  700000 1250000 0  750000 1250000 0  800000 1250000 0  850000 1250000 0  900000 1250000 0  950000 1250000 0  1000000 1250000 0  0 1300000 0  50000 1300000 0  100000 1300000 0  150000 1300000 0  200000 1300000 0  250000 1300000 0  300000 1300000 0  350000 1300000 0  400000 1300000 0  450000 1300000 0  500000 1300000 0  550000 1300000 0  600000 1300000 0  650000 1300000 0  700000 1300000 0  750000 1300000 0  800000 1300000 0  850000 1300000 0  900000 1300000 0  950000 1300000 0  1000000 1300000 0  0 1350000 0  50000 1350000 0  100000 1350000 0  150000 1350000 0  200000 1350000 0  250000 1350000 0  300000 1350000 0  350000 1350000 0  400000 1350000 0  450000 1350000 0  500000 1350000 0  550000 1350000 0  600000 1350000 0  650000 1350000 0  700000 135
[...]
<PointData  Scalars="f_25027"> 
<DataArray  type="Float64"  Name="f_25027"  format="ascii">-1.0092077529687282e-03  3.4400064976277152e-06  -9.9721305601684406e-06  6.2769807575470385e-05  1.0679767999061354e-04  1.3967468569149700e-04  1.6804229523383608e-04  1.9302643121520100e-04  2.1600135806301441e-04  2.3779334610842632e-04  2.5903281664531433e-04  2.8027204144516379e-04  3.0206459054287811e-04  3.2503032868917443e-04  3.5002424875557912e-04  3.7851683197667697e-04  4.1001135851279362e-04  4.6065878573758125e-04  5.2537122777528784e-04  3.7740206361964296e-04  3.4732846628430149e-03  -8.8215134011203998e-05  -4.0582364965812745e-05  -1.7939478384087076e-05  6.9098538350733196e-05  1.0613201515529440e-04  1.3994011013580195e-04  1.6815347408983191e-04  1.9308083722657351e-04  2.1604318306620859e-04  2.3782319397613742e-04  2.5905659183386801e-04  2.8029290622432791e-04  3.0208132885199760e-04  3.2505550257679581e-04  3.5006143383353077e-04  3.7816947202446588e-04  4.1198436209768642e-04  4.5533769008626466e-04  4.9886593109145733e-04  7.0467086630896533e-04  4.7502843732705619e-04  -1.8958675935080902e-06  -1.1395958683955873e-05  4.3925084636891520e-05  8.4679147662835498e-05  1.1439485258001901e-04  1.4547483694320198e-04  1.7139311773151802e-04  1.9514684633241110e-04  2.1727574218716016e-04  2.3841891421395479e-04  2.5910332778823785e-04  2.7979621920815251e-04  3.0096962067089185e-04  3.2315382290018757e-04  3.4699345610550181e-04  3.7339432647905775e-04  4.0358658359210492e-04  4.3802390516262146e-04  4.8637653862864793e-04  5.0519692062038566e-04  5.1106246633047224e-04  5.6972600982706332e-05  6.1201371490627742e-05  8.0968199833234231e-05  1.0211881688617122e-04  1.2901525529741825e-04  1.5413511790755757e-04  1.7698987108218569e-04  1.9878220760305968e-04  2.1945201118891039e-04  2.3945550612558848e-04  2.5913263465927563e-04  2.7882090627255390e-04  2.9886169896754843e-04  3.1961463620925652e-04  3.4147054675570963e-04  3.6482758051696433e-04  3.8989417445048163e-04  4.1687281529139558e-04  4.4121791830376364e-04  4.5915811362242699e-04  4.6712644783098692e-04  9.7920221375905628e-05  9.7966069755406587e-05  1.0790916375945928e-04  1.2488699882786381e-04  1.4461077306596919e-04  1.6427782399652368e-04  1.8409560110960421e-04  2.0346124909901929e-04  2.2230898848463488e-04  2.4082308133750897e-04  2.5915598353164660e-04  2.7750122934939151e-04  2.9605087264794795e-04  3.1498439389434404e-04  3.3443689647288607e-04  3.5441719466303270e-04  3.7466425865049905e-04  3.9406144314285539e-04  4.1055703866461245e-04  4.2062233531257805e-04  4.1866254031100003e-04  1.2580755513506679e-04  1.2598778284299611e-04  1.3288861402524130e-04  1.4446541950964364e-04  1.5884660333371459e-04  1.7491503998705356e-04  1.9170539562311526e-04  2.0861560924091986e-04  2.2552466680487941e-04  2.4236904027179413e-04  2.5916599705721262e-04  2.7597412763818232e-04  2.9284893824683316e-04  3.0981621242931543e-04  3.2682453170058317e-04  3.4366848706360211e-04  3.5984452353869238e-04  3.7440121259742199e-04  3.8580071780237456e-04  3.9201999259347938e-04  3.9229435924050389e-04  1.4735821139159593e-04  1.4747592918273178e-04  1.5220690128336315e-04  1.6066866763697556e-04  1.7194538379682866e-04  1.8501962629610506e-04  1.9912284852521622e-04  2.1381745051848121e-04  2.2882198094140402e-04  2.4396501901574974e-04  2.5916655618953824e-04  2.7437619724513370e-04  2.8954311582230516e-04  3.0458247423279986e-04  3.1933200987836898e-04  3.3349406310945293e-04  3.4656704573406849e-04  3.5778774974327705e-04  3.6615274852163417e-04  3.7066880271703119e-04  3.7065634375284869e-04  1.6416650144821543e-04  1.6422357309320111e-04  1.6777814407539695e-04  1.7433318583611783e-04  1.8330584966429246e-04  1.9403666897474227e-04  2.0599071805133651e-04  2.1874420246981133e-04  2.3198632602411769e-04  2.4550819382987627e-04  2.5915921384038270e-04  2.7281515845993927e-04  2.8635213719975110e-04  2.9961615220812951e-04  3.1239092880871257e-04  3.2436348697248511e-04  3.3509435057447735e-04  3.4401302321557936e-04  3.5047205866799706e-04  3.5386962069695248e-04  3.5385043394734383e-04  1.7746935242687534e-04  1.7750791569371408e-04  1.8030435544674070e-04  1.8554736915784979e-04  1.9288279478873275e-04  2.0186926994510677e-04  2.1209236732406980e-04  2.2319165706050236e-04  2.3487979672415753e-04  2.4692783792460202e-04  2.5914659723315554e-04  2.7136810040102671e-04  2.8342373994466146e-04  2.9512250948145565e-04  3.0623005672838198e-04  3.1645057130838669e-04  3.2541809860221798e-04  3.3270915908234277e-04  3.3788523753497797e-04  3.4057438077720540e-04  3.4056678320697388e-04  1.8802701039320353e-04  1.8805216531901243e-04  1.9033484059320825e-04  1.9466939452610261e-04  2.0082262697677618e-04  2.0847982018296044e-04  2.1732449843094552e-04  2.2705935841336490e-04  2.3742126927836250e-04  2.4817992804048881e-04  2.5913090301361532e-04  2.7008312440268781e-04  2.8084475583889140e-04  2.9120939545022439e-04  3.0094377512264258e-04  3.0977987196447783e-04  3.1741562773331925e-04  3.2353015433851488e-04  3.2781455907702095e-04  3.3002338600438480e-04  3.3001503616176826e-04  1.9634095071880835e-04  1.9635775695254050e-04  1.9828275033708693e-04  2.0196970959309552e-04  2.0725483611607260e-04  2.1390520901443260e-04  2.2167249158789175e-04  2.3030658167613429e-04  2.3957009634882216e-04  2.4924171010329825e-04  2.5911382039956680e-04  2.6898617697649387e-04  2.7865805896916960e-04  2.8792039755735633e-04  2.9654966391272445e-04  3.0430579998505313e-04  3.1093651156625289e-04  3.1619093772702780e-04  3.1984050441095452e-04  3.2171272274338184e-04  3.2170597211907549e-04  2.0276165285552011e-04  2.0277289753069442e-04  2.0444472890910053e-04  2.0766704437011699e-04  2.1231753701864251e-04  2.1821477321835468e-04  2.2515612867772831e-04  2.3292703341516911e-04  2.4131302289479202e-04  2.5010425663122502e-04  2.5909634843944407e-04  2.6808817968014905e-04  2.7687832209543018e-04  2.8526147209376770e-04  2.9302641037902508e-04  2.9995705129454104e-04  3.0583778448417775e-04  3.1046476193139747e-04  3.1365974499984755e-04  3.1529410687558529e-04  3.1528869225057961e-04  2.0753548409029087e-04  2.0754274864278436e-04  2.0903732198153892e-04  2.1193181006663893e-04  2.1612865689162326e-04  2.2147886022468006e-04  2.2781016775776439e-04  2.3493328553766157e-04  2.4265168196922659e-04  2.5076648495137531e-04  2.5907902111258076e-04  2.6739113426627883e-04  2.7550446787947663e-04  2.8321978488878366e-04  2.9033742021970451e-04  2.9665994405483355e-04  3.0199756927993274e-04  3.0617740704664420e-04  3.0905271588857946e-04  3.1052152946405557e-04  3.1051736315201639e-04  2.1083391935627937e-04  2.1083821384030018e-04  2.1221456211859929e-04  2.1489001416444097e-04  2.1878137217647427e-04  2.2375947196977332e-04  2.2967120247488769e-04  2.3634398250617383e-04  2.4359399165314489e-04  2.5123105965871848e-04  2.5906204896715754e-04  2.6689265848648763e-04  2.7452847486987331e-04  2.8177604588314588e-04  2.8844477173971825e-04  2.9435036718384260e-04  2.9932004425693416e-04  3.0320036974538654e-04  3.0586361157686562e-04  3.0722376975812158e-04  3.0722089489994324e-04  2.1277024873435222e-04  2.1277222885965905e-04  2.1407956123529993e-04  2.1662824235760023e-04  2.2034236005522516e-04  2.2510357255580327e-04  2.3076929918693215e-04  2.3717646298284178e-04  2.4414876948267291e-04  2.5150152541690432e-04  2.5904541761584003e-04  2.6658909284561343e-04  2.7394114823098276e-04  2.8091213206386567e-04  2.8731716487610803e-04  2.9297975524041102e-04  2.9773675441019664e-04  3.0144544742049894e-04  3.0398818659239907e-04  3.0528769649906996e-04  3.0528621629831638e-04  2.1340916275791930e-04  2.1340926600280807e-04  2.1469158223984825e-04  2.1719697584431314e-04  2.2085135539973849e-04  2.2554002571328305e-04  2.3112373038721031e-04  2.3744245856351808e-04  2.4432235068005796e-04  2.5158052559492164e-04  2.5902898510523324e-04  2.6647744461559048e-04  2.7373561953058872e-04  2.8061551164733806e-04  2.8693423982390924e-04  2.9251794449812891e-04  2.9720661481196160e-04  3.0086099436763995e-04  3.0336638797229276e-04  3.0464870420943287e-04  3.0464880745433210e-04  2.1277175391393161e-04  2.1277027371316724e-04  2.1406978361973589e-04  2.1661252279144247e-04  2.2032121580148515e-04  2.2507821497097410e-04  2.3074080533497780e-04  2.3714583814695003e-04  2.4411682197961822e-04  2.5146887736485159e-04  2.5901255259457977e-04  2.6655644479356536e-04  2.7390920072793782e-04  2.8088150722798761e-04  2.8728867102417374e-04  2.9295439765560826e-04  2.9771561015648983e-04  3.0142972785438064e-04  3.0397840897687976e-04  3.0528574135262645e-04  3.0528772147794510e-04  2.1083707531234226e-04  2.1083420045415368e-04  2.1219435863529618e-04  2.1485760046656080e-04  2.1873792595472456e-04  2.2370760302748815e-04  2.2961319847128263e-04  2.3628192432755826e-04  2.4352949534059751e-04  2.5116531172383584e-04  2.5899592124311785e-04  2.6682691055161350e-04  2.7446397855734379e-04  2.8171398770455861e-04  2.8838676773615336e-04  2.9429849824161075e-04  2.9927659803525149e-04  3.0316795604758606e-04  3.0584340809365423e-04  3.0721975637207474e-04  3.0722405085610826e-04  2.0754060706035829e-04  2.0753644074830631e-04  2.0900525432364814e-04  2.1188056316532737e-04  2.1606040093169685e-04  2.2139802615640897e-04  2.2772054999115201e-04  2.3483818532172822e-04  2.4255350233076648e-04  2.5066683594379523e-04  2.5897894909743968e-04  2.6729148525871148e-04  2.7540628824104237e-04  2.8312468467289113e-04  2.9024780245315084e-04  2.9657910998664126e-04  3.0192931332010672e-04  3.0612616014545564e-04  3.0902064823082966e-04  3.1051522156973243e-04  3.1052248612224140e-04  2.0276927796194407e-04  2.0276386333692372e-04  2.0439822521249265e-04  2.0759320828062032e-04  2.1222018572741104e-04  2.1810091891656780e-04  2.2503155983161089e-04  2.3279649811645074e-04  2.4117964811446610e-04  2.4996979052954634e-04  2.5896162177018757e-04  2.6795371357848555e-04  2.7674494731513589e-04  2.8513093679510045e-04  2.9290184153298211e-04  2.9984319699285692e-04  3.0574043319308138e-04  3.1039092584206844e-04  3.1361324130343645e-04  3.1528507268203341e-04  3.1529631735722677e-04  1.9635199809368042e-04  1.9634524746935616e-04  1.9821746580156059e-04  2.0186703248506119e-04  2.0712145864527556e-04  2.1375217022585763e-04  2.2150830629758802e-04  2.3013757265243743e-04  2.3939991124022935e-04  2.4907179323266094e-04  2.5894414980951038e-04  2.6881626010587272e-04  2.7848787386061099e-04  2.8775138853371702e-04  2.9638547862250760e-04  3.0415276119660241e-04  3.1080313409562378e-04  3.1608826061920939e-04  3.1977521987568863e-04  3.2170021326049212e-04  3.2171701949424959e-04  1.8804293405133332e-04  1.8803458420869502e-04  1.9024341113575179e-04  1.9452781587367347e-04  2.0064234247811112e-04  2.0827809824613706e-04  2.1711419508720189e-04  2.2684857475896845e-04  2.3721321436981566e-04  2.4797484580572318e-04  2.5892706719470027e-04  2.6987804216793698e-04  2.8063670093037794e-04  2.9099861179588624e-04  3.0073347177899008e-04  3.0957815002779137e-04  3.1723534323485153e-04  3.2338857568635349e-04  3.2772312961990105e-04  3.3000580489445731e-04  3.3003095982030070e-04  1.7749118700663947e-04  1.7748358943637656e-04  1.8017273267816581e-04  1.8534881112996921e-04  1.9263987160904146e-04  2.0160739890177866e-04  2.1182791348078674e-04  2.2293546072690005e-04  2.3463423026310449e-04  2.4668986980638579e-04  2.5891137297414274e-04  2.7113013228282219e-04  2.8317817348363510e-04  2.9486631314790156e-04  3.0596560288518416e-04  3.1618870026520212e-04  3.2517517542274776e-04  3.3251060105478006e-04  3.3775361476682885e-04  3.4055005452038610e-04  3.4058861778727372e-04  1.6420753626699973e-04  1.6418834951736756e-04  1.6758591154567237e-04  1.7404494699685945e-04  1.8296361963646642e-04  1.9369448323697982e-04  2.0566704139947647e-04  2.1844181799906938e-04  2.3170583300675802e-04  2.4524281174616763e-04  2.5889875636559361e-04  2.7254977637623546e-04  2.8607164418240370e-04  2.9931376773741845e-04  3.1206725215691939e-04  3.2402130123483245e-04  3.3475212054684449e-04  3.4372478437667744e-04  3.5027982613882147e-04  3.5383439712182135e-04  3.5389146876686734e-04  1.4740162646258994e-04  1.4738916749841400e-04  1.5190522169274733e-04  1.6027022046922397e-04  1.7149092447626396e-04  1.8456390709889247e-04  1.9872596032839433e-04  2.1347549597282089e-04  2.2851485438256508e-04  2.4368177295931479e-04  2.5889141401477285e-04  2.7409295118869262e-04  2.8923598926345847e-04  3.0424051968714266e-04  3.1893512168154988e-04  3.3303834391229845e-04  3.4611258641375787e-04  3.5738930257598472e-04  3.6585106893168663e-04  3.7058204103361043e-04  3.7069975882490238e-04  1.2576361097697548e-04  1.2603797762345017e-04  1.3225725241297525e-04  1.4365675761487332e-04  1.5821344667040442e-04  1.7438948314291722e-04  1.9123343850410701e-04  2.0824175777419242e-04  2.2520903195596164e-04  2.4208384256423405e-04  2.5889197314508022e-04  2.7568892993060285e-04  2.9253330339788476e-04  3.0944236096253351e-04  3.2635257458151818e-04  3.4314293021953931e-04  3.5921136687532462e-04  3.7359255070244514e-04  3.8516935619070707e-04  3.9207018737567043e-04  3.9225041508369704e-04  9.9395429906257870e-05  9.7435634907238889e-05  1.0750093155195604e-04  1.2399652706822866e-04  1.4339371155610699e-04  1.6364077554047586e-04  1.8362107372884873e-04  2.0307357630642685e-04  2.2200709755232953e-04  2.4055674085065351e-04  2.5890198666832042e-04  2.7723488886250244e-04  2.9574898171557941e-04  3.1459672110163776e-04  3.3396236909208517e-04  3.5378014620676516e-04  3.7344719714009299e-04  3.9317097138463715e-04  4.1014880645947601e-04  4.2009190046624789e-04  4.2013774884532853e-04  5.0931522399118244e-05  5.8899856603249765e-05  7.6840051911798295e-05  1.0118515491626511e-04  1.2816379575086327e-04  1.5323038968178027e-04  1.7658742344199739e-04  1.9844333398816451e-04  2.1919627122985759e-04  2.3923706392489462e-04  2.5892533553817810e-04  2.7860246407180797e-04  2.9860595900838986e-04  3.1927576259420674e-04  3.4106809911536954e-04  3.6392285229057490e-04  3.8904271490468252e-04  4.1593915332014303e-04  4.3708977037444012e-04  4.5685659873358398e-04  4.6108536924995171e-04  6.9955038971994257e-06  1.2861049598263979e-05  3.1681431584521692e-05  8.0034065031911469e-05  1.1447138659982599e-04  1.4466364371272430e-04  1.7106451408722384e-04  1.9490414729348869e-04  2.1708834952351678e-04  2.3826175098669178e-04  2.5895464240672985e-04  2.7963905598082044e-04  3.0078222800711312e-04  3.2291112386106648e-04  3.4666485246089322e-04  3.7258313324843378e-04  4.0366311761220244e-04  4.3337882252779929e-04  4.7413288558310906e-04  5.2945392895169100e-04  5.1995383782968256e-04  4.3029532995577115e-05  -1.8661289609835547e-04  1.9192039074684323e-05  6.2720280087799222e-05  1.0607360808117660e-04  1.3988849815996249e-04  1.6799653635440141e-04  1.9300246761356300e-04  2.1597664133988256e-04  2.3776506396837609e-04  2.5900137835906502e-04  2.8023477621645767e-04  3.0201478712544520e-04  3.2497713296339041e-04  3.4990449609755871e-04  3.7811786004790624e-04  4.1192595502072065e-04  4.4895943182368778e-04  5.3599744855312972e-04  5.5864033507832512e-04  6.0627310423246429e-04  -2.9552266913490544e-03  1.4065590634734752e-04  -7.3132575955391487e-06  5.7399184439163782e-05  1.0804661166475914e-04  1.3954113820707843e-04  1.6803372143203409e-04  1.9302764150093125e-04  2.1599337964880316e-04  2.3778592874736893e-04  2.5902515354745190e-04  2.8026462408398340e-04  3.0205661212840800e-04  3.2503153897446292e-04  3.5001567495316260e-04  3.7838328449102984e-04  4.1126029018562205e-04  4.5528816259872700e-04  5.2803010070583795e-04  5.1461796361795137e-04  1.5272657238997989e-03  </DataArray> 
</PointData> 
</Piece>
</UnstructuredGrid>
</VTKFile>