<?xml version="1.0"?>
<VTKFile type="UnstructuredGrid"  version="0.1"  >
<UnstructuredGrid>
<Piece  NumberOfPoints="651" NumberOfCells="1200">
<Points>
<DataArray  type="Float64"  NumberOfComponents="3"  format="ascii">0 0 0  50000 0 0  100000 0 0  150000 0 0  200000 0 0  250000 0 0  300000 0 0  350000 0 0  400000 0 0  450000 0 0  500000 0 0  550000 0 0  600000 0 0  650000 0 0  700000 0 0  750000 0 0  800000 0 0  850000 0 0  900000 0 0  950000 0 0  1000000 0 0  0 50000 0  50000 50000 0  100000 50000 0  150000 50000 0  200000 50000 0  250000 50000 0  300000 50000 0  350000 50000 0  400000 50000 0  450000 50000 0  500000 50000 0  550000 50000 0  600000 50000 0  650000 50000 0  700000 50000 0  750000 50000 0  800000 50000 0  850000 50000 0  900000 50000 0  950000 50000 0  1000000 50000 0  0 100000 0  50000 100000 0  100000 100000 0  150000 100000 0  200000 100000 0  250000 100000 0  300000 100000 0  350000 100000 0  400000 100000 0  450000 100000 0  500000 100000 0  550000 100000 0  600000 100000 0  650000 100000 0  700000 100000 0  750000 100000 0  800000 100000 0  850000 100000 0  900000 100000 0  950000 100000 0  1000000 100000 0  0 150000 0  50000 150000 0  100000 150000 0  150000 150000 0  200000 150000 0  250000 150000 0  300000 150000 0  350000 150000 0  400000 150000 0  450000 150000 0  500000 150000 0  550000 150000 0  600000 150000 0  650000 150000 0  700000 150000 0  750000 150000 0  800000 150000 0  850000 150000 0  900000 150000 0  950000 150000 0  1000000 150000 0  0 200000 0  50000 200000 0  100000 200000 0  150000 200000 0  200000 200000 0  250000 200000 0  300000 200000 0  350000 200000 0  400000 200000 0  450000 200000 0  500000 200000 0  550000 200000 0  600000 200000 0  650000 200000 0  700000 200000 0  750000 200000 0  800000 200000 0  850000 200000 0  900000 200000 0  950000 200000 0  1000000 200000 0  0 250000 0  50000 250000 0  100000 250000 0  150000 250000 0  200000 250000 0  250000 250000 0  300000 250000 0  350000 250000 0  400000 250000 0  450000 250000 0  500000 250000 0  550000 250000 0  600000 250000 0  650000 250000 0  700000 250000 0  750000 250000 0  800000 250000 0  850000 250000 0  900000 250000 0  950000 250000 0  1000000 250000 0  0 300000 0  50000 300000 0  100000 300000 0  150000 300000 0  200000 300000 0  250000 300000 0  300000 300000 0  350000 300000 0  400000 300000 0  450000 300000 0  500000 300000 0  550000 300000 0  600000 300000 0  650000 300000 0  700000 300000 0  750000 300000 0  800000 300000 0  850000 300000 0  900000 300000 0  950000 300000 0  1000000 300000 0  0 350000 0  50000 350000 0  100000 350000 0  150000 350000 0  200000 350000 0  250000 350000 0  300000 350000 0  350000 350000 0  400000 350000 0  450000 350000 0  500000 350000 0  550000 350000 0  600000 350000 0  650000 350000 0  700000 350000 0  750000 350000 0  800000 350000 0  850000 350000 0  900000 350000 0  950000 350000 0  1000000 350000 0  0 400000 0  50000 400000 0  100000 400000 0  150000 400000 0  200000 400000 0  250000 400000 0  300000 400000 0  350000 400000 0  400000 400000 0  450000 400000 0  500000 400000 0  550000 400000 0  600000 400000 0  650000 400000 0  700000 400000 0  750000 400000 0  800000 400000 0  850000 400000 0  900000 400000 0  950000 400000 0  1000000 400000 0  0 450000 0  50000 450000 0  100000 450000 0  150000 450000 0  200000 450000 0  250000 450000 0  300000 450000 0  350000 450000 0  400000 450000 0  450000 450000 0  500000 450000 0  550000 450000 0  600000 450000 0  650000 450000 0  700000 450000 0  750000 450000 0  800000 450000 0  850000 450000 0  900000 450000 0  950000 450000 0  1000000 450000 0  0 500000 0  50000 500000 0  100000 500000 0  150000 500000 0  200000 500000 0  250000 500000 0  300000 500000 0  350000 500000 0  400000 500000 0  450000 500000 0  500000 500000 0  550000 500000 0  600000 500000 0  650000 500000 0  700000 500000 0  750000 500000 0  800000 500000 0  850000 500000 0  900000 500000 0  950000 500000 0  1000000 500000 0  0 550000 0  50000 550000 0  100000 550000 0  150000 550000 0  200000 550000 0  250000 550000 0  300000 550000 0  350000 550000 0  400000 550000 0  450000 550000 0  500000 550000 0  550000 550000 0  600000 550000 0  650000 550000 0  700000 550000 0  750000 550000 0  800000 550000 0  850000 550000 0  900000 550000 0  950000 550000 0  1000000 550000 0  0 600000 0  50000 600000 0  100000 600000 0  150000 600000 0  200000 600000 0  250000 600000 0  300000 600000 0  350000 600000 0  400000 600000 0  450000 600000 0  500000 600000 0  550000 600000 0  600000 600000 0  650000 600000 0  700000 600000 0  750000 600000 0  800000 600000 0  850000 600000 0  900000 600000 0  950000 600000 0  1000000 600000 0  0 650000 0  50000 650000 0  100000 650000 0  150000 650000 0  200000 650000 0  250000 650000 0  300000 650000 0  350000 650000 0  400000 650000 0  450000 650000 0  500000 650000 0  550000 650000 0  600000 650000 0  650000 650000 0  700000 650000 0  750000 650000 0  800000 650000 0  850000 650000 0  900000 650000 0  950000 650000 0  1000000 650000 0  0 700000 0  50000 700000 0  100000 700000 0  150000 700000 0  200000 700000 0  250000 700000 0  300000 700000 0  350000 700000 0  400000 700000 0  450000 700000 0  500000 700000 0  550000 700000 0  600000 700000 0  650000 700000 0  700000 700000 0  750000 700000 0  800000 700000 0  850000 700000 0  900000 700000 0  950000 700000 0  1000000 700000 0  0 750000 0  50000 750000 0  100000 750000 0  150000 750000 0  200000 750000 0  250000 750000 0  300000 750000 0  350000 750000 0  400000 750000 0  450000 750000 0  500000 750000 0  550000 750000 0  600000 750000 0  650000 750000 0  700000 750000 0  750000 750000 0  800000 750000 0  850000 750000 0  900000 750000 0  950000 750000 0  1000000 750000 0  0 800000 0  50000 800000 0  100000 800000 0  150000 800000 0  200000 800000 0  250000 800000 0  300000 800000 0  350000 800000 0  400000 800000 0  450000 800000 0  500000 800000 0  550000 800000 0  600000 800000 0  650000 800000 0  700000 800000 0  750000 800000 0  800000 800000 0  850000 800000 0  900000 800000 0  950000 800000 0  1000000 800000 0  0 850000 0  50000 850000 0  100000 850000 0  150000 850000 0  200000 850000 0  250000 850000 0  300000 850000 0  350000 850000 0  400000 850000 0  450000 850000 0  500000 850000 0  550000 850000 0  600000 850000 0  650000 850000 0  700000 850000 0  750000 850000 0  800000 850000 0  850000 850000 0  900000 850000 0  950000 850000 0  1000000 850000 0  0 900000 0  50000 900000 0  100000 900000 0  150000 900000 0  200000 900000 0  250000 900000 0  300000 900000 0  350000 900000 0  400000 900000 0  450000 900000 0  500000 900000 0  550000 900000 0  600000 900000 0  650000 900000 0  700000 900000 0  750000 900000 0  800000 900000 0  850000 900000 0  900000 900000 0  950000 900000 0  1000000 900000 0  0 950000 0  50000 950000 0  100000 950000 0  150000 950000 0  200000 950000 0  250000 950000 0  300000 950000 0  350000 950000 0  400000 950000 0  450000 950000 0  500000 950000 0  550000 950000 0  600000 950000 0  650000 950000 0  700000 950000 0  750000 950000 0  800000 950000 0  850000 950000 0  900000 950000 0  950000 950000 0  1000000 950000 0  0 1000000 0  50000 1000000 0  100000 1000000 0  150000 1000000 0  200000 1000000 0  250000 1000000 0  300000 1000000 0  350000 1000000 0  400000 1000000 0  450000 1000000 0  500000 1000000 0  550000 1000000 0  600000 1000000 0  650000 1000000 0  700000 1000000 0  750000 1000000 0  800000 1000000 0  850000 1000000 0  900000 1000000 0  950000 1000000 0  1000000 1000000 0  0 1050000 0  50000 1050000 0  100000 1050000 0  150000 1050000 0  200000 1050000 0  250000 1050000 0  300000 1050000 0  350000 1050000 0  400000 1050000 0  450000 1050000 0  500000 1050000 0  550000 1050000 0  600000 1050000 0  650000 1050000 0  700000 1050000 0  750000 1050000 0  800000 1050000 0  850000 1050000 0  900000 1050000 0  950000 1050000 0  1000000 1050000 0  0 1100000 0  50000 1100000 0  100000 1100000 0  150000 1100000 0  200000 1100000 0  250000 1100000 0  300000 1100000 0  350000 1100000 0  400000 1100000 0  450000 1100000 0  500000 1100000 0  550000 1100000 0  600000 1100000 0  650000 1100000 0  700000 1100000 0  750000 1100000 0  800000 1100000 0  850000 1100000 0  900000 1100000 0  950000 1100000 0  1000000 1100000 0  0 1150000 0  50000 1150000 0  100000 1150000 0  150000 1150000 0  200000 1150000 0  250000 1150000 0  300000 1150000 0  350000 1150000 0  400000 1150000 0  450000 1150000 0  500000 1150000 0  550000 1150000 0  600000 1150000 0  650000 1150000 0  700000 1150000 0  750000 1150000 0  800000 1150000 0  850000 1150000 0  900000 1150000 0  950000 1150000 0  1000000 1150000 0  0 1200000 0  50000 1200000 0  100000 1200000 0  150000 1200000 0  200000 1200000 0  250000 1200000 0  300000 1200000 0  350000 1200000 0  400000 1200000 0  450000 1200000 0  500000 1200000 0  550000 1200000 0  600000 1200000 0  650000 1200000 0  700000 1200000 0  750000 1200000 0  800000 1200000 0  850000 1200000 0  900000 1200000 0  950000 1200000 0  1000000 1200000 0  0 1250000 0  50000 1250000 0  100000 1250000 0  150000 1250000 0  200000 1250000 0  250000 1250000 0  300000 1250000 0  350000 1250000 0  400000 1250000 0  450000 1250000 0  500000 1250000 0  550000 1250000 0  600000 1250000 0  650000 1250000 0  700000 1250000 0  750000 1250000 0  800000 1250000 0  850000 1250000 0  900000 1250000 0  950000 1250000 0  1000000 1250000 0  0 1300000 0  50000 1300000 0  100000 1300000 0  150000 1300000 0  200000 1300000 0  250000 1300000 0  300000 1300000 0  350000 1300000 0  400000 1300000 0  450000 1300000 0  500000 1300000 0  550000 1300000 0  600000 1300000 0  650000 1300000 0  700000 1300000 0  750000 1300000 0  800000 1300000 0  850000 1300000 0  900000 1300000 0  950000 1300000 0  1000000 1300000 0  0 1350000 0  50000 1350000 0  100000 1350000 0  150000 1350000 0  200000 1350000 0  250000 1350000 0  300000 1350000 0  350000 1350000 0  400000 1350000 0  450000 1350000 0  500000 1350000 0  550000 1350000 0  600000 1350000 0  650000 1350000 0  700000 135
[...]
<PointData  Scalars="f_25027"> 
<DataArray  type="Float64"  Name="f_25027"  format="ascii">-1.0917971812469090e-03  -1.0669091432692418e-05  -2.9547125543349293e-05  4.6520906831753056e-05  9.1858158351701015e-05  1.2565365117865100e-04  1.5483280632646673e-04  1.8050623965796444e-04  2.0410960741582354e-04  2.2649311365686043e-04  2.4830690522804617e-04  2.7012030132099132e-04  2.9250426997507806e-04  3.1609688105336707e-04  3.4177836809306617e-04  3.7110211609435527e-04  4.0335516605960047e-04  4.5590088251632241e-04  5.2331031361515601e-04  3.5866691683972485e-04  3.6755719317799196e-03  -1.1030844099521161e-04  -6.0962855010836095e-05  -3.8669241756455917e-05  5.2972171615433175e-05  9.0914072345382198e-05  1.2583308052757961e-04  1.5487934723620834e-04  1.8051953310807949e-04  2.0412769727971465e-04  2.2651199902348648e-04  2.4833124258405768e-04  2.7015344546603551e-04  2.9254634552606308e-04  3.1616529648481774e-04  3.4188975836035282e-04  3.7082057232471811e-04  4.0569655246939661e-04  4.5060394734990018e-04  4.9501242110679925e-04  7.1362509236768399e-04  4.6706895905304028e-04  -2.0525328830458635e-05  -3.1573300120474551e-05  2.6571188718651004e-05  6.8808339157977143e-05  9.9304205902484363e-05  1.3148355912705401e-04  1.5816001754065975e-04  1.8261416830401517e-04  2.0537608993485625e-04  2.2711553229896119e-04  2.4837955431866667e-04  2.6965222852558398e-04  2.9142290160493844e-04  3.1424210828443877e-04  3.3877972532512954e-04  3.6598253381563280e-04  3.9714962147246031e-04  4.3270894594170400e-04  4.8316221366047070e-04  5.0191322212828657e-04  5.0704253601514359e-04  4.0461019319466827e-05  4.4615176478119918e-05  6.4953413567085159e-05  8.6593965125313235e-05  1.1444422486025293e-04  1.4037149400906255e-04  1.6389701744412929e-04  1.8633955985094283e-04  2.0760339510480719e-04  2.2817650778667601e-04  2.4841008403132906e-04  2.6865515073523232e-04  2.8926650631226310e-04  3.1061832860776451e-04  3.3311862154541049e-04  3.5718594138542110e-04  3.8303875567171291e-04  4.1092266960944068e-04  4.3600816685461627e-04  4.5444386564890581e-04  4.6278085532447480e-04  8.2799383692629133e-05  8.2608396531874020e-05  9.2710045102344966e-05  1.1021799927326509e-04  1.3056538993812790e-04  1.5080199687385085e-04  1.7121446653039067e-04  1.9114913981026126e-04  2.1053827717240070e-04  2.2958110541543723e-04  2.4843413865488847e-04  2.6730009044027467e-04  2.8637911006718482e-04  3.0585881254882651e-04  3.2588144666146349e-04  3.4645835889099451e-04  3.6732285672414107e-04  3.8730631402990838e-04  4.0427807417297391e-04  4.1454744952335487e-04  4.1216223236777068e-04  1.1151483044641646e-04  1.1156494657093190e-04  1.1858788288370467e-04  1.3046387509996310e-04  1.4523943748501861e-04  1.6177634895310345e-04  1.7905942772807913e-04  1.9645538078289334e-04  2.1384839874653326e-04  2.3117187416988498e-04  2.4844458786664881e-04  2.6572904353393430e-04  2.8308381434491599e-04  3.0053703275021576e-04  3.1803677420899547e-04  3.3537133808006768e-04  3.5201785626968421e-04  3.6698728046445883e-04  3.7867732178109218e-04  3.8497279014394536e-04  3.8514420188417997e-04  1.3371085990087985e-04  1.3373501918986769e-04  1.3852518955044570e-04  1.4718363552857218e-04  1.5876404167948239e-04  1.7220519204939888e-04  1.8670557431737679e-04  2.0181618919994334e-04  2.1724555454098878e-04  2.3281558714862934e-04  2.4844523177252947e-04  2.6408329667826987e-04  2.7967820472521893e-04  2.9514319434006432e-04  3.1031107256122473e-04  3.2487382360437073e-04  3.3831124285251999e-04  3.4983040501811277e-04  3.5838887193013656e-04  3.6295992247227439e-04  3.6284598440875084e-04  1.5100855930270173e-04  1.5099298531618644e-04  1.5458734429503446e-04  1.6128689054437890e-04  1.7048708329851672e-04  1.8150492781208083e-04  1.9378758846248396e-04  2.0689570269485737e-04  2.2050683254513334e-04  2.3440582362641639e-04  2.4843770247031424e-04  2.6247463398650555e-04  2.7638933118126876e-04  2.9002319401165249e-04  3.0315291867804672e-04  3.1545469238668548e-04  3.2647317656711382e-04  3.3561690206724908e-04  3.4221573665531811e-04  3.4564697759833710e-04  3.4555198069154261e-04  1.6469350604610098e-04  1.6467461400623978e-04  1.6749854494560205e-04  1.7284978537127066e-04  1.8036305582067564e-04  1.8958276068961738e-04  2.0007978214564662e-04  2.1148095034816860e-04  2.2348951663770527e-04  2.3586916755596405e-04  2.4842468988586075e-04  2.6098304113645471e-04  2.7337051398694854e-04  2.8539011277227427e-04  2.9679983869291654e-04  3.0729386096692589e-04  3.1649355957196596e-04  3.2396078747574968e-04  3.2924258242129808e-04  3.3195540017706628e-04  3.3188879766732322e-04  1.7555109963834567e-04  1.7552873269270064e-04  1.7783135469165616e-04  1.8225134996968022e-04  1.8854854869775029e-04  1.9639840326345759e-04  2.0547400020453775e-04  2.1546829054343595e-04  2.2610950802559777e-04  2.3715985929333868e-04  2.4840848863529058e-04  2.5965841188978808e-04  2.7071182000030629e-04  2.8135579528792672e-04  2.9134953989787455e-04  3.0041620480244238e-04  3.0824371279183492e-04  3.1450062722227683e-04  3.1886857263249045e-04  3.2109487820987750e-04  3.2103772730740027e-04  1.8409903025541388e-04  1.8407536982760952e-04  1.8601556648551826e-04  1.8977232172574167e-04  1.9517716852005283e-04  2.0199040902765141e-04  2.0995593771637862e-04  2.1881565378452922e-04  2.2832456588808719e-04  2.3825433904167258e-04  2.4839086406315954e-04  2.5852763771824219e-04  2.6845767470649770e-04  2.7796533553552805e-04  2.8681998908048034e-04  2.9477389361206815e-04  3.0156670647388598e-04  3.0693970805579802e-04  3.1065770748598233e-04  3.1254336510733573e-04  3.1249530161895435e-04  1.9069912056519805e-04  1.9067490265394372e-04  1.9235874365887098e-04  1.9563999190419699e-04  2.0039301074472514e-04  2.0643133762439787e-04  2.1354623873640757e-04  2.2151651768171661e-04  2.3012103148019200e-04  2.3914339052140440e-04  2.4837284125211106e-04  2.5760201577599027e-04  2.6662322763034975e-04  2.7522477605796303e-04  2.8318884261442666e-04  2.9029260062705985e-04  2.9631379084901446e-04  3.0104243419778375e-04  3.0429538308090733e-04  3.0594052882180269e-04  3.0589905596014862e-04  1.9560555824209649e-04  1.9558085108647885e-04  1.9708528476564355e-04  2.0003122344107116e-04  2.0431853245469935e-04  2.0979424131555046e-04  2.1628107831828748e-04  2.2358406586060013e-04  2.3150067293656014e-04  2.3982590800369254e-04  2.4835497179908543e-04  2.5688359402661274e-04  2.6520729612679767e-04  2.7312069468766212e-04  2.8041798083968083e-04  2.8689569603093797e-04  2.9235835899580270e-04  2.9662804832606673e-04  2.9955413976057572e-04  3.0103197978784086e-04  3.0099543588661155e-04  1.9899523305371507e-04  1.9896985639006104e-04  2.0035465424396583e-04  2.0307662756467056e-04  2.0705042525128787e-04  2.1214354717716914e-04  2.1819852768529239e-04  2.2503770653704391e-04  2.3247174012149745e-04  2.4030467680474850e-04  2.4833747439880258e-04  2.5636987628174665e-04  2.6420150987819212e-04  2.7163300734930771e-04  2.7846797394896885e-04  2.8451658686922326e-04  2.8960097756416801e-04  2.9356335221891147e-04  2.9627269516817149e-04  2.9764078234257349e-04  2.9760798330452258e-04  2.0098499640654036e-04  2.0095859880456393e-04  2.0227354218170041e-04  2.0486590703131823e-04  2.0865784006924486e-04  2.1352800116891256e-04  2.1932981438864982e-04  2.2589546396143570e-04  2.3304341096496483e-04  2.4058338971165704e-04  2.4832033243346385e-04  2.5605704925181597e-04  2.6359629910364257e-04  2.7074287112658599e-04  2.7730630781273115e-04  2.8310486720764159e-04  2.8797066193074640e-04  2.9175697960376784e-04  2.9434319942363751e-04  2.9565006987881937e-04  2.9562009011217474e-04  2.0164156805252070e-04  2.0161367518114576e-04  2.0290325021732539e-04  2.0545134033610576e-04  2.0918196670961916e-04  2.1397754960797449e-04  2.1969495064756172e-04  2.2616952992158507e-04  2.3322227319675626e-04  2.4066479611521048e-04  2.4830339749700949e-04  2.5594199887886122e-04  2.6338452179747071e-04  2.7043726507288356e-04  2.7691184434721082e-04  2.8262924538713477e-04  2.8742482828582149e-04  2.9115545465962513e-04  2.9370354477862019e-04  2.9499311981491267e-04  2.9496522694354854e-04  2.0098670488389372e-04  2.0095672511723797e-04  2.0226359557230439e-04  2.0484981539195272e-04  2.0863613306467584e-04  2.1350192778743908e-04  2.1930048718200417e-04  2.2586392386783730e-04  2.3301049589053265e-04  2.4054974574220177e-04  2.4828646256050120e-04  2.5602340528236509e-04  2.6356338402921969e-04  2.7071133103300074e-04  2.7727698060610491e-04  2.8307879382619383e-04  2.8794895492621010e-04  2.9174088796444142e-04  2.9433325281428597e-04  2.9564819619154183e-04  2.9562179858957742e-04  1.9899881169159150e-04  1.9896601265353029e-04  2.0033409982780421e-04  2.0304344277681866e-04  2.0700581743123020e-04  2.1209020812579683e-04  2.1813882104567030e-04  2.2497378764498830e-04  2.3240528511583365e-04  2.4023691871210808e-04  2.4826932059499583e-04  2.5630211818911423e-04  2.6413505487254545e-04  2.7156908845727936e-04  2.7840826730938557e-04  2.8446324781790302e-04  2.8955636974417625e-04  2.9353016743113836e-04  2.9625214075210100e-04  2.9763693860614246e-04  2.9761156194250119e-04  1.9561135910960674e-04  1.9557481520836463e-04  1.9705265523547807e-04  1.9997874666969394e-04  2.0424843599956433e-04  2.0971109896398239e-04  2.1618881415479333e-04  2.2348610030641311e-04  2.3139949886696580e-04  2.3972320096695430e-04  2.4825182319441834e-04  2.5678088698988656e-04  2.6510612205722796e-04  2.7302272913351419e-04  2.8032571667624336e-04  2.8681255367944664e-04  2.9228826254076612e-04  2.9657557155481101e-04  2.9952151023055043e-04  3.0102594390988142e-04  3.0100123675427944e-04  1.9070773903624217e-04  1.9066626617457365e-04  1.9231141191527822e-04  1.9556436079803258e-04  2.0029300414630804e-04  2.0631419436770843e-04  2.1341795237979453e-04  2.2138201893577434e-04  2.2998356736301360e-04  2.3900477921713934e-04  2.4823395374094331e-04  2.5746340447173945e-04  2.6648576351320129e-04  2.7509027731206944e-04  2.8306055625788493e-04  2.9017545737046999e-04  2.9621378425072944e-04  3.0096680309178465e-04  3.0424805133751011e-04  3.0593189234265133e-04  3.0590767443141605e-04  1.8411149337770351e-04  1.8406342988930475e-04  1.8594908751040651e-04  1.8966708694010277e-04  1.9504008852136927e-04  2.0183290138247345e-04  2.0978680591336854e-04  2.1864145945771924e-04  2.2814912028629107e-04  2.3807915727426236e-04  2.4821593092925332e-04  2.5835245595084690e-04  2.6828222910473351e-04  2.7779114120877221e-04  2.8665085727755277e-04  2.9461638596700975e-04  3.0142962647536592e-04  3.0683447327037176e-04  3.1059122851112938e-04  3.1253142516932570e-04  3.1250776474154636e-04  1.7556906768965386e-04  1.7551191678715641e-04  1.7773822236419700e-04  1.8210616777374118e-04  1.8836308220330971e-04  1.9619059019175918e-04  2.0525725509543461e-04  2.1525099970462624e-04  2.2589497499168209e-04  2.3694838310185542e-04  2.4819830635624054e-04  2.5944693569831802e-04  2.7049728696642103e-04  2.8113850444917064e-04  2.9113279478885630e-04  3.0020839173087397e-04  3.0805824629758497e-04  3.1435544502660074e-04  3.1877544030536566e-04  3.2107806230472353e-04  3.2105569535911214e-04  1.6471799733031693e-04  1.6465139482054440e-04  1.6736421257581844e-04  1.7264600752041410e-04  1.8011323542298409e-04  1.8931293402675808e-04  1.9980695629961167e-04  2.1121668221930976e-04  2.2323628100394979e-04  2.3562375385403195e-04  2.4818210510449179e-04  2.6073762743453264e-04  2.7311727835321609e-04  2.8512584464345745e-04  2.9652701284695878e-04  3.0702403430420149e-04  3.1624373917448688e-04  3.2375700962520345e-04  3.2910825005193700e-04  3.3193218099189070e-04  3.3191328895207671e-04  1.5105481430693102e-04  1.5095981740011972e-04  1.5439105834240681e-04  1.6098989292906535e-04  1.7013361842747467e-04  1.8115210260618986e-04  1.9345387631334725e-04  2.0658360097859058e-04  2.2021746380817197e-04  2.3413216100246666e-04  2.4816909251850530e-04  2.6220097136255916e-04  2.7609996244431557e-04  2.8971109229541025e-04  3.0281920652896831e-04  3.1510186718088936e-04  3.2611971169624500e-04  3.3531990445227733e-04  3.4201945070323661e-04  3.4561380968297896e-04  3.4559823569651799e-04  1.3376081059096823e-04  1.3364687252747441e-04  1.3821792306841339e-04  1.4677638997828005e-04  1.5829555214136578e-04  1.7173297138720921e-04  1.8629572242851583e-04  2.0146360064834679e-04  2.1692859026231862e-04  2.3252349830877683e-04  2.4816156321435747e-04  2.6379120783841004e-04  2.7936124044653811e-04  2.9479060578846650e-04  3.0990122067235313e-04  3.2440160294221871e-04  3.3784275331464778e-04  3.4942315946827563e-04  3.5808160544876789e-04  3.6287177581077572e-04  3.6289593509991619e-04  1.1146259311788682e-04  1.1163400485750181e-04  1.1792947321858459e-04  1.2961951453170767e-04  1.4458893872277556e-04  1.6123545690939481e-04  1.7857002077833708e-04  1.9606976223573939e-04  2.1352298064020894e-04  2.3087775145075076e-04  2.4816220711789392e-04  2.6543492081478065e-04  2.8275839623856174e-04  3.0015141420300351e-04  3.1754736725918574e-04  3.3483044603643033e-04  3.5136735750733650e-04  3.6614291989587932e-04  3.7801891211651875e-04  3.8504184843231895e-04  3.8509196455690673e-04  8.4444562633950300e-05  8.2059345481398191e-05  9.2328720828129676e-05  1.0930048096487295e-04  1.2928393826543006e-04  1.5014843609496796e-04  1.7072534832243002e-04  1.9074798243394296e-04  2.1022768491501029e-04  2.2930670454165161e-04  2.4817265632695026e-04  2.6702568956645770e-04  2.8606851780973601e-04  3.0545765517239499e-04  3.2539232845347024e-04  3.4580479811186849e-04  3.6604140505078913e-04  3.8638879572302251e-04  4.0389674990129053e-04  4.1399839847474750e-04  4.1380741131341093e-04  3.3825939692117456e-05  4.2162929362627885e-05  6.0598628145447249e-05  8.5684125381371303e-05  1.1356803931174381e-04  1.3942085359499280e-04  1.6348817343379181e-04  1.8598846637110370e-04  2.0734028866658876e-04  2.2795164424367252e-04  2.4819671094758743e-04  2.6843028719218177e-04  2.8900339987394886e-04  3.1026723512778744e-04  3.3270977753495020e-04  3.5623530097071422e-04  3.8216257012410051e-04  4.1001282986400945e-04  4.3165338142402008e-04  4.5199161853141782e-04  4.5614577569916520e-04  -1.0435741002886981e-05  -5.3064271245051665e-06  1.3444581336464382e-05  6.3897849033809921e-05  9.9457173499957992e-05  1.3062426115664761e-04  1.5782706964825725e-04  1.8236468669005867e-04  2.0518389337041652e-04  2.2695456645028381e-04  2.4822724065735218e-04  2.6949126267684340e-04  2.9123070504037679e-04  3.1399262667030861e-04  3.3844677743243576e-04  3.6512323584517539e-04  3.9730258907032831e-04  4.2779845581328736e-04  4.7003560628530505e-04  5.2818009517811360e-04  5.1713212385329612e-04  2.9537836068435948e-05  -2.1701829736939736e-04  1.5943738382116940e-06  4.6002847602098051e-05  9.0910242488199681e-05  1.2578622263920264e-04  1.5471703660756677e-04  1.8044149848589694e-04  2.0406044944640625e-04  2.2645334950738933e-04  2.4827555238963984e-04  2.7009479594983281e-04  2.9247909769253701e-04  3.1608726186224982e-04  3.4172744773119950e-04  3.7077371443568799e-04  4.0569272260913088e-04  4.4363462333786043e-04  5.3527603670392571e-04  5.5756964990092924e-04  6.0691523600421918e-04  -3.1789651353853155e-03  1.3793987790873351e-04  -2.6703518653682534e-05  4.0705912439726901e-05  9.3251628897283350e-05  1.2550467886900604e-04  1.5482842687465740e-04  1.8050991391715981e-04  2.0410252499723661e-04  2.2648649365229721e-04  2.4829988974551501e-04  2.7011368131630475e-04  2.9249718755623288e-04  3.1610055531211578e-04  3.4177398864064263e-04  3.7095314378348304e-04  4.0474863660362634e-04  4.5008588812209277e-04  5.2615392046706608e-04  5.0727588633570542e-04  1.5884039770415713e-03  </DataArray> 
</PointData> 
</Piece>
</UnstructuredGrid>
</VTKFile>