<?xml version="1.0"?>
<VTKFile type="UnstructuredGrid"  version="0.1"  >
<UnstructuredGrid>
<Piece  NumberOfPoints="651" NumberOfCells="1200">
<Points>
<DataArray  type="Float64"  NumberOfComponents="3"  format="ascii">0 0 0  50000 0 0  100000 0 0  150000 0 0  200000 0 0  250000 0 0  300000 0 0  350000 0 0  400000 0 0  450000 0 0  500000 0 0  550000 0 0  600000 0 0  650000 0 0  700000 0 0  750000 0 0  800000 0 0  850000 0 0  900000 0 0  950000 0 0  1000000 0 0  0 50000 0  50000 50000 0  100000 50000 0  150000 50000 0  200000 50000 0  250000 50000 0  300000 50000 0  350000 50000 0  400000 50000 0  450000 50000 0  500000 50000 0  550000 50000 0  600000 50000 0  650000 50000 0  700000 50000 0  750000 50000 0  800000 50000 0  850000 50000 0  900000 50000 0  950000 50000 0  1000000 50000 0  0 100000 0  50000 100000 0  100000 100000 0  150000 100000 0  200000 100000 0  250000 100000 0  300000 100000 0  350000 100000 0  400000 100000 0  450000 100000 0  500000 100000 0  550000 100000 0  600000 100000 0  650000 100000 0  700000 100000 0  750000 100000 0  800000 100000 0  850000 100000 0  900000 100000 0  950000 100000 0  1000000 100000 0  0 150000 0  50000 150000 0  100000 150000 0  150000 150000 0  200000 150000 0  250000 150000 0  300000 150000 0  350000 150000 0  400000 150000 0  450000 150000 0  500000 150000 0  550000 150000 0  600000 150000 0  650000 150000 0  700000 150000 0  750000 150000 0  800000 150000 0  850000 150000 0  900000 150000 0  950000 150000 0  1000000 150000 0  0 200000 0  50000 200000 0  100000 200000 0  150000 200000 0  200000 200000 0  250000 200000 0  300000 200000 0  350000 200000 0  400000 200000 0  450000 200000 0  500000 200000 0  550000 200000 0  600000 200000 0  650000 200000 0  700000 200000 0  750000 200000 0  800000 200000 0  850000 200000 0  900000 200000 0  950000 200000 0  1000000 200000 0  0 250000 0  50000 250000 0  100000 250000 0  150000 250000 0  200000 250000 0  250000 250000 0  300000 250000 0  350000 250000 0  400000 250000 0  450000 250000 0  500000 250000 0  550000 250000 0  600000 250000 0  650000 250000 0  700000 250000 0  750000 250000 0  800000 250000 0  850000 250000 0  900000 250000 0  950000 250000 0  1000000 250000 0  0 300000 0  50000 300000 0  100000 300000 0  150000 300000 0  200000 300000 0  250000 300000 0  300000 300000 0  350000 300000 0  400000 300000 0  450000 300000 0  500000 300000 0  550000 300000 0  600000 300000 0  650000 300000 0  700000 300000 0  750000 300000 0  800000 300000 0  850000 300000 0  900000 300000 0  950000 300000 0  1000000 300000 0  0 350000 0  50000 350000 0  100000 350000 0  150000 350000 0  200000 350000 0  250000 350000 0  300000 350000 0  350000 350000 0  400000 350000 0  450000 350000 0  500000 350000 0  550000 350000 0  600000 350000 0  650000 350000 0  700000 350000 0  750000 350000 0  800000 350000 0  850000 350000 0  900000 350000 0  950000 350000 0  1000000 350000 0  0 400000 0  50000 400000 0  100000 400000 0  150000 400000 0  200000 400000 0  250000 400000 0  300000 400000 0  350000 400000 0  400000 400000 0  450000 400000 0  500000 400000 0  550000 400000 0  600000 400000 0  650000 400000 0  700000 400000 0  750000 400000 0  800000 400000 0  850000 400000 0  900000 400000 0  950000 400000 0  1000000 400000 0  0 450000 0  50000 450000 0  100000 450000 0  150000 450000 0  200000 450000 0  250000 450000 0  300000 450000 0  350000 450000 0  400000 450000 0  450000 450000 0  500000 450000 0  550000 450000 0  600000 450000 0  650000 450000 0  700000 450000 0  750000 450000 0  800000 450000 0  850000 450000 0  900000 450000 0  950000 450000 0  1000000 450000 0  0 500000 0  50000 500000 0  100000 500000 0  150000 500000 0  200000 500000 0  250000 500000 0  300000 500000 0  350000 500000 0  400000 500000 0  450000 500000 0  500000 500000 0  550000 500000 0  600000 500000 0  650000 500000 0  700000 500000 0  750000 500000 0  800000 500000 0  850000 500000 0  900000 500000 0  950000 500000 0  1000000 500000 0  0 550000 0  50000 550000 0  100000 550000 0  150000 550000 0  200000 550000 0  250000 550000 0  300000 550000 0  350000 550000 0  400000 550000 0  450000 550000 0  500000 550000 0  550000 550000 0  600000 550000 0  650000 550000 0  700000 550000 0  750000 550000 0  800000 550000 0  850000 550000 0  900000 550000 0  950000 550000 0  1000000 550000 0  0 600000 0  50000 600000 0  100000 600000 0  150000 600000 0  200000 600000 0  250000 600000 0  300000 600000 0  350000 600000 0  400000 600000 0  450000 600000 0  500000 600000 0  550000 600000 0  600000 600000 0  650000 600000 0  700000 600000 0  750000 600000 0  800000 600000 0  850000 600000 0  900000 600000 0  950000 600000 0  1000000 600000 0  0 650000 0  50000 650000 0  100000 650000 0  150000 650000 0  200000 650000 0  250000 650000 0  300000 650000 0  350000 650000 0  400000 650000 0  450000 650000 0  500000 650000 0  550000 650000 0  600000 650000 0  650000 650000 0  700000 650000 0  750000 650000 0  800000 650000 0  850000 650000 0  900000 650000 0  950000 650000 0  1000000 650000 0  0 700000 0  50000 700000 0  100000 700000 0  150000 700000 0  200000 700000 0  250000 700000 0  300000 700000 0  350000 700000 0  400000 700000 0  450000 700000 0  500000 700000 0  550000 700000 0  600000 700000 0  650000 700000 0  700000 700000 0  750000 700000 0  800000 700000 0  850000 700000 0  900000 700000 0  950000 700000 0  1000000 700000 0  0 750000 0  50000 750000 0  100000 750000 0  150000 750000 0  200000 750000 0  250000 750000 0  300000 750000 0  350000 750000 0  400000 750000 0  450000 750000 0  500000 750000 0  550000 750000 0  600000 750000 0  650000 750000 0  700000 750000 0  750000 750000 0  800000 750000 0  850000 750000 0  900000 750000 0  950000 750000 0  1000000 750000 0  0 800000 0  50000 800000 0  100000 800000 0  150000 800000 0  200000 800000 0  250000 800000 0  300000 800000 0  350000 800000 0  400000 800000 0  450000 800000 0  500000 800000 0  550000 800000 0  600000 800000 0  650000 800000 0  700000 800000 0  750000 800000 0  800000 800000 0  850000 800000 0  900000 800000 0  950000 800000 0  1000000 800000 0  0 850000 0  50000 850000 0  100000 850000 0  150000 850000 0  200000 850000 0  250000 850000 0  300000 850000 0  350000 850000 0  400000 850000 0  450000 850000 0  500000 850000 0  550000 850000 0  600000 850000 0  650000 850000 0  700000 850000 0  750000 850000 0  800000 850000 0  850000 850000 0  900000 850000 0  950000 850000 0  1000000 850000 0  0 900000 0  50000 900000 0  100000 900000 0  150000 900000 0  200000 900000 0  250000 900000 0  300000 900000 0  350000 900000 0  400000 900000 0  450000 900000 0  500000 900000 0  550000 900000 0  600000 900000 0  650000 900000 0  700000 900000 0  750000 900000 0  800000 900000 0  850000 900000 0  900000 900000 0  950000 900000 0  1000000 900000 0  0 950000 0  50000 950000 0  100000 950000 0  150000 950000 0  200000 950000 0  250000 950000 0  300000 950000 0  350000 950000 0  400000 950000 0  450000 950000 0  500000 950000 0  550000 950000 0  600000 950000 0  650000 950000 0  700000 950000 0  750000 950000 0  800000 950000 0  850000 950000 0  900000 950000 0  950000 950000 0  1000000 950000 0  0 1000000 0  50000 1000000 0  100000 1000000 0  150000 1000000 0  200000 1000000 0  250000 1000000 0  300000 1000000 0  350000 1000000 0  400000 1000000 0  450000 1000000 0  500000 1000000 0  550000 1000000 0  600000 1000000 0  650000 1000000 0  700000 1000000 0  750000 1000000 0  800000 1000000 0  850000 1000000 0  900000 1000000 0  950000 1000000 0  1000000 1000000 0  0 1050000 0  50000 1050000 0  100000 1050000 0  150000 1050000 0  200000 1050000 0  250000 1050000 0  300000 1050000 0  350000 1050000 0  400000 1050000 0  450000 1050000 0  500000 1050000 0  550000 1050000 0  600000 1050000 0  650000 1050000 0  700000 1050000 0  750000 1050000 0  800000 1050000 0  850000 1050000 0  900000 1050000 0  950000 1050000 0  1000000 1050000 0  0 1100000 0  50000 1100000 0  100000 1100000 0  150000 1100000 0  200000 1100000 0  250000 1100000 0  300000 1100000 0  350000 1100000 0  400000 1100000 0  450000 1100000 0  500000 1100000 0  550000 1100000 0  600000 1100000 0  650000 1100000 0  700000 1100000 0  750000 1100000 0  800000 1100000 0  850000 1100000 0  900000 1100000 0  950000 1100000 0  1000000 1100000 0  0 1150000 0  50000 1150000 0  100000 1150000 0  150000 1150000 0  200000 1150000 0  250000 1150000 0  300000 1150000 0  350000 1150000 0  400000 1150000 0  450000 1150000 0  500000 1150000 0  550000 1150000 0  600000 1150000 0  650000 1150000 0  700000 1150000 0  750000 1150000 0  800000 1150000 0  850000 1150000 0  900000 1150000 0  950000 1150000 0  1000000 1150000 0  0 1200000 0  50000 1200000 0  100000 1200000 0  150000 1200000 0  200000 1200000 0  250000 1200000 0  300000 1200000 0  350000 1200000 0  400000 1200000 0  450000 1200000 0  500000 1200000 0  550000 1200000 0  600000 1200000 0  650000 1200000 0  700000 1200000 0  750000 1200000 0  800000 1200000 0  850000 1200000 0  900000 1200000 0  950000 1200000 0  1000000 1200000 0  0 1250000 0  50000 1250000 0  100000 1250000 0  150000 1250000 0  200000 1250000 0  250000 1250000 0  300000 1250000 0  350000 1250000 0  400000 1250000 0  450000 1250000 0  500000 1250000 0  550000 1250000 0  600000 1250000 0  650000 1250000 0  700000 1250000 0  750000 1250000 0  800000 1250000 0  850000 1250000 0  900000 1250000 0  950000 1250000 0  1000000 1250000 0  0 1300000 0  50000 1300000 0  100000 1300000 0  150000 1300000 0  200000 1300000 0  250000 1300000 0  300000 1300000 0  350000 1300000 0  400000 1300000 0  450000 1300000 0  500000 1300000 0  550000 1300000 0  600000 1300000 0  650000 1300000 0  700000 1300000 0  750000 1300000 0  800000 1300000 0  850000 1300000 0  900000 1300000 0  950000 1300000 0  1000000 1300000 0  0 1350000 0  50000 1350000 0  100000 1350000 0  150000 1350000 0  200000 1350000 0  250000 1350000 0  300000 1350000 0  350000 1350000 0  400000 1350000 0  450000 1350000 0  500000 1350000 0  550000 1350000 0  600000 1350000 0  650000 1350000 0  700000 135
[...]
<PointData  Scalars="f_25027"> 
<DataArray  type="Float64"  Name="f_25027"  format="ascii">-1.8075817806333948e-04  2.1164570395559699e-04  2.3764284243205092e-04  2.7408314447243396e-04  3.0074268645380005e-04  3.2112321767902718e-04  3.3854132794600356e-04  3.5405076638658902e-04  3.6835371230473676e-04  3.8194701188489318e-04  3.9520937637994630e-04  4.0847128687866306e-04  4.2206297568339786e-04  4.3636341380946613e-04  4.5187410138858980e-04  4.6926242944901988e-04  4.8950528439324354e-04  5.1776627021594556e-04  5.5015530267613804e-04  5.4041948376215608e-04  1.6474150600722683e-03  1.8500992074271667e-04  2.1541013415441083e-04  2.3701634006362390e-04  2.7775710590712986e-04  3.0180596509498233e-04  3.2177273648315225e-04  3.3896719002155515e-04  3.5431518919452426e-04  3.6851162575880054e-04  3.8202465674271936e-04  3.9521803406449127e-04  4.0841238510818143e-04  4.2192879971932870e-04  4.3613352444922966e-04  4.5149302127812143e-04  4.6867745660433271e-04  4.8890982312942762e-04  5.1358742375181004e-04  5.4353960698862007e-04  6.3045487061091216e-04  5.5732746644832749e-04  2.3768223189816841e-04  2.3851563098905768e-04  2.6497938088506105e-04  2.8844883501522999e-04  3.0748237294431067e-04  3.2536301712449053e-04  3.4123433720883637e-04  3.5575446206338154e-04  3.6937650246760510e-04  3.8244330397356181e-04  3.9524728962862403e-04  4.0805590659097893e-04  4.2113788248559272e-04  4.3479079067807423e-04  4.4937489024307175e-04  4.6536049404153409e-04  4.8331979073660099e-04  5.0391723536022078e-04  5.2965786082580246e-04  5.4600606622737973e-04  5.5221037766843421e-04  2.7095474754447560e-04  2.7417408266284794e-04  2.8636179405057920e-04  3.0032909893703706e-04  3.1583880957084784e-04  3.3078799134538076e-04  3.4479236741407103e-04  3.5806973252763293e-04  3.7077950888040305e-04  3.8311470847139818e-04  3.9526818425493244e-04  4.0742809478404350e-04  4.1978416564124392e-04  4.3253444559134566e-04  4.4588712969053859e-04  4.6004168774414869e-04  4.7512425847884092e-04  4.9103124970397913e-04  5.0598562216194688e-04  5.1690692415422691e-04  5.2103828207900570e-04  2.9480172440484424e-04  2.9615647639887960e-04  3.0298436436865944e-04  3.1315688362892381e-04  3.2494457202043598e-04  3.3704830969210367e-04  3.4911487969284546e-04  3.6095879328610600e-04  3.7255536118674821e-04  3.8396596774798282e-04  3.9528143810035616e-04  4.0660383682819459e-04  4.1803656843081933e-04  4.2967430044990471e-04  4.4158384893390430e-04  4.5376174309399477e-04  4.6604023790543139e-04  4.7785689139406742e-04  4.8800624183254642e-04  4.9469707899106054e-04  4.9553617802858090e-04  3.1179974508665625e-04  3.1264362309900418e-04  3.1727975766467851e-04  3.2458900941253891e-04  3.3355949277725030e-04  3.4342358489337482e-04  3.5369917581071160e-04  3.6410541303014197e-04  3.7452337845317866e-04  3.8491624661889123e-04  3.9529019488579518e-04  4.0567030801118867e-04  4.1608231045606680e-04  4.2653416957698885e-04  4.3699010414181144e-04  4.4732760156116321e-04  4.5726570205361023e-04  4.6627133545131037e-04  4.7351084975959549e-04  4.7791047795251758e-04  4.7868207877155050e-04  3.2487483222918417e-04  3.2548378295706366e-04  3.2881812867271873e-04  3.3429167684434540e-04  3.4134860972295599e-04  3.4944539027064868e-04  3.5817056534657239e-04  3.6725171447870219e-04  3.7652283943313163e-04  3.8588769948747425e-04  3.9529216941260395e-04  4.0470140478869154e-04  4.1408058349906948e-04  4.2337540671993944e-04  4.3248825279574476e-04  4.4124668734531636e-04  4.4936544490492092e-04  4.5641662788751348e-04  4.6183770473661638e-04  4.6503849299174387e-04  4.6559940534848148e-04  3.3516290167322053e-04  3.3561781355970726e-04  3.3815607770297800e-04  3.4243983891670763e-04  3.4813190053942813e-04  3.5485786079632277e-04  3.6230177401135451e-04  3.7021995342083520e-04  3.7843546050470879e-04  3.8682273602654211e-04  3.9528952732994171e-04  4.0375956836784677e-04  4.1215629971801636e-04  4.2038635129874945e-04  4.2832157692245475e-04  4.3577986120508214e-04  4.4250862511756187e-04  4.4818129535522945e-04  4.5242174987144407e-04  4.5487652620992324e-04  4.5529381833045240e-04  3.4333975325773100e-04  3.4369726348340378e-04  3.4571781212620905e-04  3.4918686512632054e-04  3.5388894272164398e-04  3.5956400444310147e-04  3.6597022567978190e-04  3.7289932339218483e-04  3.8018165877849432e-04  3.8768081060650515e-04  3.9528354367164217e-04  4.0288822984873803e-04  4.1039285674302416e-04  4.1768291550608262e-04  4.2461952396217469e-04  4.3102918590845501e-04  4.3669858793359613e-04  4.4138040495821389e-04  4.4481536296326273e-04  4.4677783747776745e-04  4.4711052083070600e-04  3.4984874290865234e-04  3.5014106055785370e-04  3.5180686163538015e-04  3.5469992927159223e-04  3.5867519310662409e-04  3.6354529605110865e-04  3.6912241047115180e-04  3.7523094027259318e-04  3.8171483382036449e-04  3.8843717519440699e-04  3.9527548952476485e-04  4.0211480704315780e-04  4.0883980794153353e-04  4.1532693284332910e-04  4.2143738980427744e-04  4.2701253453520413e-04  4.3187392235670267e-04  4.3583107913971206e-04  4.3869786629011716e-04  4.4032237057385458e-04  4.4059739704296213e-04  3.5498774015825291e-04  3.5523452288455641e-04  3.5665010095527888e-04  3.5912845789719250e-04  3.6256611202733970e-04  3.6682205174298993e-04  3.7174654899198268e-04  3.7719041786264950e-04  3.8301195627288515e-04  3.8907878110121588e-04  3.9526632224897178e-04  4.0145425381204607e-04  4.0752198021876639e-04  4.1334412871608532e-04  4.1878702574570337e-04  4.2370734264927777e-04  4.2795429634378483e-04  4.3137685235660904e-04  4.3383519477796858e-04  4.3522105585820832e-04  4.3545545405745728e-04  3.5896441812810980e-04  3.5917894658253087e-04  3.6041623955179112e-04  3.6259500986428800e-04  3.6563688894900021e-04  3.6943060922202305e-04  3.7385266593391791e-04  3.7877383424394541e-04  3.8406510475395595e-04  3.8960035849698637e-04  3.9525667746119844e-04  4.0091304365582909e-04  4.0644825161298767e-04  4.1173883985145448e-04  4.1665785780114291e-04  4.2107531737493631e-04  4.2486111481959552e-04  4.2789109210186803e-04  4.3005496360935407e-04  4.3127097303004682e-04  4.3147668453190422e-04  3.6192561744230928e-04  3.6211750147228532e-04  3.6322942190049822e-04  3.6519576615016335e-04  3.6795340938877615e-04  3.7141005910101241e-04  3.7545978549633337e-04  3.7998767971287966e-04  3.8487482061638268e-04  3.9000117843099422e-04  3.9524692351539001e-04  4.0049256481500169e-04  4.0561849112520095e-04  4.1050453065539491e-04  4.1503014774908314e-04  4.1907585516024045e-04  4.2252627251816971e-04  4.2527514727259405e-04  4.2723091124806454e-04  4.2832810636403657e-04  4.2851392133802480e-04  3.6397380914173492e-04  3.6415048815230134e-04  3.6517863589790510e-04  3.6700263310127367e-04  3.6956831368919037e-04  3.7279506171298068e-04  3.7658812253323884e-04  3.8084213297547649e-04  3.8544537061946957e-04  3.9028266512842948e-04  3.9523723290502876e-04  4.0019167126932224e-04  4.0502850794243110e-04  4.0963076347526594e-04  4.1388298464478288e-04  4.1767314365968741e-04  4.2089563821464510e-04  4.2345556132629907e-04  4.2527276878809474e-04  4.2629162446618994e-04  4.2646448667720980e-04  3.6517678227522636e-04  3.6534442871301819e-04  3.6632376950932691e-04  3.6806530998753981e-04  3.7051949226783287e-04  3.7361207295670302e-04  3.7725448648916432e-04  3.8134681475838323e-04  3.8578161151553219e-04  3.9044677732448247e-04  3.9522764793026966e-04  4.0000843702542196e-04  4.0467332672255123e-04  4.0910756451716795e-04  4.1319892527392295e-04  4.1683983007005925e-04  4.1993026126164638e-04  4.2238159316279703e-04  4.2411981424414898e-04  4.2509465493350309e-04  4.2526045648384563e-04  3.6557325718822873e-04  3.6573736172211823e-04  3.6669933091408271e-04  3.6841286435140380e-04  3.7082961214039093e-04  3.7387742612566427e-04  3.7746970657622262e-04  3.8150827740291571e-04  3.8588707229932827e-04  3.9049500340438152e-04  3.9521813357556919e-04  3.9994126374676229e-04  4.0454919485183218e-04  4.0892798974827044e-04  4.1296656057499573e-04  4.1655884102559084e-04  4.1960665501090055e-04  4.2202340279992031e-04  4.2373693623726661e-04  4.2469890542924600e-04  4.2486300996313843e-04  3.6517581066751546e-04  3.6534161221785479e-04  3.6631645290719406e-04  3.6805467398852031e-04  3.7050600588963800e-04  3.7359643708118832e-04  3.7723734187728825e-04  3.8132870263401098e-04  3.8576294042860185e-04  3.9042783012571550e-04  3.9520861922086320e-04  3.9998948982665727e-04  4.0465465563562566e-04  4.0908945239280184e-04  4.1318178066205566e-04  4.1682419419455588e-04  4.1991677488346544e-04  4.2237095716379347e-04  4.2411249764203379e-04  4.2509183843835851e-04  4.2525948487615386e-04  3.6397178047415052e-04  3.6414464268516767e-04  3.6516349836324640e-04  3.6698070582501404e-04  3.6954062893663169e-04  3.7276312349154942e-04  3.7655328250641443e-04  3.8080550367589657e-04  3.8540775920870474e-04  3.9024459588179756e-04  3.9519903424608670e-04  4.0015360202269438e-04  4.0499089653167495e-04  4.0959413417569941e-04  4.1384814461797685e-04  4.1764120543827951e-04  4.2086795346211472e-04  4.2343363405007180e-04  4.2525763125347236e-04  4.2628577899909498e-04  4.2646245800966514e-04  3.6192234581334344e-04  3.6210816078732772e-04  3.6320535590328023e-04  3.6516111987871727e-04  3.6790999463309922e-04  3.7136041199098164e-04  3.7540611940209358e-04  3.7993173649574202e-04  3.8481777602590600e-04  3.8994370233608725e-04  3.9518934363569515e-04  4.0043508872010129e-04  4.0556144653473717e-04  4.1044858743827695e-04  4.1497648165487056e-04  4.1902620805024448e-04  4.2248285776253517e-04  4.2524050100119801e-04  4.2720684525090195e-04  4.2831876567913854e-04  4.2851064970911941e-04  3.5895958261947957e-04  3.5916529412133237e-04  3.6038130354200030e-04  3.6254517504944443e-04  3.6557515233166387e-04  3.6936094977626550e-04  3.7377840935000405e-04  3.7869742729964494e-04  3.8398801553807618e-04  3.8952322349521405e-04  3.9517958968984026e-04  4.0083590865406496e-04  4.0637116239712455e-04  4.1166243290717975e-04  4.1658360121726450e-04  4.2100565792922522e-04  4.2479937820231702e-04  4.2784125728709255e-04  4.3002002759964005e-04  4.3125732056893142e-04  4.3147184902335857e-04  3.5498081309395438e-04  3.5521521129319700e-04  3.5660107237340361e-04  3.5905941479470721e-04  3.6248197080746236e-04  3.6672892450189575e-04  3.7164924140540136e-04  3.7709213843496102e-04  3.8291428693223718e-04  3.8898201333893245e-04  3.9516994490200138e-04  4.0135748604977213e-04  4.0742431087813799e-04  4.1324584928842791e-04  4.1868971815916574e-04  4.2361421540824192e-04  4.2787015512398083e-04  4.3130780925421195e-04  4.3378616619619420e-04  4.3520174426695918e-04  4.3544852699327135e-04  3.4983887010849322e-04  3.5011389657759216e-04  3.5173840086128296e-04  3.5460518801161108e-04  3.5856234479452679e-04  3.6342373261592884e-04  3.6899887734676766e-04  3.7510933430764351e-04  3.8159645920938731e-04  3.8832146010773312e-04  3.9516077762611913e-04  4.0199909195649407e-04  4.0872143333057787e-04  4.1520532687841451e-04  4.2131385667994365e-04  4.2689097110009294e-04  4.3176107404469438e-04  4.3573633787984101e-04  4.3862940551614915e-04  4.4029520659373647e-04  4.4058752424295015e-04  3.4332574632081646e-04  3.4365842967374260e-04  3.4562090418817907e-04  3.4905586219311717e-04  3.5373767921760508e-04  3.5940708124261811e-04  3.6581674318878610e-04  3.7275335164478965e-04  3.8004341040778604e-04  3.8754803730203661e-04  3.9515272347912401e-04  4.0275545654427984e-04  4.1025460837233778e-04  4.1753694375872355e-04  4.2446604147123332e-04  4.3087226270804868e-04  4.3654732442966154e-04  4.4124940202514506e-04  4.4471845502539538e-04  4.4673900366829167e-04  4.4709651389398283e-04  3.3514244882117204e-04  3.3555974094168439e-04  3.3801451728005726e-04  3.4225497179610670e-04  3.4792764203359056e-04  3.5465640594589963e-04  3.6211469022838624e-04  3.7004991585198627e-04  3.7827996743264829e-04  3.8667669878277830e-04  3.9514673982067318e-04  4.0361353112409174e-04  4.1200080664597548e-04  4.2021631372993429e-04  4.2813449313954026e-04  4.3557840635473995e-04  4.4230436661184139e-04  4.4799642823478887e-04  4.5228018944872705e-04  4.5481845359214042e-04  4.5527336547865636e-04  3.2483686180330857e-04  3.2539777416001366e-04  3.2859856241496544e-04  3.3401963926381291e-04  3.4107082224614163e-04  3.4918957980552273e-04  3.5794801435492553e-04  3.6706086043061391e-04  3.7635568365140950e-04  3.8573486236174689e-04  3.9514409773782299e-04  4.0454856766296944e-04  4.1391342771736008e-04  4.2318455267187648e-04  4.3226570180414386e-04  4.4099087688026858e-04  4.4908765742823124e-04  4.5614459030716276e-04  4.6161813847911442e-04  4.6495248419501154e-04  4.6556143492294160e-04  3.1175418838052431e-04  3.1252578919946063e-04  3.1692541739209026e-04  3.2416493169995633e-04  3.3317056509727966e-04  3.4310866558944880e-04  3.5344616300861652e-04  3.6390209757332614e-04  3.7435395669418179e-04  3.8476595913902500e-04  3.9514607226440743e-04  4.0552002053132212e-04  4.1591288869707161e-04  4.2633085412018223e-04  4.3673709133974515e-04  4.4701268225730154e-04  4.5687677437374622e-04  4.6584725773891151e-04  4.7315650948732323e-04  4.7779264405343487e-04  4.7863652206584634e-04  2.9490008912367135e-04  2.9573918816134105e-04  3.0243002531923148e-04  3.1257937575698727e-04  3.2439602924512175e-04  3.3667452405625658e-04  3.4885241821618930e-04  3.6076196670010958e-04  3.7239969871915625e-04  3.8383243032176240e-04  3.9515482904959259e-04  4.0647029940196549e-04  4.1788090596321176e-04  4.2947747386389197e-04  4.4132138745724462e-04  4.5338795745816497e-04  4.6549169513018703e-04  4.7727938352244112e-04  4.8745190278353436e-04  4.9427979075402338e-04  4.9563454274826951e-04  2.6939798507474193e-04  2.7352934299921719e-04  2.8445064498951579e-04  2.9940501744652170e-04  3.1531200867105692e-04  3.3039457940556326e-04  3.4454913745911937e-04  3.5790182155831350e-04  3.7065210150842993e-04  3.8300817236564021e-04  3.9516808289474851e-04  4.0732155867826612e-04  4.1965675826923302e-04  4.3236653462197446e-04  4.4564389973552894e-04  4.5964827580427742e-04  4.7459745757919881e-04  4.9010716821347975e-04  5.0407447310029828e-04  5.1626218449088142e-04  5.1948151961065596e-04  2.3822588949241885e-04  2.4443020092436077e-04  2.6077840632495949e-04  2.8651903178844080e-04  3.0711647641226740e-04  3.2507577310744923e-04  3.4106137690606851e-04  3.5564547647120193e-04  3.6929838466377512e-04  3.8238036055843682e-04  3.9518897752079731e-04  4.0799296317582272e-04  4.2105976468169936e-04  4.3468180508579737e-04  4.4920192994017427e-04  4.6507325002435201e-04  4.8295389420449636e-04  5.0198743213311929e-04  5.2545688626813439e-04  5.5192063617183094e-04  5.5275403525691764e-04  2.3310880072199269e-04  1.5998139653627521e-04  2.4689666015216777e-04  2.7684884339519039e-04  3.0152644401809848e-04  3.2175881054383735e-04  3.3894324587052703e-04  3.5430274269970661e-04  3.6850746742977958e-04  3.8202388204101303e-04  3.9521823308471626e-04  4.0841161040643077e-04  4.2192464139021325e-04  4.3612107795425539e-04  4.5146907712685863e-04  4.6866353066468800e-04  4.8863030205184663e-04  5.1267916123856193e-04  5.5341992708194060e-04  5.7502613297150194e-04  6.0542634640955236e-04  -8.5697879258946877e-04  2.5001678326218714e-04  2.4028096446775116e-04  2.7266999693133020e-04  3.0093098275291559e-04  3.2117383769875841e-04  3.3856216575983152e-04  3.5407285333930805e-04  3.6837329146559311e-04  3.8196498027043437e-04  3.9522689076917065e-04  4.0848925526415898e-04  4.2208255484415885e-04  4.3638550076203044e-04  4.5189493920216699e-04  4.6931304946837000e-04  4.8969358069229658e-04  5.1635312267235155e-04  5.5279342470525284e-04  5.7879056314668047e-04  9.7119444535587174e-04  </DataArray> 
</PointData> 
</Piece>
</UnstructuredGrid>
</VTKFile>