<?xml version="1.0"?>
<VTKFile type="UnstructuredGrid"  version="0.1"  >
<UnstructuredGrid>
<Piece  NumberOfPoints="651" NumberOfCells="1200">
<Points>
<DataArray  type="Float64"  NumberOfComponents="3"  format="ascii">0 0 0  50000 0 0  100000 0 0  150000 0 0  200000 0 0  250000 0 0  300000 0 0  350000 0 0  400000 0 0  450000 0 0  500000 0 0  550000 0 0  600000 0 0  650000 0 0  700000 0 0  750000 0 0  800000 0 0  850000 0 0  900000 0 0  950000 0 0  1000000 0 0  0 50000 0  50000 50000 0  100000 50000 0  150000 50000 0  200000 50000 0  250000 50000 0  300000 50000 0  350000 50000 0  400000 50000 0  450000 50000 0  500000 50000 0  550000 50000 0  600000 50000 0  650000 50000 0  700000 50000 0  750000 50000 0  800000 50000 0  850000 50000 0  900000 50000 0  950000 50000 0  1000000 50000 0  0 100000 0  50000 100000 0  100000 100000 0  150000 100000 0  200000 100000 0  250000 100000 0  300000 100000 0  350000 100000 0  400000 100000 0  450000 100000 0  500000 100000 0  550000 100000 0  600000 100000 0  650000 100000 0  700000 100000 0  750000 100000 0  800000 100000 0  850000 100000 0  900000 100000 0  950000 100000 0  1000000 100000 0  0 150000 0  50000 150000 0  100000 150000 0  150000 150000 0  200000 150000 0  250000 150000 0  300000 150000 0  350000 150000 0  400000 150000 0  450000 150000 0  500000 150000 0  550000 150000 0  600000 150000 0  650000 150000 0  700000 150000 0  750000 150000 0  800000 150000 0  850000 150000 0  900000 150000 0  950000 150000 0  1000000 150000 0  0 200000 0  50000 200000 0  100000 200000 0  150000 200000 0  200000 200000 0  250000 200000 0  300000 200000 0  350000 200000 0  400000 200000 0  450000 200000 0  500000 200000 0  550000 200000 0  600000 200000 0  650000 200000 0  700000 200000 0  750000 200000 0  800000 200000 0  850000 200000 0  900000 200000 0  950000 200000 0  1000000 200000 0  0 250000 0  50000 250000 0  100000 250000 0  150000 250000 0  200000 250000 0  250000 250000 0  300000 250000 0  350000 250000 0  400000 250000 0  450000 250000 0  500000 250000 0  550000 250000 0  600000 250000 0  650000 250000 0  700000 250000 0  750000 250000 0  800000 250000 0  850000 250000 0  900000 250000 0  950000 250000 0  1000000 250000 0  0 300000 0  50000 300000 0  100000 300000 0  150000 300000 0  200000 300000 0  250000 300000 0  300000 300000 0  350000 300000 0  400000 300000 0  450000 300000 0  500000 300000 0  550000 300000 0  600000 300000 0  650000 300000 0  700000 300000 0  750000 300000 0  800000 300000 0  850000 300000 0  900000 300000 0  950000 300000 0  1000000 300000 0  0 350000 0  50000 350000 0  100000 350000 0  150000 350000 0  200000 350000 0  250000 350000 0  300000 350000 0  350000 350000 0  400000 350000 0  450000 350000 0  500000 350000 0  550000 350000 0  600000 350000 0  650000 350000 0  700000 350000 0  750000 350000 0  800000 350000 0  850000 350000 0  900000 350000 0  950000 350000 0  1000000 350000 0  0 400000 0  50000 400000 0  100000 400000 0  150000 400000 0  200000 400000 0  250000 400000 0  300000 400000 0  350000 400000 0  400000 400000 0  450000 400000 0  500000 400000 0  550000 400000 0  600000 400000 0  650000 400000 0  700000 400000 0  750000 400000 0  800000 400000 0  850000 400000 0  900000 400000 0  950000 400000 0  1000000 400000 0  0 450000 0  50000 450000 0  100000 450000 0  150000 450000 0  200000 450000 0  250000 450000 0  300000 450000 0  350000 450000 0  400000 450000 0  450000 450000 0  500000 450000 0  550000 450000 0  600000 450000 0  650000 450000 0  700000 450000 0  750000 450000 0  800000 450000 0  850000 450000 0  900000 450000 0  950000 450000 0  1000000 450000 0  0 500000 0  50000 500000 0  100000 500000 0  150000 500000 0  200000 500000 0  250000 500000 0  300000 500000 0  350000 500000 0  400000 500000 0  450000 500000 0  500000 500000 0  550000 500000 0  600000 500000 0  650000 500000 0  700000 500000 0  750000 500000 0  800000 500000 0  850000 500000 0  900000 500000 0  950000 500000 0  1000000 500000 0  0 550000 0  50000 550000 0  100000 550000 0  150000 550000 0  200000 550000 0  250000 550000 0  300000 550000 0  350000 550000 0  400000 550000 0  450000 550000 0  500000 550000 0  550000 550000 0  600000 550000 0  650000 550000 0  700000 550000 0  750000 550000 0  800000 550000 0  850000 550000 0  900000 550000 0  950000 550000 0  1000000 550000 0  0 600000 0  50000 600000 0  100000 600000 0  150000 600000 0  200000 600000 0  250000 600000 0  300000 600000 0  350000 600000 0  400000 600000 0  450000 600000 0  500000 600000 0  550000 600000 0  600000 600000 0  650000 600000 0  700000 600000 0  750000 600000 0  800000 600000 0  850000 600000 0  900000 600000 0  950000 600000 0  1000000 600000 0  0 650000 0  50000 650000 0  100000 650000 0  150000 650000 0  200000 650000 0  250000 650000 0  300000 650000 0  350000 650000 0  400000 650000 0  450000 650000 0  500000 650000 0  550000 650000 0  600000 650000 0  650000 650000 0  700000 650000 0  750000 650000 0  800000 650000 0  850000 650000 0  900000 650000 0  950000 650000 0  1000000 650000 0  0 700000 0  50000 700000 0  100000 700000 0  150000 700000 0  200000 700000 0  250000 700000 0  300000 700000 0  350000 700000 0  400000 700000 0  450000 700000 0  500000 700000 0  550000 700000 0  600000 700000 0  650000 700000 0  700000 700000 0  750000 700000 0  800000 700000 0  850000 700000 0  900000 700000 0  950000 700000 0  1000000 700000 0  0 750000 0  50000 750000 0  100000 750000 0  150000 750000 0  200000 750000 0  250000 750000 0  300000 750000 0  350000 750000 0  400000 750000 0  450000 750000 0  500000 750000 0  550000 750000 0  600000 750000 0  650000 750000 0  700000 750000 0  750000 750000 0  800000 750000 0  850000 750000 0  900000 750000 0  950000 750000 0  1000000 750000 0  0 800000 0  50000 800000 0  100000 800000 0  150000 800000 0  200000 800000 0  250000 800000 0  300000 800000 0  350000 800000 0  400000 800000 0  450000 800000 0  500000 800000 0  550000 800000 0  600000 800000 0  650000 800000 0  700000 800000 0  750000 800000 0  800000 800000 0  850000 800000 0  900000 800000 0  950000 800000 0  1000000 800000 0  0 850000 0  50000 850000 0  100000 850000 0  150000 850000 0  200000 850000 0  250000 850000 0  300000 850000 0  350000 850000 0  400000 850000 0  450000 850000 0  500000 850000 0  550000 850000 0  600000 850000 0  650000 850000 0  700000 850000 0  750000 850000 0  800000 850000 0  850000 850000 0  900000 850000 0  950000 850000 0  1000000 850000 0  0 900000 0  50000 900000 0  100000 900000 0  150000 900000 0  200000 900000 0  250000 900000 0  300000 900000 0  350000 900000 0  400000 900000 0  450000 900000 0  500000 900000 0  550000 900000 0  600000 900000 0  650000 900000 0  700000 900000 0  750000 900000 0  800000 900000 0  850000 900000 0  900000 900000 0  950000 900000 0  1000000 900000 0  0 950000 0  50000 950000 0  100000 950000 0  150000 950000 0  200000 950000 0  250000 950000 0  300000 950000 0  350000 950000 0  400000 950000 0  450000 950000 0  500000 950000 0  550000 950000 0  600000 950000 0  650000 950000 0  700000 950000 0  750000 950000 0  800000 950000 0  850000 950000 0  900000 950000 0  950000 950000 0  1000000 950000 0  0 1000000 0  50000 1000000 0  100000 1000000 0  150000 1000000 0  200000 1000000 0  250000 1000000 0  300000 1000000 0  350000 1000000 0  400000 1000000 0  450000 1000000 0  500000 1000000 0  550000 1000000 0  600000 1000000 0  650000 1000000 0  700000 1000000 0  750000 1000000 0  800000 1000000 0  850000 1000000 0  900000 1000000 0  950000 1000000 0  1000000 1000000 0  0 1050000 0  50000 1050000 0  100000 1050000 0  150000 1050000 0  200000 1050000 0  250000 1050000 0  300000 1050000 0  350000 1050000 0  400000 1050000 0  450000 1050000 0  500000 1050000 0  550000 1050000 0  600000 1050000 0  650000 1050000 0  700000 1050000 0  750000 1050000 0  800000 1050000 0  850000 1050000 0  900000 1050000 0  950000 1050000 0  1000000 1050000 0  0 1100000 0  50000 1100000 0  100000 1100000 0  150000 1100000 0  200000 1100000 0  250000 1100000 0  300000 1100000 0  350000 1100000 0  400000 1100000 0  450000 1100000 0  500000 1100000 0  550000 1100000 0  600000 1100000 0  650000 1100000 0  700000 1100000 0  750000 1100000 0  800000 1100000 0  850000 1100000 0  900000 1100000 0  950000 1100000 0  1000000 1100000 0  0 1150000 0  50000 1150000 0  100000 1150000 0  150000 1150000 0  200000 1150000 0  250000 1150000 0  300000 1150000 0  350000 1150000 0  400000 1150000 0  450000 1150000 0  500000 1150000 0  550000 1150000 0  600000 1150000 0  650000 1150000 0  700000 1150000 0  750000 1150000 0  800000 1150000 0  850000 1150000 0  900000 1150000 0  950000 1150000 0  1000000 1150000 0  0 1200000 0  50000 1200000 0  100000 1200000 0  150000 1200000 0  200000 1200000 0  250000 1200000 0  300000 1200000 0  350000 1200000 0  400000 1200000 0  450000 1200000 0  500000 1200000 0  550000 1200000 0  600000 1200000 0  650000 1200000 0  700000 1200000 0  750000 1200000 0  800000 1200000 0  850000 1200000 0  900000 1200000 0  950000 1200000 0  1000000 1200000 0  0 1250000 0  50000 1250000 0  100000 1250000 0  150000 1250000 0  200000 1250000 0  250000 1250000 0  300000 1250000 0  350000 1250000 0  400000 1250000 0  450000 1250000 0  500000 1250000 0  550000 1250000 0  600000 1250000 0  650000 1250000 0  700000 1250000 0  750000 1250000 0  800000 1250000 0  850000 1250000 0  900000 1250000 0  950000 1250000 0  1000000 1250000 0  0 1300000 0  50000 1300000 0  100000 1300000 0  150000 1300000 0  200000 1300000 0  250000 1300000 0  300000 1300000 0  350000 1300000 0  400000 1300000 0  450000 1300000 0  500000 1300000 0  550000 1300000 0  600000 1300000 0  650000 1300000 0  700000 1300000 0  750000 1300000 0  800000 1300000 0  850000 1300000 0  900000 1300000 0  950000 1300000 0  1000000 1300000 0  0 1350000 0  50000 1350000 0  100000 1350000 0  150000 1350000 0  200000 1350000 0  250000 1350000 0  300000 1350000 0  350000 1350000 0  400000 1350000 0  450000 1350000 0  500000 1350000 0  550000 1350000 0  600000 1350000 0  650000 1350000 0  700000 135
[...]
<PointData  Scalars="f_25027"> 
<DataArray  type="Float64"  Name="f_25027"  format="ascii">-1.0527098916399986e-03  1.2135231515315972e-06  -1.5477858332973037e-05  5.9282052078287211e-05  1.0410964863446793e-04  1.3754845657604927e-04  1.6641217463538117e-04  1.9181797886149620e-04  2.1517741064939070e-04  2.3733137282506156e-04  2.5892232259152475e-04  2.8051293929467493e-04  3.0266741060925721e-04  3.2601672484588220e-04  3.5143130793641918e-04  3.8043183177339352e-04  4.1239207898056084e-04  4.6419380760975929e-04  5.3054858731698947e-04  3.7254884027725088e-04  3.6016122721355247e-03  -9.5235639268912659e-05  -4.6571824847864923e-05  -2.4133247808313801e-05  6.5688136803966659e-05  1.0327782851343801e-04  1.3776291750060697e-04  1.6648492751537513e-04  1.9184792410495427e-04  2.1520511763014168e-04  2.3735470296486251e-04  2.5894644272291429e-04  2.8054112823075656e-04  3.0269924651290348e-04  3.2606766088661907e-04  3.5151270067538962e-04  3.8012333546860483e-04  4.1458537562261637e-04  4.5888430644010247e-04  5.0295324899753949e-04  7.1648051707865628e-04  4.7664010021633129e-04  -6.8291309441188353e-06  -1.7255363137773239e-05  3.9773140570695526e-05  8.1427778653289448e-05  1.1162035876138633e-04  1.4336924719794887e-04  1.6975047646029456e-04  1.9393192218629781e-04  2.1644766253602453e-04  2.3795534162430305e-04  2.5899413570819682e-04  2.8004151666900567e-04  3.0158004186596997e-04  3.2415229886974018e-04  3.4841823909407833e-04  3.7530846895055393e-04  4.0609474952914737e-04  4.4121516916288889e-04  4.9084005977904205e-04  5.0962378828446153e-04  5.1505324982594272e-04  5.3326385637754014e-05  5.7514039704740098e-05  7.7629583673161667e-05  9.9080525232073539e-05  1.2655712591115072e-04  1.5216900228488844e-04  1.7543327817587230e-04  1.9762254968867245e-04  2.1865530564098409e-04  2.3900691987553522e-04  2.5902418208905304e-04  2.7905279898467650e-04  2.9944229495031534e-04  3.2056112013417590e-04  3.4281050056788752e-04  3.6660090500433451e-04  3.9214676919437883e-04  4.1967636939998967e-04  4.4447264977294200e-04  4.6271608886973130e-04  4.7091012654890244e-04  9.5120858408551324e-05  9.5025752655145178e-05  1.0506764287692323e-04  1.2236882885782369e-04  1.4247275894047613e-04  1.6248758589509378e-04  1.8266831214385409e-04  2.0238143753488965e-04  2.2155995938843306e-04  2.4039715533516478e-04  2.5904795752627104e-04  2.7771145021835293e-04  2.9658459457614485e-04  3.1585179197931088e-04  3.3565245562710379e-04  3.5599689763738339e-04  3.7662058875253569e-04  3.9637539191559842e-04  4.1316179192927649e-04  4.2335315706552542e-04  4.2113868630803080e-04  1.2351381867089923e-04  1.2361671021205077e-04  1.3059340215058418e-04  1.4235346910555034e-04  1.5697580603498882e-04  1.7333033627054751e-04  1.9042157592292607e-04  2.0762855110650121e-04  2.2483332064421126e-04  2.4197049016328723e-04  2.5905822974923439e-04  2.7615748592425658e-04  2.9332561511527928e-04  3.1058980768594558e-04  3.2789831652178721e-04  3.4504188893873803e-04  3.6150523691086200e-04  3.7631411917936943e-04  3.8789164852279608e-04  3.9415902037389305e-04  3.9437232376831336e-04  1.4545849685997957e-04  1.4552054139620535e-04  1.5028884298426401e-04  1.5887145695906398e-04  1.7033402199405560e-04  1.8363255529247550e-04  1.9797853234071033e-04  2.1292738608186964e-04  2.2819156871597724e-04  2.4359560811917246e-04  2.5905883565036694e-04  2.7453035904070612e-04  2.8995888005930830e-04  3.0525837518764607e-04  3.2026357106310755e-04  3.3467050564818594e-04  3.4796628150642560e-04  3.5936965866951369e-04  3.6785354229630570e-04  3.7240433050198782e-04  3.7233141125224075e-04  1.6256575236929074e-04  1.6257955750421978e-04  1.6615937512193195e-04  1.7280335832465827e-04  1.8191547920621125e-04  1.9282196242560750e-04  2.0497699157447156e-04  2.1794731171678318e-04  2.3141505204466736e-04  2.4516749571159923e-04  2.5905137458154097e-04  2.7294025610878901e-04  2.8670817020106640e-04  3.0019830850869608e-04  3.1319011266731133e-04  3.2536401154958640e-04  3.3627088760404794e-04  3.4532750473522734e-04  3.5187262237396029e-04  3.5529171244503183e-04  3.5522733445752722e-04  1.7610208715350916e-04  1.7610641821456374e-04  1.7892043752210299e-04  1.8423019791475112e-04  1.9167476261150034e-04  2.0080409483655366e-04  2.1119483698289065e-04  2.2247880964326215e-04  2.3436294127917933e-04  2.4661379566425092e-04  2.5903851360827755e-04  2.7146602653201193e-04  2.8372461396931252e-04  2.9561961694060212e-04  3.0691202438808428e-04  3.1729992681668541e-04  3.2640966479815435e-04  3.3380883761107181e-04  3.3905013222114395e-04  3.4175452825028016e-04  3.4171175133161983e-04  1.8684307025875786e-04  1.8683990084085352e-04  1.8913543175821425e-04  1.9352275867317917e-04  1.9976442948847734e-04  2.0753972924363365e-04  2.1652582682241481e-04  2.2641948231905625e-04  2.3695230585023562e-04  2.4788943074247028e-04  2.5902250787014332e-04  2.7015685965120977e-04  2.8109700692156088e-04  2.9163257500374953e-04  3.0152570743186555e-04  3.1050300594410004e-04  3.1825631163320085e-04  3.2445831292618319e-04  3.2879433239509228e-04  3.3101450914757932e-04  3.3097705600108727e-04  1.9530005985398017e-04  1.9529273998294551e-04  1.9722760520100776e-04  2.0095773233500897e-04  2.0631647136995398e-04  2.1306675938977723e-04  2.2095552402940773e-04  2.2972778807655932e-04  2.3914153199819081e-04  2.4897115695280981e-04  2.5900509283999901e-04  2.6903927612466279e-04  2.7886916551517047e-04  2.8828168577555823e-04  2.9704897880624982e-04  3.0492630399488315e-04  3.1165646191804331e-04  3.1698380080486389e-04  3.2067570405357366e-04  3.2255671808897819e-04  3.2252532519279575e-04  2.0183044954780622e-04  2.0182054662071876e-04  2.0350023592329307e-04  2.0675904343357197e-04  2.1147262641308502e-04  2.1745647385909312e-04  2.2450423395176488e-04  2.3239729445416436e-04  2.4091711820770464e-04  2.4984987097073869e-04  2.5898728347555398e-04  2.6812442565459502e-04  2.7705605238274655e-04  2.8557295882082319e-04  2.9345990158065647e-04  3.0049668448511863e-04  3.0646364165493571e-04  3.1115318381294473e-04  3.1438406914261450e-04  3.1602554088325967e-04  3.1599861531062109e-04  2.0668537485499152e-04  2.0667356981306332e-04  2.0817464296757476e-04  2.1110102183435523e-04  2.1535357274048015e-04  2.2078086250850809e-04  2.2720757377384237e-04  2.3444094317984075e-04  2.4228077896064573e-04  2.5052447605017813e-04  2.5896962434255352e-04  2.6741433813999761e-04  2.7565652662600858e-04  2.8349320362020799e-04  2.9072095630873788e-04  2.9713867683886828e-04  3.0255310257460468e-04  3.0678827130516524e-04  3.0969506345552184e-04  3.1116986790151463e-04  3.1114638437015018e-04  2.1003961253669696e-04  2.1002620682613520e-04  2.1140816278286825e-04  2.1411247299039175e-04  2.1805462151880322e-04  2.2310339892819668e-04  2.2910303346719343e-04  2.3587784214027939e-04  2.4324063358639777e-04  2.5099770981000985e-04  2.5895233082256537e-04  2.6690656224651396e-04  2.7466235519988216e-04  2.8202264835929804e-04  2.8879330599687267e-04  2.9478666318129569e-04  2.9982682934791088e-04  3.0375770673353707e-04  3.0644955040389827e-04  3.0781499851174936e-04  3.0779426906577998e-04  2.1200862450385899e-04  2.1199367405587240e-04  2.1330608436567647e-04  2.1588187760436550e-04  2.1964395296497901e-04  2.2447212950862485e-04  2.3022138448857866e-04  2.3672574604975189e-04  2.4380571813649497e-04  2.5127320666734122e-04  2.5893538712254259e-04  2.6659734511901424e-04  2.7406411569624341e-04  2.8114273303093246e-04  2.8764491344387201e-04  2.9339096022859860e-04  2.9821482992563845e-04  3.0197136408985348e-04  3.0454109148250524e-04  3.0584552644505011e-04  3.0582704132465453e-04  2.1265833884996830e-04  2.1264173799614961e-04  2.1392891133644384e-04  2.1646080985789174e-04  2.2016218620788831e-04  2.2491657559013819e-04  2.3058234843239894e-04  2.3699666577419766e-04  2.4398252102620120e-04  2.5135367427413897e-04  2.5891864730316806e-04  2.6648362033224703e-04  2.7385477358033154e-04  2.8084062883256369e-04  2.8725494617464983e-04  2.9292071901722934e-04  2.9767510839979311e-04  3.0137648475006486e-04  3.0390838327171659e-04  3.0519555661211851e-04  3.0517895575831046e-04  2.1201025328362243e-04  2.1199176816321581e-04  2.1329620312565058e-04  2.1586593051809227e-04  2.1962246468202459e-04  2.2444633437874111e-04  2.3019238116314103e-04  2.3669456157578552e-04  2.4377317891024011e-04  2.5123994948732053e-04  2.5890190748374252e-04  2.6656408793899810e-04  2.7403157646999809e-04  2.8111154855697958e-04  2.8761591011845403e-04  2.9336516509874091e-04  2.9819334164271692e-04  3.0195541700361942e-04  3.0453121024252389e-04  3.0584362055244188e-04  3.0582867010446726e-04  2.1004302554253934e-04  2.1002229609655963e-04  2.1138774420428847e-04  2.1407958787441668e-04  2.1801046525972848e-04  2.2305063142598591e-04  2.2904398861004873e-04  2.3581464624729888e-04  2.4317493940645968e-04  2.5093073235966652e-04  2.5888496378356215e-04  2.6683958479617893e-04  2.7459666101996164e-04  2.8195945246634562e-04  2.8873426113976743e-04  2.9473389567913756e-04  2.9978267308890250e-04  3.0372482161764112e-04  3.0642913182540990e-04  3.0781108778227354e-04  3.0779768207172441e-04  2.0669091023826729e-04  2.0666742670688993e-04  2.0814223115273798e-04  2.1104902330281645e-04  2.1528419203300435e-04  2.2069861776831829e-04  2.2711633829802691e-04  2.3434409098617995e-04  2.4218076798008509e-04  2.5042295646591085e-04  2.5886767026329552e-04  2.6731281855574257e-04  2.7555651564547314e-04  2.8339635142658704e-04  2.9062972083297999e-04  2.9705643209875605e-04  3.0248372186722814e-04  3.0673627277374857e-04  3.0966265164082560e-04  3.1116372479549612e-04  3.1115191975358353e-04  2.0183867929795938e-04  2.0181175372530619e-04  2.0345322546576940e-04  2.0668411079508895e-04  2.1137365295263030e-04  2.1734061012192326e-04  2.2437739302586849e-04  2.3226433578524492e-04  2.4078124222296860e-04  2.4971286895089981e-04  2.5885001112987022e-04  2.6798742363477078e-04  2.7692017639804119e-04  2.8544000015195362e-04  2.9333306065483283e-04  3.0038082074804976e-04  3.0636466819461433e-04  3.1107825117462787e-04  3.1433705868528697e-04  3.1601674798806598e-04  3.1600684506099766e-04  1.9531196941603777e-04  1.9528057651983766e-04  1.9716159055500209e-04  2.0085349380324888e-04  2.0618083268945835e-04  2.1291099061194381e-04  2.2078831579992281e-04  2.2955560883004643e-04  2.3896812909000165e-04  2.4879801848024142e-04  2.5883220176481923e-04  2.6886613765210980e-04  2.7869576260701413e-04  2.8810950652910099e-04  2.9688177057684927e-04  3.0477053521717114e-04  3.1152082323771300e-04  3.1687956227331780e-04  3.2060968940782767e-04  3.2254455462616517e-04  3.2253723475515571e-04  1.8686023860812215e-04  1.8682278546160909e-04  1.8904296221376553e-04  1.9337898168203963e-04  1.9958098297419538e-04  2.0733428866240492e-04  2.1631158717379657e-04  2.2620471960119881e-04  2.3674028768285501e-04  2.4768043495288107e-04  2.5881478673384209e-04  2.6994786386163450e-04  2.8088498875421193e-04  2.9141781228594774e-04  3.0131146778333482e-04  3.1029756536300415e-04  3.1807286511911233e-04  3.2431453593530864e-04  3.2870186285097902e-04  3.3099739376872528e-04  3.3099422435085510e-04  1.7612554327814563e-04  1.7608276635945491e-04  1.7878716238811938e-04  1.8402845699728770e-04  1.9142762980905689e-04  2.0053736778932963e-04  2.1092527021683964e-04  2.2221767766343099e-04  2.3411268063407392e-04  2.4637126807098658e-04  2.5879878099459498e-04  2.7122349893875833e-04  2.8347435332423172e-04  2.9535848496081566e-04  3.0664245762211380e-04  3.1703319976959983e-04  3.2616253199592703e-04  3.3360709669392200e-04  3.3891685708758448e-04  3.4173087639569093e-04  3.4173520745679357e-04  1.6260996015303014e-04  1.6254558216550571e-04  1.6596467223587791e-04  1.7250978987327307e-04  1.8156640700282039e-04  1.9247328305566403e-04  2.0464718193654143e-04  2.1763898609407115e-04  2.3112912440094433e-04  2.4489703849278019e-04  2.5878592001988453e-04  2.7266979888997394e-04  2.8642224255735326e-04  2.9988998288601131e-04  3.1286030302944294e-04  3.2501533217974389e-04  3.3592181540083863e-04  3.4503393628419044e-04  3.5167791948845407e-04  3.5525773710702455e-04  3.5527154224201056e-04  1.4550588335950139e-04  1.4543296410977419e-04  1.4998375231431167e-04  1.5846763593905871e-04  1.6987101309977724e-04  1.8316678895584075e-04  1.9757372353918447e-04  2.1257891941339264e-04  2.2787841454090691e-04  2.4330693555904648e-04  2.5877845894923499e-04  2.7424168648057323e-04  2.8964572588422848e-04  3.0490990851916953e-04  3.1985876226157641e-04  3.3420473931159719e-04  3.4750327261239586e-04  3.5896583764996560e-04  3.6754845162701962e-04  3.7231675321645322e-04  3.7237879775283355e-04  1.2346497084565213e-04  1.2367827423948068e-04  1.2994564608888375e-04  1.4152317542898496e-04  1.5633205769399243e-04  1.7279540566328999e-04  1.8993897807823332e-04  2.0724748691277700e-04  2.2451167948266083e-04  2.4167980867326869e-04  2.5877906484815608e-04  2.7586680443421839e-04  2.9300397395369841e-04  3.1020874349216445e-04  3.2741571867703098e-04  3.4450695833155258e-04  3.6086148856977982e-04  3.7548382550252758e-04  3.8724389246166415e-04  3.9422058440310157e-04  3.9432347594433643e-04  9.6698608305640168e-05  9.4484137550985113e-05  1.0467550268374552e-04  1.2146190269144161e-04  1.4121670584959250e-04  1.6184039696134426e-04  1.8218483896967501e-04  2.0198550261640895e-04  2.2125270001903356e-04  2.4012584437657132e-04  2.5878933706856955e-04  2.7744013925972707e-04  2.9627733520668474e-04  3.1545585706071642e-04  3.3516898245288662e-04  3.5534970870339971e-04  3.7536453566104215e-04  3.9546846575068807e-04  4.1276965173856671e-04  4.2281154196322353e-04  4.2271643620930247e-04  4.6927168078821660e-05  5.5121205753182913e-05  7.3364644839052324e-05  9.8160925203304535e-05  1.2569052540198328e-04  1.5123638958916463e-04  1.7502679402447058e-04  1.9727617445786742e-04  2.1839499964171206e-04  2.3878449560739954e-04  2.5881311250303205e-04  2.7883037471649154e-04  2.9918198895094320e-04  3.2021474490322562e-04  3.4240401641635036e-04  3.6566829230798195e-04  3.9128016868604976e-04  4.1875676936978658e-04  4.4020771093030347e-04  4.6032325491639691e-04  4.6451090899222698e-04  2.7840447982037398e-06  8.2135063309900571e-06  2.6997234830133741e-05  7.6622125425994432e-05  1.1174254505683996e-04  1.4252882563528936e-04  1.6941905549280431e-04  1.9368499571818741e-04  2.1625725272276410e-04  2.3779577792020973e-04  2.5884315888115831e-04  2.7988195296484668e-04  3.0138963205258187e-04  3.2390537240144555e-04  3.4808681812628661e-04  3.7446804738780292e-04  4.0621693582495262e-04  4.3640951593148201e-04  4.7806415404543233e-04  5.3509265780518405e-04  5.2466642557801968e-04  4.1197194511270513e-05  -1.9864322246979839e-04  1.4884045561654101e-05  5.8952988126488524e-05  1.0325191894925120e-04  1.3771395910928218e-04  1.6632459390629635e-04  1.9176963369771266e-04  2.1513804807308861e-04  2.3729616635613759e-04  2.5889085186423482e-04  2.8048259162192471e-04  3.0263217695562875e-04  3.2598937047898766e-04  3.5135236706578584e-04  3.8007437707659775e-04  4.1455946605543941e-04  4.5214915776353054e-04  5.4197054237014588e-04  5.6440911935256655e-04  6.1307293388847479e-04  -3.0837749761753598e-03  1.4528845408413120e-04  -1.2711292742520486e-05  5.3643486960307921e-05  1.0544521559033952e-04  1.3740546280388403e-04  1.6640598664501770e-04  1.9182056973823347e-04  2.1516988397656081e-04  2.3732435529206760e-04  2.5891497199547457e-04  2.8050592176155783e-04  3.0265988393616861e-04  3.2601931572217419e-04  3.5142511994544067e-04  3.8028883799999828e-04  4.1372764593497425e-04  4.5855524248943167e-04  5.3331515287116389e-04  5.1662377136203416e-04  1.5705471870148726e-03  </DataArray> 
</PointData> 
</Piece>
</UnstructuredGrid>
</VTKFile>