<?xml version="1.0"?>
<VTKFile type="UnstructuredGrid"  version="0.1"  >
<UnstructuredGrid>
<Piece  NumberOfPoints="651" NumberOfCells="1200">
<Points>
<DataArray  type="Float64"  NumberOfComponents="3"  format="ascii">0 0 0  50000 0 0  100000 0 0  150000 0 0  200000 0 0  250000 0 0  300000 0 0  350000 0 0  400000 0 0  450000 0 0  500000 0 0  550000 0 0  600000 0 0  650000 0 0  700000 0 0  750000 0 0  800000 0 0  850000 0 0  900000 0 0  950000 0 0  1000000 0 0  0 50000 0  50000 50000 0  100000 50000 0  150000 50000 0  200000 50000 0  250000 50000 0  300000 50000 0  350000 50000 0  400000 50000 0  450000 50000 0  500000 50000 0  550000 50000 0  600000 50000 0  650000 50000 0  700000 50000 0  750000 50000 0  800000 50000 0  850000 50000 0  900000 50000 0  950000 50000 0  1000000 50000 0  0 100000 0  50000 100000 0  100000 100000 0  150000 100000 0  200000 100000 0  250000 100000 0  300000 100000 0  350000 100000 0  400000 100000 0  450000 100000 0  500000 100000 0  550000 100000 0  600000 100000 0  650000 100000 0  700000 100000 0  750000 100000 0  800000 100000 0  850000 100000 0  900000 100000 0  950000 100000 0  1000000 100000 0  0 150000 0  50000 150000 0  100000 150000 0  150000 150000 0  200000 150000 0  250000 150000 0  300000 150000 0  350000 150000 0  400000 150000 0  450000 150000 0  500000 150000 0  550000 150000 0  600000 150000 0  650000 150000 0  700000 150000 0  750000 150000 0  800000 150000 0  850000 150000 0  900000 150000 0  950000 150000 0  1000000 150000 0  0 200000 0  50000 200000 0  100000 200000 0  150000 200000 0  200000 200000 0  250000 200000 0  300000 200000 0  350000 200000 0  400000 200000 0  450000 200000 0  500000 200000 0  550000 200000 0  600000 200000 0  650000 200000 0  700000 200000 0  750000 200000 0  800000 200000 0  850000 200000 0  900000 200000 0  950000 200000 0  1000000 200000 0  0 250000 0  50000 250000 0  100000 250000 0  150000 250000 0  200000 250000 0  250000 250000 0  300000 250000 0  350000 250000 0  400000 250000 0  450000 250000 0  500000 250000 0  550000 250000 0  600000 250000 0  650000 250000 0  700000 250000 0  750000 250000 0  800000 250000 0  850000 250000 0  900000 250000 0  950000 250000 0  1000000 250000 0  0 300000 0  50000 300000 0  100000 300000 0  150000 300000 0  200000 300000 0  250000 300000 0  300000 300000 0  350000 300000 0  400000 300000 0  450000 300000 0  500000 300000 0  550000 300000 0  600000 300000 0  650000 300000 0  700000 300000 0  750000 300000 0  800000 300000 0  850000 300000 0  900000 300000 0  950000 300000 0  1000000 300000 0  0 350000 0  50000 350000 0  100000 350000 0  150000 350000 0  200000 350000 0  250000 350000 0  300000 350000 0  350000 350000 0  400000 350000 0  450000 350000 0  500000 350000 0  550000 350000 0  600000 350000 0  650000 350000 0  700000 350000 0  750000 350000 0  800000 350000 0  850000 350000 0  900000 350000 0  950000 350000 0  1000000 350000 0  0 400000 0  50000 400000 0  100000 400000 0  150000 400000 0  200000 400000 0  250000 400000 0  300000 400000 0  350000 400000 0  400000 400000 0  450000 400000 0  500000 400000 0  550000 400000 0  600000 400000 0  650000 400000 0  700000 400000 0  750000 400000 0  800000 400000 0  850000 400000 0  900000 400000 0  950000 400000 0  1000000 400000 0  0 450000 0  50000 450000 0  100000 450000 0  150000 450000 0  200000 450000 0  250000 450000 0  300000 450000 0  350000 450000 0  400000 450000 0  450000 450000 0  500000 450000 0  550000 450000 0  600000 450000 0  650000 450000 0  700000 450000 0  750000 450000 0  800000 450000 0  850000 450000 0  900000 450000 0  950000 450000 0  1000000 450000 0  0 500000 0  50000 500000 0  100000 500000 0  150000 500000 0  200000 500000 0  250000 500000 0  300000 500000 0  350000 500000 0  400000 500000 0  450000 500000 0  500000 500000 0  550000 500000 0  600000 500000 0  650000 500000 0  700000 500000 0  750000 500000 0  800000 500000 0  850000 500000 0  900000 500000 0  950000 500000 0  1000000 500000 0  0 550000 0  50000 550000 0  100000 550000 0  150000 550000 0  200000 550000 0  250000 550000 0  300000 550000 0  350000 550000 0  400000 550000 0  450000 550000 0  500000 550000 0  550000 550000 0  600000 550000 0  650000 550000 0  700000 550000 0  750000 550000 0  800000 550000 0  850000 550000 0  900000 550000 0  950000 550000 0  1000000 550000 0  0 600000 0  50000 600000 0  100000 600000 0  150000 600000 0  200000 600000 0  250000 600000 0  300000 600000 0  350000 600000 0  400000 600000 0  450000 600000 0  500000 600000 0  550000 600000 0  600000 600000 0  650000 600000 0  700000 600000 0  750000 600000 0  800000 600000 0  850000 600000 0  900000 600000 0  950000 600000 0  1000000 600000 0  0 650000 0  50000 650000 0  100000 650000 0  150000 650000 0  200000 650000 0  250000 650000 0  300000 650000 0  350000 650000 0  400000 650000 0  450000 650000 0  500000 650000 0  550000 650000 0  600000 650000 0  650000 650000 0  700000 650000 0  750000 650000 0  800000 650000 0  850000 650000 0  900000 650000 0  950000 650000 0  1000000 650000 0  0 700000 0  50000 700000 0  100000 700000 0  150000 700000 0  200000 700000 0  250000 700000 0  300000 700000 0  350000 700000 0  400000 700000 0  450000 700000 0  500000 700000 0  550000 700000 0  600000 700000 0  650000 700000 0  700000 700000 0  750000 700000 0  800000 700000 0  850000 700000 0  900000 700000 0  950000 700000 0  1000000 700000 0  0 750000 0  50000 750000 0  100000 750000 0  150000 750000 0  200000 750000 0  250000 750000 0  300000 750000 0  350000 750000 0  400000 750000 0  450000 750000 0  500000 750000 0  550000 750000 0  600000 750000 0  650000 750000 0  700000 750000 0  750000 750000 0  800000 750000 0  850000 750000 0  900000 750000 0  950000 750000 0  1000000 750000 0  0 800000 0  50000 800000 0  100000 800000 0  150000 800000 0  200000 800000 0  250000 800000 0  300000 800000 0  350000 800000 0  400000 800000 0  450000 800000 0  500000 800000 0  550000 800000 0  600000 800000 0  650000 800000 0  700000 800000 0  750000 800000 0  800000 800000 0  850000 800000 0  900000 800000 0  950000 800000 0  1000000 800000 0  0 850000 0  50000 850000 0  100000 850000 0  150000 850000 0  200000 850000 0  250000 850000 0  300000 850000 0  350000 850000 0  400000 850000 0  450000 850000 0  500000 850000 0  550000 850000 0  600000 850000 0  650000 850000 0  700000 850000 0  750000 850000 0  800000 850000 0  850000 850000 0  900000 850000 0  950000 850000 0  1000000 850000 0  0 900000 0  50000 900000 0  100000 900000 0  150000 900000 0  200000 900000 0  250000 900000 0  300000 900000 0  350000 900000 0  400000 900000 0  450000 900000 0  500000 900000 0  550000 900000 0  600000 900000 0  650000 900000 0  700000 900000 0  750000 900000 0  800000 900000 0  850000 900000 0  900000 900000 0  950000 900000 0  1000000 900000 0  0 950000 0  50000 950000 0  100000 950000 0  150000 950000 0  200000 950000 0  250000 950000 0  300000 950000 0  350000 950000 0  400000 950000 0  450000 950000 0  500000 950000 0  550000 950000 0  600000 950000 0  650000 950000 0  700000 950000 0  750000 950000 0  800000 950000 0  850000 950000 0  900000 950000 0  950000 950000 0  1000000 950000 0  0 1000000 0  50000 1000000 0  100000 1000000 0  150000 1000000 0  200000 1000000 0  250000 1000000 0  300000 1000000 0  350000 1000000 0  400000 1000000 0  450000 1000000 0  500000 1000000 0  550000 1000000 0  600000 1000000 0  650000 1000000 0  700000 1000000 0  750000 1000000 0  800000 1000000 0  850000 1000000 0  900000 1000000 0  950000 1000000 0  1000000 1000000 0  0 1050000 0  50000 1050000 0  100000 1050000 0  150000 1050000 0  200000 1050000 0  250000 1050000 0  300000 1050000 0  350000 1050000 0  400000 1050000 0  450000 1050000 0  500000 1050000 0  550000 1050000 0  600000 1050000 0  650000 1050000 0  700000 1050000 0  750000 1050000 0  800000 1050000 0  850000 1050000 0  900000 1050000 0  950000 1050000 0  1000000 1050000 0  0 1100000 0  50000 1100000 0  100000 1100000 0  150000 1100000 0  200000 1100000 0  250000 1100000 0  300000 1100000 0  350000 1100000 0  400000 1100000 0  450000 1100000 0  500000 1100000 0  550000 1100000 0  600000 1100000 0  650000 1100000 0  700000 1100000 0  750000 1100000 0  800000 1100000 0  850000 1100000 0  900000 1100000 0  950000 1100000 0  1000000 1100000 0  0 1150000 0  50000 1150000 0  100000 1150000 0  150000 1150000 0  200000 1150000 0  250000 1150000 0  300000 1150000 0  350000 1150000 0  400000 1150000 0  450000 1150000 0  500000 1150000 0  550000 1150000 0  600000 1150000 0  650000 1150000 0  700000 1150000 0  750000 1150000 0  800000 1150000 0  850000 1150000 0  900000 1150000 0  950000 1150000 0  1000000 1150000 0  0 1200000 0  50000 1200000 0  100000 1200000 0  150000 1200000 0  200000 1200000 0  250000 1200000 0  300000 1200000 0  350000 1200000 0  400000 1200000 0  450000 1200000 0  500000 1200000 0  550000 1200000 0  600000 1200000 0  650000 1200000 0  700000 1200000 0  750000 1200000 0  800000 1200000 0  850000 1200000 0  900000 1200000 0  950000 1200000 0  1000000 1200000 0  0 1250000 0  50000 1250000 0  100000 1250000 0  150000 1250000 0  200000 1250000 0  250000 1250000 0  300000 1250000 0  350000 1250000 0  400000 1250000 0  450000 1250000 0  500000 1250000 0  550000 1250000 0  600000 1250000 0  650000 1250000 0  700000 1250000 0  750000 1250000 0  800000 1250000 0  850000 1250000 0  900000 1250000 0  950000 1250000 0  1000000 1250000 0  0 1300000 0  50000 1300000 0  100000 1300000 0  150000 1300000 0  200000 1300000 0  250000 1300000 0  300000 1300000 0  350000 1300000 0  400000 1300000 0  450000 1300000 0  500000 1300000 0  550000 1300000 0  600000 1300000 0  650000 1300000 0  700000 1300000 0  750000 1300000 0  800000 1300000 0  850000 1300000 0  900000 1300000 0  950000 1300000 0  1000000 1300000 0  0 1350000 0  50000 1350000 0  100000 1350000 0  150000 1350000 0  200000 1350000 0  250000 1350000 0  300000 1350000 0  350000 1350000 0  400000 1350000 0  450000 1350000 0  500000 1350000 0  550000 1350000 0  600000 1350000 0  650000 1350000 0  700000 135
[...]
<PointData  Scalars="f_25027"> 
<DataArray  type="Float64"  Name="f_25027"  format="ascii">-1.1433131788305200e-03  -1.7395079797310038e-05  -3.9913862065830100e-05  3.8271045067394376e-05  8.4418287112380952e-05  1.1877829002053846e-04  1.4845751528483640e-04  1.7455441139203916e-04  1.9854357296357497e-04  2.2128994557377255e-04  2.4345592798309207e-04  2.6562140414288676e-04  2.8836814126535787e-04  3.1234544812503692e-04  3.3844910148708485e-04  3.6828570896033536e-04  4.0099719353155883e-04  4.5473956527496151e-04  5.2383905412848144e-04  3.4820417701613750e-04  3.8098465355646868e-03  -1.2233854019534491e-04  -7.1865599408486093e-05  -4.9827189617178698e-05  4.4786774927288653e-05  8.3284683856210250e-05  1.1889759759493356e-04  1.4845941037530609e-04  1.7453939781956104e-04  1.9854530636767302e-04  2.2130126495179884e-04  2.4348060848004681e-04  2.6566292431866068e-04  2.8842756406750625e-04  3.1244348798640072e-04  3.3861133292820410e-04  3.6805081498932074e-04  4.0358730904759840e-04  4.4947187756184742e-04  4.9441154882055589e-04  7.2139075691285794e-04  4.6378533709897870e-04  -3.0286537936958197e-05  -4.2376577517152484e-05  1.7589971379921914e-05  6.0767979052267246e-05  9.1744901820863138e-05  1.2461564727195542e-04  1.5176170313777591e-04  1.7664950008622582e-04  1.9980209754636222e-04  2.2190898195411960e-04  2.4352991784056278e-04  2.6515960261909558e-04  2.8729831469513905e-04  3.1050941091976191e-04  3.3547882228424146e-04  3.6317968039798143e-04  3.9495591310789122e-04  4.3121907893922727e-04  4.8301953399628166e-04  5.0170265929101190e-04  5.0631847075409940e-04  3.2039765956153649e-05  3.6127827628871694e-05  5.6820864940927652e-05  7.8759784024010532e-05  1.0721074509426050e-04  1.3364250244168025e-04  1.5758372394283202e-04  1.8042934676247791e-04  2.0206007472905498e-04  2.2298462512498267e-04  2.4356123569667051e-04  2.6414955387011056e-04  2.8511290346767466e-04  3.0683474378214224e-04  3.2973411551722435e-04  3.5424284242324146e-04  3.8058616925659082e-04  4.0903880179926535e-04  4.3458696413592283e-04  4.5332665946655872e-04  4.6188839512153004e-04  7.5249787037606715e-05  7.4895850668358366e-05  8.5086960689097885e-05  1.0292477934024562e-04  1.2366121760312704e-04  1.4425060216285336e-04  1.6503217084011713e-04  1.8531916056918293e-04  2.0504273069202290e-04  2.2441191286096991e-04  2.4358574803071909e-04  2.6277287553559556e-04  2.8217861821255424e-04  3.0199583364285239e-04  3.2237143261042199e-04  3.4331854595626333e-04  3.6456716143202958e-04  3.8491536167050344e-04  4.0218182624608689e-04  4.1257110254528588e-04  4.0990001887673962e-04  1.0447823014761583e-04  1.0443840851401030e-04  1.1153120496173477e-04  1.2358996216173411e-04  1.3860828445511782e-04  1.5543517981686332e-04  1.7302333062794276e-04  1.9071940463483229e-04  2.0841127399784569e-04  2.2603036762019086e-04  2.4359649846225268e-04  2.6117474090181069e-04  2.7882566833887753e-04  2.9657898967841477e-04  3.1438255456107500e-04  3.3202077521854944e-04  3.4895855823632654e-04  3.6418285551056392e-04  3.7605009933201728e-04  3.8238580833794530e-04  3.8248541449221340e-04  1.2707417647888510e-04  1.2703395266639537e-04  1.3185555890493885e-04  1.4063249057983605e-04  1.5239916559401235e-04  1.6606644606277857e-04  1.8081173223254973e-04  1.9617898897651774e-04  2.1187039846689315e-04  2.2770367855572224e-04  2.4359721714066208e-04  2.5949937736714817e-04  2.7535817697124730e-04  2.9108571208904095e-04  3.0651173766354275e-04  3.2132173053200892e-04  3.3498369870971738e-04  3.4668580705937333e-04  3.5536077827193413e-04  3.5996078733550554e-04  3.5977734725231841e-04  1.4467441980448533e-04  1.4460902549770773e-04  1.4822382080656376e-04  1.5500974778391325e-04  1.6434854157055390e-04  1.7554237604764999e-04  1.8802712114369922e-04  2.0135357200250624e-04  2.1519193111325008e-04  2.2932316555721412e-04  2.4358959192603767e-04  2.5786115111154799e-04  2.7200847759879717e-04  2.8587012282139815e-04  2.9921839274891626e-04  3.1172266144940155e-04  3.2291756946078038e-04  3.3219836371995841e-04  3.3888060287257522e-04  3.4232844507060454e-04  3.4218163460379746e-04  1.5859524950236626e-04  1.5853701388650652e-04  1.6137446855499677e-04  1.6678981354899982e-04  1.7441082501204333e-04  1.8377301733003048e-04  1.9443799885203428e-04  2.0602457809150204e-04  2.1823011602756045e-04  2.3081369653258122e-04  2.4357634542870153e-04  2.5634187955067046e-04  2.6893342858474062e-04  2.8115026764224428e-04  2.9274561676361161e-04  3.0340735303232029e-04  3.1274888445643144e-04  3.2032282505492358e-04  3.2566715915873841e-04  3.2839111944100167e-04  3.2828421644021680e-04  1.6963780210543057e-04  1.6958294180683891e-04  1.7189493355269459e-04  1.7636518973979703e-04  1.8274920921750569e-04  1.9071633345040906e-04  1.9993310480678051e-04  2.1008637499743312e-04  2.2089896845349494e-04  2.3212840869352944e-04  2.4355983858495952e-04  2.5499259513512727e-04  2.6622515176482481e-04  2.7704052964754510e-04  2.8719322594522112e-04  2.9640086343866182e-04  3.0434508429707629e-04  3.1068784100338979e-04  3.1510485983468790e-04  3.1733900074308748e-04  3.1724855456013133e-04  1.7832988937253481e-04  1.7827859090974529e-04  1.8022560627447317e-04  1.8402316250496384e-04  1.8949990649633048e-04  1.9641195973602943e-04  2.0449836963650842e-04  2.1349604167921084e-04  2.2315523178335927e-04  2.3324323389730626e-04  2.4354188484900565e-04  2.5384078729751393e-04  2.6392905538302601e-04  2.7358695492048777e-04  2.8257942303122320e-04  2.9065391857078848e-04  2.9754507312736682e-04  3.0298926570961900e-04  3.0674721679903099e-04  3.0863859605009651e-04  3.0856236786932465e-04  1.8504041269290847e-04  1.8499199687794395e-04  1.8668096102882840e-04  1.8999647095864833e-04  1.9481084090864980e-04  2.0093452251054359e-04  2.0815498505321638e-04  2.1624691076071282e-04  2.2498499690729303e-04  2.3414877471455186e-04  2.4352352543432145e-04  2.5289799118216578e-04  2.6206058984036188e-04  2.7079563684760400e-04  2.7888120268741240e-04  2.8609026085599047e-04  2.9219641483506641e-04  2.9698587770238927e-04  3.0027248638699630e-04  3.0192199413040226e-04  3.0185595268362802e-04  1.9002843395051803e-04  1.8998192786248344e-04  1.9149035576200056e-04  1.9446606615065832e-04  1.9880734229628329e-04  2.0435879032414209e-04  2.1094003071766499e-04  2.1835256084918133e-04  2.2639012018315431e-04  2.3484391112285684e-04  2.4350532360036700e-04  2.5216628368813598e-04  2.6061850402135748e-04  2.6865277723570985e-04  2.7605947288502161e-04  2.8263138454019551e-04  2.8816949814018412e-04  2.9249277745109801e-04  2.9544822499772365e-04  2.9692954161998159e-04  2.9687094637412308e-04  1.9347421642341886e-04  1.9342862198747532e-04  1.9481667608496720e-04  1.9756546874331453e-04  2.0158833092533420e-04  2.0675073259410497e-04  2.1289251893290693e-04  2.1983288614325637e-04  2.2737906292093809e-04  2.3533150624676125e-04  2.4348750370109079e-04  2.5164309591874784e-04  2.5959420525154605e-04  2.6713778664537116e-04  2.7407384515323332e-04  2.8020912121118791e-04  2.8536260115499611e-04  2.8937379911757251e-04  2.9210970013391697e-04  2.9348072052515705e-04  2.9342754645010275e-04  1.9549682930480113e-04  1.9545110412551195e-04  1.9676886263100059e-04  1.9938634871973575e-04  2.0322452282100489e-04  2.0816022422323030e-04  2.1404441387405391e-04  2.2070634690434085e-04  2.2796123306813862e-04  2.3561534765381565e-04  2.4347004792780018e-04  2.5132451691396105e-04  2.5897788546681768e-04  2.6623136486245754e-04  2.7289103493951356e-04  2.7877189857844253e-04  2.8370313907855955e-04  2.8753558003196051e-04  2.9014679482710428e-04  2.9145632503495446e-04  2.9140694198302714e-04  1.9616425573640251e-04  1.9611730054969163e-04  1.9740949808382070e-04  1.9998211746176674e-04  2.0375802719403038e-04  2.0861789719487579e-04  2.1441619732295270e-04  2.2098542756094676e-04  2.2814337911067654e-04  2.3569825240649854e-04  2.4345280408073015e-04  2.5120735575501945e-04  2.5876222905101107e-04  2.6592018060100496e-04  2.7248941083933098e-04  2.7828771096777538e-04  2.8314758096898232e-04  2.8692349070156197e-04  2.8949611007974115e-04  2.9078830761399173e-04  2.9074135242729174e-04  1.9549866618066828e-04  1.9544928312872982e-04  1.9675881333645556e-04  1.9937002813135891e-04  2.0320246908443472e-04  2.0813370958417884e-04  2.1401457322273060e-04  2.2067424329944542e-04  2.2792772269481393e-04  2.3558109124749812e-04  2.4343556023360112e-04  2.5129026050764783e-04  2.5894437509350204e-04  2.6619926125757482e-04  2.7286119428820917e-04  2.7874538393941639e-04  2.8368108534202152e-04  2.8751925944362210e-04  2.9013674553260324e-04  2.9145450403822025e-04  2.9140877885894316e-04  1.9347806171364417e-04  1.9342488763857940e-04  1.9479590802968141e-04  1.9753180904575907e-04  2.0154300700797362e-04  2.0669648695136880e-04  2.1283176300890689e-04  2.1976782151639343e-04  2.2731140290992266e-04  2.3526251224253335e-04  2.4341810446012818e-04  2.5157410191452756e-04  2.5952654524054710e-04  2.6707272201853462e-04  2.7401308922927098e-04  2.8015487556850254e-04  2.8531727723770007e-04  2.8934013942009452e-04  2.9208893207872141e-04  2.9347698617636001e-04  2.9343139174042919e-04  1.9003466178973828e-04  1.8997606654386708e-04  1.9145738316596144e-04  1.9441283071226854e-04  1.9873611002275309e-04  2.0427422362225364e-04  2.1084613527693930e-04  2.1825283092581424e-04  2.2628710413982492e-04  2.3473932447283080e-04  2.4340028456052961e-04  2.5206169703812138e-04  2.6051548797805164e-04  2.6855304731238029e-04  2.7596557744435067e-04  2.8254681783838155e-04  2.8809826586675009e-04  2.9243954201282760e-04  2.9541525240182301e-04  2.9692368030151861e-04  2.9687717421349955e-04  1.8504965548042182e-04  1.8498361403363348e-04  1.8663312177683388e-04  1.8991973046103956e-04  1.9470919332782353e-04  2.0081534730629372e-04  2.0802440547427280e-04  2.1610997131355116e-04  2.2484501832038315e-04  2.3400761697832249e-04  2.4338208272608336e-04  2.5275683344594987e-04  2.6192061125348041e-04  2.7065869740048882e-04  2.7875062310853745e-04  2.8597108565183696e-04  2.9209476725436899e-04  2.9690913720494276e-04  3.0022464713519491e-04  3.0191361128630869e-04  3.0186519547136296e-04  1.7834324029501619e-04  1.7826701211422758e-04  1.8015839136502199e-04  1.8391634245390332e-04  1.8936053503545096e-04  1.9625168959124900e-04  2.0432618513005572e-04  2.1331865324013177e-04  2.2297655277709043e-04  2.3306482086229023e-04  2.4336372331069695e-04  2.5366237426251186e-04  2.6375037637678704e-04  2.7340956648145984e-04  2.8240723852484921e-04  2.9049364842612325e-04  2.9740570166664632e-04  3.0288244565876703e-04  3.0668000188983555e-04  3.0862701725487137e-04  3.0857571879210635e-04  1.6965705360464034e-04  1.6956660742166525e-04  1.7180074832969178e-04  1.7621776716026213e-04  1.8256052386562207e-04  1.9050474472300506e-04  1.9971238221546788e-04  2.0986507851231476e-04  2.2068045639441543e-04  2.3191301302373391e-04  2.4334576957377735e-04  2.5477719946534374e-04  2.6600663970577322e-04  2.7681923316247677e-04  2.8697250335398840e-04  2.9618927471138150e-04  3.0415639894537709e-04  3.1054041842411230e-04  3.1501067461201562e-04  3.1732266635830164e-04  3.1726780605974259e-04  1.5862139172519128e-04  1.5851448872437887e-04  1.6123844900611060e-04  1.6658278310888939e-04  1.7415672370605585e-04  1.8349825512878110e-04  1.9415999139622294e-04  2.0575534051655434e-04  2.1797217957330515e-04  2.3056372860692304e-04  2.4332926272874390e-04  2.5609191162502109e-04  2.6867549213050585e-04  2.8088103006733417e-04  2.9246760930787112e-04  3.0313259083119843e-04  3.1249478315064846e-04  3.2011579461511567e-04  3.2553113961026920e-04  3.2836859427939137e-04  3.2831035866357703e-04  1.4472397356251468e-04  1.4457716309569652e-04  1.4802500529293932e-04  1.5470724444402169e-04  1.6398803870131348e-04  1.7518294671081561e-04  1.8768721540967607e-04  2.0103548533593072e-04  2.1489713055765049e-04  2.2904445704438492e-04  2.4331601622972702e-04  2.5758244259872109e-04  2.7171367704320316e-04  2.8555203615484269e-04  2.9887848701494468e-04  3.1136323211265027e-04  3.2255706659169723e-04  3.3189586038039553e-04  3.3868178735949061e-04  3.4229658266930106e-04  3.4223118836257242e-04  1.2712826091534096e-04  1.2694482083220202e-04  1.3154482989448369e-04  1.4021980110469654e-04  1.5192190945160976e-04  1.6558387762678973e-04  1.8039387049323662e-04  1.9581989606627811e-04  2.1154743118311203e-04  2.2740623078667201e-04  2.4330839101298270e-04  2.5920192959808999e-04  2.7503520968745379e-04  2.9072661917879704e-04  3.0609387592420926e-04  3.2083916209604244e-04  3.3450644256755008e-04  3.4627311758468176e-04  3.5505004926213391e-04  3.5987165550219820e-04  3.5983143168985635e-04  1.0442019367800546e-04  1.0451979983160810e-04  1.1085550883563736e-04  1.2272275265326520e-04  1.3794704992344119e-04  1.5488483293792728e-04  1.7252305359306139e-04  1.9032661847420763e-04  2.0807993981283277e-04  2.2573086724941689e-04  2.4330910968881937e-04  2.6087524053101740e-04  2.7849433415383558e-04  2.9618620351772978e-04  3.1388227752611881e-04  3.3147042833968295e-04  3.4829732370451194e-04  3.6331564600168754e-04  3.7537440320642467e-04  3.8246719965738150e-04  3.8242737802382726e-04  7.7005589293043479e-05  7.4334505627859484e-05  8.4723781923139432e-05  1.0199024649181840e-04  1.2233844672456936e-04  1.4358706219636932e-04  1.6453417553993535e-04  1.8490977450626923e-04  2.0472698993593674e-04  2.2413273261260132e-04  2.4331986011738368e-04  2.6249369528719754e-04  2.8186287745641375e-04  3.0158644757982727e-04  3.2187343731021790e-04  3.4265500598952130e-04  3.6324439055274149e-04  3.8398082882363474e-04  4.0181864748275900e-04  4.1200975750666462e-04  4.1165582113671779e-04  2.5017213064510419e-05  3.3578948714020934e-05  5.2318644032245925e-05  7.7866806358700030e-05  1.0631943889329299e-04  1.3266276572329092e-04  1.5717149262797590e-04  1.8007086436269107e-04  2.0179270467714201e-04  2.2275605427476676e-04  2.4334437244822332e-04  2.6392098301985172e-04  2.8484553341567425e-04  3.0647626138223164e-04  3.2932188420226846e-04  3.5326310570420421e-04  3.7969486305662066e-04  4.0814582413237715e-04  4.3008474321756362e-04  4.5077778054932724e-04  4.5486584223153017e-04  -1.9412862573640762e-05  -1.4797051118663499e-05  3.8860741681985592e-06  5.5686529201907090e-05  9.1949695029808077e-05  1.2372592773959507e-04  1.5142678585455813e-04  1.7639619722026158e-04  1.9960729344583054e-04  2.2174600552244130e-04  2.4337569030114485e-04  2.6499662618735900e-04  2.8710351059449635e-04  3.1025610805364407e-04  3.3514390500075157e-04  3.6228996086564238e-04  3.9516070631730356e-04  4.2613762908439454e-04  4.6931563679167098e-04  5.2928218574648813e-04  5.1719214612935621e-04  2.3120271200473532e-05  -2.3448514874393732e-04  -7.5059407111770862e-06  3.7433730553725369e-05  8.3318299074109910e-05  1.1885479313922289e-04  1.4829427520467593e-04  1.7446212014952714e-04  1.9847804407033693e-04  2.2124268382022903e-04  2.4342499965914602e-04  2.6560434318698850e-04  2.8836030176996019e-04  3.1236621031599082e-04  3.3844619775708697e-04  3.6800801053301030e-04  4.0362092426226106e-04  4.4211883319026350e-04  5.3673279772870552e-04  5.5877120746249110e-04  6.0924414837497853e-04  -3.3229409259249794e-03  1.3870143089938982e-04  -3.6933446000532066e-05  3.2166042845698340e-05  8.5908414589907603e-05  1.1861989916774627e-04  1.4845650664569861e-04  1.7456016001075715e-04  1.9853746687236755e-04  2.2128420399589597e-04  2.4344968015599017e-04  2.6561566256488726e-04  2.8836203517389398e-04  3.1235119674330697e-04  3.3844809284733570e-04  3.6812731810632502e-04  4.0248732100735637e-04  4.4863456305132025e-04  5.2681947015353328e-04  5.0430068787130685e-04  1.6302187878463441e-03  </DataArray> 
</PointData> 
</Piece>
</UnstructuredGrid>
</VTKFile>