<?xml version="1.0"?>
<VTKFile type="UnstructuredGrid"  version="0.1"  >
<UnstructuredGrid>
<Piece  NumberOfPoints="651" NumberOfCells="1200">
<Points>
<DataArray  type="Float64"  NumberOfComponents="3"  format="ascii">0 0 0  50000 0 0  100000 0 0  150000 0 0  200000 0 0  250000 0 0  300000 0 0  350000 0 0  400000 0 0  450000 0 0  500000 0 0  550000 0 0  600000 0 0  650000 0 0  700000 0 0  750000 0 0  800000 0 0  850000 0 0  900000 0 0  950000 0 0  1000000 0 0  0 50000 0  50000 50000 0  100000 50000 0  150000 50000 0  200000 50000 0  250000 50000 0  300000 50000 0  350000 50000 0  400000 50000 0  450000 50000 0  500000 50000 0  550000 50000 0  600000 50000 0  650000 50000 0  700000 50000 0  750000 50000 0  800000 50000 0  850000 50000 0  900000 50000 0  950000 50000 0  1000000 50000 0  0 100000 0  50000 100000 0  100000 100000 0  150000 100000 0  200000 100000 0  250000 100000 0  300000 100000 0  350000 100000 0  400000 100000 0  450000 100000 0  500000 100000 0  550000 100000 0  600000 100000 0  650000 100000 0  700000 100000 0  750000 100000 0  800000 100000 0  850000 100000 0  900000 100000 0  950000 100000 0  1000000 100000 0  0 150000 0  50000 150000 0  100000 150000 0  150000 150000 0  200000 150000 0  250000 150000 0  300000 150000 0  350000 150000 0  400000 150000 0  450000 150000 0  500000 150000 0  550000 150000 0  600000 150000 0  650000 150000 0  700000 150000 0  750000 150000 0  800000 150000 0  850000 150000 0  900000 150000 0  950000 150000 0  1000000 150000 0  0 200000 0  50000 200000 0  100000 200000 0  150000 200000 0  200000 200000 0  250000 200000 0  300000 200000 0  350000 200000 0  400000 200000 0  450000 200000 0  500000 200000 0  550000 200000 0  600000 200000 0  650000 200000 0  700000 200000 0  750000 200000 0  800000 200000 0  850000 200000 0  900000 200000 0  950000 200000 0  1000000 200000 0  0 250000 0  50000 250000 0  100000 250000 0  150000 250000 0  200000 250000 0  250000 250000 0  300000 250000 0  350000 250000 0  400000 250000 0  450000 250000 0  500000 250000 0  550000 250000 0  600000 250000 0  650000 250000 0  700000 250000 0  750000 250000 0  800000 250000 0  850000 250000 0  900000 250000 0  950000 250000 0  1000000 250000 0  0 300000 0  50000 300000 0  100000 300000 0  150000 300000 0  200000 300000 0  250000 300000 0  300000 300000 0  350000 300000 0  400000 300000 0  450000 300000 0  500000 300000 0  550000 300000 0  600000 300000 0  650000 300000 0  700000 300000 0  750000 300000 0  800000 300000 0  850000 300000 0  900000 300000 0  950000 300000 0  1000000 300000 0  0 350000 0  50000 350000 0  100000 350000 0  150000 350000 0  200000 350000 0  250000 350000 0  300000 350000 0  350000 350000 0  400000 350000 0  450000 350000 0  500000 350000 0  550000 350000 0  600000 350000 0  650000 350000 0  700000 350000 0  750000 350000 0  800000 350000 0  850000 350000 0  900000 350000 0  950000 350000 0  1000000 350000 0  0 400000 0  50000 400000 0  100000 400000 0  150000 400000 0  200000 400000 0  250000 400000 0  300000 400000 0  350000 400000 0  400000 400000 0  450000 400000 0  500000 400000 0  550000 400000 0  600000 400000 0  650000 400000 0  700000 400000 0  750000 400000 0  800000 400000 0  850000 400000 0  900000 400000 0  950000 400000 0  1000000 400000 0  0 450000 0  50000 450000 0  100000 450000 0  150000 450000 0  200000 450000 0  250000 450000 0  300000 450000 0  350000 450000 0  400000 450000 0  450000 450000 0  500000 450000 0  550000 450000 0  600000 450000 0  650000 450000 0  700000 450000 0  750000 450000 0  800000 450000 0  850000 450000 0  900000 450000 0  950000 450000 0  1000000 450000 0  0 500000 0  50000 500000 0  100000 500000 0  150000 500000 0  200000 500000 0  250000 500000 0  300000 500000 0  350000 500000 0  400000 500000 0  450000 500000 0  500000 500000 0  550000 500000 0  600000 500000 0  650000 500000 0  700000 500000 0  750000 500000 0  800000 500000 0  850000 500000 0  900000 500000 0  950000 500000 0  1000000 500000 0  0 550000 0  50000 550000 0  100000 550000 0  150000 550000 0  200000 550000 0  250000 550000 0  300000 550000 0  350000 550000 0  400000 550000 0  450000 550000 0  500000 550000 0  550000 550000 0  600000 550000 0  650000 550000 0  700000 550000 0  750000 550000 0  800000 550000 0  850000 550000 0  900000 550000 0  950000 550000 0  1000000 550000 0  0 600000 0  50000 600000 0  100000 600000 0  150000 600000 0  200000 600000 0  250000 600000 0  300000 600000 0  350000 600000 0  400000 600000 0  450000 600000 0  500000 600000 0  550000 600000 0  600000 600000 0  650000 600000 0  700000 600000 0  750000 600000 0  800000 600000 0  850000 600000 0  900000 600000 0  950000 600000 0  1000000 600000 0  0 650000 0  50000 650000 0  100000 650000 0  150000 650000 0  200000 650000 0  250000 650000 0  300000 650000 0  350000 650000 0  400000 650000 0  450000 650000 0  500000 650000 0  550000 650000 0  600000 650000 0  650000 650000 0  700000 650000 0  750000 650000 0  800000 650000 0  850000 650000 0  900000 650000 0  950000 650000 0  1000000 650000 0  0 700000 0  50000 700000 0  100000 700000 0  150000 700000 0  200000 700000 0  250000 700000 0  300000 700000 0  350000 700000 0  400000 700000 0  450000 700000 0  500000 700000 0  550000 700000 0  600000 700000 0  650000 700000 0  700000 700000 0  750000 700000 0  800000 700000 0  850000 700000 0  900000 700000 0  950000 700000 0  1000000 700000 0  0 750000 0  50000 750000 0  100000 750000 0  150000 750000 0  200000 750000 0  250000 750000 0  300000 750000 0  350000 750000 0  400000 750000 0  450000 750000 0  500000 750000 0  550000 750000 0  600000 750000 0  650000 750000 0  700000 750000 0  750000 750000 0  800000 750000 0  850000 750000 0  900000 750000 0  950000 750000 0  1000000 750000 0  0 800000 0  50000 800000 0  100000 800000 0  150000 800000 0  200000 800000 0  250000 800000 0  300000 800000 0  350000 800000 0  400000 800000 0  450000 800000 0  500000 800000 0  550000 800000 0  600000 800000 0  650000 800000 0  700000 800000 0  750000 800000 0  800000 800000 0  850000 800000 0  900000 800000 0  950000 800000 0  1000000 800000 0  0 850000 0  50000 850000 0  100000 850000 0  150000 850000 0  200000 850000 0  250000 850000 0  300000 850000 0  350000 850000 0  400000 850000 0  450000 850000 0  500000 850000 0  550000 850000 0  600000 850000 0  650000 850000 0  700000 850000 0  750000 850000 0  800000 850000 0  850000 850000 0  900000 850000 0  950000 850000 0  1000000 850000 0  0 900000 0  50000 900000 0  100000 900000 0  150000 900000 0  200000 900000 0  250000 900000 0  300000 900000 0  350000 900000 0  400000 900000 0  450000 900000 0  500000 900000 0  550000 900000 0  600000 900000 0  650000 900000 0  700000 900000 0  750000 900000 0  800000 900000 0  850000 900000 0  900000 900000 0  950000 900000 0  1000000 900000 0  0 950000 0  50000 950000 0  100000 950000 0  150000 950000 0  200000 950000 0  250000 950000 0  300000 950000 0  350000 950000 0  400000 950000 0  450000 950000 0  500000 950000 0  550000 950000 0  600000 950000 0  650000 950000 0  700000 950000 0  750000 950000 0  800000 950000 0  850000 950000 0  900000 950000 0  950000 950000 0  1000000 950000 0  0 1000000 0  50000 1000000 0  100000 1000000 0  150000 1000000 0  200000 1000000 0  250000 1000000 0  300000 1000000 0  350000 1000000 0  400000 1000000 0  450000 1000000 0  500000 1000000 0  550000 1000000 0  600000 1000000 0  650000 1000000 0  700000 1000000 0  750000 1000000 0  800000 1000000 0  850000 1000000 0  900000 1000000 0  950000 1000000 0  1000000 1000000 0  0 1050000 0  50000 1050000 0  100000 1050000 0  150000 1050000 0  200000 1050000 0  250000 1050000 0  300000 1050000 0  350000 1050000 0  400000 1050000 0  450000 1050000 0  500000 1050000 0  550000 1050000 0  600000 1050000 0  650000 1050000 0  700000 1050000 0  750000 1050000 0  800000 1050000 0  850000 1050000 0  900000 1050000 0  950000 1050000 0  1000000 1050000 0  0 1100000 0  50000 1100000 0  100000 1100000 0  150000 1100000 0  200000 1100000 0  250000 1100000 0  300000 1100000 0  350000 1100000 0  400000 1100000 0  450000 1100000 0  500000 1100000 0  550000 1100000 0  600000 1100000 0  650000 1100000 0  700000 1100000 0  750000 1100000 0  800000 1100000 0  850000 1100000 0  900000 1100000 0  950000 1100000 0  1000000 1100000 0  0 1150000 0  50000 1150000 0  100000 1150000 0  150000 1150000 0  200000 1150000 0  250000 1150000 0  300000 1150000 0  350000 1150000 0  400000 1150000 0  450000 1150000 0  500000 1150000 0  550000 1150000 0  600000 1150000 0  650000 1150000 0  700000 1150000 0  750000 1150000 0  800000 1150000 0  850000 1150000 0  900000 1150000 0  950000 1150000 0  1000000 1150000 0  0 1200000 0  50000 1200000 0  100000 1200000 0  150000 1200000 0  200000 1200000 0  250000 1200000 0  300000 1200000 0  350000 1200000 0  400000 1200000 0  450000 1200000 0  500000 1200000 0  550000 1200000 0  600000 1200000 0  650000 1200000 0  700000 1200000 0  750000 1200000 0  800000 1200000 0  850000 1200000 0  900000 1200000 0  950000 1200000 0  1000000 1200000 0  0 1250000 0  50000 1250000 0  100000 1250000 0  150000 1250000 0  200000 1250000 0  250000 1250000 0  300000 1250000 0  350000 1250000 0  400000 1250000 0  450000 1250000 0  500000 1250000 0  550000 1250000 0  600000 1250000 0  650000 1250000 0  700000 1250000 0  750000 1250000 0  800000 1250000 0  850000 1250000 0  900000 1250000 0  950000 1250000 0  1000000 1250000 0  0 1300000 0  50000 1300000 0  100000 1300000 0  150000 1300000 0  200000 1300000 0  250000 1300000 0  300000 1300000 0  350000 1300000 0  400000 1300000 0  450000 1300000 0  500000 1300000 0  550000 1300000 0  600000 1300000 0  650000 1300000 0  700000 1300000 0  750000 1300000 0  800000 1300000 0  850000 1300000 0  900000 1300000 0  950000 1300000 0  1000000 1300000 0  0 1350000 0  50000 1350000 0  100000 1350000 0  150000 1350000 0  200000 1350000 0  250000 1350000 0  300000 1350000 0  350000 1350000 0  400000 1350000 0  450000 1350000 0  500000 1350000 0  550000 1350000 0  600000 1350000 0  650000 1350000 0  700000 135
[...]
<PointData  Scalars="f_25027"> 
<DataArray  type="Float64"  Name="f_25027"  format="ascii">-8.3125330493924031e-04  2.7596977317171711e-05  2.5927386805776592e-05  9.0775100385145980e-05  1.3151871949434522e-04  1.6206635667198813e-04  1.8838404467273572e-04  2.1161731526970286e-04  2.3299378066755561e-04  2.5327917856140055e-04  2.7305490074845288e-04  2.9283061546874330e-04  3.1311655446576817e-04  3.3448684457713359e-04  3.5773250458880274e-04  3.8413116276720505e-04  4.1364411012968723e-04  4.5970086868869406e-04  5.1781131847026607e-04  4.0662360860680162e-04  3.0071620831572379e-03  -4.6702461471192992e-05  -2.9016889217552303e-06  2.0308324365100066e-05  9.6719020335137647e-05  1.3142580979041014e-04  1.6249735561689205e-04  1.8862316761102316e-04  2.1175375150115795e-04  2.3308279274081013e-04  2.5333068203506288e-04  2.7307714495826006e-04  2.9282631419386005e-04  3.1308192604118291e-04  3.3442446133958204e-04  3.5761962559270003e-04  3.8366145439093339e-04  4.1484496051583824e-04  4.5441633944390421e-04  4.9562997921055361e-04  6.7255970339232169e-04  4.8105601618825765e-04  3.1829907846269714e-05  2.5575613047766253e-05  7.4363147721851644e-05  1.1156328056705772e-04  1.3930752208399130e-04  1.6771295154380955e-04  1.9173250123308744e-04  2.1373170568522514e-04  2.3426543962674546e-04  2.5390207974787239e-04  2.7312012966516084e-04  2.9234613319244559e-04  3.1201032304658258e-04  3.3259440386619702e-04  3.5468288045865281e-04  3.7908603391084787e-04  4.0687695529049598e-04  4.3856906840464434e-04  4.8199743422008064e-04  5.0079901764218135e-04  5.0802698588946595e-04  8.5575328910800973e-05  8.9851365390251480e-05  1.0819238530244439e-04  1.2807664829380061e-04  1.5265808512389555e-04  1.7578826967310252e-04  1.9696503085824259e-04  2.1713233326620487e-04  2.3630715196177091e-04  2.5487451981445384e-04  2.7314663625135801e-04  2.9142904534538788e-04  3.1003109165269563e-04  3.2927791234928444e-04  3.4952023247013291e-04  3.7110964318996624e-04  3.9423339717719865e-04  4.1900328544313504e-04  4.4152299016240841e-04  4.5819756350183203e-04  4.6524482349460965e-04  1.2311886995182436e-04  1.2364021531892391e-04  1.3312150398528519e-04  1.4878300840212726e-04  1.6696523564186657e-04  1.8520562350570304e-04  2.0354009433625880e-04  2.2148006504496209e-04  2.3896562710389792e-04  2.5614764542489633e-04  2.7316832250387399e-04  2.9020005414100673e-04  3.0741576891552604e-04  3.2497606555948215e-04  3.4299986433591689e-04  3.6149116428467145e-04  3.8020441017415656e-04  3.9814502613753997e-04  4.1344593797001608e-04  4.2295409089142564e-04  4.2189025467237842e-04  1.4893388712838981e-04  1.4937159296957110e-04  1.5592446180050622e-04  1.6673318051315444e-04  1.8011543268817523e-04  1.9500951764440580e-04  2.1056530600991691e-04  2.2625376323694835e-04  2.4194445635861194e-04  2.5758098221689970e-04  2.7317750807459530e-04  2.8878393290308462e-04  3.0444879051562683e-04  3.2019286757086770e-04  3.3596663451221554e-04  3.5158047903002685e-04  3.6657725229968839e-04  3.8009458197506290e-04  3.9074638981254864e-04  3.9672355958354517e-04  3.9719864481994145e-04  1.6887037314148643e-04  1.6917513776064735e-04  1.7371936645949317e-04  1.8166409597984246e-04  1.9216688750184756e-04  2.0431403791714342e-04  2.1741465146381958e-04  2.3106001740483682e-04  2.4499280996959647e-04  2.5905769915438547e-04  2.7317801212245441e-04  2.8730567756495614e-04  3.0139217480615240e-04  3.1535783886330043e-04  3.2905275074898130e-04  3.4220448663197319e-04  3.5435618742533725e-04  3.6481539228378558e-04  3.7267144376544229e-04  3.7701239989246330e-04  3.7720517036657906e-04  1.8444919596648585e-04  1.8465265860702514e-04  1.8807659757913588e-04  1.9424680512774515e-04  2.0263250813321818e-04  2.1263136348852784e-04  2.2375187381478269e-04  2.3560770917392025e-04  2.4791609120527146e-04  2.6048381916005814e-04  2.7317129101051132e-04  2.8586336793295344e-04  2.9844484657854211e-04  3.1077325934046412e-04  3.2264965492825089e-04  3.3378741358339328e-04  3.4378534405697279e-04  3.5212331529640306e-04  3.5820884585943121e-04  3.6149068178695801e-04  3.6162554222975987e-04  1.9678978395009592e-04  1.9694449037927628e-04  1.9964618900973282e-04  2.0459657314434273e-04  2.1146884646180367e-04  2.1985677941199392e-04  2.2938140514141197e-04  2.3971323120288861e-04  2.5058802010750599e-04  2.6179495825129757e-04  2.7315975126300681e-04  2.8452710107426080e-04  2.9574113427460508e-04  3.0662569024413088e-04  3.1696522731519802e-04  3.2648839456933808e-04  3.3486001923543446e-04  3.4169221735357659e-04  3.4658189737261040e-04  3.4918575137652964e-04  3.4929823037196001e-04  2.0659056255463668e-04  2.0671209139849243e-04  2.0892272216531019e-04  2.1302368487534804e-04  2.1879906212659463e-04  2.2595859827792295e-04  2.3421136975052879e-04  2.4328402601234768e-04  2.5293460681320988e-04  2.6295123240367436e-04  2.7314538930153673e-04  2.8334069939601049e-04  2.9336014230570509e-04  3.0301344016057979e-04  3.1208587299642225e-04  3.2033106510433244e-04  3.2747149460101783e-04  3.3321211542981446e-04  3.3726761155371732e-04  3.3941054378777073e-04  3.3950170936163077e-04  2.1431302307548501e-04  2.1441210026837719e-04  2.1627976683743870e-04  2.1977398821854889e-04  2.2474264704934517e-04  2.3096993743604760e-04  2.3822671125485175e-04  2.4628260123065734e-04  2.5491897577930976e-04  2.6393184254613775e-04  2.7312971359001070e-04  2.8232783565162870e-04  2.9134101891036717e-04  2.9997646065743204e-04  3.0802817260182331e-04  3.1527503834478737e-04  3.2148461725269544e-04  3.2642547248882951e-04  3.2988568132567478e-04  3.3170496268655660e-04  3.3178258872967821e-04  2.2027964249200980e-04  2.2036313009162210e-04  2.2198770606098251e-04  2.2504586854100712e-04  2.2942370620764529e-04  2.3495260652079973e-04  2.4144514069884086e-04  2.4870320471773085e-04  2.5652888491000026e-04  2.6472856975553267e-04  2.7311365624489795e-04  2.8149852806121832e-04  2.8969728130813705e-04  2.9752046960898707e-04  3.0477322091613347e-04  3.1125614626641683e-04  3.1677014276587222e-04  3.2112663282847764e-04  3.2415986447814637e-04  3.2575003086894870e-04  3.2581834187752669e-04  2.2471743593090171e-04  2.2478994329086605e-04  2.2624413125048442e-04  2.2899425939813779e-04  2.3294930427501117e-04  2.3797046700206175e-04  2.4389806521695116e-04  2.5055700189874450e-04  2.5776566588747620e-04  2.6534038899562540e-04  2.7309771261434392e-04  2.8085466479650108e-04  2.8842809107182946e-04  2.9563401684077701e-04  3.0228803912834944e-04  3.0820772052151584e-04  3.1321748702659041e-04  3.1715706244855136e-04  3.1988967118448561e-04  3.2132018212228957e-04  3.2138227024552224e-04  2.2778447010248106e-04  2.2784939650123410e-04  2.2918989183367405e-04  2.3173406515994833e-04  2.3540419478828903e-04  2.4007974909290205e-04  2.4561857359299707e-04  2.5186082100620168e-04  2.5863644935661368e-04  2.6576968504445233e-04  2.7308207758604800e-04  2.8039413282122743e-04  2.8752625328038839e-04  2.9429969974917737e-04  3.0053830027571259e-04  3.0607158278154892e-04  3.1073949231062963e-04  3.1439957420062865e-04  3.1693258228817207e-04  3.1825818852022469e-04  3.1831657682621837e-04  2.2958520864413545e-04  2.2964523778433666e-04  2.3091939360996496e-04  2.3334433692604156e-04  2.3684910434812047e-04  2.4132314210875130e-04  2.4663395245227396e-04  2.5263036754193211e-04  2.5914920094465341e-04  2.6601965458065958e-04  2.7306674387002182e-04  2.8011363970274891e-04  2.8698346702427292e-04  2.9350111357173664e-04  2.9949560805467057e-04  3.0480358159127566e-04  3.0927379168000605e-04  3.1277361510950936e-04  3.1519312169688083e-04  3.1646008120726868e-04  3.1651695408593729e-04  2.3017931055767225e-04  2.3023672032567523e-04  2.3148693020189645e-04  2.3387120093543561e-04  2.3732025923551222e-04  2.4172691028758717e-04  2.4696170600911008e-04  2.5287627728885921e-04  2.5930965617354789e-04  2.6609269043873320e-04  2.7305158714041502e-04  2.8001048384212844e-04  2.8679351810740759e-04  2.9322689699224237e-04  2.9914146827217538e-04  3.0437626399390310e-04  3.0878291504618039e-04  3.1223197334643568e-04  3.1461624408010876e-04  3.1586645395640316e-04  3.1592386372441552e-04  2.2958622019614245e-04  2.2964309307480144e-04  2.3091005258511470e-04  2.3332955917234859e-04  2.3682938260166926e-04  2.4129959269019198e-04  2.4660756622658827e-04  2.5260206070933452e-04  2.5911970725664912e-04  2.6598953457807924e-04  2.7303643041077559e-04  2.8008351970017323e-04  2.8695397333627855e-04  2.9347280673915305e-04  2.9946922182900500e-04  3.0478003217274254e-04  3.0925406993358742e-04  3.1275883735585469e-04  3.1518378067207367e-04  3.1645793649777979e-04  3.1651796563799149e-04  2.2778659745588276e-04  2.2784498576186739e-04  2.2917059199383731e-04  2.3170360008122873e-04  2.3536368197102513e-04  2.4003159149987700e-04  2.4556487400548412e-04  2.5180347453181384e-04  2.5857692100044171e-04  2.6570904145950162e-04  2.7302109669464895e-04  2.8033348923628540e-04  2.8746672492423479e-04  2.9424235327481831e-04  3.0048460068824004e-04  3.0602342518857689e-04  3.1069897949343161e-04  3.1436910912198651e-04  3.1691328244842369e-04  3.1825377778095342e-04  3.1831870417971768e-04  2.2472090403663825e-04  2.2478299215985921e-04  2.2621350309756546e-04  2.2894611183331846e-04  2.3288568725503991e-04  2.3789545375984490e-04  2.4381513515274380e-04  2.5046915744007824e-04  2.5767508320884093e-04  2.6524850948405390e-04  2.7300546166617588e-04  2.8076278528494270e-04  2.8833750839322091e-04  2.9554617238215249e-04  3.0220510906420146e-04  3.0813270727937772e-04  3.1315387000671802e-04  3.1710891488385159e-04  3.1985904303170252e-04  3.2131323099143089e-04  3.2138573835140935e-04  2.2028483240473578e-04  2.2035314341330015e-04  2.2194330980397948e-04  2.2497654145342010e-04  2.2933303151572538e-04  2.3484702801484714e-04  2.4132995336480353e-04  2.4858270467166207e-04  2.5640589297229102e-04  2.6460464621907309e-04  2.7298951803535193e-04  2.8137460452477473e-04  2.8957428937046109e-04  2.9739996956297136e-04  3.0465803358217222e-04  3.1115056776056778e-04  3.1667946807408589e-04  3.2105730574105387e-04  3.2411546822133284e-04  3.2574004419083549e-04  3.2582353179046549e-04  2.1432058555274593e-04  2.1439821159585052e-04  2.1621749295656965e-04  2.1967770179311331e-04  2.2461855702885582e-04  2.3082813593633522e-04  2.3807500167888620e-04  2.4612671362292057e-04  2.5476215536971504e-04  2.6377533862828747e-04  2.7297346068985484e-04  2.8217133173379598e-04  2.9118419850080932e-04  2.9982057304975615e-04  3.0787646302594772e-04  3.1513323684520105e-04  3.2136052723237318e-04  3.2632918606360494e-04  3.2982340744505646e-04  3.3169107401431037e-04  3.3179015120722637e-04  2.0660146492103626e-04  2.0669263049487451e-04  2.0883556272870333e-04  2.1289105885219270e-04  2.1863167968046035e-04  2.2577210917658071e-04  2.3401730128395993e-04  2.4308973411935492e-04  2.5274303197389748e-04  2.6276247488339074e-04  2.7295778497780194e-04  2.8315194187574378e-04  2.9316856746642976e-04  3.0281914826765040e-04  3.1189180452995059e-04  3.2014457600313252e-04  3.2730411215508225e-04  3.3307948940692174e-04  3.3718045211743401e-04  3.3939108288452295e-04  3.3951261172841173e-04  1.9680494391106812e-04  1.9691742290646734e-04  1.9952127691006517e-04  2.0441095692851058e-04  2.1124315504591917e-04  2.1961477971125937e-04  2.2913794696471392e-04  2.3947748403522410e-04  2.5036204000434707e-04  2.6157607320445098e-04  2.7294342301562935e-04  2.8430821602742847e-04  2.9551515417147793e-04  3.0638994307652276e-04  3.1672176913859500e-04  3.2624639486875481e-04  3.3463432781977485e-04  3.4150660113805946e-04  3.4645698527335312e-04  3.4915868390421025e-04  3.4931339033343817e-04  1.8447763205378822e-04  1.8461249249655841e-04  1.8789432842360559e-04  1.9397985898576413e-04  2.0231783022415476e-04  2.1231576069671501e-04  2.2345351935098231e-04  2.3532991493809241e-04  2.4765832769954409e-04  2.6023980634485916e-04  2.7293188326721378e-04  2.8561935511776205e-04  2.9818708307283360e-04  3.1049546510467720e-04  3.2235130046452979e-04  3.3347181079171123e-04  3.4347066614812794e-04  3.5185636915478557e-04  3.5802657670442700e-04  3.6145051567714793e-04  3.6165397831775225e-04  1.6889800391775396e-04  1.6909077439184340e-04  1.7343173051808294e-04  1.8128778199841242e-04  1.9174698685535778e-04  2.0389868764735756e-04  2.1705042352926850e-04  2.3074533541417086e-04  2.4471099947080802e-04  2.5879749671171745e-04  2.7292516215412550e-04  2.8704547512228455e-04  3.0111036430736227e-04  3.1504315687264631e-04  3.2868852281445774e-04  3.4178913636227879e-04  3.5393628677910449e-04  3.6443907830279728e-04  3.7238380782467402e-04  3.7692803652451465e-04  3.7723280114382437e-04  1.4890452946582258e-04  1.4937961470181811e-04  1.5535678447163419e-04  1.6600859230697144e-04  1.7952592198014161e-04  1.9452269524804303e-04  2.1013653976461046e-04  2.2591030670515591e-04  2.4165438375991263e-04  2.5731924137219664e-04  2.7292566620059977e-04  2.8852219205836345e-04  3.0415871791689825e-04  3.1984941103903249e-04  3.3553786826687735e-04  3.5109365663374078e-04  3.6598774159168538e-04  3.7936999376889227e-04  3.9017871248433686e-04  3.9673158131731985e-04  3.9716928715862550e-04  1.2421291961338729e-04  1.2314908339597561e-04  1.3265723631497733e-04  1.4795814814362154e-04  1.6589876410394973e-04  1.8461200999133313e-04  2.0310330993888914e-04  2.2112710871467309e-04  2.3868740535829469e-04  2.5590312013265380e-04  2.7293485176972866e-04  2.8995552884872913e-04  3.0713754716985600e-04  3.2462310922908678e-04  3.4256307993848546e-04  3.6089755077013712e-04  3.7913793863591545e-04  3.9732016588021174e-04  4.1298167030164447e-04  4.2246295897016258e-04  4.2298430433713411e-04  8.0858350799922589e-05  8.7905610789691197e-05  1.0458018412169072e-04  1.2709988883564366e-04  1.5186977709729142e-04  1.7499353108278820e-04  1.9658294180192860e-04  2.1682526192258890e-04  2.3607208261916833e-04  2.5467412892650091e-04  2.7295653802052579e-04  2.9122865445737792e-04  3.0979602230997780e-04  3.2897084100549820e-04  3.4913814341363126e-04  3.7031490459913318e-04  3.9344508915109132e-04  4.1802652598398027e-04  4.3791078897603149e-04  4.5625180890074654e-04  4.6052784538699881e-04  3.8076188406705547e-05  4.5304156643872317e-05  6.4105740062768307e-05  1.0753410586513689e-04  1.3922621897768004e-04  1.6701714035720111e-04  1.9142029381003870e-04  2.1350877040314273e-04  2.3409285122325099e-04  2.5375704107767692e-04  2.7298304460503399e-04  2.9220109452217483e-04  3.1183773464293728e-04  3.3237146858388511e-04  3.5437067303526723e-04  3.7839022272395065e-04  4.0679565218427945e-04  4.3453989369966859e-04  4.7174002656717864e-04  5.2052756127674460e-04  5.1427326645379684e-04  6.5047158174004767e-05  -1.2645652911745425e-04  5.0473195036145087e-05  9.1686834811760358e-05  1.3125821374299212e-04  1.6244171987187862e-04  1.8848354867260638e-04  2.1167871292741150e-04  2.3302124822686496e-04  2.5327686007475060e-04  2.7302602931049533e-04  2.9277249223343794e-04  3.1302038152700699e-04  3.3434942276544267e-04  3.5748000665371667e-04  3.8360581864512285e-04  4.1467736446610477e-04  4.4938415391928681e-04  5.2579484988535936e-04  5.4900486312028224e-04  5.9280563575618865e-04  -2.4610589078483463e-03  1.3947956544227964e-04  2.8291855785189137e-05  8.6402305567486791e-05  1.3245906412699191e-04  1.6197201149482026e-04  1.8837066967602816e-04  2.1161632968952731e-04  2.3298661980203020e-04  2.5327255879965723e-04  2.7304827352010285e-04  2.9282399570688277e-04  3.1310939359999423e-04  3.3448585899654477e-04  3.5771912959150213e-04  3.8403681758886736e-04  4.1458445476146233e-04  4.5532807386794948e-04  5.2017578742331817e-04  5.1850619686684169e-04  1.3773564797708341e-03  </DataArray> 
</PointData> 
</Piece>
</UnstructuredGrid>
</VTKFile>