<?xml version="1.0"?>
<VTKFile type="UnstructuredGrid"  version="0.1"  >
<UnstructuredGrid>
<Piece  NumberOfPoints="651" NumberOfCells="1200">
<Points>
<DataArray  type="Float64"  NumberOfComponents="3"  format="ascii">0 0 0  50000 0 0  100000 0 0  150000 0 0  200000 0 0  250000 0 0  300000 0 0  350000 0 0  400000 0 0  450000 0 0  500000 0 0  550000 0 0  600000 0 0  650000 0 0  700000 0 0  750000 0 0  800000 0 0  850000 0 0  900000 0 0  950000 0 0  1000000 0 0  0 50000 0  50000 50000 0  100000 50000 0  150000 50000 0  200000 50000 0  250000 50000 0  300000 50000 0  350000 50000 0  400000 50000 0  450000 50000 0  500000 50000 0  550000 50000 0  600000 50000 0  650000 50000 0  700000 50000 0  750000 50000 0  800000 50000 0  850000 50000 0  900000 50000 0  950000 50000 0  1000000 50000 0  0 100000 0  50000 100000 0  100000 100000 0  150000 100000 0  200000 100000 0  250000 100000 0  300000 100000 0  350000 100000 0  400000 100000 0  450000 100000 0  500000 100000 0  550000 100000 0  600000 100000 0  650000 100000 0  700000 100000 0  750000 100000 0  800000 100000 0  850000 100000 0  900000 100000 0  950000 100000 0  1000000 100000 0  0 150000 0  50000 150000 0  100000 150000 0  150000 150000 0  200000 150000 0  250000 150000 0  300000 150000 0  350000 150000 0  400000 150000 0  450000 150000 0  500000 150000 0  550000 150000 0  600000 150000 0  650000 150000 0  700000 150000 0  750000 150000 0  800000 150000 0  850000 150000 0  900000 150000 0  950000 150000 0  1000000 150000 0  0 200000 0  50000 200000 0  100000 200000 0  150000 200000 0  200000 200000 0  250000 200000 0  300000 200000 0  350000 200000 0  400000 200000 0  450000 200000 0  500000 200000 0  550000 200000 0  600000 200000 0  650000 200000 0  700000 200000 0  750000 200000 0  800000 200000 0  850000 200000 0  900000 200000 0  950000 200000 0  1000000 200000 0  0 250000 0  50000 250000 0  100000 250000 0  150000 250000 0  200000 250000 0  250000 250000 0  300000 250000 0  350000 250000 0  400000 250000 0  450000 250000 0  500000 250000 0  550000 250000 0  600000 250000 0  650000 250000 0  700000 250000 0  750000 250000 0  800000 250000 0  850000 250000 0  900000 250000 0  950000 250000 0  1000000 250000 0  0 300000 0  50000 300000 0  100000 300000 0  150000 300000 0  200000 300000 0  250000 300000 0  300000 300000 0  350000 300000 0  400000 300000 0  450000 300000 0  500000 300000 0  550000 300000 0  600000 300000 0  650000 300000 0  700000 300000 0  750000 300000 0  800000 300000 0  850000 300000 0  900000 300000 0  950000 300000 0  1000000 300000 0  0 350000 0  50000 350000 0  100000 350000 0  150000 350000 0  200000 350000 0  250000 350000 0  300000 350000 0  350000 350000 0  400000 350000 0  450000 350000 0  500000 350000 0  550000 350000 0  600000 350000 0  650000 350000 0  700000 350000 0  750000 350000 0  800000 350000 0  850000 350000 0  900000 350000 0  950000 350000 0  1000000 350000 0  0 400000 0  50000 400000 0  100000 400000 0  150000 400000 0  200000 400000 0  250000 400000 0  300000 400000 0  350000 400000 0  400000 400000 0  450000 400000 0  500000 400000 0  550000 400000 0  600000 400000 0  650000 400000 0  700000 400000 0  750000 400000 0  800000 400000 0  850000 400000 0  900000 400000 0  950000 400000 0  1000000 400000 0  0 450000 0  50000 450000 0  100000 450000 0  150000 450000 0  200000 450000 0  250000 450000 0  300000 450000 0  350000 450000 0  400000 450000 0  450000 450000 0  500000 450000 0  550000 450000 0  600000 450000 0  650000 450000 0  700000 450000 0  750000 450000 0  800000 450000 0  850000 450000 0  900000 450000 0  950000 450000 0  1000000 450000 0  0 500000 0  50000 500000 0  100000 500000 0  150000 500000 0  200000 500000 0  250000 500000 0  300000 500000 0  350000 500000 0  400000 500000 0  450000 500000 0  500000 500000 0  550000 500000 0  600000 500000 0  650000 500000 0  700000 500000 0  750000 500000 0  800000 500000 0  850000 500000 0  900000 500000 0  950000 500000 0  1000000 500000 0  0 550000 0  50000 550000 0  100000 550000 0  150000 550000 0  200000 550000 0  250000 550000 0  300000 550000 0  350000 550000 0  400000 550000 0  450000 550000 0  500000 550000 0  550000 550000 0  600000 550000 0  650000 550000 0  700000 550000 0  750000 550000 0  800000 550000 0  850000 550000 0  900000 550000 0  950000 550000 0  1000000 550000 0  0 600000 0  50000 600000 0  100000 600000 0  150000 600000 0  200000 600000 0  250000 600000 0  300000 600000 0  350000 600000 0  400000 600000 0  450000 600000 0  500000 600000 0  550000 600000 0  600000 600000 0  650000 600000 0  700000 600000 0  750000 600000 0  800000 600000 0  850000 600000 0  900000 600000 0  950000 600000 0  1000000 600000 0  0 650000 0  50000 650000 0  100000 650000 0  150000 650000 0  200000 650000 0  250000 650000 0  300000 650000 0  350000 650000 0  400000 650000 0  450000 650000 0  500000 650000 0  550000 650000 0  600000 650000 0  650000 650000 0  700000 650000 0  750000 650000 0  800000 650000 0  850000 650000 0  900000 650000 0  950000 650000 0  1000000 650000 0  0 700000 0  50000 700000 0  100000 700000 0  150000 700000 0  200000 700000 0  250000 700000 0  300000 700000 0  350000 700000 0  400000 700000 0  450000 700000 0  500000 700000 0  550000 700000 0  600000 700000 0  650000 700000 0  700000 700000 0  750000 700000 0  800000 700000 0  850000 700000 0  900000 700000 0  950000 700000 0  1000000 700000 0  0 750000 0  50000 750000 0  100000 750000 0  150000 750000 0  200000 750000 0  250000 750000 0  300000 750000 0  350000 750000 0  400000 750000 0  450000 750000 0  500000 750000 0  550000 750000 0  600000 750000 0  650000 750000 0  700000 750000 0  750000 750000 0  800000 750000 0  850000 750000 0  900000 750000 0  950000 750000 0  1000000 750000 0  0 800000 0  50000 800000 0  100000 800000 0  150000 800000 0  200000 800000 0  250000 800000 0  300000 800000 0  350000 800000 0  400000 800000 0  450000 800000 0  500000 800000 0  550000 800000 0  600000 800000 0  650000 800000 0  700000 800000 0  750000 800000 0  800000 800000 0  850000 800000 0  900000 800000 0  950000 800000 0  1000000 800000 0  0 850000 0  50000 850000 0  100000 850000 0  150000 850000 0  200000 850000 0  250000 850000 0  300000 850000 0  350000 850000 0  400000 850000 0  450000 850000 0  500000 850000 0  550000 850000 0  600000 850000 0  650000 850000 0  700000 850000 0  750000 850000 0  800000 850000 0  850000 850000 0  900000 850000 0  950000 850000 0  1000000 850000 0  0 900000 0  50000 900000 0  100000 900000 0  150000 900000 0  200000 900000 0  250000 900000 0  300000 900000 0  350000 900000 0  400000 900000 0  450000 900000 0  500000 900000 0  550000 900000 0  600000 900000 0  650000 900000 0  700000 900000 0  750000 900000 0  800000 900000 0  850000 900000 0  900000 900000 0  950000 900000 0  1000000 900000 0  0 950000 0  50000 950000 0  100000 950000 0  150000 950000 0  200000 950000 0  250000 950000 0  300000 950000 0  350000 950000 0  400000 950000 0  450000 950000 0  500000 950000 0  550000 950000 0  600000 950000 0  650000 950000 0  700000 950000 0  750000 950000 0  800000 950000 0  850000 950000 0  900000 950000 0  950000 950000 0  1000000 950000 0  0 1000000 0  50000 1000000 0  100000 1000000 0  150000 1000000 0  200000 1000000 0  250000 1000000 0  300000 1000000 0  350000 1000000 0  400000 1000000 0  450000 1000000 0  500000 1000000 0  550000 1000000 0  600000 1000000 0  650000 1000000 0  700000 1000000 0  750000 1000000 0  800000 1000000 0  850000 1000000 0  900000 1000000 0  950000 1000000 0  1000000 1000000 0  0 1050000 0  50000 1050000 0  100000 1050000 0  150000 1050000 0  200000 1050000 0  250000 1050000 0  300000 1050000 0  350000 1050000 0  400000 1050000 0  450000 1050000 0  500000 1050000 0  550000 1050000 0  600000 1050000 0  650000 1050000 0  700000 1050000 0  750000 1050000 0  800000 1050000 0  850000 1050000 0  900000 1050000 0  950000 1050000 0  1000000 1050000 0  0 1100000 0  50000 1100000 0  100000 1100000 0  150000 1100000 0  200000 1100000 0  250000 1100000 0  300000 1100000 0  350000 1100000 0  400000 1100000 0  450000 1100000 0  500000 1100000 0  550000 1100000 0  600000 1100000 0  650000 1100000 0  700000 1100000 0  750000 1100000 0  800000 1100000 0  850000 1100000 0  900000 1100000 0  950000 1100000 0  1000000 1100000 0  0 1150000 0  50000 1150000 0  100000 1150000 0  150000 1150000 0  200000 1150000 0  250000 1150000 0  300000 1150000 0  350000 1150000 0  400000 1150000 0  450000 1150000 0  500000 1150000 0  550000 1150000 0  600000 1150000 0  650000 1150000 0  700000 1150000 0  750000 1150000 0  800000 1150000 0  850000 1150000 0  900000 1150000 0  950000 1150000 0  1000000 1150000 0  0 1200000 0  50000 1200000 0  100000 1200000 0  150000 1200000 0  200000 1200000 0  250000 1200000 0  300000 1200000 0  350000 1200000 0  400000 1200000 0  450000 1200000 0  500000 1200000 0  550000 1200000 0  600000 1200000 0  650000 1200000 0  700000 1200000 0  750000 1200000 0  800000 1200000 0  850000 1200000 0  900000 1200000 0  950000 1200000 0  1000000 1200000 0  0 1250000 0  50000 1250000 0  100000 1250000 0  150000 1250000 0  200000 1250000 0  250000 1250000 0  300000 1250000 0  350000 1250000 0  400000 1250000 0  450000 1250000 0  500000 1250000 0  550000 1250000 0  600000 1250000 0  650000 1250000 0  700000 1250000 0  750000 1250000 0  800000 1250000 0  850000 1250000 0  900000 1250000 0  950000 1250000 0  1000000 1250000 0  0 1300000 0  50000 1300000 0  100000 1300000 0  150000 1300000 0  200000 1300000 0  250000 1300000 0  300000 1300000 0  350000 1300000 0  400000 1300000 0  450000 1300000 0  500000 1300000 0  550000 1300000 0  600000 1300000 0  650000 1300000 0  700000 1300000 0  750000 1300000 0  800000 1300000 0  850000 1300000 0  900000 1300000 0  950000 1300000 0  1000000 1300000 0  0 1350000 0  50000 1350000 0  100000 1350000 0  150000 1350000 0  200000 1350000 0  250000 1350000 0  300000 1350000 0  350000 1350000 0  400000 1350000 0  450000 1350000 0  500000 1350000 0  550000 1350000 0  600000 1350000 0  650000 1350000 0  700000 135
[...]
<PointData  Scalars="f_25027"> 
<DataArray  type="Float64"  Name="f_25027"  format="ascii">-1.3006518853188927e-03  -2.9623934960569344e-05  -6.4239965778001144e-05  2.0505312936859742e-05  6.9043078493734945e-05  1.0504898122434860e-04  1.3619383795672303e-04  1.6352518316752008e-04  1.8863754530020870e-04  2.1243903577451397e-04  2.3562843727757086e-04  2.5881691074527432e-04  2.8261828019959481e-04  3.0771485384315270e-04  3.3504795886546125e-04  3.6639121771604195e-04  4.0039809858127823e-04  4.5778751546953449e-04  5.3199454092597474e-04  3.2033253178206982e-04  4.2519716048892483e-03  -1.5217804093294474e-04  -9.7997885412583939e-05  -7.6909203407728939e-05  2.7146593242915764e-05  6.7256522529707608e-05  1.0495327866178501e-04  1.3603891875953267e-04  1.6341118651046099e-04  1.8858204912378552e-04  2.1242384915071857e-04  2.3565413963753351e-04  2.5888737150325271e-04  2.8273791715465629e-04  3.0791583831377871e-04  3.3538682721226252e-04  3.6632636728417751e-04  4.0383467080321977e-04  4.5268893124364386e-04  4.9913115436865348e-04  7.5318464518651365e-04  4.5980900932223281e-04  -5.2745434697932880e-05  -6.8351161996271198e-05  -2.5983903833741280e-06  4.3485587587587027e-05  7.5876204398158369e-05  1.1084867742055930e-04  1.3938477085533989e-04  1.6555482724465707e-04  1.8985612048009711e-04  2.1304041249152635e-04  2.3570649917051563e-04  2.5838156227020947e-04  2.8159932864226433e-04  3.0596260985357797e-04  3.3220707478038403e-04  3.6138907038127730e-04  3.9499684348793537e-04  4.3339163942381380e-04  4.8942763470410304e-04  5.0778246733416846e-04  5.1060768920971149e-04  1.3717430148904373e-05  1.7499569165378161e-05  3.9248243391624964e-05  6.2044642089143401e-05  9.2326644319523947e-05  1.2027528767638907e-04  1.4544828639040405e-04  1.6948869157521918e-04  1.9219978628175406e-04  2.1415709274170855e-04  2.3574030061813872e-04  2.5733586397648381e-04  2.7933348125358379e-04  3.0214551185468789e-04  3.2622581237436968e-04  3.5204888957681687e-04  3.7986319753753709e-04  4.1004255451544105e-04  4.3698295280328406e-04  4.5660942535406780e-04  4.6580182836965543e-04  5.9560734733078461e-05  5.8636124097955150e-05  6.9045793720405387e-05  8.7868258378766699e-05  1.0977149385952664e-04  1.3140541506889112e-04  1.5328348019844591e-04  1.7461259798359991e-04  1.9532122469491961e-04  2.1565023059897084e-04  2.3576629415493518e-04  2.5589683796274978e-04  2.7626336867980718e-04  2.9707535891275829e-04  3.1849480035020159e-04  3.4054129813271597e-04  3.6293606655415570e-04  3.8437282218925316e-04  4.0251089131691033e-04  4.1321936019576703e-04  4.0958437065621953e-04  9.0307671481640054e-05  8.9951402393499943e-05  9.7220023393605610e-05  1.0980622885471824e-04  1.2553522886307530e-04  1.4321952920945990e-04  1.6171010113503586e-04  1.8029061827439975e-04  1.9886219153287128e-04  2.1735022272293994e-04  2.3577808619237151e-04  2.5421924067898420e-04  2.7274073714089427e-04  2.9137760453007904e-04  3.1007750696969162e-04  3.2861342157140713e-04  3.4641267121352919e-04  3.6238744072718553e-04  3.7476448576586187e-04  3.8118218834666507e-04  3.8102515175690739e-04  1.1408802968968496e-04  1.1382276133429571e-04  1.1870946792427497e-04  1.2781933999694961e-04  1.4012763885406081e-04  1.5445831108576509e-04  1.6992275316710310e-04  1.8604416823539752e-04  2.0250537318462208e-04  2.1911129639613273e-04  2.3577914690486138e-04  2.5245624432597067e-04  2.6908973443675775e-04  2.8558860027243726e-04  3.0177358084528287e-04  3.1731040100271905e-04  3.3163080473761690e-04  3.4386426839455678e-04  3.5286633737712528e-04  3.5752468122019491e-04  3.5710000765070327e-04  1.3258043753531192e-04  1.3234181800221760e-04  1.3599466998861806e-04  1.4301962903855533e-04  1.5275632657799784e-04  1.6446159759904417e-04  1.7753678263391422e-04  1.9150249424363235e-04  2.0600637162001986e-04  2.2081787829843094e-04  2.3577133783831696e-04  2.5073017455344132e-04  2.6555900654405215e-04  2.8008796995471978e-04  2.9407618553228576e-04  3.0717230931904567e-04  3.1888026724590321e-04  3.2855441096779593e-04  3.3546652864342984e-04  3.3894080046050265e-04  3.3861467871716189e-04  1.4719516165398783e-04  1.4700046285939059e-04  1.4985931245901460e-04  1.5544881282707643e-04  1.6337590550250609e-04  1.7314936952402677e-04  1.8430244768479509e-04  1.9642950261466901e-04  2.0921010567666876e-04  2.2238950343360031e-04  2.3575745818040438e-04  2.4912848381452939e-04  2.6231632820565836e-04  2.7510912797681182e-04  2.8724571275291896e-04  2.9839487795289696e-04  3.0814575174341574e-04  3.1602277638106616e-04  3.2153656210960038e-04  3.2427476136016468e-04  3.2402855742655974e-04  1.5878073445304024e-04  1.5861343176019416e-04  1.6093730524388878e-04  1.6554218170257139e-04  1.7217070114540665e-04  1.8047398430815715e-04  1.9009878188293417e-04  2.0071354751472701e-04  2.1202477429675421e-04  2.2377589549239495e-04  2.3574009030074352e-04  2.4770572547904747e-04  2.5946017750503935e-04  2.7077431365452232e-04  2.8138848601958768e-04  2.9100362669282938e-04  2.9928238496974597e-04  3.0586673510333174e-04  3.1041480189986613e-04  3.1265624397729125e-04  3.1245092638192894e-04  1.6789532519994671e-04  1.6774855543528642e-04  1.6970197450430954e-04  1.7360739263748827e-04  1.7928497293904201e-04  1.8647853779828606e-04  1.9491260501151034e-04  2.0430908861960529e-04  2.1440396387773281e-04  2.2495142896139625e-04  2.3572119498300445e-04  2.4649122831736891e-04  2.5703899046441769e-04  2.6713249568802036e-04  2.7652339002814854e-04  2.8494471212872944e-04  2.9211599974455951e-04  2.9775894690657433e-04  3.0162221552686055e-04  3.0351672267062271e-04  3.0334344685241252e-04  1.7492906370933641e-04  1.7479718197366842e-04  1.7648904269668980e-04  1.7989407349745652e-04  1.8487861904760661e-04  1.9124414180316258e-04  1.9876681034604993e-04  2.0720901564714008e-04  2.1633301883889860e-04  2.2590615687227816e-04  2.3570186215706183e-04  2.4549726133111209e-04  2.5506913915069695e-04  2.6418990591084245e-04  2.7262533843596895e-04  2.8013584886318725e-04  2.8648269277418542e-04  2.9144076086405960e-04  2.9481509090062218e-04  2.9646522853659453e-04  2.9631461190090494e-04  1.8015559674742644e-04  1.8003399094542889e-04  1.8154305460859371e-04  1.8459576968728541e-04  1.8908583922694545e-04  1.9485087126831091e-04  2.0170129815504193e-04  2.0942815791436995e-04  2.1781407959283507e-04  2.2663891703866189e-04  2.3568269343745372e-04  2.4472598879617173e-04  2.5354915300799277e-04  2.6193157060622982e-04  2.6965221411863835e-04  2.7649271119543526e-04  2.8224355941951684e-04  2.8671451882647346e-04  2.8974572979112309e-04  2.9122614190202513e-04  2.9109169263279020e-04  1.8376527444529213e-04  1.8365009478774373e-04  1.8503732545327087e-04  1.8785492383201300e-04  1.9201242381322673e-04  1.9736947242331209e-04  2.0375800229047628e-04  2.1098791716728745e-04  2.1885626541568901e-04  2.2715281880363635e-04  2.3566393301414934e-04  2.4417461545357027e-04  2.5246974813566899e-04  2.6033533249221415e-04  2.6756066015165770e-04  2.7394226338275967e-04  2.7928982852821013e-04  2.8343495240276928e-04  2.8623887952512343e-04  2.8760811594802436e-04  2.8748488722048741e-04  1.8588379257269890e-04  1.8577159254270375e-04  1.8708763962492400e-04  1.8976922335359371e-04  1.9373389656359932e-04  1.9885329708624572e-04  2.0497116074386142e-04  2.1190810491194859e-04  2.1946970085654483e-04  2.2745194611388435e-04  2.3564556052964897e-04  2.4383892846667921e-04  2.5182037902173727e-04  2.5938047707097574e-04  2.6631501319219748e-04  2.7242933996542834e-04  2.7754400074588026e-04  2.8150259311762065e-04  2.8417752890956782e-04  2.8548488585901789e-04  2.8536880206623904e-04  1.8658290771221759e-04  1.8647041689736680e-04  1.8776046876006026e-04  1.9039553773454466e-04  1.9429518554246926e-04  1.9933508752082181e-04  2.0536270569386126e-04  2.1220211199378717e-04  2.1966163325244910e-04  2.2753932695627929e-04  2.3562741361606607e-04  2.4371550027592846e-04  2.5159319397998007e-04  2.5905271523898654e-04  2.6589212153934504e-04  2.7191973971286206e-04  2.7695964169168304e-04  2.8085928950001489e-04  2.8349435847479701e-04  2.8478441033764136e-04  2.8467191952280090e-04  1.8588602516878835e-04  1.8576994137599898e-04  1.8707729832529417e-04  1.8975223411693386e-04  1.9371082648825442e-04  1.9882548726822235e-04  2.0493981404096144e-04  2.1187435016173747e-04  2.1943444821062098e-04  2.2741589876545270e-04  2.3560926670240616e-04  2.4380288111825108e-04  2.5178512637582092e-04  2.5934672232077500e-04  2.6628366648931347e-04  2.7240153014742680e-04  2.7752093067056379e-04  2.8148560388099571e-04  2.8416718760997849e-04  2.8548323469235784e-04  2.8537103466237424e-04  1.8376994001461191e-04  1.8364671128706569e-04  1.8501594770979466e-04  1.8781987483180700e-04  1.9196499870589815e-04  1.9731256385081155e-04  2.0369416708136947e-04  2.1091949474032152e-04  2.1878507909647832e-04  2.2708021177832987e-04  2.3559089421766754e-04  2.4410200842826994e-04  2.5239856181647163e-04  2.6026691006526993e-04  2.6749682494258282e-04  2.7388535481030302e-04  2.7924240342093882e-04  2.8339990340263340e-04  2.8621750178173028e-04  2.8760473244743859e-04  2.8748955278990211e-04  1.8016313460245953e-04  1.8002868533321354e-04  1.8150909744391180e-04  1.8454030840815336e-04  1.8901126781455400e-04  1.9476211603800013e-04  2.0160261311415856e-04  2.0932325662599430e-04  2.1770567422378198e-04  2.2652883843531817e-04  2.3557213379394142e-04  2.4461591019283712e-04  2.5344074763895841e-04  2.6182666931788459e-04  2.6955352907780073e-04  2.7640395596518840e-04  2.8216898800721024e-04  2.8665905754744948e-04  2.8971177262656885e-04  2.9122083628995327e-04  2.9109923048796987e-04  1.7494021533458857e-04  1.7478959869888770e-04  1.7643973633460421e-04  1.7981406637065272e-04  1.8477213445982867e-04  1.9111897837003703e-04  1.9862948879647112e-04  2.0706492132090175e-04  2.1618568808050705e-04  2.2575756589975207e-04  2.3555296507368943e-04  2.4534867035859616e-04  2.5492180839232711e-04  2.6404581158464066e-04  2.7248801688644595e-04  2.8001068543014317e-04  2.8637620818652029e-04  2.9136075373740198e-04  2.9476578453871476e-04  2.9645764526201724e-04  2.9632576352636567e-04  1.6791138038345398e-04  1.6773810456523165e-04  1.6963261170865697e-04  1.7349588032826381e-04  1.7913882748936505e-04  1.8631011510417654e-04  1.9473143720376320e-04  2.0412233154302453e-04  2.1421583676596378e-04  2.2476359891259896e-04  2.3553363224682603e-04  2.4630339826858122e-04  2.5685086335266983e-04  2.6694573861147779e-04  2.7634222222046328e-04  2.8477628943471511e-04  2.9196985429501954e-04  2.9764743459753640e-04  3.0155285273144379e-04  3.0350627180084322e-04  3.0335950203620336e-04  1.5880390085448720e-04  1.5859858325911416e-04  1.6084002533607665e-04  1.6538809213167898e-04  1.7197244226402732e-04  1.8025120053959570e-04  1.8986634121155395e-04  2.0048051357552770e-04  2.1179464972419265e-04  2.2354910174968224e-04  2.3551473692781855e-04  2.4747893173634160e-04  2.5923005293249551e-04  2.7054127971535728e-04  2.8115604534826520e-04  2.9078084292436407e-04  2.9908412608852100e-04  3.0571264553266771e-04  3.1031752199235895e-04  3.1264139547657733e-04  3.1247409278375689e-04  1.4722626981066698e-04  1.4698006587704615e-04  1.4971826512695239e-04  1.5523205085415947e-04  1.6310907549008696e-04  1.7285994927879111e-04  1.8400911447710329e-04  1.9614569925184428e-04  2.0893849902200288e-04  2.2212634341253255e-04  2.3549736904645874e-04  2.4886532379346521e-04  2.6204472155100185e-04  2.7482532461400552e-04  2.8695237954527085e-04  2.9810545770775636e-04  3.0787892173116382e-04  3.1580601440841198e-04  3.2139551477792068e-04  3.2425436437831127e-04  3.2405966558374792e-04  1.3264014852121166e-04  1.3231402677788597e-04  1.3578829859398935e-04  1.4270041626765508e-04  1.5237455998709089e-04  1.6408251791148531e-04  1.7717864169610394e-04  1.9116685727200078e-04  2.0569582068150283e-04  2.2052465267143184e-04  2.3548348938633179e-04  2.5043694892644018e-04  2.6524845560552970e-04  2.7975233298308975e-04  2.9371804459449969e-04  3.0679322963152254e-04  3.1849850065508695e-04  3.2823519819716286e-04  3.3526015724929923e-04  3.3891300923685270e-04  3.3867438970378131e-04  1.1415481958936268e-04  1.1373014601999862e-04  1.1838848986147306e-04  1.2739055884102357e-04  1.3962402249437938e-04  1.5394442622594835e-04  1.6948124638071680e-04  1.8566622695162977e-04  2.0216509278603854e-04  2.1879858289611205e-04  2.3547568031698975e-04  2.5214353082593966e-04  2.6874945403815553e-04  2.8521065898865389e-04  3.0133207405883949e-04  3.1679651614286439e-04  3.3112718837812518e-04  3.4343548723903417e-04  3.5254535931492315e-04  3.5743206590672244e-04  3.5716679755145041e-04  9.0229675486460013e-05  9.0072638895891054e-05  9.6490341474364009e-05  1.0886738650810215e-04  1.2484215601642497e-04  1.4264140565419751e-04  1.6117732025281340e-04  1.7987722269041919e-04  1.9851409007839589e-04  2.1703558653966877e-04  2.3547674102607972e-04  2.5390460449569601e-04  2.7239263568639555e-04  2.9096420894603338e-04  3.0954472608737087e-04  3.2803529801620607e-04  3.4571959836661984e-04  3.6144859837986004e-04  3.7403480384695111e-04  3.8130342485096251e-04  3.8094715576277656e-04  6.1670456586368578e-05  5.8035467051372406e-05  6.8743935925405552e-05  8.6882005044084981e-05  1.0831876067160952e-04  1.3071352908779392e-04  1.5276002686728994e-04  1.7417946830309568e-04  1.9499145853521397e-04  2.1535798925188714e-04  2.3548853305958536e-04  2.5560459661564576e-04  2.7593360252006570e-04  2.9664222923215535e-04  3.1797134701906399e-04  3.3984941215131392e-04  3.6148333336523744e-04  3.8338656885626390e-04  4.0220903352480825e-04  4.1261870315103817e-04  4.1169409251476635e-04  5.4529988939958569e-06  1.4645401902912937e-05  3.4271874437934887e-05  6.1212272712108141e-05  9.1391629679319882e-05  1.1920593763558329e-04  1.4502901483627248e-04  1.6910931535547375e-04  1.9192134595656302e-04  2.1391896323375340e-04  2.3551452659213430e-04  2.5709773446850383e-04  2.7905504092834134e-04  3.0176613563488058e-04  3.2580654082023342e-04  3.5097953953535841e-04  3.7892818289870156e-04  4.0921018513656994e-04  4.3200658383748831e-04  4.5375525808777090e-04  4.5753739711479189e-04  -3.9352861955567819e-05  -3.6527640086956933e-05  -1.8172807468811471e-05  3.7863187781314031e-05  7.6257983712563798e-05  1.0986575681919273e-04  1.3904775242174427e-04  1.6529221735019000e-04  1.8965549856277180e-04  2.1287326493559238e-04  2.3554832803552992e-04  2.5821441471423728e-04  2.8139870672487277e-04  3.0569999995903809e-04  3.3187005634659645e-04  3.6040614978021521e-04  3.9537862280306655e-04  4.2776923961236851e-04  4.7385321762589722e-04  5.3960598931063663e-04  5.2400026196838974e-04  1.1445818084918028e-05  -2.8192981793375961e-04  -2.7876327198401269e-05  1.8565895929109834e-05  6.7420156377439699e-05  1.0492845990502796e-04  1.3586799998243433e-04  1.6333898888484490e-04  1.8851691004644289e-04  2.1236745569921256e-04  2.3560068756534332e-04  2.5883097805165869e-04  2.8267277807713775e-04  3.0784364068782937e-04  3.3521590843478197e-04  3.6630154852703589e-04  4.0399830464720821e-04  4.4410823393438350e-04  5.4816403057898386e-04  5.6925271252807475e-04  6.2343286819607985e-04  -3.7807167759215266e-03  1.5092229520806985e-04  -6.0739713729006122e-05  1.3467311712440868e-05  7.0856728601119244e-05  1.0486360947315592e-04  1.3620686832957246e-04  1.6353997335557700e-04  1.8863654700155310e-04  2.1243791645721689e-04  2.3562638992531351e-04  2.5881579142785849e-04  2.8261728190069396e-04  3.0772964403076543e-04  3.3506098923771522e-04  3.6620584596369610e-04  4.0221174868627056e-04  4.5074951424417455e-04  5.3549479292618139e-04  5.0087876212212578e-04  1.7719067135864451e-03  </DataArray> 
</PointData> 
</Piece>
</UnstructuredGrid>
</VTKFile>