<?xml version="1.0"?>
<VTKFile type="UnstructuredGrid"  version="0.1"  >
<UnstructuredGrid>
<Piece  NumberOfPoints="651" NumberOfCells="1200">
<Points>
<DataArray  type="Float64"  NumberOfComponents="3"  format="ascii">0 0 0  50000 0 0  100000 0 0  150000 0 0  200000 0 0  250000 0 0  300000 0 0  350000 0 0  400000 0 0  450000 0 0  500000 0 0  550000 0 0  600000 0 0  650000 0 0  700000 0 0  750000 0 0  800000 0 0  850000 0 0  900000 0 0  950000 0 0  1000000 0 0  0 50000 0  50000 50000 0  100000 50000 0  150000 50000 0  200000 50000 0  250000 50000 0  300000 50000 0  350000 50000 0  400000 50000 0  450000 50000 0  500000 50000 0  550000 50000 0  600000 50000 0  650000 50000 0  700000 50000 0  750000 50000 0  800000 50000 0  850000 50000 0  900000 50000 0  950000 50000 0  1000000 50000 0  0 100000 0  50000 100000 0  100000 100000 0  150000 100000 0  200000 100000 0  250000 100000 0  300000 100000 0  350000 100000 0  400000 100000 0  450000 100000 0  500000 100000 0  550000 100000 0  600000 100000 0  650000 100000 0  700000 100000 0  750000 100000 0  800000 100000 0  850000 100000 0  900000 100000 0  950000 100000 0  1000000 100000 0  0 150000 0  50000 150000 0  100000 150000 0  150000 150000 0  200000 150000 0  250000 150000 0  300000 150000 0  350000 150000 0  400000 150000 0  450000 150000 0  500000 150000 0  550000 150000 0  600000 150000 0  650000 150000 0  700000 150000 0  750000 150000 0  800000 150000 0  850000 150000 0  900000 150000 0  950000 150000 0  1000000 150000 0  0 200000 0  50000 200000 0  100000 200000 0  150000 200000 0  200000 200000 0  250000 200000 0  300000 200000 0  350000 200000 0  400000 200000 0  450000 200000 0  500000 200000 0  550000 200000 0  600000 200000 0  650000 200000 0  700000 200000 0  750000 200000 0  800000 200000 0  850000 200000 0  900000 200000 0  950000 200000 0  1000000 200000 0  0 250000 0  50000 250000 0  100000 250000 0  150000 250000 0  200000 250000 0  250000 250000 0  300000 250000 0  350000 250000 0  400000 250000 0  450000 250000 0  500000 250000 0  550000 250000 0  600000 250000 0  650000 250000 0  700000 250000 0  750000 250000 0  800000 250000 0  850000 250000 0  900000 250000 0  950000 250000 0  1000000 250000 0  0 300000 0  50000 300000 0  100000 300000 0  150000 300000 0  200000 300000 0  250000 300000 0  300000 300000 0  350000 300000 0  400000 300000 0  450000 300000 0  500000 300000 0  550000 300000 0  600000 300000 0  650000 300000 0  700000 300000 0  750000 300000 0  800000 300000 0  850000 300000 0  900000 300000 0  950000 300000 0  1000000 300000 0  0 350000 0  50000 350000 0  100000 350000 0  150000 350000 0  200000 350000 0  250000 350000 0  300000 350000 0  350000 350000 0  400000 350000 0  450000 350000 0  500000 350000 0  550000 350000 0  600000 350000 0  650000 350000 0  700000 350000 0  750000 350000 0  800000 350000 0  850000 350000 0  900000 350000 0  950000 350000 0  1000000 350000 0  0 400000 0  50000 400000 0  100000 400000 0  150000 400000 0  200000 400000 0  250000 400000 0  300000 400000 0  350000 400000 0  400000 400000 0  450000 400000 0  500000 400000 0  550000 400000 0  600000 400000 0  650000 400000 0  700000 400000 0  750000 400000 0  800000 400000 0  850000 400000 0  900000 400000 0  950000 400000 0  1000000 400000 0  0 450000 0  50000 450000 0  100000 450000 0  150000 450000 0  200000 450000 0  250000 450000 0  300000 450000 0  350000 450000 0  400000 450000 0  450000 450000 0  500000 450000 0  550000 450000 0  600000 450000 0  650000 450000 0  700000 450000 0  750000 450000 0  800000 450000 0  850000 450000 0  900000 450000 0  950000 450000 0  1000000 450000 0  0 500000 0  50000 500000 0  100000 500000 0  150000 500000 0  200000 500000 0  250000 500000 0  300000 500000 0  350000 500000 0  400000 500000 0  450000 500000 0  500000 500000 0  550000 500000 0  600000 500000 0  650000 500000 0  700000 500000 0  750000 500000 0  800000 500000 0  850000 500000 0  900000 500000 0  950000 500000 0  1000000 500000 0  0 550000 0  50000 550000 0  100000 550000 0  150000 550000 0  200000 550000 0  250000 550000 0  300000 550000 0  350000 550000 0  400000 550000 0  450000 550000 0  500000 550000 0  550000 550000 0  600000 550000 0  650000 550000 0  700000 550000 0  750000 550000 0  800000 550000 0  850000 550000 0  900000 550000 0  950000 550000 0  1000000 550000 0  0 600000 0  50000 600000 0  100000 600000 0  150000 600000 0  200000 600000 0  250000 600000 0  300000 600000 0  350000 600000 0  400000 600000 0  450000 600000 0  500000 600000 0  550000 600000 0  600000 600000 0  650000 600000 0  700000 600000 0  750000 600000 0  800000 600000 0  850000 600000 0  900000 600000 0  950000 600000 0  1000000 600000 0  0 650000 0  50000 650000 0  100000 650000 0  150000 650000 0  200000 650000 0  250000 650000 0  300000 650000 0  350000 650000 0  400000 650000 0  450000 650000 0  500000 650000 0  550000 650000 0  600000 650000 0  650000 650000 0  700000 650000 0  750000 650000 0  800000 650000 0  850000 650000 0  900000 650000 0  950000 650000 0  1000000 650000 0  0 700000 0  50000 700000 0  100000 700000 0  150000 700000 0  200000 700000 0  250000 700000 0  300000 700000 0  350000 700000 0  400000 700000 0  450000 700000 0  500000 700000 0  550000 700000 0  600000 700000 0  650000 700000 0  700000 700000 0  750000 700000 0  800000 700000 0  850000 700000 0  900000 700000 0  950000 700000 0  1000000 700000 0  0 750000 0  50000 750000 0  100000 750000 0  150000 750000 0  200000 750000 0  250000 750000 0  300000 750000 0  350000 750000 0  400000 750000 0  450000 750000 0  500000 750000 0  550000 750000 0  600000 750000 0  650000 750000 0  700000 750000 0  750000 750000 0  800000 750000 0  850000 750000 0  900000 750000 0  950000 750000 0  1000000 750000 0  0 800000 0  50000 800000 0  100000 800000 0  150000 800000 0  200000 800000 0  250000 800000 0  300000 800000 0  350000 800000 0  400000 800000 0  450000 800000 0  500000 800000 0  550000 800000 0  600000 800000 0  650000 800000 0  700000 800000 0  750000 800000 0  800000 800000 0  850000 800000 0  900000 800000 0  950000 800000 0  1000000 800000 0  0 850000 0  50000 850000 0  100000 850000 0  150000 850000 0  200000 850000 0  250000 850000 0  300000 850000 0  350000 850000 0  400000 850000 0  450000 850000 0  500000 850000 0  550000 850000 0  600000 850000 0  650000 850000 0  700000 850000 0  750000 850000 0  800000 850000 0  850000 850000 0  900000 850000 0  950000 850000 0  1000000 850000 0  0 900000 0  50000 900000 0  100000 900000 0  150000 900000 0  200000 900000 0  250000 900000 0  300000 900000 0  350000 900000 0  400000 900000 0  450000 900000 0  500000 900000 0  550000 900000 0  600000 900000 0  650000 900000 0  700000 900000 0  750000 900000 0  800000 900000 0  850000 900000 0  900000 900000 0  950000 900000 0  1000000 900000 0  0 950000 0  50000 950000 0  100000 950000 0  150000 950000 0  200000 950000 0  250000 950000 0  300000 950000 0  350000 950000 0  400000 950000 0  450000 950000 0  500000 950000 0  550000 950000 0  600000 950000 0  650000 950000 0  700000 950000 0  750000 950000 0  800000 950000 0  850000 950000 0  900000 950000 0  950000 950000 0  1000000 950000 0  0 1000000 0  50000 1000000 0  100000 1000000 0  150000 1000000 0  200000 1000000 0  250000 1000000 0  300000 1000000 0  350000 1000000 0  400000 1000000 0  450000 1000000 0  500000 1000000 0  550000 1000000 0  600000 1000000 0  650000 1000000 0  700000 1000000 0  750000 1000000 0  800000 1000000 0  850000 1000000 0  900000 1000000 0  950000 1000000 0  1000000 1000000 0  0 1050000 0  50000 1050000 0  100000 1050000 0  150000 1050000 0  200000 1050000 0  250000 1050000 0  300000 1050000 0  350000 1050000 0  400000 1050000 0  450000 1050000 0  500000 1050000 0  550000 1050000 0  600000 1050000 0  650000 1050000 0  700000 1050000 0  750000 1050000 0  800000 1050000 0  850000 1050000 0  900000 1050000 0  950000 1050000 0  1000000 1050000 0  0 1100000 0  50000 1100000 0  100000 1100000 0  150000 1100000 0  200000 1100000 0  250000 1100000 0  300000 1100000 0  350000 1100000 0  400000 1100000 0  450000 1100000 0  500000 1100000 0  550000 1100000 0  600000 1100000 0  650000 1100000 0  700000 1100000 0  750000 1100000 0  800000 1100000 0  850000 1100000 0  900000 1100000 0  950000 1100000 0  1000000 1100000 0  0 1150000 0  50000 1150000 0  100000 1150000 0  150000 1150000 0  200000 1150000 0  250000 1150000 0  300000 1150000 0  350000 1150000 0  400000 1150000 0  450000 1150000 0  500000 1150000 0  550000 1150000 0  600000 1150000 0  650000 1150000 0  700000 1150000 0  750000 1150000 0  800000 1150000 0  850000 1150000 0  900000 1150000 0  950000 1150000 0  1000000 1150000 0  0 1200000 0  50000 1200000 0  100000 1200000 0  150000 1200000 0  200000 1200000 0  250000 1200000 0  300000 1200000 0  350000 1200000 0  400000 1200000 0  450000 1200000 0  500000 1200000 0  550000 1200000 0  600000 1200000 0  650000 1200000 0  700000 1200000 0  750000 1200000 0  800000 1200000 0  850000 1200000 0  900000 1200000 0  950000 1200000 0  1000000 1200000 0  0 1250000 0  50000 1250000 0  100000 1250000 0  150000 1250000 0  200000 1250000 0  250000 1250000 0  300000 1250000 0  350000 1250000 0  400000 1250000 0  450000 1250000 0  500000 1250000 0  550000 1250000 0  600000 1250000 0  650000 1250000 0  700000 1250000 0  750000 1250000 0  800000 1250000 0  850000 1250000 0  900000 1250000 0  950000 1250000 0  1000000 1250000 0  0 1300000 0  50000 1300000 0  100000 1300000 0  150000 1300000 0  200000 1300000 0  250000 1300000 0  300000 1300000 0  350000 1300000 0  400000 1300000 0  450000 1300000 0  500000 1300000 0  550000 1300000 0  600000 1300000 0  650000 1300000 0  700000 1300000 0  750000 1300000 0  800000 1300000 0  850000 1300000 0  900000 1300000 0  950000 1300000 0  1000000 1300000 0  0 1350000 0  50000 1350000 0  100000 1350000 0  150000 1350000 0  200000 1350000 0  250000 1350000 0  300000 1350000 0  350000 1350000 0  400000 1350000 0  450000 1350000 0  500000 1350000 0  550000 1350000 0  600000 1350000 0  650000 1350000 0  700000 135
[...]
<PointData  Scalars="f_25027"> 
<DataArray  type="Float64"  Name="f_25027"  format="ascii">-5.1654101979262796e-04  1.0383275822061436e-04  1.1831122837281250e-04  1.6958908259812378e-04  2.0409037413906072e-04  2.3014886500465130e-04  2.5253224958714801e-04  2.7237401691205024e-04  2.9064767822955650e-04  3.0800188178190256e-04  3.2492674746648005e-04  3.4185163019222182e-04  3.5920563899029349e-04  3.7747630318203581e-04  3.9732967175289211e-04  4.1972876043137441e-04  4.4525055161312595e-04  4.8311242725758923e-04  5.2925765491240370e-04  4.7257460748624156e-04  2.3074451185250092e-03  5.4790558513525226e-05  9.2407815602137922e-05  1.1565046854813252e-04  1.7460545322785077e-04  2.0472100719408977e-04  2.3075167256446532e-04  2.5291329244944678e-04  2.7260391413420866e-04  2.9078934668086447e-04  3.0807649283287006e-04  3.2494486656703343e-04  3.4181525311081630e-04  3.5910835092988765e-04  3.7730740229803881e-04  3.9703695007007337e-04  4.1914729752687459e-04  4.4542046881939810e-04  4.7815716726173083e-04  5.1461264894590408e-04  6.4620110996999589e-04  5.1458291015135551e-04  1.2092351324389779e-04  1.1890704702774793e-04  1.5687349599294284e-04  1.8777140904664518e-04  2.1170859333399230e-04  2.3528224098135243e-04  2.5569498898445043e-04  2.7436819998014365e-04  2.9184754824702886e-04  3.0858801418910843e-04  3.2498150626833141e-04  3.4138165347643261e-04  3.5814415555546409e-04  3.7566494643030739e-04  3.9442378235280182e-04  4.1506982497252395e-04  4.3842400126594262e-04  4.6509173199798571e-04  5.0014423911350482e-04  5.1828280169939080e-04  5.2633520629796521e-04  1.6536604654600491e-04  1.6935678608164781e-04  1.8499290246118955e-04  2.0234497540570960e-04  2.2275747822169396e-04  2.4220510862262468e-04  2.6020129295950279e-04  2.7729836235886127e-04  2.9361501473870678e-04  3.0943042316303464e-04  3.2500391986044398e-04  3.4058610321527740e-04  3.5643030978032105e-04  3.7280200692335261e-04  3.8998415860898788e-04  4.0825310665911331e-04  4.2776604359811660e-04  4.4851149422549383e-04  4.6764312656919648e-04  4.8182572665008230e-04  4.8731798506231343e-04  1.9669489218761504e-04  1.9777977270355758e-04  2.0619289792450155e-04  2.1939123077653472e-04  2.3470442696314729e-04  2.5023197928687160e-04  2.6577143902448917e-04  2.8100485968003902e-04  2.9588708212038200e-04  3.1051921154351029e-04  3.2502231494813127e-04  3.3953451024323005e-04  3.5419579006070167e-04  3.6913518410407875e-04  3.8444580683497695e-04  4.0012660992276642e-04  4.1596472446858560e-04  4.3117296561630909e-04  4.4419620759903822e-04  4.5252109671225821e-04  4.5262237814186403e-04  2.1858707366263728e-04  2.1931452379885254e-04  2.2508405511799384e-04  2.3437709645330487e-04  2.4582764376098056e-04  2.5849049806217012e-04  2.7170221008141160e-04  2.8505603165438620e-04  2.9841659581715101e-04  3.1173817992933851e-04  3.2503087681176509e-04  3.3833157152694430e-04  3.5167751916959523e-04  3.6508253414364059e-04  3.7850237247358790e-04  3.9177735279038078e-04  4.0453240605062198e-04  4.1605907016028127e-04  4.2523238178213471e-04  4.3059687589653461e-04  4.3129354395479399e-04  2.3546931719718988e-04  2.3598950291067088e-04  2.4006463552691577e-04  2.4695555760841515e-04  2.5595062240362963e-04  2.6631392888084519e-04  2.7748747271200147e-04  2.8911995092565783e-04  3.0099637280903081e-04  3.1298961481127389e-04  3.2503170931544615e-04  3.3707988385813030e-04  3.4909113736030650e-04  3.6099660422034171e-04  3.7266970285122390e-04  3.8388374095105936e-04  3.9426116025133615e-04  4.0323307386738272e-04  4.1005067704178312e-04  4.1394935356717954e-04  4.1438796341022020e-04  2.4870517278035491e-04  2.4908119531647904e-04  2.5216535969747005e-04  2.5753739679158425e-04  2.6475775704382180e-04  2.7332786206427703e-04  2.8283515313388665e-04  2.9295949456988778e-04  3.0346756510233952e-04  3.1419616688089331e-04  3.2502661204620665e-04  3.3586104381691252e-04  3.4660123022395702e-04  3.5712655735660871e-04  3.6727006331247034e-04  3.7679285654514550e-04  3.8536215496874404e-04  3.9254714095696944e-04  3.9785437557504611e-04  4.0082340194015859e-04  4.0114440323833918e-04  2.5920519915254752e-04  2.5949779312486545e-04  2.6194235889045694e-04  2.6627299404292508e-04  2.7221328391926520e-04  2.7942240675493131e-04  2.8758453235396800e-04  2.9642590328748681e-04  3.0572495222108475e-04  3.1530436503888088e-04  3.2501738257128209e-04  3.3473266455803753e-04  3.4431836482384722e-04  3.5362600183772854e-04  3.6247469273669380e-04  3.7063761497875937e-04  3.7783525632695172e-04  3.8374395028299371e-04  3.8802569756988945e-04  3.9039014397834282e-04  3.9064818065327267e-04  2.6755356365255987e-04  2.6779037917153484e-04  2.6979811593156277e-04  2.7339729268315634e-04  2.7840396690083082e-04  2.8457386083311664e-04  2.9166280054076892e-04  2.9944161001864493e-04  3.0770716314861387e-04  3.1628148150937850e-04  3.2500572530027628e-04  3.3373102179702987e-04  3.4230801721028755e-04  3.5057642580431153e-04  3.5835578994490136e-04  3.6543945708633987e-04  3.7159482600598962e-04  3.7657419610509973e-04  3.8013654312390777e-04  3.8208822755582986e-04  3.8230053212007253e-04  2.7413796806475139e-04  2.7433608098633827e-04  2.7603717258819366e-04  2.7911200568173219e-04  2.8343033243585168e-04  2.8880932580590434e-04  2.9505547009775842e-04  3.0197495384170234e-04  3.0938381210191153e-04  3.1711026678391338e-04  3.2499286537817387e-04  3.3287575759226280e-04  3.4060273275948261e-04  3.4801127427479890e-04  3.5492793495581567e-04  3.6116664483778495e-04  3.6653173616364764e-04  3.7082786683314319e-04  3.7387498973789137e-04  3.7553597405457905e-04  3.7571662779715287e-04  2.7922904390581646e-04  2.7939992401582729e-04  2.8088315498149796e-04  2.8358020497499327e-04  2.8739305172039781e-04  2.9217814723985549e-04  2.9777657044795897e-04  3.0402105948831371e-04  3.1074458808290681e-04  3.1778381794215620e-04  3.2497959855220198e-04  3.3217527050953674e-04  3.3921393065047719e-04  3.4593572362123597e-04  3.5217625217276671e-04  3.5776725526455585e-04  3.6254051962046960e-04  3.6633618540130443e-04  3.6901280333538888e-04  3.7046742767667010e-04  3.7062593859821697e-04  2.8301779158981837e-04  2.8316955459194339e-04  2.8449983618735028e-04  2.8692951250792429e-04  2.9037999221222509e-04  2.9473267280123971e-04  2.9985170649305667e-04  3.0558881327435989e-04  3.1179038371154658e-04  3.1830122499299375e-04  3.2496635958285762e-04  3.3163123488204311e-04  3.3814114482962136e-04  3.4434067719355888e-04  3.5007400877856676e-04  3.5518683125953171e-04  3.5953039060384419e-04  3.6296835954954728e-04  3.6538362574684702e-04  3.6669418319005523e-04  3.6683744742585885e-04  2.8563731374847196e-04  2.8577615051409111e-04  2.8700430334828089e-04  2.8925501350885905e-04  2.9246103049673111e-04  2.9651907232914845e-04  3.0130791370723455e-04  3.0669189945797777e-04  3.1252696820358516e-04  3.1866440737075526e-04  3.2495332754350274e-04  3.3124199885730397e-04  3.3737860387163005e-04  3.4321200844313521e-04  3.4859315451411728e-04  3.5337761197833079e-04  3.5742950356291119e-04  3.6062736667854498e-04  3.6286887135934896e-04  3.6408460591199867e-04  3.6421810465641789e-04  2.8717561529756277e-04  2.8730659741097131e-04  2.8847519982489730e-04  2.9062226812404801e-04  2.9368633453498238e-04  2.9757249188167679e-04  3.0216759139546070e-04  3.0734317298971176e-04  3.1296084040915263e-04  3.1887597144687855e-04  3.2494051391235995e-04  3.3100491091754130e-04  3.3691956627585556e-04  3.4253631881258441e-04  3.4771039498261328e-04  3.5230324100087420e-04  3.5618631056773628e-04  3.5924635709286854e-04  3.6138893670392382e-04  3.6255153271341723e-04  3.6267993675687479e-04  2.8768296441225761e-04  2.8781055121573202e-04  2.8895779860863691e-04  2.9106957586903830e-04  2.9408587570882823e-04  2.9791459361204454e-04  3.0244513669589861e-04  3.0755135916171934e-04  3.1309669738905862e-04  3.1893788064477053e-04  3.2492783188775028e-04  3.3091778313074516e-04  3.3675896638650282e-04  3.4230430461391356e-04  3.4741052707982416e-04  3.5194107016377918e-04  3.5576978806709560e-04  3.5878608790697482e-04  3.6089786516744409e-04  3.6204511256038746e-04  3.6217269936386810e-04  2.8717572701924112e-04  2.8730413106269211e-04  2.8846672707214660e-04  2.9060930668313250e-04  2.9366935320817433e-04  2.9755242277493445e-04  3.0214526879309350e-04  3.0731934496303136e-04  3.1293609749968789e-04  3.1885075285795732e-04  3.2491514986312462e-04  3.3097969232862403e-04  3.3689482336639900e-04  3.4251249078591533e-04  3.4768807238026229e-04  3.5228317189415267e-04  3.5616932924095415e-04  3.5923339565198322e-04  3.6138046395120668e-04  3.6254906636517392e-04  3.6268004847858968e-04  2.8563755911970300e-04  2.8577105786411626e-04  2.8698679241672282e-04  2.8922829709745085e-04  2.9242616021298468e-04  2.9647805179745340e-04  3.0126250926155600e-04  3.0664365533243908e-04  3.1247705990386716e-04  3.1861366491814581e-04  3.2490233623193294e-04  3.3119125640470166e-04  3.3732869557192733e-04  3.4316376431762016e-04  3.4854775006847158e-04  3.5333659144667836e-04  3.5739463327921713e-04  3.6060065026719755e-04  3.6285136042785957e-04  3.6407951326209760e-04  3.6421835002772444e-04  2.8301821635028746e-04  2.8316148058608306e-04  2.8447203802924042e-04  2.8688730422644953e-04  2.9032527317203525e-04  2.9466883251621676e-04  2.9978165499705290e-04  3.0551498658194689e-04  3.1171451894579675e-04  3.1822442889332134e-04  3.2488930419249202e-04  3.3155443878238181e-04  3.3806528006389403e-04  3.4426685050118058e-04  3.5000395728261184e-04  3.5512299097457229e-04  3.5947567156373306e-04  3.6292615126816646e-04  3.6535582758884260e-04  3.6668610918430902e-04  3.6683787218644390e-04  2.7922972517797586e-04  2.7938823609951325e-04  2.8084286044073023e-04  2.8351947837470111e-04  2.8731514415538902e-04  2.9208840851114128e-04  2.9767941160277375e-04  3.0391994015416734e-04  3.1064173312482187e-04  3.1768039326569928e-04  3.2487606522301680e-04  3.3207184583309359e-04  3.3911107569242071e-04  3.4583460428713438e-04  3.5207909332764470e-04  3.5767751653592583e-04  3.6246261205556761e-04  3.6627545880114058e-04  3.6897250879476816e-04  3.7045573976051641e-04  3.7062661987053965e-04  2.7413903597911716e-04  2.7431968972167867e-04  2.7598067403828124e-04  2.7902779694287904e-04  2.8332392761218334e-04  2.8868901893783916e-04  2.9492772881961111e-04  3.0184438950045848e-04  3.0925293101564797e-04  3.1697990618279119e-04  3.2486279839685908e-04  3.3274539699115600e-04  3.4047185167325125e-04  3.4788070993360752e-04  3.5480019367774426e-04  3.6104633796982374e-04  3.6642533134011396e-04  3.7074365809445641e-04  3.7381849118817330e-04  3.7551958279013407e-04  3.7571769571173813e-04  2.6755513165631605e-04  2.6776743622054241e-04  2.6971912065234627e-04  2.7328146767094814e-04  2.7826083776979999e-04  2.8441620668917793e-04  2.9149987383036351e-04  2.9927923797074175e-04  3.0754764656461053e-04  3.1612464197777572e-04  3.2484993847450291e-04  3.3357418226544270e-04  3.4214850062631809e-04  3.5041405375646495e-04  3.5819286323458057e-04  3.6528180294252103e-04  3.7145169687512067e-04  3.7645837109309894e-04  3.8005754784494134e-04  3.8206528460511916e-04  3.8230210012411852e-04  2.5920748312329431e-04  2.5946551979820091e-04  2.6182996620648417e-04  2.6611171349308577e-04  2.7202040744877035e-04  2.7921804879660014e-04  2.8738097103834061e-04  2.9622966193704404e-04  3.0553729895073769e-04  3.1512299921643679e-04  3.2483828120315981e-04  3.3455129873560764e-04  3.4413071155353143e-04  3.5342976048733992e-04  3.6227113142115304e-04  3.7043325702055825e-04  3.7764237985664264e-04  3.8358266973340587e-04  3.8791330488623354e-04  3.9035787065204767e-04  3.9065046462440111e-04  2.4871126053848975e-04  2.4903226183664167e-04  2.5200128820149708e-04  2.5730852281913893e-04  2.6449350880685931e-04  2.7306280722997147e-04  2.8258560046223426e-04  2.9272910641777979e-04  3.0325443355021323e-04  3.1399461995713213e-04  3.2482905172779956e-04  3.3565949689316087e-04  3.4638809867185372e-04  3.5689616920454479e-04  3.6702051064089542e-04  3.7652780171096545e-04  3.8509790673197937e-04  3.9231826698482146e-04  3.9769030407947500e-04  4.0077446846080911e-04  4.0115049099698701e-04  2.3546770036700978e-04  2.3590631021001151e-04  2.3980498673498887e-04  2.4662258990872506e-04  2.5559450352404483e-04  2.6597192282367619e-04  2.7718596092300669e-04  2.8885905955352854e-04  3.0076452641332853e-04  3.1277577991537306e-04  3.2482395445801486e-04  3.3686604896223060e-04  3.4885929096461094e-04  3.6073571284823405e-04  3.7236819106227720e-04  3.8354173489399553e-04  3.9390504137196245e-04  4.0290010616803208e-04  4.0979102825034836e-04  4.1386616086716728e-04  4.1438634658075529e-04  2.1856211982315590e-04  2.1925878788119877e-04  2.2462328199493946e-04  2.3379659361571901e-04  2.4532325772432407e-04  2.5807831098374257e-04  2.7135329129996256e-04  2.8477312962954385e-04  2.9817814460336868e-04  3.1152409224590117e-04  3.2482478696103982e-04  3.3811748384349622e-04  3.5143906795579572e-04  3.6479963211878073e-04  3.7815345369214320e-04  3.9136516571202767e-04  4.0402802001407391e-04  4.1547856732289710e-04  4.2477160865966315e-04  4.3054113997992110e-04  4.3126859011624488e-04  1.9723328563626635e-04  1.9733456706648813e-04  2.0565945617838027e-04  2.1868269815921747e-04  2.3389093930550753e-04  2.4972905385036641e-04  2.6540985693761807e-04  2.8072047966822732e-04  2.9565987371145581e-04  3.1032115352885430e-04  3.2483334882392288e-04  3.3933645222854745e-04  3.5396858165172469e-04  3.6885080409219712e-04  3.8408422474805478e-04  3.9962368448619038e-04  4.1515123681087923e-04  4.3046443299971793e-04  4.4366276585405964e-04  4.5207589107638219e-04  4.5316077159247918e-04  1.6253767871980487e-04  1.6802993713089018e-04  1.8221253720760100e-04  2.0134416954881160e-04  2.2208962017422862e-04  2.4160255711248784e-04  2.5987150516232495e-04  2.7705365684789094e-04  2.9342535399092613e-04  3.0926956055598106e-04  3.2485174391080516e-04  3.4042524060817742e-04  3.5624064903244765e-04  3.7255730141224741e-04  3.8965437081164850e-04  4.0765055514868485e-04  4.2709818555089637e-04  4.4751068836816382e-04  4.6486276131300496e-04  4.8049887769956959e-04  4.8448961723916115e-04  1.2352045749052559e-04  1.3157286207820734e-04  1.4971142466265480e-04  1.8476393177185572e-04  2.1143166250349397e-04  2.3478583879690468e-04  2.5543188141695616e-04  2.7419071733977103e-04  2.9171150821484803e-04  3.0847401029400994e-04  3.2487415750213385e-04  3.4126764958127020e-04  3.5800811552315343e-04  3.7548746378973359e-04  3.9416067478502745e-04  4.1457342278776866e-04  4.3814707043535954e-04  4.6208425472158842e-04  4.9298216778777520e-04  5.3094861677239103e-04  5.2893215054209319e-04  1.3527275366790898e-04  3.6545537975818233e-06  1.3524301480929130e-04  1.7169849650191130e-04  2.0443519494554440e-04  2.3070836624002693e-04  2.5281871369808639e-04  2.7254826147092679e-04  2.9074731283957749e-04  3.0804041065890763e-04  3.2491079720274450e-04  3.4177917093676540e-04  3.5906631708841293e-04  3.7725174963444317e-04  3.9694237131824087e-04  4.1910399120175570e-04  4.4513465656937875e-04  4.7525021053361092e-04  5.3420519521178429e-04  5.5744784811969912e-04  5.9506510526232271e-04  -1.6575894540946979e-03  1.7728105609700768e-04  1.2059800884766017e-04  1.6674323650547787e-04  2.0460511214954544e-04  2.3012690333486016e-04  2.5252599201482166e-04  2.7237936058662772e-04  2.9065002477895216e-04  3.0800403357731927e-04  3.2492891630312673e-04  3.4185378198754816e-04  3.5920798553949659e-04  3.7748164685630088e-04  3.9732341418009109e-04  4.1970679876070525e-04  4.4576528962325267e-04  4.8026658116171838e-04  5.3154443537157864e-04  5.4602290547334752e-04  1.1663966838867785e-03  </DataArray> 
</PointData> 
</Piece>
</UnstructuredGrid>
</VTKFile>