<?xml version="1.0"?>
<VTKFile type="UnstructuredGrid"  version="0.1"  >
<UnstructuredGrid>
<Piece  NumberOfPoints="651" NumberOfCells="1200">
<Points>
<DataArray  type="Float64"  NumberOfComponents="3"  format="ascii">0 0 0  50000 0 0  100000 0 0  150000 0 0  200000 0 0  250000 0 0  300000 0 0  350000 0 0  400000 0 0  450000 0 0  500000 0 0  550000 0 0  600000 0 0  650000 0 0  700000 0 0  750000 0 0  800000 0 0  850000 0 0  900000 0 0  950000 0 0  1000000 0 0  0 50000 0  50000 50000 0  100000 50000 0  150000 50000 0  200000 50000 0  250000 50000 0  300000 50000 0  350000 50000 0  400000 50000 0  450000 50000 0  500000 50000 0  550000 50000 0  600000 50000 0  650000 50000 0  700000 50000 0  750000 50000 0  800000 50000 0  850000 50000 0  900000 50000 0  950000 50000 0  1000000 50000 0  0 100000 0  50000 100000 0  100000 100000 0  150000 100000 0  200000 100000 0  250000 100000 0  300000 100000 0  350000 100000 0  400000 100000 0  450000 100000 0  500000 100000 0  550000 100000 0  600000 100000 0  650000 100000 0  700000 100000 0  750000 100000 0  800000 100000 0  850000 100000 0  900000 100000 0  950000 100000 0  1000000 100000 0  0 150000 0  50000 150000 0  100000 150000 0  150000 150000 0  200000 150000 0  250000 150000 0  300000 150000 0  350000 150000 0  400000 150000 0  450000 150000 0  500000 150000 0  550000 150000 0  600000 150000 0  650000 150000 0  700000 150000 0  750000 150000 0  800000 150000 0  850000 150000 0  900000 150000 0  950000 150000 0  1000000 150000 0  0 200000 0  50000 200000 0  100000 200000 0  150000 200000 0  200000 200000 0  250000 200000 0  300000 200000 0  350000 200000 0  400000 200000 0  450000 200000 0  500000 200000 0  550000 200000 0  600000 200000 0  650000 200000 0  700000 200000 0  750000 200000 0  800000 200000 0  850000 200000 0  900000 200000 0  950000 200000 0  1000000 200000 0  0 250000 0  50000 250000 0  100000 250000 0  150000 250000 0  200000 250000 0  250000 250000 0  300000 250000 0  350000 250000 0  400000 250000 0  450000 250000 0  500000 250000 0  550000 250000 0  600000 250000 0  650000 250000 0  700000 250000 0  750000 250000 0  800000 250000 0  850000 250000 0  900000 250000 0  950000 250000 0  1000000 250000 0  0 300000 0  50000 300000 0  100000 300000 0  150000 300000 0  200000 300000 0  250000 300000 0  300000 300000 0  350000 300000 0  400000 300000 0  450000 300000 0  500000 300000 0  550000 300000 0  600000 300000 0  650000 300000 0  700000 300000 0  750000 300000 0  800000 300000 0  850000 300000 0  900000 300000 0  950000 300000 0  1000000 300000 0  0 350000 0  50000 350000 0  100000 350000 0  150000 350000 0  200000 350000 0  250000 350000 0  300000 350000 0  350000 350000 0  400000 350000 0  450000 350000 0  500000 350000 0  550000 350000 0  600000 350000 0  650000 350000 0  700000 350000 0  750000 350000 0  800000 350000 0  850000 350000 0  900000 350000 0  950000 350000 0  1000000 350000 0  0 400000 0  50000 400000 0  100000 400000 0  150000 400000 0  200000 400000 0  250000 400000 0  300000 400000 0  350000 400000 0  400000 400000 0  450000 400000 0  500000 400000 0  550000 400000 0  600000 400000 0  650000 400000 0  700000 400000 0  750000 400000 0  800000 400000 0  850000 400000 0  900000 400000 0  950000 400000 0  1000000 400000 0  0 450000 0  50000 450000 0  100000 450000 0  150000 450000 0  200000 450000 0  250000 450000 0  300000 450000 0  350000 450000 0  400000 450000 0  450000 450000 0  500000 450000 0  550000 450000 0  600000 450000 0  650000 450000 0  700000 450000 0  750000 450000 0  800000 450000 0  850000 450000 0  900000 450000 0  950000 450000 0  1000000 450000 0  0 500000 0  50000 500000 0  100000 500000 0  150000 500000 0  200000 500000 0  250000 500000 0  300000 500000 0  350000 500000 0  400000 500000 0  450000 500000 0  500000 500000 0  550000 500000 0  600000 500000 0  650000 500000 0  700000 500000 0  750000 500000 0  800000 500000 0  850000 500000 0  900000 500000 0  950000 500000 0  1000000 500000 0  0 550000 0  50000 550000 0  100000 550000 0  150000 550000 0  200000 550000 0  250000 550000 0  300000 550000 0  350000 550000 0  400000 550000 0  450000 550000 0  500000 550000 0  550000 550000 0  600000 550000 0  650000 550000 0  700000 550000 0  750000 550000 0  800000 550000 0  850000 550000 0  900000 550000 0  950000 550000 0  1000000 550000 0  0 600000 0  50000 600000 0  100000 600000 0  150000 600000 0  200000 600000 0  250000 600000 0  300000 600000 0  350000 600000 0  400000 600000 0  450000 600000 0  500000 600000 0  550000 600000 0  600000 600000 0  650000 600000 0  700000 600000 0  750000 600000 0  800000 600000 0  850000 600000 0  900000 600000 0  950000 600000 0  1000000 600000 0  0 650000 0  50000 650000 0  100000 650000 0  150000 650000 0  200000 650000 0  250000 650000 0  300000 650000 0  350000 650000 0  400000 650000 0  450000 650000 0  500000 650000 0  550000 650000 0  600000 650000 0  650000 650000 0  700000 650000 0  750000 650000 0  800000 650000 0  850000 650000 0  900000 650000 0  950000 650000 0  1000000 650000 0  0 700000 0  50000 700000 0  100000 700000 0  150000 700000 0  200000 700000 0  250000 700000 0  300000 700000 0  350000 700000 0  400000 700000 0  450000 700000 0  500000 700000 0  550000 700000 0  600000 700000 0  650000 700000 0  700000 700000 0  750000 700000 0  800000 700000 0  850000 700000 0  900000 700000 0  950000 700000 0  1000000 700000 0  0 750000 0  50000 750000 0  100000 750000 0  150000 750000 0  200000 750000 0  250000 750000 0  300000 750000 0  350000 750000 0  400000 750000 0  450000 750000 0  500000 750000 0  550000 750000 0  600000 750000 0  650000 750000 0  700000 750000 0  750000 750000 0  800000 750000 0  850000 750000 0  900000 750000 0  950000 750000 0  1000000 750000 0  0 800000 0  50000 800000 0  100000 800000 0  150000 800000 0  200000 800000 0  250000 800000 0  300000 800000 0  350000 800000 0  400000 800000 0  450000 800000 0  500000 800000 0  550000 800000 0  600000 800000 0  650000 800000 0  700000 800000 0  750000 800000 0  800000 800000 0  850000 800000 0  900000 800000 0  950000 800000 0  1000000 800000 0  0 850000 0  50000 850000 0  100000 850000 0  150000 850000 0  200000 850000 0  250000 850000 0  300000 850000 0  350000 850000 0  400000 850000 0  450000 850000 0  500000 850000 0  550000 850000 0  600000 850000 0  650000 850000 0  700000 850000 0  750000 850000 0  800000 850000 0  850000 850000 0  900000 850000 0  950000 850000 0  1000000 850000 0  0 900000 0  50000 900000 0  100000 900000 0  150000 900000 0  200000 900000 0  250000 900000 0  300000 900000 0  350000 900000 0  400000 900000 0  450000 900000 0  500000 900000 0  550000 900000 0  600000 900000 0  650000 900000 0  700000 900000 0  750000 900000 0  800000 900000 0  850000 900000 0  900000 900000 0  950000 900000 0  1000000 900000 0  0 950000 0  50000 950000 0  100000 950000 0  150000 950000 0  200000 950000 0  250000 950000 0  300000 950000 0  350000 950000 0  400000 950000 0  450000 950000 0  500000 950000 0  550000 950000 0  600000 950000 0  650000 950000 0  700000 950000 0  750000 950000 0  800000 950000 0  850000 950000 0  900000 950000 0  950000 950000 0  1000000 950000 0  0 1000000 0  50000 1000000 0  100000 1000000 0  150000 1000000 0  200000 1000000 0  250000 1000000 0  300000 1000000 0  350000 1000000 0  400000 1000000 0  450000 1000000 0  500000 1000000 0  550000 1000000 0  600000 1000000 0  650000 1000000 0  700000 1000000 0  750000 1000000 0  800000 1000000 0  850000 1000000 0  900000 1000000 0  950000 1000000 0  1000000 1000000 0  0 1050000 0  50000 1050000 0  100000 1050000 0  150000 1050000 0  200000 1050000 0  250000 1050000 0  300000 1050000 0  350000 1050000 0  400000 1050000 0  450000 1050000 0  500000 1050000 0  550000 1050000 0  600000 1050000 0  650000 1050000 0  700000 1050000 0  750000 1050000 0  800000 1050000 0  850000 1050000 0  900000 1050000 0  950000 1050000 0  1000000 1050000 0  0 1100000 0  50000 1100000 0  100000 1100000 0  150000 1100000 0  200000 1100000 0  250000 1100000 0  300000 1100000 0  350000 1100000 0  400000 1100000 0  450000 1100000 0  500000 1100000 0  550000 1100000 0  600000 1100000 0  650000 1100000 0  700000 1100000 0  750000 1100000 0  800000 1100000 0  850000 1100000 0  900000 1100000 0  950000 1100000 0  1000000 1100000 0  0 1150000 0  50000 1150000 0  100000 1150000 0  150000 1150000 0  200000 1150000 0  250000 1150000 0  300000 1150000 0  350000 1150000 0  400000 1150000 0  450000 1150000 0  500000 1150000 0  550000 1150000 0  600000 1150000 0  650000 1150000 0  700000 1150000 0  750000 1150000 0  800000 1150000 0  850000 1150000 0  900000 1150000 0  950000 1150000 0  1000000 1150000 0  0 1200000 0  50000 1200000 0  100000 1200000 0  150000 1200000 0  200000 1200000 0  250000 1200000 0  300000 1200000 0  350000 1200000 0  400000 1200000 0  450000 1200000 0  500000 1200000 0  550000 1200000 0  600000 1200000 0  650000 1200000 0  700000 1200000 0  750000 1200000 0  800000 1200000 0  850000 1200000 0  900000 1200000 0  950000 1200000 0  1000000 1200000 0  0 1250000 0  50000 1250000 0  100000 1250000 0  150000 1250000 0  200000 1250000 0  250000 1250000 0  300000 1250000 0  350000 1250000 0  400000 1250000 0  450000 1250000 0  500000 1250000 0  550000 1250000 0  600000 1250000 0  650000 1250000 0  700000 1250000 0  750000 1250000 0  800000 1250000 0  850000 1250000 0  900000 1250000 0  950000 1250000 0  1000000 1250000 0  0 1300000 0  50000 1300000 0  100000 1300000 0  150000 1300000 0  200000 1300000 0  250000 1300000 0  300000 1300000 0  350000 1300000 0  400000 1300000 0  450000 1300000 0  500000 1300000 0  550000 1300000 0  600000 1300000 0  650000 1300000 0  700000 1300000 0  750000 1300000 0  800000 1300000 0  850000 1300000 0  900000 1300000 0  950000 1300000 0  1000000 1300000 0  0 1350000 0  50000 1350000 0  100000 1350000 0  150000 1350000 0  200000 1350000 0  250000 1350000 0  300000 1350000 0  350000 1350000 0  400000 1350000 0  450000 1350000 0  500000 1350000 0  550000 1350000 0  600000 1350000 0  650000 1350000 0  700000 135
[...]
<PointData  Scalars="f_25027"> 
<DataArray  type="Float64"  Name="f_25027"  format="ascii">5.2423178691722561e-04  6.6845582896910049e-04  6.9803160461295670e-04  7.1592691134807966e-04  7.3020804924587570e-04  7.4164404419294191e-04  7.5135437792107278e-04  7.6001342740094897e-04  7.6801481525272906e-04  7.7562614471640571e-04  7.8305457139271617e-04  7.9048141753480100e-04  7.9808769465428879e-04  8.0607932797345982e-04  8.1472099996564870e-04  8.2440612610085911e-04  8.3583780942474584e-04  8.5000688775100719e-04  8.6538502542672137e-04  8.9188514648287491e-04  1.2283212216350990e-03  6.6644141559787039e-04  6.8327545678677855e-04  6.9888629902609004e-04  7.1745129009148363e-04  7.3113422467627957e-04  7.4216292674249501e-04  7.5167147879046494e-04  7.6020980131251328e-04  7.6812702365900831e-04  7.7567310439004668e-04  7.8304479751196824e-04  7.9041559152196394e-04  7.9795885537345510e-04  8.0587106326516253e-04  8.1440289651858505e-04  8.2390775018459134e-04  8.3490519016559913e-04  8.4823093189493215e-04  8.6676582873391366e-04  9.0158712246809721e-04  8.9197116778650938e-04  6.9746139270918865e-04  6.9945875305268913e-04  7.1131629975785518e-04  7.2359215676411136e-04  7.3451193727752857e-04  7.4423110670015483e-04  7.5299250047967275e-04  7.6105213469880952e-04  7.6863186864903365e-04  7.7591437532071250e-04  7.8305535519694212e-04  7.9019765030018021e-04  7.9748470461157622e-04  8.0507443988188571e-04  8.1315513670805035e-04  8.2196413220538998e-04  8.3181273284088696e-04  8.4313242657980481e-04  8.5622091363374145e-04  8.6768770352689247e-04  8.6729524737402374e-04  7.1456295972512789e-04  7.1615252685746636e-04  7.2265106053657612e-04  7.3070368155220939e-04  7.3911851657606532e-04  7.4727567643380322e-04  7.5501920638197152e-04  7.6237894668096926e-04  7.6944185992668557e-04  7.7630813993477695e-04  7.8307822057941258e-04  7.8985118430135689e-04  7.9672704830993050e-04  8.0380953915855380e-04  8.1120632133976315e-04  8.1902061046659096e-04  8.2731641874613350e-04  8.3598850557045569e-04  8.4431284267067537e-04  8.5019768846880184e-04  8.5229164505879276e-04  7.2707321153508248e-04  7.2810889612751962e-04  7.3202935732040485e-04  7.3763301384149047e-04  7.4406095880033638e-04  7.5074998765990546e-04  7.5742797351627798e-04  7.6399505234929076e-04  7.7043920788157040e-04  7.7678865242602287e-04  7.8308916605496518e-04  7.8939331592771281e-04  7.9575450961931102e-04  8.0222126930561697e-04  8.0882698212163024e-04  8.1556733041914420e-04  8.2234948938144487e-04  8.2888521109961047e-04  8.3453124633532270e-04  8.3831122480362103e-04  8.3940030567327816e-04  7.3639865535544036e-04  7.3707058867870793e-04  7.3973165102302909e-04  7.4381120305518772e-04  7.4879228764673409e-04  7.5426320027244264e-04  7.5996086937381324e-04  7.6574056720008930e-04  7.7153447595893377e-04  7.7731970825445286e-04  7.8309722129994935e-04  7.8887833434254108e-04  7.9467486114942476e-04  8.0048918780812402e-04  8.0630042355210195e-04  8.1204174459882335e-04  8.1756357863962590e-04  8.2258424751521222e-04  8.2666068446247075e-04  8.2925705828122828e-04  8.2989745268011931e-04  7.4358668719899657e-04  7.4406729485176979e-04  7.4601245848178455e-04  7.4911190107376259e-04  7.5305887534044501e-04  7.5756854379378888e-04  7.6242411935451167e-04  7.6747913948659139e-04  7.7264240672022893e-04  7.7786040162828836e-04  7.8310207829395122e-04  7.8834680533040337e-04  7.9357410158344827e-04  7.9875321837350084e-04  8.0383049161092716e-04  8.0871280206226866e-04  8.1324769024024648e-04  8.1720730263731757e-04  8.2029450000650794e-04  8.2219337817379559e-04  8.2265450200717989e-04  7.4926081596882275e-04  7.4962795259196505e-04  7.5112602929121677e-04  7.5357129928180211e-04  7.5677459639623913e-04  7.6053950017268318e-04  7.6469691568102746e-04  7.6911550734603824e-04  7.7369921095424255e-04  7.7837910402907067e-04  7.8310395274074009e-04  7.8783110688457217e-04  7.9251784789654515e-04  7.9711260184501165e-04  8.0154541314151804e-04  8.0571779939983730e-04  8.0949401318238889e-04  8.1269899794441324e-04  8.1513101586010162e-04  8.1659608600582090e-04  8.1695164449204231e-04  7.5378611486884447e-04  7.5407897154810253e-04  7.5528049577140981e-04  7.5727299811626653e-04  7.5993370787988770e-04  7.6312435894778199e-04  7.6671434281802683e-04  7.7059116413825523e-04  7.7466266701632170e-04  7.7885421859591941e-04  7.8310349039784587e-04  7.8735435238257785e-04  7.9155051393845930e-04  7.9562908816501994e-04  7.9951427782060038e-04  8.0311191556503298e-04  8.0630663667057164e-04  8.0896464835397317e-04  8.1094520050030514e-04  8.1212299604699941e-04  8.1240772139191085e-04  7.5739668732978176e-04  7.5763852195725654e-04  7.5863482608436086e-04  7.6030485193015788e-04  7.6256449295012980e-04  7.6531305282656528e-04  7.6844834111687024e-04  7.7187502008160879e-04  7.7550807017354965e-04  7.7927260019120719e-04  7.8310137885406923e-04  7.8693116978598230e-04  7.9069856572003738e-04  7.9433579216747166e-04  7.9776697387358441e-04  8.0090563750132059e-04  8.0365465607804899e-04  8.0591010838120349e-04  8.0757006432479080e-04  8.0854896403678538e-04  8.0878483249795512e-04  7.6025210158061013e-04  7.6045793447637104e-04  7.6130848866201193e-04  7.6274492207643158e-04  7.6470633642841939e-04  7.6711628127722154e-04  7.6989271669830205e-04  7.7295419366398932e-04  7.7622324837317905e-04  7.7962736993363859e-04  7.8309819531757817e-04  7.8656961645862664e-04  7.8997538129699414e-04  7.9324668942317312e-04  7.9631029778640442e-04  7.9908775903308018e-04  8.0149652756869550e-04  8.0345360246489533e-04  8.0488188860028506e-04  8.0571958163831725e-04  8.0592103233579054e-04  7.6246448534945596e-04  7.6264466261507938e-04  7.6339087124187863e-04  7.6465782583589681e-04  7.6639886295699552e-04  7.6855320668788593e-04  7.7105276379819607e-04  7.7382663170754513e-04  7.7680404655779980e-04  7.7991579478218489e-04  7.8309436662375861e-04  7.8627326010147008e-04  7.8938586604868316e-04  7.9236435790634653e-04  7.9513901705259918e-04  7.9763844181639514e-04  7.9979106527813142e-04  8.0152825370905987e-04  8.0278888164283537e-04  8.0352569767640778e-04  8.0370269855540156e-04  7.6411340494008642e-04  7.6427553655142528e-04  7.6494815956647223e-04  7.6609459686855386e-04  7.6767695801166491e-04  7.6964451335717415e-04  7.7193856433966312e-04  7.7449580160683824e-04  7.7725079899753757e-04  7.8013755517937066e-04  7.8309017987887716e-04  7.8604296097653482e-04  7.8893011361387197e-04  7.9168553615651706e-04  7.9424290060931728e-04  7.9653638471200458e-04  7.9850228551157400e-04  8.0008160198195887e-04  8.0122341231939759e-04  8.0188944527607466e-04  8.0204936169059261e-04  7.6525451478908261e-04  7.6540458309021166e-04  7.6602799468541863e-04  7.6709354600107535e-04  7.6856859458293743e-04  7.7040860001977430e-04  7.7256085827568136e-04  7.7496713499159765e-04  7.7756581831814710e-04  7.8029347331868594e-04  7.8308581220839590e-04  7.8587821741436293e-04  7.8860602723734657e-04  7.9120482699734853e-04  7.9361098938216261e-04  7.9576267523306118e-04  7.9760143132676380e-04  7.9907439239686683e-04  8.0013691610936384e-04  8.0075612944958312e-04  8.0090479244819773e-04  7.6592467505418624e-04  7.6606770775723004e-04  7.6666251724059973e-04  7.6768122137811569e-04  7.6909395817134488e-04  7.7085954361680472e-04  7.7292859633179122e-04  7.7524577540272568e-04  7.7775173256200544e-04  7.8038465288495895e-04  7.8308136343946790e-04  7.8577809630560162e-04  7.8841106290918799e-04  7.9091703125732846e-04  7.9323409783129881e-04  7.9530281118943150e-04  7.9706773289159446e-04  7.9847941160469396e-04  7.9949661906325120e-04  8.0008938409510081e-04  8.0023173413115560e-04  7.6614492570648354e-04  7.6628544264385691e-04  7.6687025666300932e-04  7.6787316311241688e-04  7.6926513851496457e-04  7.7100604997488477e-04  7.7304756091148427e-04  7.7533524266891810e-04  7.7781046722914067e-04  7.8041194627414688e-04  7.8307688547327853e-04  7.8574182467241083e-04  7.8834330371741856e-04  7.9081852827764362e-04  7.9310621003508017e-04  7.9514772097168357e-04  7.9688863243160735e-04  7.9828060783415796e-04  7.9928351428356812e-04  7.9986832830272173e-04  8.0000884524009564e-04  7.6592203681542337e-04  7.6606438685147761e-04  7.6665715188332581e-04  7.6767435934188024e-04  7.6908603805497669e-04  7.7085095975713597e-04  7.7291967311526519e-04  7.7523673968923272e-04  7.7774270803737037e-04  7.8037567464095533e-04  7.8307240750708895e-04  7.8576911806159866e-04  7.8840203838455390e-04  7.9090799554383583e-04  7.9322517461477365e-04  7.9529422732976405e-04  7.9705981277522801e-04  7.9847254956846034e-04  7.9949125370597923e-04  8.0008606318935022e-04  8.0022909589239457e-04  7.6524897849838144e-04  7.6539764149699595e-04  7.6601685483721328e-04  7.6707937854970736e-04  7.6855233961980671e-04  7.7039109571350520e-04  7.7254278156439998e-04  7.7494894394921103e-04  7.7754774370921050e-04  7.8027555353219293e-04  7.8306795873815964e-04  7.8586029762787058e-04  7.8858795262841115e-04  7.9118663595496364e-04  7.9359291267088394e-04  7.9574517092679544e-04  7.9758517636363676e-04  7.9906022494550242e-04  8.0012577626116228e-04  8.0074918785637121e-04  8.0089925615750069e-04  7.6410440925598841e-04  7.6426432567050571e-04  7.6493035862718083e-04  7.6607216896461565e-04  7.6765148543499640e-04  7.6961738623456115e-04  7.7191087033724401e-04  7.7446823479004044e-04  7.7722365733268271e-04  7.8011080997001856e-04  7.8306359106767600e-04  7.8601621576718391e-04  7.8890297194901906e-04  7.9165796933972174e-04  7.9421520660690186e-04  7.9650925758939582e-04  7.9847681293491036e-04  8.0005917407802629e-04  8.0120561138011161e-04  8.0187823439516106e-04  8.0204036600650056e-04  7.6245107239118249e-04  7.6262807327017552e-04  7.6336488930374500e-04  7.6462551723751552e-04  7.6636270566843875e-04  7.6851532913016908e-04  7.7101475389395994e-04  7.7378941304020782e-04  7.7676790489786794e-04  7.7988051084507950e-04  7.8305940432279097e-04  7.8623797616436631e-04  7.8934972438875423e-04  7.9232713923901290e-04  7.9510100714836739e-04  7.9760056425868414e-04  7.9975490798958149e-04  8.0149594511068627e-04  8.0276289970470933e-04  8.0350910833151162e-04  8.0368928559713590e-04  7.6023273861079872e-04  7.6043418930827093e-04  7.6127188234629910e-04  7.6270016848168189e-04  7.6465724337787457e-04  7.6706601191348209e-04  7.6984347316015112e-04  7.7290708152337679e-04  7.7617838964955219e-04  7.7958415448791773e-04  7.8305557562896643e-04  7.8652640101290762e-04  7.8993052257337075e-04  7.9319957728256579e-04  7.9626105424826000e-04  7.9903748966934853e-04  8.0144743451815914e-04  8.0340884887015497e-04  8.0484528228458112e-04  8.0569583647022635e-04  8.0590166936598845e-04  7.5736893844864140e-04  7.5760480690980974e-04  7.5858370662179814e-04  7.6024366256537601e-04  7.6249911486852033e-04  7.6524813344523842e-04  7.6838679707296582e-04  7.7181797877907206e-04  7.7545520522650233e-04  7.7922260116055546e-04  7.8305239209246875e-04  7.8688117075533263e-04  7.9064570077299441e-04  7.9427875086494177e-04  7.9770542982968856e-04  8.0084071812000350e-04  8.0358927799644992e-04  8.0584891901643268e-04  8.0751894486223903e-04  8.0851524898934953e-04  8.0875708361682625e-04  7.5374604955469717e-04  7.5403077489960622e-04  7.5520857044629073e-04  7.5718912259260850e-04  7.5984713427599518e-04  7.6304185538152050e-04  7.6663949312594237e-04  7.7052468278151511e-04  7.7460325700807109e-04  7.7879941856395048e-04  7.8305028054868257e-04  7.8729955235061163e-04  7.9149110393021455e-04  7.9556260680828795e-04  7.9943942812852632e-04  8.0302941199878342e-04  8.0622006306669202e-04  8.0888077283032859e-04  8.1087327517519875e-04  8.1207479939851557e-04  8.1236765607777624e-04  7.4920212645458359e-04  7.4955768494080078e-04  7.5102275508650369e-04  7.5345477300216984e-04  7.5665975776417250e-04  7.6043597154670664e-04  7.6460835780501300e-04  7.6904116910151115e-04  7.7363592304997278e-04  7.7832266406194413e-04  7.8304981820577675e-04  7.8777466691744898e-04  7.9245455999228252e-04  7.9703826360049454e-04  8.0145685526551648e-04  8.0561427077387583e-04  8.0937917455033864e-04  8.1258247166479745e-04  8.1502774165540350e-04  8.1652581835467029e-04  8.1689295497781639e-04  7.4349926893947529e-04  7.4396039277285168e-04  7.4585927094011017e-04  7.4894646830926410e-04  7.5290608070630353e-04  7.5744096888425935e-04  7.6232327933558708e-04  7.6740055257300569e-04  7.7257966936305469e-04  7.7780696561609828e-04  7.8305169265255120e-04  7.8829336931821698e-04  7.9351136422628119e-04  7.9867463145992632e-04  8.0372965159201796e-04  8.0858522715275820e-04  8.1309489560612658e-04  8.1704186987283946e-04  8.2014131246485058e-04  8.2208647609489103e-04  8.2256708374767076e-04  7.3625631826658411e-04  7.3689671266546377e-04  7.3949308648416263e-04  7.4356952343135807e-04  7.4859019230689994e-04  7.5411202634767765e-04  7.5985334739438746e-04  7.6566458313836148e-04  7.7147890979705944e-04  7.7727543660394312e-04  7.8305654964653626e-04  7.8883406269203524e-04  7.9461929498755835e-04  8.0041320374640845e-04  8.0619290157269493e-04  8.1189057067408384e-04  8.1736148329982167e-04  8.2234256789141119e-04  8.2642211992362273e-04  8.2908318226799084e-04  8.2975511559127185e-04  7.2675346527352718e-04  7.2784254614316002e-04  7.3162252461131622e-04  7.3726855984691819e-04  7.4380428156503163e-04  7.5058644052731507e-04  7.5732678882482675e-04  7.6393250164084230e-04  7.7039926132715171e-04  7.7676045501875253e-04  7.8306460489150221e-04  7.8936511852044605e-04  7.9571456306489960e-04  8.0215871859718119e-04  8.0872579743019972e-04  8.1540378328658677e-04  8.2209281214618555e-04  8.2852075710508676e-04  8.3412441362625640e-04  8.3804487481924192e-04  8.3908055941171234e-04  7.1386212588845429e-04  7.1595608247812981e-04  7.2184092827589632e-04  7.3016526537595435e-04  7.3883735220025345e-04  7.4713316047981073e-04  7.5494744960665557e-04  7.6234423178787826e-04  7.6942672263651077e-04  7.7630258664508969e-04  7.8307555036703661e-04  7.8984563101167202e-04  7.9671191101976068e-04  8.0377482426547255e-04  8.1113456456446639e-04  8.1887809451263534e-04  8.2703525437039026e-04  8.3545008939429335e-04  8.4350271041006507e-04  8.5000124408944036e-04  8.5159081122180083e-04  6.9885852357516793e-04  6.9846606741994801e-04  7.0993285731243137e-04  7.2302134436633212e-04  7.3434103810537921e-04  7.4418963874095154e-04  7.5299863423833194e-04  7.6107933106452140e-04  7.6866906633484586e-04  7.7595612064625011e-04  7.8309841574949134e-04  7.9023939562571826e-04  7.9752190229738940e-04  8.0510163624760019e-04  8.1316127046671734e-04  8.2192266424620860e-04  8.3164183366879994e-04  8.4256161418218897e-04  8.5483747118875685e-04  8.6669501789455596e-04  8.6869237823777716e-04  6.7418260316392501e-04  6.6456664847875312e-04  6.9938794221067568e-04  7.1792283905094609e-04  7.3124858078063104e-04  7.4224602076172546e-04  7.5175087442778000e-04  7.6028270768123461e-04  7.6819491557296102e-04  7.7573817942446172e-04  7.8310897343445958e-04  7.9048066655637681e-04  7.9802674728740347e-04  8.0594396963387768e-04  8.1448229215589220e-04  8.2399084420380639e-04  8.3501954626992968e-04  8.4870248085464062e-04  8.6726747192007400e-04  8.8287831415714987e-04  8.9971235534995139e-04  3.3783254936162128e-04  6.7426862443784583e-04  7.0076874551726137e-04  7.1614688319546671e-04  7.3031596152148726e-04  7.4174764484540403e-04  7.5143277098068805e-04  7.6007444297291986e-04  7.6806607629211399e-04  7.7567235341161273e-04  7.8309919955370016e-04  7.9052762623000477e-04  7.9813895569366743e-04  8.0614034354542096e-04  8.1479939302525194e-04  8.2450972675330930e-04  8.3594572170027587e-04  8.5022685959787740e-04  8.6812216633153300e-04  8.9769794196992939e-04  1.0419219840475859e-03  </DataArray> 
</PointData> 
</Piece>
</UnstructuredGrid>
</VTKFile>