<?xml version="1.0"?>
<VTKFile type="UnstructuredGrid"  version="0.1"  >
<UnstructuredGrid>
<Piece  NumberOfPoints="651" NumberOfCells="1200">
<Points>
<DataArray  type="Float64"  NumberOfComponents="3"  format="ascii">0 0 0  50000 0 0  100000 0 0  150000 0 0  200000 0 0  250000 0 0  300000 0 0  350000 0 0  400000 0 0  450000 0 0  500000 0 0  550000 0 0  600000 0 0  650000 0 0  700000 0 0  750000 0 0  800000 0 0  850000 0 0  900000 0 0  950000 0 0  1000000 0 0  0 50000 0  50000 50000 0  100000 50000 0  150000 50000 0  200000 50000 0  250000 50000 0  300000 50000 0  350000 50000 0  400000 50000 0  450000 50000 0  500000 50000 0  550000 50000 0  600000 50000 0  650000 50000 0  700000 50000 0  750000 50000 0  800000 50000 0  850000 50000 0  900000 50000 0  950000 50000 0  1000000 50000 0  0 100000 0  50000 100000 0  100000 100000 0  150000 100000 0  200000 100000 0  250000 100000 0  300000 100000 0  350000 100000 0  400000 100000 0  450000 100000 0  500000 100000 0  550000 100000 0  600000 100000 0  650000 100000 0  700000 100000 0  750000 100000 0  800000 100000 0  850000 100000 0  900000 100000 0  950000 100000 0  1000000 100000 0  0 150000 0  50000 150000 0  100000 150000 0  150000 150000 0  200000 150000 0  250000 150000 0  300000 150000 0  350000 150000 0  400000 150000 0  450000 150000 0  500000 150000 0  550000 150000 0  600000 150000 0  650000 150000 0  700000 150000 0  750000 150000 0  800000 150000 0  850000 150000 0  900000 150000 0  950000 150000 0  1000000 150000 0  0 200000 0  50000 200000 0  100000 200000 0  150000 200000 0  200000 200000 0  250000 200000 0  300000 200000 0  350000 200000 0  400000 200000 0  450000 200000 0  500000 200000 0  550000 200000 0  600000 200000 0  650000 200000 0  700000 200000 0  750000 200000 0  800000 200000 0  850000 200000 0  900000 200000 0  950000 200000 0  1000000 200000 0  0 250000 0  50000 250000 0  100000 250000 0  150000 250000 0  200000 250000 0  250000 250000 0  300000 250000 0  350000 250000 0  400000 250000 0  450000 250000 0  500000 250000 0  550000 250000 0  600000 250000 0  650000 250000 0  700000 250000 0  750000 250000 0  800000 250000 0  850000 250000 0  900000 250000 0  950000 250000 0  1000000 250000 0  0 300000 0  50000 300000 0  100000 300000 0  150000 300000 0  200000 300000 0  250000 300000 0  300000 300000 0  350000 300000 0  400000 300000 0  450000 300000 0  500000 300000 0  550000 300000 0  600000 300000 0  650000 300000 0  700000 300000 0  750000 300000 0  800000 300000 0  850000 300000 0  900000 300000 0  950000 300000 0  1000000 300000 0  0 350000 0  50000 350000 0  100000 350000 0  150000 350000 0  200000 350000 0  250000 350000 0  300000 350000 0  350000 350000 0  400000 350000 0  450000 350000 0  500000 350000 0  550000 350000 0  600000 350000 0  650000 350000 0  700000 350000 0  750000 350000 0  800000 350000 0  850000 350000 0  900000 350000 0  950000 350000 0  1000000 350000 0  0 400000 0  50000 400000 0  100000 400000 0  150000 400000 0  200000 400000 0  250000 400000 0  300000 400000 0  350000 400000 0  400000 400000 0  450000 400000 0  500000 400000 0  550000 400000 0  600000 400000 0  650000 400000 0  700000 400000 0  750000 400000 0  800000 400000 0  850000 400000 0  900000 400000 0  950000 400000 0  1000000 400000 0  0 450000 0  50000 450000 0  100000 450000 0  150000 450000 0  200000 450000 0  250000 450000 0  300000 450000 0  350000 450000 0  400000 450000 0  450000 450000 0  500000 450000 0  550000 450000 0  600000 450000 0  650000 450000 0  700000 450000 0  750000 450000 0  800000 450000 0  850000 450000 0  900000 450000 0  950000 450000 0  1000000 450000 0  0 500000 0  50000 500000 0  100000 500000 0  150000 500000 0  200000 500000 0  250000 500000 0  300000 500000 0  350000 500000 0  400000 500000 0  450000 500000 0  500000 500000 0  550000 500000 0  600000 500000 0  650000 500000 0  700000 500000 0  750000 500000 0  800000 500000 0  850000 500000 0  900000 500000 0  950000 500000 0  1000000 500000 0  0 550000 0  50000 550000 0  100000 550000 0  150000 550000 0  200000 550000 0  250000 550000 0  300000 550000 0  350000 550000 0  400000 550000 0  450000 550000 0  500000 550000 0  550000 550000 0  600000 550000 0  650000 550000 0  700000 550000 0  750000 550000 0  800000 550000 0  850000 550000 0  900000 550000 0  950000 550000 0  1000000 550000 0  0 600000 0  50000 600000 0  100000 600000 0  150000 600000 0  200000 600000 0  250000 600000 0  300000 600000 0  350000 600000 0  400000 600000 0  450000 600000 0  500000 600000 0  550000 600000 0  600000 600000 0  650000 600000 0  700000 600000 0  750000 600000 0  800000 600000 0  850000 600000 0  900000 600000 0  950000 600000 0  1000000 600000 0  0 650000 0  50000 650000 0  100000 650000 0  150000 650000 0  200000 650000 0  250000 650000 0  300000 650000 0  350000 650000 0  400000 650000 0  450000 650000 0  500000 650000 0  550000 650000 0  600000 650000 0  650000 650000 0  700000 650000 0  750000 650000 0  800000 650000 0  850000 650000 0  900000 650000 0  950000 650000 0  1000000 650000 0  0 700000 0  50000 700000 0  100000 700000 0  150000 700000 0  200000 700000 0  250000 700000 0  300000 700000 0  350000 700000 0  400000 700000 0  450000 700000 0  500000 700000 0  550000 700000 0  600000 700000 0  650000 700000 0  700000 700000 0  750000 700000 0  800000 700000 0  850000 700000 0  900000 700000 0  950000 700000 0  1000000 700000 0  0 750000 0  50000 750000 0  100000 750000 0  150000 750000 0  200000 750000 0  250000 750000 0  300000 750000 0  350000 750000 0  400000 750000 0  450000 750000 0  500000 750000 0  550000 750000 0  600000 750000 0  650000 750000 0  700000 750000 0  750000 750000 0  800000 750000 0  850000 750000 0  900000 750000 0  950000 750000 0  1000000 750000 0  0 800000 0  50000 800000 0  100000 800000 0  150000 800000 0  200000 800000 0  250000 800000 0  300000 800000 0  350000 800000 0  400000 800000 0  450000 800000 0  500000 800000 0  550000 800000 0  600000 800000 0  650000 800000 0  700000 800000 0  750000 800000 0  800000 800000 0  850000 800000 0  900000 800000 0  950000 800000 0  1000000 800000 0  0 850000 0  50000 850000 0  100000 850000 0  150000 850000 0  200000 850000 0  250000 850000 0  300000 850000 0  350000 850000 0  400000 850000 0  450000 850000 0  500000 850000 0  550000 850000 0  600000 850000 0  650000 850000 0  700000 850000 0  750000 850000 0  800000 850000 0  850000 850000 0  900000 850000 0  950000 850000 0  1000000 850000 0  0 900000 0  50000 900000 0  100000 900000 0  150000 900000 0  200000 900000 0  250000 900000 0  300000 900000 0  350000 900000 0  400000 900000 0  450000 900000 0  500000 900000 0  550000 900000 0  600000 900000 0  650000 900000 0  700000 900000 0  750000 900000 0  800000 900000 0  850000 900000 0  900000 900000 0  950000 900000 0  1000000 900000 0  0 950000 0  50000 950000 0  100000 950000 0  150000 950000 0  200000 950000 0  250000 950000 0  300000 950000 0  350000 950000 0  400000 950000 0  450000 950000 0  500000 950000 0  550000 950000 0  600000 950000 0  650000 950000 0  700000 950000 0  750000 950000 0  800000 950000 0  850000 950000 0  900000 950000 0  950000 950000 0  1000000 950000 0  0 1000000 0  50000 1000000 0  100000 1000000 0  150000 1000000 0  200000 1000000 0  250000 1000000 0  300000 1000000 0  350000 1000000 0  400000 1000000 0  450000 1000000 0  500000 1000000 0  550000 1000000 0  600000 1000000 0  650000 1000000 0  700000 1000000 0  750000 1000000 0  800000 1000000 0  850000 1000000 0  900000 1000000 0  950000 1000000 0  1000000 1000000 0  0 1050000 0  50000 1050000 0  100000 1050000 0  150000 1050000 0  200000 1050000 0  250000 1050000 0  300000 1050000 0  350000 1050000 0  400000 1050000 0  450000 1050000 0  500000 1050000 0  550000 1050000 0  600000 1050000 0  650000 1050000 0  700000 1050000 0  750000 1050000 0  800000 1050000 0  850000 1050000 0  900000 1050000 0  950000 1050000 0  1000000 1050000 0  0 1100000 0  50000 1100000 0  100000 1100000 0  150000 1100000 0  200000 1100000 0  250000 1100000 0  300000 1100000 0  350000 1100000 0  400000 1100000 0  450000 1100000 0  500000 1100000 0  550000 1100000 0  600000 1100000 0  650000 1100000 0  700000 1100000 0  750000 1100000 0  800000 1100000 0  850000 1100000 0  900000 1100000 0  950000 1100000 0  1000000 1100000 0  0 1150000 0  50000 1150000 0  100000 1150000 0  150000 1150000 0  200000 1150000 0  250000 1150000 0  300000 1150000 0  350000 1150000 0  400000 1150000 0  450000 1150000 0  500000 1150000 0  550000 1150000 0  600000 1150000 0  650000 1150000 0  700000 1150000 0  750000 1150000 0  800000 1150000 0  850000 1150000 0  900000 1150000 0  950000 1150000 0  1000000 1150000 0  0 1200000 0  50000 1200000 0  100000 1200000 0  150000 1200000 0  200000 1200000 0  250000 1200000 0  300000 1200000 0  350000 1200000 0  400000 1200000 0  450000 1200000 0  500000 1200000 0  550000 1200000 0  600000 1200000 0  650000 1200000 0  700000 1200000 0  750000 1200000 0  800000 1200000 0  850000 1200000 0  900000 1200000 0  950000 1200000 0  1000000 1200000 0  0 1250000 0  50000 1250000 0  100000 1250000 0  150000 1250000 0  200000 1250000 0  250000 1250000 0  300000 1250000 0  350000 1250000 0  400000 1250000 0  450000 1250000 0  500000 1250000 0  550000 1250000 0  600000 1250000 0  650000 1250000 0  700000 1250000 0  750000 1250000 0  800000 1250000 0  850000 1250000 0  900000 1250000 0  950000 1250000 0  1000000 1250000 0  0 1300000 0  50000 1300000 0  100000 1300000 0  150000 1300000 0  200000 1300000 0  250000 1300000 0  300000 1300000 0  350000 1300000 0  400000 1300000 0  450000 1300000 0  500000 1300000 0  550000 1300000 0  600000 1300000 0  650000 1300000 0  700000 1300000 0  750000 1300000 0  800000 1300000 0  850000 1300000 0  900000 1300000 0  950000 1300000 0  1000000 1300000 0  0 1350000 0  50000 1350000 0  100000 1350000 0  150000 1350000 0  200000 1350000 0  250000 1350000 0  300000 1350000 0  350000 1350000 0  400000 1350000 0  450000 1350000 0  500000 1350000 0  550000 1350000 0  600000 1350000 0  650000 1350000 0  700000 135
[...]
<PointData  Scalars="f_25027"> 
<DataArray  type="Float64"  Name="f_25027"  format="ascii">-9.0604761946189681e-04  1.2842318410683047e-05  6.6866698706536266e-06  7.4689164838596253e-05  1.1677499106386278e-04  1.4827839784984487e-04  1.7543605751160144e-04  1.9938830255105007e-04  2.2142150231429424e-04  2.4232621601930177e-04  2.6270379362544703e-04  2.8308128823359218e-04  3.0398659213745020e-04  3.2601252571742888e-04  3.4997637416061129e-04  3.7723213131730525e-04  4.0756715215991570e-04  4.5547280897790209e-04  5.1625513307861526e-04  3.9082923001695734e-04  3.1845826386626254e-03  -6.8135448735856115e-05  -2.2837078250185965e-05  1.9154027214279124e-07  8.0801846699737409e-05  1.1646745457975007e-04  1.4864946315428293e-04  1.7562821888078998e-04  1.9949450102323254e-04  2.2149316132224117e-04  2.4236978974838006e-04  2.6272669333149152e-04  2.8308640546947147e-04  3.0397107010570775e-04  3.2598269248342932e-04  3.4991922444485438e-04  3.7680585198966021e-04  4.0906005176562671e-04  4.5015888852118153e-04  4.9233595584990996e-04  6.8056080886103423e-04  4.7413660599267439e-04  1.3442046441890855e-05  5.9618402609612445e-06  5.7334551142291063e-05  9.5961840481399483e-05  1.2451436289126841e-04  1.5399987559279677e-04  1.7879505932021352e-04  2.0151094992133028e-04  2.2269778846106757e-04  2.4295185882498916e-04  2.6277117602606728e-04  2.8259867528920743e-04  3.0288141667777303e-04  3.2412061940225524e-04  3.4692486133831667e-04  3.7214234587908108e-04  4.0090790139288442e-04  4.3371140082989882e-04  4.7909909459340654e-04  4.9793938255565434e-04  5.0469194819401325e-04  6.9254435844239942e-05  7.3532281049377957e-05  9.2455087466425617e-05  1.1286299568298615e-04  1.3837850460018841e-04  1.6231642159834190e-04  1.8417834214669486e-04  2.0500887391138725e-04  2.2479550270713917e-04  2.4395097402320554e-04  2.6279878079978367e-04  2.8165722444659758e-04  3.0084848764299395e-04  3.2071148860711153e-04  3.4161288336872852e-04  3.6392257964271607e-04  3.8783589200790656e-04  4.1349899640411036e-04  4.3675999689152408e-04  4.5395574907199207e-04  4.6137582130400092e-04  1.0817589065248911e-04  1.0852117769966421e-04  1.1820124592830722e-04  1.3439868946613610e-04  1.5320751715383333e-04  1.7203078140513333e-04  1.9097019124804626e-04  2.0949261688198189e-04  2.2753558550690800e-04  2.4526294948225990e-04  2.6282113583338300e-04  2.8039087791969554e-04  2.9815273960524655e-04  3.1627480170632916e-04  3.3488233068733114e-04  3.5398106079270519e-04  3.7331892271725344e-04  3.9185274664759134e-04  4.0764208452525078e-04  4.1738483573260435e-04  4.1598204187180021e-04  1.3483709288418844e-04  1.3518025097899669e-04  1.4188181759899898e-04  1.5300725320641843e-04  1.6679934589183072e-04  1.8217330336482086e-04  1.9823348355509256e-04  2.1442184099369036e-04  2.3061119552839009e-04  2.4674234438826312e-04  2.6283061508024691e-04  2.7892928051009890e-04  2.9508961532014342e-04  3.1133431028103255e-04  3.2761296947203490e-04  3.4372952465360173e-04  3.5920817919195275e-04  3.7315098775179913e-04  3.8411135353448090e-04  3.9019545297381745e-04  3.9059725994415216e-04  1.5543257023861484e-04  1.5566830006190545e-04  1.6029482818997719e-04  1.6845458400042152e-04  1.7927559835013461e-04  1.9180274180584448e-04  2.0531416299023292e-04  2.1938927646588378e-04  2.3376106673294166e-04  2.4826773113282305e-04  2.6283111787135991e-04  2.7740215734588008e-04  2.9193132233441377e-04  3.0633678035586103e-04  3.2046357226434420e-04  3.3402907637197662e-04  3.4655845792626896e-04  3.5733092704909845e-04  3.6539869566517825e-04  3.6981699636858131e-04  3.6993356364888481e-04  1.7151417479901760e-04  1.7166339068801941e-04  1.7514553441105532e-04  1.8147652515180076e-04  1.9010468266459141e-04  2.0040459865135546e-04  2.1186724978882303e-04  2.2409124659537871e-04  2.3678254816012314e-04  2.4974153662226067e-04  2.6282411862944230e-04  2.7591143653697133e-04  2.8888471060952207e-04  3.0159676336608020e-04  3.1384161186914821e-04  3.2532198903135302e-04  3.3562128917442424e-04  3.4419914345524454e-04  3.5044090170727535e-04  3.5377491714635133e-04  3.5385244951208992e-04  1.8424864422789529e-04  1.8436024933894007e-04  1.8710470495282865e-04  1.9217800423843571e-04  1.9924225039789914e-04  2.0787693858079754e-04  2.1768882892022400e-04  2.2833594339339555e-04  2.3954467413051677e-04  2.5109684865633772e-04  2.6281212549216453e-04  2.7453003163080083e-04  2.8608949833146182e-04  2.9730832543673006e-04  3.0796334092293893e-04  3.1777330190334015e-04  3.2639060765832364e-04  3.3341301125385821e-04  3.3842306711132515e-04  3.4106583174321894e-04  3.4113359171711381e-04  1.9435947565308161e-04  1.9444518396285595e-04  1.9668870777354345e-04  2.0088815992410960e-04  2.0682059649062724e-04  2.1418579269213750e-04  2.2268247910598224e-04  2.3202759035850654e-04  2.4197058990789352e-04  2.5229212599394910e-04  2.6279720962260264e-04  2.7330348041428720e-04  2.8362788862575707e-04  2.9357360079966137e-04  3.0291836895055414e-04  3.1140704627036317e-04  3.1875217473160635e-04  3.2464824221946738e-04  3.2880032744902961e-04  3.3097364429894360e-04  3.3102771461998370e-04  2.0232439136696481e-04  2.0239285272357876e-04  2.0428695761460190e-04  2.0786272121578909e-04  2.1296326112993808e-04  2.1936575587119537e-04  2.2683326117808102e-04  2.3512739505565354e-04  2.4402191402530932e-04  2.5330578016725789e-04  2.6278095134408088e-04  2.7225636990940944e-04  2.8154052690174445e-04  2.9043400506671891e-04  2.9872368981713948e-04  3.0618077457720974e-04  3.1256475617234505e-04  3.1763630383102728e-04  3.2117667938927981e-04  3.2302060967504611e-04  3.2306676129220050e-04  2.0847724242644729e-04  2.0853381987134513e-04  2.1018039673926684e-04  2.1330821037488345e-04  2.1779991515533267e-04  2.2348162442128734e-04  2.3015971938654094e-04  2.3762939028387873e-04  2.4568598998745957e-04  2.5412930487571508e-04  2.6276431055751457e-04  2.7139908178209902e-04  2.7984139671017233e-04  2.8789535738850630e-04  2.9535944247891194e-04  3.0202747179989154e-04  3.0769362200548585e-04  3.1216309134637633e-04  3.1526499614687272e-04  3.1687591457256372e-04  3.1691671077985634e-04  2.1305291210797138e-04  2.1310109676955655e-04  2.1457424703060025e-04  2.1738577685406372e-04  2.2144198625243753e-04  2.2659986576289303e-04  2.3269459905454716e-04  2.3954529576980044e-04  2.4696426641864617e-04  2.5476165152479955e-04  2.6274779756093258e-04  2.7073355029757579e-04  2.7852956600709413e-04  2.8594565622919540e-04  2.9279120332304767e-04  2.9887766241545085e-04  3.0402366119351357e-04  3.0806377039485476e-04  3.1085710480121566e-04  3.1230572785356266e-04  3.1234308051781315e-04  2.1621491977583238e-04  2.1625722724936150e-04  2.1761467730395032e-04  2.2021479411602510e-04  2.2397760927372236e-04  2.2877902030206908e-04  2.3447238965274095e-04  2.4089266639264919e-04  2.4786418884403246e-04  2.5520531568212361e-04  2.6273161288240980e-04  2.7025755500538013e-04  2.7759750970271990e-04  2.8456674387558817e-04  2.9098320553119534e-04  2.9667078888210462e-04  3.0146423644293656e-04  3.0521660037338932e-04  3.0780512620624237e-04  3.0914715597483278e-04  3.0918266771274102e-04  2.1807131979180138e-04  2.1810968254017035e-04  2.1939960974519490e-04  2.2187734847214146e-04  2.2546990314297087e-04  2.3006349407364457e-04  2.3552149320700300e-04  2.4168786170245397e-04  2.4839406294360213e-04  2.5546363253166354e-04  2.6271574608298094e-04  2.6996765639286392e-04  2.7703656882390034e-04  2.8374152696429491e-04  2.8990588806751072e-04  2.9536092725007294e-04  2.9995053256878459e-04  3.0353794632172464e-04  3.0601004246026063e-04  3.0729251765860145e-04  3.0732760002801716e-04  2.1868381843860897e-04  2.1871983177174849e-04  2.1998534643278227e-04  2.2242132218965507e-04  2.2595650621344971e-04  2.3048059573283050e-04  2.3586012308694635e-04  2.4194195620972045e-04  2.4855986404935770e-04  2.5553909488241062e-04  2.6270006541130462e-04  2.6986103594023553e-04  2.7684026677339720e-04  2.8345817461320372e-04  2.8954000773619094e-04  2.9491953509054380e-04  2.9944362461015867e-04  3.0297880863415944e-04  3.0541478439118628e-04  3.0668029905230330e-04  3.0671631238545269e-04  2.1807253079603786e-04  2.1810761316544343e-04  2.1939008836369933e-04  2.2186218450207705e-04  2.2544959825480587e-04  2.3003920357327699e-04  2.3549424275559735e-04  2.4165860385859514e-04  2.4836356199881660e-04  2.5543247442974364e-04  2.6268438473959056e-04  2.6993649829094873e-04  2.7700606787912463e-04  2.8371226912045008e-04  2.8987863761612530e-04  2.9533663674973214e-04  2.9993022768065288e-04  3.0352278235169945e-04  3.0600052107880934e-04  3.0729044828392229e-04  3.0732881103230235e-04  2.1621746311134121e-04  2.1625297484923983e-04  2.1759500461773608e-04  2.2018353045041402e-04  2.2393589438063236e-04  2.2872934194119899e-04  2.3441692529184216e-04  2.4083338694721014e-04  2.4780262111989102e-04  2.5514257581711283e-04  2.6266851794004521e-04  2.7019481514037796e-04  2.7753594197859677e-04  2.8450746443017805e-04  2.9092774117033714e-04  2.9662111052128820e-04  3.0142252154991358e-04  3.0518533670785742e-04  3.0778545352011874e-04  3.0914290357480936e-04  3.0918521104835025e-04  2.1305705030633953e-04  2.1309440297057782e-04  2.1454302602281331e-04  2.1733636042896521e-04  2.2137646963002903e-04  2.2652246840777895e-04  2.3260892749987124e-04  2.3945447459344636e-04  2.4687056481533198e-04  2.5466658052471545e-04  2.6265233326131681e-04  2.7063847929750486e-04  2.7843586440380678e-04  2.8585483505288322e-04  2.9270553176843146e-04  2.9880026506041638e-04  3.0395814457120565e-04  3.0801435396987832e-04  3.1082588379356793e-04  3.1229903405473612e-04  3.1234721871633609e-04  2.0848342004441576e-04  2.0852421625169420e-04  2.1013513467724491e-04  2.1323703947747827e-04  2.1770650881802099e-04  2.2337265902322781e-04  2.3004068834382699e-04  2.3750477343389731e-04  2.4555873411197314e-04  2.5400104903988637e-04  2.6263582026442127e-04  2.7127082594628619e-04  2.7971414083471897e-04  2.8777074053857791e-04  2.9524041143627437e-04  3.0191850640193642e-04  3.0760021566830976e-04  3.1209192044913766e-04  3.1521973408504491e-04  3.1686631095312735e-04  3.1692288839804363e-04  2.0233336953225954e-04  2.0237952114939616e-04  2.0422345143497717e-04  2.0776382699288194e-04  2.1283537465111027e-04  2.1921935624574746e-04  2.2667644100533675e-04  2.3496612575534106e-04  2.4385960391999965e-04  2.5314376091214015e-04  2.6261917947740821e-04  2.7209435065430883e-04  2.8137821679647101e-04  2.9027273576646674e-04  2.9856686964448506e-04  3.0603437495188866e-04  3.1243686969368651e-04  3.1753740960833516e-04  3.2111317320991195e-04  3.2300727810115207e-04  3.2307573945779077e-04  1.9437241620475748e-04  1.9442648652577525e-04  1.9659980337543361e-04  2.0075188860451911e-04  2.0664795609176673e-04  2.1399308455235277e-04  2.2248176187154319e-04  2.3182653002191359e-04  2.4177224219542961e-04  2.5209665040666363e-04  2.6260292119827360e-04  2.7310800482701795e-04  2.8342954091332929e-04  2.9337254046313065e-04  3.0271765171621114e-04  3.1121433813072050e-04  3.1857953433294626e-04  3.2451197090014412e-04  3.2871142305125151e-04  3.3095494686224410e-04  3.3104065517205257e-04  1.8426653910804443e-04  1.8433429908190743e-04  1.8697706371343580e-04  1.9198711957022418e-04  1.9900952316490765e-04  2.0762682891901102e-04  2.1743678989861277e-04  2.2809180538417093e-04  2.3931063248896800e-04  2.5087009918934742e-04  2.6258800532789401e-04  2.7430328216382387e-04  2.8585545668994325e-04  2.9706418742755957e-04  3.0771130190142038e-04  3.1752319224170384e-04  3.2615788042555818e-04  3.3322212658596609e-04  3.3829542587235264e-04  3.4103988148669143e-04  3.4115148659778506e-04  1.7154768131366662e-04  1.7162521367937566e-04  1.7495922911790740e-04  1.8120098736893492e-04  1.8977884164854796e-04  2.0007814179043149e-04  2.1155851895161460e-04  2.2380336745389125e-04  2.3651542020989888e-04  2.4948869428212904e-04  2.6257601218955480e-04  2.7565859419684632e-04  2.8861758265931442e-04  3.0130888422463044e-04  3.1353288103201540e-04  3.2499553217055390e-04  3.3529544815859302e-04  3.4392360567274383e-04  3.5025459641466753e-04  3.5373674013838759e-04  3.5388595602745400e-04  1.5546656717777276e-04  1.5558313445805988e-04  1.6000143516057522e-04  1.6806920377512302e-04  1.7884167289620523e-04  1.9137105444890531e-04  2.0493655855527361e-04  2.1906335046284519e-04  2.3346880848369394e-04  2.4799797347189149e-04  2.6256901294630195e-04  2.7713239968494386e-04  2.9163906408516199e-04  3.0601085435283095e-04  3.2008596782940360e-04  3.3359738901511812e-04  3.4612453247259863e-04  3.5694554682425315e-04  3.6510530263643475e-04  3.6973183076561547e-04  3.6996756058906000e-04  1.3480287088416066e-04  1.3520467785403843e-04  1.4128877729204387e-04  1.5224914307224302e-04  1.6619195162952095e-04  1.8167060616581306e-04  1.9778716134592213e-04  2.1406582053598331e-04  2.3031051549630440e-04  2.4647085030604670e-04  2.6256951573579862e-04  2.7865778642786356e-04  2.9478893528802729e-04  3.1097828982327747e-04  3.2716664726282287e-04  3.4322682745466969e-04  3.5860078492964216e-04  3.7239287761755847e-04  3.8351831322817144e-04  3.9021987985047858e-04  3.9056303794540492e-04  1.0941808895643665e-04  1.0801529509760532e-04  1.1775804630223401e-04  1.3354738417545404e-04  1.5208120810221738e-04  1.7141907002429986e-04  1.9051780012826510e-04  2.0912532910850163e-04  2.2724739120919137e-04  2.4500925289455547e-04  2.6257899498080236e-04  2.8013718133195587e-04  2.9786454530746309e-04  3.1590751393273793e-04  3.3442993956749246e-04  3.5336934941168521e-04  3.7219261366523210e-04  3.9100144135818631e-04  4.0719888490129135e-04  4.1687895313230461e-04  4.1722424017924835e-04  6.4024309534513603e-05  7.1444381762965277e-05  8.8640133935016064e-05  1.1190113441617521e-04  1.3756423880734915e-04  1.6147755117048768e-04  1.8378724744365534e-04  2.0468864220504770e-04  2.2455164316915327e-04  2.4374290636558054e-04  2.6260135001239266e-04  2.8144915678891640e-04  3.0060462810489432e-04  3.2039125690060404e-04  3.4122178866551029e-04  3.6308370921430056e-04  3.8702162621565570e-04  4.1253713513616163e-04  4.3294504335363205e-04  4.5186784978472891e-04  4.5614569499733798e-04  2.0708182644602908e-05  2.7460748273240764e-05  4.6301036231518629e-05  9.1688729979896849e-05  1.2449222941493578e-04  1.5325778492859655e-04  1.7847526947011076e-04  2.0127951140692926e-04  2.2251871413199155e-04  2.4280145552089909e-04  2.6262895478412946e-04  2.8244827198504324e-04  3.0270234234854954e-04  3.2388918088763229e-04  3.4660507148788049e-04  3.7140025521463537e-04  4.0088576791671619e-04  4.2943829032500235e-04  4.6806557968910589e-04  5.1943829061052089e-04  5.1195808440240127e-04  5.1263524922769152e-05  -1.5516067804250360e-04  3.3064174934667420e-05  7.5241242272111112e-05  1.1634007903143763e-04  1.4859427881198166e-04  1.7548090635965787e-04  1.9941743832304354e-04  2.2142906070199203e-04  2.4231372533888712e-04  2.6267343747704244e-04  2.8303034105986777e-04  3.0390696948522674e-04  3.2590562978284234e-04  3.4977191192315783e-04  3.7675066764657862e-04  4.0893267621478966e-04  4.4459828409285107e-04  5.2520859051588022e-04  5.4823720898404592e-04  5.9353557956477916e-04  -2.6591825067135122e-03  1.3457090056812556e-04  9.1449977163630073e-06  6.9927321816605614e-05  1.1783297863524687e-04  1.4816799948357278e-04  1.7542375664346787e-04  1.9938760508873176e-04  2.2141353867001227e-04  2.4231884257456537e-04  2.6269633718289443e-04  2.8307391478873544e-04  3.0397862849291363e-04  3.2601182825468307e-04  3.4996407329187168e-04  3.7712173294982958e-04  4.0862513973026720e-04  4.5071096595299598e-04  5.1871346089503640e-04  5.1255781231474495e-04  1.4314477508998657e-03  </DataArray> 
</PointData> 
</Piece>
</UnstructuredGrid>
</VTKFile>