<?xml version="1.0"?>
<VTKFile type="UnstructuredGrid"  version="0.1"  >
<UnstructuredGrid>
<Piece  NumberOfPoints="651" NumberOfCells="1200">
<Points>
<DataArray  type="Float64"  NumberOfComponents="3"  format="ascii">0 0 0  50000 0 0  100000 0 0  150000 0 0  200000 0 0  250000 0 0  300000 0 0  350000 0 0  400000 0 0  450000 0 0  500000 0 0  550000 0 0  600000 0 0  650000 0 0  700000 0 0  750000 0 0  800000 0 0  850000 0 0  900000 0 0  950000 0 0  1000000 0 0  0 50000 0  50000 50000 0  100000 50000 0  150000 50000 0  200000 50000 0  250000 50000 0  300000 50000 0  350000 50000 0  400000 50000 0  450000 50000 0  500000 50000 0  550000 50000 0  600000 50000 0  650000 50000 0  700000 50000 0  750000 50000 0  800000 50000 0  850000 50000 0  900000 50000 0  950000 50000 0  1000000 50000 0  0 100000 0  50000 100000 0  100000 100000 0  150000 100000 0  200000 100000 0  250000 100000 0  300000 100000 0  350000 100000 0  400000 100000 0  450000 100000 0  500000 100000 0  550000 100000 0  600000 100000 0  650000 100000 0  700000 100000 0  750000 100000 0  800000 100000 0  850000 100000 0  900000 100000 0  950000 100000 0  1000000 100000 0  0 150000 0  50000 150000 0  100000 150000 0  150000 150000 0  200000 150000 0  250000 150000 0  300000 150000 0  350000 150000 0  400000 150000 0  450000 150000 0  500000 150000 0  550000 150000 0  600000 150000 0  650000 150000 0  700000 150000 0  750000 150000 0  800000 150000 0  850000 150000 0  900000 150000 0  950000 150000 0  1000000 150000 0  0 200000 0  50000 200000 0  100000 200000 0  150000 200000 0  200000 200000 0  250000 200000 0  300000 200000 0  350000 200000 0  400000 200000 0  450000 200000 0  500000 200000 0  550000 200000 0  600000 200000 0  650000 200000 0  700000 200000 0  750000 200000 0  800000 200000 0  850000 200000 0  900000 200000 0  950000 200000 0  1000000 200000 0  0 250000 0  50000 250000 0  100000 250000 0  150000 250000 0  200000 250000 0  250000 250000 0  300000 250000 0  350000 250000 0  400000 250000 0  450000 250000 0  500000 250000 0  550000 250000 0  600000 250000 0  650000 250000 0  700000 250000 0  750000 250000 0  800000 250000 0  850000 250000 0  900000 250000 0  950000 250000 0  1000000 250000 0  0 300000 0  50000 300000 0  100000 300000 0  150000 300000 0  200000 300000 0  250000 300000 0  300000 300000 0  350000 300000 0  400000 300000 0  450000 300000 0  500000 300000 0  550000 300000 0  600000 300000 0  650000 300000 0  700000 300000 0  750000 300000 0  800000 300000 0  850000 300000 0  900000 300000 0  950000 300000 0  1000000 300000 0  0 350000 0  50000 350000 0  100000 350000 0  150000 350000 0  200000 350000 0  250000 350000 0  300000 350000 0  350000 350000 0  400000 350000 0  450000 350000 0  500000 350000 0  550000 350000 0  600000 350000 0  650000 350000 0  700000 350000 0  750000 350000 0  800000 350000 0  850000 350000 0  900000 350000 0  950000 350000 0  1000000 350000 0  0 400000 0  50000 400000 0  100000 400000 0  150000 400000 0  200000 400000 0  250000 400000 0  300000 400000 0  350000 400000 0  400000 400000 0  450000 400000 0  500000 400000 0  550000 400000 0  600000 400000 0  650000 400000 0  700000 400000 0  750000 400000 0  800000 400000 0  850000 400000 0  900000 400000 0  950000 400000 0  1000000 400000 0  0 450000 0  50000 450000 0  100000 450000 0  150000 450000 0  200000 450000 0  250000 450000 0  300000 450000 0  350000 450000 0  400000 450000 0  450000 450000 0  500000 450000 0  550000 450000 0  600000 450000 0  650000 450000 0  700000 450000 0  750000 450000 0  800000 450000 0  850000 450000 0  900000 450000 0  950000 450000 0  1000000 450000 0  0 500000 0  50000 500000 0  100000 500000 0  150000 500000 0  200000 500000 0  250000 500000 0  300000 500000 0  350000 500000 0  400000 500000 0  450000 500000 0  500000 500000 0  550000 500000 0  600000 500000 0  650000 500000 0  700000 500000 0  750000 500000 0  800000 500000 0  850000 500000 0  900000 500000 0  950000 500000 0  1000000 500000 0  0 550000 0  50000 550000 0  100000 550000 0  150000 550000 0  200000 550000 0  250000 550000 0  300000 550000 0  350000 550000 0  400000 550000 0  450000 550000 0  500000 550000 0  550000 550000 0  600000 550000 0  650000 550000 0  700000 550000 0  750000 550000 0  800000 550000 0  850000 550000 0  900000 550000 0  950000 550000 0  1000000 550000 0  0 600000 0  50000 600000 0  100000 600000 0  150000 600000 0  200000 600000 0  250000 600000 0  300000 600000 0  350000 600000 0  400000 600000 0  450000 600000 0  500000 600000 0  550000 600000 0  600000 600000 0  650000 600000 0  700000 600000 0  750000 600000 0  800000 600000 0  850000 600000 0  900000 600000 0  950000 600000 0  1000000 600000 0  0 650000 0  50000 650000 0  100000 650000 0  150000 650000 0  200000 650000 0  250000 650000 0  300000 650000 0  350000 650000 0  400000 650000 0  450000 650000 0  500000 650000 0  550000 650000 0  600000 650000 0  650000 650000 0  700000 650000 0  750000 650000 0  800000 650000 0  850000 650000 0  900000 650000 0  950000 650000 0  1000000 650000 0  0 700000 0  50000 700000 0  100000 700000 0  150000 700000 0  200000 700000 0  250000 700000 0  300000 700000 0  350000 700000 0  400000 700000 0  450000 700000 0  500000 700000 0  550000 700000 0  600000 700000 0  650000 700000 0  700000 700000 0  750000 700000 0  800000 700000 0  850000 700000 0  900000 700000 0  950000 700000 0  1000000 700000 0  0 750000 0  50000 750000 0  100000 750000 0  150000 750000 0  200000 750000 0  250000 750000 0  300000 750000 0  350000 750000 0  400000 750000 0  450000 750000 0  500000 750000 0  550000 750000 0  600000 750000 0  650000 750000 0  700000 750000 0  750000 750000 0  800000 750000 0  850000 750000 0  900000 750000 0  950000 750000 0  1000000 750000 0  0 800000 0  50000 800000 0  100000 800000 0  150000 800000 0  200000 800000 0  250000 800000 0  300000 800000 0  350000 800000 0  400000 800000 0  450000 800000 0  500000 800000 0  550000 800000 0  600000 800000 0  650000 800000 0  700000 800000 0  750000 800000 0  800000 800000 0  850000 800000 0  900000 800000 0  950000 800000 0  1000000 800000 0  0 850000 0  50000 850000 0  100000 850000 0  150000 850000 0  200000 850000 0  250000 850000 0  300000 850000 0  350000 850000 0  400000 850000 0  450000 850000 0  500000 850000 0  550000 850000 0  600000 850000 0  650000 850000 0  700000 850000 0  750000 850000 0  800000 850000 0  850000 850000 0  900000 850000 0  950000 850000 0  1000000 850000 0  0 900000 0  50000 900000 0  100000 900000 0  150000 900000 0  200000 900000 0  250000 900000 0  300000 900000 0  350000 900000 0  400000 900000 0  450000 900000 0  500000 900000 0  550000 900000 0  600000 900000 0  650000 900000 0  700000 900000 0  750000 900000 0  800000 900000 0  850000 900000 0  900000 900000 0  950000 900000 0  1000000 900000 0  0 950000 0  50000 950000 0  100000 950000 0  150000 950000 0  200000 950000 0  250000 950000 0  300000 950000 0  350000 950000 0  400000 950000 0  450000 950000 0  500000 950000 0  550000 950000 0  600000 950000 0  650000 950000 0  700000 950000 0  750000 950000 0  800000 950000 0  850000 950000 0  900000 950000 0  950000 950000 0  1000000 950000 0  0 1000000 0  50000 1000000 0  100000 1000000 0  150000 1000000 0  200000 1000000 0  250000 1000000 0  300000 1000000 0  350000 1000000 0  400000 1000000 0  450000 1000000 0  500000 1000000 0  550000 1000000 0  600000 1000000 0  650000 1000000 0  700000 1000000 0  750000 1000000 0  800000 1000000 0  850000 1000000 0  900000 1000000 0  950000 1000000 0  1000000 1000000 0  0 1050000 0  50000 1050000 0  100000 1050000 0  150000 1050000 0  200000 1050000 0  250000 1050000 0  300000 1050000 0  350000 1050000 0  400000 1050000 0  450000 1050000 0  500000 1050000 0  550000 1050000 0  600000 1050000 0  650000 1050000 0  700000 1050000 0  750000 1050000 0  800000 1050000 0  850000 1050000 0  900000 1050000 0  950000 1050000 0  1000000 1050000 0  0 1100000 0  50000 1100000 0  100000 1100000 0  150000 1100000 0  200000 1100000 0  250000 1100000 0  300000 1100000 0  350000 1100000 0  400000 1100000 0  450000 1100000 0  500000 1100000 0  550000 1100000 0  600000 1100000 0  650000 1100000 0  700000 1100000 0  750000 1100000 0  800000 1100000 0  850000 1100000 0  900000 1100000 0  950000 1100000 0  1000000 1100000 0  0 1150000 0  50000 1150000 0  100000 1150000 0  150000 1150000 0  200000 1150000 0  250000 1150000 0  300000 1150000 0  350000 1150000 0  400000 1150000 0  450000 1150000 0  500000 1150000 0  550000 1150000 0  600000 1150000 0  650000 1150000 0  700000 1150000 0  750000 1150000 0  800000 1150000 0  850000 1150000 0  900000 1150000 0  950000 1150000 0  1000000 1150000 0  0 1200000 0  50000 1200000 0  100000 1200000 0  150000 1200000 0  200000 1200000 0  250000 1200000 0  300000 1200000 0  350000 1200000 0  400000 1200000 0  450000 1200000 0  500000 1200000 0  550000 1200000 0  600000 1200000 0  650000 1200000 0  700000 1200000 0  750000 1200000 0  800000 1200000 0  850000 1200000 0  900000 1200000 0  950000 1200000 0  1000000 1200000 0  0 1250000 0  50000 1250000 0  100000 1250000 0  150000 1250000 0  200000 1250000 0  250000 1250000 0  300000 1250000 0  350000 1250000 0  400000 1250000 0  450000 1250000 0  500000 1250000 0  550000 1250000 0  600000 1250000 0  650000 1250000 0  700000 1250000 0  750000 1250000 0  800000 1250000 0  850000 1250000 0  900000 1250000 0  950000 1250000 0  1000000 1250000 0  0 1300000 0  50000 1300000 0  100000 1300000 0  150000 1300000 0  200000 1300000 0  250000 1300000 0  300000 1300000 0  350000 1300000 0  400000 1300000 0  450000 1300000 0  500000 1300000 0  550000 1300000 0  600000 1300000 0  650000 1300000 0  700000 1300000 0  750000 1300000 0  800000 1300000 0  850000 1300000 0  900000 1300000 0  950000 1300000 0  1000000 1300000 0  0 1350000 0  50000 1350000 0  100000 1350000 0  150000 1350000 0  200000 1350000 0  250000 1350000 0  300000 1350000 0  350000 1350000 0  400000 1350000 0  450000 1350000 0  500000 1350000 0  550000 1350000 0  600000 1350000 0  650000 1350000 0  700000 135
[...]
<PointData  Scalars="f_25027"> 
<DataArray  type="Float64"  Name="f_25027"  format="ascii">-1.3067276440016276e-03  -2.7273061112302127e-05  -6.2604058384238659e-05  2.2508882157653433e-05  7.1175060092185102e-05  1.0726837921385063e-04  1.3849147725721899e-04  1.6588840096320171e-04  1.9106036337639712e-04  2.1491777777774920e-04  2.3816139119061191e-04  2.6140404932970869e-04  2.8526130705546399e-04  3.1041723552406570e-04  3.3781559425920732e-04  3.6923945220719285e-04  4.0331310419565978e-04  4.6090394403762235e-04  5.3539143920586772e-04  3.2161905818400854e-04  4.2806063532879884e-03  -1.5086918282952480e-04  -9.6470733367856260e-05  -7.5442279948441111e-05  2.9153585105740582e-05  6.9348791786073204e-05  1.0715926470995041e-04  1.3832690011205808e-04  1.6576832696423499e-04  1.9100135297299986e-04  2.1490096268853562e-04  2.3818714969361585e-04  2.6147627311432344e-04  2.8538462298589054e-04  3.1062451538832502e-04  3.3816526199519314e-04  3.6918534549915653e-04  4.0680069038705007e-04  4.5581874015234868e-04  5.0233869688927357e-04  7.5796373470332352e-04  4.6251065549614327e-04  -5.1006341122143464e-05  -6.6822056482556443e-05  -7.3821988415800924e-07  4.5508338043546489e-05  7.7974682686132542e-05  1.1306309097289199e-04  1.4167409281497050e-04  1.6791317153086872e-04  1.9227598316080074e-04  2.1551782868718799e-04  2.3823967782188158e-04  2.6097051279983175e-04  2.8424591569195295e-04  3.0867089716257252e-04  3.3498391452789136e-04  3.6424605496527564e-04  3.9795391500429281e-04  4.3646596610275718e-04  4.9274237124612770e-04  5.1107348095883647e-04  5.1379021750964286e-04  1.5688478313932203e-05  1.9448609010071662e-05  4.1254458150104892e-05  6.4095864221530035e-05  9.4479129097882925e-05  1.2251067191482366e-04  1.4775011478093051e-04  1.7185497910840282e-04  1.9462401433367841e-04  2.1663660229886985e-04  2.3827362011354680e-04  2.5992302838208809e-04  2.8197600259759187e-04  3.0484652937256862e-04  3.2899044697983149e-04  3.5488473101504442e-04  3.8277924466586296e-04  4.1305378751162685e-04  4.4007035716130903e-04  4.5974407006033166e-04  4.6896830653087745e-04  6.1676244395679919e-05  6.0716506420927823e-05  7.1135711874462077e-05  9.0011646391297058e-05  1.1197851204750221e-04  1.3366874613618762e-04  1.5560609153936168e-04  1.7699133061728232e-04  1.9775280041942306e-04  2.1813322348443654e-04  2.3829969997690188e-04  2.5848072432213748e-04  2.7889871844393593e-04  2.9976410412116470e-04  3.2123974903611435e-04  3.4334566684686175e-04  3.6580265222805957e-04  3.8729851398564398e-04  4.0548353338245181e-04  4.1620742585259162e-04  4.1251476419523205e-04  9.2504997678309183e-05  9.2129209274722550e-05  9.9405786674787379e-05  1.1201975491079400e-04  1.2778667270350346e-04  1.4551713217446011e-04  1.6405630551767861e-04  1.8268429303724672e-04  2.0130303079270051e-04  2.1983758776171784e-04  2.3831155495464111e-04  2.5679888063017997e-04  2.7536699263295156e-04  2.9405123870275454e-04  3.1279929708680437e-04  3.3138353276081483e-04  3.4922917527634075e-04  3.6524419831847441e-04  3.7764799527646920e-04  3.8406830008829091e-04  3.8389524332031142e-04  1.1634920209228428e-04  1.1607011743620416e-04  1.2095896488065827e-04  1.3008591089912360e-04  1.4242292341912918e-04  1.5678905585810103e-04  1.7229197246261915e-04  1.8845375889392488e-04  2.0495615981811714e-04  2.2160339752852405e-04  2.3831263999514273e-04  2.5503116452549774e-04  2.7170608612173532e-04  2.8824623333078880e-04  3.0447186052068867e-04  3.2004760438560873e-04  3.3440318747568254e-04  3.4666478987523190e-04  3.5568361783972321e-04  3.6034376281369730e-04  3.5990435309982935e-04  1.3488951440207043e-04  1.3464030148590837e-04  1.3829410900790653e-04  1.4533113588607486e-04  1.5508867407677034e-04  1.6682104335843440e-04  1.7992766931025680e-04  1.9392748704857008e-04  2.0846688221871486e-04  2.2331469693119663e-04  2.3830482568383887e-04  2.5330034520340485e-04  2.6816555608105279e-04  2.8273014197562952e-04  2.9675250396652293e-04  3.0988015475299146e-04  3.2161531342248808e-04  3.3131005066153169e-04  3.3823372540452596e-04  3.4170831241176917e-04  3.4137125951574785e-04  1.4954141485619494e-04  1.4933838645645942e-04  1.5219748070280104e-04  1.5779560543157219e-04  1.6573856700159871e-04  1.7553368231112176e-04  1.8671262134334097e-04  1.9886839490747190e-04  2.1167959815124616e-04  2.2489072169968563e-04  2.3829091473850786e-04  2.5169418957522808e-04  2.6491378768539030e-04  2.7773724072074641e-04  2.8990259126259035e-04  3.0107758413761492e-04  3.1085000561695806e-04  3.1874273949042685e-04  3.2426489222208728e-04  3.2700294468108803e-04  3.2674825733259319e-04  1.6115602851893580e-04  1.6098187432764577e-04  1.6330561630270812e-04  1.6791705741991180e-04  1.7455814415260753e-04  1.8287900842408372e-04  1.9252531391879534e-04  2.0316450579347948e-04  2.1450218158992234e-04  2.2628100426528807e-04  2.3827350250376966e-04  2.5026744802517494e-04  2.6204961489159547e-04  2.7339020901383948e-04  2.8402880961470413e-04  2.9366543339130752e-04  3.0196168642828352e-04  3.0855844644580389e-04  3.1311288242426977e-04  3.1535394397558692e-04  3.1514164116292289e-04  1.7029317935887843e-04  1.7014059995384344e-04  1.7209369389627378e-04  1.7600429587556925e-04  1.8169211568908595e-04  1.8890031617982232e-04  1.9735262346656763e-04  2.0677013346981653e-04  2.1688804156566604e-04  2.2745983253295418e-04  2.3825455796143327e-04  2.4904955190684980e-04  2.5962164277642678e-04  2.6973817826797227e-04  2.7915007978274089e-04  2.8758959846908076e-04  2.9477544805107974e-04  3.0042852270792354e-04  3.0429683641690895e-04  3.0619084034743727e-04  3.0601166894756192e-04  1.7734415433845737e-04  1.7720719910653104e-04  1.7889861970877638e-04  1.8230789579725979e-04  1.8730105586616430e-04  1.9367908470240735e-04  2.0121753911112180e-04  2.0967814317636457e-04  2.1882248187747103e-04  2.2841722922991434e-04  2.3823517373725906e-04  2.4805281122209055e-04  2.5764629462790052e-04  2.6678738723751131e-04  2.7524119733873895e-04  2.8276745385993489e-04  2.8912674201649871e-04  2.9409334001014514e-04  2.9747181739357199e-04  2.9912139196931238e-04  2.9896564137908422e-04  1.8258339366659595e-04  1.8245722707715565e-04  1.8396578163984171e-04  1.8702210548581641e-04  1.9151966059186679e-04  1.9729568613931290e-04  2.0416012005503958e-04  2.1190343547953039e-04  2.2030765932965925e-04  2.2915202991301691e-04  2.3821595369220546e-04  2.4727939504299738e-04  2.5612208726565489e-04  2.6452279582713623e-04  2.7225987497542416e-04  2.7911434717167624e-04  2.8487614328260620e-04  2.8935452830903505e-04  2.9238928055443314e-04  2.9386910009147497e-04  2.9373004897779032e-04  1.8620179585723104e-04  1.8608239335224657e-04  1.8746907173027296e-04  1.9028986351529449e-04  1.9445410371516812e-04  1.9982113436054763e-04  2.0622246416822899e-04  2.1346749674602247e-04  2.2135273023188913e-04  2.2966735795660874e-04  2.3819714322901887e-04  2.4672649537619450e-04  2.5503969793829183e-04  2.6292215876274439e-04  2.7016258942001958e-04  2.7655697040307903e-04  2.8191448737325246e-04  2.8606631313949878e-04  2.8887339131712365e-04  2.9024202343216438e-04  2.9011454633320617e-04  1.8832541673097152e-04  1.8820918469158546e-04  1.8952465204031372e-04  1.9220919105410978e-04  1.9618017661880054e-04  2.0130897517397481e-04  2.0743893655759542e-04  2.1439021425622359e-04  2.2196785947584333e-04  2.2996731404008634e-04  2.3817872189946552e-04  2.4638988249567247e-04  2.5438853982793260e-04  2.6196468237300852e-04  2.6891354433943861e-04  2.7503995758892567e-04  2.8016400140199181e-04  2.8412888740865830e-04  2.8680675803212017e-04  2.8811351024542935e-04  2.8799338216593139e-04  1.8902621782903168e-04  1.8890975313740923e-04  1.9019920849879044e-04  1.9283714904713370e-04  1.9674296402814143e-04  2.0179206850085842e-04  2.0783155050316710e-04  2.1468502965120740e-04  2.2216032239838655e-04  2.3005493803302652e-04  2.3816052683778058e-04  2.4626611564261129e-04  2.5416073127747598e-04  2.6163602402500463e-04  2.6848950317348396e-04  2.7452898517627716e-04  2.7957808964946922e-04  2.8348390463088990e-04  2.8612184517953478e-04  2.8741130054106865e-04  2.8729483584945638e-04  1.8832767151256605e-04  1.8820754343305775e-04  1.8951429564621021e-04  1.9219216626936055e-04  1.9615705227560114e-04  2.0128109608817638e-04  2.0740750933716451e-04  2.1435637130314228e-04  2.2193251384785808e-04  2.2993117117988847e-04  2.3814233177601741e-04  2.4635373963547802e-04  2.5435319419995475e-04  2.6193083941993754e-04  2.6888211711902354e-04  2.7501207850314885e-04  2.8014087705882071e-04  2.8411186262394361e-04  2.8679640163805687e-04  2.8811186898694611e-04  2.8799563694757144e-04  1.8620650734536452e-04  1.8607903024639715e-04  1.8744766236126375e-04  1.9025474053854232e-04  1.9440656630431398e-04  1.9976408327394249e-04  2.0615846425645008e-04  2.1339889491322643e-04  2.2128135573728488e-04  2.2959455829913128e-04  2.3812391044622234e-04  2.4665369571872308e-04  2.5496832344370070e-04  2.6285355692996993e-04  2.7009858950827225e-04  2.7649991931651748e-04  2.8186694996245508e-04  2.8603119016281612e-04  2.8885198194819709e-04  2.9023866032640674e-04  2.9011925782143399e-04  1.8259100470093288e-04  1.8245195358723728e-04  1.8393177312407295e-04  1.8696652536905756e-04  1.9144491039492249e-04  1.9720670650520773e-04  2.0406117870081202e-04  2.1179825784851860e-04  2.2019896640954384e-04  2.2904165863191214e-04  2.3810509998260779e-04  2.4716902376190162e-04  2.5601339434555792e-04  2.6441761819615445e-04  2.7216093362124170e-04  2.7902536753763435e-04  2.8480139308574586e-04  2.8929894819238334e-04  2.9235527203879124e-04  2.9386382660169942e-04  2.9373766001227305e-04  1.7735541229988618e-04  1.7719966170964688e-04  1.7884923628512848e-04  1.8222771366803431e-04  1.8719431166097254e-04  1.9355359981673511e-04  2.0107985633713524e-04  2.0953366643765661e-04  2.1867475904671906e-04  2.2826824245218407e-04  2.3808587993690074e-04  2.4790382444437014e-04  2.5749857179716988e-04  2.6664291049883929e-04  2.7510351456480733e-04  2.8264196897434318e-04  2.8901999781141867e-04  2.9401315788106459e-04  2.9742243397010105e-04  2.9911385457263054e-04  2.9897689934072044e-04  1.7030938473178636e-04  1.7013021333189926e-04  1.7202421726208683e-04  1.7589253097038379e-04  1.8154560562630098e-04  1.8873145520726650e-04  1.9717097389259722e-04  2.0658287540648596e-04  2.1669941089735802e-04  2.2727150176651508e-04  2.3806649571179195e-04  2.4886122114042001e-04  2.5943301210813936e-04  2.6955092020467913e-04  2.7896843020883128e-04  2.8742073749661877e-04  2.9462893798843021e-04  3.0031675780292302e-04  3.0422735978295626e-04  3.0618045372576689e-04  3.0602787432075198e-04  1.6117941251698225e-04  1.6096710970430809e-04  1.6320817125515733e-04  1.6776260723267862e-04  1.7435936724894392e-04  1.8265562028455196e-04  1.9229224405985251e-04  2.0293084465960903e-04  2.1427143878102270e-04  2.2605360564693317e-04  2.3804755116816820e-04  2.5004004940682654e-04  2.6181887208271288e-04  2.7315654788000236e-04  2.8379573975581768e-04  2.9344204525187000e-04  3.0176290952477219e-04  3.0840399625879688e-04  3.1301543737702185e-04  3.1533917935261347e-04  3.1516502516134855e-04  1.4957279634813291e-04  1.4931810899962306e-04  1.5205616145795825e-04  1.5757831418827380e-04  1.6547104805999502e-04  1.7524346953749667e-04  1.8641846241083024e-04  1.9858381295128729e-04  2.1140726598563341e-04  2.2462686409518715e-04  2.3803013893170536e-04  2.5143033197073283e-04  2.6464145551978620e-04  2.7745265876457910e-04  2.8960843233012180e-04  3.0078737136408272e-04  3.1058248667551884e-04  3.1852544824738832e-04  3.2412357297762439e-04  3.2698266722474054e-04  3.2677963882503803e-04  1.3494979416613982e-04  1.3461274127013546e-04  1.3808732827639842e-04  1.4501100301739789e-04  1.5470574025394903e-04  1.6644089892094578e-04  1.7956854970524060e-04  1.9359091169443937e-04  2.0815549758783263e-04  2.2302070846478818e-04  2.3801622798412623e-04  2.5300635673699412e-04  2.6785417145016438e-04  2.8239356662149916e-04  2.9639338436152925e-04  3.0950001031553547e-04  3.2123237959975307e-04  3.3098991779311767e-04  3.3802694467351271e-04  3.4168075219667552e-04  3.4143153928053440e-04  1.1641670058377139e-04  1.1597729087003658e-04  1.2063743584239736e-04  1.2965626380382952e-04  1.4191786619974217e-04  1.5627344928643682e-04  1.7184919314864819e-04  1.8807482033658576e-04  2.0461496754434894e-04  2.2128988913986211e-04  2.3800841366998201e-04  2.5471765613682533e-04  2.7136489384794814e-04  2.8786729477343350e-04  3.0402908120665868e-04  3.1953199781390281e-04  3.3389813025648209e-04  3.4623514278033776e-04  3.5536208880205779e-04  3.6025093624834941e-04  3.5997185159238401e-04  9.2425810366636381e-05  9.2252753597837315e-05  9.8673058407303159e-05  1.1107685536029086e-04  1.2709187839701140e-04  1.4493752090812123e-04  1.6352175657898411e-04  1.8226981496099613e-04  2.0095406102957244e-04  2.1952217303169717e-04  2.3800949870703136e-04  2.5648346590014247e-04  2.7501802286980065e-04  2.9363676062643885e-04  3.1226474814801048e-04  3.3080392149453677e-04  3.4853438096958217e-04  3.6430129876724313e-04  3.7691526700930423e-04  3.8419184441331416e-04  3.8381605600967469e-04  6.3806289490913668e-05  6.0113627838180511e-05  7.0837520303443043e-05  8.9022539691143909e-05  1.1051840144103895e-04  1.3297538681690034e-04  1.5508130462458253e-04  1.7655694953786950e-04  1.9742233521425267e-04  2.1784032933566124e-04  2.3802135368077910e-04  2.5818783017334261e-04  2.7856825323873102e-04  2.9932972304165409e-04  3.2071496212135632e-04  3.4265230752726687e-04  3.6434254162057839e-04  3.8630940728718948e-04  4.0518534181434372e-04  4.1560454727169479e-04  4.1464480929576439e-04  7.3527471766247257e-06  1.6576983640435503e-05  3.6250696523486898e-05  6.3267266159279813e-05  9.3541808994187657e-05  1.2143632264048037e-04  1.4733060667390885e-04  1.7147452428068431e-04  1.9434505105564648e-04  2.1639802527124270e-04  2.3804743353982098e-04  2.5968445135443732e-04  2.8169703931951116e-04  3.0446607454479263e-04  3.2857093887281161e-04  3.5381038174004954e-04  3.8184192456356005e-04  4.1222518944752744e-04  4.3506659552244035e-04  4.5687244468677036e-04  4.6063257539350844e-04  -3.7469163811866798e-05  -3.4752427267925896e-05  -1.6421317567408643e-05  3.9855087545374010e-05  7.8367138639135833e-05  1.1207499867813162e-04  1.4133713911720217e-04  1.6765015648418708e-04  1.9207513795609530e-04  2.1535054084899472e-04  2.3808137582719316e-04  2.6080322496160169e-04  2.8404507048718431e-04  3.0840788211582360e-04  3.3464696082993652e-04  3.6325796267083847e-04  3.9834637095803805e-04  4.3081271559937292e-04  4.7705927357010781e-04  5.4314311024121291e-04  5.2732739483648541e-04  1.3810398356722541e-05  -2.8164268100624030e-04  -2.6017643276146721e-05  2.0502313463007864e-05  6.9520363236314506e-05  1.0713570813285525e-04  1.3815579164237965e-04  1.6569653825322818e-04  1.9093643065817256e-04  2.1484478053112541e-04  2.3813390395225118e-04  2.6142009095682611e-04  2.8531970067088966e-04  3.1055272667698813e-04  3.3799415352513975e-04  3.6916178892169128e-04  4.0697226183351805e-04  4.4716746851432656e-04  5.5176333356249786e-04  5.7279178692635536e-04  6.2719023653695606e-04  -3.8042852978616283e-03  1.5470199525002194e-04  -5.9070385565489816e-05  1.5417109587233065e-05  7.3007949429580040e-05  1.0708160142484463e-04  1.3850545937873300e-04  1.6590381811761075e-04  1.9105974658865986e-04  2.1491700431577562e-04  2.3815966245527124e-04  2.6140327586761673e-04  2.8526069026748240e-04  3.1043265267803117e-04  3.3782957638012727e-04  3.6905267441703906e-04  4.0514599353061909e-04  4.5381217146632730e-04  5.3892511197531020e-04  5.0359411471852136e-04  1.7830486987234395e-03  </DataArray> 
</PointData> 
</Piece>
</UnstructuredGrid>
</VTKFile>